Title t= 332.00000 step= 166000
29212
    1ASP      N    1   2.378   1.381   3.281
    1ASP    HT1    2   2.346   1.458   3.343
    1ASP    HT2    3   2.467   1.338   3.312
    1ASP    HT3    4   2.320   1.297   3.300
    1ASP     CA    5   2.382   1.407   3.135
    1ASP     HA    6   2.468   1.470   3.113
    1ASP     CB    7   2.395   1.271   3.063
    1ASP    HB1    8   2.359   1.273   2.958
    1ASP    HB2    9   2.326   1.198   3.109
    1ASP     CG   10   2.542   1.224   3.067
    1ASP    OD1   11   2.636   1.304   3.103
    1ASP    OD2   12   2.572   1.105   3.029
    1ASP      C   13   2.260   1.495   3.090
    1ASP      O   14   2.153   1.500   3.152
    2GLY      N   15   2.278   1.567   2.976
    2GLY     HN   16   2.366   1.570   2.929
    2GLY     CA   17   2.166   1.654   2.920
    2GLY    HA1   18   2.209   1.704   2.834
    2GLY    HA2   19   2.135   1.726   2.993
    2GLY      C   20   2.044   1.587   2.864
    2GLY      O   21   2.055   1.467   2.833
    3ASP      N   22   1.928   1.652   2.842
    3ASP     HN   23   1.914   1.745   2.875
    3ASP     CA   24   1.815   1.595   2.765
    3ASP     HA   25   1.849   1.522   2.693
    3ASP     CB   26   1.706   1.546   2.862
    3ASP    HB1   27   1.610   1.506   2.824
    3ASP    HB2   28   1.700   1.625   2.940
    3ASP     CG   29   1.746   1.432   2.950
    3ASP    OD1   30   1.731   1.418   3.072
    3ASP    OD2   31   1.800   1.334   2.881
    3ASP      C   32   1.752   1.702   2.680
    3ASP      O   33   1.756   1.822   2.710
    4GLY      N   34   1.692   1.660   2.561
    4GLY     HN   35   1.691   1.563   2.538
    4GLY     CA   36   1.626   1.760   2.477
    4GLY    HA1   37   1.596   1.702   2.391
    4GLY    HA2   38   1.703   1.832   2.453
    4GLY      C   39   1.505   1.836   2.535
    4GLY      O   40   1.443   1.781   2.626
    5PRO      N   41   1.464   1.951   2.481
    5PRO     CD   42   1.536   2.018   2.381
    5PRO    HD1   43   1.581   1.952   2.303
    5PRO    HD2   44   1.611   2.074   2.441
    5PRO     CA   45   1.340   2.030   2.515
    5PRO     HA   46   1.327   2.034   2.623
    5PRO     CB   47   1.359   2.167   2.448
    5PRO    HB1   48   1.429   2.222   2.515
    5PRO    HB2   49   1.271   2.231   2.424
    5PRO     CG   50   1.443   2.127   2.329
    5PRO    HG1   51   1.386   2.085   2.244
    5PRO    HG2   52   1.499   2.207   2.276
    5PRO      C   53   1.228   1.948   2.465
    5PRO      O   54   1.230   1.894   2.352
    6GLY      N   55   1.122   1.925   2.549
    6GLY     HN   56   1.119   1.972   2.637
    6GLY     CA   57   1.016   1.842   2.509
    6GLY    HA1   58   1.045   1.744   2.545
    6GLY    HA2   59   0.997   1.842   2.403
    6GLY      C   60   0.880   1.875   2.571
    6GLY      O   61   0.872   1.967   2.651
    7ASP      N   62   0.776   1.798   2.545
    7ASP     HN   63   0.776   1.719   2.485
    7ASP     CA   64   0.644   1.822   2.605
    7ASP     HA   65   0.617   1.924   2.586
    7ASP     CB   66   0.535   1.723   2.549
    7ASP    HB1   67   0.442   1.729   2.609
    7ASP    HB2   68   0.577   1.620   2.560
    7ASP     CG   69   0.500   1.756   2.408
    7ASP    OD1   70   0.530   1.867   2.356
    7ASP    OD2   71   0.447   1.660   2.350
    7ASP      C   72   0.652   1.798   2.763
    7ASP      O   73   0.725   1.710   2.801
    8PRO      N   74   0.581   1.876   2.852
    8PRO     CD   75   0.513   1.998   2.808
    8PRO    HD1   76   0.425   1.980   2.743
    8PRO    HD2   77   0.580   2.061   2.746
    8PRO     CA   78   0.612   1.867   2.991
    8PRO     HA   79   0.709   1.824   3.011
    8PRO     CB   80   0.583   2.018   3.041
    8PRO    HB1   81   0.682   2.067   3.037
    8PRO    HB2   82   0.561   2.010   3.149
    8PRO     CG   83   0.478   2.060   2.941
    8PRO    HG1   84   0.377   2.020   2.963
    8PRO    HG2   85   0.466   2.170   2.935
    8PRO      C   86   0.516   1.760   3.054
    8PRO      O   87   0.403   1.793   3.098
    9GLY      N   88   0.554   1.628   3.047
    9GLY     HN   89   0.638   1.604   2.998
    9GLY     CA   90   0.487   1.522   3.108
    9GLY    HA1   91   0.553   1.437   3.104
    9GLY    HA2   92   0.393   1.498   3.059
    9GLY      C   93   0.449   1.528   3.259
    9GLY      O   94   0.515   1.585   3.343
   10ASP      N   95   0.336   1.466   3.295
   10ASP     HN   96   0.276   1.419   3.230
   10ASP     CA   97   0.294   1.449   3.436
   10ASP     HA   98   0.328   1.536   3.491
   10ASP     CB   99   0.141   1.415   3.438
   10ASP    HB1  100   0.108   1.385   3.540
   10ASP    HB2  101   0.129   1.335   3.363
   10ASP     CG  102   0.057   1.525   3.390
   10ASP    OD1  103   7.149   1.509   3.365
   10ASP    OD2  104   0.097   1.650   3.395
   10ASP      C  105   0.369   1.332   3.515
   10ASP      O  106   0.316   1.300   3.620
   11GLY      N  107   0.480   1.274   3.468
   11GLY     HN  108   0.512   1.312   3.381
   11GLY     CA  109   0.544   1.152   3.522
   11GLY    HA1  110   0.467   1.081   3.549
   11GLY    HA2  111   0.608   1.183   3.603
   11GLY      C  112   0.638   1.072   3.426
   11GLY    OT1  113   0.606   1.069   3.304
   11GLY    OT2  114   0.741   1.009   3.461
   12LIT    LIT  115   4.811   4.855   1.834
   13LIT    LIT  116   5.880   6.243   0.084
   14LIT    LIT  117   0.069   3.601   5.655
   15LIT    LIT  118   2.779   1.776   1.790
   16LIT    LIT  119   0.760   0.934   3.286
   17LIT    LIT  120   0.258   1.896   0.087
   18LIT    LIT  121   5.128   5.267   0.138
   19LIT    LIT  122   4.712   0.027   1.362
   20LIT    LIT  123   0.258   3.110   3.806
   21LIT    LIT  124   6.673   5.351   0.099
   22LIT    LIT  125   4.543   5.171   0.346
   23LIT    LIT  126   4.082   3.898   5.518
   24LIT    LIT  127   5.737   4.584   2.207
   25LIT    LIT  128   6.547   1.061   2.465
   26LIT    LIT  129   7.117   1.702   3.401
   27LIT    LIT  130   4.654   2.549   3.161
   28LIT    LIT  131   3.822   1.149   0.137
   29LIT    LIT  132   0.955   2.554   3.329
   30LIT    LIT  133   0.215   3.302   1.578
   31LIT    LIT  134   3.639   1.649   1.875
   32LIT    LIT  135   6.678   1.385   1.004
   33LIT    LIT  136   3.738   2.756   2.205
   34LIT    LIT  137   0.262   5.276   0.265
   35LIT    LIT  138   7.080   1.741   1.627
   36LIT    LIT  139   3.964   3.343   4.839
   37LIT    LIT  140   3.495   4.620   2.074
   38LIT    LIT  141   0.900   4.290   1.114
   39LIT    LIT  142   2.755   1.162   3.022
   40LIT    LIT  143   4.903   0.319   2.310
   41LIT    LIT  144   3.398   0.854   5.012
   42LIT    LIT  145   1.975   1.295   2.813
   43CLA    CLA  146   4.814   0.223   2.502
   44CLA    CLA  147   6.004   1.605   3.703
   45CLA    CLA  148   2.886   2.751   5.831
   46CLA    CLA  149   5.705   5.241   0.444
   47CLA    CLA  150   6.079   1.154   0.925
   48CLA    CLA  151   3.948   2.907   4.529
   49CLA    CLA  152   3.878   4.292   2.489
   50CLA    CLA  153   5.547   5.775   1.425
   51CLA    CLA  154   0.677   2.120   0.078
   52CLA    CLA  155   2.758   0.155   0.362
   53CLA    CLA  156   3.924   3.081   3.501
   54CLA    CLA  157   5.396   3.145   3.022
   55CLA    CLA  158   1.161   3.583   4.848
   56CLA    CLA  159   6.948   2.969   1.520
   57CLA    CLA  160   5.890   0.604   4.714
   58CLA    CLA  161   5.096   2.654   2.137
   59CLA    CLA  162   4.995   4.794   4.633
   60CLA    CLA  163   5.474   1.627   4.863
   61CLA    CLA  164   2.636   1.418   1.563
   62CLA    CLA  165   6.725   4.001   5.693
   63CLA    CLA  166   1.634   1.711   3.726
   64CLA    CLA  167   5.085   2.076   0.257
   65CLA    CLA  168   5.711   5.151   2.159
   66CLA    CLA  169   3.592   0.127   4.624
   67CLA    CLA  170   3.722   3.345   2.849
   68CLA    CLA  171   1.560   2.487   1.961
   69CLA    CLA  172   4.762   5.980   1.606
   70TIP3   OH2  173   1.260   3.204   0.767
   70TIP3    H1  174   1.234   3.270   0.703
   70TIP3    H2  175   1.326   3.248   0.820
   71TIP3   OH2  176   3.632   1.482   4.049
   71TIP3    H1  177   3.612   1.561   3.999
   71TIP3    H2  178   3.705   1.442   4.002
   72TIP3   OH2  179   5.960   5.716   1.202
   72TIP3    H1  180   5.883   5.680   1.159
   72TIP3    H2  181   5.931   5.735   1.291
   73TIP3   OH2  182   5.495   3.403   0.984
   73TIP3    H1  183   5.452   3.321   1.007
   73TIP3    H2  184   5.427   3.470   0.997
   74TIP3   OH2  185   4.254   4.104   3.326
   74TIP3    H1  186   4.271   4.138   3.414
   74TIP3    H2  187   4.245   4.010   3.338
   75TIP3   OH2  188   4.316   2.995   2.524
   75TIP3    H1  189   4.379   2.938   2.569
   75TIP3    H2  190   4.336   2.983   2.431
   76TIP3   OH2  191   4.342   6.612   4.642
   76TIP3    H1  192   4.287   6.562   4.702
   76TIP3    H2  193   4.282   6.675   4.602
   77TIP3   OH2  194   2.518   3.869   2.832
   77TIP3    H1  195   2.543   3.807   2.901
   77TIP3    H2  196   2.594   3.927   2.824
   78TIP3   OH2  197   6.037   0.301   5.617
   78TIP3    H1  198   6.051   0.310   5.712
   78TIP3    H2  199   6.053   0.208   5.600
   79TIP3   OH2  200   0.179   0.458   1.077
   79TIP3    H1  201   0.148   0.412   0.999
   79TIP3    H2  202   0.256   0.409   1.104
   80TIP3   OH2  203   2.369   0.083   5.528
   80TIP3    H1  204   2.378   0.123   5.442
   80TIP3    H2  205   2.457   0.050   5.549
   81TIP3   OH2  206   7.002   2.246   3.692
   81TIP3    H1  207   7.013   2.165   3.642
   81TIP3    H2  208   6.957   2.305   3.632
   82TIP3   OH2  209   3.565   3.918   3.745
   82TIP3    H1  210   3.633   3.936   3.810
   82TIP3    H2  211   3.534   3.830   3.767
   83TIP3   OH2  212   6.225   5.612   1.513
   83TIP3    H1  213   6.230   5.613   1.608
   83TIP3    H2  214   6.174   5.533   1.492
   84TIP3   OH2  215   5.073   4.971   1.486
   84TIP3    H1  216   5.164   4.964   1.511
   84TIP3    H2  217   5.034   5.031   1.549
   85TIP3   OH2  218   4.123   1.907   2.456
   85TIP3    H1  219   4.030   1.927   2.449
   85TIP3    H2  220   4.159   1.932   2.370
   86TIP3   OH2  221   4.025   6.649   5.598
   86TIP3    H1  222   4.006   6.603   5.679
   86TIP3    H2  223   4.119   6.666   5.602
   87TIP3   OH2  224   3.376   2.701   2.586
   87TIP3    H1  225   3.435   2.657   2.648
   87TIP3    H2  226   3.434   2.748   2.526
   88TIP3   OH2  227   0.608   4.322   5.127
   88TIP3    H1  228   0.582   4.389   5.191
   88TIP3    H2  229   0.534   4.319   5.065
   89TIP3   OH2  230   6.465   4.299   2.315
   89TIP3    H1  231   6.465   4.302   2.411
   89TIP3    H2  232   6.558   4.294   2.291
   90TIP3   OH2  233   4.926   1.270   4.057
   90TIP3    H1  234   4.853   1.252   4.116
   90TIP3    H2  235   4.997   1.215   4.090
   91TIP3   OH2  236   0.076   2.897   3.438
   91TIP3    H1  237   0.161   2.854   3.435
   91TIP3    H2  238   0.027   2.860   3.365
   92TIP3   OH2  239   2.311   5.900   1.607
   92TIP3    H1  240   2.363   5.979   1.594
   92TIP3    H2  241   2.365   5.844   1.662
   93TIP3   OH2  242   6.938   3.788   4.246
   93TIP3    H1  243   6.849   3.823   4.239
   93TIP3    H2  244   6.961   3.800   4.338
   94TIP3   OH2  245   5.681   3.297   3.744
   94TIP3    H1  246   5.598   3.255   3.720
   94TIP3    H2  247   5.691   3.278   3.837
   95TIP3   OH2  248   0.055   1.723   0.983
   95TIP3    H1  249  -0.001   1.723   1.061
   95TIP3    H2  250   0.094   1.636   0.981
   96TIP3   OH2  251   6.287   1.326   2.461
   96TIP3    H1  252   6.278   1.421   2.461
   96TIP3    H2  253   6.296   1.302   2.369
   97TIP3   OH2  254   0.888   5.315   0.312
   97TIP3    H1  255   0.962   5.373   0.330
   97TIP3    H2  256   0.925   5.244   0.261
   98TIP3   OH2  257   4.308   3.372   5.613
   98TIP3    H1  258   4.222   3.331   5.611
   98TIP3    H2  259   4.366   3.309   5.569
   99TIP3   OH2  260   7.120   3.573   1.770
   99TIP3    H1  261   7.107   3.666   1.785
   99TIP3    H2  262   7.042   3.545   1.722
  100TIP3   OH2  263   5.581   5.648   2.381
  100TIP3    H1  264   5.493   5.615   2.363
  100TIP3    H2  265   5.568   5.722   2.440
  101TIP3   OH2  266   2.261   3.439   3.890
  101TIP3    H1  267   2.271   3.520   3.839
  101TIP3    H2  268   2.219   3.378   3.830
  102TIP3   OH2  269   3.044   1.355   2.351
  102TIP3    H1  270   2.970   1.325   2.298
  102TIP3    H2  271   3.121   1.334   2.298
  103TIP3   OH2  272   5.183   6.118   2.513
  103TIP3    H1  273   5.183   6.074   2.598
  103TIP3    H2  274   5.241   6.193   2.525
  104TIP3   OH2  275   4.445   1.157   5.116
  104TIP3    H1  276   4.462   1.101   5.192
  104TIP3    H2  277   4.468   1.103   5.041
  105TIP3   OH2  278   6.178   4.446   0.158
  105TIP3    H1  279   6.186   4.520   0.097
  105TIP3    H2  280   6.110   4.472   0.219
  106TIP3   OH2  281   7.187   5.758   0.933
  106TIP3    H1  282   7.113   5.720   0.981
  106TIP3    H2  283   7.187   5.850   0.957
  107TIP3   OH2  284   7.013   6.687   2.495
  107TIP3    H1  285   7.008   6.727   2.408
  107TIP3    H2  286   7.107   6.684   2.515
  108TIP3   OH2  287   0.133   6.383   3.369
  108TIP3    H1  288   0.147   6.371   3.275
  108TIP3    H2  289   0.039   6.394   3.378
  109TIP3   OH2  290   7.051   6.096   1.758
  109TIP3    H1  291   6.986   6.054   1.815
  109TIP3    H2  292   7.109   6.143   1.818
  110TIP3   OH2  293   2.365   0.763   2.330
  110TIP3    H1  294   2.299   0.711   2.375
  110TIP3    H2  295   2.442   0.759   2.386
  111TIP3   OH2  296   1.988   1.641   5.388
  111TIP3    H1  297   1.913   1.678   5.434
  111TIP3    H2  298   2.052   1.712   5.384
  112TIP3   OH2  299   0.463   0.680   5.083
  112TIP3    H1  300   0.422   0.763   5.107
  112TIP3    H2  301   0.406   0.614   5.121
  113TIP3   OH2  302   3.893   6.511   3.184
  113TIP3    H1  303   3.898   6.424   3.224
  113TIP3    H2  304   3.982   6.529   3.154
  114TIP3   OH2  305   2.367   4.853   5.434
  114TIP3    H1  306   2.458   4.874   5.415
  114TIP3    H2  307   2.353   4.766   5.396
  115TIP3   OH2  308   0.306   4.311   0.428
  115TIP3    H1  309   0.249   4.387   0.417
  115TIP3    H2  310   0.262   4.258   0.496
  116TIP3   OH2  311   3.713   3.897   3.467
  116TIP3    H1  312   3.762   3.816   3.453
  116TIP3    H2  313   3.664   3.882   3.548
  117TIP3   OH2  314   5.015   0.363   1.963
  117TIP3    H1  315   4.938   0.408   1.996
  117TIP3    H2  316   5.022   0.284   2.017
  118TIP3   OH2  317   5.441   2.789   2.827
  118TIP3    H1  318   5.410   2.769   2.739
  118TIP3    H2  319   5.381   2.743   2.885
  119TIP3   OH2  320   0.677   5.588   0.570
  119TIP3    H1  321   0.605   5.559   0.515
  119TIP3    H2  322   0.691   5.517   0.633
  120TIP3   OH2  323   3.930   0.713   1.544
  120TIP3    H1  324   3.870   0.653   1.589
  120TIP3    H2  325   4.013   0.701   1.590
  121TIP3   OH2  326   2.756   0.726   2.657
  121TIP3    H1  327   2.833   0.755   2.706
  121TIP3    H2  328   2.713   0.663   2.715
  122TIP3   OH2  329   4.371   1.349   2.969
  122TIP3    H1  330   4.289   1.385   2.936
  122TIP3    H2  331   4.437   1.374   2.904
  123TIP3   OH2  332   1.454   6.399   4.167
  123TIP3    H1  333   1.526   6.460   4.150
  123TIP3    H2  334   1.394   6.412   4.094
  124TIP3   OH2  335   1.202   4.658   0.101
  124TIP3    H1  336   1.225   4.689   0.014
  124TIP3    H2  337   1.158   4.732   0.143
  125TIP3   OH2  338   6.077   2.759   0.929
  125TIP3    H1  339   6.100   2.844   0.968
  125TIP3    H2  340   6.161   2.718   0.909
  126TIP3   OH2  341   3.697   2.069   2.795
  126TIP3    H1  342   3.761   2.135   2.767
  126TIP3    H2  343   3.627   2.120   2.835
  127TIP3   OH2  344   5.285   5.189   5.418
  127TIP3    H1  345   5.363   5.238   5.393
  127TIP3    H2  346   5.235   5.250   5.472
  128TIP3   OH2  347   3.823   2.538   0.667
  128TIP3    H1  348   3.871   2.559   0.587
  128TIP3    H2  349   3.881   2.480   0.715
  129TIP3   OH2  350   0.949   2.086   3.104
  129TIP3    H1  351   1.026   2.044   3.143
  129TIP3    H2  352   0.912   2.020   3.046
  130TIP3   OH2  353   6.930   3.859   5.862
  130TIP3    H1  354   6.929   3.776   5.813
  130TIP3    H2  355   6.884   3.921   5.805
  131TIP3   OH2  356   3.846   0.778   5.312
  131TIP3    H1  357   3.925   0.810   5.354
  131TIP3    H2  358   3.797   0.735   5.382
  132TIP3   OH2  359   0.075   2.436   0.306
  132TIP3    H1  360   0.030   2.457   0.388
  132TIP3    H2  361   0.156   2.392   0.334
  133TIP3   OH2  362   4.967   2.276   4.116
  133TIP3    H1  363   5.024   2.319   4.051
  133TIP3    H2  364   4.882   2.319   4.106
  134TIP3   OH2  365   7.001   0.908   2.359
  134TIP3    H1  366   7.011   0.993   2.400
  134TIP3    H2  367   7.029   0.845   2.426
  135TIP3   OH2  368   5.311   6.101   4.941
  135TIP3    H1  369   5.252   6.154   4.887
  135TIP3    H2  370   5.339   6.030   4.883
  136TIP3   OH2  371   4.171   4.160   5.224
  136TIP3    H1  372   4.176   4.193   5.314
  136TIP3    H2  373   4.093   4.106   5.223
  137TIP3   OH2  374   2.121   1.688   0.225
  137TIP3    H1  375   2.081   1.718   0.143
  137TIP3    H2  376   2.214   1.677   0.204
  138TIP3   OH2  377   0.272   1.205   0.945
  138TIP3    H1  378   0.361   1.176   0.926
  138TIP3    H2  379   0.219   1.126   0.934
  139TIP3   OH2  380   5.071   1.214   5.053
  139TIP3    H1  381   5.053   1.127   5.016
  139TIP3    H2  382   5.109   1.195   5.139
  140TIP3   OH2  383   1.538   4.516   3.566
  140TIP3    H1  384   1.586   4.575   3.507
  140TIP3    H2  385   1.452   4.506   3.525
  141TIP3   OH2  386   6.148   6.583   4.099
  141TIP3    H1  387   6.112   6.588   4.010
  141TIP3    H2  388   6.240   6.563   4.086
  142TIP3   OH2  389   4.369   2.280   5.608
  142TIP3    H1  390   4.332   2.320   5.529
  142TIP3    H2  391   4.310   2.308   5.678
  143TIP3   OH2  392   6.969   5.494   2.831
  143TIP3    H1  393   6.907   5.511   2.901
  143TIP3    H2  394   7.054   5.490   2.875
  144TIP3   OH2  395   6.779   2.182   4.191
  144TIP3    H1  396   6.842   2.112   4.209
  144TIP3    H2  397   6.777   2.188   4.095
  145TIP3   OH2  398   0.860   3.660   0.107
  145TIP3    H1  399   0.932   3.602   0.082
  145TIP3    H2  400   0.830   3.627   0.192
  146TIP3   OH2  401   1.670   1.999   5.335
  146TIP3    H1  402   1.655   2.038   5.249
  146TIP3    H2  403   1.591   1.946   5.351
  147TIP3   OH2  404   3.542   0.803   2.350
  147TIP3    H1  405   3.588   0.854   2.417
  147TIP3    H2  406   3.609   0.745   2.313
  148TIP3   OH2  407   4.565   4.540   1.084
  148TIP3    H1  408   4.549   4.474   1.152
  148TIP3    H2  409   4.483   4.589   1.078
  149TIP3   OH2  410   5.140   5.524   3.631
  149TIP3    H1  411   5.103   5.452   3.579
  149TIP3    H2  412   5.070   5.547   3.693
  150TIP3   OH2  413   5.395   3.179   4.819
  150TIP3    H1  414   5.389   3.250   4.883
  150TIP3    H2  415   5.372   3.220   4.736
  151TIP3   OH2  416   1.852   5.733   4.405
  151TIP3    H1  417   1.857   5.638   4.419
  151TIP3    H2  418   1.758   5.751   4.394
  152TIP3   OH2  419   4.256   2.687   5.162
  152TIP3    H1  420   4.185   2.651   5.110
  152TIP3    H2  421   4.215   2.756   5.214
  153TIP3   OH2  422   2.027   1.091   4.117
  153TIP3    H1  423   2.095   1.155   4.095
  153TIP3    H2  424   2.045   1.017   4.059
  154TIP3   OH2  425   0.151   0.947   4.292
  154TIP3    H1  426   0.102   0.895   4.356
  154TIP3    H2  427   0.093   0.952   4.216
  155TIP3   OH2  428   2.374   3.484   0.050
  155TIP3    H1  429   2.353   3.482   0.144
  155TIP3    H2  430   2.390   3.576   0.031
  156TIP3   OH2  431   3.202   2.681   2.372
  156TIP3    H1  432   3.168   2.770   2.383
  156TIP3    H2  433   3.251   2.663   2.453
  157TIP3   OH2  434   0.688   5.770   2.562
  157TIP3    H1  435   0.673   5.676   2.553
  157TIP3    H2  436   0.772   5.785   2.519
  158TIP3   OH2  437   4.851   6.010   4.385
  158TIP3    H1  438   4.929   6.062   4.404
  158TIP3    H2  439   4.859   5.988   4.292
  159TIP3   OH2  440   5.274   0.592   2.726
  159TIP3    H1  441   5.229   0.675   2.710
  159TIP3    H2  442   5.249   0.568   2.815
  160TIP3   OH2  443   1.702   4.677   3.415
  160TIP3    H1  444   1.745   4.760   3.437
  160TIP3    H2  445   1.758   4.638   3.348
  161TIP3   OH2  446   0.970   2.789   0.438
  161TIP3    H1  447   0.964   2.861   0.376
  161TIP3    H2  448   0.893   2.800   0.494
  162TIP3   OH2  449   5.993   1.133   0.624
  162TIP3    H1  450   5.923   1.068   0.621
  162TIP3    H2  451   6.040   1.114   0.705
  163TIP3   OH2  452   2.667   1.986   4.636
  163TIP3    H1  453   2.737   1.927   4.609
  163TIP3    H2  454   2.599   1.928   4.671
  164TIP3   OH2  455   3.577   3.810   1.295
  164TIP3    H1  456   3.573   3.837   1.203
  164TIP3    H2  457   3.604   3.889   1.341
  165TIP3   OH2  458   4.584   3.379   3.281
  165TIP3    H1  459   4.645   3.412   3.215
  165TIP3    H2  460   4.613   3.290   3.298
  166TIP3   OH2  461   3.034   4.773   4.611
  166TIP3    H1  462   2.957   4.762   4.555
  166TIP3    H2  463   3.004   4.751   4.699
  167TIP3   OH2  464   0.303   2.541   3.783
  167TIP3    H1  465   0.265   2.461   3.746
  167TIP3    H2  466   0.359   2.575   3.713
  168TIP3   OH2  467   6.585   6.029   0.493
  168TIP3    H1  468   6.666   6.077   0.509
  168TIP3    H2  469   6.610   5.937   0.503
  169TIP3   OH2  470   5.804   3.829   2.899
  169TIP3    H1  471   5.797   3.924   2.904
  169TIP3    H2  472   5.805   3.810   2.805
  170TIP3   OH2  473   4.781   2.850   4.582
  170TIP3    H1  474   4.762   2.878   4.671
  170TIP3    H2  475   4.695   2.846   4.539
  171TIP3   OH2  476   6.712   1.636   2.728
  171TIP3    H1  477   6.695   1.692   2.803
  171TIP3    H2  478   6.712   1.695   2.653
  172TIP3   OH2  479   2.637   5.644   2.395
  172TIP3    H1  480   2.593   5.630   2.311
  172TIP3    H2  481   2.689   5.564   2.408
  173TIP3   OH2  482   0.384   1.401   2.462
  173TIP3    H1  483   0.389   1.475   2.401
  173TIP3    H2  484   0.410   1.438   2.547
  174TIP3   OH2  485   2.927   4.401   0.285
  174TIP3    H1  486   2.863   4.471   0.267
  174TIP3    H2  487   3.011   4.438   0.258
  175TIP3   OH2  488   6.420   0.362   2.350
  175TIP3    H1  489   6.328   0.334   2.351
  175TIP3    H2  490   6.416   0.456   2.365
  176TIP3   OH2  491   1.446   3.356   0.901
  176TIP3    H1  492   1.447   3.336   0.995
  176TIP3    H2  493   1.482   3.445   0.895
  177TIP3   OH2  494   5.410   5.939   5.215
  177TIP3    H1  495   5.447   6.010   5.163
  177TIP3    H2  496   5.316   5.944   5.200
  178TIP3   OH2  497   5.231   3.969   3.063
  178TIP3    H1  498   5.326   3.981   3.069
  178TIP3    H2  499   5.203   3.952   3.153
  179TIP3   OH2  500   6.041   3.744   0.484
  179TIP3    H1  501   5.968   3.721   0.427
  179TIP3    H2  502   6.065   3.661   0.526
  180TIP3   OH2  503   3.637   2.910   4.338
  180TIP3    H1  504   3.730   2.925   4.358
  180TIP3    H2  505   3.632   2.818   4.314
  181TIP3   OH2  506   7.031   1.192   2.463
  181TIP3    H1  507   7.006   1.156   2.549
  181TIP3    H2  508   7.069   1.277   2.484
  182TIP3   OH2  509   2.346   2.217   3.764
  182TIP3    H1  510   2.383   2.302   3.740
  182TIP3    H2  511   2.421   2.165   3.792
  183TIP3   OH2  512   2.306   3.255   4.779
  183TIP3    H1  513   2.371   3.189   4.757
  183TIP3    H2  514   2.273   3.285   4.694
  184TIP3   OH2  515   0.088   3.715   4.712
  184TIP3    H1  516   0.132   3.703   4.628
  184TIP3    H2  517   0.097   3.808   4.731
  185TIP3   OH2  518   4.784   4.838   5.105
  185TIP3    H1  519   4.858   4.857   5.163
  185TIP3    H2  520   4.822   4.789   5.032
  186TIP3   OH2  521   3.443   2.681   4.386
  186TIP3    H1  522   3.418   2.614   4.323
  186TIP3    H2  523   3.394   2.759   4.361
  187TIP3   OH2  524   0.924   2.175   0.554
  187TIP3    H1  525   0.906   2.162   0.461
  187TIP3    H2  526   0.935   2.270   0.563
  188TIP3   OH2  527   6.969   6.585   1.425
  188TIP3    H1  528   6.915   6.663   1.412
  188TIP3    H2  529   6.946   6.555   1.513
  189TIP3   OH2  530   6.143   3.532   4.887
  189TIP3    H1  531   6.053   3.511   4.865
  189TIP3    H2  532   6.161   3.613   4.838
  190TIP3   OH2  533   6.291   3.080   0.873
  190TIP3    H1  534   6.374   3.112   0.839
  190TIP3    H2  535   6.259   3.019   0.806
  191TIP3   OH2  536   4.272   1.258   4.644
  191TIP3    H1  537   4.209   1.310   4.695
  191TIP3    H2  538   4.250   1.278   4.553
  192TIP3   OH2  539   3.009   4.494   2.049
  192TIP3    H1  540   2.932   4.437   2.042
  192TIP3    H2  541   3.076   4.438   2.088
  193TIP3   OH2  542   1.397   6.782   3.950
  193TIP3    H1  543   1.347   6.864   3.951
  193TIP3    H2  544   1.345   6.722   4.003
  194TIP3   OH2  545   1.335   1.446   5.426
  194TIP3    H1  546   1.429   1.438   5.442
  194TIP3    H2  547   1.315   1.537   5.447
  195TIP3   OH2  548   0.849   1.738   4.506
  195TIP3    H1  549   0.928   1.689   4.528
  195TIP3    H2  550   0.829   1.713   4.416
  196TIP3   OH2  551   1.985   0.806   3.536
  196TIP3    H1  552   1.941   0.788   3.619
  196TIP3    H2  553   1.955   0.736   3.478
  197TIP3   OH2  554   5.115   1.178   0.493
  197TIP3    H1  555   5.026   1.191   0.461
  197TIP3    H2  556   5.159   1.262   0.477
  198TIP3   OH2  557   4.199   0.040   0.284
  198TIP3    H1  558   4.291   0.034   0.313
  198TIP3    H2  559   4.191  -0.028   0.217
  199TIP3   OH2  560   7.162   0.450   3.502
  199TIP3    H1  561   7.219   0.524   3.479
  199TIP3    H2  562   7.200   0.415   3.582
  200TIP3   OH2  563   4.055   3.070   1.863
  200TIP3    H1  564   3.972   3.090   1.905
  200TIP3    H2  565   4.121   3.082   1.931
  201TIP3   OH2  566   0.466   2.147   2.088
  201TIP3    H1  567   0.415   2.071   2.116
  201TIP3    H2  568   0.541   2.148   2.147
  202TIP3   OH2  569   6.903   3.918   2.715
  202TIP3    H1  570   6.864   3.947   2.633
  202TIP3    H2  571   6.997   3.918   2.700
  203TIP3   OH2  572   5.696   0.642   1.122
  203TIP3    H1  573   5.680   0.637   1.028
  203TIP3    H2  574   5.628   0.587   1.161
  204TIP3   OH2  575   6.686   3.454   2.198
  204TIP3    H1  576   6.628   3.454   2.274
  204TIP3    H2  577   6.648   3.519   2.139
  205TIP3   OH2  578   4.876   3.253   4.609
  205TIP3    H1  579   4.781   3.244   4.605
  205TIP3    H2  580   4.892   3.348   4.614
  206TIP3   OH2  581   3.520   3.386   0.599
  206TIP3    H1  582   3.578   3.335   0.655
  206TIP3    H2  583   3.571   3.463   0.575
  207TIP3   OH2  584   4.622   0.441   0.407
  207TIP3    H1  585   4.531   0.417   0.394
  207TIP3    H2  586   4.655   0.460   0.319
  208TIP3   OH2  587   5.518   6.679   4.119
  208TIP3    H1  588   5.591   6.649   4.065
  208TIP3    H2  589   5.445   6.685   4.058
  209TIP3   OH2  590   2.711   5.929   2.011
  209TIP3    H1  591   2.662   5.954   1.933
  209TIP3    H2  592   2.743   5.841   1.993
  210TIP3   OH2  593   6.460   4.549   1.109
  210TIP3    H1  594   6.407   4.476   1.141
  210TIP3    H2  595   6.428   4.565   1.020
  211TIP3   OH2  596   3.721   0.221   1.602
  211TIP3    H1  597   3.721   0.305   1.558
  211TIP3    H2  598   3.802   0.221   1.654
  212TIP3   OH2  599   4.381   3.463   1.298
  212TIP3    H1  600   4.300   3.421   1.327
  212TIP3    H2  601   4.357   3.511   1.219
  213TIP3   OH2  602   0.533   4.745   2.883
  213TIP3    H1  603   0.443   4.714   2.881
  213TIP3    H2  604   0.586   4.666   2.872
  214TIP3   OH2  605   0.083   4.269   4.366
  214TIP3    H1  606   0.140   4.193   4.360
  214TIP3    H2  607   0.030   4.267   4.287
  215TIP3   OH2  608   6.176   1.350   3.883
  215TIP3    H1  609   6.131   1.281   3.834
  215TIP3    H2  610   6.147   1.431   3.843
  216TIP3   OH2  611   4.710   2.367   3.155
  216TIP3    H1  612   4.676   2.278   3.142
  216TIP3    H2  613   4.801   2.363   3.125
  217TIP3   OH2  614   3.739   1.130   4.057
  217TIP3    H1  615   3.818   1.168   4.017
  217TIP3    H2  616   3.771   1.052   4.101
  218TIP3   OH2  617   6.760   1.259   5.876
  218TIP3    H1  618   6.761   1.190   5.810
  218TIP3    H2  619   6.673   1.252   5.917
  219TIP3   OH2  620   4.310   1.905   0.363
  219TIP3    H1  621   4.267   1.970   0.308
  219TIP3    H2  622   4.249   1.891   0.436
  220TIP3   OH2  623   0.018   0.675   1.198
  220TIP3    H1  624   0.066   0.757   1.194
  220TIP3    H2  625   0.052   0.623   1.125
  221TIP3   OH2  626   6.643   2.888   3.115
  221TIP3    H1  627   6.642   2.942   3.194
  221TIP3    H2  628   6.652   2.951   3.043
  222TIP3   OH2  629   4.603   0.179   2.746
  222TIP3    H1  630   4.687   0.183   2.701
  222TIP3    H2  631   4.538   0.180   2.675
  223TIP3   OH2  632   1.521   1.916   2.883
  223TIP3    H1  633   1.492   1.855   2.815
  223TIP3    H2  634   1.566   1.986   2.836
  224TIP3   OH2  635   3.166   4.173   3.909
  224TIP3    H1  636   3.259   4.192   3.925
  224TIP3    H2  637   3.162   4.151   3.816
  225TIP3   OH2  638   4.567   6.263   4.485
  225TIP3    H1  639   4.566   6.175   4.447
  225TIP3    H2  640   4.501   6.259   4.555
  226TIP3   OH2  641   1.561   3.998   1.752
  226TIP3    H1  642   1.476   3.961   1.775
  226TIP3    H2  643   1.613   3.922   1.724
  227TIP3   OH2  644   4.698   2.795   5.340
  227TIP3    H1  645   4.704   2.722   5.402
  227TIP3    H2  646   4.608   2.825   5.348
  228TIP3   OH2  647   0.481   2.013   0.505
  228TIP3    H1  648   0.390   2.033   0.481
  228TIP3    H2  649   0.531   2.087   0.471
  229TIP3   OH2  650   0.835   5.989   4.188
  229TIP3    H1  651   0.857   5.974   4.096
  229TIP3    H2  652   0.912   5.959   4.236
  230TIP3   OH2  653   5.319   4.419   2.639
  230TIP3    H1  654   5.391   4.383   2.692
  230TIP3    H2  655   5.265   4.344   2.618
  231TIP3   OH2  656   3.062   1.042   0.678
  231TIP3    H1  657   3.081   1.027   0.586
  231TIP3    H2  658   3.147   1.035   0.721
  232TIP3   OH2  659   5.532  -0.015   1.293
  232TIP3    H1  660   5.542   0.055   1.229
  232TIP3    H2  661   5.572   0.020   1.373
  233TIP3   OH2  662   6.544   2.405   4.072
  233TIP3    H1  663   6.604   2.473   4.040
  233TIP3    H2  664   6.476   2.453   4.119
  234TIP3   OH2  665   4.384   1.689   3.649
  234TIP3    H1  666   4.375   1.595   3.660
  234TIP3    H2  667   4.469   1.710   3.689
  235TIP3   OH2  668   5.484   3.526   5.150
  235TIP3    H1  669   5.557   3.580   5.180
  235TIP3    H2  670   5.502   3.439   5.186
  236TIP3   OH2  671   0.976   4.781   3.752
  236TIP3    H1  672   0.951   4.712   3.691
  236TIP3    H2  673   1.067   4.802   3.729
  237TIP3   OH2  674   0.350   0.227   1.179
  237TIP3    H1  675   0.425   0.214   1.121
  237TIP3    H2  676   0.387   0.270   1.256
  238TIP3   OH2  677   7.190   0.026   5.172
  238TIP3    H1  678   7.267   0.079   5.195
  238TIP3    H2  679   7.119   0.089   5.164
  239TIP3   OH2  680   7.242   6.170   2.849
  239TIP3    H1  681   7.183   6.245   2.848
  239TIP3    H2  682   7.196   6.102   2.800
  240TIP3   OH2  683   5.847   5.799   0.639
  240TIP3    H1  684   5.900   5.874   0.609
  240TIP3    H2  685   5.757   5.832   0.640
  241TIP3   OH2  686   2.155   5.172   1.732
  241TIP3    H1  687   2.195   5.091   1.762
  241TIP3    H2  688   2.109   5.206   1.809
  242TIP3   OH2  689   6.016   2.341   3.015
  242TIP3    H1  690   5.962   2.420   3.010
  242TIP3    H2  691   6.105   2.371   2.997
  243TIP3   OH2  692   2.600   3.055   4.385
  243TIP3    H1  693   2.524   3.013   4.344
  243TIP3    H2  694   2.605   3.142   4.344
  244TIP3   OH2  695   1.177   1.575   4.208
  244TIP3    H1  696   1.217   1.660   4.192
  244TIP3    H2  697   1.107   1.568   4.142
  245TIP3   OH2  698   1.126   4.389   2.462
  245TIP3    H1  699   1.045   4.348   2.492
  245TIP3    H2  700   1.189   4.317   2.456
  246TIP3   OH2  701   0.413   6.637   0.303
  246TIP3    H1  702   0.409   6.731   0.319
  246TIP3    H2  703   0.502   6.623   0.269
  247TIP3   OH2  704   6.521   1.804   3.166
  247TIP3    H1  705   6.600   1.856   3.179
  247TIP3    H2  706   6.491   1.827   3.078
  248TIP3   OH2  707   3.213   4.512   4.740
  248TIP3    H1  708   3.136   4.455   4.748
  248TIP3    H2  709   3.184   4.584   4.683
  249TIP3   OH2  710   1.041   6.649   3.688
  249TIP3    H1  711   1.134   6.671   3.679
  249TIP3    H2  712   0.998   6.696   3.617
  250TIP3   OH2  713   4.757   2.625   3.304
  250TIP3    H1  714   4.847   2.649   3.283
  250TIP3    H2  715   4.759   2.606   3.398
  251TIP3   OH2  716   0.892   1.878   0.729
  251TIP3    H1  717   0.895   1.784   0.713
  251TIP3    H2  718   0.960   1.914   0.672
  252TIP3   OH2  719   6.603   4.339   4.057
  252TIP3    H1  720   6.636   4.359   4.144
  252TIP3    H2  721   6.532   4.277   4.072
  253TIP3   OH2  722   3.761   4.624   1.435
  253TIP3    H1  723   3.851   4.622   1.469
  253TIP3    H2  724   3.707   4.648   1.510
  254TIP3   OH2  725   2.964   1.921   2.573
  254TIP3    H1  726   2.982   1.847   2.631
  254TIP3    H2  727   2.988   1.890   2.486
  255TIP3   OH2  728   3.147   3.178   0.701
  255TIP3    H1  729   3.232   3.134   0.702
  255TIP3    H2  730   3.098   3.135   0.631
  256TIP3   OH2  731   3.199   5.897   4.388
  256TIP3    H1  732   3.172   5.811   4.355
  256TIP3    H2  733   3.193   5.955   4.311
  257TIP3   OH2  734   5.259   5.572   0.763
  257TIP3    H1  735   5.318   5.647   0.773
  257TIP3    H2  736   5.241   5.544   0.852
  258TIP3   OH2  737   3.755   2.674   3.671
  258TIP3    H1  738   3.725   2.596   3.624
  258TIP3    H2  739   3.807   2.639   3.744
  259TIP3   OH2  740   3.694   4.365   4.687
  259TIP3    H1  741   3.788   4.367   4.703
  259TIP3    H2  742   3.685   4.327   4.600
  260TIP3   OH2  743   1.652   5.349   2.166
  260TIP3    H1  744   1.617   5.371   2.079
  260TIP3    H2  745   1.733   5.398   2.173
  261TIP3   OH2  746   1.313   1.145   3.314
  261TIP3    H1  747   1.397   1.154   3.268
  261TIP3    H2  748   1.329   1.181   3.401
  262TIP3   OH2  749   2.151   3.287   5.466
  262TIP3    H1  750   2.107   3.276   5.381
  262TIP3    H2  751   2.224   3.346   5.448
  263TIP3   OH2  752   6.705   1.062   5.154
  263TIP3    H1  753   6.772   1.117   5.194
  263TIP3    H2  754   6.622   1.107   5.173
  264TIP3   OH2  755   0.930   5.657   0.839
  264TIP3    H1  756   0.936   5.724   0.771
  264TIP3    H2  757   0.836   5.637   0.845
  265TIP3   OH2  758   1.123   6.465   4.674
  265TIP3    H1  759   1.140   6.441   4.766
  265TIP3    H2  760   1.206   6.503   4.645
  266TIP3   OH2  761   1.268   6.345   1.354
  266TIP3    H1  762   1.314   6.365   1.435
  266TIP3    H2  763   1.320   6.276   1.313
  267TIP3   OH2  764   1.193   2.216   1.228
  267TIP3    H1  765   1.150   2.142   1.272
  267TIP3    H2  766   1.129   2.244   1.162
  268TIP3   OH2  767   6.327   6.147   0.637
  268TIP3    H1  768   6.357   6.069   0.684
  268TIP3    H2  769   6.395   6.163   0.571
  269TIP3   OH2  770   4.936   0.063   5.357
  269TIP3    H1  771   4.997   0.063   5.283
  269TIP3    H2  772   4.852   0.035   5.320
  270TIP3   OH2  773   2.892   1.528   2.546
  270TIP3    H1  774   2.927   1.574   2.623
  270TIP3    H2  775   2.888   1.436   2.573
  271TIP3   OH2  776   5.399   1.406   2.390
  271TIP3    H1  777   5.449   1.462   2.450
  271TIP3    H2  778   5.465   1.361   2.337
  272TIP3   OH2  779   0.989   0.137   1.787
  272TIP3    H1  780   1.053   0.129   1.858
  272TIP3    H2  781   1.018   0.213   1.736
  273TIP3   OH2  782   2.100   2.720   4.294
  273TIP3    H1  783   2.027   2.685   4.243
  273TIP3    H2  784   2.167   2.741   4.229
  274TIP3   OH2  785   0.629   5.093   0.735
  274TIP3    H1  786   0.613   5.154   0.807
  274TIP3    H2  787   0.686   5.025   0.773
  275TIP3   OH2  788   1.801   3.473   3.952
  275TIP3    H1  789   1.831   3.493   4.041
  275TIP3    H2  790   1.761   3.555   3.922
  276TIP3   OH2  791   2.977   0.507   4.091
  276TIP3    H1  792   2.985   0.586   4.145
  276TIP3    H2  793   3.064   0.468   4.093
  277TIP3   OH2  794   6.705   0.477   4.357
  277TIP3    H1  795   6.735   0.457   4.445
  277TIP3    H2  796   6.678   0.393   4.321
  278TIP3   OH2  797   6.705   2.079   1.561
  278TIP3    H1  798   6.671   2.110   1.476
  278TIP3    H2  799   6.764   2.148   1.590
  279TIP3   OH2  800   4.970   0.688   0.663
  279TIP3    H1  801   5.034   0.749   0.699
  279TIP3    H2  802   5.020   0.608   0.644
  280TIP3   OH2  803   3.979   1.344   4.320
  280TIP3    H1  804   3.962   1.252   4.343
  280TIP3    H2  805   3.893   1.385   4.323
  281TIP3   OH2  806   0.260   6.708   1.651
  281TIP3    H1  807   0.218   6.782   1.608
  281TIP3    H2  808   0.321   6.673   1.586
  282TIP3   OH2  809   3.881   5.253   4.056
  282TIP3    H1  810   3.933   5.323   4.015
  282TIP3    H2  811   3.930   5.230   4.135
  283TIP3   OH2  812   0.246   0.259   2.581
  283TIP3    H1  813   0.275   0.275   2.491
  283TIP3    H2  814   0.169   0.315   2.592
  284TIP3   OH2  815   5.897   0.009   1.126
  284TIP3    H1  816   5.931  -0.034   1.204
  284TIP3    H2  817   5.847   0.083   1.160
  285TIP3   OH2  818   2.708   1.391   3.941
  285TIP3    H1  819   2.789   1.380   3.991
  285TIP3    H2  820   2.732   1.371   3.851
  286TIP3   OH2  821   4.177   6.203   3.396
  286TIP3    H1  822   4.158   6.244   3.480
  286TIP3    H2  823   4.207   6.115   3.418
  287TIP3   OH2  824   4.166   6.662   3.811
  287TIP3    H1  825   4.123   6.739   3.773
  287TIP3    H2  826   4.108   6.589   3.791
  288TIP3   OH2  827   0.509   6.676   5.589
  288TIP3    H1  828   0.572   6.710   5.525
  288TIP3    H2  829   0.557   6.676   5.672
  289TIP3   OH2  830   2.592   3.188   5.765
  289TIP3    H1  831   2.610   3.101   5.730
  289TIP3    H2  832   2.521   3.222   5.711
  290TIP3   OH2  833   4.600   0.051   3.428
  290TIP3    H1  834   4.525   0.026   3.482
  290TIP3    H2  835   4.581   0.140   3.400
  291TIP3   OH2  836   0.857   4.955   4.359
  291TIP3    H1  837   0.815   5.008   4.427
  291TIP3    H2  838   0.784   4.924   4.305
  292TIP3   OH2  839   5.050   5.722   0.669
  292TIP3    H1  840   5.080   5.719   0.578
  292TIP3    H2  841   5.127   5.698   0.720
  293TIP3   OH2  842   4.881   1.505   3.927
  293TIP3    H1  843   4.888   1.422   3.974
  293TIP3    H2  844   4.900   1.483   3.836
  294TIP3   OH2  845   0.831   2.167   3.431
  294TIP3    H1  846   0.760   2.106   3.410
  294TIP3    H2  847   0.909   2.125   3.395
  295TIP3   OH2  848   0.466   6.457   2.623
  295TIP3    H1  849   0.486   6.506   2.544
  295TIP3    H2  850   0.520   6.497   2.691
  296TIP3   OH2  851   0.319   3.085   0.629
  296TIP3    H1  852   0.224   3.093   0.638
  296TIP3    H2  853   0.343   3.153   0.567
  297TIP3   OH2  854   3.320   1.401   3.855
  297TIP3    H1  855   3.385   1.331   3.861
  297TIP3    H2  856   3.329   1.449   3.938
  298TIP3   OH2  857   1.864   3.449   0.204
  298TIP3    H1  858   1.872   3.402   0.287
  298TIP3    H2  859   1.781   3.497   0.212
  299TIP3   OH2  860   3.723   5.499   3.711
  299TIP3    H1  861   3.812   5.466   3.717
  299TIP3    H2  862   3.675   5.451   3.779
  300TIP3   OH2  863   5.981   2.669   2.287
  300TIP3    H1  864   6.053   2.732   2.295
  300TIP3    H2  865   6.018   2.598   2.235
  301TIP3   OH2  866   1.804   2.523   0.222
  301TIP3    H1  867   1.813   2.429   0.207
  301TIP3    H2  868   1.821   2.534   0.316
  302TIP3   OH2  869   2.634   4.930   5.363
  302TIP3    H1  870   2.637   4.895   5.452
  302TIP3    H2  871   2.716   4.977   5.352
  303TIP3   OH2  872   0.119   3.800   2.952
  303TIP3    H1  873   0.088   3.828   3.038
  303TIP3    H2  874   0.211   3.828   2.949
  304TIP3   OH2  875   6.755   4.295   5.402
  304TIP3    H1  876   6.814   4.238   5.353
  304TIP3    H2  877   6.672   4.246   5.406
  305TIP3   OH2  878   6.021   4.733   5.033
  305TIP3    H1  879   6.002   4.767   5.120
  305TIP3    H2  880   5.943   4.682   5.009
  306TIP3   OH2  881   2.354   3.032   3.013
  306TIP3    H1  882   2.302   3.081   2.949
  306TIP3    H2  883   2.308   3.046   3.096
  307TIP3   OH2  884   2.657   0.324   5.344
  307TIP3    H1  885   2.684   0.401   5.293
  307TIP3    H2  886   2.734   0.267   5.344
  308TIP3   OH2  887   4.061   0.360   1.977
  308TIP3    H1  888   4.025   0.331   1.893
  308TIP3    H2  889   3.986   0.363   2.035
  309TIP3   OH2  890   0.482   0.496   0.674
  309TIP3    H1  891   0.515   0.586   0.666
  309TIP3    H2  892   0.537   0.456   0.742
  310TIP3   OH2  893   3.520   1.965   5.807
  310TIP3    H1  894   3.608   2.003   5.806
  310TIP3    H2  895   3.495   1.963   5.899
  311TIP3   OH2  896   2.623   0.332   1.728
  311TIP3    H1  897   2.717   0.319   1.737
  311TIP3    H2  898   2.613   0.425   1.710
  312TIP3   OH2  899   1.045   5.204   1.990
  312TIP3    H1  900   1.103   5.198   2.066
  312TIP3    H2  901   1.025   5.297   1.982
  313TIP3   OH2  902   2.433   2.126   1.743
  313TIP3    H1  903   2.414   2.176   1.823
  313TIP3    H2  904   2.401   2.038   1.762
  314TIP3   OH2  905   2.843   2.625   1.140
  314TIP3    H1  906   2.914   2.673   1.097
  314TIP3    H2  907   2.845   2.656   1.230
  315TIP3   OH2  908   5.458   3.049   1.356
  315TIP3    H1  909   5.549   3.058   1.328
  315TIP3    H2  910   5.406   3.061   1.276
  316TIP3   OH2  911   6.895   6.682   1.977
  316TIP3    H1  912   6.902   6.587   1.965
  316TIP3    H2  913   6.869   6.715   1.891
  317TIP3   OH2  914   1.699   2.262   3.111
  317TIP3    H1  915   1.738   2.176   3.096
  317TIP3    H2  916   1.773   2.320   3.131
  318TIP3   OH2  917   4.921   1.243   0.271
  318TIP3    H1  918   4.994   1.284   0.224
  318TIP3    H2  919   4.917   1.155   0.235
  319TIP3   OH2  920   2.174   2.113   1.074
  319TIP3    H1  921   2.140   2.144   1.158
  319TIP3    H2  922   2.252   2.064   1.097
  320TIP3   OH2  923   5.329   1.278   2.025
  320TIP3    H1  924   5.274   1.227   1.966
  320TIP3    H2  925   5.415   1.237   2.019
  321TIP3   OH2  926   5.406   6.169   1.904
  321TIP3    H1  927   5.438   6.255   1.932
  321TIP3    H2  928   5.426   6.111   1.977
  322TIP3   OH2  929   2.345   5.186   2.956
  322TIP3    H1  930   2.426   5.141   2.934
  322TIP3    H2  931   2.327   5.162   3.047
  323TIP3   OH2  932   2.150   3.380   0.471
  323TIP3    H1  933   2.194   3.364   0.388
  323TIP3    H2  934   2.113   3.295   0.495
  324TIP3   OH2  935   1.120   4.722   4.003
  324TIP3    H1  936   1.070   4.784   3.949
  324TIP3    H2  937   1.126   4.764   4.088
  325TIP3   OH2  938   4.648   0.683   3.372
  325TIP3    H1  939   4.561   0.724   3.373
  325TIP3    H2  940   4.635   0.600   3.327
  326TIP3   OH2  941   1.120   2.469   2.630
  326TIP3    H1  942   1.082   2.382   2.640
  326TIP3    H2  943   1.206   2.464   2.673
  327TIP3   OH2  944   1.808   3.223   0.364
  327TIP3    H1  945   1.849   3.139   0.382
  327TIP3    H2  946   1.715   3.203   0.352
  328TIP3   OH2  947   3.188   2.262   5.226
  328TIP3    H1  948   3.157   2.243   5.315
  328TIP3    H2  949   3.134   2.336   5.198
  329TIP3   OH2  950   1.553   5.455   3.217
  329TIP3    H1  951   1.499   5.376   3.225
  329TIP3    H2  952   1.571   5.481   3.308
  330TIP3   OH2  953   1.860   6.304   0.567
  330TIP3    H1  954   1.832   6.313   0.476
  330TIP3    H2  955   1.895   6.390   0.590
  331TIP3   OH2  956   0.891   6.655   2.497
  331TIP3    H1  957   0.974   6.642   2.541
  331TIP3    H2  958   0.861   6.567   2.476
  332TIP3   OH2  959   3.500   1.073   3.086
  332TIP3    H1  960   3.520   0.982   3.110
  332TIP3    H2  961   3.410   1.086   3.118
  333TIP3   OH2  962   0.429   0.588   2.532
  333TIP3    H1  963   0.495   0.533   2.573
  333TIP3    H2  964   0.400   0.539   2.455
  334TIP3   OH2  965   3.326   0.531   3.732
  334TIP3    H1  966   3.369   0.511   3.649
  334TIP3    H2  967   3.237   0.556   3.708
  335TIP3   OH2  968   0.477   4.351   0.671
  335TIP3    H1  969   0.396   4.389   0.636
  335TIP3    H2  970   0.524   4.319   0.594
  336TIP3   OH2  971   1.975   5.621   3.424
  336TIP3    H1  972   1.907   5.557   3.441
  336TIP3    H2  973   1.988   5.664   3.509
  337TIP3   OH2  974   7.179   0.409   1.488
  337TIP3    H1  975   7.138   0.405   1.401
  337TIP3    H2  976   7.110   0.379   1.548
  338TIP3   OH2  977   4.540   6.714   3.499
  338TIP3    H1  978   4.567   6.653   3.429
  338TIP3    H2  979   4.528   6.658   3.576
  339TIP3   OH2  980   1.883   6.645   1.213
  339TIP3    H1  981   1.962   6.592   1.225
  339TIP3    H2  982   1.897   6.688   1.129
  340TIP3   OH2  983   1.902   1.847   1.657
  340TIP3    H1  984   1.823   1.868   1.608
  340TIP3    H2  985   1.955   1.796   1.596
  341TIP3   OH2  986   5.646   6.555   3.205
  341TIP3    H1  987   5.619   6.604   3.282
  341TIP3    H2  988   5.696   6.481   3.239
  342TIP3   OH2  989   4.390   3.106   3.788
  342TIP3    H1  990   4.346   3.026   3.818
  342TIP3    H2  991   4.341   3.131   3.709
  343TIP3   OH2  992   6.137   0.303   2.308
  343TIP3    H1  993   6.131   0.286   2.214
  343TIP3    H2  994   6.054   0.272   2.344
  344TIP3   OH2  995   0.362   6.240   3.153
  344TIP3    H1  996   0.371   6.169   3.089
  344TIP3    H2  997   0.329   6.313   3.102
  345TIP3   OH2  998   4.311   6.445   1.995
  345TIP3    H1  999   4.400   6.479   1.998
  345TIP3    H2 1000   4.301   6.397   2.077
  346TIP3   OH2 1001   7.123   2.369   3.022
  346TIP3    H1 1002   7.059   2.440   3.023
  346TIP3    H2 1003   7.137   2.350   2.929
  347TIP3   OH2 1004   1.312   5.305   2.434
  347TIP3    H1 1005   1.384   5.248   2.461
  347TIP3    H2 1006   1.257   5.249   2.378
  348TIP3   OH2 1007   6.098   4.910   0.113
  348TIP3    H1 1008   6.129   4.909   0.204
  348TIP3    H2 1009   6.017   4.860   0.115
  349TIP3   OH2 1010   6.033   5.056   2.844
  349TIP3    H1 1011   6.047   5.145   2.875
  349TIP3    H2 1012   5.938   5.046   2.842
  350TIP3   OH2 1013   3.285   4.384   1.187
  350TIP3    H1 1014   3.233   4.457   1.219
  350TIP3    H2 1015   3.221   4.323   1.150
  351TIP3   OH2 1016   1.139   2.072   0.733
  351TIP3    H1 1017   1.190   1.998   0.699
  351TIP3    H2 1018   1.071   2.086   0.668
  352TIP3   OH2 1019   4.395   6.544   3.694
  352TIP3    H1 1020   4.323   6.600   3.724
  352TIP3    H2 1021   4.380   6.459   3.736
  353TIP3   OH2 1022   5.863   5.240   1.589
  353TIP3    H1 1023   5.802   5.187   1.537
  353TIP3    H2 1024   5.851   5.210   1.679
  354TIP3   OH2 1025   5.512   5.555   4.987
  354TIP3    H1 1026   5.534   5.590   5.073
  354TIP3    H2 1027   5.416   5.556   4.985
  355TIP3   OH2 1028   0.480   3.818   3.208
  355TIP3    H1 1029   0.489   3.723   3.201
  355TIP3    H2 1030   0.447   3.846   3.123
  356TIP3   OH2 1031   6.835   4.567   5.413
  356TIP3    H1 1032   6.890   4.510   5.360
  356TIP3    H2 1033   6.750   4.524   5.416
  357TIP3   OH2 1034   1.210   2.316   4.146
  357TIP3    H1 1035   1.143   2.297   4.081
  357TIP3    H2 1036   1.173   2.287   4.229
  358TIP3   OH2 1037   4.437   5.697   1.022
  358TIP3    H1 1038   4.371   5.723   1.087
  358TIP3    H2 1039   4.519   5.695   1.071
  359TIP3   OH2 1040   5.603   3.521   4.763
  359TIP3    H1 1041   5.517   3.527   4.803
  359TIP3    H2 1042   5.593   3.563   4.677
  360TIP3   OH2 1043   2.401   6.193   4.495
  360TIP3    H1 1044   2.488   6.156   4.502
  360TIP3    H2 1045   2.385   6.199   4.401
  361TIP3   OH2 1046   2.162   4.931   2.167
  361TIP3    H1 1047   2.177   5.022   2.144
  361TIP3    H2 1048   2.242   4.904   2.212
  362TIP3   OH2 1049   4.946   1.622   4.568
  362TIP3    H1 1050   4.995   1.540   4.561
  362TIP3    H2 1051   4.881   1.605   4.637
  363TIP3   OH2 1052   3.568   5.984   2.907
  363TIP3    H1 1053   3.643   6.002   2.850
  363TIP3    H2 1054   3.558   6.064   2.960
  364TIP3   OH2 1055   5.175   6.267   3.010
  364TIP3    H1 1056   5.143   6.351   3.042
  364TIP3    H2 1057   5.096   6.216   2.991
  365TIP3   OH2 1058   3.741   6.211   4.743
  365TIP3    H1 1059   3.724   6.269   4.669
  365TIP3    H2 1060   3.724   6.123   4.710
  366TIP3   OH2 1061   4.184   2.697   4.049
  366TIP3    H1 1062   4.138   2.760   4.105
  366TIP3    H2 1063   4.196   2.620   4.104
  367TIP3   OH2 1064   6.077   0.514   3.518
  367TIP3    H1 1065   5.994   0.511   3.565
  367TIP3    H2 1066   6.052   0.514   3.425
  368TIP3   OH2 1067   1.260   0.254   0.438
  368TIP3    H1 1068   1.176   0.253   0.392
  368TIP3    H2 1069   1.321   0.210   0.378
  369TIP3   OH2 1070   0.676   3.553   5.681
  369TIP3    H1 1071   0.630   3.469   5.674
  369TIP3    H2 1072   0.701   3.559   5.773
  370TIP3   OH2 1073   1.455   4.902   5.798
  370TIP3    H1 1074   1.370   4.936   5.771
  370TIP3    H2 1075   1.451   4.808   5.777
  371TIP3   OH2 1076   4.429   3.617   3.143
  371TIP3    H1 1077   4.523   3.595   3.138
  371TIP3    H2 1078   4.385   3.532   3.142
  372TIP3   OH2 1079   1.322   3.984   0.559
  372TIP3    H1 1080   1.352   3.943   0.478
  372TIP3    H2 1081   1.323   4.078   0.540
  373TIP3   OH2 1082   0.952   0.823   3.319
  373TIP3    H1 1083   1.043   0.848   3.330
  373TIP3    H2 1084   0.954   0.752   3.255
  374TIP3   OH2 1085   2.187   0.112   5.171
  374TIP3    H1 1086   2.150   0.200   5.159
  374TIP3    H2 1087   2.279   0.128   5.194
  375TIP3   OH2 1088   1.536   0.249   2.698
  375TIP3    H1 1089   1.500   0.172   2.652
  375TIP3    H2 1090   1.563   0.215   2.783
  376TIP3   OH2 1091   2.324   3.145   0.386
  376TIP3    H1 1092   2.305   3.061   0.428
  376TIP3    H2 1093   2.288   3.137   0.298
  377TIP3   OH2 1094   2.290   3.990   1.751
  377TIP3    H1 1095   2.350   3.916   1.763
  377TIP3    H2 1096   2.243   3.997   1.835
  378TIP3   OH2 1097   6.348   3.348   4.968
  378TIP3    H1 1098   6.352   3.300   5.051
  378TIP3    H2 1099   6.268   3.401   4.975
  379TIP3   OH2 1100   5.383   4.863   5.784
  379TIP3    H1 1101   5.403   4.836   5.694
  379TIP3    H2 1102   5.320   4.798   5.815
  380TIP3   OH2 1103   2.005   1.855   4.455
  380TIP3    H1 1104   2.076   1.918   4.468
  380TIP3    H2 1105   1.970   1.877   4.369
  381TIP3   OH2 1106   6.017   0.340   5.207
  381TIP3    H1 1107   6.070   0.390   5.144
  381TIP3    H2 1108   6.081   0.307   5.271
  382TIP3   OH2 1109   5.018   6.440   1.010
  382TIP3    H1 1110   5.082   6.448   1.081
  382TIP3    H2 1111   4.964   6.518   1.018
  383TIP3   OH2 1112   5.449   1.311   4.347
  383TIP3    H1 1113   5.399   1.229   4.346
  383TIP3    H2 1114   5.536   1.287   4.314
  384TIP3   OH2 1115   3.128   5.405   0.793
  384TIP3    H1 1116   3.081   5.324   0.814
  384TIP3    H2 1117   3.070   5.451   0.732
  385TIP3   OH2 1118   3.354   0.314   3.284
  385TIP3    H1 1119   3.406   0.388   3.316
  385TIP3    H2 1120   3.266   0.331   3.317
  386TIP3   OH2 1121   0.186   4.542   1.279
  386TIP3    H1 1122   0.170   4.500   1.194
  386TIP3    H2 1123   0.099   4.563   1.313
  387TIP3   OH2 1124   6.978   3.505   1.090
  387TIP3    H1 1125   7.019   3.550   1.164
  387TIP3    H2 1126   6.884   3.513   1.107
  388TIP3   OH2 1127   4.447   6.006   1.655
  388TIP3    H1 1128   4.400   5.934   1.615
  388TIP3    H2 1129   4.539   5.980   1.652
  389TIP3   OH2 1130   0.012   5.509   2.923
  389TIP3    H1 1131   0.036   5.597   2.893
  389TIP3    H2 1132   0.027   5.512   3.018
  390TIP3   OH2 1133   6.833   1.548   3.698
  390TIP3    H1 1134   6.799   1.620   3.751
  390TIP3    H2 1135   6.777   1.473   3.720
  391TIP3   OH2 1136   5.863   6.261   4.799
  391TIP3    H1 1137   5.931   6.211   4.845
  391TIP3    H2 1138   5.824   6.199   4.738
  392TIP3   OH2 1139   2.249   6.291   2.844
  392TIP3    H1 1140   2.224   6.199   2.833
  392TIP3    H2 1141   2.343   6.289   2.860
  393TIP3   OH2 1142   3.724   4.007   3.972
  393TIP3    H1 1143   3.702   4.094   4.005
  393TIP3    H2 1144   3.811   3.989   4.007
  394TIP3   OH2 1145   6.217   4.953   5.613
  394TIP3    H1 1146   6.159   4.962   5.537
  394TIP3    H2 1147   6.219   5.040   5.652
  395TIP3   OH2 1148   6.280   0.414   1.676
  395TIP3    H1 1149   6.357   0.358   1.690
  395TIP3    H2 1150   6.273   0.465   1.757
  396TIP3   OH2 1151   2.525   4.298   3.776
  396TIP3    H1 1152   2.512   4.247   3.855
  396TIP3    H2 1153   2.455   4.364   3.777
  397TIP3   OH2 1154   5.874   6.747   5.646
  397TIP3    H1 1155   5.912   6.703   5.570
  397TIP3    H2 1156   5.853   6.676   5.707
  398TIP3   OH2 1157   4.229   2.099   4.939
  398TIP3    H1 1158   4.258   2.167   4.879
  398TIP3    H2 1159   4.288   2.025   4.921
  399TIP3   OH2 1160   5.669   5.419   2.802
  399TIP3    H1 1161   5.610   5.352   2.769
  399TIP3    H2 1162   5.730   5.435   2.729
  400TIP3   OH2 1163   4.587   0.464   2.444
  400TIP3    H1 1164   4.597   0.507   2.529
  400TIP3    H2 1165   4.663   0.407   2.437
  401TIP3   OH2 1166   1.684   2.001   3.854
  401TIP3    H1 1167   1.757   2.041   3.807
  401TIP3    H2 1168   1.689   1.909   3.832
  402TIP3   OH2 1169   0.195   5.823   1.749
  402TIP3    H1 1170   0.277   5.787   1.783
  402TIP3    H2 1171   0.209   5.918   1.748
  403TIP3   OH2 1172   2.342   4.990   4.578
  403TIP3    H1 1173   2.310   5.074   4.610
  403TIP3    H2 1174   2.287   4.925   4.623
  404TIP3   OH2 1175   1.090   3.099   1.892
  404TIP3    H1 1176   1.150   3.057   1.830
  404TIP3    H2 1177   1.132   3.087   1.977
  405TIP3   OH2 1178   4.518   3.507   1.627
  405TIP3    H1 1179   4.492   3.574   1.564
  405TIP3    H2 1180   4.553   3.436   1.573
  406TIP3   OH2 1181   7.146   3.778   5.079
  406TIP3    H1 1182   7.124   3.800   4.988
  406TIP3    H2 1183   7.232   3.819   5.093
  407TIP3   OH2 1184   2.325   6.697   3.858
  407TIP3    H1 1185   2.406   6.653   3.835
  407TIP3    H2 1186   2.349   6.760   3.925
  408TIP3   OH2 1187   4.216   3.329   3.956
  408TIP3    H1 1188   4.247   3.305   3.868
  408TIP3    H2 1189   4.186   3.246   3.994
  409TIP3   OH2 1190   6.936   3.013   4.939
  409TIP3    H1 1191   7.009   3.017   4.876
  409TIP3    H2 1192   6.858   2.999   4.885
  410TIP3   OH2 1193   1.298   2.313   0.690
  410TIP3    H1 1194   1.358   2.268   0.750
  410TIP3    H2 1195   1.221   2.256   0.687
  411TIP3   OH2 1196   5.905   2.300   4.727
  411TIP3    H1 1197   5.977   2.313   4.665
  411TIP3    H2 1198   5.829   2.284   4.672
  412TIP3   OH2 1199   4.653   4.053   5.823
  412TIP3    H1 1200   4.666   4.049   5.918
  412TIP3    H2 1201   4.739   4.075   5.788
  413TIP3   OH2 1202   6.457   2.356   2.460
  413TIP3    H1 1203   6.451   2.383   2.369
  413TIP3    H2 1204   6.548   2.328   2.471
  414TIP3   OH2 1205   3.305   3.619   1.254
  414TIP3    H1 1206   3.347   3.642   1.171
  414TIP3    H2 1207   3.372   3.634   1.320
  415TIP3   OH2 1208   4.249   1.954   2.198
  415TIP3    H1 1209   4.254   1.936   2.104
  415TIP3    H2 1210   4.333   1.925   2.232
  416TIP3   OH2 1211   6.641   1.851   1.007
  416TIP3    H1 1212   6.700   1.925   0.998
  416TIP3    H2 1213   6.659   1.815   1.094
  417TIP3   OH2 1214   2.479   4.842   1.057
  417TIP3    H1 1215   2.540   4.831   0.984
  417TIP3    H2 1216   2.392   4.831   1.016
  418TIP3   OH2 1217   2.833   1.392   4.297
  418TIP3    H1 1218   2.789   1.477   4.288
  418TIP3    H2 1219   2.883   1.383   4.217
  419TIP3   OH2 1220   6.577   6.169   3.187
  419TIP3    H1 1221   6.563   6.081   3.152
  419TIP3    H2 1222   6.512   6.178   3.257
  420TIP3   OH2 1223   4.878   3.524   4.511
  420TIP3    H1 1224   4.829   3.508   4.431
  420TIP3    H2 1225   4.832   3.596   4.554
  421TIP3   OH2 1226   6.534   1.479   3.885
  421TIP3    H1 1227   6.546   1.384   3.876
  421TIP3    H2 1228   6.442   1.494   3.866
  422TIP3   OH2 1229   5.163   5.968   2.726
  422TIP3    H1 1230   5.173   5.993   2.818
  422TIP3    H2 1231   5.084   5.915   2.724
  423TIP3   OH2 1232   5.818   2.941   0.833
  423TIP3    H1 1233   5.888   2.945   0.899
  423TIP3    H2 1234   5.854   2.987   0.757
  424TIP3   OH2 1235   2.783   4.001   5.071
  424TIP3    H1 1236   2.812   4.073   5.016
  424TIP3    H2 1237   2.820   4.021   5.158
  425TIP3   OH2 1238   0.552   1.553   5.284
  425TIP3    H1 1239   0.483   1.489   5.301
  425TIP3    H2 1240   0.565   1.550   5.190
  426TIP3   OH2 1241   3.180   6.620   4.425
  426TIP3    H1 1242   3.096   6.611   4.468
  426TIP3    H2 1243   3.224   6.537   4.440
  427TIP3   OH2 1244   0.464   4.112   4.822
  427TIP3    H1 1245   0.471   4.207   4.811
  427TIP3    H2 1246   0.515   4.075   4.751
  428TIP3   OH2 1247   5.639   0.329   2.117
  428TIP3    H1 1248   5.723   0.373   2.108
  428TIP3    H2 1249   5.658   0.250   2.168
  429TIP3   OH2 1250   4.509   5.608   3.110
  429TIP3    H1 1251   4.468   5.631   3.194
  429TIP3    H2 1252   4.450   5.644   3.044
  430TIP3   OH2 1253   6.672   2.195   1.315
  430TIP3    H1 1254   6.617   2.176   1.238
  430TIP3    H2 1255   6.691   2.289   1.308
  431TIP3   OH2 1256   1.119   3.589   0.409
  431TIP3    H1 1257   1.073   3.578   0.326
  431TIP3    H2 1258   1.096   3.677   0.438
  432TIP3   OH2 1259   6.687   0.068   2.854
  432TIP3    H1 1260   6.684   0.075   2.758
  432TIP3    H2 1261   6.746  -0.007   2.870
  433TIP3   OH2 1262   7.133   6.058   5.372
  433TIP3    H1 1263   7.172   6.140   5.404
  433TIP3    H2 1264   7.185   6.036   5.295
  434TIP3   OH2 1265   0.775   4.771   4.742
  434TIP3    H1 1266   0.844   4.758   4.677
  434TIP3    H2 1267   0.812   4.735   4.823
  435TIP3   OH2 1268   1.087   6.538   5.224
  435TIP3    H1 1269   1.142   6.614   5.244
  435TIP3    H2 1270   1.090   6.485   5.303
  436TIP3   OH2 1271   5.715   2.785   5.289
  436TIP3    H1 1272   5.734   2.697   5.256
  436TIP3    H2 1273   5.686   2.834   5.212
  437TIP3   OH2 1274   1.197   0.959   4.470
  437TIP3    H1 1275   1.266   0.909   4.426
  437TIP3    H2 1276   1.227   1.050   4.464
  438TIP3   OH2 1277   3.594   4.725   5.795
  438TIP3    H1 1278   3.622   4.810   5.829
  438TIP3    H2 1279   3.608   4.732   5.700
  439TIP3   OH2 1280   5.818   4.230   4.481
  439TIP3    H1 1281   5.736   4.280   4.477
  439TIP3    H2 1282   5.874   4.282   4.539
  440TIP3   OH2 1283   4.795   6.098   5.376
  440TIP3    H1 1284   4.740   6.176   5.365
  440TIP3    H2 1285   4.877   6.120   5.333
  441TIP3   OH2 1286   1.849   4.270   3.466
  441TIP3    H1 1287   1.755   4.277   3.447
  441TIP3    H2 1288   1.858   4.302   3.556
  442TIP3   OH2 1289   4.291   5.117   4.972
  442TIP3    H1 1290   4.297   5.188   4.908
  442TIP3    H2 1291   4.300   5.160   5.057
  443TIP3   OH2 1292   4.085   4.654   5.200
  443TIP3    H1 1293   4.166   4.621   5.238
  443TIP3    H2 1294   4.111   4.733   5.153
  444TIP3   OH2 1295   3.881   5.359   2.856
  444TIP3    H1 1296   3.943   5.322   2.793
  444TIP3    H2 1297   3.807   5.389   2.803
  445TIP3   OH2 1298   0.684   1.395   2.745
  445TIP3    H1 1299   0.755   1.456   2.765
  445TIP3    H2 1300   0.605   1.438   2.778
  446TIP3   OH2 1301   1.844   0.479   5.184
  446TIP3    H1 1302   1.854   0.434   5.268
  446TIP3    H2 1303   1.795   0.559   5.205
  447TIP3   OH2 1304   4.883   1.063   3.817
  447TIP3    H1 1305   4.811   1.018   3.861
  447TIP3    H2 1306   4.841   1.118   3.752
  448TIP3   OH2 1307   0.261   5.597   0.865
  448TIP3    H1 1308   0.212   5.641   0.934
  448TIP3    H2 1309   0.309   5.667   0.820
  449TIP3   OH2 1310   3.857   5.829   0.378
  449TIP3    H1 1311   3.761   5.833   0.385
  449TIP3    H2 1312   3.883   5.919   0.358
  450TIP3   OH2 1313   6.211   3.446   5.201
  450TIP3    H1 1314   6.154   3.517   5.230
  450TIP3    H2 1315   6.267   3.427   5.277
  451TIP3   OH2 1316   2.230   4.482   4.010
  451TIP3    H1 1317   2.187   4.558   3.970
  451TIP3    H2 1318   2.312   4.517   4.044
  452TIP3   OH2 1319   0.833   5.801   4.920
  452TIP3    H1 1320   0.927   5.809   4.904
  452TIP3    H2 1321   0.814   5.864   4.989
  453TIP3   OH2 1322   1.921   2.818   5.428
  453TIP3    H1 1323   2.000   2.787   5.384
  453TIP3    H2 1324   1.904   2.754   5.496
  454TIP3   OH2 1325   1.169   2.856   0.704
  454TIP3    H1 1326   1.192   2.763   0.700
  454TIP3    H2 1327   1.106   2.862   0.776
  455TIP3   OH2 1328   0.516   6.047   0.057
  455TIP3    H1 1329   0.522   6.106   0.132
  455TIP3    H2 1330   0.602   6.051   0.016
  456TIP3   OH2 1331   6.721   1.262   3.440
  456TIP3    H1 1332   6.774   1.325   3.391
  456TIP3    H2 1333   6.777   1.186   3.451
  457TIP3   OH2 1334   3.107   4.832   1.021
  457TIP3    H1 1335   3.044   4.783   0.968
  457TIP3    H2 1336   3.184   4.776   1.025
  458TIP3   OH2 1337   3.238   0.670   5.594
  458TIP3    H1 1338   3.329   0.671   5.563
  458TIP3    H2 1339   3.185   0.665   5.515
  459TIP3   OH2 1340   5.960   1.509   4.512
  459TIP3    H1 1341   5.935   1.601   4.511
  459TIP3    H2 1342   5.968   1.485   4.420
  460TIP3   OH2 1343   5.684   0.400   0.581
  460TIP3    H1 1344   5.732   0.483   0.581
  460TIP3    H2 1345   5.610   0.415   0.522
  461TIP3   OH2 1346   4.120   0.159   0.620
  461TIP3    H1 1347   4.079   0.231   0.572
  461TIP3    H2 1348   4.089   0.168   0.710
  462TIP3   OH2 1349   6.610   6.006   4.764
  462TIP3    H1 1350   6.655   6.089   4.783
  462TIP3    H2 1351   6.679   5.947   4.735
  463TIP3   OH2 1352   4.343   6.730   2.632
  463TIP3    H1 1353   4.366   6.644   2.598
  463TIP3    H2 1354   4.254   6.745   2.601
  464TIP3   OH2 1355   2.459   0.480   4.444
  464TIP3    H1 1356   2.394   0.495   4.376
  464TIP3    H2 1357   2.527   0.429   4.401
  465TIP3   OH2 1358   0.527   0.027   5.273
  465TIP3    H1 1359   0.577   0.100   5.309
  465TIP3    H2 1360   0.530  -0.040   5.341
  466TIP3   OH2 1361   0.544   2.147   0.949
  466TIP3    H1 1362   0.606   2.173   0.882
  466TIP3    H2 1363   0.462   2.191   0.925
  467TIP3   OH2 1364   6.251   1.864   1.125
  467TIP3    H1 1365   6.323   1.919   1.158
  467TIP3    H2 1366   6.184   1.868   1.194
  468TIP3   OH2 1367   6.202   6.336   4.483
  468TIP3    H1 1368   6.277   6.395   4.491
  468TIP3    H2 1369   6.198   6.316   4.389
  469TIP3   OH2 1370   4.539   1.133   4.552
  469TIP3    H1 1371   4.629   1.163   4.566
  469TIP3    H2 1372   4.548   1.041   4.527
  470TIP3   OH2 1373   2.387   3.241   2.790
  470TIP3    H1 1374   2.319   3.303   2.763
  470TIP3    H2 1375   2.398   3.257   2.884
  471TIP3   OH2 1376   5.977   2.329   0.934
  471TIP3    H1 1377   6.029   2.342   1.013
  471TIP3    H2 1378   6.026   2.374   0.866
  472TIP3   OH2 1379   0.888   3.378   4.381
  472TIP3    H1 1380   0.804   3.423   4.390
  472TIP3    H2 1381   0.945   3.421   4.444
  473TIP3   OH2 1382   5.631   2.389   0.398
  473TIP3    H1 1383   5.691   2.314   0.389
  473TIP3    H2 1384   5.550   2.359   0.356
  474TIP3   OH2 1385   5.169   2.680   5.432
  474TIP3    H1 1386   5.245   2.736   5.417
  474TIP3    H2 1387   5.096   2.726   5.392
  475TIP3   OH2 1388   6.215   6.100   5.676
  475TIP3    H1 1389   6.256   6.142   5.751
  475TIP3    H2 1390   6.162   6.030   5.714
  476TIP3   OH2 1391   2.608   5.881   2.783
  476TIP3    H1 1392   2.692   5.839   2.800
  476TIP3    H2 1393   2.619   5.924   2.698
  477TIP3   OH2 1394   7.024   3.201   3.501
  477TIP3    H1 1395   6.938   3.238   3.485
  477TIP3    H2 1396   7.038   3.210   3.596
  478TIP3   OH2 1397   0.675   4.960   3.044
  478TIP3    H1 1398   0.621   4.909   2.984
  478TIP3    H2 1399   0.621   5.036   3.066
  479TIP3   OH2 1400   3.470   6.630   5.121
  479TIP3    H1 1401   3.376   6.631   5.137
  479TIP3    H2 1402   3.499   6.545   5.155
  480TIP3   OH2 1403   0.966   4.215   1.283
  480TIP3    H1 1404   0.981   4.271   1.360
  480TIP3    H2 1405   0.972   4.126   1.317
  481TIP3   OH2 1406   4.256   1.344   1.238
  481TIP3    H1 1407   4.262   1.397   1.318
  481TIP3    H2 1408   4.233   1.407   1.170
  482TIP3   OH2 1409   5.546   3.290   2.562
  482TIP3    H1 1410   5.568   3.212   2.612
  482TIP3    H2 1411   5.469   3.265   2.511
  483TIP3   OH2 1412   0.119   3.741   1.901
  483TIP3    H1 1413   0.117   3.805   1.830
  483TIP3    H2 1414   0.055   3.772   1.965
  484TIP3   OH2 1415   6.372   2.824   3.524
  484TIP3    H1 1416   6.411   2.819   3.611
  484TIP3    H2 1417   6.445   2.804   3.464
  485TIP3   OH2 1418   4.173   1.212   5.658
  485TIP3    H1 1419   4.124   1.294   5.651
  485TIP3    H2 1420   4.169   1.174   5.571
  486TIP3   OH2 1421   0.616   5.715   4.723
  486TIP3    H1 1422   0.581   5.644   4.777
  486TIP3    H2 1423   0.687   5.752   4.774
  487TIP3   OH2 1424   4.465   5.339   3.148
  487TIP3    H1 1425   4.473   5.430   3.119
  487TIP3    H2 1426   4.403   5.343   3.221
  488TIP3   OH2 1427   1.655   2.479   4.756
  488TIP3    H1 1428   1.673   2.484   4.850
  488TIP3    H2 1429   1.591   2.408   4.748
  489TIP3   OH2 1430   5.919   2.117   4.074
  489TIP3    H1 1431   5.834   2.082   4.099
  489TIP3    H2 1432   5.960   2.048   4.022
  490TIP3   OH2 1433   3.861   0.258   0.254
  490TIP3    H1 1434   3.775   0.273   0.215
  490TIP3    H2 1435   3.872   0.163   0.253
  491TIP3   OH2 1436   2.480   6.444   0.593
  491TIP3    H1 1437   2.461   6.403   0.678
  491TIP3    H2 1438   2.430   6.393   0.530
  492TIP3   OH2 1439   1.688   4.999   5.671
  492TIP3    H1 1440   1.750   4.935   5.706
  492TIP3    H2 1441   1.602   4.967   5.700
  493TIP3   OH2 1442   3.173   2.815   5.184
  493TIP3    H1 1443   3.268   2.818   5.193
  493TIP3    H2 1444   3.148   2.905   5.165
  494TIP3   OH2 1445   6.160   5.731   5.389
  494TIP3    H1 1446   6.200   5.805   5.436
  494TIP3    H2 1447   6.117   5.679   5.457
  495TIP3   OH2 1448   2.283   3.486   1.163
  495TIP3    H1 1449   2.302   3.480   1.257
  495TIP3    H2 1450   2.330   3.412   1.124
  496TIP3   OH2 1451   4.002   6.789   3.025
  496TIP3    H1 1452   4.031   6.825   2.942
  496TIP3    H2 1453   4.082   6.763   3.070
  497TIP3   OH2 1454   0.907   5.308   2.574
  497TIP3    H1 1455   0.920   5.342   2.485
  497TIP3    H2 1456   0.993   5.320   2.616
  498TIP3   OH2 1457   0.131   4.842   3.574
  498TIP3    H1 1458   0.135   4.809   3.484
  498TIP3    H2 1459   0.161   4.769   3.628
  499TIP3   OH2 1460   2.266   4.098   2.306
  499TIP3    H1 1461   2.308   4.157   2.244
  499TIP3    H2 1462   2.276   4.141   2.391
  500TIP3   OH2 1463   1.856   1.068   3.607
  500TIP3    H1 1464   1.864   0.976   3.635
  500TIP3    H2 1465   1.818   1.112   3.683
  501TIP3   OH2 1466   2.578   1.590   2.888
  501TIP3    H1 1467   2.568   1.678   2.853
  501TIP3    H2 1468   2.646   1.598   2.955
  502TIP3   OH2 1469   0.400   4.319   1.676
  502TIP3    H1 1470   0.420   4.362   1.593
  502TIP3    H2 1471   0.371   4.389   1.734
  503TIP3   OH2 1472   2.326   1.798   2.337
  503TIP3    H1 1473   2.337   1.877   2.390
  503TIP3    H2 1474   2.297   1.731   2.399
  504TIP3   OH2 1475   4.982   2.004   2.857
  504TIP3    H1 1476   4.945   2.049   2.933
  504TIP3    H2 1477   5.058   2.057   2.833
  505TIP3   OH2 1478   3.948   2.591   1.416
  505TIP3    H1 1479   3.917   2.511   1.373
  505TIP3    H2 1480   3.986   2.644   1.345
  506TIP3   OH2 1481   4.697   3.002   0.102
  506TIP3    H1 1482   4.766   3.058   0.138
  506TIP3    H2 1483   4.616   3.035   0.141
  507TIP3   OH2 1484   3.766   3.049   1.938
  507TIP3    H1 1485   3.671   3.041   1.926
  507TIP3    H2 1486   3.788   3.133   1.899
  508TIP3   OH2 1487   2.828   0.186   5.655
  508TIP3    H1 1488   2.867   0.194   5.742
  508TIP3    H2 1489   2.893   0.226   5.596
  509TIP3   OH2 1490   6.789   3.224   5.823
  509TIP3    H1 1491   6.830   3.138   5.820
  509TIP3    H2 1492   6.860   3.286   5.807
  510TIP3   OH2 1493   3.019   3.551   5.591
  510TIP3    H1 1494   3.003   3.644   5.574
  510TIP3    H2 1495   2.938   3.520   5.631
  511TIP3   OH2 1496   3.019   4.637   2.649
  511TIP3    H1 1497   3.012   4.601   2.561
  511TIP3    H2 1498   2.933   4.624   2.687
  512TIP3   OH2 1499   2.040   4.406   3.258
  512TIP3    H1 1500   1.991   4.488   3.263
  512TIP3    H2 1501   1.985   4.341   3.300
  513TIP3   OH2 1502   6.707   4.453   5.760
  513TIP3    H1 1503   6.695   4.366   5.798
  513TIP3    H2 1504   6.800   4.458   5.739
  514TIP3   OH2 1505   5.041   2.501   2.429
  514TIP3    H1 1506   5.070   2.540   2.346
  514TIP3    H2 1507   5.086   2.416   2.432
  515TIP3   OH2 1508   5.101   4.413   5.506
  515TIP3    H1 1509   5.114   4.411   5.601
  515TIP3    H2 1510   5.022   4.464   5.494
  516TIP3   OH2 1511   5.626   0.344   1.719
  516TIP3    H1 1512   5.540   0.384   1.711
  516TIP3    H2 1513   5.608   0.255   1.749
  517TIP3   OH2 1514   0.369   5.283   1.920
  517TIP3    H1 1515   0.422   5.220   1.872
  517TIP3    H2 1516   0.411   5.367   1.902
  518TIP3   OH2 1517   3.045   0.430   2.774
  518TIP3    H1 1518   3.072   0.343   2.803
  518TIP3    H2 1519   3.042   0.424   2.678
  519TIP3   OH2 1520   5.905   0.322   4.602
  519TIP3    H1 1521   5.894   0.408   4.642
  519TIP3    H2 1522   5.928   0.265   4.676
  520TIP3   OH2 1523   0.841   1.527   3.041
  520TIP3    H1 1524   0.936   1.536   3.044
  520TIP3    H2 1525   0.809   1.576   3.117
  521TIP3   OH2 1526   0.169   3.300   2.023
  521TIP3    H1 1527   0.180   3.222   1.969
  521TIP3    H2 1528   0.247   3.302   2.079
  522TIP3   OH2 1529   7.192   1.501   2.483
  522TIP3    H1 1530   7.258   1.551   2.436
  522TIP3    H2 1531   7.112   1.553   2.476
  523TIP3   OH2 1532   6.699   1.946   5.065
  523TIP3    H1 1533   6.608   1.973   5.072
  523TIP3    H2 1534   6.699   1.852   5.080
  524TIP3   OH2 1535   3.396   4.656   0.368
  524TIP3    H1 1536   3.435   4.740   0.390
  524TIP3    H2 1537   3.302   4.673   0.365
  525TIP3   OH2 1538   1.335   3.292   2.021
  525TIP3    H1 1539   1.309   3.208   2.060
  525TIP3    H2 1540   1.305   3.358   2.084
  526TIP3   OH2 1541   2.253   6.744   1.194
  526TIP3    H1 1542   2.242   6.662   1.146
  526TIP3    H2 1543   2.210   6.809   1.139
  527TIP3   OH2 1544   1.839   5.369   1.557
  527TIP3    H1 1545   1.753   5.397   1.590
  527TIP3    H2 1546   1.902   5.409   1.617
  528TIP3   OH2 1547   0.195   0.943   1.667
  528TIP3    H1 1548   0.245   1.007   1.716
  528TIP3    H2 1549   0.103   0.961   1.690
  529TIP3   OH2 1550   3.175   5.183   4.268
  529TIP3    H1 1551   3.249   5.190   4.328
  529TIP3    H2 1552   3.099   5.207   4.320
  530TIP3   OH2 1553   2.792   3.240   0.263
  530TIP3    H1 1554   2.810   3.249   0.170
  530TIP3    H2 1555   2.875   3.209   0.300
  531TIP3   OH2 1556   0.619   0.254   5.680
  531TIP3    H1 1557   0.712   0.234   5.672
  531TIP3    H2 1558   0.612   0.301   5.764
  532TIP3   OH2 1559   5.596   3.051   5.438
  532TIP3    H1 1560   5.522   3.034   5.380
  532TIP3    H2 1561   5.642   3.124   5.397
  533TIP3   OH2 1562   3.683   2.256   4.321
  533TIP3    H1 1563   3.765   2.302   4.309
  533TIP3    H2 1564   3.657   2.275   4.411
  534TIP3   OH2 1565   3.755   5.788   3.025
  534TIP3    H1 1566   3.682   5.836   2.986
  534TIP3    H2 1567   3.833   5.840   3.002
  535TIP3   OH2 1568   2.983   1.663   3.821
  535TIP3    H1 1569   3.005   1.570   3.826
  535TIP3    H2 1570   2.986   1.683   3.728
  536TIP3   OH2 1571   2.355   4.375   4.687
  536TIP3    H1 1572   2.365   4.456   4.637
  536TIP3    H2 1573   2.418   4.384   4.759
  537TIP3   OH2 1574   4.305   0.629   5.584
  537TIP3    H1 1575   4.270   0.584   5.661
  537TIP3    H2 1576   4.304   0.562   5.515
  538TIP3   OH2 1577   3.995   3.777   4.870
  538TIP3    H1 1578   4.038   3.787   4.954
  538TIP3    H2 1579   3.903   3.798   4.887
  539TIP3   OH2 1580   2.152   3.388   4.143
  539TIP3    H1 1581   2.151   3.292   4.145
  539TIP3    H2 1582   2.197   3.409   4.061
  540TIP3   OH2 1583   2.238   5.159   3.231
  540TIP3    H1 1584   2.207   5.096   3.295
  540TIP3    H2 1585   2.299   5.215   3.279
  541TIP3   OH2 1586   4.294   1.500   5.604
  541TIP3    H1 1587   4.309   1.460   5.518
  541TIP3    H2 1588   4.199   1.499   5.614
  542TIP3   OH2 1589   6.701   5.249   0.458
  542TIP3    H1 1590   6.701   5.344   0.457
  542TIP3    H2 1591   6.793   5.225   0.450
  543TIP3   OH2 1592   1.927   2.969   0.325
  543TIP3    H1 1593   1.844   2.941   0.363
  543TIP3    H2 1594   1.989   2.901   0.351
  544TIP3   OH2 1595   2.138   2.766   5.250
  544TIP3    H1 1596   2.148   2.800   5.161
  544TIP3    H2 1597   2.228   2.761   5.283
  545TIP3   OH2 1598   2.580   2.427   1.255
  545TIP3    H1 1599   2.626   2.510   1.270
  545TIP3    H2 1600   2.489   2.446   1.277
  546TIP3   OH2 1601   2.707   6.807   1.657
  546TIP3    H1 1602   2.728   6.784   1.747
  546TIP3    H2 1603   2.636   6.748   1.633
  547TIP3   OH2 1604   0.242   6.512   0.500
  547TIP3    H1 1605   0.177   6.479   0.437
  547TIP3    H2 1606   0.297   6.571   0.449
  548TIP3   OH2 1607   6.706   6.528   0.301
  548TIP3    H1 1608   6.671   6.496   0.218
  548TIP3    H2 1609   6.732   6.618   0.283
  549TIP3   OH2 1610   4.290   6.429   4.035
  549TIP3    H1 1611   4.259   6.381   3.958
  549TIP3    H2 1612   4.364   6.377   4.067
  550TIP3   OH2 1613   0.180   2.892   1.736
  550TIP3    H1 1614   0.115   2.875   1.804
  550TIP3    H2 1615   0.136   2.868   1.655
  551TIP3   OH2 1616   6.759   6.412   2.303
  551TIP3    H1 1617   6.834   6.383   2.251
  551TIP3    H2 1618   6.705   6.333   2.312
  552TIP3   OH2 1619   2.639   2.182   2.916
  552TIP3    H1 1620   2.585   2.157   2.841
  552TIP3    H2 1621   2.648   2.277   2.909
  553TIP3   OH2 1622   5.730   4.278   1.785
  553TIP3    H1 1623   5.778   4.324   1.853
  553TIP3    H2 1624   5.728   4.187   1.814
  554TIP3   OH2 1625   0.344   3.985  -0.010
  554TIP3    H1 1626   0.296   4.064   0.013
  554TIP3    H2 1627   0.287   3.913   0.018
  555TIP3   OH2 1628   5.605   1.280   2.268
  555TIP3    H1 1629   5.664   1.354   2.260
  555TIP3    H2 1630   5.617   1.230   2.187
  556TIP3   OH2 1631   6.600   6.626   3.648
  556TIP3    H1 1632   6.616   6.563   3.719
  556TIP3    H2 1633   6.682   6.674   3.640
  557TIP3   OH2 1634   2.978   6.139   4.643
  557TIP3    H1 1635   3.058   6.151   4.696
  557TIP3    H2 1636   2.909   6.180   4.695
  558TIP3   OH2 1637   0.533   2.081   5.599
  558TIP3    H1 1638   0.573   2.033   5.671
  558TIP3    H2 1639   0.452   2.034   5.581
  559TIP3   OH2 1640   2.147   3.455   5.213
  559TIP3    H1 1641   2.239   3.481   5.217
  559TIP3    H2 1642   2.133   3.428   5.122
  560TIP3   OH2 1643   3.803   1.954   5.556
  560TIP3    H1 1644   3.818   2.007   5.477
  560TIP3    H2 1645   3.708   1.944   5.560
  561TIP3   OH2 1646   2.138   3.993   3.997
  561TIP3    H1 1647   2.194   3.922   4.027
  561TIP3    H2 1648   2.168   4.070   4.046
  562TIP3   OH2 1649   3.757   6.338   0.606
  562TIP3    H1 1650   3.810   6.327   0.685
  562TIP3    H2 1651   3.819   6.371   0.540
  563TIP3   OH2 1652   0.497   5.062   1.746
  563TIP3    H1 1653   0.550   5.040   1.670
  563TIP3    H2 1654   0.407   5.046   1.719
  564TIP3   OH2 1655   1.438   3.710   5.219
  564TIP3    H1 1656   1.360   3.664   5.188
  564TIP3    H2 1657   1.481   3.647   5.277
  565TIP3   OH2 1658   0.155   6.000   4.866
  565TIP3    H1 1659   0.163   5.922   4.922
  565TIP3    H2 1660   0.179   5.969   4.779
  566TIP3   OH2 1661   4.014   1.650   1.697
  566TIP3    H1 1662   3.935   1.701   1.682
  566TIP3    H2 1663   4.076   1.680   1.630
  567TIP3   OH2 1664   1.606   1.850   4.739
  567TIP3    H1 1665   1.692   1.820   4.768
  567TIP3    H2 1666   1.604   1.943   4.763
  568TIP3   OH2 1667   5.029   3.781   0.206
  568TIP3    H1 1668   5.007   3.693   0.177
  568TIP3    H2 1669   5.125   3.783   0.206
  569TIP3   OH2 1670   3.884   3.890   0.136
  569TIP3    H1 1671   3.911   3.860   0.222
  569TIP3    H2 1672   3.941   3.843   0.075
  570TIP3   OH2 1673   6.118   6.663   2.153
  570TIP3    H1 1674   6.156   6.607   2.222
  570TIP3    H2 1675   6.129   6.752   2.185
  571TIP3   OH2 1676   4.236   3.393   0.904
  571TIP3    H1 1677   4.219   3.430   0.990
  571TIP3    H2 1678   4.278   3.464   0.855
  572TIP3   OH2 1679   1.465   3.917   3.091
  572TIP3    H1 1680   1.501   4.004   3.071
  572TIP3    H2 1681   1.393   3.935   3.152
  573TIP3   OH2 1682   1.024   0.428   4.147
  573TIP3    H1 1683   1.037   0.351   4.202
  573TIP3    H2 1684   0.930   0.430   4.130
  574TIP3   OH2 1685   0.457   4.900   5.235
  574TIP3    H1 1686   0.502   4.900   5.150
  574TIP3    H2 1687   0.369   4.931   5.214
  575TIP3   OH2 1688   5.345   2.201   3.150
  575TIP3    H1 1689   5.328   2.262   3.079
  575TIP3    H2 1690   5.270   2.210   3.208
  576TIP3   OH2 1691   4.438   5.041   4.487
  576TIP3    H1 1692   4.452   4.956   4.444
  576TIP3    H2 1693   4.512   5.094   4.459
  577TIP3   OH2 1694   5.659   2.966   2.323
  577TIP3    H1 1695   5.587   2.918   2.283
  577TIP3    H2 1696   5.721   2.982   2.251
  578TIP3   OH2 1697   1.317   2.965   0.443
  578TIP3    H1 1698   1.255   2.949   0.514
  578TIP3    H2 1699   1.334   3.059   0.447
  579TIP3   OH2 1700   2.914   2.845   0.748
  579TIP3    H1 1701   2.868   2.919   0.708
  579TIP3    H2 1702   3.005   2.872   0.753
  580TIP3   OH2 1703   3.726   0.163   2.871
  580TIP3    H1 1704   3.704   0.224   2.941
  580TIP3    H2 1705   3.641   0.142   2.831
  581TIP3   OH2 1706   1.269   4.753   3.687
  581TIP3    H1 1707   1.236   4.665   3.674
  581TIP3    H2 1708   1.355   4.741   3.726
  582TIP3   OH2 1709   2.397   5.636   1.905
  582TIP3    H1 1710   2.346   5.583   1.843
  582TIP3    H2 1711   2.457   5.685   1.849
  583TIP3   OH2 1712   3.458   0.115   5.195
  583TIP3    H1 1713   3.368   0.083   5.189
  583TIP3    H2 1714   3.499   0.088   5.113
  584TIP3   OH2 1715   1.588   4.952   2.884
  584TIP3    H1 1716   1.515   4.918   2.832
  584TIP3    H2 1717   1.606   5.038   2.847
  585TIP3   OH2 1718   6.087   1.945   3.942
  585TIP3    H1 1719   6.175   1.920   3.968
  585TIP3    H2 1720   6.099   2.005   3.869
  586TIP3   OH2 1721   0.935   3.663   4.639
  586TIP3    H1 1722   1.002   3.618   4.690
  586TIP3    H2 1723   0.959   3.646   4.548
  587TIP3   OH2 1724   0.168   4.281   5.023
  587TIP3    H1 1725   0.205   4.193   5.027
  587TIP3    H2 1726   0.077   4.268   4.997
  588TIP3   OH2 1727   5.057   2.826   0.710
  588TIP3    H1 1728   5.067   2.890   0.640
  588TIP3    H2 1729   5.127   2.762   0.694
  589TIP3   OH2 1730   0.099   4.374   3.328
  589TIP3    H1 1731   0.167   4.441   3.318
  589TIP3    H2 1732   0.017   4.420   3.311
  590TIP3   OH2 1733   7.166   5.997   5.903
  590TIP3    H1 1734   7.195   6.001   5.812
  590TIP3    H2 1735   7.194   5.911   5.934
  591TIP3   OH2 1736   5.124   4.336   4.680
  591TIP3    H1 1737   5.111   4.254   4.729
  591TIP3    H2 1738   5.138   4.402   4.748
  592TIP3   OH2 1739   5.961   6.629   3.064
  592TIP3    H1 1740   6.048   6.668   3.077
  592TIP3    H2 1741   5.945   6.580   3.144
  593TIP3   OH2 1742   5.502   1.371   1.356
  593TIP3    H1 1743   5.470   1.314   1.286
  593TIP3    H2 1744   5.475   1.328   1.437
  594TIP3   OH2 1745   6.605   1.220   2.563
  594TIP3    H1 1746   6.685   1.272   2.565
  594TIP3    H2 1747   6.553   1.253   2.636
  595TIP3   OH2 1748   1.112   3.502   0.095
  595TIP3    H1 1749   1.176   3.571   0.111
  595TIP3    H2 1750   1.156   3.441   0.036
  596TIP3   OH2 1751   1.714   3.663   2.831
  596TIP3    H1 1752   1.681   3.659   2.921
  596TIP3    H2 1753   1.790   3.721   2.836
  597TIP3   OH2 1754   4.830   4.234   0.822
  597TIP3    H1 1755   4.845   4.152   0.869
  597TIP3    H2 1756   4.868   4.302   0.877
  598TIP3   OH2 1757   7.021   5.956   3.068
  598TIP3    H1 1758   6.961   5.887   3.098
  598TIP3    H2 1759   7.108   5.917   3.076
  599TIP3   OH2 1760   0.707   2.647   2.908
  599TIP3    H1 1761   0.795   2.649   2.946
  599TIP3    H2 1762   0.650   2.676   2.979
  600TIP3   OH2 1763   4.268   6.356   4.955
  600TIP3    H1 1764   4.315   6.311   4.885
  600TIP3    H2 1765   4.230   6.433   4.913
  601TIP3   OH2 1766   2.243   5.984   0.530
  601TIP3    H1 1767   2.155   6.021   0.521
  601TIP3    H2 1768   2.230   5.889   0.524
  602TIP3   OH2 1769   2.654   4.512   2.765
  602TIP3    H1 1770   2.655   4.541   2.673
  602TIP3    H2 1771   2.724   4.562   2.806
  603TIP3   OH2 1772  -0.003   0.862   4.085
  603TIP3    H1 1773  -0.068   0.791   4.088
  603TIP3    H2 1774   0.080   0.816   4.076
  604TIP3   OH2 1775   0.674   0.744   0.504
  604TIP3    H1 1776   0.729   0.730   0.581
  604TIP3    H2 1777   0.710   0.822   0.463
  605TIP3   OH2 1778   5.408   5.358   3.481
  605TIP3    H1 1779   5.431   5.391   3.394
  605TIP3    H2 1780   5.455   5.415   3.542
  606TIP3   OH2 1781   6.712   4.176   0.778
  606TIP3    H1 1782   6.686   4.258   0.820
  606TIP3    H2 1783   6.769   4.203   0.707
  607TIP3   OH2 1784   0.377   1.086   0.489
  607TIP3    H1 1785   0.349   0.996   0.502
  607TIP3    H2 1786   0.376   1.097   0.394
  608TIP3   OH2 1787   6.896   5.816   5.808
  608TIP3    H1 1788   6.958   5.744   5.822
  608TIP3    H2 1789   6.923   5.884   5.870
  609TIP3   OH2 1790   3.371   3.891   5.248
  609TIP3    H1 1791   3.282   3.919   5.266
  609TIP3    H2 1792   3.397   3.941   5.171
  610TIP3   OH2 1793   1.667   6.045   0.231
  610TIP3    H1 1794   1.722   5.981   0.275
  610TIP3    H2 1795   1.680   6.028   0.138
  611TIP3   OH2 1796   4.330   4.342   5.087
  611TIP3    H1 1797   4.351   4.433   5.108
  611TIP3    H2 1798   4.280   4.311   5.163
  612TIP3   OH2 1799   6.696   2.220   3.914
  612TIP3    H1 1800   6.646   2.288   3.959
  612TIP3    H2 1801   6.692   2.245   3.822
  613TIP3   OH2 1802   5.518   6.366   2.062
  613TIP3    H1 1803   5.468   6.438   2.021
  613TIP3    H2 1804   5.602   6.368   2.017
  614TIP3   OH2 1805   3.506   2.063   4.186
  614TIP3    H1 1806   3.565   1.988   4.174
  614TIP3    H2 1807   3.565   2.136   4.206
  615TIP3   OH2 1808   4.322   4.894   0.217
  615TIP3    H1 1809   4.374   4.889   0.136
  615TIP3    H2 1810   4.233   4.875   0.189
  616TIP3   OH2 1811   2.515   3.007   4.638
  616TIP3    H1 1812   2.551   3.031   4.553
  616TIP3    H2 1813   2.464   2.927   4.620
  617TIP3   OH2 1814   3.678   5.490   1.914
  617TIP3    H1 1815   3.601   5.530   1.956
  617TIP3    H2 1816   3.660   5.396   1.918
  618TIP3   OH2 1817   3.406   6.029   4.789
  618TIP3    H1 1818   3.406   5.997   4.699
  618TIP3    H2 1819   3.397   5.951   4.843
  619TIP3   OH2 1820   4.144   3.428   3.462
  619TIP3    H1 1821   4.096   3.503   3.425
  619TIP3    H2 1822   4.138   3.361   3.393
  620TIP3   OH2 1823   4.303   4.315   5.456
  620TIP3    H1 1824   4.374   4.253   5.472
  620TIP3    H2 1825   4.287   4.356   5.541
  621TIP3   OH2 1826   0.912   5.463   1.968
  621TIP3    H1 1827   0.972   5.522   2.014
  621TIP3    H2 1828   0.857   5.522   1.916
  622TIP3   OH2 1829   2.619   4.140   5.360
  622TIP3    H1 1830   2.607   4.052   5.396
  622TIP3    H2 1831   2.670   4.186   5.426
  623TIP3   OH2 1832   3.679   1.349   4.559
  623TIP3    H1 1833   3.612   1.414   4.578
  623TIP3    H2 1834   3.707   1.368   4.469
  624TIP3   OH2 1835   1.534   4.886   3.343
  624TIP3    H1 1836   1.554   4.805   3.390
  624TIP3    H2 1837   1.597   4.887   3.271
  625TIP3   OH2 1838   4.504   0.961   5.325
  625TIP3    H1 1839   4.502   0.993   5.415
  625TIP3    H2 1840   4.474   0.871   5.330
  626TIP3   OH2 1841   0.687   4.846   2.613
  626TIP3    H1 1842   0.704   4.935   2.643
  626TIP3    H2 1843   0.622   4.812   2.675
  627TIP3   OH2 1844   1.670   2.934   4.545
  627TIP3    H1 1845   1.594   2.902   4.496
  627TIP3    H2 1846   1.745   2.894   4.501
  628TIP3   OH2 1847   4.474   0.135   5.334
  628TIP3    H1 1848   4.569   0.125   5.327
  628TIP3    H2 1849   4.459   0.229   5.321
  629TIP3   OH2 1850   3.311   2.665   1.601
  629TIP3    H1 1851   3.288   2.595   1.541
  629TIP3    H2 1852   3.405   2.652   1.618
  630TIP3   OH2 1853   4.165   2.146   2.630
  630TIP3    H1 1854   4.197   2.063   2.597
  630TIP3    H2 1855   4.244   2.195   2.652
  631TIP3   OH2 1856   6.044   3.481   2.029
  631TIP3    H1 1857   6.017   3.475   1.938
  631TIP3    H2 1858   5.966   3.512   2.075
  632TIP3   OH2 1859   3.554   2.647   3.884
  632TIP3    H1 1860   3.562   2.736   3.919
  632TIP3    H2 1861   3.592   2.652   3.797
  633TIP3   OH2 1862   5.063   5.364   3.371
  633TIP3    H1 1863   5.019   5.439   3.332
  633TIP3    H2 1864   4.993   5.299   3.385
  634TIP3   OH2 1865   2.697   3.520   5.390
  634TIP3    H1 1866   2.688   3.506   5.485
  634TIP3    H2 1867   2.616   3.564   5.366
  635TIP3   OH2 1868   7.035   3.003   2.538
  635TIP3    H1 1869   7.023   3.008   2.633
  635TIP3    H2 1870   7.081   3.084   2.515
  636TIP3   OH2 1871   0.177   4.862   1.920
  636TIP3    H1 1872   0.197   4.927   1.986
  636TIP3    H2 1873   0.183   4.909   1.837
  637TIP3   OH2 1874   5.434   5.357   2.562
  637TIP3    H1 1875   5.377   5.422   2.521
  637TIP3    H2 1876   5.435   5.284   2.501
  638TIP3   OH2 1877   4.613   4.350   4.939
  638TIP3    H1 1878   4.700   4.378   4.966
  638TIP3    H2 1879   4.555   4.420   4.969
  639TIP3   OH2 1880   4.539   2.187   0.186
  639TIP3    H1 1881   4.509   2.102   0.156
  639TIP3    H2 1882   4.579   2.228   0.109
  640TIP3   OH2 1883   2.563   0.984   3.470
  640TIP3    H1 1884   2.520   0.953   3.550
  640TIP3    H2 1885   2.555   1.080   3.475
  641TIP3   OH2 1886   5.823   0.299   0.179
  641TIP3    H1 1887   5.780   0.353   0.113
  641TIP3    H2 1888   5.857   0.361   0.243
  642TIP3   OH2 1889   0.335   3.291   3.541
  642TIP3    H1 1890   0.261   3.293   3.480
  642TIP3    H2 1891   0.294   3.308   3.627
  643TIP3   OH2 1892   7.112   1.797   0.308
  643TIP3    H1 1893   7.043   1.840   0.359
  643TIP3    H2 1894   7.161   1.869   0.268
  644TIP3   OH2 1895   4.841   0.749   1.448
  644TIP3    H1 1896   4.912   0.801   1.488
  644TIP3    H2 1897   4.815   0.800   1.372
  645TIP3   OH2 1898   2.450   5.292   4.591
  645TIP3    H1 1899   2.492   5.288   4.506
  645TIP3    H2 1900   2.415   5.381   4.597
  646TIP3   OH2 1901   5.287   5.298   4.795
  646TIP3    H1 1902   5.214   5.313   4.735
  646TIP3    H2 1903   5.266   5.352   4.872
  647TIP3   OH2 1904   3.568   6.333   1.303
  647TIP3    H1 1905   3.575   6.382   1.385
  647TIP3    H2 1906   3.557   6.242   1.331
  648TIP3   OH2 1907   1.378   0.608   5.187
  648TIP3    H1 1908   1.385   0.680   5.251
  648TIP3    H2 1909   1.285   0.599   5.171
  649TIP3   OH2 1910   3.288   3.072   5.299
  649TIP3    H1 1911   3.218   3.079   5.364
  649TIP3    H2 1912   3.301   3.162   5.269
  650TIP3   OH2 1913   1.158   2.604   0.508
  650TIP3    H1 1914   1.112   2.687   0.497
  650TIP3    H2 1915   1.242   2.628   0.548
  651TIP3   OH2 1916   6.361   5.122   2.402
  651TIP3    H1 1917   6.300   5.081   2.341
  651TIP3    H2 1918   6.313   5.128   2.485
  652TIP3   OH2 1919   6.110   3.044   4.594
  652TIP3    H1 1920   6.054   3.001   4.529
  652TIP3    H2 1921   6.186   2.985   4.601
  653TIP3   OH2 1922   0.345   3.574   1.824
  653TIP3    H1 1923   0.377   3.521   1.897
  653TIP3    H2 1924   0.272   3.624   1.861
  654TIP3   OH2 1925   0.929   4.522   3.289
  654TIP3    H1 1926   0.888   4.524   3.202
  654TIP3    H2 1927   1.018   4.552   3.274
  655TIP3   OH2 1928   0.408   6.610   1.431
  655TIP3    H1 1929   0.363   6.527   1.415
  655TIP3    H2 1930   0.426   6.645   1.344
  656TIP3   OH2 1931   0.210   2.334   2.191
  656TIP3    H1 1932   0.219   2.262   2.253
  656TIP3    H2 1933   0.115   2.348   2.185
  657TIP3   OH2 1934   3.221   5.024   1.883
  657TIP3    H1 1935   3.210   5.113   1.850
  657TIP3    H2 1936   3.247   5.035   1.974
  658TIP3   OH2 1937   5.003   3.656   4.188
  658TIP3    H1 1938   5.094   3.632   4.204
  658TIP3    H2 1939   4.959   3.574   4.169
  659TIP3   OH2 1940   3.492   6.079   2.184
  659TIP3    H1 1941   3.440   6.156   2.207
  659TIP3    H2 1942   3.480   6.019   2.258
  660TIP3   OH2 1943   2.787   5.391   3.770
  660TIP3    H1 1944   2.858   5.437   3.815
  660TIP3    H2 1945   2.722   5.374   3.837
  661TIP3   OH2 1946   3.081   5.456   1.058
  661TIP3    H1 1947   3.118   5.422   0.976
  661TIP3    H2 1948   3.018   5.390   1.085
  662TIP3   OH2 1949   3.506   6.736   3.742
  662TIP3    H1 1950   3.511   6.652   3.787
  662TIP3    H2 1951   3.477   6.798   3.808
  663TIP3   OH2 1952   4.812   0.244   0.912
  663TIP3    H1 1953   4.763   0.315   0.870
  663TIP3    H2 1954   4.749   0.172   0.919
  664TIP3   OH2 1955   0.291   0.493   5.203
  664TIP3    H1 1956   0.236   0.489   5.282
  664TIP3    H2 1957   0.308   0.401   5.181
  665TIP3   OH2 1958   4.598   3.348   2.821
  665TIP3    H1 1959   4.673   3.292   2.841
  665TIP3    H2 1960   4.522   3.294   2.840
  666TIP3   OH2 1961   5.997   3.939   4.094
  666TIP3    H1 1962   6.083   3.964   4.062
  666TIP3    H2 1963   6.014   3.891   4.175
  667TIP3   OH2 1964   6.689   4.221   1.698
  667TIP3    H1 1965   6.706   4.267   1.616
  667TIP3    H2 1966   6.770   4.231   1.748
  668TIP3   OH2 1967   6.769   5.792   2.440
  668TIP3    H1 1968   6.739   5.701   2.435
  668TIP3    H2 1969   6.806   5.800   2.528
  669TIP3   OH2 1970   5.749   4.905   0.466
  669TIP3    H1 1971   5.724   4.997   0.463
  669TIP3    H2 1972   5.719   4.875   0.552
  670TIP3   OH2 1973   1.980   5.321   3.145
  670TIP3    H1 1974   1.958   5.405   3.186
  670TIP3    H2 1975   2.043   5.281   3.204
  671TIP3   OH2 1976   7.104   6.482   4.630
  671TIP3    H1 1977   7.143   6.568   4.644
  671TIP3    H2 1978   7.083   6.450   4.718
  672TIP3   OH2 1979   2.740   2.577   5.148
  672TIP3    H1 1980   2.719   2.524   5.071
  672TIP3    H2 1981   2.761   2.663   5.112
  673TIP3   OH2 1982   4.462   0.894   0.991
  673TIP3    H1 1983   4.493   0.867   1.078
  673TIP3    H2 1984   4.507   0.977   0.975
  674TIP3   OH2 1985   3.056   0.114   0.251
  674TIP3    H1 1986   2.963   0.132   0.264
  674TIP3    H2 1987   3.071   0.029   0.292
  675TIP3   OH2 1988   0.974   0.294   4.413
  675TIP3    H1 1989   1.053   0.261   4.455
  675TIP3    H2 1990   0.902   0.256   4.463
  676TIP3   OH2 1991   0.596   6.584   4.147
  676TIP3    H1 1992   0.563   6.504   4.187
  676TIP3    H2 1993   0.690   6.569   4.138
  677TIP3   OH2 1994   2.580   6.319   3.149
  677TIP3    H1 1995   2.653   6.369   3.183
  677TIP3    H2 1996   2.503   6.375   3.163
  678TIP3   OH2 1997   1.047   5.459   3.063
  678TIP3    H1 1998   0.966   5.460   3.012
  678TIP3    H2 1999   1.048   5.544   3.108
  679TIP3   OH2 2000   1.546   6.540   5.341
  679TIP3    H1 2001   1.499   6.486   5.277
  679TIP3    H2 2002   1.600   6.599   5.288
  680TIP3   OH2 2003   6.172   1.475   0.887
  680TIP3    H1 2004   6.166   1.498   0.980
  680TIP3    H2 2005   6.196   1.383   0.887
  681TIP3   OH2 2006   1.425   2.964   1.999
  681TIP3    H1 2007   1.384   2.888   2.041
  681TIP3    H2 2008   1.483   3.000   2.067
  682TIP3   OH2 2009   4.395   3.887   2.151
  682TIP3    H1 2010   4.401   3.872   2.057
  682TIP3    H2 2011   4.481   3.922   2.175
  683TIP3   OH2 2012   6.048   2.416   2.591
  683TIP3    H1 2013   6.039   2.497   2.641
  683TIP3    H2 2014   6.074   2.445   2.503
  684TIP3   OH2 2015   4.840   0.348   1.176
  684TIP3    H1 2016   4.771   0.415   1.174
  684TIP3    H2 2017   4.829   0.300   1.094
  685TIP3   OH2 2018   3.091   4.577   1.301
  685TIP3    H1 2019   2.996   4.589   1.300
  685TIP3    H2 2020   3.108   4.532   1.384
  686TIP3   OH2 2021   6.706   0.882   0.267
  686TIP3    H1 2022   6.696   0.856   0.358
  686TIP3    H2 2023   6.658   0.815   0.218
  687TIP3   OH2 2024   1.860   5.454   4.437
  687TIP3    H1 2025   1.797   5.388   4.467
  687TIP3    H2 2026   1.844   5.460   4.342
  688TIP3   OH2 2027   2.691   1.998   4.255
  688TIP3    H1 2028   2.664   1.980   4.346
  688TIP3    H2 2029   2.611   2.028   4.212
  689TIP3   OH2 2030   0.762   4.994   0.488
  689TIP3    H1 2031   0.721   5.001   0.575
  689TIP3    H2 2032   0.823   4.921   0.497
  690TIP3   OH2 2033   3.607   2.324   4.585
  690TIP3    H1 2034   3.527   2.376   4.600
  690TIP3    H2 2035   3.661   2.340   4.663
  691TIP3   OH2 2036   7.231   4.823   4.889
  691TIP3    H1 2037   7.209   4.790   4.802
  691TIP3    H2 2038   7.158   4.881   4.912
  692TIP3   OH2 2039   4.179   0.810   4.536
  692TIP3    H1 2040   4.211   0.807   4.446
  692TIP3    H2 2041   4.087   0.786   4.530
  693TIP3   OH2 2042   3.186   3.935   5.041
  693TIP3    H1 2043   3.206   3.880   4.965
  693TIP3    H2 2044   3.096   3.964   5.027
  694TIP3   OH2 2045   5.775   1.208   3.682
  694TIP3    H1 2046   5.787   1.292   3.638
  694TIP3    H2 2047   5.713   1.227   3.753
  695TIP3   OH2 2048   1.064   0.807   3.657
  695TIP3    H1 2049   1.112   0.865   3.599
  695TIP3    H2 2050   1.113   0.725   3.656
  696TIP3   OH2 2051   2.098   0.078   5.564
  696TIP3    H1 2052   2.087   0.077   5.659
  696TIP3    H2 2053   2.193   0.071   5.551
  697TIP3   OH2 2054   2.830   2.307   4.726
  697TIP3    H1 2055   2.867   2.231   4.682
  697TIP3    H2 2056   2.767   2.343   4.662
  698TIP3   OH2 2057   5.676   2.175   5.392
  698TIP3    H1 2058   5.586   2.205   5.405
  698TIP3    H2 2059   5.671   2.117   5.316
  699TIP3   OH2 2060   5.956   4.544   4.337
  699TIP3    H1 2061   5.967   4.531   4.242
  699TIP3    H2 2062   5.883   4.487   4.360
  700TIP3   OH2 2063   6.305   3.242   2.826
  700TIP3    H1 2064   6.323   3.148   2.837
  700TIP3    H2 2065   6.243   3.246   2.754
  701TIP3   OH2 2066   5.354   0.338   4.634
  701TIP3    H1 2067   5.436   0.384   4.649
  701TIP3    H2 2068   5.344   0.337   4.539
  702TIP3   OH2 2069   0.109   4.182   3.577
  702TIP3    H1 2070   0.174   4.230   3.628
  702TIP3    H2 2071   0.110   4.224   3.491
  703TIP3   OH2 2072   4.788   6.363   5.297
  703TIP3    H1 2073   4.881   6.382   5.309
  703TIP3    H2 2074   4.747   6.448   5.286
  704TIP3   OH2 2075   5.897   0.328   1.715
  704TIP3    H1 2076   5.932   0.408   1.755
  704TIP3    H2 2077   5.808   0.351   1.687
  705TIP3   OH2 2078   2.132   5.706   3.134
  705TIP3    H1 2079   2.045   5.665   3.137
  705TIP3    H2 2080   2.144   5.731   3.042
  706TIP3   OH2 2081   2.950   1.468   0.239
  706TIP3    H1 2082   2.925   1.405   0.172
  706TIP3    H2 2083   2.877   1.466   0.302
  707TIP3   OH2 2084   6.929   3.474   3.234
  707TIP3    H1 2085   6.893   3.386   3.224
  707TIP3    H2 2086   6.865   3.532   3.193
  708TIP3   OH2 2087   0.226   0.699   0.722
  708TIP3    H1 2088   0.308   0.745   0.741
  708TIP3    H2 2089   0.241   0.609   0.751
  709TIP3   OH2 2090   1.832   1.788   1.902
  709TIP3    H1 2091   1.884   1.800   1.823
  709TIP3    H2 2092   1.781   1.869   1.911
  710TIP3   OH2 2093   7.162   1.297   5.220
  710TIP3    H1 2094   7.254   1.318   5.206
  710TIP3    H2 2095   7.120   1.381   5.235
  711TIP3   OH2 2096   0.683   2.002   4.218
  711TIP3    H1 2097   0.598   1.977   4.252
  711TIP3    H2 2098   0.717   1.923   4.176
  712TIP3   OH2 2099   1.121   1.343   3.228
  712TIP3    H1 2100   1.187   1.279   3.256
  712TIP3    H2 2101   1.038   1.308   3.261
  713TIP3   OH2 2102   0.138   6.394   4.611
  713TIP3    H1 2103   0.186   6.472   4.637
  713TIP3    H2 2104   0.047   6.414   4.632
  714TIP3   OH2 2105   6.837   4.603   4.986
  714TIP3    H1 2106   6.932   4.609   4.996
  714TIP3    H2 2107   6.803   4.681   5.030
  715TIP3   OH2 2108   1.741   3.709   4.205
  715TIP3    H1 2109   1.801   3.780   4.183
  715TIP3    H2 2110   1.683   3.746   4.272
  716TIP3   OH2 2111   0.862   2.100   2.198
  716TIP3    H1 2112   0.861   2.005   2.185
  716TIP3    H2 2113   0.947   2.128   2.163
  717TIP3   OH2 2114   3.534   6.052   1.398
  717TIP3    H1 2115   3.599   5.987   1.425
  717TIP3    H2 2116   3.470   6.054   1.470
  718TIP3   OH2 2117   5.640   0.961   3.162
  718TIP3    H1 2118   5.567   1.024   3.170
  718TIP3    H2 2119   5.713   1.014   3.129
  719TIP3   OH2 2120   6.830   2.545   5.881
  719TIP3    H1 2121   6.877   2.508   5.955
  719TIP3    H2 2122   6.837   2.479   5.812
  720TIP3   OH2 2123   2.711   4.932   2.673
  720TIP3    H1 2124   2.768   4.949   2.748
  720TIP3    H2 2125   2.723   5.008   2.616
  721TIP3   OH2 2126   0.959   3.275   0.577
  721TIP3    H1 2127   0.980   3.357   0.621
  721TIP3    H2 2128   0.994   3.206   0.634
  722TIP3   OH2 2129   4.456   6.230   4.134
  722TIP3    H1 2130   4.430   6.220   4.225
  722TIP3    H2 2131   4.450   6.142   4.097
  723TIP3   OH2 2132   2.684   0.693   0.880
  723TIP3    H1 2133   2.717   0.654   0.961
  723TIP3    H2 2134   2.734   0.651   0.810
  724TIP3   OH2 2135   5.977   5.442   2.697
  724TIP3    H1 2136   5.919   5.518   2.693
  724TIP3    H2 2137   6.007   5.431   2.607
  725TIP3   OH2 2138   6.039   4.467   0.416
  725TIP3    H1 2139   6.005   4.556   0.411
  725TIP3    H2 2140   5.975   4.419   0.470
  726TIP3   OH2 2141   4.397   3.182   3.401
  726TIP3    H1 2142   4.446   3.255   3.438
  726TIP3    H2 2143   4.314   3.182   3.450
  727TIP3   OH2 2144   4.304   4.216   0.649
  727TIP3    H1 2145   4.234   4.190   0.589
  727TIP3    H2 2146   4.324   4.307   0.625
  728TIP3   OH2 2147   6.407   5.997   4.935
  728TIP3    H1 2148   6.470   6.007   4.865
  728TIP3    H2 2149   6.339   5.941   4.899
  729TIP3   OH2 2150   0.072   3.961   3.764
  729TIP3    H1 2151   0.072   4.026   3.694
  729TIP3    H2 2152   0.159   3.969   3.804
  730TIP3   OH2 2153   5.362   6.622   4.457
  730TIP3    H1 2154   5.447   6.657   4.430
  730TIP3    H2 2155   5.330   6.575   4.380
  731TIP3   OH2 2156   2.803   3.965   0.116
  731TIP3    H1 2157   2.867   3.989   0.048
  731TIP3    H2 2158   2.850   3.905   0.173
  732TIP3   OH2 2159   0.586   6.534   3.397
  732TIP3    H1 2160   0.560   6.500   3.483
  732TIP3    H2 2161   0.681   6.540   3.401
  733TIP3   OH2 2162   5.672   0.047   4.501
  733TIP3    H1 2163   5.647  -0.040   4.469
  733TIP3    H2 2164   5.675   0.102   4.422
  734TIP3   OH2 2165   4.378   3.651   5.636
  734TIP3    H1 2166   4.386   3.556   5.633
  734TIP3    H2 2167   4.423   3.681   5.557
  735TIP3   OH2 2168   2.718   2.612   4.707
  735TIP3    H1 2169   2.726   2.563   4.626
  735TIP3    H2 2170   2.760   2.696   4.689
  736TIP3   OH2 2171   2.748   1.023   4.830
  736TIP3    H1 2172   2.726   0.954   4.768
  736TIP3    H2 2173   2.844   1.028   4.828
  737TIP3   OH2 2174   5.754   1.061   0.440
  737TIP3    H1 2175   5.704   1.047   0.520
  737TIP3    H2 2176   5.822   0.994   0.442
  738TIP3   OH2 2177   5.853   6.752   1.587
  738TIP3    H1 2178   5.805   6.799   1.655
  738TIP3    H2 2179   5.944   6.778   1.600
  739TIP3   OH2 2180   4.176   2.326   1.292
  739TIP3    H1 2181   4.232   2.316   1.370
  739TIP3    H2 2182   4.235   2.360   1.225
  740TIP3   OH2 2183   3.107   1.141   1.589
  740TIP3    H1 2184   3.012   1.148   1.582
  740TIP3    H2 2185   3.126   1.049   1.568
  741TIP3   OH2 2186   5.746   4.852   1.849
  741TIP3    H1 2187   5.826   4.812   1.813
  741TIP3    H2 2188   5.777   4.929   1.897
  742TIP3   OH2 2189   6.740   3.034   2.468
  742TIP3    H1 2190   6.727   2.970   2.398
  742TIP3    H2 2191   6.834   3.031   2.486
  743TIP3   OH2 2192   5.604   0.735   0.270
  743TIP3    H1 2193   5.691   0.771   0.257
  743TIP3    H2 2194   5.568   0.728   0.181
  744TIP3   OH2 2195   5.591   4.528   2.585
  744TIP3    H1 2196   5.515   4.494   2.538
  744TIP3    H2 2197   5.554   4.565   2.665
  745TIP3   OH2 2198   7.000   5.289   0.943
  745TIP3    H1 2199   7.001   5.341   0.862
  745TIP3    H2 2200   6.948   5.341   1.004
  746TIP3   OH2 2201   0.205   0.315   3.434
  746TIP3    H1 2202   0.285   0.353   3.471
  746TIP3    H2 2203   0.174   0.380   3.372
  747TIP3   OH2 2204   1.968   3.464   5.750
  747TIP3    H1 2205   1.874   3.476   5.736
  747TIP3    H2 2206   1.985   3.374   5.722
  748TIP3   OH2 2207   4.502   1.755   1.813
  748TIP3    H1 2208   4.506   1.683   1.751
  748TIP3    H2 2209   4.507   1.713   1.899
  749TIP3   OH2 2210   4.810   0.886   4.608
  749TIP3    H1 2211   4.859   0.954   4.562
  749TIP3    H2 2212   4.874   0.844   4.665
  750TIP3   OH2 2213   3.854   4.995   2.305
  750TIP3    H1 2214   3.802   5.021   2.381
  750TIP3    H2 2215   3.939   5.038   2.319
  751TIP3   OH2 2216   3.592   5.839   0.427
  751TIP3    H1 2217   3.556   5.794   0.503
  751TIP3    H2 2218   3.565   5.930   0.436
  752TIP3   OH2 2219   0.188   3.829   2.342
  752TIP3    H1 2220   0.199   3.752   2.286
  752TIP3    H2 2221   0.173   3.902   2.281
  753TIP3   OH2 2222   5.167   6.705   0.091
  753TIP3    H1 2223   5.254   6.666   0.092
  753TIP3    H2 2224   5.118   6.654   0.026
  754TIP3   OH2 2225   5.766   6.447   2.916
  754TIP3    H1 2226   5.849   6.401   2.931
  754TIP3    H2 2227   5.778   6.532   2.958
  755TIP3   OH2 2228   4.771   0.633   1.167
  755TIP3    H1 2229   4.836   0.694   1.202
  755TIP3    H2 2230   4.731   0.680   1.094
  756TIP3   OH2 2231   3.810   4.951   3.205
  756TIP3    H1 2232   3.820   5.031   3.153
  756TIP3    H2 2233   3.740   4.971   3.267
  757TIP3   OH2 2234   6.312   2.557   3.923
  757TIP3    H1 2235   6.256   2.516   3.857
  757TIP3    H2 2236   6.251   2.585   3.991
  758TIP3   OH2 2237   5.475   2.157   4.098
  758TIP3    H1 2238   5.488   2.241   4.142
  758TIP3    H2 2239   5.563   2.120   4.090
  759TIP3   OH2 2240   3.826   2.066   5.074
  759TIP3    H1 2241   3.731   2.054   5.070
  759TIP3    H2 2242   3.860   2.009   5.005
  760TIP3   OH2 2243   5.735   3.528   1.583
  760TIP3    H1 2244   5.718   3.475   1.505
  760TIP3    H2 2245   5.765   3.465   1.649
  761TIP3   OH2 2246   4.459   6.782   3.062
  761TIP3    H1 2247   4.519   6.708   3.065
  761TIP3    H2 2248   4.376   6.747   3.095
  762TIP3   OH2 2249   5.249   3.238   5.133
  762TIP3    H1 2250   5.193   3.277   5.066
  762TIP3    H2 2251   5.223   3.280   5.215
  763TIP3   OH2 2252   4.006   5.752   3.920
  763TIP3    H1 2253   4.063   5.823   3.891
  763TIP3    H2 2254   3.918   5.781   3.896
  764TIP3   OH2 2255   0.729   5.769   1.165
  764TIP3    H1 2256   0.693   5.746   1.079
  764TIP3    H2 2257   0.667   5.731   1.227
  765TIP3   OH2 2258   4.813   3.128   0.545
  765TIP3    H1 2259   4.852   3.047   0.512
  765TIP3    H2 2260   4.758   3.159   0.472
  766TIP3   OH2 2261   3.033   5.205   1.405
  766TIP3    H1 2262   3.105   5.210   1.342
  766TIP3    H2 2263   3.049   5.125   1.454
  767TIP3   OH2 2264   6.385   2.071   5.519
  767TIP3    H1 2265   6.384   2.062   5.614
  767TIP3    H2 2266   6.305   2.119   5.498
  768TIP3   OH2 2267   0.943   4.103   5.780
  768TIP3    H1 2268   0.870   4.156   5.812
  768TIP3    H2 2269   0.903   4.047   5.712
  769TIP3   OH2 2270   3.456   6.086   0.172
  769TIP3    H1 2271   3.364   6.061   0.174
  769TIP3    H2 2272   3.460   6.170   0.218
  770TIP3   OH2 2273   3.557   0.548   3.225
  770TIP3    H1 2274   3.607   0.499   3.159
  770TIP3    H2 2275   3.615   0.551   3.301
  771TIP3   OH2 2276   7.073   0.620   4.059
  771TIP3    H1 2277   7.080   0.556   3.988
  771TIP3    H2 2278   7.024   0.575   4.128
  772TIP3   OH2 2279   5.708   1.234   4.301
  772TIP3    H1 2280   5.804   1.227   4.303
  772TIP3    H2 2281   5.678   1.143   4.300
  773TIP3   OH2 2282   5.601   1.649   2.858
  773TIP3    H1 2283   5.687   1.691   2.868
  773TIP3    H2 2284   5.544   1.696   2.919
  774TIP3   OH2 2285   7.007   2.063   0.684
  774TIP3    H1 2286   6.963   2.012   0.617
  774TIP3    H2 2287   6.941   2.077   0.751
  775TIP3   OH2 2288   5.858   3.674   0.276
  775TIP3    H1 2289   5.899   3.589   0.263
  775TIP3    H2 2290   5.800   3.685   0.201
  776TIP3   OH2 2291   0.640   3.378   0.772
  776TIP3    H1 2292   0.620   3.458   0.821
  776TIP3    H2 2293   0.569   3.318   0.794
  777TIP3   OH2 2294   4.288   5.594   5.137
  777TIP3    H1 2295   4.286   5.615   5.230
  777TIP3    H2 2296   4.329   5.671   5.096
  778TIP3   OH2 2297   2.431   2.719   2.319
  778TIP3    H1 2298   2.366   2.785   2.297
  778TIP3    H2 2299   2.470   2.693   2.235
  779TIP3   OH2 2300   2.877   1.340   1.305
  779TIP3    H1 2301   2.972   1.327   1.316
  779TIP3    H2 2302   2.846   1.365   1.392
  780TIP3   OH2 2303   2.222   2.908   3.792
  780TIP3    H1 2304   2.314   2.881   3.792
  780TIP3    H2 2305   2.176   2.835   3.752
  781TIP3   OH2 2306   4.692   4.453   5.221
  781TIP3    H1 2307   4.675   4.543   5.248
  781TIP3    H2 2308   4.768   4.458   5.164
  782TIP3   OH2 2309   4.561   2.660   2.532
  782TIP3    H1 2310   4.591   2.570   2.527
  782TIP3    H2 2311   4.619   2.709   2.475
  783TIP3   OH2 2312   3.417   5.073   5.736
  783TIP3    H1 2313   3.368   5.154   5.749
  783TIP3    H2 2314   3.509   5.098   5.749
  784TIP3   OH2 2315   1.195   5.359   2.179
  784TIP3    H1 2316   1.249   5.364   2.100
  784TIP3    H2 2317   1.257   5.368   2.251
  785TIP3   OH2 2318   6.737   1.554   1.463
  785TIP3    H1 2319   6.767   1.464   1.465
  785TIP3    H2 2320   6.671   1.560   1.533
  786TIP3   OH2 2321   4.020   4.877   1.047
  786TIP3    H1 2322   4.000   4.970   1.062
  786TIP3    H2 2323   4.081   4.877   0.974
  787TIP3   OH2 2324   5.285   2.364   1.927
  787TIP3    H1 2325   5.354   2.305   1.895
  787TIP3    H2 2326   5.256   2.411   1.848
  788TIP3   OH2 2327   1.790   4.538   5.254
  788TIP3    H1 2328   1.834   4.509   5.174
  788TIP3    H2 2329   1.697   4.544   5.229
  789TIP3   OH2 2330   3.922   3.911   2.502
  789TIP3    H1 2331   3.982   3.984   2.491
  789TIP3    H2 2332   3.977   3.833   2.492
  790TIP3   OH2 2333   2.218   0.878   3.670
  790TIP3    H1 2334   2.190   0.964   3.700
  790TIP3    H2 2335   2.149   0.849   3.611
  791TIP3   OH2 2336   7.069   5.332   2.629
  791TIP3    H1 2337   7.015   5.366   2.700
  791TIP3    H2 2338   7.130   5.403   2.609
  792TIP3   OH2 2339   3.624   1.918   3.236
  792TIP3    H1 2340   3.659   2.003   3.264
  792TIP3    H2 2341   3.647   1.911   3.144
  793TIP3   OH2 2342   5.677   0.418   0.932
  793TIP3    H1 2343   5.660   0.494   0.876
  793TIP3    H2 2344   5.590   0.380   0.948
  794TIP3   OH2 2345   5.596   2.744   1.173
  794TIP3    H1 2346   5.517   2.690   1.164
  794TIP3    H2 2347   5.667   2.681   1.184
  795TIP3   OH2 2348   3.400   1.546   0.466
  795TIP3    H1 2349   3.403   1.634   0.505
  795TIP3    H2 2350   3.353   1.493   0.530
  796TIP3   OH2 2351   1.404   1.637   3.513
  796TIP3    H1 2352   1.323   1.609   3.557
  796TIP3    H2 2353   1.469   1.640   3.583
  797TIP3   OH2 2354   3.342   4.196   3.002
  797TIP3    H1 2355   3.291   4.241   2.934
  797TIP3    H2 2356   3.357   4.263   3.069
  798TIP3   OH2 2357   2.314   1.031   2.242
  798TIP3    H1 2358   2.296   0.940   2.267
  798TIP3    H2 2359   2.388   1.024   2.182
  799TIP3   OH2 2360   0.543   3.262   1.865
  799TIP3    H1 2361   0.522   3.336   1.923
  799TIP3    H2 2362   0.628   3.231   1.897
  800TIP3   OH2 2363   4.043   5.458   0.229
  800TIP3    H1 2364   4.100   5.535   0.229
  800TIP3    H2 2365   3.962   5.488   0.271
  801TIP3   OH2 2366   7.102   1.327   0.263
  801TIP3    H1 2367   7.087   1.300   0.354
  801TIP3    H2 2368   7.164   1.399   0.269
  802TIP3   OH2 2369   4.926   5.013   0.217
  802TIP3    H1 2370   4.876   4.974   0.289
  802TIP3    H2 2371   5.009   5.039   0.256
  803TIP3   OH2 2372   0.253   1.464   0.075
  803TIP3    H1 2373   0.202   1.385   0.062
  803TIP3    H2 2374   0.344   1.435   0.072
  804TIP3   OH2 2375   7.007   4.577   4.103
  804TIP3    H1 2376   6.957   4.659   4.105
  804TIP3    H2 2377   6.940   4.508   4.097
  805TIP3   OH2 2378   6.295   2.048   3.274
  805TIP3    H1 2379   6.210   2.085   3.250
  805TIP3    H2 2380   6.352   2.067   3.200
  806TIP3   OH2 2381   0.703   2.382   5.313
  806TIP3    H1 2382   0.743   2.468   5.296
  806TIP3    H2 2383   0.609   2.400   5.316
  807TIP3   OH2 2384   1.337   0.373   2.513
  807TIP3    H1 2385   1.403   0.311   2.542
  807TIP3    H2 2386   1.381   0.427   2.447
  808TIP3   OH2 2387   5.411   4.937   0.658
  808TIP3    H1 2388   5.351   4.926   0.732
  808TIP3    H2 2389   5.414   4.850   0.617
  809TIP3   OH2 2390   2.008   3.915   0.120
  809TIP3    H1 2391   2.023   3.821   0.107
  809TIP3    H2 2392   1.968   3.944   0.038
  810TIP3   OH2 2393   4.050   5.701   4.971
  810TIP3    H1 2394   4.077   5.776   5.025
  810TIP3    H2 2395   4.083   5.625   5.017
  811TIP3   OH2 2396   3.577   6.411   3.580
  811TIP3    H1 2397   3.548   6.336   3.527
  811TIP3    H2 2398   3.500   6.435   3.631
  812TIP3   OH2 2399   4.349   2.512   2.364
  812TIP3    H1 2400   4.398   2.446   2.314
  812TIP3    H2 2401   4.415   2.554   2.420
  813TIP3   OH2 2402   0.126   0.964   1.030
  813TIP3    H1 2403   0.193   0.896   1.021
  813TIP3    H2 2404   0.049   0.929   0.985
  814TIP3   OH2 2405   5.455   5.618   4.567
  814TIP3    H1 2406   5.369   5.641   4.601
  814TIP3    H2 2407   5.515   5.638   4.639
  815TIP3   OH2 2408   5.267   1.190   0.863
  815TIP3    H1 2409   5.296   1.128   0.930
  815TIP3    H2 2410   5.283   1.144   0.781
  816TIP3   OH2 2411   5.383   4.739   4.279
  816TIP3    H1 2412   5.356   4.724   4.369
  816TIP3    H2 2413   5.383   4.834   4.269
  817TIP3   OH2 2414   4.044   2.647   3.455
  817TIP3    H1 2415   4.078   2.734   3.438
  817TIP3    H2 2416   4.056   2.634   3.549
  818TIP3   OH2 2417   0.102   0.501   1.790
  818TIP3    H1 2418   0.046   0.443   1.841
  818TIP3    H2 2419   0.045   0.575   1.767
  819TIP3   OH2 2420   6.170   6.748   5.009
  819TIP3    H1 2421   6.103   6.683   5.031
  819TIP3    H2 2422   6.177   6.803   5.087
  820TIP3   OH2 2423   4.120   2.142   4.284
  820TIP3    H1 2424   4.102   2.126   4.191
  820TIP3    H2 2425   4.051   2.203   4.311
  821TIP3   OH2 2426   1.181   4.800   4.265
  821TIP3    H1 2427   1.187   4.716   4.311
  821TIP3    H2 2428   1.148   4.861   4.331
  822TIP3   OH2 2429   3.319   0.012   3.525
  822TIP3    H1 2430   3.306   0.099   3.488
  822TIP3    H2 2431   3.231  -0.021   3.541
  823TIP3   OH2 2432   0.925   3.614   1.979
  823TIP3    H1 2433   0.946   3.685   1.919
  823TIP3    H2 2434   0.948   3.534   1.931
  824TIP3   OH2 2435   5.373   3.171   1.613
  824TIP3    H1 2436   5.307   3.109   1.644
  824TIP3    H2 2437   5.378   3.155   1.518
  825TIP3   OH2 2438   1.854   0.658   2.300
  825TIP3    H1 2439   1.814   0.572   2.306
  825TIP3    H2 2440   1.867   0.685   2.391
  826TIP3   OH2 2441   5.742   3.460   2.424
  826TIP3    H1 2442   5.794   3.499   2.494
  826TIP3    H2 2443   5.681   3.401   2.470
  827TIP3   OH2 2444   3.939   3.103   0.394
  827TIP3    H1 2445   3.873   3.068   0.333
  827TIP3    H2 2446   4.018   3.054   0.374
  828TIP3   OH2 2447   2.359   1.777   4.479
  828TIP3    H1 2448   2.302   1.853   4.465
  828TIP3    H2 2449   2.311   1.704   4.441
  829TIP3   OH2 2450   1.640   1.857   4.098
  829TIP3    H1 2451   1.703   1.803   4.050
  829TIP3    H2 2452   1.622   1.930   4.040
  830TIP3   OH2 2453   6.995   2.018   4.305
  830TIP3    H1 2454   7.001   1.953   4.375
  830TIP3    H2 2455   7.051   1.983   4.235
  831TIP3   OH2 2456   1.728   1.358   4.901
  831TIP3    H1 2457   1.754   1.351   4.809
  831TIP3    H2 2458   1.644   1.312   4.905
  832TIP3   OH2 2459   6.945   2.296   0.375
  832TIP3    H1 2460   6.966   2.226   0.437
  832TIP3    H2 2461   6.912   2.367   0.429
  833TIP3   OH2 2462  -0.006   6.252   1.929
  833TIP3    H1 2463   0.025   6.192   1.997
  833TIP3    H2 2464   0.011   6.339   1.965
  834TIP3   OH2 2465   6.883   5.087   3.249
  834TIP3    H1 2466   6.885   5.046   3.336
  834TIP3    H2 2467   6.884   5.013   3.188
  835TIP3   OH2 2468   3.391   2.507   4.601
  835TIP3    H1 2469   3.411   2.579   4.542
  835TIP3    H2 2470   3.330   2.545   4.665
  836TIP3   OH2 2471   1.851   6.573   3.302
  836TIP3    H1 2472   1.879   6.660   3.331
  836TIP3    H2 2473   1.831   6.585   3.209
  837TIP3   OH2 2474   3.752   6.742   0.329
  837TIP3    H1 2475   3.812   6.817   0.335
  837TIP3    H2 2476   3.689   6.756   0.399
  838TIP3   OH2 2477   2.991   5.044   0.356
  838TIP3    H1 2478   2.995   5.033   0.261
  838TIP3    H2 2479   2.910   5.093   0.371
  839TIP3   OH2 2480   6.438   1.460   5.631
  839TIP3    H1 2481   6.410   1.443   5.721
  839TIP3    H2 2482   6.374   1.413   5.577
  840TIP3   OH2 2483   0.639   0.579   2.846
  840TIP3    H1 2484   0.690   0.530   2.782
  840TIP3    H2 2485   0.548   0.559   2.825
  841TIP3   OH2 2486   2.330   1.269   2.510
  841TIP3    H1 2487   2.425   1.269   2.518
  841TIP3    H2 2488   2.305   1.178   2.528
  842TIP3   OH2 2489   5.242   0.564   1.099
  842TIP3    H1 2490   5.314   0.577   1.037
  842TIP3    H2 2491   5.163   0.575   1.046
  843TIP3   OH2 2492   6.815   1.513   0.645
  843TIP3    H1 2493   6.783   1.529   0.557
  843TIP3    H2 2494   6.906   1.542   0.644
  844TIP3   OH2 2495   2.000   1.712   2.095
  844TIP3    H1 2496   1.973   1.767   2.168
  844TIP3    H2 2497   1.947   1.741   2.021
  845TIP3   OH2 2498   2.174   6.141   4.663
  845TIP3    H1 2499   2.245   6.147   4.599
  845TIP3    H2 2500   2.095   6.132   4.610
  846TIP3   OH2 2501   2.095   6.686   4.736
  846TIP3    H1 2502   2.080   6.773   4.698
  846TIP3    H2 2503   2.188   6.684   4.755
  847TIP3   OH2 2504   3.454   3.681   3.143
  847TIP3    H1 2505   3.480   3.649   3.057
  847TIP3    H2 2506   3.509   3.758   3.157
  848TIP3   OH2 2507   4.846   1.497   3.320
  848TIP3    H1 2508   4.808   1.427   3.266
  848TIP3    H2 2509   4.940   1.486   3.310
  849TIP3   OH2 2510   3.828   3.439   4.720
  849TIP3    H1 2511   3.843   3.504   4.652
  849TIP3    H2 2512   3.800   3.490   4.796
  850TIP3   OH2 2513   0.211   2.583   1.261
  850TIP3    H1 2514   0.304   2.581   1.238
  850TIP3    H2 2515   0.179   2.495   1.238
  851TIP3   OH2 2516   5.661   1.110   4.900
  851TIP3    H1 2517   5.590   1.141   4.957
  851TIP3    H2 2518   5.637   1.140   4.813
  852TIP3   OH2 2519   0.853   5.723   5.226
  852TIP3    H1 2520   0.791   5.673   5.279
  852TIP3    H2 2521   0.816   5.811   5.222
  853TIP3   OH2 2522   5.917   2.782   0.278
  853TIP3    H1 2523   5.936   2.689   0.273
  853TIP3    H2 2524   5.875   2.802   0.194
  854TIP3   OH2 2525   5.419   6.636   2.477
  854TIP3    H1 2526   5.353   6.662   2.542
  854TIP3    H2 2527   5.433   6.543   2.494
  855TIP3   OH2 2528   1.172   5.643   5.492
  855TIP3    H1 2529   1.166   5.728   5.447
  855TIP3    H2 2530   1.192   5.666   5.583
  856TIP3   OH2 2531   6.993   5.023   3.894
  856TIP3    H1 2532   7.025   4.933   3.894
  856TIP3    H2 2533   6.972   5.042   3.803
  857TIP3   OH2 2534   5.369   0.624   5.689
  857TIP3    H1 2535   5.301   0.592   5.748
  857TIP3    H2 2536   5.368   0.719   5.700
  858TIP3   OH2 2537   4.901   3.636   4.905
  858TIP3    H1 2538   4.821   3.669   4.946
  858TIP3    H2 2539   4.874   3.554   4.863
  859TIP3   OH2 2540   2.980   4.020   0.841
  859TIP3    H1 2541   3.073   4.037   0.826
  859TIP3    H2 2542   2.971   4.019   0.936
  860TIP3   OH2 2543   0.809   1.996   4.584
  860TIP3    H1 2544   0.831   1.906   4.558
  860TIP3    H2 2545   0.864   2.051   4.529
  861TIP3   OH2 2546   1.747   5.854   1.548
  861TIP3    H1 2547   1.735   5.944   1.577
  861TIP3    H2 2548   1.838   5.833   1.571
  862TIP3   OH2 2549   7.016   5.581   5.810
  862TIP3    H1 2550   7.107   5.551   5.813
  862TIP3    H2 2551   6.966   5.503   5.784
  863TIP3   OH2 2552   5.497   0.485   3.045
  863TIP3    H1 2553   5.449   0.490   3.127
  863TIP3    H2 2554   5.508   0.576   3.018
  864TIP3   OH2 2555   2.924   3.793   5.541
  864TIP3    H1 2556   2.836   3.804   5.577
  864TIP3    H2 2557   2.943   3.875   5.497
  865TIP3   OH2 2558   3.785   2.798   3.422
  865TIP3    H1 2559   3.779   2.766   3.512
  865TIP3    H2 2560   3.805   2.891   3.430
  866TIP3   OH2 2561   1.499   3.821   0.859
  866TIP3    H1 2562   1.588   3.819   0.822
  866TIP3    H2 2563   1.496   3.902   0.910
  867TIP3   OH2 2564   3.698   4.666   0.849
  867TIP3    H1 2565   3.615   4.687   0.805
  867TIP3    H2 2566   3.763   4.720   0.804
  868TIP3   OH2 2567   3.213   1.274   3.002
  868TIP3    H1 2568   3.200   1.238   2.914
  868TIP3    H2 2569   3.237   1.365   2.987
  869TIP3   OH2 2570   6.484   5.861   2.370
  869TIP3    H1 2571   6.563   5.865   2.423
  869TIP3    H2 2572   6.433   5.790   2.410
  870TIP3   OH2 2573   4.997   2.450   1.344
  870TIP3    H1 2574   5.066   2.390   1.370
  870TIP3    H2 2575   4.924   2.428   1.402
  871TIP3   OH2 2576   0.432   2.026   1.845
  871TIP3    H1 2577   0.436   1.941   1.889
  871TIP3    H2 2578   0.473   2.086   1.906
  872TIP3   OH2 2579   1.492   3.414   3.010
  872TIP3    H1 2580   1.544   3.490   3.038
  872TIP3    H2 2581   1.555   3.342   3.008
  873TIP3   OH2 2582   4.556   3.608   5.877
  873TIP3    H1 2583   4.465   3.595   5.902
  873TIP3    H2 2584   4.568   3.552   5.800
  874TIP3   OH2 2585   2.124   3.524   4.367
  874TIP3    H1 2586   2.034   3.541   4.338
  874TIP3    H2 2587   2.170   3.495   4.289
  875TIP3   OH2 2588   6.269   4.719   4.448
  875TIP3    H1 2589   6.338   4.725   4.514
  875TIP3    H2 2590   6.301   4.655   4.385
  876TIP3   OH2 2591   2.031   2.607   1.340
  876TIP3    H1 2592   1.998   2.647   1.259
  876TIP3    H2 2593   1.968   2.537   1.358
  877TIP3   OH2 2594   3.669   4.306   1.380
  877TIP3    H1 2595   3.577   4.314   1.407
  877TIP3    H2 2596   3.677   4.217   1.347
  878TIP3   OH2 2597   5.512   5.676   2.704
  878TIP3    H1 2598   5.450   5.705   2.771
  878TIP3    H2 2599   5.543   5.757   2.664
  879TIP3   OH2 2600   5.194   2.912   2.540
  879TIP3    H1 2601   5.215   2.971   2.612
  879TIP3    H2 2602   5.272   2.858   2.529
  880TIP3   OH2 2603   0.576   1.350   4.405
  880TIP3    H1 2604   0.558   1.263   4.440
  880TIP3    H2 2605   0.657   1.340   4.354
  881TIP3   OH2 2606   2.202   1.936   4.115
  881TIP3    H1 2607   2.254   1.959   4.192
  881TIP3    H2 2608   2.114   1.918   4.150
  882TIP3   OH2 2609   2.541   3.017   0.159
  882TIP3    H1 2610   2.610   3.081   0.177
  882TIP3    H2 2611   2.526   3.023   0.065
  883TIP3   OH2 2612   2.922   1.659   1.267
  883TIP3    H1 2613   2.874   1.592   1.218
  883TIP3    H2 2614   2.864   1.735   1.266
  884TIP3   OH2 2615   3.889   4.177   5.403
  884TIP3    H1 2616   3.806   4.136   5.377
  884TIP3    H2 2617   3.894   4.257   5.350
  885TIP3   OH2 2618   2.261   5.847   2.034
  885TIP3    H1 2619   2.234   5.801   2.114
  885TIP3    H2 2620   2.310   5.782   1.984
  886TIP3   OH2 2621   5.545   5.321   0.188
  886TIP3    H1 2622   5.586   5.308   0.274
  886TIP3    H2 2623   5.560   5.238   0.142
  887TIP3   OH2 2624   6.527   0.198   2.000
  887TIP3    H1 2625   6.472   0.121   2.013
  887TIP3    H2 2626   6.465   0.268   1.978
  888TIP3   OH2 2627   4.223   3.870   1.033
  888TIP3    H1 2628   4.199   3.940   1.094
  888TIP3    H2 2629   4.278   3.912   0.967
  889TIP3   OH2 2630   0.485   4.397   0.190
  889TIP3    H1 2631   0.565   4.356   0.159
  889TIP3    H2 2632   0.471   4.359   0.277
  890TIP3   OH2 2633   0.698   3.096   0.897
  890TIP3    H1 2634   0.667   3.118   0.809
  890TIP3    H2 2635   0.786   3.061   0.884
  891TIP3   OH2 2636   0.697   6.615   0.801
  891TIP3    H1 2637   0.774   6.577   0.844
  891TIP3    H2 2638   0.708   6.710   0.812
  892TIP3   OH2 2639   5.659   1.412   4.554
  892TIP3    H1 2640   5.584   1.450   4.507
  892TIP3    H2 2641   5.735   1.456   4.515
  893TIP3   OH2 2642   1.733   3.182   3.371
  893TIP3    H1 2643   1.714   3.129   3.294
  893TIP3    H2 2644   1.723   3.273   3.341
  894TIP3   OH2 2645   0.233   3.090   5.396
  894TIP3    H1 2646   0.180   3.140   5.458
  894TIP3    H2 2647   0.274   3.022   5.450
  895TIP3   OH2 2648   0.098   3.151   1.530
  895TIP3    H1 2649   0.029   3.172   1.468
  895TIP3    H2 2650   0.075   3.063   1.562
  896TIP3   OH2 2651   6.681   2.948   3.367
  896TIP3    H1 2652   6.672   2.878   3.431
  896TIP3    H2 2653   6.680   3.028   3.419
  897TIP3   OH2 2654   7.031   6.608   4.032
  897TIP3    H1 2655   6.961   6.615   3.966
  897TIP3    H2 2656   7.006   6.534   4.086
  898TIP3   OH2 2657   5.353   5.278   4.221
  898TIP3    H1 2658   5.284   5.341   4.240
  898TIP3    H2 2659   5.386   5.304   4.135
  899TIP3   OH2 2660   3.192   2.848   0.808
  899TIP3    H1 2661   3.259   2.901   0.850
  899TIP3    H2 2662   3.240   2.790   0.749
  900TIP3   OH2 2663   5.339   2.383   2.941
  900TIP3    H1 2664   5.261   2.413   2.896
  900TIP3    H2 2665   5.392   2.342   2.873
  901TIP3   OH2 2666   2.141   1.740   5.672
  901TIP3    H1 2667   2.165   1.776   5.587
  901TIP3    H2 2668   2.220   1.696   5.703
  902TIP3   OH2 2669   1.643   2.360   1.687
  902TIP3    H1 2670   1.635   2.403   1.773
  902TIP3    H2 2671   1.654   2.433   1.626
  903TIP3   OH2 2672   6.154   5.078   1.622
  903TIP3    H1 2673   6.135   5.172   1.630
  903TIP3    H2 2674   6.198   5.056   1.704
  904TIP3   OH2 2675   3.791   1.017   4.891
  904TIP3    H1 2676   3.798   1.105   4.930
  904TIP3    H2 2677   3.877   0.978   4.905
  905TIP3   OH2 2678   1.060   5.635   4.126
  905TIP3    H1 2679   1.077   5.701   4.058
  905TIP3    H2 2680   1.000   5.573   4.085
  906TIP3   OH2 2681   2.622   5.884   3.687
  906TIP3    H1 2682   2.583   5.905   3.602
  906TIP3    H2 2683   2.645   5.791   3.680
  907TIP3   OH2 2684   1.865   6.325   3.823
  907TIP3    H1 2685   1.860   6.287   3.911
  907TIP3    H2 2686   1.954   6.306   3.794
  908TIP3   OH2 2687   2.809   4.637   2.225
  908TIP3    H1 2688   2.892   4.679   2.244
  908TIP3    H2 2689   2.832   4.560   2.172
  909TIP3   OH2 2690   0.922   3.267   1.313
  909TIP3    H1 2691   0.866   3.275   1.235
  909TIP3    H2 2692   0.925   3.173   1.331
  910TIP3   OH2 2693   3.380   0.498   1.579
  910TIP3    H1 2694   3.384   0.420   1.634
  910TIP3    H2 2695   3.407   0.570   1.636
  911TIP3   OH2 2696   6.116   4.505   5.138
  911TIP3    H1 2697   6.138   4.594   5.166
  911TIP3    H2 2698   6.180   4.485   5.069
  912TIP3   OH2 2699   0.185   1.077   3.677
  912TIP3    H1 2700   0.243   1.153   3.686
  912TIP3    H2 2701   0.143   1.069   3.762
  913TIP3   OH2 2702   4.781   0.799   0.901
  913TIP3    H1 2703   4.825   0.868   0.950
  913TIP3    H2 2704   4.823   0.799   0.816
  914TIP3   OH2 2705   3.933   6.159   4.460
  914TIP3    H1 2706   3.885   6.240   4.478
  914TIP3    H2 2707   3.964   6.130   4.546
  915TIP3   OH2 2708   3.316   4.654   4.931
  915TIP3    H1 2709   3.298   4.624   4.842
  915TIP3    H2 2710   3.300   4.748   4.927
  916TIP3   OH2 2711   0.509   1.525   4.598
  916TIP3    H1 2712   0.531   1.465   4.527
  916TIP3    H2 2713   0.420   1.554   4.578
  917TIP3   OH2 2714   2.120   2.431   5.744
  917TIP3    H1 2715   2.136   2.464   5.833
  917TIP3    H2 2716   2.207   2.413   5.709
  918TIP3   OH2 2717   4.549   2.130   2.524
  918TIP3    H1 2718   4.562   2.159   2.434
  918TIP3    H2 2719   4.496   2.199   2.564
  919TIP3   OH2 2720   0.773   0.786   4.277
  919TIP3    H1 2721   0.819   0.706   4.303
  919TIP3    H2 2722   0.821   0.856   4.320
  920TIP3   OH2 2723   2.316   1.006   2.600
  920TIP3    H1 2724   2.400   0.969   2.573
  920TIP3    H2 2725   2.324   1.018   2.694
  921TIP3   OH2 2726   1.858   0.171   3.162
  921TIP3    H1 2727   1.908   0.123   3.096
  921TIP3    H2 2728   1.869   0.263   3.138
  922TIP3   OH2 2729   6.906   3.650   2.494
  922TIP3    H1 2730   6.932   3.736   2.528
  922TIP3    H2 2731   6.919   3.658   2.399
  923TIP3   OH2 2732   0.759   2.324   1.751
  923TIP3    H1 2733   0.687   2.386   1.737
  923TIP3    H2 2734   0.776   2.328   1.845
  924TIP3   OH2 2735   6.319   0.344   0.765
  924TIP3    H1 2736   6.271   0.320   0.686
  924TIP3    H2 2737   6.285   0.285   0.833
  925TIP3   OH2 2738   1.300   6.673   3.644
  925TIP3    H1 2739   1.347   6.757   3.643
  925TIP3    H2 2740   1.366   6.609   3.668
  926TIP3   OH2 2741   6.529   1.548   0.676
  926TIP3    H1 2742   6.624   1.555   0.690
  926TIP3    H2 2743   6.512   1.599   0.597
  927TIP3   OH2 2744   0.745   4.235   4.261
  927TIP3    H1 2745   0.822   4.187   4.234
  927TIP3    H2 2746   0.698   4.255   4.180
  928TIP3   OH2 2747   2.386   4.779   4.852
  928TIP3    H1 2748   2.314   4.781   4.788
  928TIP3    H2 2749   2.368   4.854   4.909
  929TIP3   OH2 2750   3.043   6.473   0.359
  929TIP3    H1 2751   3.105   6.400   0.362
  929TIP3    H2 2752   3.089   6.546   0.401
  930TIP3   OH2 2753   3.597   4.990   1.007
  930TIP3    H1 2754   3.679   5.009   0.962
  930TIP3    H2 2755   3.624   4.945   1.088
  931TIP3   OH2 2756   3.375   1.172   1.480
  931TIP3    H1 2757   3.389   1.158   1.387
  931TIP3    H2 2758   3.285   1.144   1.495
  932TIP3   OH2 2759   3.875   0.011   3.039
  932TIP3    H1 2760   3.844   0.043   2.954
  932TIP3    H2 2761   3.795  -0.007   3.088
  933TIP3   OH2 2762   2.360   1.592   4.154
  933TIP3    H1 2763   2.328   1.580   4.244
  933TIP3    H2 2764   2.409   1.512   4.135
  934TIP3   OH2 2765   3.701   6.618   2.299
  934TIP3    H1 2766   3.679   6.541   2.352
  934TIP3    H2 2767   3.674   6.596   2.210
  935TIP3   OH2 2768   3.012   1.114   0.309
  935TIP3    H1 2769   2.939   1.053   0.321
  935TIP3    H2 2770   2.985   1.194   0.352
  936TIP3   OH2 2771   3.151   4.732   3.841
  936TIP3    H1 2772   3.209   4.751   3.766
  936TIP3    H2 2773   3.208   4.741   3.917
  937TIP3   OH2 2774   6.742   1.568   0.070
  937TIP3    H1 2775   6.804   1.499   0.046
  937TIP3    H2 2776   6.776   1.647   0.028
  938TIP3   OH2 2777   0.185   1.380   3.095
  938TIP3    H1 2778   0.093   1.407   3.090
  938TIP3    H2 2779   0.192   1.308   3.032
  939TIP3   OH2 2780   6.188   2.679  -0.010
  939TIP3    H1 2781   6.175   2.691   0.084
  939TIP3    H2 2782   6.130   2.606  -0.033
  940TIP3   OH2 2783   6.616   5.851   3.800
  940TIP3    H1 2784   6.677   5.813   3.863
  940TIP3    H2 2785   6.671   5.877   3.726
  941TIP3   OH2 2786   0.713   5.961   5.463
  941TIP3    H1 2787   0.787   5.978   5.521
  941TIP3    H2 2788   0.708   5.866   5.456
  942TIP3   OH2 2789   1.785   3.714   3.581
  942TIP3    H1 2790   1.735   3.777   3.529
  942TIP3    H2 2791   1.753   3.726   3.671
  943TIP3   OH2 2792   4.867   6.375   0.640
  943TIP3    H1 2793   4.775   6.353   0.628
  943TIP3    H2 2794   4.902   6.382   0.551
  944TIP3   OH2 2795   2.518   0.565   4.107
  944TIP3    H1 2796   2.567   0.560   4.190
  944TIP3    H2 2797   2.435   0.604   4.131
  945TIP3   OH2 2798   0.378   3.402   2.859
  945TIP3    H1 2799   0.413   3.479   2.813
  945TIP3    H2 2800   0.302   3.435   2.906
  946TIP3   OH2 2801   6.512   2.297   5.159
  946TIP3    H1 2802   6.455   2.346   5.100
  946TIP3    H2 2803   6.494   2.205   5.138
  947TIP3   OH2 2804   6.152   5.102   2.576
  947TIP3    H1 2805   6.136   5.088   2.670
  947TIP3    H2 2806   6.108   5.028   2.534
  948TIP3   OH2 2807   6.333   0.446   1.956
  948TIP3    H1 2808   6.308   0.474   2.044
  948TIP3    H2 2809   6.409   0.501   1.934
  949TIP3   OH2 2810   3.595   3.587   5.845
  949TIP3    H1 2811   3.567   3.632   5.765
  949TIP3    H2 2812   3.542   3.507   5.847
  950TIP3   OH2 2813   6.610   6.194   5.712
  950TIP3    H1 2814   6.669   6.203   5.787
  950TIP3    H2 2815   6.597   6.284   5.681
  951TIP3   OH2 2816   5.108   1.368   2.534
  951TIP3    H1 2817   5.153   1.431   2.589
  951TIP3    H2 2818   5.176   1.306   2.508
  952TIP3   OH2 2819   1.429   5.207   0.699
  952TIP3    H1 2820   1.342   5.167   0.697
  952TIP3    H2 2821   1.430   5.261   0.778
  953TIP3   OH2 2822   5.719   2.112   2.379
  953TIP3    H1 2823   5.730   2.182   2.442
  953TIP3    H2 2824   5.634   2.074   2.401
  954TIP3   OH2 2825   3.137   1.641   2.969
  954TIP3    H1 2826   3.227   1.671   2.974
  954TIP3    H2 2827   3.085   1.715   3.001
  955TIP3   OH2 2828   4.427   0.373   4.523
  955TIP3    H1 2829   4.373   0.434   4.473
  955TIP3    H2 2830   4.513   0.377   4.481
  956TIP3   OH2 2831   4.776   4.942   3.221
  956TIP3    H1 2832   4.753   5.016   3.277
  956TIP3    H2 2833   4.853   4.971   3.172
  957TIP3   OH2 2834   6.617   4.390   0.907
  957TIP3    H1 2835   6.693   4.430   0.950
  957TIP3    H2 2836   6.541   4.428   0.952
  958TIP3   OH2 2837   1.511   5.229   2.854
  958TIP3    H1 2838   1.574   5.283   2.903
  958TIP3    H2 2839   1.430   5.279   2.857
  959TIP3   OH2 2840   0.345   5.816   2.117
  959TIP3    H1 2841   0.357   5.739   2.173
  959TIP3    H2 2842   0.369   5.785   2.029
  960TIP3   OH2 2843   0.737   0.770   2.520
  960TIP3    H1 2844   0.686   0.734   2.447
  960TIP3    H2 2845   0.781   0.695   2.559
  961TIP3   OH2 2846   2.595   2.426   1.815
  961TIP3    H1 2847   2.507   2.410   1.780
  961TIP3    H2 2848   2.614   2.516   1.791
  962TIP3   OH2 2849   3.205   5.670   5.339
  962TIP3    H1 2850   3.154   5.714   5.270
  962TIP3    H2 2851   3.208   5.578   5.311
  963TIP3   OH2 2852   0.460   0.836   0.721
  963TIP3    H1 2853   0.549   0.842   0.686
  963TIP3    H2 2854   0.460   0.895   0.797
  964TIP3   OH2 2855   0.519   3.306   5.017
  964TIP3    H1 2856   0.532   3.324   5.110
  964TIP3    H2 2857   0.604   3.276   4.986
  965TIP3   OH2 2858   4.686   1.320   5.195
  965TIP3    H1 2859   4.619   1.270   5.149
  965TIP3    H2 2860   4.751   1.255   5.221
  966TIP3   OH2 2861   0.960   6.006   2.515
  966TIP3    H1 2862   0.897   6.058   2.565
  966TIP3    H2 2863   1.031   5.988   2.577
  967TIP3   OH2 2864   5.120   2.223   3.775
  967TIP3    H1 2865   5.104   2.317   3.785
  967TIP3    H2 2866   5.212   2.212   3.799
  968TIP3   OH2 2867   5.445   5.403   1.130
  968TIP3    H1 2868   5.378   5.461   1.092
  968TIP3    H2 2869   5.486   5.362   1.054
  969TIP3   OH2 2870   0.831   0.146   4.803
  969TIP3    H1 2871   0.893   0.073   4.805
  969TIP3    H2 2872   0.819   0.170   4.894
  970TIP3   OH2 2873   5.789   0.505   3.017
  970TIP3    H1 2874   5.699   0.473   3.007
  970TIP3    H2 2875   5.839   0.428   3.044
  971TIP3   OH2 2876   4.941   2.589   1.103
  971TIP3    H1 2877   4.955   2.545   1.187
  971TIP3    H2 2878   4.929   2.518   1.040
  972TIP3   OH2 2879   0.351   3.245   1.179
  972TIP3    H1 2880   0.415   3.173   1.181
  972TIP3    H2 2881   0.272   3.205   1.144
  973TIP3   OH2 2882   3.851   5.538   0.420
  973TIP3    H1 2883   3.847   5.539   0.516
  973TIP3    H2 2884   3.873   5.628   0.397
  974TIP3   OH2 2885   5.933   4.094   3.529
  974TIP3    H1 2886   5.918   4.001   3.512
  974TIP3    H2 2887   6.000   4.095   3.598
  975TIP3   OH2 2888   5.931   4.584   2.783
  975TIP3    H1 2889   5.983   4.625   2.852
  975TIP3    H2 2890   5.894   4.657   2.734
  976TIP3   OH2 2891   2.109   0.197   4.524
  976TIP3    H1 2892   2.083   0.280   4.485
  976TIP3    H2 2893   2.155   0.151   4.453
  977TIP3   OH2 2894   5.156   6.412   2.675
  977TIP3    H1 2895   5.073   6.399   2.721
  977TIP3    H2 2896   5.167   6.507   2.670
  978TIP3   OH2 2897   4.293   0.606   3.057
  978TIP3    H1 2898   4.274   0.533   2.998
  978TIP3    H2 2899   4.377   0.641   3.025
  979TIP3   OH2 2900   0.365   2.827   3.398
  979TIP3    H1 2901   0.371   2.840   3.304
  979TIP3    H2 2902   0.409   2.904   3.436
  980TIP3   OH2 2903   2.493   4.372   3.178
  980TIP3    H1 2904   2.525   4.461   3.192
  980TIP3    H2 2905   2.477   4.338   3.266
  981TIP3   OH2 2906   6.028   0.882   4.757
  981TIP3    H1 2907   6.008   0.789   4.745
  981TIP3    H2 2908   6.101   0.883   4.819
  982TIP3   OH2 2909   6.904   5.310   5.506
  982TIP3    H1 2910   6.810   5.325   5.497
  982TIP3    H2 2911   6.929   5.264   5.426
  983TIP3   OH2 2912   0.355   5.368   0.743
  983TIP3    H1 2913   0.284   5.305   0.749
  983TIP3    H2 2914   0.321   5.447   0.787
  984TIP3   OH2 2915   0.717   3.102   4.398
  984TIP3    H1 2916   0.646   3.140   4.346
  984TIP3    H2 2917   0.724   3.159   4.474
  985TIP3   OH2 2918   4.360   2.890   1.227
  985TIP3    H1 2919   4.365   2.972   1.179
  985TIP3    H2 2920   4.373   2.915   1.318
  986TIP3   OH2 2921   2.770   2.061   4.876
  986TIP3    H1 2922   2.800   1.971   4.889
  986TIP3    H2 2923   2.739   2.063   4.785
  987TIP3   OH2 2924   1.360   6.241   5.493
  987TIP3    H1 2925   1.283   6.288   5.460
  987TIP3    H2 2926   1.324   6.170   5.547
  988TIP3   OH2 2927   5.009   3.495   0.096
  988TIP3    H1 2928   5.067   3.464   0.026
  988TIP3    H2 2929   5.065   3.503   0.173
  989TIP3   OH2 2930   4.051   6.109   3.984
  989TIP3    H1 2931   4.073   6.060   3.905
  989TIP3    H2 2932   4.080   6.052   4.056
  990TIP3   OH2 2933   1.852   5.461   5.699
  990TIP3    H1 2934   1.783   5.468   5.766
  990TIP3    H2 2935   1.893   5.376   5.716
  991TIP3   OH2 2936   3.277   5.610   4.352
  991TIP3    H1 2937   3.371   5.610   4.370
  991TIP3    H2 2938   3.237   5.623   4.438
  992TIP3   OH2 2939   4.487   1.306   5.670
  992TIP3    H1 2940   4.540   1.356   5.732
  992TIP3    H2 2941   4.420   1.368   5.641
  993TIP3   OH2 2942   2.371   6.755   0.127
  993TIP3    H1 2943   2.331   6.686   0.179
  993TIP3    H2 2944   2.345   6.836   0.171
  994TIP3   OH2 2945   4.961   2.271   2.655
  994TIP3    H1 2946   5.007   2.319   2.586
  994TIP3    H2 2947   4.909   2.206   2.608
  995TIP3   OH2 2948   7.023   4.800   5.812
  995TIP3    H1 2949   6.945   4.817   5.759
  995TIP3    H2 2950   7.028   4.705   5.819
  996TIP3   OH2 2951   1.066   2.073   4.868
  996TIP3    H1 2952   1.010   2.022   4.927
  996TIP3    H2 2953   1.017   2.153   4.852
  997TIP3   OH2 2954   1.389   5.027   3.870
  997TIP3    H1 2955   1.464   4.997   3.819
  997TIP3    H2 2956   1.398   5.122   3.871
  998TIP3   OH2 2957   4.865   3.909   4.740
  998TIP3    H1 2958   4.931   3.917   4.809
  998TIP3    H2 2959   4.915   3.893   4.660
  999TIP3   OH2 2960   2.890   3.800   2.810
  999TIP3    H1 2961   2.979   3.835   2.812
  999TIP3    H2 2962   2.836   3.870   2.846
 1000TIP3   OH2 2963   6.606   2.530   3.406
 1000TIP3    H1 2964   6.614   2.572   3.492
 1000TIP3    H2 2965   6.516   2.499   3.403
 1001TIP3   OH2 2966   1.508   0.482   2.326
 1001TIP3    H1 2967   1.601   0.460   2.318
 1001TIP3    H2 2968   1.482   0.508   2.238
 1002TIP3   OH2 2969   4.694   5.718   4.467
 1002TIP3    H1 2970   4.746   5.783   4.420
 1002TIP3    H2 2971   4.671   5.652   4.400
 1003TIP3   OH2 2972   3.212   2.172   0.937
 1003TIP3    H1 2973   3.135   2.215   0.975
 1003TIP3    H2 2974   3.286   2.214   0.979
 1004TIP3   OH2 2975   3.146   4.569   4.418
 1004TIP3    H1 2976   3.191   4.653   4.419
 1004TIP3    H2 2977   3.160   4.535   4.329
 1005TIP3   OH2 2978   5.413   6.277   0.441
 1005TIP3    H1 2979   5.332   6.325   0.426
 1005TIP3    H2 2980   5.481   6.333   0.404
 1006TIP3   OH2 2981   3.202   5.008   0.539
 1006TIP3    H1 2982   3.126   5.017   0.482
 1006TIP3    H2 2983   3.190   4.924   0.583
 1007TIP3   OH2 2984   1.802   1.134   2.381
 1007TIP3    H1 2985   1.779   1.084   2.303
 1007TIP3    H2 2986   1.756   1.091   2.453
 1008TIP3   OH2 2987   3.925   5.577   2.020
 1008TIP3    H1 2988   3.923   5.619   2.107
 1008TIP3    H2 2989   3.835   5.545   2.008
 1009TIP3   OH2 2990   4.498   6.470   5.118
 1009TIP3    H1 2991   4.522   6.464   5.211
 1009TIP3    H2 2992   4.403   6.476   5.118
 1010TIP3   OH2 2993   1.179   0.619   2.863
 1010TIP3    H1 2994   1.138   0.568   2.793
 1010TIP3    H2 2995   1.250   0.666   2.820
 1011TIP3   OH2 2996   0.462   4.179   3.996
 1011TIP3    H1 2997   0.542   4.140   3.962
 1011TIP3    H2 2998   0.391   4.141   3.943
 1012TIP3   OH2 2999   4.632   2.632   5.543
 1012TIP3    H1 3000   4.683   2.556   5.570
 1012TIP3    H2 3001   4.551   2.626   5.593
 1013TIP3   OH2 3002   4.247   0.624   1.038
 1013TIP3    H1 3003   4.209   0.706   1.069
 1013TIP3    H2 3004   4.331   0.649   1.000
 1014TIP3   OH2 3005   6.974   2.008   3.522
 1014TIP3    H1 3006   6.906   1.943   3.537
 1014TIP3    H2 3007   7.045   1.959   3.480
 1015TIP3   OH2 3008   5.387   2.619   1.416
 1015TIP3    H1 3009   5.341   2.537   1.427
 1015TIP3    H2 3010   5.369   2.645   1.326
 1016TIP3   OH2 3011   4.479   2.165   0.554
 1016TIP3    H1 3012   4.516   2.125   0.475
 1016TIP3    H2 3013   4.423   2.235   0.522
 1017TIP3   OH2 3014   6.436   2.481   1.302
 1017TIP3    H1 3015   6.530   2.485   1.284
 1017TIP3    H2 3016   6.415   2.566   1.340
 1018TIP3   OH2 3017   7.157   5.019   5.311
 1018TIP3    H1 3018   7.080   4.967   5.333
 1018TIP3    H2 3019   7.123   5.097   5.267
 1019TIP3   OH2 3020   4.732   2.814   2.393
 1019TIP3    H1 3021   4.824   2.838   2.380
 1019TIP3    H2 3022   4.682   2.890   2.362
 1020TIP3   OH2 3023   1.315   5.213   1.370
 1020TIP3    H1 3024   1.256   5.263   1.313
 1020TIP3    H2 3025   1.317   5.261   1.452
 1021TIP3   OH2 3026   4.378   4.638   2.519
 1021TIP3    H1 3027   4.395   4.544   2.519
 1021TIP3    H2 3028   4.283   4.646   2.525
 1022TIP3   OH2 3029   0.906   0.027   5.066
 1022TIP3    H1 3030   0.888   0.120   5.078
 1022TIP3    H2 3031   0.820  -0.013   5.051
 1023TIP3   OH2 3032   3.653   6.426   1.557
 1023TIP3    H1 3033   3.595   6.359   1.592
 1023TIP3    H2 3034   3.684   6.473   1.634
 1024TIP3   OH2 3035   3.862   4.373   1.565
 1024TIP3    H1 3036   3.948   4.388   1.527
 1024TIP3    H2 3037   3.804   4.363   1.490
 1025TIP3   OH2 3038   2.234   1.396   0.877
 1025TIP3    H1 3039   2.196   1.308   0.882
 1025TIP3    H2 3040   2.264   1.404   0.786
 1026TIP3   OH2 3041   3.218   4.015   1.017
 1026TIP3    H1 3042   3.254   3.928   1.035
 1026TIP3    H2 3043   3.201   4.052   1.103
 1027TIP3   OH2 3044   3.795   1.168   2.771
 1027TIP3    H1 3045   3.786   1.111   2.848
 1027TIP3    H2 3046   3.716   1.222   2.774
 1028TIP3   OH2 3047   6.582   4.860   0.532
 1028TIP3    H1 3048   6.616   4.788   0.479
 1028TIP3    H2 3049   6.569   4.821   0.619
 1029TIP3   OH2 3050   2.572   5.444   0.552
 1029TIP3    H1 3051   2.486   5.482   0.533
 1029TIP3    H2 3052   2.628   5.475   0.481
 1030TIP3   OH2 3053  -0.018   2.553   1.480
 1030TIP3    H1 3054   0.051   2.572   1.415
 1030TIP3    H2 3055   0.022   2.489   1.538
 1031TIP3   OH2 3056   1.482   0.797   2.207
 1031TIP3    H1 3057   1.425   0.743   2.152
 1031TIP3    H2 3058   1.439   0.882   2.210
 1032TIP3   OH2 3059   1.902   4.466   1.864
 1032TIP3    H1 3060   1.821   4.434   1.903
 1032TIP3    H2 3061   1.970   4.409   1.902
 1033TIP3   OH2 3062   3.607   0.535   4.845
 1033TIP3    H1 3063   3.519   0.513   4.875
 1033TIP3    H2 3064   3.614   0.493   4.759
 1034TIP3   OH2 3065   4.860   2.274   2.921
 1034TIP3    H1 3066   4.770   2.245   2.905
 1034TIP3    H2 3067   4.908   2.246   2.843
 1035TIP3   OH2 3068   4.176   0.705   4.984
 1035TIP3    H1 3069   4.263   0.671   5.005
 1035TIP3    H2 3070   4.119   0.629   4.989
 1036TIP3   OH2 3071   5.711   6.618   1.932
 1036TIP3    H1 3072   5.738   6.604   2.023
 1036TIP3    H2 3073   5.793   6.633   1.885
 1037TIP3   OH2 3074   5.431   5.636   4.236
 1037TIP3    H1 3075   5.436   5.562   4.297
 1037TIP3    H2 3076   5.337   5.653   4.227
 1038TIP3   OH2 3077   2.613   5.422   0.265
 1038TIP3    H1 3078   2.696   5.416   0.218
 1038TIP3    H2 3079   2.549   5.447   0.198
 1039TIP3   OH2 3080   4.002   3.260   2.969
 1039TIP3    H1 3081   4.060   3.335   2.979
 1039TIP3    H2 3082   3.917   3.299   2.945
 1040TIP3   OH2 3083   0.077   4.833   3.990
 1040TIP3    H1 3084   0.029   4.812   4.070
 1040TIP3    H2 3085   0.096   4.926   3.997
 1041TIP3   OH2 3086   5.154   4.196   0.710
 1041TIP3    H1 3087   5.190   4.178   0.623
 1041TIP3    H2 3088   5.105   4.117   0.733
 1042TIP3   OH2 3089   1.781   4.746   0.805
 1042TIP3    H1 3090   1.704   4.753   0.862
 1042TIP3    H2 3091   1.793   4.834   0.770
 1043TIP3   OH2 3092   6.718   6.763   3.367
 1043TIP3    H1 3093   6.645   6.811   3.405
 1043TIP3    H2 3094   6.733   6.804   3.282
 1044TIP3   OH2 3095   4.518   3.891   4.849
 1044TIP3    H1 3096   4.445   3.861   4.794
 1044TIP3    H2 3097   4.500   3.984   4.863
 1045TIP3   OH2 3098   2.369   6.030   3.833
 1045TIP3    H1 3099   2.408   6.108   3.872
 1045TIP3    H2 3100   2.443   5.986   3.790
 1046TIP3   OH2 3101   1.165   1.121   2.796
 1046TIP3    H1 3102   1.187   1.065   2.721
 1046TIP3    H2 3103   1.218   1.200   2.784
 1047TIP3   OH2 3104   4.441   3.151   2.877
 1047TIP3    H1 3105   4.501   3.092   2.831
 1047TIP3    H2 3106   4.434   3.114   2.965
 1048TIP3   OH2 3107   3.604   0.383   3.713
 1048TIP3    H1 3108   3.563   0.460   3.752
 1048TIP3    H2 3109   3.694   0.409   3.697
 1049TIP3   OH2 3110   6.310   6.032   2.038
 1049TIP3    H1 3111   6.359   5.966   1.990
 1049TIP3    H2 3112   6.269   6.086   1.970
 1050TIP3   OH2 3113   1.817   1.983   2.947
 1050TIP3    H1 3114   1.797   1.928   3.022
 1050TIP3    H2 3115   1.759   1.950   2.877
 1051TIP3   OH2 3116   0.336   2.917   5.592
 1051TIP3    H1 3117   0.320   2.987   5.656
 1051TIP3    H2 3118   0.368   2.843   5.644
 1052TIP3   OH2 3119   0.348   2.565   4.073
 1052TIP3    H1 3120   0.258   2.594   4.089
 1052TIP3    H2 3121   0.352   2.554   3.978
 1053TIP3   OH2 3122   0.334   5.109   0.219
 1053TIP3    H1 3123   0.324   5.057   0.139
 1053TIP3    H2 3124   0.377   5.050   0.281
 1054TIP3   OH2 3125   5.600   6.164   4.085
 1054TIP3    H1 3126   5.510   6.151   4.115
 1054TIP3    H2 3127   5.628   6.246   4.126
 1055TIP3   OH2 3128   2.184   3.216   3.727
 1055TIP3    H1 3129   2.178   3.135   3.677
 1055TIP3    H2 3130   2.121   3.275   3.686
 1056TIP3   OH2 3131   0.192   3.432   3.164
 1056TIP3    H1 3132   0.121   3.462   3.221
 1056TIP3    H2 3133   0.157   3.441   3.075
 1057TIP3   OH2 3134   0.969   0.455   4.899
 1057TIP3    H1 3135   0.887   0.497   4.876
 1057TIP3    H2 3136   1.021   0.458   4.818
 1058TIP3   OH2 3137   0.715   5.261   1.984
 1058TIP3    H1 3138   0.714   5.220   1.897
 1058TIP3    H2 3139   0.786   5.324   1.980
 1059TIP3   OH2 3140   3.634   4.284   5.729
 1059TIP3    H1 3141   3.622   4.193   5.755
 1059TIP3    H2 3142   3.667   4.328   5.808
 1060TIP3   OH2 3143   2.096   4.417   0.165
 1060TIP3    H1 3144   2.112   4.325   0.184
 1060TIP3    H2 3145   2.004   4.421   0.139
 1061TIP3   OH2 3146   5.132   3.068   1.093
 1061TIP3    H1 3147   5.062   3.104   1.147
 1061TIP3    H2 3148   5.099   2.983   1.063
 1062TIP3   OH2 3149   2.477   0.507   3.732
 1062TIP3    H1 3150   2.551   0.501   3.671
 1062TIP3    H2 3151   2.489   0.433   3.791
 1063TIP3   OH2 3152   5.954   1.771   2.665
 1063TIP3    H1 3153   5.967   1.860   2.633
 1063TIP3    H2 3154   5.880   1.738   2.614
 1064TIP3   OH2 3155   1.230   6.004   0.393
 1064TIP3    H1 3156   1.294   5.989   0.323
 1064TIP3    H2 3157   1.229   5.922   0.443
 1065TIP3   OH2 3158   4.182   0.257   3.482
 1065TIP3    H1 3159   4.127   0.325   3.519
 1065TIP3    H2 3160   4.272   0.290   3.491
 1066TIP3   OH2 3161   0.643   5.338   3.948
 1066TIP3    H1 3162   0.660   5.346   4.042
 1066TIP3    H2 3163   0.680   5.253   3.924
 1067TIP3   OH2 3164   0.696   1.158   4.858
 1067TIP3    H1 3165   0.721   1.101   4.931
 1067TIP3    H2 3166   0.600   1.156   4.858
 1068TIP3   OH2 3167   7.179   0.377   2.561
 1068TIP3    H1 3168   7.192   0.345   2.650
 1068TIP3    H2 3169   7.084   0.382   2.551
 1069TIP3   OH2 3170   7.101   5.135   1.923
 1069TIP3    H1 3171   7.154   5.114   2.000
 1069TIP3    H2 3172   7.158   5.187   1.868
 1070TIP3   OH2 3173   1.787   6.197   5.597
 1070TIP3    H1 3174   1.748   6.142   5.665
 1070TIP3    H2 3175   1.722   6.266   5.582
 1071TIP3   OH2 3176   4.226   4.485   3.927
 1071TIP3    H1 3177   4.316   4.456   3.917
 1071TIP3    H2 3178   4.208   4.536   3.848
 1072TIP3   OH2 3179   7.205   5.121   4.976
 1072TIP3    H1 3180   7.120   5.165   4.978
 1072TIP3    H2 3181   7.266   5.185   5.013
 1073TIP3   OH2 3182   4.071   2.550   0.855
 1073TIP3    H1 3183   4.133   2.517   0.790
 1073TIP3    H2 3184   4.075   2.487   0.927
 1074TIP3   OH2 3185   5.669   6.702   0.899
 1074TIP3    H1 3186   5.684   6.668   0.987
 1074TIP3    H2 3187   5.752   6.743   0.875
 1075TIP3   OH2 3188   0.700   4.265   3.086
 1075TIP3    H1 3189   0.729   4.188   3.039
 1075TIP3    H2 3190   0.761   4.334   3.061
 1076TIP3   OH2 3191   7.032   6.406   2.223
 1076TIP3    H1 3192   7.079   6.337   2.269
 1076TIP3    H2 3193   7.079   6.486   2.242
 1077TIP3   OH2 3194   5.246   6.335   1.440
 1077TIP3    H1 3195   5.290   6.292   1.513
 1077TIP3    H2 3196   5.260   6.428   1.455
 1078TIP3   OH2 3197   3.823   1.954   2.417
 1078TIP3    H1 3198   3.744   1.962   2.364
 1078TIP3    H2 3199   3.844   2.044   2.442
 1079TIP3   OH2 3200   5.615   1.124   5.282
 1079TIP3    H1 3201   5.573   1.049   5.323
 1079TIP3    H2 3202   5.554   1.151   5.213
 1080TIP3   OH2 3203   7.113   0.780   3.021
 1080TIP3    H1 3204   7.155   0.799   3.105
 1080TIP3    H2 3205   7.156   0.840   2.959
 1081TIP3   OH2 3206   5.353   6.512   4.832
 1081TIP3    H1 3207   5.430   6.539   4.783
 1081TIP3    H2 3208   5.333   6.587   4.888
 1082TIP3   OH2 3209   1.406   5.744   2.414
 1082TIP3    H1 3210   1.440   5.683   2.348
 1082TIP3    H2 3211   1.378   5.688   2.486
 1083TIP3   OH2 3212   2.152   3.458   1.530
 1083TIP3    H1 3213   2.092   3.500   1.468
 1083TIP3    H2 3214   2.239   3.472   1.491
 1084TIP3   OH2 3215   5.206   5.711   2.526
 1084TIP3    H1 3216   5.245   5.704   2.614
 1084TIP3    H2 3217   5.112   5.707   2.542
 1085TIP3   OH2 3218   3.106   4.496   3.106
 1085TIP3    H1 3219   3.035   4.558   3.125
 1085TIP3    H2 3220   3.164   4.502   3.181
 1086TIP3   OH2 3221   4.622   6.577   2.239
 1086TIP3    H1 3222   4.654   6.549   2.153
 1086TIP3    H2 3223   4.619   6.496   2.291
 1087TIP3   OH2 3224   6.870   3.564   4.872
 1087TIP3    H1 3225   6.830   3.642   4.909
 1087TIP3    H2 3226   6.800   3.498   4.871
 1088TIP3   OH2 3227   2.491   6.186   0.988
 1088TIP3    H1 3228   2.548   6.110   0.998
 1088TIP3    H2 3229   2.534   6.241   0.923
 1089TIP3   OH2 3230   1.436   1.162   2.529
 1089TIP3    H1 3231   1.395   1.202   2.605
 1089TIP3    H2 3232   1.524   1.138   2.559
 1090TIP3   OH2 3233   4.404   2.336   2.634
 1090TIP3    H1 3234   4.464   2.353   2.706
 1090TIP3    H2 3235   4.397   2.420   2.588
 1091TIP3   OH2 3236   0.377   0.186   1.707
 1091TIP3    H1 3237   0.350   0.235   1.629
 1091TIP3    H2 3238   0.300   0.134   1.730
 1092TIP3   OH2 3239   0.262   2.572   2.939
 1092TIP3    H1 3240   0.329   2.522   2.893
 1092TIP3    H2 3241   0.263   2.537   3.028
 1093TIP3   OH2 3242   1.723   2.172   2.715
 1093TIP3    H1 3243   1.758   2.131   2.636
 1093TIP3    H2 3244   1.783   2.146   2.785
 1094TIP3   OH2 3245   6.427   1.076   3.707
 1094TIP3    H1 3246   6.474   1.026   3.639
 1094TIP3    H2 3247   6.335   1.071   3.681
 1095TIP3   OH2 3248   4.635   5.640   0.692
 1095TIP3    H1 3249   4.684   5.644   0.610
 1095TIP3    H2 3250   4.641   5.728   0.728
 1096TIP3   OH2 3251   7.189   5.062   4.310
 1096TIP3    H1 3252   7.253   5.034   4.375
 1096TIP3    H2 3253   7.162   4.981   4.266
 1097TIP3   OH2 3254   5.067   2.122   1.910
 1097TIP3    H1 3255   5.098   2.209   1.936
 1097TIP3    H2 3256   5.139   2.086   1.858
 1098TIP3   OH2 3257   2.061   0.223   2.005
 1098TIP3    H1 3258   2.099   0.310   1.998
 1098TIP3    H2 3259   2.136   0.164   2.000
 1099TIP3   OH2 3260  -0.023   3.982   0.031
 1099TIP3    H1 3261   0.018   4.024   0.107
 1099TIP3    H2 3262   0.015   4.024  -0.045
 1100TIP3   OH2 3263   4.489   6.550   4.418
 1100TIP3    H1 3264   4.432   6.553   4.494
 1100TIP3    H2 3265   4.554   6.482   4.439
 1101TIP3   OH2 3266   2.666   3.620   0.535
 1101TIP3    H1 3267   2.643   3.700   0.489
 1101TIP3    H2 3268   2.687   3.558   0.465
 1102TIP3   OH2 3269   3.346   1.473   2.814
 1102TIP3    H1 3270   3.278   1.468   2.747
 1102TIP3    H2 3271   3.352   1.566   2.835
 1103TIP3   OH2 3272   2.162   2.114   5.420
 1103TIP3    H1 3273   2.235   2.169   5.391
 1103TIP3    H2 3274   2.088   2.175   5.427
 1104TIP3   OH2 3275   0.397   3.256   3.913
 1104TIP3    H1 3276   0.476   3.283   3.865
 1104TIP3    H2 3277   0.386   3.324   3.980
 1105TIP3   OH2 3278   0.051   5.278   4.144
 1105TIP3    H1 3279  -0.037   5.286   4.107
 1105TIP3    H2 3280   0.041   5.213   4.215
 1106TIP3   OH2 3281   2.825   1.323   5.718
 1106TIP3    H1 3282   2.766   1.262   5.674
 1106TIP3    H2 3283   2.803   1.316   5.810
 1107TIP3   OH2 3284   4.468   4.868   5.065
 1107TIP3    H1 3285   4.479   4.957   5.031
 1107TIP3    H2 3286   4.485   4.877   5.159
 1108TIP3   OH2 3287   4.570   5.013   3.018
 1108TIP3    H1 3288   4.623   5.024   2.939
 1108TIP3    H2 3289   4.632   5.029   3.090
 1109TIP3   OH2 3290   3.572   2.610   1.263
 1109TIP3    H1 3291   3.561   2.701   1.234
 1109TIP3    H2 3292   3.632   2.571   1.199
 1110TIP3   OH2 3293   3.774   4.950   4.431
 1110TIP3    H1 3294   3.841   4.894   4.470
 1110TIP3    H2 3295   3.753   4.908   4.348
 1111TIP3   OH2 3296   1.261   6.479   0.401
 1111TIP3    H1 3297   1.331   6.507   0.341
 1111TIP3    H2 3298   1.281   6.388   0.421
 1112TIP3   OH2 3299   1.041   4.867   3.363
 1112TIP3    H1 3300   1.088   4.793   3.324
 1112TIP3    H2 3301   1.103   4.905   3.425
 1113TIP3   OH2 3302   3.131   1.490   2.074
 1113TIP3    H1 3303   3.124   1.578   2.036
 1113TIP3    H2 3304   3.044   1.472   2.109
 1114TIP3   OH2 3305   1.047   4.549   4.213
 1114TIP3    H1 3306   1.049   4.613   4.141
 1114TIP3    H2 3307   1.073   4.466   4.172
 1115TIP3   OH2 3308   1.088   3.349   5.316
 1115TIP3    H1 3309   1.113   3.292   5.243
 1115TIP3    H2 3310   1.009   3.393   5.285
 1116TIP3   OH2 3311   1.827   4.087   0.264
 1116TIP3    H1 3312   1.906   4.123   0.306
 1116TIP3    H2 3313   1.859   4.010   0.216
 1117TIP3   OH2 3314   5.601   5.072   4.944
 1117TIP3    H1 3315   5.653   4.992   4.941
 1117TIP3    H2 3316   5.590   5.097   4.852
 1118TIP3   OH2 3317   3.499   2.189   2.910
 1118TIP3    H1 3318   3.437   2.121   2.885
 1118TIP3    H2 3319   3.444   2.266   2.926
 1119TIP3   OH2 3320   3.805   4.915   1.274
 1119TIP3    H1 3321   3.760   4.836   1.304
 1119TIP3    H2 3322   3.835   4.958   1.355
 1120TIP3   OH2 3323   3.044   0.321   4.814
 1120TIP3    H1 3324   2.981   0.371   4.761
 1120TIP3    H2 3325   3.079   0.256   4.753
 1121TIP3   OH2 3326   2.240   0.625   3.856
 1121TIP3    H1 3327   2.191   0.621   3.774
 1121TIP3    H2 3328   2.332   0.625   3.829
 1122TIP3   OH2 3329   0.272   4.598   4.604
 1122TIP3    H1 3330   0.244   4.649   4.680
 1122TIP3    H2 3331   0.354   4.639   4.576
 1123TIP3   OH2 3332   1.573   0.802   0.255
 1123TIP3    H1 3333   1.614   0.822   0.171
 1123TIP3    H2 3334   1.479   0.805   0.238
 1124TIP3   OH2 3335   6.794   2.216   0.793
 1124TIP3    H1 3336   6.785   2.310   0.812
 1124TIP3    H2 3337   6.809   2.176   0.878
 1125TIP3   OH2 3338   7.021   4.020   3.859
 1125TIP3    H1 3339   7.037   4.114   3.851
 1125TIP3    H2 3340   7.099   3.979   3.822
 1126TIP3   OH2 3341   0.576   5.023   1.460
 1126TIP3    H1 3342   0.489   5.062   1.459
 1126TIP3    H2 3343   0.635   5.097   1.446
 1127TIP3   OH2 3344   6.307   1.558   3.569
 1127TIP3    H1 3345   6.316   1.469   3.536
 1127TIP3    H2 3346   6.220   1.559   3.611
 1128TIP3   OH2 3347   4.835   6.802   3.203
 1128TIP3    H1 3348   4.896   6.814   3.275
 1128TIP3    H2 3349   4.806   6.711   3.210
 1129TIP3   OH2 3350   3.142   3.202   4.391
 1129TIP3    H1 3351   3.145   3.124   4.448
 1129TIP3    H2 3352   3.168   3.274   4.449
 1130TIP3   OH2 3353   6.761   4.044   3.502
 1130TIP3    H1 3354   6.781   4.121   3.555
 1130TIP3    H2 3355   6.666   4.037   3.504
 1131TIP3   OH2 3356   1.755   1.087   0.146
 1131TIP3    H1 3357   1.773   0.997   0.119
 1131TIP3    H2 3358   1.724   1.080   0.236
 1132TIP3   OH2 3359   5.751   2.785   2.851
 1132TIP3    H1 3360   5.660   2.795   2.824
 1132TIP3    H2 3361   5.785   2.874   2.858
 1133TIP3   OH2 3362   6.175   6.083   2.876
 1133TIP3    H1 3363   6.253   6.139   2.871
 1133TIP3    H2 3364   6.167   6.046   2.788
 1134TIP3   OH2 3365   5.216   1.089   1.826
 1134TIP3    H1 3366   5.295   1.052   1.784
 1134TIP3    H2 3367   5.185   1.019   1.883
 1135TIP3   OH2 3368   4.934   5.818   2.704
 1135TIP3    H1 3369   4.859   5.803   2.762
 1135TIP3    H2 3370   4.900   5.805   2.616
 1136TIP3   OH2 3371   1.581   0.324   4.137
 1136TIP3    H1 3372   1.494   0.293   4.161
 1136TIP3    H2 3373   1.641   0.258   4.171
 1137TIP3   OH2 3374   3.329   4.226   0.871
 1137TIP3    H1 3375   3.274   4.149   0.885
 1137TIP3    H2 3376   3.394   4.222   0.941
 1138TIP3   OH2 3377   3.413   2.015   2.562
 1138TIP3    H1 3378   3.437   2.089   2.507
 1138TIP3    H2 3379   3.333   1.980   2.523
 1139TIP3   OH2 3380   0.896   5.567   3.896
 1139TIP3    H1 3381   0.924   5.475   3.903
 1139TIP3    H2 3382   0.931   5.596   3.812
 1140TIP3   OH2 3383   4.196   6.029   5.858
 1140TIP3    H1 3384   4.243   5.968   5.801
 1140TIP3    H2 3385   4.201   5.989   5.945
 1141TIP3   OH2 3386   0.862   0.883   1.479
 1141TIP3    H1 3387   0.836   0.975   1.477
 1141TIP3    H2 3388   0.880   0.865   1.571
 1142TIP3   OH2 3389   5.554   0.611   4.392
 1142TIP3    H1 3390   5.524   0.607   4.483
 1142TIP3    H2 3391   5.647   0.633   4.399
 1143TIP3   OH2 3392   1.958   5.981   2.127
 1143TIP3    H1 3393   1.937   5.987   2.034
 1143TIP3    H2 3394   2.020   5.908   2.133
 1144TIP3   OH2 3395   4.237   0.586   0.219
 1144TIP3    H1 3396   4.277   0.507   0.183
 1144TIP3    H2 3397   4.144   0.578   0.198
 1145TIP3   OH2 3398   2.735   5.028   3.626
 1145TIP3    H1 3399   2.759   5.120   3.612
 1145TIP3    H2 3400   2.807   4.992   3.679
 1146TIP3   OH2 3401   4.587   6.277   4.922
 1146TIP3    H1 3402   4.570   6.353   4.977
 1146TIP3    H2 3403   4.601   6.312   4.834
 1147TIP3   OH2 3404   4.398   0.758   3.387
 1147TIP3    H1 3405   4.398   0.827   3.322
 1147TIP3    H2 3406   4.321   0.775   3.441
 1148TIP3   OH2 3407   3.488   3.984   4.157
 1148TIP3    H1 3408   3.502   4.038   4.234
 1148TIP3    H2 3409   3.564   3.925   4.156
 1149TIP3   OH2 3410   0.928   5.386   4.544
 1149TIP3    H1 3411   0.962   5.447   4.610
 1149TIP3    H2 3412   0.836   5.409   4.535
 1150TIP3   OH2 3413   2.979   6.633   3.779
 1150TIP3    H1 3414   2.918   6.661   3.711
 1150TIP3    H2 3415   2.997   6.541   3.758
 1151TIP3   OH2 3416   3.480   0.694   5.502
 1151TIP3    H1 3417   3.487   0.784   5.469
 1151TIP3    H2 3418   3.570   0.662   5.504
 1152TIP3   OH2 3419   4.002   6.538   0.752
 1152TIP3    H1 3420   4.018   6.447   0.725
 1152TIP3    H2 3421   4.089   6.572   0.773
 1153TIP3   OH2 3422   2.617   1.441   0.198
 1153TIP3    H1 3423   2.638   1.349   0.215
 1153TIP3    H2 3424   2.521   1.444   0.196
 1154TIP3   OH2 3425   5.174   6.558   0.446
 1154TIP3    H1 3426   5.186   6.615   0.370
 1154TIP3    H2 3427   5.170   6.619   0.520
 1155TIP3   OH2 3428   6.021   6.567   0.387
 1155TIP3    H1 3429   5.976   6.499   0.437
 1155TIP3    H2 3430   5.965   6.644   0.395
 1156TIP3   OH2 3431   2.541   0.701   2.107
 1156TIP3    H1 3432   2.587   0.643   2.167
 1156TIP3    H2 3433   2.468   0.735   2.158
 1157TIP3   OH2 3434   2.508   2.448   3.813
 1157TIP3    H1 3435   2.579   2.507   3.789
 1157TIP3    H2 3436   2.431   2.486   3.770
 1158TIP3   OH2 3437   2.128   2.113   5.043
 1158TIP3    H1 3438   2.054   2.076   5.091
 1158TIP3    H2 3439   2.141   2.053   4.970
 1159TIP3   OH2 3440   6.248   3.376   4.664
 1159TIP3    H1 3441   6.243   3.427   4.745
 1159TIP3    H2 3442   6.197   3.297   4.683
 1160TIP3   OH2 3443   6.731   5.913   1.545
 1160TIP3    H1 3444   6.652   5.960   1.574
 1160TIP3    H2 3445   6.702   5.822   1.537
 1161TIP3   OH2 3446   6.078   3.660   1.788
 1161TIP3    H1 3447   5.993   3.665   1.832
 1161TIP3    H2 3448   6.139   3.705   1.847
 1162TIP3   OH2 3449   2.320   6.524   5.375
 1162TIP3    H1 3450   2.324   6.601   5.431
 1162TIP3    H2 3451   2.409   6.512   5.343
 1163TIP3   OH2 3452   3.594   3.838   1.959
 1163TIP3    H1 3453   3.587   3.773   1.889
 1163TIP3    H2 3454   3.504   3.870   1.971
 1164TIP3   OH2 3455   3.832   6.116   1.371
 1164TIP3    H1 3456   3.787   6.034   1.351
 1164TIP3    H2 3457   3.837   6.162   1.288
 1165TIP3   OH2 3458   5.249   0.595   5.098
 1165TIP3    H1 3459   5.330   0.617   5.143
 1165TIP3    H2 3460   5.179   0.629   5.155
 1166TIP3   OH2 3461   3.498   4.626   4.373
 1166TIP3    H1 3462   3.497   4.633   4.469
 1166TIP3    H2 3463   3.591   4.616   4.351
 1167TIP3   OH2 3464   4.363   1.468   3.809
 1167TIP3    H1 3465   4.334   1.421   3.888
 1167TIP3    H2 3466   4.455   1.445   3.800
 1168TIP3   OH2 3467   6.964   0.468   2.790
 1168TIP3    H1 3468   6.955   0.457   2.885
 1168TIP3    H2 3469   7.048   0.511   2.779
 1169TIP3   OH2 3470   5.764   5.042   2.463
 1169TIP3    H1 3471   5.859   5.035   2.475
 1169TIP3    H2 3472   5.754   5.088   2.380
 1170TIP3   OH2 3473   3.477   4.194   2.656
 1170TIP3    H1 3474   3.414   4.135   2.614
 1170TIP3    H2 3475   3.557   4.141   2.664
 1171TIP3   OH2 3476   3.775   0.434   2.681
 1171TIP3    H1 3477   3.844   0.481   2.636
 1171TIP3    H2 3478   3.787   0.455   2.774
 1172TIP3   OH2 3479   3.367   5.528   2.818
 1172TIP3    H1 3480   3.323   5.511   2.735
 1172TIP3    H2 3481   3.296   5.535   2.882
 1173TIP3   OH2 3482   2.397   3.563   5.144
 1173TIP3    H1 3483   2.392   3.638   5.203
 1173TIP3    H2 3484   2.384   3.601   5.057
 1174TIP3   OH2 3485   1.293   5.165   5.773
 1174TIP3    H1 3486   1.363   5.195   5.715
 1174TIP3    H2 3487   1.215   5.163   5.718
 1175TIP3   OH2 3488   0.406   2.222   4.451
 1175TIP3    H1 3489   0.470   2.156   4.428
 1175TIP3    H2 3490   0.446   2.270   4.524
 1176TIP3   OH2 3491   1.467   3.207   1.473
 1176TIP3    H1 3492   1.551   3.252   1.477
 1176TIP3    H2 3493   1.469   3.144   1.546
 1177TIP3   OH2 3494   2.736   0.323   4.111
 1177TIP3    H1 3495   2.793   0.397   4.089
 1177TIP3    H2 3496   2.789   0.246   4.091
 1178TIP3   OH2 3497   1.396   1.251   3.565
 1178TIP3    H1 3498   1.392   1.162   3.601
 1178TIP3    H2 3499   1.412   1.306   3.641
 1179TIP3   OH2 3500   4.685   4.831   0.873
 1179TIP3    H1 3501   4.736   4.911   0.879
 1179TIP3    H2 3502   4.627   4.833   0.949
 1180TIP3   OH2 3503   0.159   4.523   5.143
 1180TIP3    H1 3504   0.167   4.437   5.102
 1180TIP3    H2 3505   0.245   4.564   5.130
 1181TIP3   OH2 3506   1.691   2.818   1.424
 1181TIP3    H1 3507   1.668   2.768   1.346
 1181TIP3    H2 3508   1.758   2.880   1.395
 1182TIP3   OH2 3509   5.170   6.239   1.174
 1182TIP3    H1 3510   5.200   6.274   1.258
 1182TIP3    H2 3511   5.244   6.188   1.140
 1183TIP3   OH2 3512   3.803   3.269   1.561
 1183TIP3    H1 3513   3.865   3.224   1.504
 1183TIP3    H2 3514   3.723   3.217   1.555
 1184TIP3   OH2 3515   0.011   2.898   1.961
 1184TIP3    H1 3516  -0.030   2.963   2.018
 1184TIP3    H2 3517   0.082   2.861   2.013
 1185TIP3   OH2 3518   6.754   5.516   0.508
 1185TIP3    H1 3519   6.832   5.571   0.507
 1185TIP3    H2 3520   6.692   5.563   0.565
 1186TIP3   OH2 3521   5.913   2.672   4.929
 1186TIP3    H1 3522   5.906   2.767   4.940
 1186TIP3    H2 3523   5.945   2.662   4.839
 1187TIP3   OH2 3524   5.556   1.087   0.249
 1187TIP3    H1 3525   5.468   1.073   0.285
 1187TIP3    H2 3526   5.615   1.071   0.323
 1188TIP3   OH2 3527   5.506   5.835   3.666
 1188TIP3    H1 3528   5.549   5.787   3.736
 1188TIP3    H2 3529   5.432   5.780   3.641
 1189TIP3   OH2 3530   1.013   5.887   2.096
 1189TIP3    H1 3531   1.097   5.846   2.077
 1189TIP3    H2 3532   0.955   5.814   2.119
 1190TIP3   OH2 3533   2.472   1.560   1.359
 1190TIP3    H1 3534   2.532   1.534   1.428
 1190TIP3    H2 3535   2.442   1.647   1.385
 1191TIP3   OH2 3536   6.100   5.890   0.837
 1191TIP3    H1 3537   6.013   5.895   0.797
 1191TIP3    H2 3538   6.106   5.800   0.870
 1192TIP3   OH2 3539   4.469   1.526   1.491
 1192TIP3    H1 3540   4.529   1.540   1.565
 1192TIP3    H2 3541   4.410   1.602   1.494
 1193TIP3   OH2 3542   2.926   1.424   4.877
 1193TIP3    H1 3543   2.832   1.430   4.866
 1193TIP3    H2 3544   2.962   1.482   4.810
 1194TIP3   OH2 3545   5.737   3.475   1.065
 1194TIP3    H1 3546   5.655   3.437   1.034
 1194TIP3    H2 3547   5.715   3.566   1.086
 1195TIP3   OH2 3548   6.666   3.280   1.758
 1195TIP3    H1 3549   6.599   3.254   1.695
 1195TIP3    H2 3550   6.749   3.258   1.715
 1196TIP3   OH2 3551   6.346   1.601   1.399
 1196TIP3    H1 3552   6.408   1.606   1.472
 1196TIP3    H2 3553   6.345   1.689   1.362
 1197TIP3   OH2 3554   3.324   2.311   2.588
 1197TIP3    H1 3555   3.255   2.244   2.587
 1197TIP3    H2 3556   3.280   2.391   2.617
 1198TIP3   OH2 3557   2.930   4.048   2.571
 1198TIP3    H1 3558   2.893   4.041   2.483
 1198TIP3    H2 3559   2.881   3.984   2.622
 1199TIP3   OH2 3560   4.097   5.303   1.012
 1199TIP3    H1 3561   4.177   5.315   1.062
 1199TIP3    H2 3562   4.039   5.254   1.070
 1200TIP3   OH2 3563   6.097   3.920   3.013
 1200TIP3    H1 3564   6.105   3.830   2.984
 1200TIP3    H2 3565   6.082   3.914   3.107
 1201TIP3   OH2 3566   2.302   4.108   4.716
 1201TIP3    H1 3567   2.301   4.190   4.666
 1201TIP3    H2 3568   2.375   4.059   4.678
 1202TIP3   OH2 3569   2.972   5.781   0.219
 1202TIP3    H1 3570   2.907   5.795   0.287
 1202TIP3    H2 3571   2.939   5.705   0.170
 1203TIP3   OH2 3572   1.641   4.813   3.819
 1203TIP3    H1 3573   1.643   4.885   3.756
 1203TIP3    H2 3574   1.726   4.817   3.863
 1204TIP3   OH2 3575   4.782   3.263   0.943
 1204TIP3    H1 3576   4.729   3.263   1.023
 1204TIP3    H2 3577   4.845   3.192   0.956
 1205TIP3   OH2 3578   4.004   5.973   2.570
 1205TIP3    H1 3579   3.987   5.965   2.476
 1205TIP3    H2 3580   4.061   6.049   2.578
 1206TIP3   OH2 3581   1.709   4.255   2.068
 1206TIP3    H1 3582   1.731   4.180   2.014
 1206TIP3    H2 3583   1.718   4.224   2.158
 1207TIP3   OH2 3584   3.682   3.642   3.968
 1207TIP3    H1 3585   3.741   3.713   3.993
 1207TIP3    H2 3586   3.723   3.563   4.003
 1208TIP3   OH2 3587   0.579   1.555   5.011
 1208TIP3    H1 3588   0.594   1.648   4.994
 1208TIP3    H2 3589   0.542   1.521   4.930
 1209TIP3   OH2 3590   4.231   0.501   5.268
 1209TIP3    H1 3591   4.316   0.491   5.226
 1209TIP3    H2 3592   4.234   0.439   5.342
 1210TIP3   OH2 3593   4.052   2.802   5.521
 1210TIP3    H1 3594   4.006   2.835   5.598
 1210TIP3    H2 3595   3.984   2.762   5.467
 1211TIP3   OH2 3596   0.971   5.101   0.772
 1211TIP3    H1 3597   0.942   5.123   0.861
 1211TIP3    H2 3598   0.974   5.185   0.726
 1212TIP3   OH2 3599   6.589   0.819   4.454
 1212TIP3    H1 3600   6.654   0.876   4.412
 1212TIP3    H2 3601   6.582   0.744   4.396
 1213TIP3   OH2 3602   1.356   1.337   2.761
 1213TIP3    H1 3603   1.337   1.429   2.747
 1213TIP3    H2 3604   1.442   1.336   2.803
 1214TIP3   OH2 3605   5.021   5.359   5.011
 1214TIP3    H1 3606   4.974   5.289   5.055
 1214TIP3    H2 3607   4.980   5.366   4.925
 1215TIP3   OH2 3608   5.085   1.790   1.511
 1215TIP3    H1 3609   5.147   1.836   1.454
 1215TIP3    H2 3610   5.043   1.725   1.454
 1216TIP3   OH2 3611   2.199   6.666   0.409
 1216TIP3    H1 3612   2.160   6.584   0.379
 1216TIP3    H2 3613   2.152   6.733   0.359
 1217TIP3   OH2 3614   0.058   6.329   0.940
 1217TIP3    H1 3615   0.085   6.287   0.859
 1217TIP3    H2 3616  -0.033   6.300   0.952
 1218TIP3   OH2 3617   3.775   5.997   2.368
 1218TIP3    H1 3618   3.784   5.908   2.333
 1218TIP3    H2 3619   3.836   6.050   2.316
 1219TIP3   OH2 3620   2.286   0.224   2.715
 1219TIP3    H1 3621   2.328   0.199   2.798
 1219TIP3    H2 3622   2.358   0.232   2.653
 1220TIP3   OH2 3623   1.485   5.256   1.126
 1220TIP3    H1 3624   1.533   5.338   1.117
 1220TIP3    H2 3625   1.478   5.243   1.221
 1221TIP3   OH2 3626   0.467   3.093   3.378
 1221TIP3    H1 3627   0.459   3.131   3.291
 1221TIP3    H2 3628   0.428   3.158   3.437
 1222TIP3   OH2 3629   4.738   4.097   4.607
 1222TIP3    H1 3630   4.790   4.117   4.530
 1222TIP3    H2 3631   4.789   4.029   4.653
 1223TIP3   OH2 3632   4.823   3.918   3.073
 1223TIP3    H1 3633   4.741   3.873   3.091
 1223TIP3    H2 3634   4.804   4.010   3.089
 1224TIP3   OH2 3635   3.221   5.440   1.499
 1224TIP3    H1 3636   3.258   5.353   1.486
 1224TIP3    H2 3637   3.264   5.473   1.578
 1225TIP3   OH2 3638   6.655   3.304   2.531
 1225TIP3    H1 3639   6.679   3.218   2.496
 1225TIP3    H2 3640   6.595   3.340   2.466
 1226TIP3   OH2 3641   2.986   6.108   2.058
 1226TIP3    H1 3642   2.928   6.069   2.123
 1226TIP3    H2 3643   2.994   6.200   2.084
 1227TIP3   OH2 3644   5.827   5.458   2.081
 1227TIP3    H1 3645   5.763   5.528   2.085
 1227TIP3    H2 3646   5.780   5.380   2.110
 1228TIP3   OH2 3647   3.996   5.609   5.563
 1228TIP3    H1 3648   3.917   5.656   5.536
 1228TIP3    H2 3649   3.984   5.594   5.657
 1229TIP3   OH2 3650   6.518   4.161   2.080
 1229TIP3    H1 3651   6.466   4.169   2.160
 1229TIP3    H2 3652   6.498   4.240   2.030
 1230TIP3   OH2 3653   3.619   0.848   3.439
 1230TIP3    H1 3654   3.577   0.928   3.469
 1230TIP3    H2 3655   3.661   0.872   3.357
 1231TIP3   OH2 3656   6.986   4.154   5.136
 1231TIP3    H1 3657   7.080   4.143   5.142
 1231TIP3    H2 3658   6.962   4.115   5.052
 1232TIP3   OH2 3659   2.684   5.596   1.432
 1232TIP3    H1 3660   2.692   5.584   1.527
 1232TIP3    H2 3661   2.625   5.671   1.422
 1233TIP3   OH2 3662   0.300   2.424   3.360
 1233TIP3    H1 3663   0.212   2.456   3.340
 1233TIP3    H2 3664   0.330   2.478   3.433
 1234TIP3   OH2 3665   7.091   2.085   4.885
 1234TIP3    H1 3666   7.106   2.119   4.973
 1234TIP3    H2 3667   7.107   2.159   4.827
 1235TIP3   OH2 3668   2.089   2.387   4.166
 1235TIP3    H1 3669   2.175   2.348   4.183
 1235TIP3    H2 3670   2.030   2.339   4.223
 1236TIP3   OH2 3671   0.052   6.062   5.653
 1236TIP3    H1 3672   0.126   6.101   5.699
 1236TIP3    H2 3673   0.041   6.116   5.575
 1237TIP3   OH2 3674   4.643   1.805   3.041
 1237TIP3    H1 3675   4.650   1.791   3.135
 1237TIP3    H2 3676   4.732   1.794   3.008
 1238TIP3   OH2 3677   2.669   4.936   1.850
 1238TIP3    H1 3678   2.675   4.855   1.800
 1238TIP3    H2 3679   2.685   4.909   1.941
 1239TIP3   OH2 3680   4.342   5.786   2.697
 1239TIP3    H1 3681   4.291   5.780   2.616
 1239TIP3    H2 3682   4.416   5.727   2.683
 1240TIP3   OH2 3683   5.612   1.242   0.026
 1240TIP3    H1 3684   5.609   1.197   0.111
 1240TIP3    H2 3685   5.520   1.264   0.008
 1241TIP3   OH2 3686   1.802   2.120   0.372
 1241TIP3    H1 3687   1.876   2.164   0.412
 1241TIP3    H2 3688   1.778   2.175   0.298
 1242TIP3   OH2 3689   3.678   0.816   2.036
 1242TIP3    H1 3690   3.639   0.864   1.964
 1242TIP3    H2 3691   3.709   0.883   2.096
 1243TIP3   OH2 3692   5.011   3.509   5.576
 1243TIP3    H1 3693   4.965   3.483   5.656
 1243TIP3    H2 3694   5.093   3.460   5.579
 1244TIP3   OH2 3695   1.141   4.718   5.485
 1244TIP3    H1 3696   1.220   4.710   5.431
 1244TIP3    H2 3697   1.170   4.766   5.562
 1245TIP3   OH2 3698   6.718   1.447   5.310
 1245TIP3    H1 3699   6.706   1.381   5.241
 1245TIP3    H2 3700   6.644   1.507   5.298
 1246TIP3   OH2 3701   2.816   2.725   1.414
 1246TIP3    H1 3702   2.779   2.645   1.451
 1246TIP3    H2 3703   2.800   2.792   1.480
 1247TIP3   OH2 3704   3.540   5.686   5.605
 1247TIP3    H1 3705   3.493   5.725   5.679
 1247TIP3    H2 3706   3.631   5.712   5.618
 1248TIP3   OH2 3707   4.734   3.362   0.346
 1248TIP3    H1 3708   4.742   3.309   0.267
 1248TIP3    H2 3709   4.824   3.369   0.379
 1249TIP3   OH2 3710   1.387   0.795   3.176
 1249TIP3    H1 3711   1.370   0.851   3.101
 1249TIP3    H2 3712   1.478   0.813   3.201
 1250TIP3   OH2 3713   5.796   6.180   4.383
 1250TIP3    H1 3714   5.853   6.239   4.433
 1250TIP3    H2 3715   5.733   6.149   4.447
 1251TIP3   OH2 3716   1.033   0.360   3.764
 1251TIP3    H1 3717   1.068   0.300   3.697
 1251TIP3    H2 3718   0.951   0.320   3.791
 1252TIP3   OH2 3719   6.335   3.576   0.627
 1252TIP3    H1 3720   6.349   3.530   0.544
 1252TIP3    H2 3721   6.275   3.519   0.675
 1253TIP3   OH2 3722   2.352   3.546   2.344
 1253TIP3    H1 3723   2.410   3.532   2.419
 1253TIP3    H2 3724   2.409   3.534   2.268
 1254TIP3   OH2 3725   3.965   5.634   0.955
 1254TIP3    H1 3726   4.056   5.605   0.961
 1254TIP3    H2 3727   3.917   5.576   1.014
 1255TIP3   OH2 3728   4.565   0.969   3.536
 1255TIP3    H1 3729   4.601   0.885   3.506
 1255TIP3    H2 3730   4.483   0.979   3.488
 1256TIP3   OH2 3731   1.563   6.751   0.459
 1256TIP3    H1 3732   1.572   6.783   0.369
 1256TIP3    H2 3733   1.625   6.802   0.510
 1257TIP3   OH2 3734   1.953   3.078   0.831
 1257TIP3    H1 3735   1.920   3.126   0.907
 1257TIP3    H2 3736   2.045   3.063   0.850
 1258TIP3   OH2 3737   1.579   0.151   4.361
 1258TIP3    H1 3738   1.530   0.069   4.362
 1258TIP3    H2 3739   1.671   0.125   4.371
 1259TIP3   OH2 3740   2.586   6.509   4.751
 1259TIP3    H1 3741   2.561   6.541   4.838
 1259TIP3    H2 3742   2.506   6.518   4.699
 1260TIP3   OH2 3743   3.275   6.311   3.739
 1260TIP3    H1 3744   3.181   6.321   3.750
 1260TIP3    H2 3745   3.304   6.397   3.707
 1261TIP3   OH2 3746   3.461   1.183   1.218
 1261TIP3    H1 3747   3.510   1.264   1.238
 1261TIP3    H2 3748   3.501   1.152   1.136
 1262TIP3   OH2 3749   6.434   0.762   0.660
 1262TIP3    H1 3750   6.442   0.681   0.710
 1262TIP3    H2 3751   6.403   0.827   0.723
 1263TIP3   OH2 3752   2.322   0.062   4.088
 1263TIP3    H1 3753   2.281  -0.019   4.057
 1263TIP3    H2 3754   2.390   0.081   4.024
 1264TIP3   OH2 3755   1.956   1.067   0.948
 1264TIP3    H1 3756   2.029   1.048   1.007
 1264TIP3    H2 3757   1.888   1.006   0.974
 1265TIP3   OH2 3758   0.187   3.465   0.496
 1265TIP3    H1 3759   0.126   3.514   0.552
 1265TIP3    H2 3760   0.135   3.393   0.460
 1266TIP3   OH2 3761   4.887   3.230   3.890
 1266TIP3    H1 3762   4.839   3.311   3.903
 1266TIP3    H2 3763   4.928   3.211   3.975
 1267TIP3   OH2 3764   0.637   5.335   0.161
 1267TIP3    H1 3765   0.710   5.288   0.120
 1267TIP3    H2 3766   0.657   5.333   0.255
 1268TIP3   OH2 3767   4.215   4.910   5.481
 1268TIP3    H1 3768   4.210   4.911   5.385
 1268TIP3    H2 3769   4.188   4.821   5.505
 1269TIP3   OH2 3770   5.650   6.532   5.457
 1269TIP3    H1 3771   5.574   6.516   5.513
 1269TIP3    H2 3772   5.706   6.455   5.471
 1270TIP3   OH2 3773   3.003   0.658   3.192
 1270TIP3    H1 3774   3.052   0.738   3.177
 1270TIP3    H2 3775   2.977   0.629   3.104
 1271TIP3   OH2 3776   1.991   3.590   1.344
 1271TIP3    H1 3777   2.040   3.654   1.292
 1271TIP3    H2 3778   1.916   3.639   1.377
 1272TIP3   OH2 3779   4.407   5.325   5.496
 1272TIP3    H1 3780   4.321   5.337   5.535
 1272TIP3    H2 3781   4.466   5.378   5.550
 1273TIP3   OH2 3782   1.046   1.320   4.487
 1273TIP3    H1 3783   0.968   1.303   4.540
 1273TIP3    H2 3784   1.013   1.364   4.409
 1274TIP3   OH2 3785   5.314   2.211   4.896
 1274TIP3    H1 3786   5.372   2.272   4.850
 1274TIP3    H2 3787   5.256   2.177   4.828
 1275TIP3   OH2 3788   6.495   0.293   3.929
 1275TIP3    H1 3789   6.422   0.305   3.990
 1275TIP3    H2 3790   6.485   0.204   3.896
 1276TIP3   OH2 3791   3.632   2.478   3.521
 1276TIP3    H1 3792   3.555   2.532   3.537
 1276TIP3    H2 3793   3.605   2.390   3.548
 1277TIP3   OH2 3794   5.078   3.877   0.476
 1277TIP3    H1 3795   5.058   3.788   0.504
 1277TIP3    H2 3796   5.077   3.873   0.380
 1278TIP3   OH2 3797   3.210   6.164   4.239
 1278TIP3    H1 3798   3.175   6.185   4.152
 1278TIP3    H2 3799   3.135   6.177   4.297
 1279TIP3   OH2 3800   5.212   3.468   4.245
 1279TIP3    H1 3801   5.232   3.518   4.324
 1279TIP3    H2 3802   5.180   3.384   4.278
 1280TIP3   OH2 3803   1.251   1.268   0.158
 1280TIP3    H1 3804   1.346   1.279   0.151
 1280TIP3    H2 3805   1.217   1.303   0.075
 1281TIP3   OH2 3806   5.444   2.067   5.124
 1281TIP3    H1 3807   5.393   1.987   5.108
 1281TIP3    H2 3808   5.406   2.132   5.064
 1282TIP3   OH2 3809   2.899   3.008   3.838
 1282TIP3    H1 3810   2.988   3.038   3.856
 1282TIP3    H2 3811   2.882   2.941   3.904
 1283TIP3   OH2 3812   0.426   3.326   0.513
 1283TIP3    H1 3813   0.506   3.379   0.511
 1283TIP3    H2 3814   0.355   3.389   0.516
 1284TIP3   OH2 3815   0.349   3.979   3.770
 1284TIP3    H1 3816   0.436   3.941   3.762
 1284TIP3    H2 3817   0.328   4.011   3.682
 1285TIP3   OH2 3818   5.084   2.485   2.851
 1285TIP3    H1 3819   5.038   2.408   2.820
 1285TIP3    H2 3820   5.087   2.544   2.775
 1286TIP3   OH2 3821   0.851   3.565   0.954
 1286TIP3    H1 3822   0.856   3.540   0.862
 1286TIP3    H2 3823   0.931   3.614   0.970
 1287TIP3   OH2 3824   4.053   5.017   3.437
 1287TIP3    H1 3825   4.049   4.926   3.407
 1287TIP3    H2 3826   4.092   5.012   3.524
 1288TIP3   OH2 3827   4.740   1.616   5.644
 1288TIP3    H1 3828   4.835   1.602   5.644
 1288TIP3    H2 3829   4.713   1.592   5.555
 1289TIP3   OH2 3830   6.734   1.460   1.170
 1289TIP3    H1 3831   6.738   1.541   1.221
 1289TIP3    H2 3832   6.792   1.400   1.217
 1290TIP3   OH2 3833   6.831   1.796   2.511
 1290TIP3    H1 3834   6.867   1.708   2.510
 1290TIP3    H2 3835   6.884   1.843   2.575
 1291TIP3   OH2 3836   4.299   6.503   1.325
 1291TIP3    H1 3837   4.381   6.463   1.297
 1291TIP3    H2 3838   4.284   6.470   1.413
 1292TIP3   OH2 3839   2.709   4.590   0.272
 1292TIP3    H1 3840   2.730   4.667   0.220
 1292TIP3    H2 3841   2.689   4.624   0.359
 1293TIP3   OH2 3842   2.610   2.498   5.841
 1293TIP3    H1 3843   2.652   2.422   5.881
 1293TIP3    H2 3844   2.672   2.527   5.774
 1294TIP3   OH2 3845   1.776   2.471   0.487
 1294TIP3    H1 3846   1.748   2.561   0.507
 1294TIP3    H2 3847   1.840   2.451   0.554
 1295TIP3   OH2 3848   4.283   0.478   1.895
 1295TIP3    H1 3849   4.222   0.430   1.951
 1295TIP3    H2 3850   4.252   0.461   1.806
 1296TIP3   OH2 3851   0.911   5.563   0.146
 1296TIP3    H1 3852   0.860   5.493   0.187
 1296TIP3    H2 3853   0.864   5.644   0.169
 1297TIP3   OH2 3854   3.935   4.690   5.522
 1297TIP3    H1 3855   3.926   4.677   5.427
 1297TIP3    H2 3856   3.876   4.625   5.561
 1298TIP3   OH2 3857   5.046   2.099   5.175
 1298TIP3    H1 3858   5.011   2.011   5.164
 1298TIP3    H2 3859   5.113   2.107   5.107
 1299TIP3   OH2 3860   0.888   1.014   2.731
 1299TIP3    H1 3861   0.955   0.958   2.768
 1299TIP3    H2 3862   0.904   1.013   2.637
 1300TIP3   OH2 3863   2.721   1.200   1.946
 1300TIP3    H1 3864   2.778   1.192   1.870
 1300TIP3    H2 3865   2.660   1.270   1.923
 1301TIP3   OH2 3866   1.922   6.525   2.907
 1301TIP3    H1 3867   1.984   6.595   2.890
 1301TIP3    H2 3868   1.842   6.570   2.934
 1302TIP3   OH2 3869   5.158   4.221   5.290
 1302TIP3    H1 3870   5.111   4.251   5.212
 1302TIP3    H2 3871   5.118   4.270   5.362
 1303TIP3   OH2 3872   6.906   6.340   0.538
 1303TIP3    H1 3873   6.842   6.360   0.469
 1303TIP3    H2 3874   6.864   6.273   0.591
 1304TIP3   OH2 3875   2.967   5.878   0.897
 1304TIP3    H1 3876   2.946   5.808   0.958
 1304TIP3    H2 3877   3.063   5.888   0.903
 1305TIP3   OH2 3878   0.697   0.820   2.963
 1305TIP3    H1 3879   0.665   0.757   2.898
 1305TIP3    H2 3880   0.790   0.832   2.940
 1306TIP3   OH2 3881   3.198   3.361   1.233
 1306TIP3    H1 3882   3.225   3.451   1.212
 1306TIP3    H2 3883   3.167   3.326   1.150
 1307TIP3   OH2 3884   6.396   2.421   1.014
 1307TIP3    H1 3885   6.428   2.475   1.086
 1307TIP3    H2 3886   6.359   2.483   0.952
 1308TIP3   OH2 3887   3.906   1.073   0.999
 1308TIP3    H1 3888   3.949   1.056   1.083
 1308TIP3    H2 3889   3.850   1.149   1.014
 1309TIP3   OH2 3890   5.139   4.868   3.675
 1309TIP3    H1 3891   5.174   4.956   3.662
 1309TIP3    H2 3892   5.171   4.818   3.599
 1310TIP3   OH2 3893   6.250   2.451   1.930
 1310TIP3    H1 3894   6.219   2.470   1.842
 1310TIP3    H2 3895   6.342   2.476   1.929
 1311TIP3   OH2 3896   4.935   5.095   3.059
 1311TIP3    H1 3897   5.021   5.133   3.078
 1311TIP3    H2 3898   4.873   5.153   3.104
 1312TIP3   OH2 3899   0.194   1.035   4.733
 1312TIP3    H1 3900   0.201   0.940   4.740
 1312TIP3    H2 3901   0.218   1.067   4.820
 1313TIP3   OH2 3902   1.057   5.724   3.155
 1313TIP3    H1 3903   0.982   5.780   3.173
 1313TIP3    H2 3904   1.088   5.696   3.241
 1314TIP3   OH2 3905   5.284   0.441   1.948
 1314TIP3    H1 3906   5.206   0.389   1.967
 1314TIP3    H2 3907   5.281   0.513   2.012
 1315TIP3   OH2 3908   1.331   6.041   4.028
 1315TIP3    H1 3909   1.365   6.120   3.987
 1315TIP3    H2 3910   1.266   6.072   4.091
 1316TIP3   OH2 3911   1.339   4.242   0.890
 1316TIP3    H1 3912   1.246   4.253   0.871
 1316TIP3    H2 3913   1.360   4.311   0.952
 1317TIP3   OH2 3914   1.035   5.081   1.402
 1317TIP3    H1 3915   1.094   5.056   1.331
 1317TIP3    H2 3916   1.071   5.163   1.435
 1318TIP3   OH2 3917   1.410   2.921   0.837
 1318TIP3    H1 3918   1.318   2.913   0.813
 1318TIP3    H2 3919   1.437   2.833   0.862
 1319TIP3   OH2 3920   1.178   4.517   2.186
 1319TIP3    H1 3921   1.158   4.496   2.277
 1319TIP3    H2 3922   1.093   4.510   2.141
 1320TIP3   OH2 3923   6.787   5.405   1.476
 1320TIP3    H1 3924   6.847   5.429   1.547
 1320TIP3    H2 3925   6.813   5.460   1.403
 1321TIP3   OH2 3926   4.200   1.357   2.655
 1321TIP3    H1 3927   4.143   1.280   2.648
 1321TIP3    H2 3928   4.170   1.400   2.735
 1322TIP3   OH2 3929   3.505   1.906   0.386
 1322TIP3    H1 3930   3.566   1.880   0.317
 1322TIP3    H2 3931   3.426   1.854   0.368
 1323TIP3   OH2 3932   5.783   4.112   2.454
 1323TIP3    H1 3933   5.693   4.098   2.483
 1323TIP3    H2 3934   5.800   4.204   2.469
 1324TIP3   OH2 3935   2.802   4.019   0.629
 1324TIP3    H1 3936   2.853   4.024   0.709
 1324TIP3    H2 3937   2.865   3.993   0.561
 1325TIP3   OH2 3938   3.126   6.254   5.715
 1325TIP3    H1 3939   3.082   6.306   5.782
 1325TIP3    H2 3940   3.054   6.221   5.660
 1326TIP3   OH2 3941   5.893   4.976   3.174
 1326TIP3    H1 3942   5.819   5.029   3.146
 1326TIP3    H2 3943   5.879   4.962   3.268
 1327TIP3   OH2 3944   1.829   2.824   4.942
 1327TIP3    H1 3945   1.777   2.819   5.022
 1327TIP3    H2 3946   1.771   2.788   4.874
 1328TIP3   OH2 3947   6.481   6.276   3.793
 1328TIP3    H1 3948   6.513   6.342   3.855
 1328TIP3    H2 3949   6.536   6.287   3.716
 1329TIP3   OH2 3950   4.442   0.047   4.116
 1329TIP3    H1 3951   4.526   0.094   4.117
 1329TIP3    H2 3952   4.383   0.104   4.066
 1330TIP3   OH2 3953   1.781   0.137   3.601
 1330TIP3    H1 3954   1.694   0.107   3.625
 1330TIP3    H2 3955   1.824   0.156   3.684
 1331TIP3   OH2 3956   1.760   3.282   2.946
 1331TIP3    H1 3957   1.802   3.207   2.988
 1331TIP3    H2 3958   1.832   3.341   2.924
 1332TIP3   OH2 3959   5.391   6.320   2.755
 1332TIP3    H1 3960   5.298   6.329   2.735
 1332TIP3    H2 3961   5.401   6.358   2.842
 1333TIP3   OH2 3962   0.307   2.989   5.847
 1333TIP3    H1 3963   0.365   2.939   5.904
 1333TIP3    H2 3964   0.289   3.070   5.896
 1334TIP3   OH2 3965   3.277   0.104   4.938
 1334TIP3    H1 3966   3.352   0.047   4.924
 1334TIP3    H2 3967   3.286   0.172   4.871
 1335TIP3   OH2 3968   3.724   2.636   4.602
 1335TIP3    H1 3969   3.695   2.608   4.516
 1335TIP3    H2 3970   3.711   2.731   4.602
 1336TIP3   OH2 3971   5.014   2.317   4.661
 1336TIP3    H1 3972   5.015   2.413   4.654
 1336TIP3    H2 3973   5.030   2.287   4.572
 1337TIP3   OH2 3974   5.075   3.473   2.355
 1337TIP3    H1 3975   5.123   3.413   2.412
 1337TIP3    H2 3976   5.042   3.418   2.284
 1338TIP3   OH2 3977   1.560   3.035   4.024
 1338TIP3    H1 3978   1.511   3.095   3.967
 1338TIP3    H2 3979   1.635   3.008   3.971
 1339TIP3   OH2 3980   2.717   5.670   4.133
 1339TIP3    H1 3981   2.706   5.756   4.174
 1339TIP3    H2 3982   2.806   5.644   4.157
 1340TIP3   OH2 3983   2.353   0.100   0.729
 1340TIP3    H1 3984   2.308   0.162   0.672
 1340TIP3    H2 3985   2.435   0.144   0.752
 1341TIP3   OH2 3986   2.182   2.302   0.793
 1341TIP3    H1 3987   2.251   2.289   0.858
 1341TIP3    H2 3988   2.175   2.217   0.748
 1342TIP3   OH2 3989   5.258   4.146   0.065
 1342TIP3    H1 3990   5.212   4.067   0.037
 1342TIP3    H2 3991   5.342   4.143   0.020
 1343TIP3   OH2 3992   4.304   1.505   1.846
 1343TIP3    H1 3993   4.212   1.512   1.872
 1343TIP3    H2 3994   4.346   1.582   1.884
 1344TIP3   OH2 3995   5.653   2.428   1.333
 1344TIP3    H1 3996   5.748   2.428   1.345
 1344TIP3    H2 3997   5.639   2.387   1.248
 1345TIP3   OH2 3998   4.234   2.795   1.018
 1345TIP3    H1 3999   4.289   2.814   1.094
 1345TIP3    H2 4000   4.159   2.747   1.053
 1346TIP3   OH2 4001   0.388   0.961   4.175
 1346TIP3    H1 4002   0.464   0.960   4.233
 1346TIP3    H2 4003   0.313   0.974   4.233
 1347TIP3   OH2 4004   0.069   3.426   1.176
 1347TIP3    H1 4005   0.068   3.514   1.139
 1347TIP3    H2 4006  -0.017   3.416   1.217
 1348TIP3   OH2 4007   1.360   3.878   4.243
 1348TIP3    H1 4008   1.280   3.827   4.256
 1348TIP3    H2 4009   1.389   3.854   4.155
 1349TIP3   OH2 4010   2.446   2.090   4.176
 1349TIP3    H1 4011   2.420   2.181   4.178
 1349TIP3    H2 4012   2.407   2.055   4.096
 1350TIP3   OH2 4013   2.287   4.016   2.958
 1350TIP3    H1 4014   2.277   3.978   2.871
 1350TIP3    H2 4015   2.381   4.033   2.967
 1351TIP3   OH2 4016   1.607   0.678   5.005
 1351TIP3    H1 4017   1.567   0.661   5.090
 1351TIP3    H2 4018   1.624   0.590   4.969
 1352TIP3   OH2 4019   4.888   1.045   0.979
 1352TIP3    H1 4020   4.941   1.119   1.007
 1352TIP3    H2 4021   4.882   1.055   0.884
 1353TIP3   OH2 4022   4.795   2.050   3.892
 1353TIP3    H1 4023   4.851   1.977   3.868
 1353TIP3    H2 4024   4.839   2.127   3.855
 1354TIP3   OH2 4025   0.546   0.983  -0.022
 1354TIP3    H1 4026   0.560   0.898   0.019
 1354TIP3    H2 4027   0.560   1.046   0.049
 1355TIP3   OH2 4028   4.006   3.438   2.697
 1355TIP3    H1 4029   3.925   3.388   2.683
 1355TIP3    H2 4030   3.979   3.511   2.753
 1356TIP3   OH2 4031   1.097   4.029   3.461
 1356TIP3    H1 4032   1.081   4.005   3.370
 1356TIP3    H2 4033   1.034   4.099   3.479
 1357TIP3   OH2 4034   0.618   4.518   1.459
 1357TIP3    H1 4035   0.635   4.428   1.432
 1357TIP3    H2 4036   0.670   4.529   1.539
 1358TIP3   OH2 4037   3.531   5.977   2.460
 1358TIP3    H1 4038   3.615   5.951   2.422
 1358TIP3    H2 4039   3.550   6.056   2.509
 1359TIP3   OH2 4040   6.738   3.304   4.542
 1359TIP3    H1 4041   6.825   3.336   4.516
 1359TIP3    H2 4042   6.749   3.209   4.545
 1360TIP3   OH2 4043   5.682   0.609   1.501
 1360TIP3    H1 4044   5.627   0.560   1.441
 1360TIP3    H2 4045   5.708   0.687   1.451
 1361TIP3   OH2 4046   5.618   1.774   1.820
 1361TIP3    H1 4047   5.593   1.832   1.892
 1361TIP3    H2 4048   5.608   1.686   1.856
 1362TIP3   OH2 4049   7.059   3.013   1.013
 1362TIP3    H1 4050   7.067   3.033   1.106
 1362TIP3    H2 4051   7.063   3.099   0.970
 1363TIP3   OH2 4052   0.404   3.208   3.137
 1363TIP3    H1 4053   0.414   3.211   3.042
 1363TIP3    H2 4054   0.334   3.271   3.156
 1364TIP3   OH2 4055   2.482   5.568   1.020
 1364TIP3    H1 4056   2.404   5.512   1.017
 1364TIP3    H2 4057   2.533   5.541   0.944
 1365TIP3   OH2 4058   2.305   2.308   2.555
 1365TIP3    H1 4059   2.351   2.391   2.539
 1365TIP3    H2 4060   2.319   2.291   2.649
 1366TIP3   OH2 4061   0.936   1.597   1.076
 1366TIP3    H1 4062   1.003   1.590   1.008
 1366TIP3    H2 4063   0.854   1.587   1.029
 1367TIP3   OH2 4064   4.235   1.122   3.654
 1367TIP3    H1 4065   4.239   1.216   3.636
 1367TIP3    H2 4066   4.194   1.084   3.577
 1368TIP3   OH2 4067   0.216   6.043   0.930
 1368TIP3    H1 4068   0.158   5.991   0.874
 1368TIP3    H2 4069   0.253   6.109   0.872
 1369TIP3   OH2 4070   4.264   5.373   4.163
 1369TIP3    H1 4071   4.186   5.426   4.148
 1369TIP3    H2 4072   4.277   5.375   4.258
 1370TIP3   OH2 4073   4.610   6.712   3.817
 1370TIP3    H1 4074   4.522   6.747   3.808
 1370TIP3    H2 4075   4.645   6.756   3.895
 1371TIP3   OH2 4076   3.264   4.775   4.090
 1371TIP3    H1 4077   3.295   4.693   4.128
 1371TIP3    H2 4078   3.240   4.829   4.165
 1372TIP3   OH2 4079   2.304   0.915   0.967
 1372TIP3    H1 4080   2.242   0.847   0.995
 1372TIP3    H2 4081   2.266   0.997   1.000
 1373TIP3   OH2 4082   1.082   4.219   5.277
 1373TIP3    H1 4083   1.120   4.281   5.216
 1373TIP3    H2 4084   1.026   4.272   5.334
 1374TIP3   OH2 4085   5.094   4.631   4.147
 1374TIP3    H1 4086   5.189   4.627   4.144
 1374TIP3    H2 4087   5.072   4.720   4.121
 1375TIP3   OH2 4088   3.599   0.265   5.598
 1375TIP3    H1 4089   3.666   0.203   5.571
 1375TIP3    H2 4090   3.643   0.323   5.660
 1376TIP3   OH2 4091   3.462   5.050   3.820
 1376TIP3    H1 4092   3.414   5.072   3.900
 1376TIP3    H2 4093   3.553   5.040   3.848
 1377TIP3   OH2 4094   6.823   4.983   2.979
 1377TIP3    H1 4095   6.760   4.946   3.041
 1377TIP3    H2 4096   6.779   4.975   2.894
 1378TIP3   OH2 4097   1.605   1.139   3.325
 1378TIP3    H1 4098   1.693   1.168   3.348
 1378TIP3    H2 4099   1.570   1.101   3.405
 1379TIP3   OH2 4100   2.691   4.704   4.101
 1379TIP3    H1 4101   2.779   4.668   4.092
 1379TIP3    H2 4102   2.656   4.704   4.012
 1380TIP3   OH2 4103   1.613   0.721   1.392
 1380TIP3    H1 4104   1.580   0.730   1.481
 1380TIP3    H2 4105   1.606   0.628   1.372
 1381TIP3   OH2 4106   4.056   4.627   4.217
 1381TIP3    H1 4107   4.076   4.691   4.285
 1381TIP3    H2 4108   4.134   4.626   4.161
 1382TIP3   OH2 4109   1.178   6.747   0.141
 1382TIP3    H1 4110   1.182   6.840   0.117
 1382TIP3    H2 4111   1.143   6.746   0.230
 1383TIP3   OH2 4112   1.219   5.969   2.732
 1383TIP3    H1 4113   1.253   6.010   2.812
 1383TIP3    H2 4114   1.223   5.875   2.750
 1384TIP3   OH2 4115   2.339   1.873   0.987
 1384TIP3    H1 4116   2.262   1.864   0.931
 1384TIP3    H2 4117   2.367   1.784   1.005
 1385TIP3   OH2 4118   2.738   0.107   0.840
 1385TIP3    H1 4119   2.810   0.052   0.810
 1385TIP3    H2 4120   2.686   0.125   0.761
 1386TIP3   OH2 4121   5.662   5.395   5.857
 1386TIP3    H1 4122   5.605   5.396   5.780
 1386TIP3    H2 4123   5.636   5.316   5.905
 1387TIP3   OH2 4124   6.598   0.246   2.539
 1387TIP3    H1 4125   6.535   0.293   2.484
 1387TIP3    H2 4126   6.569   0.155   2.537
 1388TIP3   OH2 4127   0.897   5.320   5.437
 1388TIP3    H1 4128   0.928   5.372   5.510
 1388TIP3    H2 4129   0.950   5.350   5.362
 1389TIP3   OH2 4130   0.500   2.438   1.722
 1389TIP3    H1 4131   0.420   2.439   1.774
 1389TIP3    H2 4132   0.472   2.411   1.634
 1390TIP3   OH2 4133   0.330   0.589   0.205
 1390TIP3    H1 4134   0.376   0.518   0.250
 1390TIP3    H2 4135   0.355   0.668   0.253
 1391TIP3   OH2 4136   5.892   5.486   5.637
 1391TIP3    H1 4137   5.824   5.515   5.698
 1391TIP3    H2 4138   5.849   5.417   5.586
 1392TIP3   OH2 4139   5.909   1.647   2.897
 1392TIP3    H1 4140   5.920   1.695   2.815
 1392TIP3    H2 4141   5.980   1.583   2.898
 1393TIP3   OH2 4142   6.080   1.956   5.471
 1393TIP3    H1 4143   6.073   2.050   5.455
 1393TIP3    H2 4144   6.023   1.916   5.405
 1394TIP3   OH2 4145   0.887   6.242   1.721
 1394TIP3    H1 4146   0.969   6.250   1.673
 1394TIP3    H2 4147   0.906   6.177   1.789
 1395TIP3   OH2 4148   6.029   5.405   1.431
 1395TIP3    H1 4149   5.982   5.340   1.483
 1395TIP3    H2 4150   5.985   5.404   1.346
 1396TIP3   OH2 4151   1.833   0.936   4.264
 1396TIP3    H1 4152   1.749   0.954   4.306
 1396TIP3    H2 4153   1.872   1.022   4.247
 1397TIP3   OH2 4154   2.346   5.836   0.201
 1397TIP3    H1 4155   2.440   5.845   0.216
 1397TIP3    H2 4156   2.331   5.881   0.118
 1398TIP3   OH2 4157   6.001   6.373   1.758
 1398TIP3    H1 4158   6.035   6.308   1.696
 1398TIP3    H2 4159   5.924   6.410   1.714
 1399TIP3   OH2 4160   7.147   0.417   0.076
 1399TIP3    H1 4161   7.216   0.479   0.055
 1399TIP3    H2 4162   7.152   0.350   0.008
 1400TIP3   OH2 4163   2.830   4.359   3.368
 1400TIP3    H1 4164   2.873   4.277   3.342
 1400TIP3    H2 4165   2.790   4.340   3.452
 1401TIP3   OH2 4166   6.915   5.546   3.422
 1401TIP3    H1 4167   6.870   5.600   3.356
 1401TIP3    H2 4168   6.911   5.598   3.502
 1402TIP3   OH2 4169   1.671   6.242   3.221
 1402TIP3    H1 4170   1.616   6.196   3.158
 1402TIP3    H2 4171   1.667   6.333   3.194
 1403TIP3   OH2 4172   7.169   4.731   1.708
 1403TIP3    H1 4173   7.177   4.746   1.802
 1403TIP3    H2 4174   7.078   4.753   1.688
 1404TIP3   OH2 4175   4.104   5.312   4.647
 1404TIP3    H1 4176   4.162   5.274   4.714
 1404TIP3    H2 4177   4.088   5.240   4.586
 1405TIP3   OH2 4178   7.170   1.100   4.586
 1405TIP3    H1 4179   7.114   1.114   4.662
 1405TIP3    H2 4180   7.252   1.066   4.623
 1406TIP3   OH2 4181   5.786   0.946   2.168
 1406TIP3    H1 4182   5.812   0.945   2.076
 1406TIP3    H2 4183   5.846   1.008   2.209
 1407TIP3   OH2 4184   0.797   5.450   2.969
 1407TIP3    H1 4185   0.747   5.401   2.903
 1407TIP3    H2 4186   0.750   5.533   2.977
 1408TIP3   OH2 4187   0.396   3.504   5.540
 1408TIP3    H1 4188   0.367   3.428   5.591
 1408TIP3    H2 4189   0.394   3.577   5.603
 1409TIP3   OH2 4190   3.820   6.179   3.367
 1409TIP3    H1 4191   3.764   6.102   3.375
 1409TIP3    H2 4192   3.888   6.153   3.304
 1410TIP3   OH2 4193   4.905   2.519   4.374
 1410TIP3    H1 4194   4.830   2.473   4.410
 1410TIP3    H2 4195   4.963   2.533   4.449
 1411TIP3   OH2 4196   5.978   3.017   3.721
 1411TIP3    H1 4197   6.045   3.081   3.747
 1411TIP3    H2 4198   5.956   3.040   3.631
 1412TIP3   OH2 4199   1.889   6.435   5.052
 1412TIP3    H1 4200   1.921   6.416   5.140
 1412TIP3    H2 4201   1.850   6.353   5.022
 1413TIP3   OH2 4202   3.232   0.401   4.099
 1413TIP3    H1 4203   3.238   0.309   4.073
 1413TIP3    H2 4204   3.271   0.403   4.187
 1414TIP3   OH2 4205   4.155   5.885   0.464
 1414TIP3    H1 4206   4.105   5.961   0.433
 1414TIP3    H2 4207   4.153   5.892   0.559
 1415TIP3   OH2 4208   6.580   0.490   1.465
 1415TIP3    H1 4209   6.537   0.404   1.468
 1415TIP3    H2 4210   6.540   0.535   1.391
 1416TIP3   OH2 4211   0.302   3.102   4.250
 1416TIP3    H1 4212   0.233   3.168   4.258
 1416TIP3    H2 4213   0.272   3.029   4.304
 1417TIP3   OH2 4214   3.447   1.359   0.041
 1417TIP3    H1 4215   3.513   1.388   0.104
 1417TIP3    H2 4216   3.390   1.435   0.029
 1418TIP3   OH2 4217   3.293   5.905   5.053
 1418TIP3    H1 4218   3.209   5.860   5.056
 1418TIP3    H2 4219   3.278   5.988   5.099
 1419TIP3   OH2 4220   0.037   2.797   4.803
 1419TIP3    H1 4221   0.131   2.809   4.798
 1419TIP3    H2 4222   0.001   2.885   4.790
 1420TIP3   OH2 4223   6.789   0.166   5.280
 1420TIP3    H1 4224   6.878   0.152   5.247
 1420TIP3    H2 4225   6.798   0.161   5.375
 1421TIP3   OH2 4226   5.863   6.161   1.361
 1421TIP3    H1 4227   5.871   6.246   1.317
 1421TIP3    H2 4228   5.952   6.125   1.360
 1422TIP3   OH2 4229   1.846   6.394   2.326
 1422TIP3    H1 4230   1.851   6.434   2.413
 1422TIP3    H2 4231   1.882   6.306   2.338
 1423TIP3   OH2 4232   2.031   6.453   4.576
 1423TIP3    H1 4233   2.036   6.535   4.626
 1423TIP3    H2 4234   1.946   6.457   4.533
 1424TIP3   OH2 4235   6.935   2.542   0.243
 1424TIP3    H1 4236   6.979   2.457   0.252
 1424TIP3    H2 4237   6.981   2.599   0.306
 1425TIP3   OH2 4238   1.900   3.862   5.249
 1425TIP3    H1 4239   1.902   3.785   5.191
 1425TIP3    H2 4240   1.988   3.865   5.287
 1426TIP3   OH2 4241   6.134   5.643   2.899
 1426TIP3    H1 4242   6.154   5.697   2.823
 1426TIP3    H2 4243   6.043   5.665   2.921
 1427TIP3   OH2 4244   5.862   1.764   4.513
 1427TIP3    H1 4245   5.792   1.793   4.454
 1427TIP3    H2 4246   5.861   1.829   4.583
 1428TIP3   OH2 4247   5.446   6.431   3.036
 1428TIP3    H1 4248   5.498   6.465   3.109
 1428TIP3    H2 4249   5.361   6.410   3.074
 1429TIP3   OH2 4250   3.065   1.169   5.596
 1429TIP3    H1 4251   2.978   1.131   5.587
 1429TIP3    H2 4252   3.052   1.263   5.585
 1430TIP3   OH2 4253   2.099   1.964   0.308
 1430TIP3    H1 4254   2.177   1.954   0.363
 1430TIP3    H2 4255   2.048   1.885   0.324
 1431TIP3   OH2 4256   0.106   5.603   5.537
 1431TIP3    H1 4257   0.038   5.670   5.544
 1431TIP3    H2 4258   0.069   5.526   5.579
 1432TIP3   OH2 4259   2.837   6.125   1.489
 1432TIP3    H1 4260   2.839   6.129   1.393
 1432TIP3    H2 4261   2.779   6.051   1.508
 1433TIP3   OH2 4262   0.630   6.216   1.345
 1433TIP3    H1 4263   0.682   6.164   1.283
 1433TIP3    H2 4264   0.557   6.249   1.293
 1434TIP3   OH2 4265   0.650   2.248   4.601
 1434TIP3    H1 4266   0.665   2.154   4.608
 1434TIP3    H2 4267   0.723   2.288   4.649
 1435TIP3   OH2 4268   5.486   4.662   0.575
 1435TIP3    H1 4269   5.496   4.650   0.669
 1435TIP3    H2 4270   5.455   4.577   0.543
 1436TIP3   OH2 4271   1.054   4.443   1.105
 1436TIP3    H1 4272   1.106   4.484   1.175
 1436TIP3    H2 4273   1.113   4.441   1.030
 1437TIP3   OH2 4274   1.895   4.723   0.373
 1437TIP3    H1 4275   1.982   4.689   0.351
 1437TIP3    H2 4276   1.910   4.814   0.397
 1438TIP3   OH2 4277   0.623   5.675   2.974
 1438TIP3    H1 4278   0.556   5.659   3.040
 1438TIP3    H2 4279   0.589   5.750   2.924
 1439TIP3   OH2 4280   2.529   2.090   2.632
 1439TIP3    H1 4281   2.463   2.153   2.659
 1439TIP3    H2 4282   2.480   2.020   2.588
 1440TIP3   OH2 4283   1.268   3.884   4.948
 1440TIP3    H1 4284   1.363   3.884   4.933
 1440TIP3    H2 4285   1.235   3.813   4.894
 1441TIP3   OH2 4286   0.994   5.055   2.497
 1441TIP3    H1 4287   1.026   4.987   2.555
 1441TIP3    H2 4288   0.950   5.117   2.554
 1442TIP3   OH2 4289   4.004   3.058   3.826
 1442TIP3    H1 4290   3.976   3.052   3.735
 1442TIP3    H2 4291   4.088   3.012   3.828
 1443TIP3   OH2 4292   2.723   0.895   1.292
 1443TIP3    H1 4293   2.803   0.940   1.265
 1443TIP3    H2 4294   2.665   0.902   1.216
 1444TIP3   OH2 4295   1.124   4.880   2.642
 1444TIP3    H1 4296   1.183   4.806   2.628
 1444TIP3    H2 4297   1.178   4.948   2.681
 1445TIP3   OH2 4298   1.286   6.649   4.555
 1445TIP3    H1 4299   1.254   6.739   4.556
 1445TIP3    H2 4300   1.381   6.657   4.551
 1446TIP3   OH2 4301   5.423   4.815   2.507
 1446TIP3    H1 4302   5.432   4.871   2.429
 1446TIP3    H2 4303   5.370   4.867   2.567
 1447TIP3   OH2 4304   5.030   6.189   4.997
 1447TIP3    H1 4305   5.014   6.208   4.905
 1447TIP3    H2 4306   5.113   6.141   4.998
 1448TIP3   OH2 4307   5.530   2.948   0.197
 1448TIP3    H1 4308   5.487   3.017   0.248
 1448TIP3    H2 4309   5.470   2.874   0.201
 1449TIP3   OH2 4310   4.358   4.374   5.727
 1449TIP3    H1 4311   4.412   4.368   5.806
 1449TIP3    H2 4312   4.344   4.468   5.715
 1450TIP3   OH2 4313   2.718   6.762   1.275
 1450TIP3    H1 4314   2.743   6.713   1.197
 1450TIP3    H2 4315   2.733   6.701   1.347
 1451TIP3   OH2 4316   1.094   3.926   4.044
 1451TIP3    H1 4317   1.156   3.859   4.017
 1451TIP3    H2 4318   1.085   3.982   3.967
 1452TIP3   OH2 4319   6.113   4.839   4.034
 1452TIP3    H1 4320   6.026   4.840   4.074
 1452TIP3    H2 4321   6.100   4.802   3.947
 1453TIP3   OH2 4322   5.469   0.518   0.406
 1453TIP3    H1 4323   5.478   0.441   0.349
 1453TIP3    H2 4324   5.477   0.593   0.348
 1454TIP3   OH2 4325   5.007   3.759   5.790
 1454TIP3    H1 4326   5.052   3.794   5.713
 1454TIP3    H2 4327   4.915   3.752   5.763
 1455TIP3   OH2 4328   4.773   0.235   5.572
 1455TIP3    H1 4329   4.819   0.183   5.506
 1455TIP3    H2 4330   4.817   0.215   5.654
 1456TIP3   OH2 4331   1.841   5.206   4.046
 1456TIP3    H1 4332   1.781   5.135   4.069
 1456TIP3    H2 4333   1.922   5.163   4.020
 1457TIP3   OH2 4334   3.196   6.126   5.197
 1457TIP3    H1 4335   3.228   6.091   5.281
 1457TIP3    H2 4336   3.196   6.221   5.209
 1458TIP3   OH2 4337   0.150   6.461   3.637
 1458TIP3    H1 4338   0.164   6.555   3.630
 1458TIP3    H2 4339   0.148   6.430   3.546
 1459TIP3   OH2 4340   4.038   6.819   1.111
 1459TIP3    H1 4341   4.036   6.783   1.200
 1459TIP3    H2 4342   4.005   6.747   1.056
 1460TIP3   OH2 4343   6.964   3.676   2.210
 1460TIP3    H1 4344   7.008   3.632   2.138
 1460TIP3    H2 4345   6.901   3.734   2.168
 1461TIP3   OH2 4346   0.655   1.871   5.308
 1461TIP3    H1 4347   0.642   1.911   5.222
 1461TIP3    H2 4348   0.575   1.891   5.356
 1462TIP3   OH2 4349   6.042   4.114   4.625
 1462TIP3    H1 4350   6.059   4.208   4.621
 1462TIP3    H2 4351   5.954   4.105   4.587
 1463TIP3   OH2 4352   7.195   1.733   4.652
 1463TIP3    H1 4353   7.278   1.687   4.640
 1463TIP3    H2 4354   7.148   1.719   4.569
 1464TIP3   OH2 4355   6.978   4.692   1.103
 1464TIP3    H1 4356   7.021   4.774   1.126
 1464TIP3    H2 4357   6.887   4.704   1.128
 1465TIP3   OH2 4358   3.306   3.238   3.693
 1465TIP3    H1 4359   3.393   3.266   3.664
 1465TIP3    H2 4360   3.260   3.320   3.713
 1466TIP3   OH2 4361   2.315   2.161   2.317
 1466TIP3    H1 4362   2.364   2.236   2.285
 1466TIP3    H2 4363   2.284   2.187   2.404
 1467TIP3   OH2 4364   2.169   0.914   2.876
 1467TIP3    H1 4365   2.140   0.866   2.953
 1467TIP3    H2 4366   2.265   0.907   2.877
 1468TIP3   OH2 4367   0.849   0.126   0.073
 1468TIP3    H1 4368   0.846   0.151  -0.019
 1468TIP3    H2 4369   0.837   0.208   0.121
 1469TIP3   OH2 4370  -0.017   1.433   2.757
 1469TIP3    H1 4371  -0.018   1.436   2.661
 1469TIP3    H2 4372   0.058   1.488   2.781
 1470TIP3   OH2 4373   1.122   0.307   0.195
 1470TIP3    H1 4374   1.136   0.290   0.102
 1470TIP3    H2 4375   1.028   0.325   0.201
 1471TIP3   OH2 4376   5.548   5.649   0.379
 1471TIP3    H1 4377   5.607   5.599   0.324
 1471TIP3    H2 4378   5.528   5.591   0.452
 1472TIP3   OH2 4379   0.274   6.353   3.875
 1472TIP3    H1 4380   0.214   6.409   3.925
 1472TIP3    H2 4381   0.232   6.343   3.790
 1473TIP3   OH2 4382   4.582   5.355   2.754
 1473TIP3    H1 4383   4.611   5.355   2.663
 1473TIP3    H2 4384   4.663   5.362   2.804
 1474TIP3   OH2 4385   1.458   3.239   0.038
 1474TIP3    H1 4386   1.454   3.150   0.001
 1474TIP3    H2 4387   1.461   3.225   0.132
 1475TIP3   OH2 4388   1.559   3.112   5.039
 1475TIP3    H1 4389   1.637   3.156   5.072
 1475TIP3    H2 4390   1.574   3.104   4.945
 1476TIP3   OH2 4391   2.512   3.933   4.553
 1476TIP3    H1 4392   2.507   3.857   4.612
 1476TIP3    H2 4393   2.430   3.930   4.504
 1477TIP3   OH2 4394   1.872   5.103   2.778
 1477TIP3    H1 4395   1.933   5.079   2.847
 1477TIP3    H2 4396   1.798   5.143   2.824
 1478TIP3   OH2 4397   5.159   6.117   4.194
 1478TIP3    H1 4398   5.099   6.156   4.259
 1478TIP3    H2 4399   5.244   6.156   4.213
 1479TIP3   OH2 4400   5.305   3.711   4.319
 1479TIP3    H1 4401   5.311   3.802   4.347
 1479TIP3    H2 4402   5.341   3.710   4.231
 1480TIP3   OH2 4403   4.563   6.505   1.968
 1480TIP3    H1 4404   4.609   6.426   1.941
 1480TIP3    H2 4405   4.616   6.577   1.933
 1481TIP3   OH2 4406   0.818   1.311   2.013
 1481TIP3    H1 4407   0.809   1.359   2.095
 1481TIP3    H2 4408   0.822   1.378   1.946
 1482TIP3   OH2 4409   4.211   3.111   0.696
 1482TIP3    H1 4410   4.268   3.058   0.752
 1482TIP3    H2 4411   4.271   3.166   0.646
 1483TIP3   OH2 4412   6.650   5.695   0.271
 1483TIP3    H1 4413   6.677   5.671   0.360
 1483TIP3    H2 4414   6.555   5.703   0.277
 1484TIP3   OH2 4415   3.564   3.285   3.889
 1484TIP3    H1 4416   3.632   3.233   3.847
 1484TIP3    H2 4417   3.595   3.298   3.978
 1485TIP3   OH2 4418   0.819   3.830   4.092
 1485TIP3    H1 4419   0.911   3.844   4.068
 1485TIP3    H2 4420   0.821   3.808   4.185
 1486TIP3   OH2 4421   6.241   5.708   2.045
 1486TIP3    H1 4422   6.222   5.741   2.133
 1486TIP3    H2 4423   6.203   5.620   2.044
 1487TIP3   OH2 4424   2.376   6.756   3.246
 1487TIP3    H1 4425   2.368   6.816   3.173
 1487TIP3    H2 4426   2.308   6.784   3.308
 1488TIP3   OH2 4427   4.078   6.801   2.506
 1488TIP3    H1 4428   4.025   6.787   2.428
 1488TIP3    H2 4429   4.067   6.720   2.557
 1489TIP3   OH2 4430   2.086   3.623   5.539
 1489TIP3    H1 4431   2.086   3.558   5.609
 1489TIP3    H2 4432   1.993   3.633   5.515
 1490TIP3   OH2 4433   5.568   0.851   3.605
 1490TIP3    H1 4434   5.557   0.912   3.677
 1490TIP3    H2 4435   5.503   0.878   3.539
 1491TIP3   OH2 4436   5.519   1.333   3.499
 1491TIP3    H1 4437   5.611   1.358   3.503
 1491TIP3    H2 4438   5.508   1.270   3.570
 1492TIP3   OH2 4439   1.304   2.423   1.763
 1492TIP3    H1 4440   1.323   2.488   1.695
 1492TIP3    H2 4441   1.390   2.393   1.791
 1493TIP3   OH2 4442   1.265   2.401   2.074
 1493TIP3    H1 4443   1.197   2.438   2.017
 1493TIP3    H2 4444   1.347   2.426   2.032
 1494TIP3   OH2 4445   0.460   1.846   4.251
 1494TIP3    H1 4446   0.376   1.890   4.236
 1494TIP3    H2 4447   0.443   1.755   4.230
 1495TIP3   OH2 4448   2.570   5.728   3.350
 1495TIP3    H1 4449   2.656   5.752   3.316
 1495TIP3    H2 4450   2.517   5.712   3.271
 1496TIP3   OH2 4451   2.605   0.601   5.479
 1496TIP3    H1 4452   2.657   0.541   5.533
 1496TIP3    H2 4453   2.537   0.545   5.440
 1497TIP3   OH2 4454   3.303   3.951   1.410
 1497TIP3    H1 4455   3.316   3.856   1.410
 1497TIP3    H2 4456   3.368   3.983   1.348
 1498TIP3   OH2 4457   0.843   2.717   4.204
 1498TIP3    H1 4458   0.836   2.792   4.145
 1498TIP3    H2 4459   0.760   2.672   4.196
 1499TIP3   OH2 4460   4.157   1.288   0.358
 1499TIP3    H1 4461   4.241   1.333   0.369
 1499TIP3    H2 4462   4.102   1.350   0.310
 1500TIP3   OH2 4463   3.958   3.769   1.215
 1500TIP3    H1 4464   3.890   3.745   1.152
 1500TIP3    H2 4465   3.981   3.859   1.193
 1501TIP3   OH2 4466   6.670   2.780   4.128
 1501TIP3    H1 4467   6.683   2.686   4.116
 1501TIP3    H2 4468   6.703   2.820   4.048
 1502TIP3   OH2 4469   4.074   5.426   5.204
 1502TIP3    H1 4470   4.057   5.400   5.113
 1502TIP3    H2 4471   4.133   5.501   5.196
 1503TIP3   OH2 4472   2.759   0.084   1.884
 1503TIP3    H1 4473   2.759   0.067   1.790
 1503TIP3    H2 4474   2.768   0.179   1.891
 1504TIP3   OH2 4475   7.166   2.360   2.739
 1504TIP3    H1 4476   7.082   2.370   2.695
 1504TIP3    H2 4477   7.230   2.358   2.668
 1505TIP3   OH2 4478   2.162   2.086   1.675
 1505TIP3    H1 4479   2.217   2.009   1.691
 1505TIP3    H2 4480   2.076   2.050   1.654
 1506TIP3   OH2 4481   3.294   6.403   4.620
 1506TIP3    H1 4482   3.345   6.387   4.699
 1506TIP3    H2 4483   3.222   6.459   4.649
 1507TIP3   OH2 4484   6.760   4.660   1.952
 1507TIP3    H1 4485   6.750   4.702   2.038
 1507TIP3    H2 4486   6.700   4.708   1.895
 1508TIP3   OH2 4487   4.527   5.451   4.027
 1508TIP3    H1 4488   4.497   5.534   4.064
 1508TIP3    H2 4489   4.470   5.385   4.068
 1509TIP3   OH2 4490   7.054   5.339   3.763
 1509TIP3    H1 4491   7.084   5.314   3.851
 1509TIP3    H2 4492   6.961   5.355   3.773
 1510TIP3   OH2 4493   2.191   5.206   4.758
 1510TIP3    H1 4494   2.261   5.271   4.762
 1510TIP3    H2 4495   2.134   5.237   4.688
 1511TIP3   OH2 4496   3.611   4.163   1.046
 1511TIP3    H1 4497   3.597   4.116   0.964
 1511TIP3    H2 4498   3.621   4.255   1.019
 1512TIP3   OH2 4499   4.491   5.089   2.011
 1512TIP3    H1 4500   4.520   5.143   1.938
 1512TIP3    H2 4501   4.478   5.151   2.083
 1513TIP3   OH2 4502   6.882   1.023   1.207
 1513TIP3    H1 4503   6.854   0.987   1.291
 1513TIP3    H2 4504   6.871   0.951   1.145
 1514TIP3   OH2 4505   4.654   3.451   1.343
 1514TIP3    H1 4506   4.558   3.458   1.339
 1514TIP3    H2 4507   4.685   3.535   1.310
 1515TIP3   OH2 4508   3.936   0.687   2.001
 1515TIP3    H1 4509   3.945   0.600   1.960
 1515TIP3    H2 4510   3.843   0.695   2.020
 1516TIP3   OH2 4511   3.114   2.127   2.045
 1516TIP3    H1 4512   3.021   2.124   2.064
 1516TIP3    H2 4513   3.154   2.155   2.127
 1517TIP3   OH2 4514   5.143   4.194   3.580
 1517TIP3    H1 4515   5.140   4.254   3.655
 1517TIP3    H2 4516   5.158   4.108   3.620
 1518TIP3   OH2 4517   2.063   4.706   5.052
 1518TIP3    H1 4518   1.983   4.758   5.062
 1518TIP3    H2 4519   2.134   4.771   5.054
 1519TIP3   OH2 4520   3.719   5.981   3.749
 1519TIP3    H1 4521   3.688   5.944   3.831
 1519TIP3    H2 4522   3.672   6.064   3.741
 1520TIP3   OH2 4523   5.359   0.781   4.239
 1520TIP3    H1 4524   5.285   0.830   4.274
 1520TIP3    H2 4525   5.414   0.764   4.316
 1521TIP3   OH2 4526   4.306   5.785   4.762
 1521TIP3    H1 4527   4.292   5.691   4.754
 1521TIP3    H2 4528   4.369   5.794   4.834
 1522TIP3   OH2 4529   0.302   2.321   5.840
 1522TIP3    H1 4530   0.319   2.415   5.832
 1522TIP3    H2 4531   0.295   2.305   5.934
 1523TIP3   OH2 4532   2.891   2.120   5.533
 1523TIP3    H1 4533   2.873   2.089   5.444
 1523TIP3    H2 4534   2.944   2.199   5.521
 1524TIP3   OH2 4535   5.340   2.442   2.209
 1524TIP3    H1 4536   5.302   2.391   2.137
 1524TIP3    H2 4537   5.308   2.531   2.195
 1525TIP3   OH2 4538   2.323   6.354   1.536
 1525TIP3    H1 4539   2.365   6.392   1.614
 1525TIP3    H2 4540   2.387   6.291   1.503
 1526TIP3   OH2 4541   4.926   3.336   2.152
 1526TIP3    H1 4542   4.954   3.250   2.181
 1526TIP3    H2 4543   4.830   3.331   2.151
 1527TIP3   OH2 4544   1.308   5.259   4.853
 1527TIP3    H1 4545   1.359   5.216   4.922
 1527TIP3    H2 4546   1.274   5.186   4.800
 1528TIP3   OH2 4547   0.721   1.141   5.318
 1528TIP3    H1 4548   0.815   1.162   5.324
 1528TIP3    H2 4549   0.717   1.072   5.251
 1529TIP3   OH2 4550   0.716   0.639   5.683
 1529TIP3    H1 4551   0.734   0.668   5.594
 1529TIP3    H2 4552   0.769   0.697   5.738
 1530TIP3   OH2 4553   6.097   1.049   4.978
 1530TIP3    H1 4554   6.096   1.041   5.073
 1530TIP3    H2 4555   6.005   1.059   4.954
 1531TIP3   OH2 4556   6.431   5.633   2.528
 1531TIP3    H1 4557   6.505   5.589   2.486
 1531TIP3    H2 4558   6.384   5.563   2.574
 1532TIP3   OH2 4559   1.927   2.620   5.609
 1532TIP3    H1 4560   1.961   2.535   5.578
 1532TIP3    H2 4561   2.005   2.665   5.643
 1533TIP3   OH2 4562   6.771   0.652   2.677
 1533TIP3    H1 4563   6.839   0.587   2.696
 1533TIP3    H2 4564   6.795   0.728   2.730
 1534TIP3   OH2 4565   3.983   6.736   2.022
 1534TIP3    H1 4566   4.035   6.726   2.101
 1534TIP3    H2 4567   3.999   6.657   1.972
 1535TIP3   OH2 4568   5.034   2.831   1.010
 1535TIP3    H1 4569   5.088   2.829   0.931
 1535TIP3    H2 4570   5.019   2.739   1.032
 1536TIP3   OH2 4571   2.326   3.885   3.280
 1536TIP3    H1 4572   2.419   3.883   3.260
 1536TIP3    H2 4573   2.296   3.970   3.247
 1537TIP3   OH2 4574   6.148   1.569   2.107
 1537TIP3    H1 4575   6.072   1.619   2.077
 1537TIP3    H2 4576   6.151   1.494   2.049
 1538TIP3   OH2 4577   0.751   0.327   3.799
 1538TIP3    H1 4578   0.738   0.413   3.757
 1538TIP3    H2 4579   0.737   0.344   3.892
 1539TIP3   OH2 4580   2.061   0.604   0.333
 1539TIP3    H1 4581   1.970   0.627   0.315
 1539TIP3    H2 4582   2.084   0.540   0.265
 1540TIP3   OH2 4583   3.843   0.298   2.451
 1540TIP3    H1 4584   3.798   0.285   2.534
 1540TIP3    H2 4585   3.777   0.275   2.385
 1541TIP3   OH2 4586   1.355   3.031   1.098
 1541TIP3    H1 4587   1.300   3.055   1.024
 1541TIP3    H2 4588   1.444   3.029   1.063
 1542TIP3   OH2 4589   3.526   5.427   0.363
 1542TIP3    H1 4590   3.564   5.354   0.411
 1542TIP3    H2 4591   3.599   5.486   0.347
 1543TIP3   OH2 4592   1.630   6.064   1.692
 1543TIP3    H1 4593   1.551   6.032   1.649
 1543TIP3    H2 4594   1.602   6.140   1.743
 1544TIP3   OH2 4595   6.585   6.122   4.351
 1544TIP3    H1 4596   6.585   6.217   4.344
 1544TIP3    H2 4597   6.501   6.100   4.390
 1545TIP3   OH2 4598   4.546   0.863   4.500
 1545TIP3    H1 4599   4.506   0.828   4.580
 1545TIP3    H2 4600   4.637   0.878   4.524
 1546TIP3   OH2 4601   3.382   0.405   4.319
 1546TIP3    H1 4602   3.476   0.420   4.309
 1546TIP3    H2 4603   3.367   0.403   4.413
 1547TIP3   OH2 4604   2.160   0.252   3.908
 1547TIP3    H1 4605   2.241   0.211   3.938
 1547TIP3    H2 4606   2.152   0.332   3.959
 1548TIP3   OH2 4607   3.456   6.244   1.029
 1548TIP3    H1 4608   3.513   6.280   1.097
 1548TIP3    H2 4609   3.448   6.151   1.052
 1549TIP3   OH2 4610   5.775   1.706   3.122
 1549TIP3    H1 4611   5.816   1.689   3.208
 1549TIP3    H2 4612   5.842   1.680   3.059
 1550TIP3   OH2 4613   2.994   0.177   5.873
 1550TIP3    H1 4614   3.070   0.216   5.831
 1550TIP3    H2 4615   3.030   0.107   5.928
 1551TIP3   OH2 4616   4.507   0.721   4.736
 1551TIP3    H1 4617   4.539   0.673   4.813
 1551TIP3    H2 4618   4.417   0.692   4.726
 1552TIP3   OH2 4619   0.786   3.412   4.688
 1552TIP3    H1 4620   0.747   3.381   4.770
 1552TIP3    H2 4621   0.825   3.496   4.712
 1553TIP3   OH2 4622   7.097   3.437   5.041
 1553TIP3    H1 4623   7.026   3.474   4.988
 1553TIP3    H2 4624   7.175   3.484   5.012
 1554TIP3   OH2 4625   0.726   6.639   4.491
 1554TIP3    H1 4626   0.785   6.692   4.437
 1554TIP3    H2 4627   0.659   6.608   4.430
 1555TIP3   OH2 4628   4.690   5.755   2.819
 1555TIP3    H1 4629   4.625   5.707   2.767
 1555TIP3    H2 4630   4.718   5.692   2.886
 1556TIP3   OH2 4631   4.374   3.421   4.856
 1556TIP3    H1 4632   4.381   3.458   4.768
 1556TIP3    H2 4633   4.454   3.452   4.900
 1557TIP3   OH2 4634   0.807   1.452   5.650
 1557TIP3    H1 4635   0.772   1.368   5.678
 1557TIP3    H2 4636   0.800   1.451   5.554
 1558TIP3   OH2 4637   6.186   2.763   2.583
 1558TIP3    H1 4638   6.163   2.856   2.574
 1558TIP3    H2 4639   6.127   2.731   2.651
 1559TIP3   OH2 4640   4.631   0.262   4.063
 1559TIP3    H1 4641   4.583   0.318   4.002
 1559TIP3    H2 4642   4.713   0.242   4.017
 1560TIP3   OH2 4643   6.166   3.315   2.223
 1560TIP3    H1 4644   6.156   3.354   2.136
 1560TIP3    H2 4645   6.077   3.303   2.255
 1561TIP3   OH2 4646   2.601   1.444   2.391
 1561TIP3    H1 4647   2.601   1.357   2.431
 1561TIP3    H2 4648   2.615   1.427   2.297
 1562TIP3   OH2 4649   5.434   1.527   1.887
 1562TIP3    H1 4650   5.472   1.458   1.832
 1562TIP3    H2 4651   5.387   1.479   1.955
 1563TIP3   OH2 4652   2.840   4.607   1.390
 1563TIP3    H1 4653   2.826   4.520   1.353
 1563TIP3    H2 4654   2.776   4.662   1.345
 1564TIP3   OH2 4655   4.152   0.491   5.767
 1564TIP3    H1 4656   4.132   0.440   5.845
 1564TIP3    H2 4657   4.136   0.430   5.694
 1565TIP3   OH2 4658   5.271   4.648   1.926
 1565TIP3    H1 4659   5.203   4.598   1.882
 1565TIP3    H2 4660   5.353   4.607   1.899
 1566TIP3   OH2 4661   6.145   3.753   2.612
 1566TIP3    H1 4662   6.212   3.755   2.680
 1566TIP3    H2 4663   6.147   3.841   2.574
 1567TIP3   OH2 4664   3.740   2.317   4.036
 1567TIP3    H1 4665   3.785   2.234   4.024
 1567TIP3    H2 4666   3.705   2.313   4.125
 1568TIP3   OH2 4667   2.335   4.790   2.833
 1568TIP3    H1 4668   2.415   4.786   2.886
 1568TIP3    H2 4669   2.268   4.751   2.890
 1569TIP3   OH2 4670   5.617   0.556   2.731
 1569TIP3    H1 4671   5.681   0.626   2.743
 1569TIP3    H2 4672   5.540   0.584   2.781
 1570TIP3   OH2 4673   3.230   5.921   2.281
 1570TIP3    H1 4674   3.167   5.871   2.334
 1570TIP3    H2 4675   3.178   5.953   2.207
 1571TIP3   OH2 4676   1.506   5.078   4.473
 1571TIP3    H1 4677   1.454   5.154   4.499
 1571TIP3    H2 4678   1.472   5.055   4.387
 1572TIP3   OH2 4679   3.735   6.605   1.768
 1572TIP3    H1 4680   3.726   6.677   1.831
 1572TIP3    H2 4681   3.716   6.646   1.683
 1573TIP3   OH2 4682   2.099   0.401   2.374
 1573TIP3    H1 4683   2.090   0.414   2.279
 1573TIP3    H2 4684   2.127   0.310   2.383
 1574TIP3   OH2 4685   6.782   2.845   3.880
 1574TIP3    H1 4686   6.758   2.895   3.802
 1574TIP3    H2 4687   6.870   2.812   3.862
 1575TIP3   OH2 4688   1.972   5.291   0.432
 1575TIP3    H1 4689   1.950   5.341   0.510
 1575TIP3    H2 4690   1.919   5.212   0.438
 1576TIP3   OH2 4691   7.225   6.611   5.195
 1576TIP3    H1 4692   7.147   6.556   5.204
 1576TIP3    H2 4693   7.262   6.615   5.283
 1577TIP3   OH2 4694   1.440   1.571   2.166
 1577TIP3    H1 4695   1.498   1.641   2.136
 1577TIP3    H2 4696   1.352   1.604   2.149
 1578TIP3   OH2 4697   0.368   1.645   4.826
 1578TIP3    H1 4698   0.326   1.640   4.739
 1578TIP3    H2 4699   0.384   1.739   4.839
 1579TIP3   OH2 4700   2.911   4.073   5.462
 1579TIP3    H1 4701   2.854   4.111   5.530
 1579TIP3    H2 4702   2.890   4.124   5.383
 1580TIP3   OH2 4703   0.090   2.786   0.437
 1580TIP3    H1 4704   0.112   2.782   0.530
 1580TIP3    H2 4705   0.161   2.739   0.393
 1581TIP3   OH2 4706   0.089   3.225   4.921
 1581TIP3    H1 4707   0.087   3.319   4.938
 1581TIP3    H2 4708   0.176   3.197   4.947
 1582TIP3   OH2 4709   3.584   5.147   3.152
 1582TIP3    H1 4710   3.520   5.077   3.144
 1582TIP3    H2 4711   3.533   5.227   3.141
 1583TIP3   OH2 4712   6.670   5.819   3.348
 1583TIP3    H1 4713   6.634   5.745   3.398
 1583TIP3    H2 4714   6.673   5.891   3.410
 1584TIP3   OH2 4715   0.073   2.775   2.810
 1584TIP3    H1 4716   0.103   2.804   2.896
 1584TIP3    H2 4717   0.033   2.689   2.826
 1585TIP3   OH2 4718   4.001   4.967   3.946
 1585TIP3    H1 4719   4.007   4.873   3.931
 1585TIP3    H2 4720   3.964   4.975   4.034
 1586TIP3   OH2 4721   0.011   4.400   1.717
 1586TIP3    H1 4722   0.103   4.425   1.728
 1586TIP3    H2 4723  -0.038   4.480   1.735
 1587TIP3   OH2 4724   6.828   1.928   0.123
 1587TIP3    H1 4725   6.788   1.995   0.178
 1587TIP3    H2 4726   6.902   1.972   0.082
 1588TIP3   OH2 4727   0.021   5.859   3.470
 1588TIP3    H1 4728   0.071   5.777   3.478
 1588TIP3    H2 4729   0.075   5.914   3.413
 1589TIP3   OH2 4730   3.542   0.090   2.068
 1589TIP3    H1 4731   3.466   0.058   2.018
 1589TIP3    H2 4732   3.617   0.046   2.028
 1590TIP3   OH2 4733   5.212   4.150   2.190
 1590TIP3    H1 4734   5.165   4.179   2.111
 1590TIP3    H2 4735   5.246   4.063   2.167
 1591TIP3   OH2 4736   6.723   6.294   5.129
 1591TIP3    H1 4737   6.789   6.226   5.144
 1591TIP3    H2 4738   6.641   6.253   5.157
 1592TIP3   OH2 4739   1.803   2.938   2.953
 1592TIP3    H1 4740   1.733   2.976   3.008
 1592TIP3    H2 4741   1.758   2.909   2.874
 1593TIP3   OH2 4742   3.452   5.874   1.721
 1593TIP3    H1 4743   3.391   5.946   1.735
 1593TIP3    H2 4744   3.531   5.899   1.767
 1594TIP3   OH2 4745   1.785   5.495   5.421
 1594TIP3    H1 4746   1.709   5.551   5.435
 1594TIP3    H2 4747   1.809   5.464   5.509
 1595TIP3   OH2 4748   5.577   4.084   4.673
 1595TIP3    H1 4749   5.571   4.079   4.769
 1595TIP3    H2 4750   5.579   4.178   4.654
 1596TIP3   OH2 4751   0.099   5.944   1.374
 1596TIP3    H1 4752   0.179   5.950   1.427
 1596TIP3    H2 4753   0.036   6.000   1.420
 1597TIP3   OH2 4754   0.737   2.265   0.777
 1597TIP3    H1 4755   0.811   2.225   0.732
 1597TIP3    H2 4756   0.705   2.332   0.717
 1598TIP3   OH2 4757   2.614   5.949   5.177
 1598TIP3    H1 4758   2.679   5.956   5.247
 1598TIP3    H2 4759   2.630   5.862   5.139
 1599TIP3   OH2 4760   0.933   2.502   2.298
 1599TIP3    H1 4761   0.862   2.566   2.290
 1599TIP3    H2 4762   0.920   2.463   2.385
 1600TIP3   OH2 4763   4.063   2.893   2.449
 1600TIP3    H1 4764   4.138   2.928   2.497
 1600TIP3    H2 4765   4.068   2.798   2.464
 1601TIP3   OH2 4766   4.712   5.322   0.641
 1601TIP3    H1 4767   4.698   5.336   0.735
 1601TIP3    H2 4768   4.734   5.408   0.607
 1602TIP3   OH2 4769   2.877   5.539   2.293
 1602TIP3    H1 4770   2.914   5.559   2.207
 1602TIP3    H2 4771   2.890   5.445   2.303
 1603TIP3   OH2 4772   5.463   5.945   4.224
 1603TIP3    H1 4773   5.433   5.879   4.286
 1603TIP3    H2 4774   5.440   6.029   4.263
 1604TIP3   OH2 4775   6.618   0.165   0.965
 1604TIP3    H1 4776   6.546   0.117   1.005
 1604TIP3    H2 4777   6.697   0.125   1.001
 1605TIP3   OH2 4778   2.388   0.185   5.826
 1605TIP3    H1 4779   2.469   0.150   5.863
 1605TIP3    H2 4780   2.326   0.112   5.831
 1606TIP3   OH2 4781   4.957   4.720   3.300
 1606TIP3    H1 4782   4.872   4.743   3.337
 1606TIP3    H2 4783   5.021   4.748   3.366
 1607TIP3   OH2 4784   1.398   5.438   0.867
 1607TIP3    H1 4785   1.399   5.465   0.775
 1607TIP3    H2 4786   1.470   5.487   0.907
 1608TIP3   OH2 4787   6.231   2.204   2.583
 1608TIP3    H1 4788   6.300   2.246   2.532
 1608TIP3    H2 4789   6.161   2.269   2.587
 1609TIP3   OH2 4790   6.589   0.440   3.253
 1609TIP3    H1 4791   6.602   0.357   3.206
 1609TIP3    H2 4792   6.678   0.473   3.267
 1610TIP3   OH2 4793   6.960   1.064   2.693
 1610TIP3    H1 4794   6.868   1.043   2.708
 1610TIP3    H2 4795   6.998   1.073   2.780
 1611TIP3   OH2 4796   4.745   1.876   1.911
 1611TIP3    H1 4797   4.684   1.829   1.854
 1611TIP3    H2 4798   4.810   1.913   1.851
 1612TIP3   OH2 4799   6.207   4.327   3.668
 1612TIP3    H1 4800   6.291   4.322   3.622
 1612TIP3    H2 4801   6.189   4.237   3.696
 1613TIP3   OH2 4802   6.824   1.035   2.041
 1613TIP3    H1 4803   6.879   1.062   2.114
 1613TIP3    H2 4804   6.773   0.961   2.075
 1614TIP3   OH2 4805   2.351   6.744   4.685
 1614TIP3    H1 4806   2.339   6.814   4.621
 1614TIP3    H2 4807   2.361   6.665   4.632
 1615TIP3   OH2 4808   1.343   6.242   0.486
 1615TIP3    H1 4809   1.289   6.171   0.450
 1615TIP3    H2 4810   1.432   6.206   0.488
 1616TIP3   OH2 4811   4.729   0.967   5.569
 1616TIP3    H1 4812   4.698   0.879   5.548
 1616TIP3    H2 4813   4.822   0.966   5.547
 1617TIP3   OH2 4814   1.102   5.843   5.276
 1617TIP3    H1 4815   1.153   5.795   5.212
 1617TIP3    H2 4816   1.013   5.807   5.268
 1618TIP3   OH2 4817   4.628   1.551   1.269
 1618TIP3    H1 4818   4.701   1.489   1.269
 1618TIP3    H2 4819   4.579   1.529   1.348
 1619TIP3   OH2 4820   3.561   1.286   0.444
 1619TIP3    H1 4821   3.474   1.323   0.428
 1619TIP3    H2 4822   3.614   1.361   0.470
 1620TIP3   OH2 4823   4.921   3.746   5.218
 1620TIP3    H1 4824   4.942   3.837   5.238
 1620TIP3    H2 4825   4.828   3.747   5.197
 1621TIP3   OH2 4826   4.701   0.254   5.098
 1621TIP3    H1 4827   4.776   0.285   5.148
 1621TIP3    H2 4828   4.737   0.185   5.042
 1622TIP3   OH2 4829   1.855   0.746   3.770
 1622TIP3    H1 4830   1.782   0.775   3.825
 1622TIP3    H2 4831   1.831   0.657   3.743
 1623TIP3   OH2 4832   0.835   0.512   2.632
 1623TIP3    H1 4833   0.815   0.427   2.595
 1623TIP3    H2 4834   0.925   0.505   2.663
 1624TIP3   OH2 4835   3.882   1.168   2.458
 1624TIP3    H1 4836   3.912   1.258   2.466
 1624TIP3    H2 4837   3.955   1.115   2.490
 1625TIP3   OH2 4838   2.675   6.309   5.125
 1625TIP3    H1 4839   2.767   6.332   5.116
 1625TIP3    H2 4840   2.665   6.231   5.070
 1626TIP3   OH2 4841   6.533   3.936   2.877
 1626TIP3    H1 4842   6.486   3.888   2.945
 1626TIP3    H2 4843   6.600   3.875   2.846
 1627TIP3   OH2 4844   4.675   5.101   0.481
 1627TIP3    H1 4845   4.696   5.179   0.532
 1627TIP3    H2 4846   4.701   5.028   0.537
 1628TIP3   OH2 4847   5.094   3.930   3.332
 1628TIP3    H1 4848   5.127   3.943   3.421
 1628TIP3    H2 4849   5.051   4.012   3.310
 1629TIP3   OH2 4850   1.358   3.054   5.448
 1629TIP3    H1 4851   1.422   3.035   5.379
 1629TIP3    H2 4852   1.327   2.969   5.476
 1630TIP3   OH2 4853   4.257   1.846   1.940
 1630TIP3    H1 4854   4.230   1.911   1.876
 1630TIP3    H2 4855   4.337   1.808   1.904
 1631TIP3   OH2 4856   4.312   3.372   3.163
 1631TIP3    H1 4857   4.246   3.315   3.201
 1631TIP3    H2 4858   4.396   3.337   3.194
 1632TIP3   OH2 4859   6.710   0.152   5.027
 1632TIP3    H1 4860   6.722   0.168   5.121
 1632TIP3    H2 4861   6.750   0.229   4.985
 1633TIP3   OH2 4862   1.405   1.456   4.767
 1633TIP3    H1 4863   1.323   1.414   4.793
 1633TIP3    H2 4864   1.403   1.455   4.672
 1634TIP3   OH2 4865   3.311   5.175   2.293
 1634TIP3    H1 4866   3.386   5.179   2.234
 1634TIP3    H2 4867   3.349   5.178   2.381
 1635TIP3   OH2 4868   4.716   0.137   2.991
 1635TIP3    H1 4869   4.805   0.101   2.988
 1635TIP3    H2 4870   4.712   0.198   2.917
 1636TIP3   OH2 4871   5.758   2.720   3.647
 1636TIP3    H1 4872   5.695   2.655   3.615
 1636TIP3    H2 4873   5.714   2.804   3.634
 1637TIP3   OH2 4874   3.407   2.433   5.201
 1637TIP3    H1 4875   3.392   2.484   5.121
 1637TIP3    H2 4876   3.360   2.351   5.186
 1638TIP3   OH2 4877   6.377   3.707   4.391
 1638TIP3    H1 4878   6.304   3.674   4.443
 1638TIP3    H2 4879   6.344   3.712   4.302
 1639TIP3   OH2 4880   3.007   0.365   2.506
 1639TIP3    H1 4881   3.010   0.422   2.429
 1639TIP3    H2 4882   3.022   0.277   2.470
 1640TIP3   OH2 4883   0.509   6.492   3.733
 1640TIP3    H1 4884   0.563   6.439   3.791
 1640TIP3    H2 4885   0.420   6.459   3.746
 1641TIP3   OH2 4886   2.007   5.418   1.840
 1641TIP3    H1 4887   1.964   5.497   1.873
 1641TIP3    H2 4888   1.966   5.347   1.890
 1642TIP3   OH2 4889   2.782   4.567   0.961
 1642TIP3    H1 4890   2.755   4.554   1.052
 1642TIP3    H2 4891   2.861   4.514   0.952
 1643TIP3   OH2 4892   0.494   5.829   0.904
 1643TIP3    H1 4893   0.427   5.829   0.972
 1643TIP3    H2 4894   0.445   5.817   0.822
 1644TIP3   OH2 4895   6.805   5.484   4.360
 1644TIP3    H1 4896   6.791   5.394   4.330
 1644TIP3    H2 4897   6.755   5.537   4.298
 1645TIP3   OH2 4898   4.417   4.299   2.150
 1645TIP3    H1 4899   4.475   4.332   2.081
 1645TIP3    H2 4900   4.342   4.263   2.103
 1646TIP3   OH2 4901   4.267   1.804   2.918
 1646TIP3    H1 4902   4.216   1.885   2.916
 1646TIP3    H2 4903   4.273   1.777   2.826
 1647TIP3   OH2 4904   1.980   0.478   2.107
 1647TIP3    H1 4905   1.968   0.524   2.190
 1647TIP3    H2 4906   2.042   0.533   2.058
 1648TIP3   OH2 4907   6.924   4.101   4.382
 1648TIP3    H1 4908   6.924   4.009   4.409
 1648TIP3    H2 4909   6.835   4.131   4.398
 1649TIP3   OH2 4910   7.115   2.990   3.053
 1649TIP3    H1 4911   7.150   3.058   2.996
 1649TIP3    H2 4912   7.187   2.927   3.062
 1650TIP3   OH2 4913   0.529   4.342   4.398
 1650TIP3    H1 4914   0.560   4.358   4.487
 1650TIP3    H2 4915   0.607   4.312   4.351
 1651TIP3   OH2 4916   5.408   0.405   2.286
 1651TIP3    H1 4917   5.447   0.350   2.217
 1651TIP3    H2 4918   5.408   0.493   2.249
 1652TIP3   OH2 4919   4.665   3.502   1.860
 1652TIP3    H1 4920   4.753   3.538   1.848
 1652TIP3    H2 4921   4.617   3.528   1.781
 1653TIP3   OH2 4922   4.192   5.882   5.161
 1653TIP3    H1 4923   4.273   5.867   5.210
 1653TIP3    H2 4924   4.122   5.860   5.222
 1654TIP3   OH2 4925   4.357   3.190   4.272
 1654TIP3    H1 4926   4.286   3.162   4.215
 1654TIP3    H2 4927   4.324   3.179   4.361
 1655TIP3   OH2 4928   4.506   3.615   3.437
 1655TIP3    H1 4929   4.445   3.689   3.444
 1655TIP3    H2 4930   4.471   3.560   3.367
 1656TIP3   OH2 4931   7.080   5.107   3.591
 1656TIP3    H1 4932   7.114   5.071   3.509
 1656TIP3    H2 4933   7.049   5.194   3.568
 1657TIP3   OH2 4934   6.150   0.750   4.240
 1657TIP3    H1 4935   6.122   0.689   4.308
 1657TIP3    H2 4936   6.107   0.833   4.261
 1658TIP3   OH2 4937   0.858   1.742   4.929
 1658TIP3    H1 4938   0.904   1.821   4.901
 1658TIP3    H2 4939   0.784   1.735   4.869
 1659TIP3   OH2 4940   2.433   0.962   2.848
 1659TIP3    H1 4941   2.496   0.890   2.846
 1659TIP3    H2 4942   2.467   1.022   2.915
 1660TIP3   OH2 4943   0.809   4.403   0.300
 1660TIP3    H1 4944   0.787   4.393   0.207
 1660TIP3    H2 4945   0.780   4.491   0.323
 1661TIP3   OH2 4946   0.181   1.667   2.787
 1661TIP3    H1 4947   0.125   1.715   2.848
 1661TIP3    H2 4948   0.208   1.733   2.723
 1662TIP3   OH2 4949   5.504   4.527   1.042
 1662TIP3    H1 4950   5.552   4.489   1.115
 1662TIP3    H2 4951   5.522   4.620   1.047
 1663TIP3   OH2 4952   3.405   3.364   0.088
 1663TIP3    H1 4953   3.378   3.294   0.147
 1663TIP3    H2 4954   3.495   3.386   0.116
 1664TIP3   OH2 4955   3.010   2.487   1.671
 1664TIP3    H1 4956   2.997   2.511   1.579
 1664TIP3    H2 4957   2.967   2.557   1.720
 1665TIP3   OH2 4958   6.457   2.728   2.553
 1665TIP3    H1 4959   6.361   2.726   2.553
 1665TIP3    H2 4960   6.483   2.638   2.572
 1666TIP3   OH2 4961   2.302   1.503   4.397
 1666TIP3    H1 4962   2.247   1.427   4.377
 1666TIP3    H2 4963   2.350   1.478   4.476
 1667TIP3   OH2 4964   3.652   1.385   5.300
 1667TIP3    H1 4965   3.703   1.402   5.379
 1667TIP3    H2 4966   3.642   1.290   5.299
 1668TIP3   OH2 4967   2.509   1.076   4.507
 1668TIP3    H1 4968   2.425   1.031   4.498
 1668TIP3    H2 4969   2.560   1.021   4.565
 1669TIP3   OH2 4970   1.766   0.848   1.189
 1669TIP3    H1 4971   1.712   0.926   1.186
 1669TIP3    H2 4972   1.731   0.797   1.263
 1670TIP3   OH2 4973   5.360   1.362   4.939
 1670TIP3    H1 4974   5.416   1.439   4.925
 1670TIP3    H2 4975   5.354   1.321   4.853
 1671TIP3   OH2 4976   1.826   4.972   3.507
 1671TIP3    H1 4977   1.853   5.022   3.584
 1671TIP3    H2 4978   1.807   5.038   3.441
 1672TIP3   OH2 4979   6.981   2.613   2.108
 1672TIP3    H1 4980   6.970   2.616   2.204
 1672TIP3    H2 4981   7.047   2.680   2.090
 1673TIP3   OH2 4982   3.474   6.418   2.800
 1673TIP3    H1 4983   3.550   6.413   2.858
 1673TIP3    H2 4984   3.421   6.489   2.838
 1674TIP3   OH2 4985   7.027   4.415   5.232
 1674TIP3    H1 4986   7.017   4.350   5.162
 1674TIP3    H2 4987   7.049   4.496   5.187
 1675TIP3   OH2 4988   0.883   1.323   0.232
 1675TIP3    H1 4989   0.918   1.330   0.321
 1675TIP3    H2 4990   0.889   1.412   0.197
 1676TIP3   OH2 4991   0.084   6.414   0.291
 1676TIP3    H1 4992  -0.001   6.415   0.246
 1676TIP3    H2 4993   0.128   6.337   0.256
 1677TIP3   OH2 4994   3.848   1.052   5.715
 1677TIP3    H1 4995   3.794   1.116   5.762
 1677TIP3    H2 4996   3.938   1.074   5.738
 1678TIP3   OH2 4997   0.572   5.197   1.145
 1678TIP3    H1 4998   0.601   5.183   1.235
 1678TIP3    H2 4999   0.530   5.114   1.120
 1679TIP3   OH2 5000   4.583   4.689   5.296
 1679TIP3    H1 5001   4.566   4.740   5.375
 1679TIP3    H2 5002   4.603   4.755   5.229
 1680TIP3   OH2 5003   3.008   4.859   5.056
 1680TIP3    H1 5004   2.964   4.816   4.983
 1680TIP3    H2 5005   3.016   4.791   5.123
 1681TIP3   OH2 5006   5.283   5.737   3.536
 1681TIP3    H1 5007   5.235   5.662   3.570
 1681TIP3    H2 5008   5.234   5.763   3.458
 1682TIP3   OH2 5009   0.047   4.389   2.581
 1682TIP3    H1 5010   0.037   4.482   2.563
 1682TIP3    H2 5011   0.124   4.383   2.637
 1683TIP3   OH2 5012   5.722   0.843   4.859
 1683TIP3    H1 5013   5.717   0.939   4.859
 1683TIP3    H2 5014   5.782   0.822   4.787
 1684TIP3   OH2 5015   1.031   0.778   4.969
 1684TIP3    H1 5016   0.968   0.819   4.910
 1684TIP3    H2 5017   1.063   0.702   4.922
 1685TIP3   OH2 5018   5.949   0.865   1.680
 1685TIP3    H1 5019   5.995   0.933   1.632
 1685TIP3    H2 5020   5.944   0.791   1.620
 1686TIP3   OH2 5021   7.161   2.718   0.953
 1686TIP3    H1 5022   7.165   2.809   0.924
 1686TIP3    H2 5023   7.231   2.675   0.905
 1687TIP3   OH2 5024   6.533   0.360   3.523
 1687TIP3    H1 5025   6.591   0.397   3.590
 1687TIP3    H2 5026   6.552   0.412   3.444
 1688TIP3   OH2 5027   6.842   4.502   2.625
 1688TIP3    H1 5028   6.911   4.487   2.559
 1688TIP3    H2 5029   6.790   4.422   2.623
 1689TIP3   OH2 5030   5.788   6.290   1.985
 1689TIP3    H1 5031   5.871   6.334   2.004
 1689TIP3    H2 5032   5.804   6.242   1.904
 1690TIP3   OH2 5033   6.218   0.017   4.173
 1690TIP3    H1 5034   6.182   0.087   4.119
 1690TIP3    H2 5035   6.302  -0.004   4.132
 1691TIP3   OH2 5036   1.125   1.142   4.861
 1691TIP3    H1 5037   1.160   1.086   4.931
 1691TIP3    H2 5038   1.087   1.082   4.798
 1692TIP3   OH2 5039   1.536   4.402   5.507
 1692TIP3    H1 5040   1.553   4.494   5.484
 1692TIP3    H2 5041   1.463   4.406   5.568
 1693TIP3   OH2 5042   6.464   0.792   1.605
 1693TIP3    H1 5043   6.447   0.882   1.631
 1693TIP3    H2 5044   6.542   0.797   1.550
 1694TIP3   OH2 5045   2.815   4.072   2.322
 1694TIP3    H1 5046   2.847   4.027   2.244
 1694TIP3    H2 5047   2.734   4.115   2.294
 1695TIP3   OH2 5048   3.848   5.715   4.746
 1695TIP3    H1 5049   3.847   5.619   4.740
 1695TIP3    H2 5050   3.922   5.735   4.803
 1696TIP3   OH2 5051   6.607   4.947   5.852
 1696TIP3    H1 5052   6.554   4.878   5.813
 1696TIP3    H2 5053   6.657   4.983   5.779
 1697TIP3   OH2 5054   1.475   2.637   0.208
 1697TIP3    H1 5055   1.472   2.640   0.304
 1697TIP3    H2 5056   1.505   2.549   0.187
 1698TIP3   OH2 5057   6.103   3.259   2.633
 1698TIP3    H1 5058   6.032   3.315   2.666
 1698TIP3    H2 5059   6.154   3.316   2.576
 1699TIP3   OH2 5060   3.058   6.353   2.164
 1699TIP3    H1 5061   3.002   6.430   2.177
 1699TIP3    H2 5062   3.072   6.349   2.069
 1700TIP3   OH2 5063   1.605   5.020   1.600
 1700TIP3    H1 5064   1.673   5.075   1.639
 1700TIP3    H2 5065   1.606   5.042   1.507
 1701TIP3   OH2 5066   1.572   2.895   0.165
 1701TIP3    H1 5067   1.568   2.800   0.174
 1701TIP3    H2 5068   1.539   2.912   0.077
 1702TIP3   OH2 5069   3.851   4.790   3.648
 1702TIP3    H1 5070   3.899   4.765   3.569
 1702TIP3    H2 5071   3.909   4.764   3.720
 1703TIP3   OH2 5072   6.595   5.108   1.782
 1703TIP3    H1 5073   6.656   5.146   1.845
 1703TIP3    H2 5074   6.635   5.124   1.697
 1704TIP3   OH2 5075   4.986   4.521   4.482
 1704TIP3    H1 5076   4.957   4.606   4.514
 1704TIP3    H2 5077   4.987   4.466   4.561
 1705TIP3   OH2 5078   1.521   0.146   5.499
 1705TIP3    H1 5079   1.549   0.232   5.531
 1705TIP3    H2 5080   1.429   0.139   5.525
 1706TIP3   OH2 5081   2.410   1.408   0.656
 1706TIP3    H1 5082   2.437   1.466   0.584
 1706TIP3    H2 5083   2.454   1.444   0.733
 1707TIP3   OH2 5084   1.859   4.350   4.104
 1707TIP3    H1 5085   1.920   4.314   4.040
 1707TIP3    H2 5086   1.865   4.291   4.179
 1708TIP3   OH2 5087   4.592   4.429   4.298
 1708TIP3    H1 5088   4.664   4.370   4.320
 1708TIP3    H2 5089   4.592   4.494   4.367
 1709TIP3   OH2 5090   5.757   3.382   1.342
 1709TIP3    H1 5091   5.801   3.451   1.293
 1709TIP3    H2 5092   5.776   3.301   1.294
 1710TIP3   OH2 5093   1.367   5.740   1.190
 1710TIP3    H1 5094   1.403   5.820   1.152
 1710TIP3    H2 5095   1.407   5.670   1.139
 1711TIP3   OH2 5096   4.777   5.938   1.063
 1711TIP3    H1 5097   4.845   6.004   1.076
 1711TIP3    H2 5098   4.746   5.918   1.151
 1712TIP3   OH2 5099   4.910   6.447   4.174
 1712TIP3    H1 5100   4.885   6.417   4.262
 1712TIP3    H2 5101   5.005   6.435   4.171
 1713TIP3   OH2 5102   3.025   5.138   0.864
 1713TIP3    H1 5103   3.073   5.056   0.857
 1713TIP3    H2 5104   2.934   5.114   0.849
 1714TIP3   OH2 5105   1.158   0.540   0.368
 1714TIP3    H1 5106   1.118   0.453   0.380
 1714TIP3    H2 5107   1.252   0.523   0.363
 1715TIP3   OH2 5108   3.223   1.788   0.340
 1715TIP3    H1 5109   3.211   1.698   0.311
 1715TIP3    H2 5110   3.135   1.826   0.338
 1716TIP3   OH2 5111   0.022   2.039   2.763
 1716TIP3    H1 5112   0.032   2.119   2.814
 1716TIP3    H2 5113  -0.001   1.972   2.828
 1717TIP3   OH2 5114   0.157   6.005   0.441
 1717TIP3    H1 5115   0.075   6.024   0.396
 1717TIP3    H2 5116   0.225   6.021   0.376
 1718TIP3   OH2 5117   5.856   3.700   1.934
 1718TIP3    H1 5118   5.891   3.787   1.953
 1718TIP3    H2 5119   5.835   3.664   2.021
 1719TIP3   OH2 5120   5.743   6.370   1.021
 1719TIP3    H1 5121   5.833   6.340   1.037
 1719TIP3    H2 5122   5.720   6.420   1.099
 1720TIP3   OH2 5123   2.167   0.913   0.031
 1720TIP3    H1 5124   2.184   0.985   0.092
 1720TIP3    H2 5125   2.227   0.843   0.059
 1721TIP3   OH2 5126   2.796   2.986   1.832
 1721TIP3    H1 5127   2.710   3.023   1.852
 1721TIP3    H2 5128   2.851   3.011   1.906
 1722TIP3   OH2 5129   1.303   2.970   3.727
 1722TIP3    H1 5130   1.283   2.939   3.816
 1722TIP3    H2 5131   1.389   2.932   3.707
 1723TIP3   OH2 5132   3.179   1.165   2.699
 1723TIP3    H1 5133   3.271   1.188   2.713
 1723TIP3    H2 5134   3.178   1.121   2.615
 1724TIP3   OH2 5135   3.951   2.161   3.558
 1724TIP3    H1 5136   4.022   2.102   3.534
 1724TIP3    H2 5137   3.987   2.249   3.544
 1725TIP3   OH2 5138   3.881   2.751   0.232
 1725TIP3    H1 5139   3.940   2.826   0.244
 1725TIP3    H2 5140   3.930   2.692   0.174
 1726TIP3   OH2 5141   5.559   4.844   1.350
 1726TIP3    H1 5142   5.497   4.895   1.297
 1726TIP3    H2 5143   5.547   4.877   1.439
 1727TIP3   OH2 5144   2.134   5.341   2.641
 1727TIP3    H1 5145   2.120   5.322   2.734
 1727TIP3    H2 5146   2.056   5.306   2.598
 1728TIP3   OH2 5147   6.465   5.064   4.162
 1728TIP3    H1 5148   6.479   5.025   4.076
 1728TIP3    H2 5149   6.381   5.028   4.191
 1729TIP3   OH2 5150   4.524   2.030   1.687
 1729TIP3    H1 5151   4.497   1.948   1.729
 1729TIP3    H2 5152   4.548   2.087   1.761
 1730TIP3   OH2 5153   7.110   4.566   2.215
 1730TIP3    H1 5154   7.112   4.658   2.243
 1730TIP3    H2 5155   7.141   4.568   2.125
 1731TIP3   OH2 5156   5.223   4.363   4.264
 1731TIP3    H1 5157   5.136   4.369   4.304
 1731TIP3    H2 5158   5.206   4.329   4.176
 1732TIP3   OH2 5159   5.034   0.286   1.665
 1732TIP3    H1 5160   5.039   0.192   1.648
 1732TIP3    H2 5161   5.013   0.292   1.758
 1733TIP3   OH2 5162   2.570   1.495   0.899
 1733TIP3    H1 5163   2.614   1.547   0.832
 1733TIP3    H2 5164   2.634   1.490   0.971
 1734TIP3   OH2 5165   5.434   3.065   5.221
 1734TIP3    H1 5166   5.502   3.040   5.158
 1734TIP3    H2 5167   5.373   3.119   5.170
 1735TIP3   OH2 5168   2.736   4.329   3.622
 1735TIP3    H1 5169   2.819   4.303   3.662
 1735TIP3    H2 5170   2.670   4.308   3.688
 1736TIP3   OH2 5171   5.485   5.007   4.015
 1736TIP3    H1 5172   5.413   4.947   4.037
 1736TIP3    H2 5173   5.543   4.955   3.959
 1737TIP3   OH2 5174   5.274   1.095   4.373
 1737TIP3    H1 5175   5.254   1.091   4.467
 1737TIP3    H2 5176   5.217   1.030   4.334
 1738TIP3   OH2 5177   0.793   6.758   0.535
 1738TIP3    H1 5178   0.852   6.707   0.481
 1738TIP3    H2 5179   0.791   6.712   0.619
 1739TIP3   OH2 5180   5.940   0.367   1.407
 1739TIP3    H1 5181   5.953   0.372   1.313
 1739TIP3    H2 5182   5.864   0.309   1.418
 1740TIP3   OH2 5183   2.486   0.656   3.077
 1740TIP3    H1 5184   2.429   0.617   3.143
 1740TIP3    H2 5185   2.478   0.751   3.092
 1741TIP3   OH2 5186   0.324   0.451   4.550
 1741TIP3    H1 5187   0.281   0.411   4.475
 1741TIP3    H2 5188   0.257   0.503   4.593
 1742TIP3   OH2 5189   0.994   2.621   4.581
 1742TIP3    H1 5190   0.953   2.691   4.632
 1742TIP3    H2 5191   0.934   2.607   4.508
 1743TIP3   OH2 5192   6.705   4.668   3.112
 1743TIP3    H1 5193   6.765   4.610   3.159
 1743TIP3    H2 5194   6.685   4.622   3.031
 1744TIP3   OH2 5195   0.122   4.497   2.010
 1744TIP3    H1 5196   0.183   4.509   1.937
 1744TIP3    H2 5197   0.177   4.506   2.088
 1745TIP3   OH2 5198   6.319   5.584   0.790
 1745TIP3    H1 5199   6.234   5.614   0.820
 1745TIP3    H2 5200   6.381   5.618   0.854
 1746TIP3   OH2 5201   6.984   5.609   1.075
 1746TIP3    H1 5202   6.934   5.619   0.994
 1746TIP3    H2 5203   6.932   5.655   1.141
 1747TIP3   OH2 5204   2.943   5.538   4.226
 1747TIP3    H1 5205   2.881   5.498   4.288
 1747TIP3    H2 5206   3.022   5.552   4.277
 1748TIP3   OH2 5207   4.628   0.252   0.143
 1748TIP3    H1 5208   4.672   0.325   0.187
 1748TIP3    H2 5209   4.588   0.293   0.066
 1749TIP3   OH2 5210   5.425   2.065   2.414
 1749TIP3    H1 5211   5.464   2.039   2.497
 1749TIP3    H2 5212   5.372   1.990   2.387
 1750TIP3   OH2 5213   0.515   5.464   1.145
 1750TIP3    H1 5214   0.538   5.371   1.136
 1750TIP3    H2 5215   0.430   5.471   1.102
 1751TIP3   OH2 5216   1.269   0.900   1.525
 1751TIP3    H1 5217   1.193   0.939   1.482
 1751TIP3    H2 5218   1.340   0.961   1.506
 1752TIP3   OH2 5219   3.463   1.282   1.994
 1752TIP3    H1 5220   3.404   1.216   1.958
 1752TIP3    H2 5221   3.545   1.235   2.009
 1753TIP3   OH2 5222   3.332   5.266   0.021
 1753TIP3    H1 5223   3.316   5.340   0.079
 1753TIP3    H2 5224   3.365   5.305  -0.059
 1754TIP3   OH2 5225   5.501   0.202   3.361
 1754TIP3    H1 5226   5.556   0.258   3.307
 1754TIP3    H2 5227   5.561   0.164   3.425
 1755TIP3   OH2 5228   3.872   0.936   0.747
 1755TIP3    H1 5229   3.904   0.976   0.828
 1755TIP3    H2 5230   3.889   0.842   0.758
 1756TIP3   OH2 5231   0.766   4.545   1.677
 1756TIP3    H1 5232   0.781   4.629   1.721
 1756TIP3    H2 5233   0.828   4.485   1.719
 1757TIP3   OH2 5234   7.110   5.988   0.201
 1757TIP3    H1 5235   7.031   5.936   0.211
 1757TIP3    H2 5236   7.106   6.051   0.274
 1758TIP3   OH2 5237   0.358   1.003   3.268
 1758TIP3    H1 5238   0.452   1.012   3.287
 1758TIP3    H2 5239   0.351   1.017   3.174
 1759TIP3   OH2 5240   7.021   0.536   2.354
 1759TIP3    H1 5241   6.957   0.493   2.411
 1759TIP3    H2 5242   7.051   0.466   2.296
 1760TIP3   OH2 5243   2.275   1.053   5.531
 1760TIP3    H1 5244   2.328   0.973   5.527
 1760TIP3    H2 5245   2.234   1.050   5.617
 1761TIP3   OH2 5246   6.119   5.257   0.651
 1761TIP3    H1 5247   6.187   5.321   0.631
 1761TIP3    H2 5248   6.083   5.233   0.565
 1762TIP3   OH2 5249   0.379   1.335   5.622
 1762TIP3    H1 5250   0.334   1.338   5.707
 1762TIP3    H2 5251   0.412   1.245   5.616
 1763TIP3   OH2 5252   4.617   4.284   0.419
 1763TIP3    H1 5253   4.538   4.229   0.422
 1763TIP3    H2 5254   4.673   4.243   0.353
 1764TIP3   OH2 5255   1.847   5.414   2.744
 1764TIP3    H1 5256   1.848   5.324   2.711
 1764TIP3    H2 5257   1.870   5.405   2.837
 1765TIP3   OH2 5258   2.630   5.574   5.281
 1765TIP3    H1 5259   2.577   5.653   5.275
 1765TIP3    H2 5260   2.586   5.510   5.226
 1766TIP3   OH2 5261   2.989   4.297   0.534
 1766TIP3    H1 5262   2.999   4.202   0.530
 1766TIP3    H2 5263   2.978   4.324   0.443
 1767TIP3   OH2 5264   3.279   4.006   2.556
 1767TIP3    H1 5265   3.277   3.956   2.474
 1767TIP3    H2 5266   3.235   4.088   2.536
 1768TIP3   OH2 5267   6.960   5.525   1.655
 1768TIP3    H1 5268   6.958   5.620   1.660
 1768TIP3    H2 5269   6.996   5.496   1.739
 1769TIP3   OH2 5270   6.690   4.239   2.630
 1769TIP3    H1 5271   6.709   4.191   2.550
 1769TIP3    H2 5272   6.596   4.228   2.643
 1770TIP3   OH2 5273   3.211   5.159   4.954
 1770TIP3    H1 5274   3.244   5.218   4.886
 1770TIP3    H2 5275   3.277   5.163   5.023
 1771TIP3   OH2 5276   6.979   6.153   1.205
 1771TIP3    H1 5277   6.932   6.235   1.191
 1771TIP3    H2 5278   6.923   6.103   1.265
 1772TIP3   OH2 5279   0.951   6.566   2.138
 1772TIP3    H1 5280   0.926   6.478   2.108
 1772TIP3    H2 5281   0.928   6.623   2.065
 1773TIP3   OH2 5282   3.974   2.348   2.288
 1773TIP3    H1 5283   3.987   2.273   2.347
 1773TIP3    H2 5284   3.881   2.369   2.298
 1774TIP3   OH2 5285   6.339   0.400   4.388
 1774TIP3    H1 5286   6.346   0.397   4.483
 1774TIP3    H2 5287   6.368   0.488   4.365
 1775TIP3   OH2 5288   4.818   6.698   2.768
 1775TIP3    H1 5289   4.876   6.715   2.842
 1775TIP3    H2 5290   4.734   6.734   2.796
 1776TIP3   OH2 5291   0.189   2.224   1.915
 1776TIP3    H1 5292   0.185   2.265   2.002
 1776TIP3    H2 5293   0.247   2.149   1.927
 1777TIP3   OH2 5294   0.627   5.598   5.024
 1777TIP3    H1 5295   0.678   5.518   5.030
 1777TIP3    H2 5296   0.692   5.668   5.027
 1778TIP3   OH2 5297   3.109   2.804   1.431
 1778TIP3    H1 5298   3.079   2.714   1.422
 1778TIP3    H2 5299   3.070   2.835   1.512
 1779TIP3   OH2 5300   4.491   6.514   2.548
 1779TIP3    H1 5301   4.518   6.428   2.515
 1779TIP3    H2 5302   4.572   6.556   2.576
 1780TIP3   OH2 5303   2.065   0.434   4.313
 1780TIP3    H1 5304   2.064   0.446   4.219
 1780TIP3    H2 5305   1.972   0.432   4.338
 1781TIP3   OH2 5306   4.903   1.718   3.034
 1781TIP3    H1 5307   4.986   1.718   2.987
 1781TIP3    H2 5308   4.927   1.713   3.126
 1782TIP3   OH2 5309   6.683   2.067   2.010
 1782TIP3    H1 5310   6.684   2.073   2.106
 1782TIP3    H2 5311   6.606   2.116   1.984
 1783TIP3   OH2 5312   3.296   1.005   3.257
 1783TIP3    H1 5313   3.297   1.099   3.276
 1783TIP3    H2 5314   3.319   0.964   3.340
 1784TIP3   OH2 5315   0.722   6.211   4.477
 1784TIP3    H1 5316   0.770   6.164   4.545
 1784TIP3    H2 5317   0.760   6.299   4.477
 1785TIP3   OH2 5318   2.723   3.211   3.800
 1785TIP3    H1 5319   2.643   3.167   3.832
 1785TIP3    H2 5320   2.790   3.142   3.802
 1786TIP3   OH2 5321   4.429   5.019   5.600
 1786TIP3    H1 5322   4.465   5.075   5.531
 1786TIP3    H2 5323   4.341   4.997   5.569
 1787TIP3   OH2 5324   3.345   6.625   0.976
 1787TIP3    H1 5325   3.284   6.612   1.049
 1787TIP3    H2 5326   3.415   6.679   1.013
 1788TIP3   OH2 5327   7.143   5.968   2.706
 1788TIP3    H1 5328   7.050   5.947   2.708
 1788TIP3    H2 5329   7.168   5.958   2.614
 1789TIP3   OH2 5330   6.513   5.718   4.821
 1789TIP3    H1 5331   6.454   5.762   4.882
 1789TIP3    H2 5332   6.576   5.786   4.797
 1790TIP3   OH2 5333   5.579   5.183   4.538
 1790TIP3    H1 5334   5.526   5.227   4.604
 1790TIP3    H2 5335   5.594   5.095   4.574
 1791TIP3   OH2 5336   0.497   5.123   3.673
 1791TIP3    H1 5337   0.495   5.093   3.764
 1791TIP3    H2 5338   0.587   5.109   3.645
 1792TIP3   OH2 5339   6.234   1.694   0.133
 1792TIP3    H1 5340   6.219   1.733   0.047
 1792TIP3    H2 5341   6.328   1.673   0.134
 1793TIP3   OH2 5342   6.904   4.221   5.850
 1793TIP3    H1 5343   6.983   4.256   5.810
 1793TIP3    H2 5344   6.868   4.162   5.784
 1794TIP3   OH2 5345   0.961   0.324   0.927
 1794TIP3    H1 5346   1.014   0.403   0.939
 1794TIP3    H2 5347   0.951   0.288   1.015
 1795TIP3   OH2 5348   3.352   0.436   2.529
 1795TIP3    H1 5349   3.409   0.465   2.600
 1795TIP3    H2 5350   3.371   0.497   2.457
 1796TIP3   OH2 5351   6.640   0.281   2.991
 1796TIP3    H1 5352   6.544   0.274   2.987
 1796TIP3    H2 5353   6.671   0.209   2.937
 1797TIP3   OH2 5354   2.183   0.129   0.963
 1797TIP3    H1 5355   2.239   0.129   0.885
 1797TIP3    H2 5356   2.200   0.044   1.004
 1798TIP3   OH2 5357   1.241   3.545   5.146
 1798TIP3    H1 5358   1.221   3.556   5.053
 1798TIP3    H2 5359   1.275   3.457   5.154
 1799TIP3   OH2 5360   6.955   0.345   4.165
 1799TIP3    H1 5361   6.884   0.324   4.226
 1799TIP3    H2 5362   6.921   0.319   4.079
 1800TIP3   OH2 5363   0.060   3.458   2.586
 1800TIP3    H1 5364   0.113   3.537   2.577
 1800TIP3    H2 5365   0.007   3.474   2.665
 1801TIP3   OH2 5366   1.594   5.312   4.806
 1801TIP3    H1 5367   1.509   5.333   4.844
 1801TIP3    H2 5368   1.597   5.216   4.806
 1802TIP3   OH2 5369   2.984   2.307   3.751
 1802TIP3    H1 5370   2.943   2.278   3.833
 1802TIP3    H2 5371   2.992   2.227   3.700
 1803TIP3   OH2 5372   2.794   3.658   2.573
 1803TIP3    H1 5373   2.825   3.699   2.654
 1803TIP3    H2 5374   2.865   3.673   2.510
 1804TIP3   OH2 5375   4.481   3.018   5.145
 1804TIP3    H1 5376   4.500   2.955   5.076
 1804TIP3    H2 5377   4.451   2.965   5.219
 1805TIP3   OH2 5378   5.039   4.396   2.872
 1805TIP3    H1 5379   5.020   4.377   2.780
 1805TIP3    H2 5380   5.119   4.347   2.891
 1806TIP3   OH2 5381   1.941   3.053   2.309
 1806TIP3    H1 5382   2.013   3.018   2.257
 1806TIP3    H2 5383   1.930   2.991   2.381
 1807TIP3   OH2 5384   4.881   0.097   1.295
 1807TIP3    H1 5385   4.892   0.181   1.251
 1807TIP3    H2 5386   4.958   0.046   1.270
 1808TIP3   OH2 5387   1.186   0.154   4.521
 1808TIP3    H1 5388   1.185   0.065   4.485
 1808TIP3    H2 5389   1.197   0.142   4.615
 1809TIP3   OH2 5390   1.127   4.266   3.082
 1809TIP3    H1 5391   1.115   4.346   3.030
 1809TIP3    H2 5392   1.061   4.206   3.049
 1810TIP3   OH2 5393   4.896   5.647   0.215
 1810TIP3    H1 5394   4.812   5.667   0.175
 1810TIP3    H2 5395   4.908   5.716   0.280
 1811TIP3   OH2 5396   2.614   2.875   5.703
 1811TIP3    H1 5397   2.679   2.818   5.744
 1811TIP3    H2 5398   2.612   2.848   5.612
 1812TIP3   OH2 5399   1.554   6.729   4.618
 1812TIP3    H1 5400   1.555   6.787   4.541
 1812TIP3    H2 5401   1.645   6.698   4.625
 1813TIP3   OH2 5402   2.279   0.640   4.227
 1813TIP3    H1 5403   2.194   0.612   4.262
 1813TIP3    H2 5404   2.270   0.735   4.218
 1814TIP3   OH2 5405   1.887   5.237   3.518
 1814TIP3    H1 5406   1.974   5.197   3.525
 1814TIP3    H2 5407   1.864   5.262   3.607
 1815TIP3   OH2 5408   0.118   6.751   0.211
 1815TIP3    H1 5409   0.200   6.788   0.244
 1815TIP3    H2 5410   0.133   6.656   0.210
 1816TIP3   OH2 5411   0.961   6.079   1.465
 1816TIP3    H1 5412   0.967   6.110   1.375
 1816TIP3    H2 5413   0.880   6.117   1.499
 1817TIP3   OH2 5414   0.119   6.564   5.734
 1817TIP3    H1 5415   0.148   6.645   5.692
 1817TIP3    H2 5416   0.201   6.519   5.758
 1818TIP3   OH2 5417   4.295   2.630   5.641
 1818TIP3    H1 5418   4.297   2.600   5.550
 1818TIP3    H2 5419   4.256   2.717   5.636
 1819TIP3   OH2 5420   3.900   0.074   1.881
 1819TIP3    H1 5421   3.942   0.141   1.828
 1819TIP3    H2 5422   3.973   0.027   1.923
 1820TIP3   OH2 5423   6.338   2.172   3.002
 1820TIP3    H1 5424   6.298   2.250   3.040
 1820TIP3    H2 5425   6.293   2.159   2.919
 1821TIP3   OH2 5426   6.988   1.589   1.722
 1821TIP3    H1 5427   7.001   1.494   1.726
 1821TIP3    H2 5428   6.952   1.613   1.807
 1822TIP3   OH2 5429   6.720   2.517   2.376
 1822TIP3    H1 5430   6.675   2.601   2.366
 1822TIP3    H2 5431   6.789   2.534   2.440
 1823TIP3   OH2 5432   6.660   0.569   5.750
 1823TIP3    H1 5433   6.565   0.574   5.763
 1823TIP3    H2 5434   6.673   0.580   5.656
 1824TIP3   OH2 5435   6.726   3.111   1.357
 1824TIP3    H1 5436   6.662   3.117   1.429
 1824TIP3    H2 5437   6.791   3.048   1.388
 1825TIP3   OH2 5438   3.840   4.453   3.414
 1825TIP3    H1 5439   3.911   4.404   3.456
 1825TIP3    H2 5440   3.768   4.448   3.477
 1826TIP3   OH2 5441   5.629   2.317   3.401
 1826TIP3    H1 5442   5.651   2.224   3.397
 1826TIP3    H2 5443   5.667   2.354   3.322
 1827TIP3   OH2 5444   0.896   4.695   5.338
 1827TIP3    H1 5445   0.972   4.709   5.394
 1827TIP3    H2 5446   0.916   4.745   5.258
 1828TIP3   OH2 5447   2.743   0.352   3.727
 1828TIP3    H1 5448   2.763   0.325   3.637
 1828TIP3    H2 5449   2.821   0.329   3.777
 1829TIP3   OH2 5450   1.769   1.376   0.430
 1829TIP3    H1 5451   1.826   1.370   0.354
 1829TIP3    H2 5452   1.828   1.394   0.503
 1830TIP3   OH2 5453   1.024   6.100   5.349
 1830TIP3    H1 5454   0.958   6.120   5.282
 1830TIP3    H2 5455   1.061   6.016   5.322
 1831TIP3   OH2 5456   4.806   5.735   3.609
 1831TIP3    H1 5457   4.846   5.689   3.683
 1831TIP3    H2 5458   4.716   5.702   3.606
 1832TIP3   OH2 5459   2.870   4.784   1.646
 1832TIP3    H1 5460   2.787   4.757   1.687
 1832TIP3    H2 5461   2.878   4.729   1.568
 1833TIP3   OH2 5462   5.455   2.663   4.342
 1833TIP3    H1 5463   5.364   2.670   4.311
 1833TIP3    H2 5464   5.488   2.583   4.302
 1834TIP3   OH2 5465   0.955   2.534   3.131
 1834TIP3    H1 5466   0.949   2.451   3.083
 1834TIP3    H2 5467   1.033   2.576   3.096
 1835TIP3   OH2 5468   4.075   5.101   4.232
 1835TIP3    H1 5469   4.104   5.076   4.319
 1835TIP3    H2 5470   4.154   5.097   4.178
 1836TIP3   OH2 5471   0.436   4.953   1.044
 1836TIP3    H1 5472   0.478   4.874   1.079
 1836TIP3    H2 5473   0.349   4.923   1.016
 1837TIP3   OH2 5474   5.113   0.299   0.893
 1837TIP3    H1 5475   5.034   0.262   0.852
 1837TIP3    H2 5476   5.125   0.248   0.973
 1838TIP3   OH2 5477   1.142   3.694   5.362
 1838TIP3    H1 5478   1.178   3.775   5.326
 1838TIP3    H2 5479   1.149   3.631   5.290
 1839TIP3   OH2 5480   5.480   3.494   2.727
 1839TIP3    H1 5481   5.394   3.456   2.743
 1839TIP3    H2 5482   5.538   3.418   2.720
 1840TIP3   OH2 5483   6.409   4.828   3.005
 1840TIP3    H1 5484   6.383   4.862   2.919
 1840TIP3    H2 5485   6.402   4.733   2.996
 1841TIP3   OH2 5486   4.445   4.593   5.058
 1841TIP3    H1 5487   4.447   4.685   5.030
 1841TIP3    H2 5488   4.474   4.595   5.150
 1842TIP3   OH2 5489   5.923   4.379   1.242
 1842TIP3    H1 5490   5.924   4.450   1.177
 1842TIP3    H2 5491   5.992   4.319   1.212
 1843TIP3   OH2 5492   0.063   3.209   3.431
 1843TIP3    H1 5493  -0.029   3.235   3.435
 1843TIP3    H2 5494   0.061   3.114   3.422
 1844TIP3   OH2 5495   2.962   5.272   4.707
 1844TIP3    H1 5496   2.967   5.179   4.685
 1844TIP3    H2 5497   3.048   5.307   4.685
 1845TIP3   OH2 5498   1.254   2.254   5.153
 1845TIP3    H1 5499   1.184   2.309   5.119
 1845TIP3    H2 5500   1.276   2.196   5.080
 1846TIP3   OH2 5501   6.641   0.897   1.407
 1846TIP3    H1 5502   6.732   0.873   1.423
 1846TIP3    H2 5503   6.631   0.984   1.445
 1847TIP3   OH2 5504   3.448   2.287   3.632
 1847TIP3    H1 5505   3.455   2.314   3.724
 1847TIP3    H2 5506   3.363   2.318   3.603
 1848TIP3   OH2 5507   3.935   3.545   1.878
 1848TIP3    H1 5508   4.022   3.542   1.918
 1848TIP3    H2 5509   3.886   3.606   1.931
 1849TIP3   OH2 5510   2.223   3.878   5.422
 1849TIP3    H1 5511   2.220   3.872   5.327
 1849TIP3    H2 5512   2.189   3.794   5.453
 1850TIP3   OH2 5513   3.974   2.125   2.030
 1850TIP3    H1 5514   3.968   2.151   1.938
 1850TIP3    H2 5515   3.895   2.162   2.070
 1851TIP3   OH2 5516   1.852   3.884   2.393
 1851TIP3    H1 5517   1.763   3.897   2.360
 1851TIP3    H2 5518   1.859   3.789   2.408
 1852TIP3   OH2 5519   3.177   1.007   5.771
 1852TIP3    H1 5520   3.270   1.000   5.752
 1852TIP3    H2 5521   3.140   1.057   5.699
 1853TIP3   OH2 5522   2.290   6.527   4.157
 1853TIP3    H1 5523   2.377   6.512   4.118
 1853TIP3    H2 5524   2.230   6.528   4.083
 1854TIP3   OH2 5525   6.104   5.650   0.965
 1854TIP3    H1 5526   6.108   5.555   0.950
 1854TIP3    H2 5527   6.048   5.659   1.042
 1855TIP3   OH2 5528   1.384   1.828   2.024
 1855TIP3    H1 5529   1.436   1.856   1.949
 1855TIP3    H2 5530   1.299   1.869   2.011
 1856TIP3   OH2 5531   7.087   1.805   1.220
 1856TIP3    H1 5532   7.038   1.874   1.264
 1856TIP3    H2 5533   7.080   1.729   1.278
 1857TIP3   OH2 5534   1.028   3.432   2.911
 1857TIP3    H1 5535   0.936   3.424   2.934
 1857TIP3    H2 5536   1.035   3.517   2.867
 1858TIP3   OH2 5537   6.421   0.489   0.048
 1858TIP3    H1 5538   6.442   0.402   0.082
 1858TIP3    H2 5539   6.342   0.475  -0.005
 1859TIP3   OH2 5540   6.317   4.851   0.946
 1859TIP3    H1 5541   6.279   4.915   0.886
 1859TIP3    H2 5542   6.382   4.901   0.996
 1860TIP3   OH2 5543   3.995   4.684   1.562
 1860TIP3    H1 5544   4.037   4.669   1.647
 1860TIP3    H2 5545   4.059   4.736   1.512
 1861TIP3   OH2 5546   7.012   3.934   1.005
 1861TIP3    H1 5547   7.045   3.860   0.955
 1861TIP3    H2 5548   6.920   3.913   1.022
 1862TIP3   OH2 5549   7.216   2.243   0.102
 1862TIP3    H1 5550   7.256   2.300   0.168
 1862TIP3    H2 5551   7.124   2.267   0.103
 1863TIP3   OH2 5552   2.382   6.535   2.281
 1863TIP3    H1 5553   2.343   6.603   2.227
 1863TIP3    H2 5554   2.308   6.492   2.323
 1864TIP3   OH2 5555   3.682   0.797   4.327
 1864TIP3    H1 5556   3.760   0.820   4.277
 1864TIP3    H2 5557   3.610   0.812   4.267
 1865TIP3   OH2 5558   1.371   1.350   5.164
 1865TIP3    H1 5559   1.400   1.423   5.109
 1865TIP3    H2 5560   1.341   1.392   5.245
 1866TIP3   OH2 5561   4.700   6.719   1.866
 1866TIP3    H1 5562   4.761   6.675   1.807
 1866TIP3    H2 5563   4.754   6.784   1.912
 1867TIP3   OH2 5564   5.654   4.400   2.216
 1867TIP3    H1 5565   5.659   4.314   2.173
 1867TIP3    H2 5566   5.565   4.405   2.250
 1868TIP3   OH2 5567   1.594   2.898   5.655
 1868TIP3    H1 5568   1.515   2.883   5.603
 1868TIP3    H2 5569   1.574   2.976   5.707
 1869TIP3   OH2 5570   3.311   2.586   2.096
 1869TIP3    H1 5571   3.255   2.599   2.019
 1869TIP3    H2 5572   3.285   2.655   2.157
 1870TIP3   OH2 5573   2.342   1.698   0.058
 1870TIP3    H1 5574   2.327   1.788   0.029
 1870TIP3    H2 5575   2.433   1.679   0.034
 1871TIP3   OH2 5576   2.527   0.129   1.553
 1871TIP3    H1 5577   2.529   0.190   1.479
 1871TIP3    H2 5578   2.557   0.181   1.627
 1872TIP3   OH2 5579   0.079   4.767   4.255
 1872TIP3    H1 5580   0.004   4.728   4.299
 1872TIP3    H2 5581   0.132   4.804   4.326
 1873TIP3   OH2 5582   5.989   4.770   1.755
 1873TIP3    H1 5583   6.022   4.859   1.740
 1873TIP3    H2 5584   6.060   4.713   1.727
 1874TIP3   OH2 5585   2.801   2.227   0.296
 1874TIP3    H1 5586   2.797   2.293   0.365
 1874TIP3    H2 5587   2.712   2.191   0.291
 1875TIP3   OH2 5588   2.339   3.768   0.555
 1875TIP3    H1 5589   2.334   3.818   0.474
 1875TIP3    H2 5590   2.433   3.764   0.576
 1876TIP3   OH2 5591   6.702   1.464   5.587
 1876TIP3    H1 5592   6.609   1.472   5.607
 1876TIP3    H2 5593   6.705   1.467   5.491
 1877TIP3   OH2 5594   6.305   4.190   0.054
 1877TIP3    H1 5595   6.243   4.119   0.035
 1877TIP3    H2 5596   6.251   4.261   0.088
 1878TIP3   OH2 5597   3.405   6.083   1.892
 1878TIP3    H1 5598   3.314   6.056   1.905
 1878TIP3    H2 5599   3.442   6.084   1.980
 1879TIP3   OH2 5600   1.488   3.831   3.820
 1879TIP3    H1 5601   1.442   3.915   3.818
 1879TIP3    H2 5602   1.420   3.765   3.826
 1880TIP3   OH2 5603   6.003   2.399   3.397
 1880TIP3    H1 5604   5.999   2.488   3.433
 1880TIP3    H2 5605   5.948   2.347   3.455
 1881TIP3   OH2 5606   1.970   2.155   3.709
 1881TIP3    H1 5607   2.019   2.131   3.787
 1881TIP3    H2 5608   2.024   2.222   3.666
 1882TIP3   OH2 5609   0.667   3.657   2.077
 1882TIP3    H1 5610   0.635   3.677   1.989
 1882TIP3    H2 5611   0.757   3.626   2.063
 1883TIP3   OH2 5612   4.108   2.586   2.119
 1883TIP3    H1 5613   4.057   2.507   2.135
 1883TIP3    H2 5614   4.198   2.563   2.143
 1884TIP3   OH2 5615   6.991   0.037   0.111
 1884TIP3    H1 5616   6.969  -0.043   0.159
 1884TIP3    H2 5617   6.936   0.104   0.152
 1885TIP3   OH2 5618   6.379   4.220   2.579
 1885TIP3    H1 5619   6.324   4.284   2.623
 1885TIP3    H2 5620   6.336   4.136   2.596
 1886TIP3   OH2 5621   5.198   5.004   3.328
 1886TIP3    H1 5622   5.230   5.069   3.390
 1886TIP3    H2 5623   5.219   5.041   3.242
 1887TIP3   OH2 5624   1.026   1.280   5.769
 1887TIP3    H1 5625   0.931   1.293   5.766
 1887TIP3    H2 5626   1.057   1.310   5.683
 1888TIP3   OH2 5627   3.928   2.824   4.808
 1888TIP3    H1 5628   3.904   2.848   4.718
 1888TIP3    H2 5629   3.959   2.734   4.801
 1889TIP3   OH2 5630   6.202   1.778   4.138
 1889TIP3    H1 5631   6.115   1.813   4.117
 1889TIP3    H2 5632   6.212   1.703   4.080
 1890TIP3   OH2 5633   1.385   1.458   1.457
 1890TIP3    H1 5634   1.471   1.451   1.499
 1890TIP3    H2 5635   1.331   1.502   1.522
 1891TIP3   OH2 5636   5.242   0.227   1.206
 1891TIP3    H1 5637   5.201   0.144   1.229
 1891TIP3    H2 5638   5.239   0.279   1.286
 1892TIP3   OH2 5639   0.139   1.772   4.381
 1892TIP3    H1 5640   0.046   1.784   4.361
 1892TIP3    H2 5641   0.159   1.841   4.444
 1893TIP3   OH2 5642   0.295   4.704   5.756
 1893TIP3    H1 5643   0.262   4.698   5.666
 1893TIP3    H2 5644   0.217   4.699   5.811
 1894TIP3   OH2 5645   6.717   2.847   1.114
 1894TIP3    H1 5646   6.758   2.813   1.193
 1894TIP3    H2 5647   6.623   2.838   1.130
 1895TIP3   OH2 5648   1.966   2.478   5.271
 1895TIP3    H1 5649   2.021   2.446   5.342
 1895TIP3    H2 5650   2.028   2.508   5.204
 1896TIP3   OH2 5651   5.066   5.926   3.002
 1896TIP3    H1 5652   5.004   5.872   3.051
 1896TIP3    H2 5653   5.143   5.933   3.059
 1897TIP3   OH2 5654   7.178   6.245   0.077
 1897TIP3    H1 5655   7.159   6.159   0.114
 1897TIP3    H2 5656   7.104   6.300   0.104
 1898TIP3   OH2 5657   2.350   4.291   5.557
 1898TIP3    H1 5658   2.391   4.377   5.570
 1898TIP3    H2 5659   2.298   4.301   5.477
 1899TIP3   OH2 5660   3.040   0.156   5.107
 1899TIP3    H1 5661   3.102   0.084   5.119
 1899TIP3    H2 5662   3.084   0.216   5.046
 1900TIP3   OH2 5663   5.733   5.900   4.180
 1900TIP3    H1 5664   5.775   5.982   4.206
 1900TIP3    H2 5665   5.640   5.916   4.196
 1901TIP3   OH2 5666   1.388   2.476   2.783
 1901TIP3    H1 5667   1.358   2.392   2.819
 1901TIP3    H2 5668   1.476   2.457   2.749
 1902TIP3   OH2 5669   4.902   2.124   1.419
 1902TIP3    H1 5670   4.851   2.108   1.340
 1902TIP3    H2 5671   4.845   2.178   1.473
 1903TIP3   OH2 5672   1.498   3.917   2.551
 1903TIP3    H1 5673   1.426   3.960   2.598
 1903TIP3    H2 5674   1.545   3.869   2.619
 1904TIP3   OH2 5675   6.966   2.857   1.819
 1904TIP3    H1 5676   6.980   2.885   1.729
 1904TIP3    H2 5677   7.046   2.882   1.865
 1905TIP3   OH2 5678   3.748   4.558   2.688
 1905TIP3    H1 5679   3.800   4.520   2.616
 1905TIP3    H2 5680   3.708   4.482   2.730
 1906TIP3   OH2 5681   0.163   5.090   1.645
 1906TIP3    H1 5682   0.162   5.185   1.640
 1906TIP3    H2 5683   0.211   5.061   1.567
 1907TIP3   OH2 5684   0.206   2.021   4.556
 1907TIP3    H1 5685   0.244   2.080   4.491
 1907TIP3    H2 5686   0.191   2.076   4.633
 1908TIP3   OH2 5687   6.924   2.583   1.032
 1908TIP3    H1 5688   6.952   2.548   1.117
 1908TIP3    H2 5689   6.994   2.643   1.007
 1909TIP3   OH2 5690   3.117   4.965   2.835
 1909TIP3    H1 5691   3.147   5.050   2.803
 1909TIP3    H2 5692   3.189   4.905   2.815
 1910TIP3   OH2 5693   5.973   0.717   2.301
 1910TIP3    H1 5694   6.003   0.808   2.303
 1910TIP3    H2 5695   5.946   0.699   2.391
 1911TIP3   OH2 5696   0.615   1.740   1.627
 1911TIP3    H1 5697   0.583   1.742   1.537
 1911TIP3    H2 5698   0.631   1.647   1.645
 1912TIP3   OH2 5699   1.214   4.792   5.108
 1912TIP3    H1 5700   1.293   4.807   5.159
 1912TIP3    H2 5701   1.234   4.716   5.054
 1913TIP3   OH2 5702   2.152   0.844   0.420
 1913TIP3    H1 5703   2.120   0.760   0.387
 1913TIP3    H2 5704   2.101   0.910   0.373
 1914TIP3   OH2 5705   5.379   4.363   0.736
 1914TIP3    H1 5706   5.376   4.378   0.641
 1914TIP3    H2 5707   5.301   4.311   0.754
 1915TIP3   OH2 5708   1.379   3.367   4.642
 1915TIP3    H1 5709   1.340   3.436   4.695
 1915TIP3    H2 5710   1.311   3.342   4.580
 1916TIP3   OH2 5711   4.139   3.644   2.058
 1916TIP3    H1 5712   4.126   3.574   2.122
 1916TIP3    H2 5713   4.195   3.707   2.103
 1917TIP3   OH2 5714   4.031   4.703   3.438
 1917TIP3    H1 5715   4.037   4.682   3.345
 1917TIP3    H2 5716   4.008   4.620   3.480
 1918TIP3   OH2 5717   4.484   2.461   2.905
 1918TIP3    H1 5718   4.418   2.433   2.969
 1918TIP3    H2 5719   4.541   2.385   2.896
 1919TIP3   OH2 5720   2.832   1.798   2.144
 1919TIP3    H1 5721   2.863   1.818   2.055
 1919TIP3    H2 5722   2.741   1.827   2.145
 1920TIP3   OH2 5723   1.624   3.494   4.578
 1920TIP3    H1 5724   1.630   3.407   4.617
 1920TIP3    H2 5725   1.551   3.535   4.624
 1921TIP3   OH2 5726   4.037   2.643   0.517
 1921TIP3    H1 5727   4.029   2.738   0.504
 1921TIP3    H2 5728   4.131   2.628   0.525
 1922TIP3   OH2 5729   3.722   5.127   1.504
 1922TIP3    H1 5730   3.733   5.222   1.513
 1922TIP3    H2 5731   3.658   5.104   1.571
 1923TIP3   OH2 5732   0.787   4.786   1.809
 1923TIP3    H1 5733   0.785   4.837   1.890
 1923TIP3    H2 5734   0.824   4.846   1.744
 1924TIP3   OH2 5735   0.890   4.344   2.690
 1924TIP3    H1 5736   0.958   4.317   2.751
 1924TIP3    H2 5737   0.858   4.263   2.652
 1925TIP3   OH2 5738   4.425   0.642   5.027
 1925TIP3    H1 5739   4.458   0.568   4.976
 1925TIP3    H2 5740   4.485   0.648   5.102
 1926TIP3   OH2 5741   6.735   2.861   2.275
 1926TIP3    H1 5742   6.726   2.885   2.183
 1926TIP3    H2 5743   6.821   2.820   2.281
 1927TIP3   OH2 5744   5.225   0.394   2.525
 1927TIP3    H1 5745   5.290   0.393   2.455
 1927TIP3    H2 5746   5.245   0.473   2.576
 1928TIP3   OH2 5747   3.824   6.449   3.482
 1928TIP3    H1 5748   3.748   6.461   3.538
 1928TIP3    H2 5749   3.805   6.370   3.431
 1929TIP3   OH2 5750   7.186   6.228   2.411
 1929TIP3    H1 5751   7.119   6.247   2.478
 1929TIP3    H2 5752   7.198   6.133   2.416
 1930TIP3   OH2 5753   2.521   4.213   5.752
 1930TIP3    H1 5754   2.437   4.235   5.711
 1930TIP3    H2 5755   2.542   4.289   5.806
 1931TIP3   OH2 5756   5.021   4.377   2.587
 1931TIP3    H1 5757   4.943   4.350   2.537
 1931TIP3    H2 5758   5.056   4.451   2.538
 1932TIP3   OH2 5759   6.110   5.370   1.707
 1932TIP3    H1 5760   6.089   5.412   1.623
 1932TIP3    H2 5761   6.070   5.426   1.773
 1933TIP3   OH2 5762   1.490   5.143   2.593
 1933TIP3    H1 5763   1.551   5.166   2.523
 1933TIP3    H2 5764   1.523   5.191   2.669
 1934TIP3   OH2 5765   4.731   3.763   1.396
 1934TIP3    H1 5766   4.683   3.774   1.314
 1934TIP3    H2 5767   4.664   3.747   1.462
 1935TIP3   OH2 5768   5.539   4.588   1.770
 1935TIP3    H1 5769   5.509   4.502   1.800
 1935TIP3    H2 5770   5.626   4.572   1.735
 1936TIP3   OH2 5771   3.898   2.164   5.339
 1936TIP3    H1 5772   3.965   2.102   5.369
 1936TIP3    H2 5773   3.861   2.123   5.261
 1937TIP3   OH2 5774   1.611   5.920   4.680
 1937TIP3    H1 5775   1.534   5.973   4.660
 1937TIP3    H2 5776   1.626   5.869   4.600
 1938TIP3   OH2 5777   3.992   6.197   1.791
 1938TIP3    H1 5778   3.939   6.129   1.833
 1938TIP3    H2 5779   3.947   6.214   1.708
 1939TIP3   OH2 5780   2.227   4.227   0.568
 1939TIP3    H1 5781   2.249   4.319   0.584
 1939TIP3    H2 5782   2.285   4.178   0.626
 1940TIP3   OH2 5783   4.182   4.006   3.795
 1940TIP3    H1 5784   4.151   3.986   3.884
 1940TIP3    H2 5785   4.231   3.929   3.769
 1941TIP3   OH2 5786   1.297   3.166   4.033
 1941TIP3    H1 5787   1.324   3.196   3.946
 1941TIP3    H2 5788   1.368   3.108   4.061
 1942TIP3   OH2 5789   5.622   4.061   0.160
 1942TIP3    H1 5790   5.562   4.085   0.089
 1942TIP3    H2 5791   5.698   4.024   0.115
 1943TIP3   OH2 5792   1.564   5.828   0.963
 1943TIP3    H1 5793   1.589   5.908   1.009
 1943TIP3    H2 5794   1.543   5.858   0.874
 1944TIP3   OH2 5795   6.753   0.446   0.131
 1944TIP3    H1 5796   6.748   0.460   0.036
 1944TIP3    H2 5797   6.840   0.476   0.155
 1945TIP3   OH2 5798   5.096   0.908   4.271
 1945TIP3    H1 5799   5.035   0.857   4.324
 1945TIP3    H2 5800   5.058   0.906   4.183
 1946TIP3   OH2 5801   0.842   3.641   1.648
 1946TIP3    H1 5802   0.795   3.673   1.571
 1946TIP3    H2 5803   0.861   3.549   1.627
 1947TIP3   OH2 5804   6.192   6.252   4.199
 1947TIP3    H1 5805   6.251   6.184   4.166
 1947TIP3    H2 5806   6.233   6.335   4.173
 1948TIP3   OH2 5807   4.952   3.335   3.353
 1948TIP3    H1 5808   4.967   3.352   3.446
 1948TIP3    H2 5809   4.916   3.417   3.319
 1949TIP3   OH2 5810   1.162   1.939   3.203
 1949TIP3    H1 5811   1.123   1.861   3.243
 1949TIP3    H2 5812   1.245   1.909   3.167
 1950TIP3   OH2 5813   4.985  -0.023   2.596
 1950TIP3    H1 5814   4.929   0.033   2.543
 1950TIP3    H2 5815   5.019   0.034   2.664
 1951TIP3   OH2 5816   3.916   3.614   3.365
 1951TIP3    H1 5817   3.948   3.704   3.368
 1951TIP3    H2 5818   3.891   3.600   3.274
 1952TIP3   OH2 5819   0.105   2.147   2.361
 1952TIP3    H1 5820   0.028   2.096   2.388
 1952TIP3    H2 5821   0.178   2.087   2.373
 1953TIP3   OH2 5822   4.121   2.171   0.455
 1953TIP3    H1 5823   4.191   2.159   0.392
 1953TIP3    H2 5824   4.044   2.195   0.403
 1954TIP3   OH2 5825   5.781   3.903   4.671
 1954TIP3    H1 5826   5.791   3.888   4.577
 1954TIP3    H2 5827   5.715   3.972   4.677
 1955TIP3   OH2 5828   6.390   3.887   0.254
 1955TIP3    H1 5829   6.339   3.965   0.276
 1955TIP3    H2 5830   6.447   3.874   0.329
 1956TIP3   OH2 5831   5.384   2.805   0.877
 1956TIP3    H1 5832   5.342   2.720   0.886
 1956TIP3    H2 5833   5.476   2.785   0.861
 1957TIP3   OH2 5834   5.832   5.431   3.036
 1957TIP3    H1 5835   5.905   5.381   2.999
 1957TIP3    H2 5836   5.777   5.453   2.961
 1958TIP3   OH2 5837   6.624   3.846   5.262
 1958TIP3    H1 5838   6.603   3.767   5.212
 1958TIP3    H2 5839   6.704   3.880   5.221
 1959TIP3   OH2 5840   3.818   3.290   0.968
 1959TIP3    H1 5841   3.895   3.284   0.912
 1959TIP3    H2 5842   3.849   3.334   1.047
 1960TIP3   OH2 5843   4.722   0.508   0.743
 1960TIP3    H1 5844   4.667   0.558   0.802
 1960TIP3    H2 5845   4.784   0.573   0.707
 1961TIP3   OH2 5846   5.583   2.727   4.628
 1961TIP3    H1 5847   5.670   2.688   4.624
 1961TIP3    H2 5848   5.561   2.747   4.537
 1962TIP3   OH2 5849   7.056   2.678   0.449
 1962TIP3    H1 5850   7.104   2.753   0.412
 1962TIP3    H2 5851   7.124   2.626   0.491
 1963TIP3   OH2 5852   5.352   2.216   1.222
 1963TIP3    H1 5853   5.387   2.282   1.162
 1963TIP3    H2 5854   5.426   2.157   1.238
 1964TIP3   OH2 5855   5.820   0.572   4.110
 1964TIP3    H1 5856   5.876   0.529   4.174
 1964TIP3    H2 5857   5.880   0.612   4.047
 1965TIP3   OH2 5858   4.762   3.512   5.479
 1965TIP3    H1 5859   4.857   3.519   5.492
 1965TIP3    H2 5860   4.729   3.484   5.565
 1966TIP3   OH2 5861   1.143   1.476   0.859
 1966TIP3    H1 5862   1.122   1.478   0.766
 1966TIP3    H2 5863   1.212   1.541   0.870
 1967TIP3   OH2 5864   3.835   0.503   1.053
 1967TIP3    H1 5865   3.876   0.539   1.131
 1967TIP3    H2 5866   3.831   0.408   1.069
 1968TIP3   OH2 5867   5.673   1.964   3.355
 1968TIP3    H1 5868   5.681   2.013   3.437
 1968TIP3    H2 5869   5.761   1.933   3.336
 1969TIP3   OH2 5870   2.279   3.741   4.459
 1969TIP3    H1 5871   2.226   3.667   4.429
 1969TIP3    H2 5872   2.279   3.735   4.554
 1970TIP3   OH2 5873   1.693   2.485   5.033
 1970TIP3    H1 5874   1.628   2.468   5.102
 1970TIP3    H2 5875   1.775   2.499   5.080
 1971TIP3   OH2 5876   0.108   1.101   5.740
 1971TIP3    H1 5877   0.143   1.079   5.826
 1971TIP3    H2 5878   0.017   1.072   5.743
 1972TIP3   OH2 5879   2.904   3.438   4.758
 1972TIP3    H1 5880   2.888   3.512   4.700
 1972TIP3    H2 5881   2.854   3.457   4.837
 1973TIP3   OH2 5882   2.556   0.468   2.572
 1973TIP3    H1 5883   2.485   0.517   2.529
 1973TIP3    H2 5884   2.519   0.443   2.657
 1974TIP3   OH2 5885   3.802   6.658   5.400
 1974TIP3    H1 5886   3.826   6.592   5.336
 1974TIP3    H2 5887   3.871   6.655   5.466
 1975TIP3   OH2 5888   2.799   4.243   4.656
 1975TIP3    H1 5889   2.762   4.234   4.743
 1975TIP3    H2 5890   2.844   4.327   4.658
 1976TIP3   OH2 5891   2.735   2.192   2.474
 1976TIP3    H1 5892   2.659   2.158   2.520
 1976TIP3    H2 5893   2.795   2.220   2.543
 1977TIP3   OH2 5894   3.494   2.070   4.610
 1977TIP3    H1 5895   3.497   2.068   4.706
 1977TIP3    H2 5896   3.564   2.130   4.585
 1978TIP3   OH2 5897   1.527   1.508   0.496
 1978TIP3    H1 5898   1.606   1.459   0.473
 1978TIP3    H2 5899   1.480   1.451   0.556
 1979TIP3   OH2 5900   3.208   3.535   5.404
 1979TIP3    H1 5901   3.158   3.561   5.327
 1979TIP3    H2 5902   3.146   3.542   5.476
 1980TIP3   OH2 5903   3.154   0.244   0.046
 1980TIP3    H1 5904   3.217   0.197  -0.009
 1980TIP3    H2 5905   3.123   0.178   0.109
 1981TIP3   OH2 5906   4.921   4.040   1.871
 1981TIP3    H1 5907   4.951   3.967   1.926
 1981TIP3    H2 5908   4.966   4.117   1.906
 1982TIP3   OH2 5909   5.935   6.348   4.556
 1982TIP3    H1 5910   6.030   6.341   4.545
 1982TIP3    H2 5911   5.918   6.322   4.646
 1983TIP3   OH2 5912   4.440   1.653   0.321
 1983TIP3    H1 5913   4.514   1.655   0.382
 1983TIP3    H2 5914   4.396   1.737   0.333
 1984TIP3   OH2 5915   3.741   3.776   3.168
 1984TIP3    H1 5916   3.749   3.722   3.090
 1984TIP3    H2 5917   3.705   3.859   3.136
 1985TIP3   OH2 5918   2.457   1.267   3.762
 1985TIP3    H1 5919   2.543   1.284   3.723
 1985TIP3    H2 5920   2.474   1.196   3.825
 1986TIP3   OH2 5921   1.905   3.173   4.616
 1986TIP3    H1 5922   1.914   3.107   4.547
 1986TIP3    H2 5923   1.864   3.125   4.689
 1987TIP3   OH2 5924   6.453   2.875   3.973
 1987TIP3    H1 5925   6.496   2.849   4.054
 1987TIP3    H2 5926   6.361   2.886   3.997
 1988TIP3   OH2 5927   0.201   4.840   1.249
 1988TIP3    H1 5928   0.127   4.849   1.309
 1988TIP3    H2 5929   0.209   4.746   1.235
 1989TIP3   OH2 5930   4.736   4.552   3.697
 1989TIP3    H1 5931   4.708   4.465   3.667
 1989TIP3    H2 5932   4.669   4.578   3.760
 1990TIP3   OH2 5933   6.574   0.340   5.551
 1990TIP3    H1 5934   6.536   0.317   5.467
 1990TIP3    H2 5935   6.503   0.382   5.600
 1991TIP3   OH2 5936   4.259   4.146   3.599
 1991TIP3    H1 5937   4.207   4.098   3.664
 1991TIP3    H2 5938   4.343   4.160   3.642
 1992TIP3   OH2 5939   5.247   2.568   0.905
 1992TIP3    H1 5940   5.266   2.540   0.815
 1992TIP3    H2 5941   5.179   2.508   0.935
 1993TIP3   OH2 5942   5.797   1.421   5.578
 1993TIP3    H1 5943   5.820   1.328   5.581
 1993TIP3    H2 5944   5.815   1.448   5.488
 1994TIP3   OH2 5945   5.254   6.334   5.288
 1994TIP3    H1 5946   5.302   6.307   5.210
 1994TIP3    H2 5947   5.302   6.294   5.361
 1995TIP3   OH2 5948   6.674   4.073   4.976
 1995TIP3    H1 5949   6.579   4.077   4.986
 1995TIP3    H2 5950   6.704   4.159   5.006
 1996TIP3   OH2 5951   3.688   0.196   3.295
 1996TIP3    H1 5952   3.654   0.111   3.267
 1996TIP3    H2 5953   3.698   0.188   3.390
 1997TIP3   OH2 5954   4.703   6.106   1.316
 1997TIP3    H1 5955   4.790   6.130   1.285
 1997TIP3    H2 5956   4.718   6.072   1.405
 1998TIP3   OH2 5957   4.685   3.853   3.395
 1998TIP3    H1 5958   4.646   3.767   3.406
 1998TIP3    H2 5959   4.778   3.841   3.415
 1999TIP3   OH2 5960   5.024   6.073   2.278
 1999TIP3    H1 5961   5.071   6.102   2.357
 1999TIP3    H2 5962   5.065   6.121   2.206
 2000TIP3   OH2 5963   3.066   2.716   1.017
 2000TIP3    H1 5964   3.086   2.751   0.930
 2000TIP3    H2 5965   3.103   2.781   1.077
 2001TIP3   OH2 5966   5.127   4.939   5.456
 2001TIP3    H1 5967   5.183   5.016   5.451
 2001TIP3    H2 5968   5.127   4.914   5.548
 2002TIP3   OH2 5969   4.553   1.649   0.067
 2002TIP3    H1 5970   4.494   1.632   0.140
 2002TIP3    H2 5971   4.626   1.589   0.080
 2003TIP3   OH2 5972   6.239   4.898   2.797
 2003TIP3    H1 5973   6.286   4.982   2.789
 2003TIP3    H2 5974   6.150   4.923   2.821
 2004TIP3   OH2 5975   1.720   2.633   3.662
 2004TIP3    H1 5976   1.792   2.644   3.724
 2004TIP3    H2 5977   1.725   2.542   3.636
 2005TIP3   OH2 5978   6.929   2.488   2.559
 2005TIP3    H1 5979   6.983   2.442   2.494
 2005TIP3    H2 5980   6.888   2.418   2.610
 2006TIP3   OH2 5981   4.829   5.875   3.900
 2006TIP3    H1 5982   4.906   5.835   3.858
 2006TIP3    H2 5983   4.784   5.920   3.830
 2007TIP3   OH2 5984   4.786   1.871   4.126
 2007TIP3    H1 5985   4.751   1.928   4.057
 2007TIP3    H2 5986   4.826   1.932   4.189
 2008TIP3   OH2 5987   5.354   1.002   2.682
 2008TIP3    H1 5988   5.438   0.958   2.670
 2008TIP3    H2 5989   5.375   1.078   2.736
 2009TIP3   OH2 5990   3.191   1.480   1.326
 2009TIP3    H1 5991   3.265   1.442   1.373
 2009TIP3    H2 5992   3.211   1.466   1.234
 2010TIP3   OH2 5993   2.364   6.586   1.725
 2010TIP3    H1 5994   2.338   6.624   1.809
 2010TIP3    H2 5995   2.460   6.583   1.729
 2011TIP3   OH2 5996   5.775   4.373   2.913
 2011TIP3    H1 5997   5.764   4.450   2.857
 2011TIP3    H2 5998   5.768   4.408   3.003
 2012TIP3   OH2 5999   2.891   5.022   4.590
 2012TIP3    H1 6000   2.937   4.938   4.587
 2012TIP3    H2 6001   2.799   5.000   4.579
 2013TIP3   OH2 6002   2.912   3.314   0.786
 2013TIP3    H1 6003   2.908   3.221   0.809
 2013TIP3    H2 6004   2.997   3.343   0.818
 2014TIP3   OH2 6005   4.232   5.608   5.401
 2014TIP3    H1 6006   4.306   5.634   5.457
 2014TIP3    H2 6007   4.157   5.605   5.460
 2015TIP3   OH2 6008   4.333   3.449   5.899
 2015TIP3    H1 6009   4.351   3.379   5.836
 2015TIP3    H2 6010   4.241   3.471   5.884
 2016TIP3   OH2 6011   2.623   6.041   3.177
 2016TIP3    H1 6012   2.565   6.014   3.105
 2016TIP3    H2 6013   2.624   6.136   3.172
 2017TIP3   OH2 6014   1.205   0.396   1.914
 2017TIP3    H1 6015   1.181   0.334   1.983
 2017TIP3    H2 6016   1.230   0.341   1.840
 2018TIP3   OH2 6017   4.645   4.506   3.135
 2018TIP3    H1 6018   4.575   4.489   3.072
 2018TIP3    H2 6019   4.698   4.574   3.095
 2019TIP3   OH2 6020   5.513   1.158   2.852
 2019TIP3    H1 6021   5.578   1.090   2.832
 2019TIP3    H2 6022   5.550   1.238   2.814
 2020TIP3   OH2 6023   4.459   1.302   1.946
 2020TIP3    H1 6024   4.551   1.301   1.919
 2020TIP3    H2 6025   4.425   1.384   1.910
 2021TIP3   OH2 6026   5.873   4.424   5.442
 2021TIP3    H1 6027   5.778   4.434   5.449
 2021TIP3    H2 6028   5.885   4.366   5.367
 2022TIP3   OH2 6029   4.456   6.410   3.266
 2022TIP3    H1 6030   4.522   6.384   3.331
 2022TIP3    H2 6031   4.380   6.436   3.318
 2023TIP3   OH2 6032   5.595   1.302   3.874
 2023TIP3    H1 6033   5.528   1.365   3.849
 2023TIP3    H2 6034   5.658   1.353   3.925
 2024TIP3   OH2 6035   7.163   2.441   5.554
 2024TIP3    H1 6036   7.252   2.477   5.561
 2024TIP3    H2 6037   7.117   2.503   5.497
 2025TIP3   OH2 6038   5.088   0.055   5.136
 2025TIP3    H1 6039   5.158  -0.010   5.143
 2025TIP3    H2 6040   5.132   0.135   5.106
 2026TIP3   OH2 6041   0.214   2.912   2.135
 2026TIP3    H1 6042   0.255   2.875   2.213
 2026TIP3    H2 6043   0.216   3.006   2.150
 2027TIP3   OH2 6044   3.523   5.939   4.370
 2027TIP3    H1 6045   3.577   5.901   4.301
 2027TIP3    H2 6046   3.444   5.884   4.373
 2028TIP3   OH2 6047   5.521   3.943   3.117
 2028TIP3    H1 6048   5.541   3.871   3.058
 2028TIP3    H2 6049   5.592   4.005   3.105
 2029TIP3   OH2 6050   1.502   3.825   1.441
 2029TIP3    H1 6051   1.418   3.818   1.395
 2029TIP3    H2 6052   1.489   3.776   1.522
 2030TIP3   OH2 6053   5.383   0.466   1.710
 2030TIP3    H1 6054   5.317   0.438   1.647
 2030TIP3    H2 6055   5.351   0.437   1.795
 2031TIP3   OH2 6056   3.895   3.320   5.006
 2031TIP3    H1 6057   3.850   3.389   5.056
 2031TIP3    H2 6058   3.949   3.275   5.072
 2032TIP3   OH2 6059   2.288   6.729   5.602
 2032TIP3    H1 6060   2.315   6.766   5.687
 2032TIP3    H2 6061   2.251   6.803   5.555
 2033TIP3   OH2 6062   5.321   5.200   0.966
 2033TIP3    H1 6063   5.329   5.220   0.872
 2033TIP3    H2 6064   5.227   5.191   0.981
 2034TIP3   OH2 6065   3.120   1.364   5.383
 2034TIP3    H1 6066   3.202   1.414   5.394
 2034TIP3    H2 6067   3.053   1.421   5.421
 2035TIP3   OH2 6068   6.552   5.769   2.730
 2035TIP3    H1 6069   6.509   5.728   2.655
 2035TIP3    H2 6070   6.514   5.725   2.806
 2036TIP3   OH2 6071   6.011   6.630   4.448
 2036TIP3    H1 6072   5.993   6.552   4.501
 2036TIP3    H2 6073   5.941   6.631   4.383
 2037TIP3   OH2 6074   2.765   5.917   5.406
 2037TIP3    H1 6075   2.858   5.894   5.416
 2037TIP3    H2 6076   2.741   5.958   5.489
 2038TIP3   OH2 6077   4.792   2.930   3.057
 2038TIP3    H1 6078   4.759   2.997   3.118
 2038TIP3    H2 6079   4.884   2.953   3.045
 2039TIP3   OH2 6080   4.575   1.022   2.447
 2039TIP3    H1 6081   4.579   1.082   2.373
 2039TIP3    H2 6082   4.659   1.033   2.492
 2040TIP3   OH2 6083   1.876   6.033   1.873
 2040TIP3    H1 6084   1.943   6.061   1.810
 2040TIP3    H2 6085   1.798   6.017   1.820
 2041TIP3   OH2 6086   1.873   1.634   4.579
 2041TIP3    H1 6087   1.926   1.686   4.519
 2041TIP3    H2 6088   1.783   1.659   4.559
 2042TIP3   OH2 6089   0.520   1.544   5.718
 2042TIP3    H1 6090   0.555   1.589   5.641
 2042TIP3    H2 6091   0.478   1.466   5.682
 2043TIP3   OH2 6092   5.143   1.186   5.617
 2043TIP3    H1 6093   5.088   1.223   5.548
 2043TIP3    H2 6094   5.102   1.102   5.638
 2044TIP3   OH2 6095   0.167   0.555   5.866
 2044TIP3    H1 6096   0.221   0.552   5.787
 2044TIP3    H2 6097   0.228   0.537   5.938
 2045TIP3   OH2 6098   6.533   3.964   3.939
 2045TIP3    H1 6099   6.585   4.021   3.881
 2045TIP3    H2 6100   6.599   3.914   3.988
 2046TIP3   OH2 6101   2.573   2.043   3.857
 2046TIP3    H1 6102   2.661   2.020   3.888
 2046TIP3    H2 6103   2.533   1.959   3.833
 2047TIP3   OH2 6104   5.918   4.157   0.265
 2047TIP3    H1 6105   5.861   4.083   0.286
 2047TIP3    H2 6106   6.004   4.130   0.297
 2048TIP3   OH2 6107   2.847   1.812   0.942
 2048TIP3    H1 6108   2.770   1.868   0.953
 2048TIP3    H2 6109   2.920   1.866   0.972
 2049TIP3   OH2 6110   2.017   1.403   3.731
 2049TIP3    H1 6111   1.937   1.420   3.681
 2049TIP3    H2 6112   2.029   1.483   3.784
 2050TIP3   OH2 6113   6.859   1.748   2.967
 2050TIP3    H1 6114   6.821   1.687   3.030
 2050TIP3    H2 6115   6.911   1.693   2.908
 2051TIP3   OH2 6116   5.575   5.764   4.819
 2051TIP3    H1 6117   5.665   5.785   4.847
 2051TIP3    H2 6118   5.548   5.693   4.877
 2052TIP3   OH2 6119   5.242   4.198   2.463
 2052TIP3    H1 6120   5.178   4.190   2.533
 2052TIP3    H2 6121   5.193   4.180   2.382
 2053TIP3   OH2 6122   6.407   5.138   2.797
 2053TIP3    H1 6123   6.406   5.179   2.883
 2053TIP3    H2 6124   6.491   5.093   2.793
 2054TIP3   OH2 6125   5.003   1.658   1.061
 2054TIP3    H1 6126   5.008   1.594   0.989
 2054TIP3    H2 6127   4.929   1.714   1.037
 2055TIP3   OH2 6128   1.940   6.407   0.996
 2055TIP3    H1 6129   1.975   6.320   0.975
 2055TIP3    H2 6130   1.991   6.436   1.071
 2056TIP3   OH2 6131   5.861   4.368   0.109
 2056TIP3    H1 6132   5.918   4.319   0.050
 2056TIP3    H2 6133   5.847   4.309   0.183
 2057TIP3   OH2 6134   3.582   4.735   3.704
 2057TIP3    H1 6135   3.664   4.740   3.655
 2057TIP3    H2 6136   3.600   4.674   3.775
 2058TIP3   OH2 6137   5.591   0.825   5.096
 2058TIP3    H1 6138   5.529   0.882   5.051
 2058TIP3    H2 6139   5.654   0.800   5.029
 2059TIP3   OH2 6140   0.152   6.552   4.888
 2059TIP3    H1 6141   0.119   6.628   4.839
 2059TIP3    H2 6142   0.074   6.517   4.932
 2060TIP3   OH2 6143   0.297   1.665   1.160
 2060TIP3    H1 6144   0.359   1.636   1.093
 2060TIP3    H2 6145   0.251   1.586   1.186
 2061TIP3   OH2 6146   5.850   1.476   5.857
 2061TIP3    H1 6147   5.936   1.457   5.819
 2061TIP3    H2 6148   5.788   1.446   5.791
 2062TIP3   OH2 6149   2.106   0.655   4.875
 2062TIP3    H1 6150   2.117   0.641   4.970
 2062TIP3    H2 6151   2.013   0.675   4.865
 2063TIP3   OH2 6152   6.838   0.778   1.729
 2063TIP3    H1 6153   6.768   0.713   1.727
 2063TIP3    H2 6154   6.896   0.749   1.799
 2064TIP3   OH2 6155   4.481   5.693   5.525
 2064TIP3    H1 6156   4.525   5.613   5.555
 2064TIP3    H2 6157   4.552   5.750   5.497
 2065TIP3   OH2 6158   5.856   6.078   1.800
 2065TIP3    H1 6159   5.888   6.008   1.744
 2065TIP3    H2 6160   5.882   6.053   1.888
 2066TIP3   OH2 6161   5.698   3.066   3.100
 2066TIP3    H1 6162   5.668   2.984   3.139
 2066TIP3    H2 6163   5.618   3.117   3.089
 2067TIP3   OH2 6164   0.519   0.179   4.877
 2067TIP3    H1 6165   0.542   0.273   4.877
 2067TIP3    H2 6166   0.469   0.167   4.797
 2068TIP3   OH2 6167   4.959   0.177   2.198
 2068TIP3    H1 6168   5.028   0.115   2.221
 2068TIP3    H2 6169   4.890   0.122   2.159
 2069TIP3   OH2 6170   4.899   0.888   1.207
 2069TIP3    H1 6171   4.938   0.953   1.265
 2069TIP3    H2 6172   4.892   0.932   1.122
 2070TIP3   OH2 6173   7.139   0.770   2.549
 2070TIP3    H1 6174   7.204   0.704   2.525
 2070TIP3    H2 6175   7.174   0.810   2.629
 2071TIP3   OH2 6176   3.318   6.216   2.447
 2071TIP3    H1 6177   3.298   6.123   2.432
 2071TIP3    H2 6178   3.272   6.237   2.528
 2072TIP3   OH2 6179   4.515   6.723   4.965
 2072TIP3    H1 6180   4.449   6.765   5.021
 2072TIP3    H2 6181   4.526   6.636   5.002
 2073TIP3   OH2 6182   5.565   4.066   5.845
 2073TIP3    H1 6183   5.655   4.036   5.857
 2073TIP3    H2 6184   5.517   4.029   5.918
 2074TIP3   OH2 6185   2.209   4.644   0.296
 2074TIP3    H1 6186   2.189   4.557   0.260
 2074TIP3    H2 6187   2.266   4.626   0.370
 2075TIP3   OH2 6188   6.139   2.322   1.145
 2075TIP3    H1 6189   6.219   2.317   1.092
 2075TIP3    H2 6190   6.171   2.331   1.235
 2076TIP3   OH2 6191   6.751   5.021   4.249
 2076TIP3    H1 6192   6.699   5.074   4.189
 2076TIP3    H2 6193   6.690   4.997   4.319
 2077TIP3   OH2 6194   0.874   4.419   5.114
 2077TIP3    H1 6195   0.787   4.394   5.146
 2077TIP3    H2 6196   0.911   4.471   5.185
 2078TIP3   OH2 6197   0.514   1.314   0.076
 2078TIP3    H1 6198   0.523   1.329  -0.019
 2078TIP3    H2 6199   0.598   1.277   0.103
 2079TIP3   OH2 6200   4.059   5.245   2.672
 2079TIP3    H1 6201   4.142   5.288   2.656
 2079TIP3    H2 6202   4.045   5.189   2.596
 2080TIP3   OH2 6203   7.054   0.442   1.862
 2080TIP3    H1 6204   7.010   0.404   1.786
 2080TIP3    H2 6205   7.047   0.374   1.930
 2081TIP3   OH2 6206   2.215   6.360   2.039
 2081TIP3    H1 6207   2.122   6.352   2.018
 2081TIP3    H2 6208   2.255   6.281   2.004
 2082TIP3   OH2 6209   2.752   3.463   4.977
 2082TIP3    H1 6210   2.686   3.395   4.991
 2082TIP3    H2 6211   2.807   3.459   5.056
 2083TIP3   OH2 6212   2.665   5.959   1.024
 2083TIP3    H1 6213   2.669   5.914   0.939
 2083TIP3    H2 6214   2.617   5.898   1.080
 2084TIP3   OH2 6215   2.973   0.514   3.773
 2084TIP3    H1 6216   2.972   0.421   3.794
 2084TIP3    H2 6217   2.999   0.557   3.854
 2085TIP3   OH2 6218   0.753   4.897   0.868
 2085TIP3    H1 6219   0.814   4.864   0.934
 2085TIP3    H2 6220   0.669   4.901   0.913
 2086TIP3   OH2 6221   0.545   0.314   5.441
 2086TIP3    H1 6222   0.459   0.272   5.436
 2086TIP3    H2 6223   0.573   0.300   5.531
 2087TIP3   OH2 6224   5.614   3.596   0.812
 2087TIP3    H1 6225   5.556   3.672   0.804
 2087TIP3    H2 6226   5.568   3.538   0.873
 2088TIP3   OH2 6227   1.386   2.436   3.457
 2088TIP3    H1 6228   1.387   2.359   3.514
 2088TIP3    H2 6229   1.428   2.407   3.376
 2089TIP3   OH2 6230   4.533   1.606   1.009
 2089TIP3    H1 6231   4.541   1.702   1.011
 2089TIP3    H2 6232   4.554   1.578   1.099
 2090TIP3   OH2 6233   6.786   2.060   5.693
 2090TIP3    H1 6234   6.779   1.973   5.732
 2090TIP3    H2 6235   6.750   2.049   5.605
 2091TIP3   OH2 6236   5.082   6.157   0.794
 2091TIP3    H1 6237   5.034   6.236   0.767
 2091TIP3    H2 6238   5.109   6.175   0.884
 2092TIP3   OH2 6239   2.458   0.502   0.131
 2092TIP3    H1 6240   2.521   0.478   0.063
 2092TIP3    H2 6241   2.467   0.433   0.198
 2093TIP3   OH2 6242   1.344   3.030   2.809
 2093TIP3    H1 6243   1.361   2.953   2.756
 2093TIP3    H2 6244   1.423   3.083   2.802
 2094TIP3   OH2 6245   2.367   4.574   5.588
 2094TIP3    H1 6246   2.323   4.581   5.672
 2094TIP3    H2 6247   2.315   4.626   5.528
 2095TIP3   OH2 6248   1.204   5.568   0.232
 2095TIP3    H1 6249   1.203   5.649   0.181
 2095TIP3    H2 6250   1.115   5.562   0.269
 2096TIP3   OH2 6251   5.891   3.919   1.019
 2096TIP3    H1 6252   5.836   3.863   0.964
 2096TIP3    H2 6253   5.835   3.993   1.042
 2097TIP3   OH2 6254   3.578   1.205   4.253
 2097TIP3    H1 6255   3.627   1.175   4.177
 2097TIP3    H2 6256   3.608   1.295   4.267
 2098TIP3   OH2 6257   1.136   2.536   3.997
 2098TIP3    H1 6258   1.145   2.498   4.084
 2098TIP3    H2 6259   1.052   2.503   3.965
 2099TIP3   OH2 6260   3.592   0.856   0.060
 2099TIP3    H1 6261   3.528   0.920   0.093
 2099TIP3    H2 6262   3.541   0.776   0.049
 2100TIP3   OH2 6263   5.457   5.966   5.550
 2100TIP3    H1 6264   5.550   5.944   5.540
 2100TIP3    H2 6265   5.412   5.909   5.487
 2101TIP3   OH2 6266   2.008   4.397   1.287
 2101TIP3    H1 6267   2.067   4.370   1.216
 2101TIP3    H2 6268   1.920   4.387   1.250
 2102TIP3   OH2 6269   6.132   0.761   0.749
 2102TIP3    H1 6270   6.181   0.813   0.812
 2102TIP3    H2 6271   6.144   0.670   0.778
 2103TIP3   OH2 6272   7.155   3.061   4.747
 2103TIP3    H1 6273   7.209   3.098   4.817
 2103TIP3    H2 6274   7.163   3.124   4.675
 2104TIP3   OH2 6275   4.554   1.238   1.543
 2104TIP3    H1 6276   4.635   1.212   1.498
 2104TIP3    H2 6277   4.535   1.326   1.510
 2105TIP3   OH2 6278   3.309   0.160   1.198
 2105TIP3    H1 6279   3.401   0.139   1.219
 2105TIP3    H2 6280   3.277   0.083   1.151
 2106TIP3   OH2 6281   1.158   0.881   4.743
 2106TIP3    H1 6282   1.197   0.916   4.663
 2106TIP3    H2 6283   1.216   0.810   4.770
 2107TIP3   OH2 6284   4.647   6.185   0.969
 2107TIP3    H1 6285   4.697   6.266   0.978
 2107TIP3    H2 6286   4.693   6.121   1.023
 2108TIP3   OH2 6287   4.018   3.013   1.127
 2108TIP3    H1 6288   4.018   3.107   1.110
 2108TIP3    H2 6289   4.064   2.975   1.052
 2109TIP3   OH2 6290   2.947   4.094   4.488
 2109TIP3    H1 6291   3.033   4.103   4.530
 2109TIP3    H2 6292   2.899   4.172   4.513
 2110TIP3   OH2 6293   6.683   6.423   0.840
 2110TIP3    H1 6294   6.640   6.471   0.911
 2110TIP3    H2 6295   6.662   6.473   0.761
 2111TIP3   OH2 6296   3.061   2.225   1.794
 2111TIP3    H1 6297   3.087   2.215   1.885
 2111TIP3    H2 6298   3.028   2.314   1.788
 2112TIP3   OH2 6299   2.548   3.971   5.877
 2112TIP3    H1 6300   2.604   4.004   5.947
 2112TIP3    H2 6301   2.527   4.048   5.825
 2113TIP3   OH2 6302   2.258   4.470   0.648
 2113TIP3    H1 6303   2.272   4.547   0.593
 2113TIP3    H2 6304   2.170   4.483   0.685
 2114TIP3   OH2 6305   5.418   2.685   0.247
 2114TIP3    H1 6306   5.438   2.658   0.337
 2114TIP3    H2 6307   5.326   2.663   0.236
 2115TIP3   OH2 6308   0.428   0.812   1.541
 2115TIP3    H1 6309   0.486   0.852   1.606
 2115TIP3    H2 6310   0.345   0.859   1.551
 2116TIP3   OH2 6311   1.068   1.232   3.704
 2116TIP3    H1 6312   1.024   1.314   3.681
 2116TIP3    H2 6313   1.032   1.168   3.642
 2117TIP3   OH2 6314   3.616   2.260   0.883
 2117TIP3    H1 6315   3.682   2.192   0.893
 2117TIP3    H2 6316   3.656   2.338   0.922
 2118TIP3   OH2 6317   2.868   3.835   3.492
 2118TIP3    H1 6318   2.961   3.859   3.494
 2118TIP3    H2 6319   2.842   3.835   3.584
 2119TIP3   OH2 6320   6.337   5.985   0.404
 2119TIP3    H1 6321   6.366   5.898   0.376
 2119TIP3    H2 6322   6.419   6.032   0.423
 2120TIP3   OH2 6323   1.593   2.865   3.276
 2120TIP3    H1 6324   1.669   2.809   3.289
 2120TIP3    H2 6325   1.525   2.829   3.333
 2121TIP3   OH2 6326   0.224   4.716   5.482
 2121TIP3    H1 6327   0.174   4.793   5.509
 2121TIP3    H2 6328   0.158   4.649   5.468
 2122TIP3   OH2 6329   0.497   1.077   5.648
 2122TIP3    H1 6330   0.425   1.032   5.692
 2122TIP3    H2 6331   0.525   1.015   5.580
 2123TIP3   OH2 6332   1.866   2.880   1.945
 2123TIP3    H1 6333   1.847   2.852   1.856
 2123TIP3    H2 6334   1.852   2.975   1.944
 2124TIP3   OH2 6335   6.924   5.822   5.228
 2124TIP3    H1 6336   6.914   5.756   5.297
 2124TIP3    H2 6337   7.011   5.804   5.191
 2125TIP3   OH2 6338   3.679   1.887   0.938
 2125TIP3    H1 6339   3.727   1.803   0.940
 2125TIP3    H2 6340   3.653   1.897   0.847
 2126TIP3   OH2 6341   5.961   1.841   5.859
 2126TIP3    H1 6342   5.958   1.781   5.785
 2126TIP3    H2 6343   5.974   1.928   5.820
 2127TIP3   OH2 6344   3.513   6.224   1.679
 2127TIP3    H1 6345   3.432   6.214   1.629
 2127TIP3    H2 6346   3.487   6.215   1.770
 2128TIP3   OH2 6347   4.787   0.575   4.586
 2128TIP3    H1 6348   4.738   0.649   4.621
 2128TIP3    H2 6349   4.749   0.499   4.629
 2129TIP3   OH2 6350   1.440   1.278   0.637
 2129TIP3    H1 6351   1.506   1.288   0.705
 2129TIP3    H2 6352   1.456   1.190   0.602
 2130TIP3   OH2 6353   0.641   4.326   5.481
 2130TIP3    H1 6354   0.721   4.378   5.487
 2130TIP3    H2 6355   0.670   4.242   5.447
 2131TIP3   OH2 6356   5.528   4.673   5.063
 2131TIP3    H1 6357   5.437   4.652   5.043
 2131TIP3    H2 6358   5.523   4.745   5.126
 2132TIP3   OH2 6359   0.547   0.439   4.921
 2132TIP3    H1 6360   0.634   0.479   4.917
 2132TIP3    H2 6361   0.487   0.513   4.914
 2133TIP3   OH2 6362   3.056   2.351   5.825
 2133TIP3    H1 6363   3.009   2.267   5.821
 2133TIP3    H2 6364   3.148   2.326   5.822
 2134TIP3   OH2 6365   0.783   1.425   1.313
 2134TIP3    H1 6366   0.875   1.406   1.329
 2134TIP3    H2 6367   0.783   1.480   1.235
 2135TIP3   OH2 6368   0.963   3.300   3.897
 2135TIP3    H1 6369   0.927   3.246   3.967
 2135TIP3    H2 6370   0.936   3.389   3.918
 2136TIP3   OH2 6371   2.347   1.614   5.875
 2136TIP3    H1 6372   2.385   1.636   5.960
 2136TIP3    H2 6373   2.418   1.569   5.828
 2137TIP3   OH2 6374   1.249   6.422   3.965
 2137TIP3    H1 6375   1.306   6.368   3.911
 2137TIP3    H2 6376   1.189   6.463   3.904
 2138TIP3   OH2 6377   6.577   4.676   0.748
 2138TIP3    H1 6378   6.493   4.646   0.782
 2138TIP3    H2 6379   6.622   4.713   0.825
 2139TIP3   OH2 6380   4.045   1.137   2.674
 2139TIP3    H1 6381   4.049   1.060   2.730
 2139TIP3    H2 6382   3.952   1.161   2.674
 2140TIP3   OH2 6383   2.866   2.681   1.813
 2140TIP3    H1 6384   2.881   2.687   1.907
 2140TIP3    H2 6385   2.905   2.761   1.777
 2141TIP3   OH2 6386   1.287   0.598   2.086
 2141TIP3    H1 6387   1.232   0.576   2.161
 2141TIP3    H2 6388   1.278   0.523   2.027
 2142TIP3   OH2 6389   6.480   0.957   1.146
 2142TIP3    H1 6390   6.541   0.967   1.219
 2142TIP3    H2 6391   6.504   0.873   1.107
 2143TIP3   OH2 6392   0.666   2.367   3.905
 2143TIP3    H1 6393   0.752   2.353   3.865
 2143TIP3    H2 6394   0.667   2.459   3.932
 2144TIP3   OH2 6395   0.412   1.939   4.787
 2144TIP3    H1 6396   0.419   1.916   4.694
 2144TIP3    H2 6397   0.321   1.965   4.799
 2145TIP3   OH2 6398   7.109   3.019   1.272
 2145TIP3    H1 6399   7.044   3.007   1.341
 2145TIP3    H2 6400   7.151   2.934   1.262
 2146TIP3   OH2 6401   5.993   5.385   2.419
 2146TIP3    H1 6402   6.017   5.314   2.360
 2146TIP3    H2 6403   5.897   5.382   2.423
 2147TIP3   OH2 6404   2.957   0.456   4.475
 2147TIP3    H1 6405   2.994   0.545   4.474
 2147TIP3    H2 6406   2.909   0.452   4.558
 2148TIP3   OH2 6407   5.413   0.741   1.617
 2148TIP3    H1 6408   5.360   0.669   1.583
 2148TIP3    H2 6409   5.484   0.698   1.664
 2149TIP3   OH2 6410   1.028   6.482   2.979
 2149TIP3    H1 6411   1.017   6.443   3.065
 2149TIP3    H2 6412   1.028   6.407   2.919
 2150TIP3   OH2 6413   0.684   5.291   0.496
 2150TIP3    H1 6414   0.710   5.219   0.553
 2150TIP3    H2 6415   0.758   5.303   0.437
 2151TIP3   OH2 6416   0.243   2.712   5.822
 2151TIP3    H1 6417   0.325   2.687   5.866
 2151TIP3    H2 6418   0.242   2.807   5.827
 2152TIP3   OH2 6419   0.192   1.884   2.619
 2152TIP3    H1 6420   0.240   1.929   2.549
 2152TIP3    H2 6421   0.132   1.951   2.653
 2153TIP3   OH2 6422   1.673   4.995   4.116
 2153TIP3    H1 6423   1.710   4.949   4.192
 2153TIP3    H2 6424   1.584   5.017   4.143
 2154TIP3   OH2 6425   1.315   2.926   3.113
 2154TIP3    H1 6426   1.307   2.975   3.031
 2154TIP3    H2 6427   1.324   2.994   3.180
 2155TIP3   OH2 6428   3.979   4.596   2.141
 2155TIP3    H1 6429   3.942   4.624   2.224
 2155TIP3    H2 6430   4.048   4.660   2.122
 2156TIP3   OH2 6431   2.816   0.025   3.712
 2156TIP3    H1 6432   2.873   0.081   3.765
 2156TIP3    H2 6433   2.785  -0.042   3.773
 2157TIP3   OH2 6434   4.400   2.461   3.586
 2157TIP3    H1 6435   4.427   2.434   3.674
 2157TIP3    H2 6436   4.393   2.556   3.590
 2158TIP3   OH2 6437   6.337   1.608   1.086
 2158TIP3    H1 6438   6.351   1.548   1.160
 2158TIP3    H2 6439   6.294   1.684   1.124
 2159TIP3   OH2 6440   4.182   0.187   2.139
 2159TIP3    H1 6441   4.132   0.114   2.173
 2159TIP3    H2 6442   4.125   0.227   2.073
 2160TIP3   OH2 6443   2.281   2.140   1.437
 2160TIP3    H1 6444   2.266   2.154   1.530
 2160TIP3    H2 6445   2.198   2.164   1.395
 2161TIP3   OH2 6446   3.220   1.811   1.554
 2161TIP3    H1 6447   3.156   1.880   1.572
 2161TIP3    H2 6448   3.219   1.801   1.459
 2162TIP3   OH2 6449   1.028   4.864   0.384
 2162TIP3    H1 6450   1.120   4.846   0.402
 2162TIP3    H2 6451   0.983   4.782   0.403
 2163TIP3   OH2 6452   6.006   3.171   4.801
 2163TIP3    H1 6453   6.048   3.115   4.735
 2163TIP3    H2 6454   5.946   3.226   4.750
 2164TIP3   OH2 6455   5.612   6.074   1.298
 2164TIP3    H1 6456   5.703   6.100   1.312
 2164TIP3    H2 6457   5.591   6.016   1.371
 2165TIP3   OH2 6458   6.786   2.543   4.044
 2165TIP3    H1 6459   6.849   2.487   3.997
 2165TIP3    H2 6460   6.815   2.540   4.135
 2166TIP3   OH2 6461   4.740   4.436   0.586
 2166TIP3    H1 6462   4.684   4.369   0.548
 2166TIP3    H2 6463   4.696   4.460   0.668
 2167TIP3   OH2 6464   0.521   5.409   2.874
 2167TIP3    H1 6465   0.549   5.499   2.890
 2167TIP3    H2 6466   0.431   5.406   2.905
 2168TIP3   OH2 6467   5.404   3.792   0.761
 2168TIP3    H1 6468   5.346   3.720   0.786
 2168TIP3    H2 6469   5.356   3.871   0.786
 2169TIP3   OH2 6470   1.871   0.933   0.623
 2169TIP3    H1 6471   1.954   0.896   0.653
 2169TIP3    H2 6472   1.821   0.947   0.704
 2170TIP3   OH2 6473   6.551   1.867   0.122
 2170TIP3    H1 6474   6.531   1.774   0.110
 2170TIP3    H2 6475   6.646   1.870   0.130
 2171TIP3   OH2 6476   3.021   3.695   1.127
 2171TIP3    H1 6477   3.035   3.707   1.033
 2171TIP3    H2 6478   3.109   3.684   1.163
 2172TIP3   OH2 6479   6.778   4.198   2.879
 2172TIP3    H1 6480   6.869   4.169   2.884
 2172TIP3    H2 6481   6.758   4.201   2.786
 2173TIP3   OH2 6482   5.060   0.750   3.699
 2173TIP3    H1 6483   5.148   0.772   3.732
 2173TIP3    H2 6484   5.044   0.812   3.629
 2174TIP3   OH2 6485   3.938   1.389   1.912
 2174TIP3    H1 6486   3.996   1.463   1.932
 2174TIP3    H2 6487   3.960   1.366   1.821
 2175TIP3   OH2 6488   2.777   0.191   0.064
 2175TIP3    H1 6489   2.698   0.213   0.014
 2175TIP3    H2 6490   2.747   0.185   0.155
 2176TIP3   OH2 6491   4.594   5.107   4.996
 2176TIP3    H1 6492   4.603   5.201   4.984
 2176TIP3    H2 6493   4.568   5.074   4.910
 2177TIP3   OH2 6494   4.893   6.627   1.277
 2177TIP3    H1 6495   4.980   6.647   1.243
 2177TIP3    H2 6496   4.904   6.545   1.324
 2178TIP3   OH2 6497   0.741   6.584   4.817
 2178TIP3    H1 6498   0.804   6.648   4.850
 2178TIP3    H2 6499   0.754   6.585   4.722
 2179TIP3   OH2 6500   6.324   4.911   3.300
 2179TIP3    H1 6501   6.368   4.902   3.216
 2179TIP3    H2 6502   6.393   4.900   3.365
 2180TIP3   OH2 6503   3.173   0.773   1.835
 2180TIP3    H1 6504   3.097   0.720   1.862
 2180TIP3    H2 6505   3.154   0.861   1.868
 2181TIP3   OH2 6506   3.460   3.086   2.193
 2181TIP3    H1 6507   3.388   3.129   2.147
 2181TIP3    H2 6508   3.444   3.105   2.285
 2182TIP3   OH2 6509   2.714   6.714   4.635
 2182TIP3    H1 6510   2.715   6.682   4.545
 2182TIP3    H2 6511   2.673   6.643   4.685
 2183TIP3   OH2 6512   5.251   1.853   2.379
 2183TIP3    H1 6513   5.201   1.817   2.452
 2183TIP3    H2 6514   5.189   1.856   2.306
 2184TIP3   OH2 6515   5.841   4.468   3.464
 2184TIP3    H1 6516   5.906   4.413   3.421
 2184TIP3    H2 6517   5.829   4.428   3.550
 2185TIP3   OH2 6518   5.214   4.899   1.117
 2185TIP3    H1 6519   5.275   4.968   1.144
 2185TIP3    H2 6520   5.252   4.818   1.152
 2186TIP3   OH2 6521   5.624   0.827   1.876
 2186TIP3    H1 6522   5.701   0.881   1.891
 2186TIP3    H2 6523   5.659   0.742   1.850
 2187TIP3   OH2 6524   4.052   5.389   4.939
 2187TIP3    H1 6525   4.129   5.340   4.910
 2187TIP3    H2 6526   3.998   5.400   4.861
 2188TIP3   OH2 6527   6.415   3.467   5.760
 2188TIP3    H1 6528   6.393   3.560   5.753
 2188TIP3    H2 6529   6.475   3.461   5.834
 2189TIP3   OH2 6530   5.127   3.517   1.491
 2189TIP3    H1 6531   5.128   3.462   1.413
 2189TIP3    H2 6532   5.118   3.455   1.563
 2190TIP3   OH2 6533   3.010   1.495   3.175
 2190TIP3    H1 6534   3.051   1.528   3.255
 2190TIP3    H2 6535   3.047   1.548   3.105
 2191TIP3   OH2 6536   7.012   2.639   4.843
 2191TIP3    H1 6537   7.095   2.686   4.834
 2191TIP3    H2 6538   7.021   2.590   4.925
 2192TIP3   OH2 6539   4.493   5.463   0.848
 2192TIP3    H1 6540   4.550   5.486   0.775
 2192TIP3    H2 6541   4.468   5.547   0.887
 2193TIP3   OH2 6542   5.219   5.885   0.864
 2193TIP3    H1 6543   5.180   5.914   0.947
 2193TIP3    H2 6544   5.184   5.946   0.799
 2194TIP3   OH2 6545   5.216   5.713   4.720
 2194TIP3    H1 6546   5.228   5.697   4.814
 2194TIP3    H2 6547   5.264   5.794   4.704
 2195TIP3   OH2 6548   5.699   3.418   0.627
 2195TIP3    H1 6549   5.680   3.347   0.688
 2195TIP3    H2 6550   5.687   3.498   0.678
 2196TIP3   OH2 6551   0.606   2.413   3.247
 2196TIP3    H1 6552   0.545   2.362   3.302
 2196TIP3    H2 6553   0.693   2.389   3.279
 2197TIP3   OH2 6554   6.703   2.926   4.834
 2197TIP3    H1 6555   6.686   2.835   4.809
 2197TIP3    H2 6556   6.617   2.967   4.839
 2198TIP3   OH2 6557   0.881   2.737   4.851
 2198TIP3    H1 6558   0.821   2.811   4.843
 2198TIP3    H2 6559   0.965   2.777   4.874
 2199TIP3   OH2 6560   4.032   2.941   5.786
 2199TIP3    H1 6561   3.992   2.968   5.703
 2199TIP3    H2 6562   4.044   3.022   5.835
 2200TIP3   OH2 6563   0.438   3.651   4.559
 2200TIP3    H1 6564   0.452   3.738   4.596
 2200TIP3    H2 6565   0.353   3.656   4.515
 2201TIP3   OH2 6566   7.168   0.399   3.040
 2201TIP3    H1 6567   7.083   0.361   3.063
 2201TIP3    H2 6568   7.205   0.337   2.977
 2202TIP3   OH2 6569   3.190   4.703   2.879
 2202TIP3    H1 6570   3.253   4.636   2.854
 2202TIP3    H2 6571   3.117   4.691   2.818
 2203TIP3   OH2 6572   1.014   5.384   0.757
 2203TIP3    H1 6573   1.075   5.388   0.683
 2203TIP3    H2 6574   0.988   5.475   0.772
 2204TIP3   OH2 6575   3.486   4.210   5.499
 2204TIP3    H1 6576   3.530   4.222   5.583
 2204TIP3    H2 6577   3.397   4.243   5.515
 2205TIP3   OH2 6578   3.069   0.119   2.390
 2205TIP3    H1 6579   3.006   0.123   2.318
 2205TIP3    H2 6580   3.154   0.103   2.348
 2206TIP3   OH2 6581   0.299   4.073   2.529
 2206TIP3    H1 6582   0.226   4.011   2.523
 2206TIP3    H2 6583   0.374   4.025   2.495
 2207TIP3   OH2 6584   1.052   1.708   3.320
 2207TIP3    H1 6585   0.973   1.659   3.297
 2207TIP3    H2 6586   1.049   1.716   3.415
 2208TIP3   OH2 6587   6.917   4.469   1.479
 2208TIP3    H1 6588   6.956   4.416   1.548
 2208TIP3    H2 6589   6.862   4.532   1.525
 2209TIP3   OH2 6590   5.879   2.273   3.596
 2209TIP3    H1 6591   5.880   2.337   3.667
 2209TIP3    H2 6592   5.799   2.222   3.611
 2210TIP3   OH2 6593   1.651   2.283   4.018
 2210TIP3    H1 6594   1.738   2.243   4.020
 2210TIP3    H2 6595   1.633   2.298   3.925
 2211TIP3   OH2 6596   2.969   4.728   0.810
 2211TIP3    H1 6597   3.040   4.768   0.758
 2211TIP3    H2 6598   2.925   4.670   0.748
 2212TIP3   OH2 6599   7.102   6.034   4.639
 2212TIP3    H1 6600   7.103   5.975   4.714
 2212TIP3    H2 6601   7.192   6.068   4.634
 2213TIP3   OH2 6602   1.710   0.998   0.835
 2213TIP3    H1 6603   1.651   0.934   0.877
 2213TIP3    H2 6604   1.670   1.083   0.854
 2214TIP3   OH2 6605   4.380   5.764   2.137
 2214TIP3    H1 6606   4.412   5.843   2.179
 2214TIP3    H2 6607   4.291   5.786   2.109
 2215TIP3   OH2 6608   5.157   2.745   4.036
 2215TIP3    H1 6609   5.099   2.818   4.058
 2215TIP3    H2 6610   5.225   2.783   3.981
 2216TIP3   OH2 6611   5.465   3.900   3.370
 2216TIP3    H1 6612   5.496   3.899   3.280
 2216TIP3    H2 6613   5.398   3.831   3.373
 2217TIP3   OH2 6614   1.402   1.641   0.282
 2217TIP3    H1 6615   1.481   1.668   0.235
 2217TIP3    H2 6616   1.435   1.597   0.360
 2218TIP3   OH2 6617   5.952   2.743   5.458
 2218TIP3    H1 6618   5.881   2.788   5.412
 2218TIP3    H2 6619   6.030   2.795   5.441
 2219TIP3   OH2 6620   4.609   3.283   2.139
 2219TIP3    H1 6621   4.565   3.269   2.223
 2219TIP3    H2 6622   4.539   3.311   2.080
 2220TIP3   OH2 6623   4.418   6.370   2.999
 2220TIP3    H1 6624   4.477   6.426   2.948
 2220TIP3    H2 6625   4.443   6.386   3.090
 2221TIP3   OH2 6626   4.684   3.777   5.023
 2221TIP3    H1 6627   4.634   3.835   4.966
 2221TIP3    H2 6628   4.719   3.835   5.091
 2222TIP3   OH2 6629   6.368   2.793   3.046
 2222TIP3    H1 6630   6.419   2.848   2.986
 2222TIP3    H2 6631   6.423   2.785   3.124
 2223TIP3   OH2 6632   5.568   1.448   0.864
 2223TIP3    H1 6633   5.657   1.417   0.881
 2223TIP3    H2 6634   5.578   1.543   0.856
 2224TIP3   OH2 6635   0.754   0.548   1.217
 2224TIP3    H1 6636   0.838   0.522   1.253
 2224TIP3    H2 6637   0.765   0.640   1.195
 2225TIP3   OH2 6638   4.259   3.227   2.014
 2225TIP3    H1 6639   4.328   3.226   1.947
 2225TIP3    H2 6640   4.281   3.302   2.071
 2226TIP3   OH2 6641   3.190   1.959   3.819
 2226TIP3    H1 6642   3.271   1.997   3.784
 2226TIP3    H2 6643   3.187   1.989   3.910
 2227TIP3   OH2 6644   0.498   5.740   3.367
 2227TIP3    H1 6645   0.447   5.814   3.337
 2227TIP3    H2 6646   0.505   5.752   3.461
 2228TIP3   OH2 6647   5.253   5.569   3.209
 2228TIP3    H1 6648   5.222   5.482   3.237
 2228TIP3    H2 6649   5.343   5.572   3.240
 2229TIP3   OH2 6650   5.903   6.445   1.300
 2229TIP3    H1 6651   5.894   6.458   1.394
 2229TIP3    H2 6652   5.857   6.519   1.261
 2230TIP3   OH2 6653   1.885   3.174   2.614
 2230TIP3    H1 6654   1.954   3.224   2.658
 2230TIP3    H2 6655   1.836   3.240   2.565
 2231TIP3   OH2 6656   0.338   6.227   0.699
 2231TIP3    H1 6657   0.394   6.212   0.623
 2231TIP3    H2 6658   0.360   6.315   0.728
 2232TIP3   OH2 6659   3.237   1.501   2.535
 2232TIP3    H1 6660   3.163   1.467   2.485
 2232TIP3    H2 6661   3.296   1.426   2.543
 2233TIP3   OH2 6662   2.527   4.456   4.929
 2233TIP3    H1 6663   2.470   4.526   4.960
 2233TIP3    H2 6664   2.551   4.408   5.009
 2234TIP3   OH2 6665   2.583   6.163   5.861
 2234TIP3    H1 6666   2.505   6.150   5.807
 2234TIP3    H2 6667   2.610   6.253   5.843
 2235TIP3   OH2 6668   5.280   4.274   2.958
 2235TIP3    H1 6669   5.263   4.180   2.968
 2235TIP3    H2 6670   5.260   4.310   3.044
 2236TIP3   OH2 6671   1.591   6.634   1.214
 2236TIP3    H1 6672   1.662   6.590   1.166
 2236TIP3    H2 6673   1.511   6.597   1.177
 2237TIP3   OH2 6674   1.032   2.031   5.722
 2237TIP3    H1 6675   1.111   2.072   5.687
 2237TIP3    H2 6676   0.970   2.033   5.649
 2238TIP3   OH2 6677   0.607   5.985   4.351
 2238TIP3    H1 6678   0.653   6.049   4.405
 2238TIP3    H2 6679   0.672   5.955   4.287
 2239TIP3   OH2 6680   1.064   1.397   1.323
 2239TIP3    H1 6681   1.120   1.466   1.358
 2239TIP3    H2 6682   1.124   1.342   1.272
 2240TIP3   OH2 6683   5.212   2.125   2.701
 2240TIP3    H1 6684   5.302   2.138   2.734
 2240TIP3    H2 6685   5.197   2.200   2.644
 2241TIP3   OH2 6686   0.281   2.157   1.413
 2241TIP3    H1 6687   0.366   2.119   1.436
 2241TIP3    H2 6688   0.218   2.087   1.431
 2242TIP3   OH2 6689   2.918   0.621   2.948
 2242TIP3    H1 6690   2.942   0.542   2.899
 2242TIP3    H2 6691   2.824   0.632   2.931
 2243TIP3   OH2 6692   2.582   3.013   2.838
 2243TIP3    H1 6693   2.530   3.008   2.757
 2243TIP3    H2 6694   2.518   3.028   2.907
 2244TIP3   OH2 6695   1.822   6.522   2.078
 2244TIP3    H1 6696   1.812   6.455   2.011
 2244TIP3    H2 6697   1.816   6.474   2.161
 2245TIP3   OH2 6698   3.989   1.705   0.031
 2245TIP3    H1 6699   4.076   1.673   0.008
 2245TIP3    H2 6700   3.987   1.795  -0.002
 2246TIP3   OH2 6701   1.745   0.410   0.485
 2246TIP3    H1 6702   1.769   0.422   0.576
 2246TIP3    H2 6703   1.686   0.335   0.485
 2247TIP3   OH2 6704   0.711   4.296   1.162
 2247TIP3    H1 6705   0.642   4.361   1.145
 2247TIP3    H2 6706   0.681   4.249   1.240
 2248TIP3   OH2 6707   6.036   6.509   3.518
 2248TIP3    H1 6708   6.055   6.573   3.587
 2248TIP3    H2 6709   6.027   6.426   3.566
 2249TIP3   OH2 6710   2.236   2.849   1.805
 2249TIP3    H1 6711   2.183   2.772   1.785
 2249TIP3    H2 6712   2.320   2.832   1.763
 2250TIP3   OH2 6713   5.724   0.588   1.774
 2250TIP3    H1 6714   5.697   0.496   1.769
 2250TIP3    H2 6715   5.702   0.624   1.688
 2251TIP3   OH2 6716   6.372   4.194   4.114
 2251TIP3    H1 6717   6.366   4.116   4.059
 2251TIP3    H2 6718   6.357   4.162   4.203
 2252TIP3   OH2 6719   4.304   2.608   0.548
 2252TIP3    H1 6720   4.366   2.674   0.517
 2252TIP3    H2 6721   4.339   2.581   0.633
 2253TIP3   OH2 6722   5.126   1.749   3.665
 2253TIP3    H1 6723   5.128   1.844   3.680
 2253TIP3    H2 6724   5.130   1.711   3.753
 2254TIP3   OH2 6725   2.867   2.131   5.252
 2254TIP3    H1 6726   2.879   2.226   5.255
 2254TIP3    H2 6727   2.772   2.119   5.252
 2255TIP3   OH2 6728   4.510   2.680   4.421
 2255TIP3    H1 6729   4.534   2.620   4.351
 2255TIP3    H2 6730   4.446   2.739   4.381
 2256TIP3   OH2 6731   1.420   4.479   2.900
 2256TIP3    H1 6732   1.493   4.416   2.899
 2256TIP3    H2 6733   1.364   4.451   2.827
 2257TIP3   OH2 6734   2.798   0.450   4.705
 2257TIP3    H1 6735   2.788   0.399   4.786
 2257TIP3    H2 6736   2.728   0.419   4.648
 2258TIP3   OH2 6737   3.314   6.232   3.423
 2258TIP3    H1 6738   3.259   6.240   3.346
 2258TIP3    H2 6739   3.283   6.151   3.465
 2259TIP3   OH2 6740   7.074   2.868   3.785
 2259TIP3    H1 6741   7.058   2.880   3.692
 2259TIP3    H2 6742   7.141   2.799   3.789
 2260TIP3   OH2 6743   0.859   4.253   2.094
 2260TIP3    H1 6744   0.865   4.325   2.157
 2260TIP3    H2 6745   0.766   4.233   2.089
 2261TIP3   OH2 6746   5.424   1.293   1.623
 2261TIP3    H1 6747   5.421   1.204   1.659
 2261TIP3    H2 6748   5.509   1.326   1.650
 2262TIP3   OH2 6749   2.640   4.330   2.423
 2262TIP3    H1 6750   2.559   4.380   2.433
 2262TIP3    H2 6751   2.615   4.240   2.443
 2263TIP3   OH2 6752   5.552   2.394   1.031
 2263TIP3    H1 6753   5.533   2.319   0.974
 2263TIP3    H2 6754   5.626   2.438   0.989
 2264TIP3   OH2 6755   0.885   5.395   3.610
 2264TIP3    H1 6756   0.922   5.310   3.632
 2264TIP3    H2 6757   0.804   5.375   3.565
 2265TIP3   OH2 6758   0.822   6.270   4.105
 2265TIP3    H1 6759   0.778   6.206   4.160
 2265TIP3    H2 6760   0.901   6.225   4.074
 2266TIP3   OH2 6761   0.578   3.286   5.621
 2266TIP3    H1 6762   0.647   3.228   5.656
 2266TIP3    H2 6763   0.565   3.255   5.531
 2267TIP3   OH2 6764   5.112   5.839   5.127
 2267TIP3    H1 6765   5.083   5.833   5.036
 2267TIP3    H2 6766   5.033   5.822   5.178
 2268TIP3   OH2 6767   2.398   6.519   3.120
 2268TIP3    H1 6768   2.310   6.480   3.123
 2268TIP3    H2 6769   2.388   6.604   3.163
 2269TIP3   OH2 6770   6.543   4.452   0.595
 2269TIP3    H1 6771   6.577   4.502   0.670
 2269TIP3    H2 6772   6.460   4.495   0.574
 2270TIP3   OH2 6773   6.772   4.318   5.056
 2270TIP3    H1 6774   6.803   4.409   5.049
 2270TIP3    H2 6775   6.837   4.275   5.111
 2271TIP3   OH2 6776   4.890   4.066   2.229
 2271TIP3    H1 6777   4.893   3.991   2.289
 2271TIP3    H2 6778   4.922   4.031   2.146
 2272TIP3   OH2 6779   3.724   1.284   5.002
 2272TIP3    H1 6780   3.672   1.347   4.952
 2272TIP3    H2 6781   3.698   1.299   5.093
 2273TIP3   OH2 6782   4.225   1.012   4.747
 2273TIP3    H1 6783   4.186   0.946   4.690
 2273TIP3    H2 6784   4.256   1.081   4.688
 2274TIP3   OH2 6785   6.157   3.878   4.547
 2274TIP3    H1 6786   6.176   3.834   4.630
 2274TIP3    H2 6787   6.132   3.967   4.571
 2275TIP3   OH2 6788   3.540   4.765   2.743
 2275TIP3    H1 6789   3.483   4.700   2.784
 2275TIP3    H2 6790   3.617   4.715   2.714
 2276TIP3   OH2 6791   0.969   3.642   3.545
 2276TIP3    H1 6792   0.992   3.600   3.462
 2276TIP3    H2 6793   1.042   3.701   3.563
 2277TIP3   OH2 6794   4.247   0.564   4.692
 2277TIP3    H1 6795   4.232   0.633   4.628
 2277TIP3    H2 6796   4.190   0.586   4.766
 2278TIP3   OH2 6797   2.538   1.832   2.168
 2278TIP3    H1 6798   2.488   1.914   2.176
 2278TIP3    H2 6799   2.496   1.772   2.229
 2279TIP3   OH2 6800   1.947   6.323   0.119
 2279TIP3    H1 6801   1.911   6.237   0.142
 2279TIP3    H2 6802   1.879   6.363   0.064
 2280TIP3   OH2 6803   0.645   6.291   3.856
 2280TIP3    H1 6804   0.718   6.302   3.916
 2280TIP3    H2 6805   0.595   6.217   3.892
 2281TIP3   OH2 6806   1.844   4.987   2.258
 2281TIP3    H1 6807   1.825   4.900   2.223
 2281TIP3    H2 6808   1.898   5.029   2.191
 2282TIP3   OH2 6809   1.522   5.655   1.868
 2282TIP3    H1 6810   1.500   5.600   1.793
 2282TIP3    H2 6811   1.482   5.740   1.849
 2283TIP3   OH2 6812   6.771   3.015   4.570
 2283TIP3    H1 6813   6.678   3.020   4.593
 2283TIP3    H2 6814   6.803   2.936   4.613
 2284TIP3   OH2 6815   0.062   0.252   5.356
 2284TIP3    H1 6816   0.071   0.348   5.357
 2284TIP3    H2 6817  -0.028   0.237   5.383
 2285TIP3   OH2 6818   5.784   3.594   3.318
 2285TIP3    H1 6819   5.827   3.580   3.403
 2285TIP3    H2 6820   5.743   3.511   3.298
 2286TIP3   OH2 6821   1.885   4.029   3.320
 2286TIP3    H1 6822   1.966   4.069   3.290
 2286TIP3    H2 6823   1.856   4.084   3.393
 2287TIP3   OH2 6824   0.560   1.816   0.936
 2287TIP3    H1 6825   0.612   1.817   0.855
 2287TIP3    H2 6826   0.477   1.857   0.911
 2288TIP3   OH2 6827   4.161   0.866   0.015
 2288TIP3    H1 6828   4.074   0.838   0.043
 2288TIP3    H2 6829   4.204   0.786  -0.015
 2289TIP3   OH2 6830   6.585   0.024   4.472
 2289TIP3    H1 6831   6.560   0.086   4.540
 2289TIP3    H2 6832   6.579   0.074   4.391
 2290TIP3   OH2 6833   1.238   4.629   2.560
 2290TIP3    H1 6834   1.317   4.627   2.507
 2290TIP3    H2 6835   1.190   4.550   2.534
 2291TIP3   OH2 6836   0.535   6.371   4.777
 2291TIP3    H1 6837   0.572   6.458   4.762
 2291TIP3    H2 6838   0.604   6.324   4.826
 2292TIP3   OH2 6839   6.623   4.325   3.150
 2292TIP3    H1 6840   6.715   4.306   3.166
 2292TIP3    H2 6841   6.622   4.383   3.075
 2293TIP3   OH2 6842   7.206   0.273   4.014
 2293TIP3    H1 6843   7.136   0.292   4.077
 2293TIP3    H2 6844   7.164   0.277   3.929
 2294TIP3   OH2 6845   4.255   2.581   2.760
 2294TIP3    H1 6846   4.324   2.522   2.788
 2294TIP3    H2 6847   4.293   2.669   2.768
 2295TIP3   OH2 6848   4.154   6.432   1.589
 2295TIP3    H1 6849   4.064   6.410   1.567
 2295TIP3    H2 6850   4.204   6.354   1.568
 2296TIP3   OH2 6851   2.415   1.176   0.549
 2296TIP3    H1 6852   2.431   1.255   0.601
 2296TIP3    H2 6853   2.391   1.110   0.614
 2297TIP3   OH2 6854   4.068   0.109   0.956
 2297TIP3    H1 6855   3.976   0.085   0.941
 2297TIP3    H2 6856   4.083   0.092   1.048
 2298TIP3   OH2 6857   6.342   4.894   1.538
 2298TIP3    H1 6858   6.280   4.967   1.547
 2298TIP3    H2 6859   6.324   4.858   1.451
 2299TIP3   OH2 6860   5.145   5.588   2.808
 2299TIP3    H1 6861   5.202   5.640   2.866
 2299TIP3    H2 6862   5.068   5.643   2.796
 2300TIP3   OH2 6863   1.225   5.735   2.120
 2300TIP3    H1 6864   1.268   5.656   2.152
 2300TIP3    H2 6865   1.241   5.800   2.188
 2301TIP3   OH2 6866   1.452   5.086   0.033
 2301TIP3    H1 6867   1.394   5.131   0.094
 2301TIP3    H2 6868   1.441   5.132  -0.049
 2302TIP3   OH2 6869   3.182   6.690   5.451
 2302TIP3    H1 6870   3.257   6.734   5.410
 2302TIP3    H2 6871   3.182   6.723   5.541
 2303TIP3   OH2 6872   4.881   2.136   5.392
 2303TIP3    H1 6873   4.865   2.230   5.404
 2303TIP3    H2 6874   4.944   2.132   5.320
 2304TIP3   OH2 6875   3.661   5.505   2.729
 2304TIP3    H1 6876   3.572   5.507   2.764
 2304TIP3    H2 6877   3.699   5.589   2.755
 2305TIP3   OH2 6878   0.184   4.004   4.730
 2305TIP3    H1 6879   0.167   4.057   4.652
 2305TIP3    H2 6880   0.278   4.016   4.747
 2306TIP3   OH2 6881   7.210   5.173   2.984
 2306TIP3    H1 6882   7.246   5.172   3.072
 2306TIP3    H2 6883   7.125   5.216   2.993
 2307TIP3   OH2 6884   7.232   5.532   1.527
 2307TIP3    H1 6885   7.169   5.579   1.581
 2307TIP3    H2 6886   7.185   5.455   1.496
 2308TIP3   OH2 6887   4.962   5.591   1.638
 2308TIP3    H1 6888   5.011   5.521   1.680
 2308TIP3    H2 6889   4.977   5.668   1.693
 2309TIP3   OH2 6890   5.475   5.735   1.943
 2309TIP3    H1 6891   5.557   5.753   1.990
 2309TIP3    H2 6892   5.479   5.791   1.866
 2310TIP3   OH2 6893   4.719   3.932   0.991
 2310TIP3    H1 6894   4.687   4.015   1.026
 2310TIP3    H2 6895   4.703   3.869   1.061
 2311TIP3   OH2 6896   0.078   1.015   0.461
 2311TIP3    H1 6897   0.034   0.934   0.484
 2311TIP3    H2 6898   0.023   1.054   0.393
 2312TIP3   OH2 6899   1.971   4.637   4.346
 2312TIP3    H1 6900   1.933   4.551   4.358
 2312TIP3    H2 6901   2.052   4.634   4.398
 2313TIP3   OH2 6902   6.013   4.793   2.999
 2313TIP3    H1 6903   6.013   4.879   3.040
 2313TIP3    H2 6904   5.990   4.732   3.070
 2314TIP3   OH2 6905   2.272   3.210   2.369
 2314TIP3    H1 6906   2.345   3.235   2.425
 2314TIP3    H2 6907   2.211   3.284   2.374
 2315TIP3   OH2 6908   6.368   5.254   1.521
 2315TIP3    H1 6909   6.305   5.258   1.593
 2315TIP3    H2 6910   6.434   5.191   1.551
 2316TIP3   OH2 6911   4.447   2.934   3.418
 2316TIP3    H1 6912   4.431   3.028   3.423
 2316TIP3    H2 6913   4.539   2.924   3.440
 2317TIP3   OH2 6914   0.399   2.860   3.124
 2317TIP3    H1 6915   0.468   2.926   3.118
 2317TIP3    H2 6916   0.443   2.777   3.109
 2318TIP3   OH2 6917   4.337   0.751   1.913
 2318TIP3    H1 6918   4.296   0.666   1.931
 2318TIP3    H2 6919   4.289   0.813   1.967
 2319TIP3   OH2 6920   5.035   0.565   1.678
 2319TIP3    H1 6921   4.993   0.589   1.596
 2319TIP3    H2 6922   5.039   0.470   1.677
 2320TIP3   OH2 6923   2.120   0.272   1.630
 2320TIP3    H1 6924   2.128   0.317   1.546
 2320TIP3    H2 6925   2.028   0.280   1.653
 2321TIP3   OH2 6926   5.814   5.958   2.719
 2321TIP3    H1 6927   5.729   5.984   2.683
 2321TIP3    H2 6928   5.849   6.039   2.757
 2322TIP3   OH2 6929   6.767   4.314   2.317
 2322TIP3    H1 6930   6.842   4.348   2.365
 2322TIP3    H2 6931   6.789   4.330   2.225
 2323TIP3   OH2 6932   6.522   5.338   5.208
 2323TIP3    H1 6933   6.490   5.307   5.123
 2323TIP3    H2 6934   6.460   5.407   5.233
 2324TIP3   OH2 6935   0.510   1.094   3.021
 2324TIP3    H1 6936   0.530   1.130   3.107
 2324TIP3    H2 6937   0.574   1.134   2.963
 2325TIP3   OH2 6938   5.017   0.102   2.984
 2325TIP3    H1 6939   5.070   0.155   2.924
 2325TIP3    H2 6940   5.054   0.015   2.979
 2326TIP3   OH2 6941   3.265   0.671   1.229
 2326TIP3    H1 6942   3.315   0.752   1.222
 2326TIP3    H2 6943   3.173   0.699   1.227
 2327TIP3   OH2 6944   5.575   4.733   0.323
 2327TIP3    H1 6945   5.650   4.774   0.366
 2327TIP3    H2 6946   5.520   4.702   0.395
 2328TIP3   OH2 6947   2.803   0.026   4.303
 2328TIP3    H1 6948   2.711   0.005   4.318
 2328TIP3    H2 6949   2.830   0.074   4.382
 2329TIP3   OH2 6950   2.496   0.910   3.172
 2329TIP3    H1 6951   2.486   0.951   3.258
 2329TIP3    H2 6952   2.531   0.979   3.116
 2330TIP3   OH2 6953   6.877   6.703   3.585
 2330TIP3    H1 6954   6.960   6.750   3.574
 2330TIP3    H2 6955   6.836   6.706   3.499
 2331TIP3   OH2 6956   2.061   2.344   2.424
 2331TIP3    H1 6957   2.141   2.345   2.478
 2331TIP3    H2 6958   2.088   2.382   2.341
 2332TIP3   OH2 6959   3.922   5.162   3.033
 2332TIP3    H1 6960   3.875   5.228   2.982
 2332TIP3    H2 6961   4.009   5.198   3.046
 2333TIP3   OH2 6962   2.772   0.301   2.653
 2333TIP3    H1 6963   2.851   0.334   2.611
 2333TIP3    H2 6964   2.703   0.361   2.624
 2334TIP3   OH2 6965   0.621   2.093   3.964
 2334TIP3    H1 6966   0.646   2.085   4.056
 2334TIP3    H2 6967   0.620   2.187   3.946
 2335TIP3   OH2 6968   5.228   5.521   1.035
 2335TIP3    H1 6969   5.179   5.596   1.069
 2335TIP3    H2 6970   5.171   5.446   1.050
 2336TIP3   OH2 6971   4.608   3.238   1.178
 2336TIP3    H1 6972   4.595   3.174   1.247
 2336TIP3    H2 6973   4.626   3.320   1.224
 2337TIP3   OH2 6974   0.265   0.898   5.403
 2337TIP3    H1 6975   0.244   0.852   5.484
 2337TIP3    H2 6976   0.194   0.962   5.393
 2338TIP3   OH2 6977   1.641   6.145   3.713
 2338TIP3    H1 6978   1.722   6.185   3.746
 2338TIP3    H2 6979   1.660   6.126   3.621
 2339TIP3   OH2 6980   2.996   2.436   0.726
 2339TIP3    H1 6981   3.076   2.446   0.674
 2339TIP3    H2 6982   3.024   2.447   0.816
 2340TIP3   OH2 6983   4.138   1.799   1.138
 2340TIP3    H1 6984   4.063   1.811   1.197
 2340TIP3    H2 6985   4.179   1.885   1.134
 2341TIP3   OH2 6986   5.937   2.650   1.158
 2341TIP3    H1 6987   5.969   2.702   1.084
 2341TIP3    H2 6988   5.912   2.715   1.223
 2342TIP3   OH2 6989   3.619   2.955   0.629
 2342TIP3    H1 6990   3.644   2.946   0.721
 2342TIP3    H2 6991   3.610   2.865   0.598
 2343TIP3   OH2 6992   4.589   3.864   1.821
 2343TIP3    H1 6993   4.532   3.937   1.845
 2343TIP3    H2 6994   4.534   3.786   1.834
 2344TIP3   OH2 6995   2.159   1.351   2.000
 2344TIP3    H1 6996   2.185   1.301   1.923
 2344TIP3    H2 6997   2.202   1.308   2.074
 2345TIP3   OH2 6998   6.144   6.613   3.752
 2345TIP3    H1 6999   6.217   6.675   3.748
 2345TIP3    H2 7000   6.187   6.527   3.758
 2346TIP3   OH2 7001   4.673   5.205   4.489
 2346TIP3    H1 7002   4.752   5.156   4.508
 2346TIP3    H2 7003   4.700   5.271   4.425
 2347TIP3   OH2 7004   4.402   4.288   0.900
 2347TIP3    H1 7005   4.360   4.261   0.818
 2347TIP3    H2 7006   4.330   4.322   0.953
 2348TIP3   OH2 7007   3.723   3.515   0.246
 2348TIP3    H1 7008   3.632   3.525   0.274
 2348TIP3    H2 7009   3.722   3.535   0.152
 2349TIP3   OH2 7010   0.767   3.425   3.011
 2349TIP3    H1 7011   0.805   3.372   3.081
 2349TIP3    H2 7012   0.719   3.363   2.957
 2350TIP3   OH2 7013   2.322   3.162   1.829
 2350TIP3    H1 7014   2.369   3.097   1.778
 2350TIP3    H2 7015   2.333   3.244   1.780
 2351TIP3   OH2 7016   2.299   5.029   4.960
 2351TIP3    H1 7017   2.267   5.112   4.925
 2351TIP3    H2 7018   2.230   5.000   5.020
 2352TIP3   OH2 7019   5.813   0.846   4.468
 2352TIP3    H1 7020   5.842   0.781   4.532
 2352TIP3    H2 7021   5.861   0.925   4.490
 2353TIP3   OH2 7022   4.724   5.295   3.130
 2353TIP3    H1 7023   4.755   5.385   3.118
 2353TIP3    H2 7024   4.629   5.302   3.132
 2354TIP3   OH2 7025   6.631   2.736   1.952
 2354TIP3    H1 7026   6.640   2.819   1.999
 2354TIP3    H2 7027   6.665   2.754   1.864
 2355TIP3   OH2 7028   0.101   3.890   3.210
 2355TIP3    H1 7029   0.170   3.910   3.273
 2355TIP3    H2 7030   0.029   3.856   3.263
 2356TIP3   OH2 7031   5.469   4.824   2.001
 2356TIP3    H1 7032   5.415   4.751   1.972
 2356TIP3    H2 7033   5.551   4.815   1.951
 2357TIP3   OH2 7034   3.431   5.615   1.093
 2357TIP3    H1 7035   3.392   5.627   1.180
 2357TIP3    H2 7036   3.464   5.525   1.095
 2358TIP3   OH2 7037   4.013   4.958   0.521
 2358TIP3    H1 7038   4.056   4.874   0.535
 2358TIP3    H2 7039   3.933   4.953   0.573
 2359TIP3   OH2 7040   5.406   1.016   4.119
 2359TIP3    H1 7041   5.363   0.932   4.129
 2359TIP3    H2 7042   5.461   1.026   4.197
 2360TIP3   OH2 7043   5.033   5.824   2.171
 2360TIP3    H1 7044   5.017   5.844   2.079
 2360TIP3    H2 7045   5.046   5.909   2.213
 2361TIP3   OH2 7046   5.006   3.877   2.868
 2361TIP3    H1 7047   5.090   3.883   2.913
 2361TIP3    H2 7048   4.940   3.896   2.935
 2362TIP3   OH2 7049   3.490   4.184   1.883
 2362TIP3    H1 7050   3.460   4.111   1.938
 2362TIP3    H2 7051   3.583   4.166   1.868
 2363TIP3   OH2 7052   1.616   3.917   2.795
 2363TIP3    H1 7053   1.695   3.939   2.843
 2363TIP3    H2 7054   1.609   3.822   2.802
 2364TIP3   OH2 7055   3.935   1.723   0.967
 2364TIP3    H1 7056   4.005   1.751   1.025
 2364TIP3    H2 7057   3.940   1.628   0.966
 2365TIP3   OH2 7058   1.460   6.640   5.741
 2365TIP3    H1 7059   1.514   6.604   5.810
 2365TIP3    H2 7060   1.517   6.702   5.695
 2366TIP3   OH2 7061   4.669   2.604   0.440
 2366TIP3    H1 7062   4.685   2.610   0.534
 2366TIP3    H2 7063   4.665   2.510   0.421
 2367TIP3   OH2 7064   7.017   1.001   0.578
 2367TIP3    H1 7065   7.045   1.090   0.597
 2367TIP3    H2 7066   6.991   1.003   0.486
 2368TIP3   OH2 7067   1.712   6.549   0.964
 2368TIP3    H1 7068   1.737   6.626   0.913
 2368TIP3    H2 7069   1.787   6.490   0.958
 2369TIP3   OH2 7070   4.875   2.508   5.852
 2369TIP3    H1 7071   4.808   2.559   5.898
 2369TIP3    H2 7072   4.953   2.564   5.853
 2370TIP3   OH2 7073   4.778   4.275   5.444
 2370TIP3    H1 7074   4.744   4.341   5.504
 2370TIP3    H2 7075   4.792   4.322   5.362
 2371TIP3   OH2 7076   5.396   5.829   1.159
 2371TIP3    H1 7077   5.439   5.818   1.244
 2371TIP3    H2 7078   5.304   5.808   1.176
 2372TIP3   OH2 7079   5.902   1.657   5.029
 2372TIP3    H1 7080   5.993   1.655   4.998
 2372TIP3    H2 7081   5.850   1.660   4.950
 2373TIP3   OH2 7082   4.223   3.476   0.014
 2373TIP3    H1 7083   4.192   3.396   0.057
 2373TIP3    H2 7084   4.318   3.475   0.025
 2374TIP3   OH2 7085   1.438   1.644   3.948
 2374TIP3    H1 7086   1.397   1.723   3.981
 2374TIP3    H2 7087   1.516   1.674   3.902
 2375TIP3   OH2 7088   2.280   4.196   4.407
 2375TIP3    H1 7089   2.355   4.255   4.424
 2375TIP3    H2 7090   2.279   4.186   4.312
 2376TIP3   OH2 7091   7.113   1.901   1.725
 2376TIP3    H1 7092   7.201   1.940   1.724
 2376TIP3    H2 7093   7.071   1.937   1.803
 2377TIP3   OH2 7094   4.180   1.098   5.405
 2377TIP3    H1 7095   4.094   1.086   5.364
 2377TIP3    H2 7096   4.217   1.010   5.409
 2378TIP3   OH2 7097   3.407   0.350   0.117
 2378TIP3    H1 7098   3.396   0.395   0.201
 2378TIP3    H2 7099   3.317   0.330   0.089
 2379TIP3   OH2 7100   2.909   0.034   2.658
 2379TIP3    H1 7101   2.831   0.089   2.646
 2379TIP3    H2 7102   2.924  -0.005   2.572
 2380TIP3   OH2 7103   5.656   1.416   1.702
 2380TIP3    H1 7104   5.633   1.485   1.640
 2380TIP3    H2 7105   5.746   1.435   1.727
 2381TIP3   OH2 7106   6.988   1.417   0.027
 2381TIP3    H1 7107   6.997   1.373   0.111
 2381TIP3    H2 7108   7.035   1.500   0.038
 2382TIP3   OH2 7109   6.899   2.297   1.570
 2382TIP3    H1 7110   6.931   2.329   1.654
 2382TIP3    H2 7111   6.970   2.317   1.508
 2383TIP3   OH2 7112   6.841   2.132   5.209
 2383TIP3    H1 7113   6.791   2.095   5.136
 2383TIP3    H2 7114   6.815   2.080   5.285
 2384TIP3   OH2 7115   1.663   6.452   2.635
 2384TIP3    H1 7116   1.753   6.470   2.609
 2384TIP3    H2 7117   1.671   6.395   2.711
 2385TIP3   OH2 7118   3.110   6.719   1.740
 2385TIP3    H1 7119   3.139   6.729   1.831
 2385TIP3    H2 7120   3.053   6.794   1.724
 2386TIP3   OH2 7121   2.816   1.063   5.511
 2386TIP3    H1 7122   2.763   0.985   5.496
 2386TIP3    H2 7123   2.754   1.136   5.505
 2387TIP3   OH2 7124   2.580   6.626   0.019
 2387TIP3    H1 7125   2.577   6.569   0.096
 2387TIP3    H2 7126   2.497   6.675   0.023
 2388TIP3   OH2 7127   4.408   0.323   1.224
 2388TIP3    H1 7128   4.435   0.407   1.260
 2388TIP3    H2 7129   4.320   0.339   1.188
 2389TIP3   OH2 7130   2.697   5.148   2.516
 2389TIP3    H1 7131   2.653   5.198   2.584
 2389TIP3    H2 7132   2.628   5.126   2.454
 2390TIP3   OH2 7133   6.786   6.495   3.365
 2390TIP3    H1 7134   6.736   6.448   3.299
 2390TIP3    H2 7135   6.741   6.579   3.375
 2391TIP3   OH2 7136   1.346   2.599   0.694
 2391TIP3    H1 7137   1.314   2.509   0.686
 2391TIP3    H2 7138   1.397   2.599   0.776
 2392TIP3   OH2 7139   5.382   0.893   2.385
 2392TIP3    H1 7140   5.474   0.899   2.409
 2392TIP3    H2 7141   5.373   0.808   2.342
 2393TIP3   OH2 7142   6.610   6.285   2.704
 2393TIP3    H1 7143   6.629   6.194   2.728
 2393TIP3    H2 7144   6.570   6.279   2.617
 2394TIP3   OH2 7145   1.958   5.724   4.138
 2394TIP3    H1 7146   1.874   5.754   4.104
 2394TIP3    H2 7147   1.950   5.733   4.233
 2395TIP3   OH2 7148   0.529   1.366   1.141
 2395TIP3    H1 7149   0.545   1.451   1.099
 2395TIP3    H2 7150   0.588   1.364   1.216
 2396TIP3   OH2 7151   6.778   3.516   2.866
 2396TIP3    H1 7152   6.705   3.456   2.850
 2396TIP3    H2 7153   6.739   3.591   2.911
 2397TIP3   OH2 7154   5.881   5.212   0.931
 2397TIP3    H1 7155   5.797   5.186   0.894
 2397TIP3    H2 7156   5.922   5.130   0.959
 2398TIP3   OH2 7157   3.601   3.066   3.589
 2398TIP3    H1 7158   3.592   3.161   3.596
 2398TIP3    H2 7159   3.684   3.053   3.544
 2399TIP3   OH2 7160   2.389   4.296   2.145
 2399TIP3    H1 7161   2.426   4.328   2.063
 2399TIP3    H2 7162   2.359   4.374   2.191
 2400TIP3   OH2 7163   5.308  -0.018   4.210
 2400TIP3    H1 7164   5.282   0.056   4.154
 2400TIP3    H2 7165   5.400   0.000   4.231
 2401TIP3   OH2 7166   4.907   4.599   5.467
 2401TIP3    H1 7167   4.825   4.560   5.499
 2401TIP3    H2 7168   4.892   4.694   5.473
 2402TIP3   OH2 7169   6.702   4.651   1.230
 2402TIP3    H1 7170   6.623   4.612   1.193
 2402TIP3    H2 7171   6.672   4.688   1.314
 2403TIP3   OH2 7172   2.724   2.026   5.718
 2403TIP3    H1 7173   2.768   2.077   5.650
 2403TIP3    H2 7174   2.692   2.091   5.780
 2404TIP3   OH2 7175   3.862   5.444   4.723
 2404TIP3    H1 7176   3.922   5.385   4.678
 2404TIP3    H2 7177   3.791   5.387   4.754
 2405TIP3   OH2 7178   4.465   2.366   3.837
 2405TIP3    H1 7179   4.524   2.311   3.889
 2405TIP3    H2 7180   4.380   2.323   3.845
 2406TIP3   OH2 7181   6.371   0.280   2.893
 2406TIP3    H1 7182   6.403   0.366   2.865
 2406TIP3    H2 7183   6.351   0.234   2.811
 2407TIP3   OH2 7184   1.584   4.309   4.303
 2407TIP3    H1 7185   1.544   4.375   4.246
 2407TIP3    H2 7186   1.512   4.252   4.329
 2408TIP3   OH2 7187   4.763   6.508   2.606
 2408TIP3    H1 7188   4.791   6.565   2.677
 2408TIP3    H2 7189   4.832   6.515   2.540
 2409TIP3   OH2 7190   0.947   5.594   5.753
 2409TIP3    H1 7191   0.868   5.600   5.699
 2409TIP3    H2 7192   0.939   5.511   5.799
 2410TIP3   OH2 7193   1.864   2.213   5.270
 2410TIP3    H1 7194   1.872   2.308   5.273
 2410TIP3    H2 7195   1.789   2.197   5.213
 2411TIP3   OH2 7196   6.648   4.785   0.975
 2411TIP3    H1 7197   6.624   4.877   0.980
 2411TIP3    H2 7198   6.636   4.752   1.064
 2412TIP3   OH2 7199   6.210   5.825   4.826
 2412TIP3    H1 7200   6.121   5.806   4.853
 2412TIP3    H2 7201   6.219   5.783   4.741
 2413TIP3   OH2 7202   3.871   4.636   1.883
 2413TIP3    H1 7203   3.910   4.610   1.967
 2413TIP3    H2 7204   3.945   4.634   1.821
 2414TIP3   OH2 7205   2.849   2.422   1.990
 2414TIP3    H1 7206   2.867   2.491   2.054
 2414TIP3    H2 7207   2.777   2.456   1.938
 2415TIP3   OH2 7208   7.048   1.492   1.094
 2415TIP3    H1 7209   7.059   1.398   1.111
 2415TIP3    H2 7210   7.065   1.534   1.178
 2416TIP3   OH2 7211   1.228   2.259   3.191
 2416TIP3    H1 7212   1.311   2.283   3.232
 2416TIP3    H2 7213   1.218   2.166   3.211
 2417TIP3   OH2 7214   4.291   4.645   3.013
 2417TIP3    H1 7215   4.337   4.565   2.988
 2417TIP3    H2 7216   4.358   4.701   3.051
 2418TIP3   OH2 7217   6.763   0.252   3.956
 2418TIP3    H1 7218   6.678   0.286   3.929
 2418TIP3    H2 7219   6.751   0.157   3.958
 2419TIP3   OH2 7220   1.002   3.998   0.784
 2419TIP3    H1 7221   1.077   3.943   0.761
 2419TIP3    H2 7222   0.966   4.026   0.700
 2420TIP3   OH2 7223   0.190   4.204   0.660
 2420TIP3    H1 7224   0.215   4.224   0.750
 2420TIP3    H2 7225   0.096   4.191   0.663
 2421TIP3   OH2 7226   3.554   5.869   5.154
 2421TIP3    H1 7227   3.601   5.924   5.093
 2421TIP3    H2 7228   3.467   5.859   5.115
 2422TIP3   OH2 7229   0.065   6.590   3.082
 2422TIP3    H1 7230   0.160   6.600   3.093
 2422TIP3    H2 7231   0.054   6.499   3.056
 2423TIP3   OH2 7232   0.334   1.125   0.227
 2423TIP3    H1 7233   0.404   1.162   0.173
 2423TIP3    H2 7234   0.313   1.042   0.185
 2424TIP3   OH2 7235   4.982   1.242   2.055
 2424TIP3    H1 7236   5.077   1.241   2.053
 2424TIP3    H2 7237   4.956   1.161   2.011
 2425TIP3   OH2 7238   5.405   2.939   0.648
 2425TIP3    H1 7239   5.366   2.915   0.732
 2425TIP3    H2 7240   5.489   2.894   0.646
 2426TIP3   OH2 7241   2.729   0.855   1.993
 2426TIP3    H1 7242   2.699   0.942   2.019
 2426TIP3    H2 7243   2.665   0.795   2.032
 2427TIP3   OH2 7244   1.553   4.827   0.006
 2427TIP3    H1 7245   1.560   4.773   0.085
 2427TIP3    H2 7246   1.556   4.917   0.039
 2428TIP3   OH2 7247   3.860   1.341   0.097
 2428TIP3    H1 7248   3.914   1.382   0.030
 2428TIP3    H2 7249   3.841   1.412   0.159
 2429TIP3   OH2 7250   5.644   4.476   0.262
 2429TIP3    H1 7251   5.663   4.570   0.268
 2429TIP3    H2 7252   5.694   4.447   0.186
 2430TIP3   OH2 7253   3.230   5.962   3.439
 2430TIP3    H1 7254   3.175   5.920   3.372
 2430TIP3    H2 7255   3.206   5.918   3.520
 2431TIP3   OH2 7256   5.958   6.251   3.647
 2431TIP3    H1 7257   5.979   6.175   3.701
 2431TIP3    H2 7258   5.902   6.216   3.577
 2432TIP3   OH2 7259   3.312   4.136   3.344
 2432TIP3    H1 7260   3.350   4.129   3.431
 2432TIP3    H2 7261   3.333   4.225   3.315
 2433TIP3   OH2 7262   4.939   4.984   5.752
 2433TIP3    H1 7263   4.993   5.057   5.782
 2433TIP3    H2 7264   5.000   4.911   5.744
 2434TIP3   OH2 7265   7.212   5.728   4.004
 2434TIP3    H1 7266   7.225   5.703   4.095
 2434TIP3    H2 7267   7.156   5.806   4.008
 2435TIP3   OH2 7268   1.706   5.569   4.663
 2435TIP3    H1 7269   1.747   5.542   4.745
 2435TIP3    H2 7270   1.780   5.590   4.605
 2436TIP3   OH2 7271   1.077   2.704   5.528
 2436TIP3    H1 7272   1.084   2.666   5.615
 2436TIP3    H2 7273   1.114   2.638   5.469
 2437TIP3   OH2 7274   1.724   4.466   4.464
 2437TIP3    H1 7275   1.772   4.414   4.528
 2437TIP3    H2 7276   1.679   4.401   4.409
 2438TIP3   OH2 7277   3.347   5.627   1.345
 2438TIP3    H1 7278   3.277   5.578   1.388
 2438TIP3    H2 7279   3.427   5.596   1.388
 2439TIP3   OH2 7280   2.018   4.098   4.648
 2439TIP3    H1 7281   1.990   4.024   4.595
 2439TIP3    H2 7282   2.110   4.110   4.627
 2440TIP3   OH2 7283   2.595   0.092   2.221
 2440TIP3    H1 7284   2.643   0.009   2.225
 2440TIP3    H2 7285   2.514   0.071   2.175
 2441TIP3   OH2 7286   0.358   0.165   0.747
 2441TIP3    H1 7287   0.346   0.224   0.673
 2441TIP3    H2 7288   0.397   0.087   0.709
 2442TIP3   OH2 7289   6.851   2.335   5.384
 2442TIP3    H1 7290   6.849   2.257   5.329
 2442TIP3    H2 7291   6.928   2.384   5.354
 2443TIP3   OH2 7292   6.947   5.629   3.929
 2443TIP3    H1 7293   6.933   5.647   4.022
 2443TIP3    H2 7294   7.039   5.651   3.914
 2444TIP3   OH2 7295   3.904   1.983  -0.013
 2444TIP3    H1 7296   3.961   2.059  -0.023
 2444TIP3    H2 7297   3.881   1.982   0.080
 2445TIP3   OH2 7298   5.753   4.561   4.560
 2445TIP3    H1 7299   5.814   4.613   4.613
 2445TIP3    H2 7300   5.714   4.623   4.499
 2446TIP3   OH2 7301   2.407   5.102   5.729
 2446TIP3    H1 7302   2.438   5.190   5.704
 2446TIP3    H2 7303   2.333   5.118   5.787
 2447TIP3   OH2 7304   6.280   4.293   0.614
 2447TIP3    H1 7305   6.186   4.289   0.628
 2447TIP3    H2 7306   6.296   4.380   0.577
 2448TIP3   OH2 7307   5.127   1.421   4.627
 2448TIP3    H1 7308   5.187   1.428   4.553
 2448TIP3    H2 7309   5.144   1.501   4.678
 2449TIP3   OH2 7310   4.372   3.543   4.609
 2449TIP3    H1 7311   4.318   3.615   4.642
 2449TIP3    H2 7312   4.435   3.585   4.551
 2450TIP3   OH2 7313   3.299   4.397   5.580
 2450TIP3    H1 7314   3.234   4.464   5.599
 2450TIP3    H2 7315   3.297   4.339   5.656
 2451TIP3   OH2 7316   3.197   4.918   4.319
 2451TIP3    H1 7317   3.120   4.964   4.286
 2451TIP3    H2 7318   3.241   4.982   4.375
 2452TIP3   OH2 7319   5.612   6.198   2.455
 2452TIP3    H1 7320   5.630   6.158   2.370
 2452TIP3    H2 7321   5.533   6.251   2.441
 2453TIP3   OH2 7322   0.829   0.691   0.733
 2453TIP3    H1 7323   0.902   0.723   0.787
 2453TIP3    H2 7324   0.817   0.600   0.761
 2454TIP3   OH2 7325   2.484   0.647   1.123
 2454TIP3    H1 7326   2.573   0.675   1.142
 2454TIP3    H2 7327   2.471   0.670   1.031
 2455TIP3   OH2 7328   2.690   2.708   3.645
 2455TIP3    H1 7329   2.744   2.774   3.601
 2455TIP3    H2 7330   2.743   2.681   3.720
 2456TIP3   OH2 7331   4.672   6.012   3.691
 2456TIP3    H1 7332   4.672   5.939   3.629
 2456TIP3    H2 7333   4.733   6.075   3.654
 2457TIP3   OH2 7334   0.913   4.424   5.432
 2457TIP3    H1 7335   0.997   4.408   5.475
 2457TIP3    H2 7336   0.905   4.519   5.428
 2458TIP3   OH2 7337   0.672   5.617   0.926
 2458TIP3    H1 7338   0.644   5.530   0.898
 2458TIP3    H2 7339   0.607   5.676   0.888
 2459TIP3   OH2 7340   0.401   0.771   2.735
 2459TIP3    H1 7341   0.408   0.716   2.658
 2459TIP3    H2 7342   0.463   0.843   2.720
 2460TIP3   OH2 7343   3.389   0.903   1.212
 2460TIP3    H1 7344   3.346   0.988   1.222
 2460TIP3    H2 7345   3.481   0.924   1.196
 2461TIP3   OH2 7346   5.180   2.509   4.497
 2461TIP3    H1 7347   5.177   2.509   4.401
 2461TIP3    H2 7348   5.165   2.601   4.521
 2462TIP3   OH2 7349   5.175   6.595   1.207
 2462TIP3    H1 7350   5.212   6.606   1.295
 2462TIP3    H2 7351   5.240   6.634   1.148
 2463TIP3   OH2 7352   0.528   3.953   2.479
 2463TIP3    H1 7353   0.617   3.986   2.493
 2463TIP3    H2 7354   0.523   3.939   2.384
 2464TIP3   OH2 7355   5.781   5.190   1.859
 2464TIP3    H1 7356   5.777   5.183   1.954
 2464TIP3    H2 7357   5.719   5.260   1.838
 2465TIP3   OH2 7358   7.060   3.573   4.669
 2465TIP3    H1 7359   7.136   3.624   4.694
 2465TIP3    H2 7360   7.012   3.560   4.751
 2466TIP3   OH2 7361   5.169   2.982   4.787
 2466TIP3    H1 7362   5.152   2.913   4.852
 2466TIP3    H2 7363   5.247   3.026   4.820
 2467TIP3   OH2 7364   5.817   6.428   0.033
 2467TIP3    H1 7365   5.842   6.516   0.061
 2467TIP3    H2 7366   5.738   6.442  -0.020
 2468TIP3   OH2 7367   5.443   0.582   0.683
 2468TIP3    H1 7368   5.532   0.615   0.700
 2468TIP3    H2 7369   5.430   0.596   0.589
 2469TIP3   OH2 7370   6.233   3.754   5.610
 2469TIP3    H1 7371   6.250   3.783   5.520
 2469TIP3    H2 7372   6.266   3.825   5.665
 2470TIP3   OH2 7373   2.815   6.321   2.949
 2470TIP3    H1 7374   2.742   6.384   2.946
 2470TIP3    H2 7375   2.892   6.374   2.926
 2471TIP3   OH2 7376   5.366   3.593   4.007
 2471TIP3    H1 7377   5.335   3.518   4.058
 2471TIP3    H2 7378   5.388   3.555   3.922
 2472TIP3   OH2 7379   3.722   2.317   1.589
 2472TIP3    H1 7380   3.658   2.252   1.563
 2472TIP3    H2 7381   3.803   2.292   1.544
 2473TIP3   OH2 7382   4.799   5.427   5.336
 2473TIP3    H1 7383   4.783   5.398   5.426
 2473TIP3    H2 7384   4.885   5.469   5.340
 2474TIP3   OH2 7385   6.268   2.628   2.280
 2474TIP3    H1 7386   6.250   2.712   2.323
 2474TIP3    H2 7387   6.317   2.652   2.202
 2475TIP3   OH2 7388   2.164   4.679   1.733
 2475TIP3    H1 7389   2.080   4.634   1.747
 2475TIP3    H2 7390   2.178   4.674   1.638
 2476TIP3   OH2 7391   5.381   5.014   4.308
 2476TIP3    H1 7392   5.384   5.069   4.387
 2476TIP3    H2 7393   5.386   5.076   4.236
 2477TIP3   OH2 7394   2.323   1.973   0.044
 2477TIP3    H1 7395   2.363   1.965   0.131
 2477TIP3    H2 7396   2.304   2.066   0.034
 2478TIP3   OH2 7397   2.227   5.244   0.530
 2478TIP3    H1 7398   2.275   5.251   0.448
 2478TIP3    H2 7399   2.140   5.279   0.510
 2479TIP3   OH2 7400   1.377   2.312   1.039
 2479TIP3    H1 7401   1.397   2.247   0.972
 2479TIP3    H2 7402   1.324   2.264   1.104
 2480TIP3   OH2 7403   5.643   6.008   3.227
 2480TIP3    H1 7404   5.597   5.984   3.307
 2480TIP3    H2 7405   5.581   6.062   3.179
 2481TIP3   OH2 7406   5.750   4.101   2.991
 2481TIP3    H1 7407   5.747   4.181   2.938
 2481TIP3    H2 7408   5.802   4.124   3.067
 2482TIP3   OH2 7409   1.102   1.398   3.936
 2482TIP3    H1 7410   1.104   1.346   3.856
 2482TIP3    H2 7411   1.191   1.431   3.946
 2483TIP3   OH2 7412   2.707   6.257   4.743
 2483TIP3    H1 7413   2.666   6.232   4.826
 2483TIP3    H2 7414   2.658   6.335   4.716
 2484TIP3   OH2 7415   4.023   2.367   2.783
 2484TIP3    H1 7416   4.068   2.322   2.712
 2484TIP3    H2 7417   4.084   2.436   2.810
 2485TIP3   OH2 7418   0.270   0.962   2.223
 2485TIP3    H1 7419   0.358   0.924   2.215
 2485TIP3    H2 7420   0.274   1.012   2.305
 2486TIP3   OH2 7421   1.677   0.941   2.570
 2486TIP3    H1 7422   1.666   0.852   2.537
 2486TIP3    H2 7423   1.749   0.936   2.632
 2487TIP3   OH2 7424   3.073   1.844   5.541
 2487TIP3    H1 7425   3.098   1.933   5.569
 2487TIP3    H2 7426   2.992   1.826   5.587
 2488TIP3   OH2 7427   0.227   1.213   2.023
 2488TIP3    H1 7428   0.183   1.160   1.957
 2488TIP3    H2 7429   0.244   1.153   2.095
 2489TIP3   OH2 7430   1.413   6.216   3.835
 2489TIP3    H1 7431   1.402   6.286   3.771
 2489TIP3    H2 7432   1.499   6.178   3.815
 2490TIP3   OH2 7433   0.924   3.969   3.795
 2490TIP3    H1 7434   0.856   3.905   3.773
 2490TIP3    H2 7435   0.931   4.025   3.718
 2491TIP3   OH2 7436   4.338   5.146   0.353
 2491TIP3    H1 7437   4.251   5.168   0.387
 2491TIP3    H2 7438   4.328   5.057   0.321
 2492TIP3   OH2 7439   3.920   3.467   3.962
 2492TIP3    H1 7440   3.947   3.377   3.943
 2492TIP3    H2 7441   3.958   3.519   3.891
 2493TIP3   OH2 7442   6.414   3.138   0.354
 2493TIP3    H1 7443   6.426   3.046   0.379
 2493TIP3    H2 7444   6.328   3.139   0.312
 2494TIP3   OH2 7445   5.546   1.535   5.573
 2494TIP3    H1 7446   5.477   1.493   5.522
 2494TIP3    H2 7447   5.621   1.477   5.564
 2495TIP3   OH2 7448   2.627   0.322   1.092
 2495TIP3    H1 7449   2.630   0.226   1.089
 2495TIP3    H2 7450   2.558   0.345   1.030
 2496TIP3   OH2 7451   6.092   3.600   2.962
 2496TIP3    H1 7452   6.010   3.589   2.913
 2496TIP3    H2 7453   6.066   3.593   3.054
 2497TIP3   OH2 7454   6.414   0.982   2.585
 2497TIP3    H1 7455   6.399   0.971   2.678
 2497TIP3    H2 7456   6.342   0.935   2.543
 2498TIP3   OH2 7457   4.794   0.742   5.136
 2498TIP3    H1 7458   4.778   0.792   5.056
 2498TIP3    H2 7459   4.851   0.671   5.110
 2499TIP3   OH2 7460   6.415   0.401   1.075
 2499TIP3    H1 7461   6.348   0.425   1.011
 2499TIP3    H2 7462   6.429   0.307   1.061
 2500TIP3   OH2 7463   4.286   4.068   4.963
 2500TIP3    H1 7464   4.240   4.035   5.041
 2500TIP3    H2 7465   4.312   4.157   4.986
 2501TIP3   OH2 7466   3.396   4.396   3.625
 2501TIP3    H1 7467   3.366   4.436   3.544
 2501TIP3    H2 7468   3.328   4.418   3.689
 2502TIP3   OH2 7469   1.181   2.323   1.518
 2502TIP3    H1 7470   1.134   2.247   1.483
 2502TIP3    H2 7471   1.194   2.302   1.611
 2503TIP3   OH2 7472   6.439   0.857   5.575
 2503TIP3    H1 7473   6.504   0.897   5.517
 2503TIP3    H2 7474   6.410   0.779   5.528
 2504TIP3   OH2 7475   5.401   6.785   0.478
 2504TIP3    H1 7476   5.343   6.781   0.554
 2504TIP3    H2 7477   5.485   6.813   0.513
 2505TIP3   OH2 7478   6.717   3.996   2.205
 2505TIP3    H1 7479   6.645   4.051   2.173
 2505TIP3    H2 7480   6.796   4.038   2.169
 2506TIP3   OH2 7481   5.664   6.155   1.594
 2506TIP3    H1 7482   5.714   6.137   1.674
 2506TIP3    H2 7483   5.729   6.147   1.524
 2507TIP3   OH2 7484   6.347   2.945   0.646
 2507TIP3    H1 7485   6.434   2.920   0.676
 2507TIP3    H2 7486   6.347   2.923   0.552
 2508TIP3   OH2 7487   3.470   6.343   0.327
 2508TIP3    H1 7488   3.474   6.433   0.294
 2508TIP3    H2 7489   3.557   6.327   0.363
 2509TIP3   OH2 7490   6.619   0.782   5.186
 2509TIP3    H1 7491   6.531   0.773   5.223
 2509TIP3    H2 7492   6.632   0.876   5.178
 2510TIP3   OH2 7493   0.146   3.263   3.774
 2510TIP3    H1 7494   0.163   3.339   3.829
 2510TIP3    H2 7495   0.055   3.273   3.747
 2511TIP3   OH2 7496   4.282   4.371   1.171
 2511TIP3    H1 7497   4.202   4.320   1.184
 2511TIP3    H2 7498   4.263   4.457   1.210
 2512TIP3   OH2 7499   2.133   1.419   3.458
 2512TIP3    H1 7500   2.063   1.420   3.392
 2512TIP3    H2 7501   2.089   1.388   3.537
 2513TIP3   OH2 7502   7.126   1.452   4.894
 2513TIP3    H1 7503   7.162   1.540   4.898
 2513TIP3    H2 7504   7.121   1.432   4.801
 2514TIP3   OH2 7505   6.138   2.402   4.236
 2514TIP3    H1 7506   6.134   2.364   4.149
 2514TIP3    H2 7507   6.210   2.465   4.233
 2515TIP3   OH2 7508   6.460   6.694   2.495
 2515TIP3    H1 7509   6.382   6.741   2.466
 2515TIP3    H2 7510   6.457   6.699   2.591
 2516TIP3   OH2 7511   3.724   2.319   0.107
 2516TIP3    H1 7512   3.636   2.282   0.108
 2516TIP3    H2 7513   3.782   2.244   0.120
 2517TIP3   OH2 7514   2.672   6.293   0.780
 2517TIP3    H1 7515   2.691   6.385   0.795
 2517TIP3    H2 7516   2.759   6.252   0.769
 2518TIP3   OH2 7517   3.189   2.193   0.431
 2518TIP3    H1 7518   3.103   2.157   0.453
 2518TIP3    H2 7519   3.195   2.187   0.336
 2519TIP3   OH2 7520   5.867   1.317   4.822
 2519TIP3    H1 7521   5.867   1.345   4.914
 2519TIP3    H2 7522   5.811   1.379   4.777
 2520TIP3   OH2 7523   1.565   6.578   3.172
 2520TIP3    H1 7524   1.550   6.655   3.117
 2520TIP3    H2 7525   1.597   6.614   3.255
 2521TIP3   OH2 7526   1.777   5.794   3.626
 2521TIP3    H1 7527   1.775   5.736   3.702
 2521TIP3    H2 7528   1.837   5.864   3.651
 2522TIP3   OH2 7529   6.204   6.499   1.614
 2522TIP3    H1 7530   6.288   6.488   1.658
 2522TIP3    H2 7531   6.139   6.476   1.681
 2523TIP3   OH2 7532   6.990   0.308   2.199
 2523TIP3    H1 7533   6.904   0.349   2.202
 2523TIP3    H2 7534   6.977   0.230   2.145
 2524TIP3   OH2 7535   5.253   5.614   3.955
 2524TIP3    H1 7536   5.206   5.661   3.885
 2524TIP3    H2 7537   5.345   5.631   3.938
 2525TIP3   OH2 7538   3.772   3.823   1.543
 2525TIP3    H1 7539   3.740   3.736   1.519
 2525TIP3    H2 7540   3.697   3.865   1.586
 2526TIP3   OH2 7541   0.134   1.771   3.164
 2526TIP3    H1 7542   0.226   1.776   3.139
 2526TIP3    H2 7543   0.135   1.727   3.249
 2527TIP3   OH2 7544   1.349   4.138   4.338
 2527TIP3    H1 7545   1.345   4.120   4.432
 2527TIP3    H2 7546   1.352   4.052   4.297
 2528TIP3   OH2 7547   4.137   1.471   4.502
 2528TIP3    H1 7548   4.223   1.500   4.473
 2528TIP3    H2 7549   4.094   1.440   4.422
 2529TIP3   OH2 7550   6.029   0.839   3.012
 2529TIP3    H1 7551   5.984   0.923   3.016
 2529TIP3    H2 7552   6.090   0.841   3.085
 2530TIP3   OH2 7553   1.074   3.585   4.411
 2530TIP3    H1 7554   1.075   3.523   4.338
 2530TIP3    H2 7555   1.126   3.659   4.381
 2531TIP3   OH2 7556   5.142   1.382   0.173
 2531TIP3    H1 7557   5.143   1.367   0.078
 2531TIP3    H2 7558   5.219   1.436   0.189
 2532TIP3   OH2 7559   6.234   2.661   0.257
 2532TIP3    H1 7560   6.150   2.621   0.278
 2532TIP3    H2 7561   6.293   2.587   0.241
 2533TIP3   OH2 7562   0.560   0.522   4.633
 2533TIP3    H1 7563   0.575   0.567   4.550
 2533TIP3    H2 7564   0.474   0.482   4.622
 2534TIP3   OH2 7565   6.736   0.696   3.367
 2534TIP3    H1 7566   6.697   0.697   3.454
 2534TIP3    H2 7567   6.820   0.651   3.380
 2535TIP3   OH2 7568   3.331   5.220   2.752
 2535TIP3    H1 7569   3.270   5.237   2.823
 2535TIP3    H2 7570   3.377   5.141   2.778
 2536TIP3   OH2 7571   6.345   3.207   3.371
 2536TIP3    H1 7572   6.432   3.234   3.341
 2536TIP3    H2 7573   6.304   3.169   3.293
 2537TIP3   OH2 7574   6.212   5.205   4.322
 2537TIP3    H1 7575   6.213   5.110   4.316
 2537TIP3    H2 7576   6.123   5.227   4.349
 2538TIP3   OH2 7577   0.958   6.437   5.758
 2538TIP3    H1 7578   0.982   6.522   5.796
 2538TIP3    H2 7579   1.014   6.374   5.802
 2539TIP3   OH2 7580   3.521   3.976   3.223
 2539TIP3    H1 7581   3.458   4.044   3.247
 2539TIP3    H2 7582   3.553   3.943   3.307
 2540TIP3   OH2 7583   4.934   2.612   1.872
 2540TIP3    H1 7584   5.006   2.632   1.931
 2540TIP3    H2 7585   4.870   2.681   1.888
 2541TIP3   OH2 7586   2.375   3.030   4.235
 2541TIP3    H1 7587   2.322   2.972   4.290
 2541TIP3    H2 7588   2.317   3.054   4.163
 2542TIP3   OH2 7589   3.421   6.644   0.255
 2542TIP3    H1 7590   3.408   6.731   0.218
 2542TIP3    H2 7591   3.460   6.660   0.341
 2543TIP3   OH2 7592   5.450   1.163   5.076
 2543TIP3    H1 7593   5.412   1.084   5.038
 2543TIP3    H2 7594   5.410   1.234   5.025
 2544TIP3   OH2 7595   4.524   2.123   3.141
 2544TIP3    H1 7596   4.455   2.058   3.133
 2544TIP3    H2 7597   4.515   2.158   3.230
 2545TIP3   OH2 7598   0.648   0.962   5.039
 2545TIP3    H1 7599   0.691   0.881   5.063
 2545TIP3    H2 7600   0.568   0.964   5.092
 2546TIP3   OH2 7601   0.845   2.537   0.320
 2546TIP3    H1 7602   0.849   2.491   0.236
 2546TIP3    H2 7603   0.924   2.591   0.321
 2547TIP3   OH2 7604   0.623   6.285   1.779
 2547TIP3    H1 7605   0.675   6.219   1.733
 2547TIP3    H2 7606   0.685   6.355   1.799
 2548TIP3   OH2 7607   1.426   5.636   4.752
 2548TIP3    H1 7608   1.421   5.616   4.846
 2548TIP3    H2 7609   1.520   5.634   4.732
 2549TIP3   OH2 7610   1.475   4.446   0.074
 2549TIP3    H1 7611   1.389   4.405   0.079
 2549TIP3    H2 7612   1.458   4.539   0.085
 2550TIP3   OH2 7613   6.552   3.521   1.558
 2550TIP3    H1 7614   6.504   3.585   1.505
 2550TIP3    H2 7615   6.491   3.449   1.571
 2551TIP3   OH2 7616   3.127   0.442   3.418
 2551TIP3    H1 7617   3.189   0.514   3.406
 2551TIP3    H2 7618   3.045   0.484   3.443
 2552TIP3   OH2 7619   1.771   0.750   5.297
 2552TIP3    H1 7620   1.708   0.816   5.268
 2552TIP3    H2 7621   1.816   0.790   5.371
 2553TIP3   OH2 7622   5.374   4.559   3.157
 2553TIP3    H1 7623   5.289   4.600   3.142
 2553TIP3    H2 7624   5.353   4.475   3.198
 2554TIP3   OH2 7625   1.052   6.577   1.783
 2554TIP3    H1 7626   1.123   6.547   1.840
 2554TIP3    H2 7627   1.072   6.669   1.767
 2555TIP3   OH2 7628   6.582   2.137   0.662
 2555TIP3    H1 7629   6.665   2.167   0.698
 2555TIP3    H2 7630   6.580   2.043   0.681
 2556TIP3   OH2 7631   1.193   3.787  -0.002
 2556TIP3    H1 7632   1.196   3.877   0.030
 2556TIP3    H2 7633   1.261   3.741   0.047
 2557TIP3   OH2 7634   7.240   0.810   4.507
 2557TIP3    H1 7635   7.218   0.811   4.601
 2557TIP3    H2 7636   7.158   0.785   4.464
 2558TIP3   OH2 7637   1.105   3.665   5.690
 2558TIP3    H1 7638   1.167   3.648   5.619
 2558TIP3    H2 7639   1.041   3.594   5.684
 2559TIP3   OH2 7640   2.080   0.655   3.007
 2559TIP3    H1 7641   2.003   0.639   3.061
 2559TIP3    H2 7642   2.147   0.684   3.068
 2560TIP3   OH2 7643   0.270   5.077   2.074
 2560TIP3    H1 7644   0.335   5.037   2.132
 2560TIP3    H2 7645   0.320   5.141   2.023
 2561TIP3   OH2 7646   5.469   5.050   1.140
 2561TIP3    H1 7647   5.438   5.103   1.067
 2561TIP3    H2 7648   5.496   5.113   1.207
 2562TIP3   OH2 7649   1.127   3.558   3.319
 2562TIP3    H1 7650   1.141   3.477   3.270
 2562TIP3    H2 7651   1.214   3.597   3.329
 2563TIP3   OH2 7652   1.396   4.112   2.765
 2563TIP3    H1 7653   1.421   4.204   2.760
 2563TIP3    H2 7654   1.477   4.066   2.788
 2564TIP3   OH2 7655   4.151   3.964   2.277
 2564TIP3    H1 7656   4.142   3.894   2.341
 2564TIP3    H2 7657   4.228   3.939   2.226
 2565TIP3   OH2 7658   3.878   4.880   0.783
 2565TIP3    H1 7659   3.814   4.881   0.711
 2565TIP3    H2 7660   3.893   4.972   0.803
 2566TIP3   OH2 7661   2.663   1.738   0.246
 2566TIP3    H1 7662   2.661   1.643   0.255
 2566TIP3    H2 7663   2.597   1.769   0.308
 2567TIP3   OH2 7664   5.751   0.347   5.210
 2567TIP3    H1 7665   5.841   0.363   5.238
 2567TIP3    H2 7666   5.741   0.397   5.129
 2568TIP3   OH2 7667   1.619   6.404   4.716
 2568TIP3    H1 7668   1.627   6.415   4.621
 2568TIP3    H2 7669   1.706   6.374   4.744
 2569TIP3   OH2 7670   1.495   4.630   5.813
 2569TIP3    H1 7671   1.576   4.613   5.764
 2569TIP3    H2 7672   1.438   4.556   5.791
 2570TIP3   OH2 7673   0.561   3.699   4.852
 2570TIP3    H1 7674   0.517   3.770   4.900
 2570TIP3    H2 7675   0.645   3.737   4.827
 2571TIP3   OH2 7676   2.657   2.279   3.528
 2571TIP3    H1 7677   2.650   2.365   3.486
 2571TIP3    H2 7678   2.601   2.285   3.605
 2572TIP3   OH2 7679   2.554   2.732   0.215
 2572TIP3    H1 7680   2.539   2.824   0.195
 2572TIP3    H2 7681   2.590   2.733   0.304
 2573TIP3   OH2 7682   5.496   0.422   4.217
 2573TIP3    H1 7683   5.526   0.474   4.291
 2573TIP3    H2 7684   5.541   0.338   4.227
 2574TIP3   OH2 7685   5.662   0.672   0.834
 2574TIP3    H1 7686   5.754   0.691   0.813
 2574TIP3    H2 7687   5.617   0.755   0.819
 2575TIP3   OH2 7688   3.682   4.668   5.293
 2575TIP3    H1 7689   3.746   4.597   5.285
 2575TIP3    H2 7690   3.615   4.634   5.353
 2576TIP3   OH2 7691   5.091   5.515   0.457
 2576TIP3    H1 7692   5.155   5.449   0.482
 2576TIP3    H2 7693   5.142   5.583   0.413
 2577TIP3   OH2 7694   4.581   2.208   2.886
 2577TIP3    H1 7695   4.546   2.182   2.972
 2577TIP3    H2 7696   4.579   2.127   2.835
 2578TIP3   OH2 7697   1.878   4.783   5.719
 2578TIP3    H1 7698   1.928   4.728   5.658
 2578TIP3    H2 7699   1.886   4.738   5.803
 2579TIP3   OH2 7700   5.035   4.202   3.320
 2579TIP3    H1 7701   4.962   4.263   3.313
 2579TIP3    H2 7702   5.042   4.183   3.413
 2580TIP3   OH2 7703   3.113   0.229   1.875
 2580TIP3    H1 7704   3.064   0.147   1.886
 2580TIP3    H2 7705   3.168   0.234   1.954
 2581TIP3   OH2 7706   1.831   3.209   5.092
 2581TIP3    H1 7707   1.807   3.300   5.075
 2581TIP3    H2 7708   1.927   3.208   5.088
 2582TIP3   OH2 7709   6.312   6.406   5.185
 2582TIP3    H1 7710   6.340   6.461   5.111
 2582TIP3    H2 7711   6.370   6.330   5.183
 2583TIP3   OH2 7712   3.766   6.408   1.060
 2583TIP3    H1 7713   3.821   6.330   1.068
 2583TIP3    H2 7714   3.686   6.386   1.107
 2584TIP3   OH2 7715   5.592   1.157   1.982
 2584TIP3    H1 7716   5.556   1.095   2.046
 2584TIP3    H2 7717   5.606   1.104   1.903
 2585TIP3   OH2 7718   1.534   2.859   2.562
 2585TIP3    H1 7719   1.595   2.796   2.524
 2585TIP3    H2 7720   1.481   2.808   2.624
 2586TIP3   OH2 7721   2.583   6.653   3.414
 2586TIP3    H1 7722   2.497   6.671   3.376
 2586TIP3    H2 7723   2.644   6.659   3.341
 2587TIP3   OH2 7724   2.642   4.301   5.130
 2587TIP3    H1 7725   2.616   4.255   5.210
 2587TIP3    H2 7726   2.716   4.356   5.157
 2588TIP3   OH2 7727   1.654   1.716   0.110
 2588TIP3    H1 7728   1.632   1.810   0.111
 2588TIP3    H2 7729   1.746   1.713   0.086
 2589TIP3   OH2 7730   1.053   5.358   1.563
 2589TIP3    H1 7731   1.027   5.368   1.471
 2589TIP3    H2 7732   1.043   5.445   1.600
 2590TIP3   OH2 7733   2.142   1.096   5.790
 2590TIP3    H1 7734   2.093   1.162   5.740
 2590TIP3    H2 7735   2.195   1.148   5.851
 2591TIP3   OH2 7736   2.176   3.539   3.265
 2591TIP3    H1 7737   2.230   3.476   3.313
 2591TIP3    H2 7738   2.090   3.534   3.308
 2592TIP3   OH2 7739   5.825   4.731   3.732
 2592TIP3    H1 7740   5.824   4.742   3.637
 2592TIP3    H2 7741   5.855   4.641   3.745
 2593TIP3   OH2 7742   6.177   2.358   2.305
 2593TIP3    H1 7743   6.128   2.388   2.228
 2593TIP3    H2 7744   6.230   2.434   2.330
 2594TIP3   OH2 7745   5.286   5.701   1.603
 2594TIP3    H1 7746   5.353   5.750   1.554
 2594TIP3    H2 7747   5.335   5.648   1.665
 2595TIP3   OH2 7748   3.711   3.854   5.171
 2595TIP3    H1 7749   3.714   3.916   5.243
 2595TIP3    H2 7750   3.672   3.775   5.208
 2596TIP3   OH2 7751   3.346   3.624   5.684
 2596TIP3    H1 7752   3.321   3.622   5.592
 2596TIP3    H2 7753   3.316   3.710   5.715
 2597TIP3   OH2 7754   6.204   0.553   2.172
 2597TIP3    H1 7755   6.170   0.631   2.217
 2597TIP3    H2 7756   6.152   0.481   2.209
 2598TIP3   OH2 7757   4.161   1.468   3.258
 2598TIP3    H1 7758   4.223   1.431   3.321
 2598TIP3    H2 7759   4.211   1.477   3.177
 2599TIP3   OH2 7760   2.052   1.884   2.657
 2599TIP3    H1 7761   1.967   1.916   2.689
 2599TIP3    H2 7762   2.029   1.814   2.595
 2600TIP3   OH2 7763   5.574   1.219   0.635
 2600TIP3    H1 7764   5.600   1.272   0.559
 2600TIP3    H2 7765   5.585   1.278   0.710
 2601TIP3   OH2 7766   4.811   3.349   4.930
 2601TIP3    H1 7767   4.736   3.407   4.942
 2601TIP3    H2 7768   4.778   3.262   4.952
 2602TIP3   OH2 7769   2.586   3.051   3.413
 2602TIP3    H1 7770   2.531   3.075   3.488
 2602TIP3    H2 7771   2.668   3.098   3.428
 2603TIP3   OH2 7772   4.202   3.848   4.039
 2603TIP3    H1 7773   4.221   3.766   3.993
 2603TIP3    H2 7774   4.283   3.869   4.085
 2604TIP3   OH2 7775   5.530   4.795   3.375
 2604TIP3    H1 7776   5.622   4.781   3.396
 2604TIP3    H2 7777   5.529   4.812   3.281
 2605TIP3   OH2 7778   6.629   0.977   4.214
 2605TIP3    H1 7779   6.708   1.029   4.199
 2605TIP3    H2 7780   6.660   0.886   4.213
 2606TIP3   OH2 7781   4.149   4.987   1.750
 2606TIP3    H1 7782   4.230   4.941   1.728
 2606TIP3    H2 7783   4.168   5.079   1.731
 2607TIP3   OH2 7784   2.489   4.124   2.535
 2607TIP3    H1 7785   2.468   4.031   2.547
 2607TIP3    H2 7786   2.407   4.170   2.551
 2608TIP3   OH2 7787   3.609   2.723   0.326
 2608TIP3    H1 7788   3.660   2.704   0.404
 2608TIP3    H2 7789   3.672   2.757   0.263
 2609TIP3   OH2 7790   6.216   6.224   3.509
 2609TIP3    H1 7791   6.184   6.139   3.481
 2609TIP3    H2 7792   6.153   6.254   3.575
 2610TIP3   OH2 7793   3.363   1.360   3.534
 2610TIP3    H1 7794   3.435   1.415   3.503
 2610TIP3    H2 7795   3.385   1.341   3.625
 2611TIP3   OH2 7796   2.933   6.566   5.434
 2611TIP3    H1 7797   3.014   6.598   5.476
 2611TIP3    H2 7798   2.867   6.631   5.456
 2612TIP3   OH2 7799   4.221   4.761   4.429
 2612TIP3    H1 7800   4.152   4.772   4.495
 2612TIP3    H2 7801   4.293   4.720   4.476
 2613TIP3   OH2 7802   4.225   6.093   0.864
 2613TIP3    H1 7803   4.199   6.005   0.838
 2613TIP3    H2 7804   4.217   6.093   0.960
 2614TIP3   OH2 7805   0.154   0.925   0.200
 2614TIP3    H1 7806   0.074   0.873   0.194
 2614TIP3    H2 7807   0.156   0.956   0.290
 2615TIP3   OH2 7808   5.067   5.015   0.615
 2615TIP3    H1 7809   5.102   4.993   0.702
 2615TIP3    H2 7810   5.071   5.110   0.612
 2616TIP3   OH2 7811   3.291   5.752   3.193
 2616TIP3    H1 7812   3.386   5.743   3.201
 2616TIP3    H2 7813   3.279   5.807   3.115
 2617TIP3   OH2 7814   0.839   6.180   2.316
 2617TIP3    H1 7815   0.882   6.141   2.392
 2617TIP3    H2 7816   0.901   6.170   2.245
 2618TIP3   OH2 7817   4.503   3.644   3.810
 2618TIP3    H1 7818   4.578   3.649   3.750
 2618TIP3    H2 7819   4.433   3.692   3.765
 2619TIP3   OH2 7820   3.804   1.380   1.051
 2619TIP3    H1 7821   3.826   1.434   1.127
 2619TIP3    H2 7822   3.874   1.397   0.988
 2620TIP3   OH2 7823   0.033   0.938   2.065
 2620TIP3    H1 7824   0.110   0.924   2.120
 2620TIP3    H2 7825  -0.001   0.851   2.048
 2621TIP3   OH2 7826   5.263   4.591   0.895
 2621TIP3    H1 7827   5.329   4.530   0.864
 2621TIP3    H2 7828   5.255   4.572   0.989
 2622TIP3   OH2 7829   7.040   4.892   0.405
 2622TIP3    H1 7830   7.008   4.825   0.344
 2622TIP3    H2 7831   7.111   4.849   0.453
 2623TIP3   OH2 7832   0.784   1.119   1.297
 2623TIP3    H1 7833   0.776   1.211   1.321
 2623TIP3    H2 7834   0.698   1.097   1.260
 2624TIP3   OH2 7835   1.632   0.235   4.618
 2624TIP3    H1 7836   1.623   0.149   4.658
 2624TIP3    H2 7837   1.611   0.221   4.525
 2625TIP3   OH2 7838   4.118   5.073   0.878
 2625TIP3    H1 7839   4.210   5.088   0.855
 2625TIP3    H2 7840   4.085   5.161   0.899
 2626TIP3   OH2 7841   1.828   4.237   4.971
 2626TIP3    H1 7842   1.864   4.177   4.906
 2626TIP3    H2 7843   1.905   4.276   5.013
 2627TIP3   OH2 7844   2.938   6.652   2.120
 2627TIP3    H1 7845   3.033   6.655   2.113
 2627TIP3    H2 7846   2.909   6.618   2.036
 2628TIP3   OH2 7847   2.578   0.591   1.627
 2628TIP3    H1 7848   2.670   0.598   1.600
 2628TIP3    H2 7849   2.528   0.619   1.550
 2629TIP3   OH2 7850   2.152   4.119   5.901
 2629TIP3    H1 7851   2.210   4.085   5.834
 2629TIP3    H2 7852   2.064   4.102   5.868
 2630TIP3   OH2 7853   6.948   5.313   2.226
 2630TIP3    H1 7854   6.973   5.272   2.143
 2630TIP3    H2 7855   7.011   5.279   2.290
 2631TIP3   OH2 7856   2.493   5.051   0.249
 2631TIP3    H1 7857   2.446   5.122   0.293
 2631TIP3    H2 7858   2.457   5.050   0.160
 2632TIP3   OH2 7859   7.028   1.377   3.584
 2632TIP3    H1 7860   7.061   1.427   3.509
 2632TIP3    H2 7861   6.942   1.416   3.602
 2633TIP3   OH2 7862   1.177   0.667   5.446
 2633TIP3    H1 7863   1.251   0.707   5.491
 2633TIP3    H2 7864   1.141   0.605   5.509
 2634TIP3   OH2 7865   1.924   2.881   0.007
 2634TIP3    H1 7866   1.863   2.810   0.032
 2634TIP3    H2 7867   1.936   2.930   0.088
 2635TIP3   OH2 7868   0.400   0.942   5.175
 2635TIP3    H1 7869   0.328   0.973   5.120
 2635TIP3    H2 7870   0.357   0.897   5.248
 2636TIP3   OH2 7871   5.010   1.842   4.418
 2636TIP3    H1 7872   4.971   1.771   4.468
 2636TIP3    H2 7873   5.088   1.867   4.468
 2637TIP3   OH2 7874   3.735   0.346   4.156
 2637TIP3    H1 7875   3.745   0.256   4.186
 2637TIP3    H2 7876   3.687   0.390   4.226
 2638TIP3   OH2 7877   1.171   5.698   1.371
 2638TIP3    H1 7878   1.238   5.714   1.304
 2638TIP3    H2 7879   1.098   5.659   1.323
 2639TIP3   OH2 7880   1.115   2.188   2.163
 2639TIP3    H1 7881   1.075   2.243   2.230
 2639TIP3    H2 7882   1.195   2.235   2.137
 2640TIP3   OH2 7883   4.346   0.899   4.026
 2640TIP3    H1 7884   4.412   0.915   3.958
 2640TIP3    H2 7885   4.272   0.859   3.980
 2641TIP3   OH2 7886   2.586   1.688   4.627
 2641TIP3    H1 7887   2.542   1.693   4.712
 2641TIP3    H2 7888   2.519   1.716   4.564
 2642TIP3   OH2 7889   5.678   3.654   5.274
 2642TIP3    H1 7890   5.715   3.615   5.354
 2642TIP3    H2 7891   5.723   3.738   5.265
 2643TIP3   OH2 7892   6.462   1.919   3.777
 2643TIP3    H1 7893   6.430   1.949   3.692
 2643TIP3    H2 7894   6.420   1.977   3.840
 2644TIP3   OH2 7895   2.558   3.561   5.784
 2644TIP3    H1 7896   2.527   3.524   5.866
 2644TIP3    H2 7897   2.479   3.595   5.742
 2645TIP3   OH2 7898   0.333   5.317   2.291
 2645TIP3    H1 7899   0.329   5.266   2.372
 2645TIP3    H2 7900   0.401   5.275   2.239
 2646TIP3   OH2 7901   7.133   5.920   4.335
 2646TIP3    H1 7902   7.093   5.981   4.398
 2646TIP3    H2 7903   7.181   5.976   4.274
 2647TIP3   OH2 7904   6.227   3.875   3.547
 2647TIP3    H1 7905   6.161   3.829   3.495
 2647TIP3    H2 7906   6.183   3.895   3.629
 2648TIP3   OH2 7907   6.334   1.148   3.092
 2648TIP3    H1 7908   6.243   1.144   3.123
 2648TIP3    H2 7909   6.386   1.118   3.167
 2649TIP3   OH2 7910   4.899   2.895   5.094
 2649TIP3    H1 7911   4.888   2.884   5.189
 2649TIP3    H2 7912   4.992   2.917   5.084
 2650TIP3   OH2 7913   4.925   3.182   1.231
 2650TIP3    H1 7914   4.905   3.218   1.317
 2650TIP3    H2 7915   4.858   3.115   1.217
 2651TIP3   OH2 7916   0.934   0.764   4.580
 2651TIP3    H1 7917   1.023   0.761   4.545
 2651TIP3    H2 7918   0.937   0.831   4.649
 2652TIP3   OH2 7919   4.760   4.173   3.780
 2652TIP3    H1 7920   4.713   4.255   3.762
 2652TIP3    H2 7921   4.762   4.127   3.696
 2653TIP3   OH2 7922   6.933   6.618   1.015
 2653TIP3    H1 7923   6.970   6.573   1.091
 2653TIP3    H2 7924   6.969   6.572   0.939
 2654TIP3   OH2 7925   0.888   0.321   3.143
 2654TIP3    H1 7926   0.973   0.297   3.180
 2654TIP3    H2 7927   0.824   0.284   3.204
 2655TIP3   OH2 7928   7.111   3.328   4.060
 2655TIP3    H1 7929   7.077   3.240   4.043
 2655TIP3    H2 7930   7.050   3.366   4.123
 2656TIP3   OH2 7931   5.117   2.702   5.733
 2656TIP3    H1 7932   5.131   2.619   5.686
 2656TIP3    H2 7933   5.182   2.701   5.804
 2657TIP3   OH2 7934   4.375   5.774   3.960
 2657TIP3    H1 7935   4.427   5.758   4.038
 2657TIP3    H2 7936   4.284   5.771   3.991
 2658TIP3   OH2 7937   4.945   4.784   2.818
 2658TIP3    H1 7938   4.923   4.875   2.800
 2658TIP3    H2 7939   4.874   4.733   2.779
 2659TIP3   OH2 7940   1.431   1.580   4.516
 2659TIP3    H1 7941   1.454   1.608   4.428
 2659TIP3    H2 7942   1.335   1.571   4.514
 2660TIP3   OH2 7943   5.568   1.655   3.671
 2660TIP3    H1 7944   5.534   1.718   3.607
 2660TIP3    H2 7945   5.491   1.609   3.703
 2661TIP3   OH2 7946   2.030   4.581   0.787
 2661TIP3    H1 7947   2.078   4.579   0.869
 2661TIP3    H2 7948   1.955   4.638   0.804
 2662TIP3   OH2 7949   5.251   2.082   1.710
 2662TIP3    H1 7950   5.335   2.117   1.742
 2662TIP3    H2 7951   5.237   2.125   1.626
 2663TIP3   OH2 7952   6.663   5.993   2.122
 2663TIP3    H1 7953   6.632   5.955   2.040
 2663TIP3    H2 7954   6.632   5.933   2.189
 2664TIP3   OH2 7955   0.675   1.501   4.014
 2664TIP3    H1 7956   0.682   1.497   3.918
 2664TIP3    H2 7957   0.592   1.459   4.033
 2665TIP3   OH2 7958   5.522   2.530   3.108
 2665TIP3    H1 7959   5.589   2.503   3.171
 2665TIP3    H2 7960   5.503   2.451   3.057
 2666TIP3   OH2 7961   1.987   6.150   4.241
 2666TIP3    H1 7962   2.029   6.117   4.162
 2666TIP3    H2 7963   2.042   6.224   4.267
 2667TIP3   OH2 7964   7.213   2.477   0.576
 2667TIP3    H1 7965   7.157   2.513   0.645
 2667TIP3    H2 7966   7.265   2.410   0.620
 2668TIP3   OH2 7967   0.489   4.747   1.208
 2668TIP3    H1 7968   0.404   4.747   1.252
 2668TIP3    H2 7969   0.503   4.655   1.184
 2669TIP3   OH2 7970   3.482   1.141   4.566
 2669TIP3    H1 7971   3.453   1.153   4.657
 2669TIP3    H2 7972   3.553   1.204   4.555
 2670TIP3   OH2 7973   1.900   0.996   2.763
 2670TIP3    H1 7974   1.989   0.962   2.767
 2670TIP3    H2 7975   1.851   0.941   2.824
 2671TIP3   OH2 7976   6.655   2.068   5.433
 2671TIP3    H1 7977   6.653   1.973   5.424
 2671TIP3    H2 7978   6.568   2.090   5.466
 2672TIP3   OH2 7979   6.412   5.348   0.626
 2672TIP3    H1 7980   6.481   5.376   0.566
 2672TIP3    H2 7981   6.399   5.423   0.685
 2673TIP3   OH2 7982   3.055   1.406   3.798
 2673TIP3    H1 7983   3.149   1.401   3.783
 2673TIP3    H2 7984   3.020   1.328   3.754
 2674TIP3   OH2 7985   4.345   1.395   2.313
 2674TIP3    H1 7986   4.398   1.379   2.391
 2674TIP3    H2 7987   4.382   1.475   2.275
 2675TIP3   OH2 7988   6.705   3.597   3.161
 2675TIP3    H1 7989   6.725   3.689   3.178
 2675TIP3    H2 7990   6.681   3.562   3.247
 2676TIP3   OH2 7991   2.375   2.374   0.997
 2676TIP3    H1 7992   2.329   2.375   1.080
 2676TIP3    H2 7993   2.426   2.455   0.997
 2677TIP3   OH2 7994   5.690   6.181   0.492
 2677TIP3    H1 7995   5.686   6.087   0.472
 2677TIP3    H2 7996   5.604   6.201   0.529
 2678TIP3   OH2 7997   3.799   0.962   3.240
 2678TIP3    H1 7998   3.765   0.975   3.151
 2678TIP3    H2 7999   3.855   0.885   3.233
 2679TIP3   OH2 8000   3.491   5.997   3.289
 2679TIP3    H1 8001   3.501   5.905   3.265
 2679TIP3    H2 8002   3.414   5.999   3.346
 2680TIP3   OH2 8003   0.366   0.548   3.718
 2680TIP3    H1 8004   0.432   0.615   3.736
 2680TIP3    H2 8005   0.400   0.501   3.641
 2681TIP3   OH2 8006   4.154   5.573   4.628
 2681TIP3    H1 8007   4.150   5.480   4.604
 2681TIP3    H2 8008   4.076   5.612   4.587
 2682TIP3   OH2 8009   3.813   1.430   1.576
 2682TIP3    H1 8010   3.887   1.390   1.621
 2682TIP3    H2 8011   3.844   1.441   1.485
 2683TIP3   OH2 8012   0.236   0.309   1.504
 2683TIP3    H1 8013   0.145   0.337   1.512
 2683TIP3    H2 8014   0.265   0.348   1.421
 2684TIP3   OH2 8015   5.168   3.991   4.321
 2684TIP3    H1 8016   5.189   4.060   4.384
 2684TIP3    H2 8017   5.169   4.035   4.236
 2685TIP3   OH2 8018   0.706   4.554   0.897
 2685TIP3    H1 8019   0.744   4.615   0.961
 2685TIP3    H2 8020   0.612   4.565   0.907
 2686TIP3   OH2 8021   7.109   6.085   4.954
 2686TIP3    H1 8022   7.096   6.019   4.886
 2686TIP3    H2 8023   7.197   6.068   4.988
 2687TIP3   OH2 8024   6.368   1.010   0.332
 2687TIP3    H1 8025   6.425   1.078   0.296
 2687TIP3    H2 8026   6.297   1.059   0.373
 2688TIP3   OH2 8027   0.315   2.793   4.789
 2688TIP3    H1 8028   0.366   2.718   4.820
 2688TIP3    H2 8029   0.381   2.856   4.760
 2689TIP3   OH2 8030   3.128   1.490   3.428
 2689TIP3    H1 8031   3.136   1.575   3.471
 2689TIP3    H2 8032   3.207   1.443   3.455
 2690TIP3   OH2 8033   0.092   0.032   2.516
 2690TIP3    H1 8034   0.156   0.100   2.541
 2690TIP3    H2 8035   0.067  -0.009   2.598
 2691TIP3   OH2 8036   0.950   0.095   3.008
 2691TIP3    H1 8037   0.926   0.178   3.048
 2691TIP3    H2 8038   1.003   0.051   3.075
 2692TIP3   OH2 8039   2.903   6.008   2.644
 2692TIP3    H1 8040   2.866   5.958   2.571
 2692TIP3    H2 8041   2.959   5.945   2.690
 2693TIP3   OH2 8042   2.177   3.113   4.056
 2693TIP3    H1 8043   2.218   3.117   3.970
 2693TIP3    H2 8044   2.084   3.126   4.040
 2694TIP3   OH2 8045   2.528   3.905   3.883
 2694TIP3    H1 8046   2.606   3.859   3.915
 2694TIP3    H2 8047   2.494   3.850   3.813
 2695TIP3   OH2 8048   6.063   6.575   2.744
 2695TIP3    H1 8049   6.140   6.518   2.754
 2695TIP3    H2 8050   6.008   6.555   2.820
 2696TIP3   OH2 8051   5.200   0.000   0.800
 2696TIP3    H1 8052   5.192   0.053   0.721
 2696TIP3    H2 8053   5.293   0.007   0.824
 2697TIP3   OH2 8054   3.528   0.907   3.861
 2697TIP3    H1 8055   3.580   0.957   3.798
 2697TIP3    H2 8056   3.491   0.973   3.920
 2698TIP3   OH2 8057   2.489   3.384   4.032
 2698TIP3    H1 8058   2.463   3.474   4.052
 2698TIP3    H2 8059   2.425   3.355   3.966
 2699TIP3   OH2 8060   5.773   3.537   5.775
 2699TIP3    H1 8061   5.857   3.507   5.741
 2699TIP3    H2 8062   5.711   3.469   5.748
 2700TIP3   OH2 8063   3.754   1.545   0.259
 2700TIP3    H1 8064   3.760   1.536   0.354
 2700TIP3    H2 8065   3.661   1.537   0.240
 2701TIP3   OH2 8066   1.960   6.059   4.509
 2701TIP3    H1 8067   1.866   6.067   4.523
 2701TIP3    H2 8068   1.974   6.090   4.420
 2702TIP3   OH2 8069   4.348   3.986   0.804
 2702TIP3    H1 8070   4.320   4.069   0.766
 2702TIP3    H2 8071   4.434   3.969   0.763
 2703TIP3   OH2 8072   0.061   3.470   3.548
 2703TIP3    H1 8073   0.052   3.375   3.546
 2703TIP3    H2 8074   0.027   3.499   3.463
 2704TIP3   OH2 8075   4.477   4.252   1.651
 2704TIP3    H1 8076   4.513   4.175   1.607
 2704TIP3    H2 8077   4.436   4.303   1.582
 2705TIP3   OH2 8078   6.396   2.204   4.727
 2705TIP3    H1 8079   6.420   2.217   4.635
 2705TIP3    H2 8080   6.404   2.110   4.741
 2706TIP3   OH2 8081   2.159   1.880   4.895
 2706TIP3    H1 8082   2.211   1.840   4.965
 2706TIP3    H2 8083   2.134   1.806   4.840
 2707TIP3   OH2 8084   0.065   4.014   4.036
 2707TIP3    H1 8085   0.015   4.093   4.056
 2707TIP3    H2 8086   0.057   4.003   3.942
 2708TIP3   OH2 8087   3.889   0.675   0.368
 2708TIP3    H1 8088   3.903   0.661   0.274
 2708TIP3    H2 8089   3.870   0.588   0.403
 2709TIP3   OH2 8090   3.694   5.682   5.353
 2709TIP3    H1 8091   3.632   5.672   5.425
 2709TIP3    H2 8092   3.657   5.751   5.298
 2710TIP3   OH2 8093   3.683   4.164   2.277
 2710TIP3    H1 8094   3.732   4.204   2.349
 2710TIP3    H2 8095   3.713   4.210   2.198
 2711TIP3   OH2 8096   0.587   2.241   0.354
 2711TIP3    H1 8097   0.615   2.195   0.275
 2711TIP3    H2 8098   0.630   2.326   0.349
 2712TIP3   OH2 8099   4.422   0.230   2.515
 2712TIP3    H1 8100   4.331   0.248   2.495
 2712TIP3    H2 8101   4.471   0.304   2.478
 2713TIP3   OH2 8102   6.753   3.318   0.888
 2713TIP3    H1 8103   6.739   3.367   0.806
 2713TIP3    H2 8104   6.841   3.282   0.879
 2714TIP3   OH2 8105  -0.006   1.138   2.842
 2714TIP3    H1 8106   0.084   1.159   2.869
 2714TIP3    H2 8107  -0.036   1.216   2.796
 2715TIP3   OH2 8108   3.393   5.229   4.463
 2715TIP3    H1 8109   3.459   5.285   4.422
 2715TIP3    H2 8110   3.443   5.171   4.521
 2716TIP3   OH2 8111   0.768   2.309   5.637
 2716TIP3    H1 8112   0.748   2.278   5.725
 2716TIP3    H2 8113   0.686   2.301   5.589
 2717TIP3   OH2 8114   2.339   2.735   2.726
 2717TIP3    H1 8115   2.258   2.728   2.776
 2717TIP3    H2 8116   2.329   2.815   2.675
 2718TIP3   OH2 8117   0.676   1.328   1.553
 2718TIP3    H1 8118   0.679   1.386   1.629
 2718TIP3    H2 8119   0.717   1.378   1.482
 2719TIP3   OH2 8120   0.096   4.052   5.278
 2719TIP3    H1 8121   0.176   4.080   5.321
 2719TIP3    H2 8122   0.124   4.023   5.191
 2720TIP3   OH2 8123   4.078   1.943   5.309
 2720TIP3    H1 8124   4.107   2.013   5.250
 2720TIP3    H2 8125   4.144   1.875   5.300
 2721TIP3   OH2 8126   5.912   0.513   2.120
 2721TIP3    H1 8127   5.947   0.546   2.037
 2721TIP3    H2 8128   5.920   0.587   2.180
 2722TIP3   OH2 8129   4.694   2.650   2.818
 2722TIP3    H1 8130   4.632   2.606   2.877
 2722TIP3    H2 8131   4.712   2.585   2.750
 2723TIP3   OH2 8132   0.045   6.450   4.302
 2723TIP3    H1 8133  -0.003   6.411   4.376
 2723TIP3    H2 8134   0.132   6.410   4.306
 2724TIP3   OH2 8135   0.696   6.799   5.408
 2724TIP3    H1 8136   0.715   6.722   5.354
 2724TIP3    H2 8137   0.773   6.855   5.397
 2725TIP3   OH2 8138   1.170   5.707   2.880
 2725TIP3    H1 8139   1.090   5.671   2.843
 2725TIP3    H2 8140   1.146   5.733   2.969
 2726TIP3   OH2 8141   4.152   0.358   1.106
 2726TIP3    H1 8142   4.167   0.448   1.077
 2726TIP3    H2 8143   4.092   0.321   1.041
 2727TIP3   OH2 8144   5.636   5.940   0.388
 2727TIP3    H1 8145   5.570   5.975   0.327
 2727TIP3    H2 8146   5.601   5.854   0.412
 2728TIP3   OH2 8147   2.938   3.076   2.079
 2728TIP3    H1 8148   2.867   3.093   2.141
 2728TIP3    H2 8149   2.958   3.162   2.041
 2729TIP3   OH2 8150   3.921   2.833   1.796
 2729TIP3    H1 8151   3.858   2.863   1.862
 2729TIP3    H2 8152   3.988   2.901   1.794
 2730TIP3   OH2 8153   1.634   2.131   1.252
 2730TIP3    H1 8154   1.602   2.065   1.313
 2730TIP3    H2 8155   1.563   2.194   1.245
 2731TIP3   OH2 8156   0.652   1.675   3.721
 2731TIP3    H1 8157   0.670   1.584   3.699
 2731TIP3    H2 8158   0.566   1.673   3.762
 2732TIP3   OH2 8159   4.713   4.788   1.187
 2732TIP3    H1 8160   4.807   4.777   1.173
 2732TIP3    H2 8161   4.674   4.707   1.153
 2733TIP3   OH2 8162   3.663   0.175   2.299
 2733TIP3    H1 8163   3.585   0.161   2.245
 2733TIP3    H2 8164   3.670   0.097   2.353
 2734TIP3   OH2 8165   3.796   0.488   2.946
 2734TIP3    H1 8166   3.872   0.514   2.999
 2734TIP3    H2 8167   3.757   0.416   2.994
 2735TIP3   OH2 8168   3.245   0.219   1.464
 2735TIP3    H1 8169   3.200   0.303   1.471
 2735TIP3    H2 8170   3.267   0.211   1.371
 2736TIP3   OH2 8171   4.169   3.512   2.964
 2736TIP3    H1 8172   4.202   3.489   3.050
 2736TIP3    H2 8173   4.245   3.503   2.906
 2737TIP3   OH2 8174   6.385   5.324   3.052
 2737TIP3    H1 8175   6.389   5.409   3.094
 2737TIP3    H2 8176   6.302   5.286   3.081
 2738TIP3   OH2 8177   6.883   6.455   2.563
 2738TIP3    H1 8178   6.830   6.425   2.488
 2738TIP3    H2 8179   6.926   6.534   2.532
 2739TIP3   OH2 8180   2.594   4.553   5.424
 2739TIP3    H1 8181   2.521   4.568   5.484
 2739TIP3    H2 8182   2.658   4.504   5.476
 2740TIP3   OH2 8183   2.528   6.118   1.503
 2740TIP3    H1 8184   2.518   6.173   1.425
 2740TIP3    H2 8185   2.579   6.042   1.472
 2741TIP3   OH2 8186   2.505   6.599   4.994
 2741TIP3    H1 8187   2.547   6.564   5.072
 2741TIP3    H2 8188   2.412   6.601   5.016
 2742TIP3   OH2 8189   4.262   4.768   3.944
 2742TIP3    H1 8190   4.351   4.745   3.919
 2742TIP3    H2 8191   4.272   4.812   4.029
 2743TIP3   OH2 8192   1.758   5.894   3.008
 2743TIP3    H1 8193   1.689   5.942   2.962
 2743TIP3    H2 8194   1.717   5.811   3.033
 2744TIP3   OH2 8195   4.681   1.404   3.524
 2744TIP3    H1 8196   4.739   1.329   3.538
 2744TIP3    H2 8197   4.735   1.467   3.475
 2745TIP3   OH2 8198   2.184   4.937   0.290
 2745TIP3    H1 8199   2.242   4.995   0.241
 2745TIP3    H2 8200   2.213   4.849   0.266
 2746TIP3   OH2 8201   6.432   5.085   5.474
 2746TIP3    H1 8202   6.400   5.138   5.401
 2746TIP3    H2 8203   6.353   5.056   5.519
 2747TIP3   OH2 8204   0.784   5.700   4.493
 2747TIP3    H1 8205   0.721   5.703   4.565
 2747TIP3    H2 8206   0.763   5.620   4.446
 2748TIP3   OH2 8207   1.576   4.851   1.853
 2748TIP3    H1 8208   1.498   4.821   1.807
 2748TIP3    H2 8209   1.648   4.828   1.794
 2749TIP3   OH2 8210   0.080   0.546   3.804
 2749TIP3    H1 8211   0.174   0.558   3.786
 2749TIP3    H2 8212   0.065   0.452   3.788
 2750TIP3   OH2 8213   6.719   4.522   3.547
 2750TIP3    H1 8214   6.780   4.576   3.596
 2750TIP3    H2 8215   6.635   4.568   3.554
 2751TIP3   OH2 8216   6.033   5.906   1.608
 2751TIP3    H1 8217   6.063   5.838   1.668
 2751TIP3    H2 8218   5.963   5.864   1.557
 2752TIP3   OH2 8219   0.517   4.973   5.728
 2752TIP3    H1 8220   0.425   4.975   5.756
 2752TIP3    H2 8221   0.512   4.984   5.633
 2753TIP3   OH2 8222   5.849   6.701   3.417
 2753TIP3    H1 8223   5.825   6.673   3.505
 2753TIP3    H2 8224   5.869   6.620   3.370
 2754TIP3   OH2 8225   6.024   5.195   2.246
 2754TIP3    H1 8226   5.941   5.164   2.210
 2754TIP3    H2 8227   6.088   5.129   2.218
 2755TIP3   OH2 8228   4.197   2.252   2.153
 2755TIP3    H1 8229   4.167   2.164   2.130
 2755TIP3    H2 8230   4.128   2.288   2.207
 2756TIP3   OH2 8231   6.619   4.230   1.401
 2756TIP3    H1 8232   6.575   4.258   1.320
 2756TIP3    H2 8233   6.551   4.233   1.468
 2757TIP3   OH2 8234   5.303   0.798   3.443
 2757TIP3    H1 8235   5.312   0.754   3.528
 2757TIP3    H2 8236   5.236   0.865   3.458
 2758TIP3   OH2 8237   5.874   0.013   2.906
 2758TIP3    H1 8238   5.822   0.082   2.865
 2758TIP3    H2 8239   5.964   0.035   2.885
 2759TIP3   OH2 8240   3.601   5.366   1.106
 2759TIP3    H1 8241   3.605   5.329   1.018
 2759TIP3    H2 8242   3.544   5.306   1.154
 2760TIP3   OH2 8243   1.689   1.864   1.485
 2760TIP3    H1 8244   1.602   1.859   1.523
 2760TIP3    H2 8245   1.693   1.790   1.425
 2761TIP3   OH2 8246   3.121   0.476   2.293
 2761TIP3    H1 8247   3.205   0.508   2.328
 2761TIP3    H2 8248   3.145   0.423   2.217
 2762TIP3   OH2 8249   4.201   6.346   4.469
 2762TIP3    H1 8250   4.130   6.328   4.530
 2762TIP3    H2 8251   4.192   6.439   4.449
 2763TIP3   OH2 8252   2.306   0.881   1.833
 2763TIP3    H1 8253   2.321   0.883   1.738
 2763TIP3    H2 8254   2.314   0.789   1.856
 2764TIP3   OH2 8255   6.494   6.474   1.622
 2764TIP3    H1 8256   6.540   6.554   1.648
 2764TIP3    H2 8257   6.524   6.408   1.684
 2765TIP3   OH2 8258   0.942   3.061   5.040
 2765TIP3    H1 8259   0.900   3.003   5.103
 2765TIP3    H2 8260   1.012   3.007   5.001
 2766TIP3   OH2 8261   5.960   3.831   5.785
 2766TIP3    H1 8262   6.001   3.749   5.756
 2766TIP3    H2 8263   5.901   3.805   5.856
 2767TIP3   OH2 8264   3.097   2.654   4.432
 2767TIP3    H1 8265   3.134   2.738   4.407
 2767TIP3    H2 8266   3.112   2.649   4.527
 2768TIP3   OH2 8267   2.963   3.073   2.558
 2768TIP3    H1 8268   2.962   2.995   2.614
 2768TIP3    H2 8269   2.886   3.123   2.586
 2769TIP3   OH2 8270   0.973   3.545   2.240
 2769TIP3    H1 8271   0.923   3.464   2.240
 2769TIP3    H2 8272   0.997   3.558   2.148
 2770TIP3   OH2 8273   4.681   5.390   3.513
 2770TIP3    H1 8274   4.676   5.359   3.604
 2770TIP3    H2 8275   4.596   5.432   3.498
 2771TIP3   OH2 8276   0.428   6.319   5.402
 2771TIP3    H1 8277   0.517   6.290   5.418
 2771TIP3    H2 8278   0.430   6.413   5.419
 2772TIP3   OH2 8279   2.078   0.535   0.596
 2772TIP3    H1 8280   2.059   0.569   0.509
 2772TIP3    H2 8281   2.056   0.442   0.590
 2773TIP3   OH2 8282   4.271   4.414   3.348
 2773TIP3    H1 8283   4.232   4.336   3.311
 2773TIP3    H2 8284   4.226   4.487   3.304
 2774TIP3   OH2 8285   2.125   0.444   1.385
 2774TIP3    H1 8286   2.221   0.454   1.379
 2774TIP3    H2 8287   2.098   0.422   1.296
 2775TIP3   OH2 8288   4.711   4.192   0.192
 2775TIP3    H1 8289   4.748   4.111   0.157
 2775TIP3    H2 8290   4.647   4.219   0.126
 2776TIP3   OH2 8291   1.185   2.725   5.186
 2776TIP3    H1 8292   1.212   2.672   5.261
 2776TIP3    H2 8293   1.143   2.802   5.225
 2777TIP3   OH2 8294   1.833   5.439   4.154
 2777TIP3    H1 8295   1.854   5.499   4.082
 2777TIP3    H2 8296   1.824   5.353   4.113
 2778TIP3   OH2 8297   3.367   4.823   1.783
 2778TIP3    H1 8298   3.322   4.888   1.837
 2778TIP3    H2 8299   3.330   4.739   1.810
 2779TIP3   OH2 8300   2.391   4.299   0.296
 2779TIP3    H1 8301   2.380   4.247   0.376
 2779TIP3    H2 8302   2.320   4.272   0.239
 2780TIP3   OH2 8303   2.923   1.519   0.908
 2780TIP3    H1 8304   2.892   1.609   0.903
 2780TIP3    H2 8305   2.979   1.508   0.831
 2781TIP3   OH2 8306   4.067   3.168   5.152
 2781TIP3    H1 8307   4.083   3.173   5.058
 2781TIP3    H2 8308   4.155   3.167   5.191
 2782TIP3   OH2 8309   3.077   3.069   5.497
 2782TIP3    H1 8310   3.061   3.110   5.582
 2782TIP3    H2 8311   2.993   3.076   5.451
 2783TIP3   OH2 8312   4.888   4.854   2.300
 2783TIP3    H1 8313   4.973   4.890   2.326
 2783TIP3    H2 8314   4.837   4.850   2.381
 2784TIP3   OH2 8315   6.933   1.809   5.464
 2784TIP3    H1 8316   6.968   1.793   5.376
 2784TIP3    H2 8317   6.839   1.819   5.451
 2785TIP3   OH2 8318   3.765   2.547   3.274
 2785TIP3    H1 8319   3.768   2.633   3.314
 2785TIP3    H2 8320   3.693   2.502   3.320
 2786TIP3   OH2 8321   2.234   6.275   4.005
 2786TIP3    H1 8322   2.181   6.196   3.996
 2786TIP3    H2 8323   2.172   6.347   3.992
 2787TIP3   OH2 8324   6.168   4.720   3.792
 2787TIP3    H1 8325   6.182   4.680   3.706
 2787TIP3    H2 8326   6.222   4.669   3.852
 2788TIP3   OH2 8327   5.658   0.930   2.494
 2788TIP3    H1 8328   5.627   1.012   2.533
 2788TIP3    H2 8329   5.752   0.943   2.481
 2789TIP3   OH2 8330   6.406   4.457   1.416
 2789TIP3    H1 8331   6.417   4.425   1.327
 2789TIP3    H2 8332   6.321   4.501   1.417
 2790TIP3   OH2 8333   4.028   1.662   3.528
 2790TIP3    H1 8334   3.996   1.742   3.488
 2790TIP3    H2 8335   3.987   1.592   3.477
 2791TIP3   OH2 8336   2.867   6.666   5.800
 2791TIP3    H1 8337   2.815   6.719   5.741
 2791TIP3    H2 8338   2.957   6.676   5.768
 2792TIP3   OH2 8339   6.609   4.868   5.445
 2792TIP3    H1 8340   6.538   4.930   5.459
 2792TIP3    H2 8341   6.572   4.802   5.386
 2793TIP3   OH2 8342   4.047   5.793   5.843
 2793TIP3    H1 8343   3.956   5.785   5.814
 2793TIP3    H2 8344   4.054   5.883   5.875
 2794TIP3   OH2 8345   6.609   3.641   4.274
 2794TIP3    H1 8346   6.527   3.633   4.323
 2794TIP3    H2 8347   6.632   3.551   4.251
 2795TIP3   OH2 8348   4.835   1.869   0.709
 2795TIP3    H1 8349   4.766   1.868   0.642
 2795TIP3    H2 8350   4.910   1.828   0.666
 2796TIP3   OH2 8351   3.938   2.247   1.416
 2796TIP3    H1 8352   4.013   2.295   1.381
 2796TIP3    H2 8353   3.862   2.287   1.373
 2797TIP3   OH2 8354   3.491   3.531   0.338
 2797TIP3    H1 8355   3.416   3.476   0.361
 2797TIP3    H2 8356   3.451   3.612   0.305
 2798TIP3   OH2 8357   4.030   2.802   2.844
 2798TIP3    H1 8358   3.996   2.815   2.933
 2798TIP3    H2 8359   4.124   2.816   2.853
 2799TIP3   OH2 8360   3.433   4.121   3.929
 2799TIP3    H1 8361   3.453   4.072   4.009
 2799TIP3    H2 8362   3.466   4.065   3.859
 2800TIP3   OH2 8363   0.689   0.545   2.340
 2800TIP3    H1 8364   0.742   0.562   2.263
 2800TIP3    H2 8365   0.609   0.506   2.306
 2801TIP3   OH2 8366   4.614   5.906   3.244
 2801TIP3    H1 8367   4.556   5.977   3.215
 2801TIP3    H2 8368   4.555   5.835   3.268
 2802TIP3   OH2 8369   1.463   0.434   4.713
 2802TIP3    H1 8370   1.517   0.355   4.712
 2802TIP3    H2 8371   1.447   0.454   4.621
 2803TIP3   OH2 8372   1.503   1.160   4.682
 2803TIP3    H1 8373   1.426   1.181   4.630
 2803TIP3    H2 8374   1.482   1.190   4.770
 2804TIP3   OH2 8375   0.955   5.538   0.493
 2804TIP3    H1 8376   1.000   5.614   0.528
 2804TIP3    H2 8377   0.864   5.566   0.481
 2805TIP3   OH2 8378   1.263   2.493   4.708
 2805TIP3    H1 8379   1.312   2.550   4.649
 2805TIP3    H2 8380   1.280   2.529   4.795
 2806TIP3   OH2 8381   3.536   0.854   4.584
 2806TIP3    H1 8382   3.537   0.950   4.586
 2806TIP3    H2 8383   3.601   0.831   4.517
 2807TIP3   OH2 8384   2.824   0.568   0.005
 2807TIP3    H1 8385   2.851   0.514  -0.069
 2807TIP3    H2 8386   2.845   0.515   0.082
 2808TIP3   OH2 8387   1.704   3.543   0.840
 2808TIP3    H1 8388   1.763   3.529   0.914
 2808TIP3    H2 8389   1.743   3.492   0.769
 2809TIP3   OH2 8390   1.201   3.361   3.129
 2809TIP3    H1 8391   1.289   3.388   3.103
 2809TIP3    H2 8392   1.147   3.375   3.051
 2810TIP3   OH2 8393   2.323   2.237   0.236
 2810TIP3    H1 8394   2.363   2.313   0.278
 2810TIP3    H2 8395   2.238   2.268   0.206
 2811TIP3   OH2 8396   6.316   3.153   1.435
 2811TIP3    H1 8397   6.251   3.082   1.438
 2811TIP3    H2 8398   6.312   3.185   1.345
 2812TIP3   OH2 8399   6.607   6.459   0.563
 2812TIP3    H1 8400   6.543   6.530   0.570
 2812TIP3    H2 8401   6.657   6.480   0.484
 2813TIP3   OH2 8402   6.493   2.876   4.316
 2813TIP3    H1 8403   6.563   2.829   4.271
 2813TIP3    H2 8404   6.469   2.947   4.256
 2814TIP3   OH2 8405   2.188   5.875   3.352
 2814TIP3    H1 8406   2.176   5.823   3.273
 2814TIP3    H2 8407   2.281   5.897   3.353
 2815TIP3   OH2 8408   6.446   4.849   5.021
 2815TIP3    H1 8409   6.452   4.839   5.116
 2815TIP3    H2 8410   6.537   4.855   4.992
 2816TIP3   OH2 8411   0.152   5.545   3.202
 2816TIP3    H1 8412   0.209   5.480   3.242
 2816TIP3    H2 8413   0.137   5.610   3.271
 2817TIP3   OH2 8414   4.839   2.352   0.107
 2817TIP3    H1 8415   4.838   2.268   0.060
 2817TIP3    H2 8416   4.892   2.334   0.185
 2818TIP3   OH2 8417   1.363   5.645   2.681
 2818TIP3    H1 8418   1.447   5.649   2.726
 2818TIP3    H2 8419   1.298   5.650   2.752
 2819TIP3   OH2 8420   2.409   4.036   1.495
 2819TIP3    H1 8421   2.368   4.021   1.580
 2819TIP3    H2 8422   2.470   4.108   1.510
 2820TIP3   OH2 8423   2.072   5.487   4.880
 2820TIP3    H1 8424   1.977   5.480   4.875
 2820TIP3    H2 8425   2.101   5.491   4.789
 2821TIP3   OH2 8426   3.104   0.682   4.473
 2821TIP3    H1 8427   3.097   0.775   4.494
 2821TIP3    H2 8428   3.198   0.663   4.482
 2822TIP3   OH2 8429   3.428   3.432   1.888
 2822TIP3    H1 8430   3.450   3.390   1.972
 2822TIP3    H2 8431   3.341   3.470   1.902
 2823TIP3   OH2 8432   0.253   3.104   1.877
 2823TIP3    H1 8433   0.234   3.037   1.811
 2823TIP3    H2 8434   0.323   3.156   1.839
 2824TIP3   OH2 8435   4.141   5.127   5.644
 2824TIP3    H1 8436   4.111   5.190   5.578
 2824TIP3    H2 8437   4.132   5.042   5.601
 2825TIP3   OH2 8438   1.516   4.910   0.697
 2825TIP3    H1 8439   1.546   4.912   0.606
 2825TIP3    H2 8440   1.458   4.986   0.705
 2826TIP3   OH2 8441   5.914   0.272   3.060
 2826TIP3    H1 8442   6.000   0.314   3.069
 2826TIP3    H2 8443   5.934   0.182   3.036
 2827TIP3   OH2 8444   5.477   4.143   4.325
 2827TIP3    H1 8445   5.422   4.200   4.379
 2827TIP3    H2 8446   5.486   4.063   4.376
 2828TIP3   OH2 8447   1.815   0.829   0.093
 2828TIP3    H1 8448   1.857   0.813   0.009
 2828TIP3    H2 8449   1.855   0.766   0.153
 2829TIP3   OH2 8450   4.201   5.280   1.661
 2829TIP3    H1 8451   4.268   5.347   1.650
 2829TIP3    H2 8452   4.153   5.306   1.740
 2830TIP3   OH2 8453   0.291   6.182   5.764
 2830TIP3    H1 8454   0.338   6.100   5.781
 2830TIP3    H2 8455   0.356   6.239   5.724
 2831TIP3   OH2 8456   7.041   1.344   1.853
 2831TIP3    H1 8457   6.957   1.308   1.881
 2831TIP3    H2 8458   7.092   1.267   1.827
 2832TIP3   OH2 8459   5.905   3.832   3.853
 2832TIP3    H1 8460   5.818   3.798   3.876
 2832TIP3    H2 8461   5.946   3.850   3.938
 2833TIP3   OH2 8462   3.915   5.133   1.112
 2833TIP3    H1 8463   3.859   5.152   1.037
 2833TIP3    H2 8464   3.856   5.090   1.175
 2834TIP3   OH2 8465   0.510   2.486   2.087
 2834TIP3    H1 8466   0.444   2.420   2.065
 2834TIP3    H2 8467   0.594   2.443   2.068
 2835TIP3   OH2 8468   5.388   3.722   4.867
 2835TIP3    H1 8469   5.306   3.743   4.910
 2835TIP3    H2 8470   5.456   3.746   4.931
 2836TIP3   OH2 8471   1.507   3.467   0.446
 2836TIP3    H1 8472   1.601   3.454   0.459
 2836TIP3    H2 8473   1.482   3.530   0.514
 2837TIP3   OH2 8474   4.003   3.477   5.594
 2837TIP3    H1 8475   4.029   3.438   5.511
 2837TIP3    H2 8476   3.909   3.460   5.601
 2838TIP3   OH2 8477   3.530   2.001   5.494
 2838TIP3    H1 8478   3.438   1.995   5.468
 2838TIP3    H2 8479   3.529   2.058   5.571
 2839TIP3   OH2 8480   2.557   4.826   2.991
 2839TIP3    H1 8481   2.642   4.783   2.982
 2839TIP3    H2 8482   2.563   4.872   3.074
 2840TIP3   OH2 8483   1.680   3.435   2.600
 2840TIP3    H1 8484   1.681   3.487   2.680
 2840TIP3    H2 8485   1.605   3.377   2.610
 2841TIP3   OH2 8486   6.139   1.502   2.918
 2841TIP3    H1 8487   6.209   1.552   2.960
 2841TIP3    H2 8488   6.179   1.418   2.896
 2842TIP3   OH2 8489   2.914   0.046   4.843
 2842TIP3    H1 8490   3.009   0.057   4.841
 2842TIP3    H2 8491   2.902  -0.044   4.875
 2843TIP3   OH2 8492   3.005   3.135   1.332
 2843TIP3    H1 8493   2.946   3.135   1.407
 2843TIP3    H2 8494   2.971   3.203   1.274
 2844TIP3   OH2 8495   4.785   6.515   3.237
 2844TIP3    H1 8496   4.767   6.485   3.327
 2844TIP3    H2 8497   4.854   6.457   3.206
 2845TIP3   OH2 8498   4.115   0.783   3.973
 2845TIP3    H1 8499   4.027   0.772   3.937
 2845TIP3    H2 8500   4.151   0.694   3.976
 2846TIP3   OH2 8501   6.225   2.698   4.860
 2846TIP3    H1 8502   6.250   2.629   4.921
 2846TIP3    H2 8503   6.189   2.767   4.917
 2847TIP3   OH2 8504   6.580   0.716   0.089
 2847TIP3    H1 8505   6.644   0.726   0.019
 2847TIP3    H2 8506   6.535   0.634   0.068
 2848TIP3   OH2 8507   5.549   1.021   5.909
 2848TIP3    H1 8508   5.549   1.110   5.874
 2848TIP3    H2 8509   5.611   0.973   5.853
 2849TIP3   OH2 8510   6.362   2.628   4.273
 2849TIP3    H1 8511   6.405   2.598   4.353
 2849TIP3    H2 8512   6.373   2.723   4.273
 2850TIP3   OH2 8513   1.931   2.733   3.489
 2850TIP3    H1 8514   1.856   2.674   3.482
 2850TIP3    H2 8515   1.977   2.704   3.568
 2851TIP3   OH2 8516   4.125   2.923   5.264
 2851TIP3    H1 8517   4.047   2.873   5.286
 2851TIP3    H2 8518   4.094   2.993   5.207
 2852TIP3   OH2 8519   3.977   3.804   4.338
 2852TIP3    H1 8520   3.974   3.738   4.269
 2852TIP3    H2 8521   4.070   3.812   4.359
 2853TIP3   OH2 8522   0.690   1.198   3.895
 2853TIP3    H1 8523   0.606   1.152   3.906
 2853TIP3    H2 8524   0.745   1.164   3.966
 2854TIP3   OH2 8525   0.649   2.609   2.284
 2854TIP3    H1 8526   0.596   2.616   2.205
 2854TIP3    H2 8527   0.622   2.527   2.324
 2855TIP3   OH2 8528   4.994   1.543   0.798
 2855TIP3    H1 8529   4.959   1.541   0.708
 2855TIP3    H2 8530   5.089   1.536   0.787
 2856TIP3   OH2 8531   3.816   3.471   3.111
 2856TIP3    H1 8532   3.756   3.454   3.039
 2856TIP3    H2 8533   3.823   3.388   3.157
 2857TIP3   OH2 8534   2.426   5.553   4.721
 2857TIP3    H1 8535   2.379   5.586   4.644
 2857TIP3    H2 8536   2.446   5.632   4.772
 2858TIP3   OH2 8537   3.312   1.290   3.251
 2858TIP3    H1 8538   3.342   1.378   3.274
 2858TIP3    H2 8539   3.276   1.300   3.163
 2859TIP3   OH2 8540   5.668   1.135   1.641
 2859TIP3    H1 8541   5.696   1.220   1.673
 2859TIP3    H2 8542   5.705   1.129   1.553
 2860TIP3   OH2 8543   3.109   5.125   3.925
 2860TIP3    H1 8544   3.203   5.128   3.945
 2860TIP3    H2 8545   3.078   5.214   3.940
 2861TIP3   OH2 8546   0.446   6.415   5.685
 2861TIP3    H1 8547   0.538   6.399   5.705
 2861TIP3    H2 8548   0.446   6.501   5.642
 2862TIP3   OH2 8549   2.191   0.833   5.758
 2862TIP3    H1 8550   2.180   0.928   5.752
 2862TIP3    H2 8551   2.245   0.810   5.682
 2863TIP3   OH2 8552   4.024   4.315   5.683
 2863TIP3    H1 8553   3.985   4.288   5.600
 2863TIP3    H2 8554   3.982   4.399   5.702
 2864TIP3   OH2 8555   5.150   4.739   0.336
 2864TIP3    H1 8556   5.171   4.667   0.396
 2864TIP3    H2 8557   5.077   4.784   0.379
 2865TIP3   OH2 8558   1.322   4.720   1.730
 2865TIP3    H1 8559   1.281   4.795   1.772
 2865TIP3    H2 8560   1.249   4.673   1.689
 2866TIP3   OH2 8561   7.186   1.868   3.827
 2866TIP3    H1 8562   7.184   1.778   3.794
 2866TIP3    H2 8563   7.110   1.874   3.884
 2867TIP3   OH2 8564   0.266   3.049   0.297
 2867TIP3    H1 8565   0.321   2.972   0.284
 2867TIP3    H2 8566   0.182   3.013   0.326
 2868TIP3   OH2 8567   7.028   4.543   4.745
 2868TIP3    H1 8568   7.111   4.590   4.737
 2868TIP3    H2 8569   7.027   4.483   4.671
 2869TIP3   OH2 8570   4.369   4.899   2.273
 2869TIP3    H1 8571   4.307   4.904   2.346
 2869TIP3    H2 8572   4.348   4.976   2.219
 2870TIP3   OH2 8573   2.596   0.343   5.640
 2870TIP3    H1 8574   2.668   0.284   5.618
 2870TIP3    H2 8575   2.538   0.339   5.564
 2871TIP3   OH2 8576   5.793   6.023   5.124
 2871TIP3    H1 8577   5.718   6.082   5.137
 2871TIP3    H2 8578   5.800   5.976   5.207
 2872TIP3   OH2 8579   3.711   5.075   3.937
 2872TIP3    H1 8580   3.736   4.992   3.896
 2872TIP3    H2 8581   3.792   5.109   3.974
 2873TIP3   OH2 8582   5.469   2.211   1.795
 2873TIP3    H1 8583   5.546   2.222   1.851
 2873TIP3    H2 8584   5.486   2.268   1.719
 2874TIP3   OH2 8585   1.429   5.558   2.162
 2874TIP3    H1 8586   1.515   5.538   2.200
 2874TIP3    H2 8587   1.419   5.494   2.092
 2875TIP3   OH2 8588   0.981   4.760   2.872
 2875TIP3    H1 8589   0.900   4.771   2.822
 2875TIP3    H2 8590   1.051   4.774   2.808
 2876TIP3   OH2 8591   4.058   5.845   1.192
 2876TIP3    H1 8592   4.094   5.933   1.196
 2876TIP3    H2 8593   4.078   5.807   1.278
 2877TIP3   OH2 8594   1.641   5.477   5.157
 2877TIP3    H1 8595   1.566   5.529   5.188
 2877TIP3    H2 8596   1.692   5.460   5.236
 2878TIP3   OH2 8597   6.824   0.509   1.204
 2878TIP3    H1 8598   6.906   0.465   1.228
 2878TIP3    H2 8599   6.824   0.589   1.258
 2879TIP3   OH2 8600   6.371   0.106   0.438
 2879TIP3    H1 8601   6.341   0.086   0.527
 2879TIP3    H2 8602   6.380   0.201   0.436
 2880TIP3   OH2 8603   3.463   4.239   4.787
 2880TIP3    H1 8604   3.472   4.165   4.726
 2880TIP3    H2 8605   3.542   4.291   4.772
 2881TIP3   OH2 8606   3.965   6.135   0.101
 2881TIP3    H1 8607   4.041   6.154   0.155
 2881TIP3    H2 8608   4.002   6.102   0.019
 2882TIP3   OH2 8609   3.685   1.056   3.673
 2882TIP3    H1 8610   3.745   1.130   3.664
 2882TIP3    H2 8611   3.624   1.065   3.599
 2883TIP3   OH2 8612   2.488   3.078   3.896
 2883TIP3    H1 8613   2.452   3.135   3.965
 2883TIP3    H2 8614   2.532   3.008   3.944
 2884TIP3   OH2 8615   1.291   6.030   5.062
 2884TIP3    H1 8616   1.340   6.093   5.115
 2884TIP3    H2 8617   1.353   5.960   5.045
 2885TIP3   OH2 8618   4.133   6.548   4.813
 2885TIP3    H1 8619   4.115   6.640   4.832
 2885TIP3    H2 8620   4.047   6.510   4.797
 2886TIP3   OH2 8621   6.382   0.951   2.851
 2886TIP3    H1 8622   6.338   0.917   2.929
 2886TIP3    H2 8623   6.463   0.990   2.883
 2887TIP3   OH2 8624   2.010   4.087   2.505
 2887TIP3    H1 8625   1.970   4.169   2.476
 2887TIP3    H2 8626   1.959   4.019   2.461
 2888TIP3   OH2 8627   0.289   3.696   5.061
 2888TIP3    H1 8628   0.290   3.642   5.140
 2888TIP3    H2 8629   0.371   3.744   5.065
 2889TIP3   OH2 8630   6.082   1.280   4.634
 2889TIP3    H1 8631   6.039   1.345   4.580
 2889TIP3    H2 8632   6.022   1.266   4.707
 2890TIP3   OH2 8633   4.146   2.911   2.206
 2890TIP3    H1 8634   4.151   2.816   2.196
 2890TIP3    H2 8635   4.099   2.924   2.289
 2891TIP3   OH2 8636   2.218   5.197   4.306
 2891TIP3    H1 8637   2.154   5.181   4.375
 2891TIP3    H2 8638   2.198   5.285   4.274
 2892TIP3   OH2 8639   7.157   3.058   0.215
 2892TIP3    H1 8640   7.222   3.101   0.161
 2892TIP3    H2 8641   7.111   2.998   0.155
 2893TIP3   OH2 8642   5.560   2.065   4.710
 2893TIP3    H1 8643   5.639   2.014   4.731
 2893TIP3    H2 8644   5.497   2.041   4.778
 2894TIP3   OH2 8645   5.111   4.025   4.916
 2894TIP3    H1 8646   5.126   3.949   4.972
 2894TIP3    H2 8647   5.166   4.010   4.839
 2895TIP3   OH2 8648   4.855   5.654   1.378
 2895TIP3    H1 8649   4.893   5.740   1.358
 2895TIP3    H2 8650   4.901   5.626   1.458
 2896TIP3   OH2 8651   2.942   6.113   3.354
 2896TIP3    H1 8652   2.916   6.184   3.413
 2896TIP3    H2 8653   3.019   6.146   3.308
 2897TIP3   OH2 8654   0.903   5.827   1.399
 2897TIP3    H1 8655   0.983   5.781   1.374
 2897TIP3    H2 8656   0.932   5.917   1.414
 2898TIP3   OH2 8657   3.347   0.910   3.535
 2898TIP3    H1 8658   3.382   0.824   3.511
 2898TIP3    H2 8659   3.262   0.891   3.574
 2899TIP3   OH2 8660   4.290   3.779   4.643
 2899TIP3    H1 8661   4.237   3.854   4.670
 2899TIP3    H2 8662   4.296   3.787   4.548
 2900TIP3   OH2 8663   0.165   0.501   3.212
 2900TIP3    H1 8664   0.136   0.450   3.136
 2900TIP3    H2 8665   0.094   0.563   3.227
 2901TIP3   OH2 8666   2.869   5.640   1.017
 2901TIP3    H1 8667   2.795   5.590   0.983
 2901TIP3    H2 8668   2.937   5.575   1.033
 2902TIP3   OH2 8669   3.721   5.929   4.888
 2902TIP3    H1 8670   3.675   5.953   4.807
 2902TIP3    H2 8671   3.747   5.838   4.874
 2903TIP3   OH2 8672   5.145   0.798   3.178
 2903TIP3    H1 8673   5.051   0.815   3.185
 2903TIP3    H2 8674   5.176   0.795   3.269
 2904TIP3   OH2 8675   4.428   3.814   2.455
 2904TIP3    H1 8676   4.462   3.778   2.373
 2904TIP3    H2 8677   4.333   3.812   2.445
 2905TIP3   OH2 8678   7.008   1.501   5.292
 2905TIP3    H1 8679   7.029   1.591   5.269
 2905TIP3    H2 8680   6.913   1.495   5.282
 2906TIP3   OH2 8681   4.416   4.864   1.864
 2906TIP3    H1 8682   4.377   4.817   1.939
 2906TIP3    H2 8683   4.469   4.932   1.904
 2907TIP3   OH2 8684   2.011   0.668   5.472
 2907TIP3    H1 8685   1.973   0.746   5.512
 2907TIP3    H2 8686   2.053   0.622   5.545
 2908TIP3   OH2 8687   1.863   2.724   3.872
 2908TIP3    H1 8688   1.875   2.692   3.961
 2908TIP3    H2 8689   1.818   2.808   3.881
 2909TIP3   OH2 8690   3.647   6.495   0.794
 2909TIP3    H1 8691   3.681   6.460   0.712
 2909TIP3    H2 8692   3.619   6.418   0.844
 2910TIP3   OH2 8693   2.865   5.078   5.363
 2910TIP3    H1 8694   2.837   5.136   5.293
 2910TIP3    H2 8695   2.875   5.134   5.439
 2911TIP3   OH2 8696   6.091   5.962   3.489
 2911TIP3    H1 8697   5.998   5.962   3.467
 2911TIP3    H2 8698   6.092   5.967   3.585
 2912TIP3   OH2 8699   5.989   0.646   1.492
 2912TIP3    H1 8700   5.962   0.554   1.486
 2912TIP3    H2 8701   6.079   0.647   1.460
 2913TIP3   OH2 8702   3.675   6.267   4.176
 2913TIP3    H1 8703   3.628   6.342   4.140
 2913TIP3    H2 8704   3.646   6.262   4.267
 2914TIP3   OH2 8705   2.605   3.883   0.492
 2914TIP3    H1 8706   2.585   3.928   0.410
 2914TIP3    H2 8707   2.651   3.948   0.544
 2915TIP3   OH2 8708   6.494   1.279   1.882
 2915TIP3    H1 8709   6.450   1.363   1.890
 2915TIP3    H2 8710   6.475   1.250   1.793
 2916TIP3   OH2 8711   5.637   2.954   5.025
 2916TIP3    H1 8712   5.589   2.913   4.953
 2916TIP3    H2 8713   5.726   2.964   4.991
 2917TIP3   OH2 8714   1.359   5.452   5.268
 2917TIP3    H1 8715   1.414   5.377   5.293
 2917TIP3    H2 8716   1.397   5.526   5.315
 2918TIP3   OH2 8717   0.336   5.058   5.018
 2918TIP3    H1 8718   0.286   5.032   5.095
 2918TIP3    H2 8719   0.272   5.096   4.958
 2919TIP3   OH2 8720   5.073   6.526   3.666
 2919TIP3    H1 8721   5.125   6.492   3.738
 2919TIP3    H2 8722   4.982   6.515   3.694
 2920TIP3   OH2 8723   3.636   2.293   5.375
 2920TIP3    H1 8724   3.728   2.269   5.371
 2920TIP3    H2 8725   3.617   2.332   5.290
 2921TIP3   OH2 8726   2.208   4.589   0.997
 2921TIP3    H1 8727   2.239   4.607   1.086
 2921TIP3    H2 8728   2.282   4.546   0.955
 2922TIP3   OH2 8729   5.591   2.094   3.133
 2922TIP3    H1 8730   5.500   2.124   3.136
 2922TIP3    H2 8731   5.604   2.050   3.216
 2923TIP3   OH2 8732   6.144   3.515   1.480
 2923TIP3    H1 8733   6.181   3.488   1.396
 2923TIP3    H2 8734   6.050   3.519   1.465
 2924TIP3   OH2 8735   0.019   0.203   1.868
 2924TIP3    H1 8736   0.088   0.208   1.802
 2924TIP3    H2 8737  -0.062   0.194   1.817
 2925TIP3   OH2 8738   1.084   6.323   2.477
 2925TIP3    H1 8739   1.132   6.241   2.485
 2925TIP3    H2 8740   1.081   6.357   2.567
 2926TIP3   OH2 8741   2.107   3.622   0.570
 2926TIP3    H1 8742   2.187   3.674   0.567
 2926TIP3    H2 8743   2.129   3.541   0.525
 2927TIP3   OH2 8744   2.181   3.749   3.466
 2927TIP3    H1 8745   2.138   3.829   3.495
 2927TIP3    H2 8746   2.228   3.774   3.387
 2928TIP3   OH2 8747   5.328   3.252   2.421
 2928TIP3    H1 8748   5.300   3.176   2.370
 2928TIP3    H2 8749   5.323   3.325   2.360
 2929TIP3   OH2 8750   7.034   0.306   4.925
 2929TIP3    H1 8751   7.026   0.236   4.860
 2929TIP3    H2 8752   7.128   0.313   4.941
 2930TIP3   OH2 8753   4.629   1.245   0.180
 2930TIP3    H1 8754   4.604   1.320   0.126
 2930TIP3    H2 8755   4.568   1.176   0.155
 2931TIP3   OH2 8756   2.709   1.398   4.533
 2931TIP3    H1 8757   2.763   1.422   4.458
 2931TIP3    H2 8758   2.701   1.478   4.584
 2932TIP3   OH2 8759   3.944   1.452   2.565
 2932TIP3    H1 8760   3.924   1.523   2.505
 2932TIP3    H2 8761   3.873   1.454   2.629
 2933TIP3   OH2 8762   2.023   5.781   0.812
 2933TIP3    H1 8763   2.000   5.870   0.783
 2933TIP3    H2 8764   2.030   5.731   0.731
 2934TIP3   OH2 8765   4.854   2.154   2.447
 2934TIP3    H1 8766   4.791   2.114   2.386
 2934TIP3    H2 8767   4.939   2.143   2.405
 2935TIP3   OH2 8768   3.580   3.665   5.313
 2935TIP3    H1 8769   3.529   3.729   5.363
 2935TIP3    H2 8770   3.519   3.635   5.245
 2936TIP3   OH2 8771   2.629   0.711   3.444
 2936TIP3    H1 8772   2.638   0.807   3.442
 2936TIP3    H2 8773   2.619   0.687   3.352
 2937TIP3   OH2 8774   6.856   1.171   2.945
 2937TIP3    H1 8775   6.850   1.263   2.971
 2937TIP3    H2 8776   6.932   1.138   2.992
 2938TIP3   OH2 8777   2.433   3.623   4.195
 2938TIP3    H1 8778   2.402   3.711   4.172
 2938TIP3    H2 8779   2.440   3.625   4.291
 2939TIP3   OH2 8780   2.893   2.649   4.241
 2939TIP3    H1 8781   2.941   2.661   4.323
 2939TIP3    H2 8782   2.939   2.577   4.197
 2940TIP3   OH2 8783   4.385   5.326   5.217
 2940TIP3    H1 8784   4.411   5.315   5.309
 2940TIP3    H2 8785   4.307   5.381   5.221
 2941TIP3   OH2 8786   0.643   4.973   0.067
 2941TIP3    H1 8787   0.607   5.016   0.145
 2941TIP3    H2 8788   0.737   4.986   0.074
 2942TIP3   OH2 8789   1.488   5.624   0.294
 2942TIP3    H1 8790   1.413   5.567   0.277
 2942TIP3    H2 8791   1.455   5.713   0.282
 2943TIP3   OH2 8792   3.222   4.528   3.409
 2943TIP3    H1 8793   3.234   4.623   3.408
 2943TIP3    H2 8794   3.143   4.514   3.461
 2944TIP3   OH2 8795   2.672   0.776   0.116
 2944TIP3    H1 8796   2.714   0.706   0.066
 2944TIP3    H2 8797   2.619   0.730   0.182
 2945TIP3   OH2 8798   6.271   5.916   1.410
 2945TIP3    H1 8799   6.194   5.916   1.467
 2945TIP3    H2 8800   6.235   5.918   1.321
 2946TIP3   OH2 8801   6.042   1.327   3.423
 2946TIP3    H1 8802   6.011   1.413   3.451
 2946TIP3    H2 8803   6.034   1.271   3.500
 2947TIP3   OH2 8804   0.599   3.822   3.829
 2947TIP3    H1 8805   0.664   3.802   3.763
 2947TIP3    H2 8806   0.650   3.843   3.908
 2948TIP3   OH2 8807   0.778   6.241   4.820
 2948TIP3    H1 8808   0.836   6.194   4.880
 2948TIP3    H2 8809   0.832   6.314   4.789
 2949TIP3   OH2 8810   6.076   4.430   1.570
 2949TIP3    H1 8811   6.134   4.505   1.582
 2949TIP3    H2 8812   6.061   4.426   1.476
 2950TIP3   OH2 8813   2.210   2.015   4.487
 2950TIP3    H1 8814   2.301   2.042   4.473
 2950TIP3    H2 8815   2.165   2.095   4.513
 2951TIP3   OH2 8816   6.589   4.845   1.860
 2951TIP3    H1 8817   6.553   4.855   1.948
 2951TIP3    H2 8818   6.571   4.930   1.818
 2952TIP3   OH2 8819   2.555   0.869   2.522
 2952TIP3    H1 8820   2.605   0.950   2.518
 2952TIP3    H2 8821   2.617   0.803   2.553
 2953TIP3   OH2 8822   2.897   0.186   2.155
 2953TIP3    H1 8823   2.892   0.281   2.143
 2953TIP3    H2 8824   2.835   0.150   2.091
 2954TIP3   OH2 8825   1.661   5.192   2.388
 2954TIP3    H1 8826   1.726   5.135   2.345
 2954TIP3    H2 8827   1.649   5.264   2.326
 2955TIP3   OH2 8828   6.091   2.247   5.415
 2955TIP3    H1 8829   6.100   2.324   5.470
 2955TIP3    H2 8830   6.006   2.257   5.372
 2956TIP3   OH2 8831   1.855   3.295   0.663
 2956TIP3    H1 8832   1.870   3.273   0.571
 2956TIP3    H2 8833   1.886   3.219   0.712
 2957TIP3   OH2 8834   3.194   1.772   1.291
 2957TIP3    H1 8835   3.259   1.705   1.268
 2957TIP3    H2 8836   3.110   1.728   1.281
 2958TIP3   OH2 8837   5.985   2.561   0.778
 2958TIP3    H1 8838   6.021   2.570   0.689
 2958TIP3    H2 8839   6.016   2.638   0.825
 2959TIP3   OH2 8840   6.388   1.113   4.177
 2959TIP3    H1 8841   6.468   1.065   4.198
 2959TIP3    H2 8842   6.318   1.048   4.182
 2960TIP3   OH2 8843   5.903   5.788   2.925
 2960TIP3    H1 8844   5.916   5.840   3.005
 2960TIP3    H2 8845   5.881   5.853   2.858
 2961TIP3   OH2 8846   1.606   5.440   5.847
 2961TIP3    H1 8847   1.638   5.385   5.919
 2961TIP3    H2 8848   1.589   5.379   5.775
 2962TIP3   OH2 8849   6.394   1.670   0.454
 2962TIP3    H1 8850   6.328   1.725   0.497
 2962TIP3    H2 8851   6.357   1.653   0.367
 2963TIP3   OH2 8852   4.136   3.381   4.542
 2963TIP3    H1 8853   4.223   3.414   4.567
 2963TIP3    H2 8854   4.154   3.296   4.501
 2964TIP3   OH2 8855   6.025   5.194   0.420
 2964TIP3    H1 8856   6.034   5.219   0.328
 2964TIP3    H2 8857   5.932   5.180   0.433
 2965TIP3   OH2 8858   4.975   1.197   2.730
 2965TIP3    H1 8859   5.043   1.152   2.680
 2965TIP3    H2 8860   4.993   1.290   2.716
 2966TIP3   OH2 8861   6.913   1.671   2.013
 2966TIP3    H1 8862   6.908   1.670   2.108
 2966TIP3    H2 8863   6.929   1.763   1.991
 2967TIP3   OH2 8864   4.392   0.329   5.697
 2967TIP3    H1 8865   4.415   0.400   5.757
 2967TIP3    H2 8866   4.382   0.252   5.753
 2968TIP3   OH2 8867   3.916   3.134   4.755
 2968TIP3    H1 8868   3.948   3.065   4.697
 2968TIP3    H2 8869   3.834   3.099   4.791
 2969TIP3   OH2 8870   5.948   3.136   3.156
 2969TIP3    H1 8871   5.934   3.181   3.239
 2969TIP3    H2 8872   5.862   3.099   3.134
 2970TIP3   OH2 8873   0.713   2.988   3.486
 2970TIP3    H1 8874   0.648   3.058   3.478
 2970TIP3    H2 8875   0.715   2.946   3.400
 2971TIP3   OH2 8876   5.338   2.402   4.696
 2971TIP3    H1 8877   5.280   2.439   4.629
 2971TIP3    H2 8878   5.340   2.467   4.765
 2972TIP3   OH2 8879   1.406   6.360   3.083
 2972TIP3    H1 8880   1.453   6.441   3.100
 2972TIP3    H2 8881   1.335   6.359   3.147
 2973TIP3   OH2 8882   3.538   5.335   0.806
 2973TIP3    H1 8883   3.473   5.273   0.773
 2973TIP3    H2 8884   3.495   5.420   0.803
 2974TIP3   OH2 8885   3.020   0.954   2.816
 2974TIP3    H1 8886   3.085   0.883   2.820
 2974TIP3    H2 8887   3.073   1.034   2.813
 2975TIP3   OH2 8888   0.875   3.529   4.951
 2975TIP3    H1 8889   0.897   3.436   4.962
 2975TIP3    H2 8890   0.957   3.569   4.923
 2976TIP3   OH2 8891   0.481   5.549   1.414
 2976TIP3    H1 8892   0.466   5.506   1.329
 2976TIP3    H2 8893   0.406   5.608   1.424
 2977TIP3   OH2 8894   2.787   5.463   4.435
 2977TIP3    H1 8895   2.832   5.481   4.518
 2977TIP3    H2 8896   2.714   5.524   4.434
 2978TIP3   OH2 8897   5.160   5.166   2.438
 2978TIP3    H1 8898   5.143   5.073   2.422
 2978TIP3    H2 8899   5.254   5.171   2.454
 2979TIP3   OH2 8900   5.885   6.453   3.305
 2979TIP3    H1 8901   5.938   6.464   3.384
 2979TIP3    H2 8902   5.892   6.360   3.285
 2980TIP3   OH2 8903   7.218   2.823   1.551
 2980TIP3    H1 8904   7.200   2.740   1.506
 2980TIP3    H2 8905   7.133   2.865   1.559
 2981TIP3   OH2 8906   0.432   4.894   4.583
 2981TIP3    H1 8907   0.477   4.964   4.631
 2981TIP3    H2 8908   0.502   4.836   4.554
 2982TIP3   OH2 8909   5.331   6.260   3.715
 2982TIP3    H1 8910   5.394   6.332   3.721
 2982TIP3    H2 8911   5.364   6.195   3.778
 2983TIP3   OH2 8912   0.802   0.855   2.173
 2983TIP3    H1 8913   0.834   0.765   2.176
 2983TIP3    H2 8914   0.880   0.908   2.155
 2984TIP3   OH2 8915   4.900   5.345   4.758
 2984TIP3    H1 8916   4.896   5.404   4.683
 2984TIP3    H2 8917   4.904   5.258   4.720
 2985TIP3   OH2 8918   5.667   6.603   1.167
 2985TIP3    H1 8919   5.598   6.553   1.210
 2985TIP3    H2 8920   5.673   6.684   1.216
 2986TIP3   OH2 8921   3.881   3.878   5.548
 2986TIP3    H1 8922   3.823   3.803   5.560
 2986TIP3    H2 8923   3.834   3.952   5.587
 2987TIP3   OH2 8924   2.769   6.583   2.605
 2987TIP3    H1 8925   2.736   6.553   2.521
 2987TIP3    H2 8926   2.717   6.661   2.625
 2988TIP3   OH2 8927   6.210   5.671   0.095
 2988TIP3    H1 8928   6.204   5.597   0.034
 2988TIP3    H2 8929   6.135   5.661   0.153
 2989TIP3   OH2 8930   3.660   6.000   4.037
 2989TIP3    H1 8931   3.583   6.048   4.067
 2989TIP3    H2 8932   3.721   6.068   4.009
 2990TIP3   OH2 8933   1.866   0.412   1.641
 2990TIP3    H1 8934   1.826   0.395   1.556
 2990TIP3    H2 8935   1.857   0.329   1.688
 2991TIP3   OH2 8936   1.827   4.832   5.114
 2991TIP3    H1 8937   1.842   4.912   5.064
 2991TIP3    H2 8938   1.882   4.842   5.192
 2992TIP3   OH2 8939   6.551   4.433   5.194
 2992TIP3    H1 8940   6.481   4.405   5.135
 2992TIP3    H2 8941   6.632   4.406   5.151
 2993TIP3   OH2 8942   6.788   2.662   3.165
 2993TIP3    H1 8943   6.722   2.625   3.224
 2993TIP3    H2 8944   6.748   2.742   3.132
 2994TIP3   OH2 8945   4.072   5.426   3.118
 2994TIP3    H1 8946   4.070   5.518   3.091
 2994TIP3    H2 8947   4.077   5.429   3.214
 2995TIP3   OH2 8948   1.638   0.766   4.441
 2995TIP3    H1 8949   1.602   0.819   4.370
 2995TIP3    H2 8950   1.603   0.806   4.521
 2996TIP3   OH2 8951   2.081   0.490   4.044
 2996TIP3    H1 8952   2.154   0.539   4.007
 2996TIP3    H2 8953   2.008   0.552   4.046
 2997TIP3   OH2 8954   0.045   1.274   0.010
 2997TIP3    H1 8955   0.002   1.190   0.021
 2997TIP3    H2 8956   0.040   1.315   0.096
 2998TIP3   OH2 8957   1.988   1.666   2.488
 2998TIP3    H1 8958   1.934   1.588   2.473
 2998TIP3    H2 8959   2.076   1.632   2.503
 2999TIP3   OH2 8960   1.853   0.775   1.820
 2999TIP3    H1 8961   1.902   0.810   1.894
 2999TIP3    H2 8962   1.761   0.783   1.846
 3000TIP3   OH2 8963   5.034   4.914   4.920
 3000TIP3    H1 8964   5.105   4.851   4.912
 3000TIP3    H2 8965   5.015   4.940   4.830
 3001TIP3   OH2 8966   4.644   2.326   0.388
 3001TIP3    H1 8967   4.710   2.279   0.440
 3001TIP3    H2 8968   4.616   2.262   0.322
 3002TIP3   OH2 8969   2.913   2.440   2.827
 3002TIP3    H1 8970   2.817   2.445   2.818
 3002TIP3    H2 8971   2.928   2.437   2.921
 3003TIP3   OH2 8972   6.675   4.681   3.869
 3003TIP3    H1 8973   6.699   4.720   3.953
 3003TIP3    H2 8974   6.751   4.695   3.813
 3004TIP3   OH2 8975   2.253   2.764   4.070
 3004TIP3    H1 8976   2.214   2.836   4.020
 3004TIP3    H2 8977   2.284   2.703   4.003
 3005TIP3   OH2 8978   2.675   5.537   0.795
 3005TIP3    H1 8979   2.763   5.522   0.759
 3005TIP3    H2 8980   2.616   5.494   0.732
 3006TIP3   OH2 8981   5.646   3.708   4.333
 3006TIP3    H1 8982   5.708   3.780   4.342
 3006TIP3    H2 8983   5.564   3.743   4.368
 3007TIP3   OH2 8984   6.007   6.302   1.039
 3007TIP3    H1 8985   6.046   6.296   1.126
 3007TIP3    H2 8986   6.075   6.270   0.979
 3008TIP3   OH2 8987   7.057   1.178   2.192
 3008TIP3    H1 8988   7.056   1.149   2.283
 3008TIP3    H2 8989   7.113   1.115   2.147
 3009TIP3   OH2 8990   6.837   4.952   1.554
 3009TIP3    H1 8991   6.923   4.990   1.540
 3009TIP3    H2 8992   6.845   4.900   1.634
 3010TIP3   OH2 8993   3.497   3.054   0.399
 3010TIP3    H1 8994   3.566   3.052   0.332
 3010TIP3    H2 8995   3.533   3.005   0.472
 3011TIP3   OH2 8996   4.630   0.010   2.340
 3011TIP3    H1 8997   4.656   0.034   2.251
 3011TIP3    H2 8998   4.691   0.058   2.396
 3012TIP3   OH2 8999   6.433   2.173   2.008
 3012TIP3    H1 9000   6.417   2.179   2.102
 3012TIP3    H2 9001   6.392   2.251   1.971
 3013TIP3   OH2 9002   4.322   1.335   5.382
 3013TIP3    H1 9003   4.276   1.345   5.298
 3013TIP3    H2 9004   4.299   1.246   5.410
 3014TIP3   OH2 9005   6.976   2.395   3.922
 3014TIP3    H1 9006   7.017   2.357   3.999
 3014TIP3    H2 9007   7.006   2.342   3.848
 3015TIP3   OH2 9008   1.841   0.059   4.465
 3015TIP3    H1 9009   1.931   0.044   4.437
 3015TIP3    H2 9010   1.842   0.043   4.559
 3016TIP3   OH2 9011   6.468   5.848   1.918
 3016TIP3    H1 9012   6.452   5.778   1.982
 3016TIP3    H2 9013   6.483   5.802   1.835
 3017TIP3   OH2 9014   6.463   3.081   4.855
 3017TIP3    H1 9015   6.495   3.157   4.904
 3017TIP3    H2 9016   6.397   3.041   4.912
 3018TIP3   OH2 9017   5.252   0.277   4.358
 3018TIP3    H1 9018   5.182   0.213   4.352
 3018TIP3    H2 9019   5.277   0.294   4.267
 3019TIP3   OH2 9020   6.722   6.736   4.713
 3019TIP3    H1 9021   6.692   6.665   4.770
 3019TIP3    H2 9022   6.787   6.783   4.766
 3020TIP3   OH2 9023   5.632   4.523   3.952
 3020TIP3    H1 9024   5.612   4.455   4.016
 3020TIP3    H2 9025   5.604   4.486   3.868
 3021TIP3   OH2 9026   6.206   5.982   5.157
 3021TIP3    H1 9027   6.247   5.998   5.242
 3021TIP3    H2 9028   6.275   5.998   5.093
 3022TIP3   OH2 9029   4.601   3.246   4.029
 3022TIP3    H1 9030   4.518   3.201   4.046
 3022TIP3    H2 9031   4.656   3.225   4.104
 3023TIP3   OH2 9032   7.136   4.800   3.763
 3023TIP3    H1 9033   7.202   4.812   3.831
 3023TIP3    H2 9034   7.173   4.842   3.685
 3024TIP3   OH2 9035   4.645   6.194   0.641
 3024TIP3    H1 9036   4.598   6.184   0.558
 3024TIP3    H2 9037   4.591   6.147   0.705
 3025TIP3   OH2 9038   3.866   6.633   3.753
 3025TIP3    H1 9039   3.926   6.614   3.682
 3025TIP3    H2 9040   3.817   6.710   3.723
 3026TIP3   OH2 9041   1.672   4.651   0.550
 3026TIP3    H1 9042   1.758   4.673   0.515
 3026TIP3    H2 9043   1.673   4.683   0.640
 3027TIP3   OH2 9044   1.064   1.742   1.269
 3027TIP3    H1 9045   1.030   1.684   1.201
 3027TIP3    H2 9046   1.008   1.819   1.265
 3028TIP3   OH2 9047   5.295   2.725   1.918
 3028TIP3    H1 9048   5.247   2.693   1.994
 3028TIP3    H2 9049   5.335   2.646   1.881
 3029TIP3   OH2 9050   3.373   4.540   2.545
 3029TIP3    H1 9051   3.384   4.537   2.640
 3029TIP3    H2 9052   3.450   4.496   2.510
 3030TIP3   OH2 9053   0.624   1.797   3.435
 3030TIP3    H1 9054   0.671   1.794   3.518
 3030TIP3    H2 9055   0.590   1.709   3.423
 3031TIP3   OH2 9056   0.896   1.065   1.911
 3031TIP3    H1 9057   0.975   1.034   1.955
 3031TIP3    H2 9058   0.864   1.136   1.967
 3032TIP3   OH2 9059   6.255   1.659   3.881
 3032TIP3    H1 9060   6.165   1.659   3.847
 3032TIP3    H2 9061   6.306   1.702   3.813
 3033TIP3   OH2 9062   3.934   0.175   3.751
 3033TIP3    H1 9063   3.896   0.115   3.816
 3033TIP3    H2 9064   3.978   0.117   3.688
 3034TIP3   OH2 9065   5.988   2.263   0.159
 3034TIP3    H1 9066   6.069   2.301   0.124
 3034TIP3    H2 9067   5.980   2.179   0.113
 3035TIP3   OH2 9068   2.523   6.435   4.022
 3035TIP3    H1 9069   2.492   6.346   4.003
 3035TIP3    H2 9070   2.532   6.476   3.935
 3036TIP3   OH2 9071   6.440   0.250   1.376
 3036TIP3    H1 9072   6.432   0.255   1.472
 3036TIP3    H2 9073   6.351   0.234   1.345
 3037TIP3   OH2 9074   6.067   0.241   4.060
 3037TIP3    H1 9075   6.118   0.304   4.009
 3037TIP3    H2 9076   6.056   0.282   4.146
 3038TIP3   OH2 9077   3.639   4.751   0.039
 3038TIP3    H1 9078   3.611   4.828   0.088
 3038TIP3    H2 9079   3.558   4.714   0.004
 3039TIP3   OH2 9080   1.268   4.384   5.120
 3039TIP3    H1 9081   1.346   4.329   5.109
 3039TIP3    H2 9082   1.270   4.444   5.046
 3040TIP3   OH2 9083   0.950   6.483   3.890
 3040TIP3    H1 9084   0.921   6.531   3.968
 3040TIP3    H2 9085   0.960   6.551   3.823
 3041TIP3   OH2 9086   1.475   6.382   3.492
 3041TIP3    H1 9087   1.538   6.453   3.505
 3041TIP3    H2 9088   1.528   6.302   3.493
 3042TIP3   OH2 9089   3.785   6.720   0.063
 3042TIP3    H1 9090   3.755   6.693   0.149
 3042TIP3    H2 9091   3.729   6.794   0.040
 3043TIP3   OH2 9092   5.798   5.894   3.928
 3043TIP3    H1 9093   5.771   5.902   4.019
 3043TIP3    H2 9094   5.842   5.809   3.922
 3044TIP3   OH2 9095   1.671   6.396   0.040
 3044TIP3    H1 9096   1.595   6.344   0.064
 3044TIP3    H2 9097   1.663   6.408  -0.054
 3045TIP3   OH2 9098   6.905   1.426   3.306
 3045TIP3    H1 9099   6.989   1.472   3.314
 3045TIP3    H2 9100   6.842   1.495   3.286
 3046TIP3   OH2 9101   0.516   2.423   2.905
 3046TIP3    H1 9102   0.594   2.369   2.893
 3046TIP3    H2 9103   0.546   2.498   2.957
 3047TIP3   OH2 9104   0.320   5.095   1.412
 3047TIP3    H1 9105   0.302   5.029   1.345
 3047TIP3    H2 9106   0.276   5.174   1.381
 3048TIP3   OH2 9107   4.125   4.332   1.520
 3048TIP3    H1 9108   4.153   4.325   1.611
 3048TIP3    H2 9109   4.188   4.393   1.479
 3049TIP3   OH2 9110   1.390   4.419   1.767
 3049TIP3    H1 9111   1.329   4.361   1.812
 3049TIP3    H2 9112   1.358   4.508   1.786
 3050TIP3   OH2 9113   0.933   5.996   2.852
 3050TIP3    H1 9114   0.867   6.056   2.817
 3050TIP3    H2 9115   0.921   5.999   2.947
 3051TIP3   OH2 9116   3.338   2.897   3.396
 3051TIP3    H1 9117   3.319   2.863   3.484
 3051TIP3    H2 9118   3.252   2.923   3.362
 3052TIP3   OH2 9119   5.959   2.637   1.625
 3052TIP3    H1 9120   5.877   2.625   1.576
 3052TIP3    H2 9121   5.930   2.665   1.712
 3053TIP3   OH2 9122   5.896   4.760   0.813
 3053TIP3    H1 9123   5.843   4.682   0.800
 3053TIP3    H2 9124   5.842   4.831   0.777
 3054TIP3   OH2 9125   1.716   4.686   2.982
 3054TIP3    H1 9126   1.698   4.652   2.895
 3054TIP3    H2 9127   1.712   4.781   2.972
 3055TIP3   OH2 9128   5.399   4.356   1.811
 3055TIP3    H1 9129   5.447   4.276   1.792
 3055TIP3    H2 9130   5.313   4.342   1.772
 3056TIP3   OH2 9131   4.062   5.684   3.026
 3056TIP3    H1 9132   4.036   5.712   2.938
 3056TIP3    H2 9133   4.157   5.692   3.026
 3057TIP3   OH2 9134   6.810   1.616   4.073
 3057TIP3    H1 9135   6.792   1.522   4.071
 3057TIP3    H2 9136   6.724   1.657   4.073
 3058TIP3   OH2 9137   0.378   5.367   5.244
 3058TIP3    H1 9138   0.469   5.363   5.272
 3058TIP3    H2 9139   0.330   5.319   5.312
 3059TIP3   OH2 9140   6.390   2.843   2.049
 3059TIP3    H1 9141   6.438   2.909   2.099
 3059TIP3    H2 9142   6.456   2.778   2.026
 3060TIP3   OH2 9143   2.803   6.409   3.252
 3060TIP3    H1 9144   2.850   6.339   3.206
 3060TIP3    H2 9145   2.872   6.463   3.290
 3061TIP3   OH2 9146   0.153   5.292   1.276
 3061TIP3    H1 9147   0.127   5.379   1.247
 3061TIP3    H2 9148   0.109   5.279   1.359
 3062TIP3   OH2 9149   5.339   2.685   2.583
 3062TIP3    H1 9150   5.267   2.622   2.590
 3062TIP3    H2 9151   5.402   2.642   2.525
 3063TIP3   OH2 9152   4.102   0.723   3.221
 3063TIP3    H1 9153   4.177   0.682   3.176
 3063TIP3    H2 9154   4.034   0.656   3.219
 3064TIP3   OH2 9155   4.810   5.388   1.798
 3064TIP3    H1 9156   4.857   5.323   1.850
 3064TIP3    H2 9157   4.773   5.448   1.862
 3065TIP3   OH2 9158   2.025   4.429   4.789
 3065TIP3    H1 9159   2.099   4.375   4.817
 3065TIP3    H2 9160   2.022   4.500   4.852
 3066TIP3   OH2 9161   1.450   3.656   4.724
 3066TIP3    H1 9162   1.513   3.670   4.795
 3066TIP3    H2 9163   1.366   3.644   4.768
 3067TIP3   OH2 9164   0.770   2.865   5.194
 3067TIP3    H1 9165   0.817   2.804   5.252
 3067TIP3    H2 9166   0.704   2.811   5.151
 3068TIP3   OH2 9167   4.503   3.728   0.909
 3068TIP3    H1 9168   4.495   3.823   0.898
 3068TIP3    H2 9169   4.486   3.693   0.821
 3069TIP3   OH2 9170   3.306   1.297   5.755
 3069TIP3    H1 9171   3.222   1.343   5.760
 3069TIP3    H2 9172   3.282   1.205   5.743
 3070TIP3   OH2 9173   3.949   4.140   1.717
 3070TIP3    H1 9174   3.885   4.129   1.787
 3070TIP3    H2 9175   3.916   4.215   1.666
 3071TIP3   OH2 9176   3.289   0.181   2.582
 3071TIP3    H1 9177   3.232   0.162   2.508
 3071TIP3    H2 9178   3.319   0.271   2.567
 3072TIP3   OH2 9179   0.965   0.597   3.176
 3072TIP3    H1 9180   0.902   0.545   3.125
 3072TIP3    H2 9181   1.049   0.555   3.160
 3073TIP3   OH2 9182   3.635   1.769   3.457
 3073TIP3    H1 9183   3.635   1.811   3.371
 3073TIP3    H2 9184   3.728   1.765   3.480
 3074TIP3   OH2 9185   5.075   0.354   5.460
 3074TIP3    H1 9186   5.165   0.387   5.462
 3074TIP3    H2 9187   5.070   0.294   5.534
 3075TIP3   OH2 9188   3.382   1.703   2.429
 3075TIP3    H1 9189   3.325   1.632   2.458
 3075TIP3    H2 9190   3.326   1.757   2.372
 3076TIP3   OH2 9191   4.442   5.867   0.361
 3076TIP3    H1 9192   4.483   5.953   0.355
 3076TIP3    H2 9193   4.355   5.884   0.396
 3077TIP3   OH2 9194   3.320   6.588   2.945
 3077TIP3    H1 9195   3.327   6.573   3.039
 3077TIP3    H2 9196   3.377   6.663   2.928
 3078TIP3   OH2 9197   6.281   1.282   2.849
 3078TIP3    H1 9198   6.360   1.314   2.804
 3078TIP3    H2 9199   6.315   1.238   2.927
 3079TIP3   OH2 9200   1.096   1.999   3.486
 3079TIP3    H1 9201   1.065   1.918   3.528
 3079TIP3    H2 9202   1.132   1.970   3.403
 3080TIP3   OH2 9203   5.150   0.846   2.604
 3080TIP3    H1 9204   5.106   0.889   2.531
 3080TIP3    H2 9205   5.215   0.909   2.634
 3081TIP3   OH2 9206   1.328   0.935   1.150
 3081TIP3    H1 9207   1.292   1.008   1.101
 3081TIP3    H2 9208   1.412   0.967   1.183
 3082TIP3   OH2 9209   3.725   5.489   3.017
 3082TIP3    H1 9210   3.775   5.437   2.954
 3082TIP3    H2 9211   3.776   5.569   3.027
 3083TIP3   OH2 9212   1.539   3.491   5.361
 3083TIP3    H1 9213   1.592   3.439   5.421
 3083TIP3    H2 9214   1.455   3.446   5.356
 3084TIP3   OH2 9215   5.390   6.680   2.927
 3084TIP3    H1 9216   5.364   6.699   3.017
 3084TIP3    H2 9217   5.447   6.603   2.934
 3085TIP3   OH2 9218   5.463   0.262   0.276
 3085TIP3    H1 9219   5.511   0.229   0.200
 3085TIP3    H2 9220   5.401   0.192   0.298
 3086TIP3   OH2 9221   3.057   6.382   2.475
 3086TIP3    H1 9222   3.003   6.453   2.511
 3086TIP3    H2 9223   3.115   6.425   2.412
 3087TIP3   OH2 9224   0.135   3.208   0.051
 3087TIP3    H1 9225   0.176   3.139   0.000
 3087TIP3    H2 9226   0.203   3.274   0.062
 3088TIP3   OH2 9227   5.632   0.972   4.320
 3088TIP3    H1 9228   5.662   0.920   4.246
 3088TIP3    H2 9229   5.681   0.938   4.395
 3089TIP3   OH2 9230   2.333   2.914   5.742
 3089TIP3    H1 9231   2.339   2.952   5.654
 3089TIP3    H2 9232   2.419   2.876   5.759
 3090TIP3   OH2 9233   6.361   6.286   1.056
 3090TIP3    H1 9234   6.317   6.288   1.141
 3090TIP3    H2 9235   6.420   6.361   1.058
 3091TIP3   OH2 9236   4.503   0.189   1.020
 3091TIP3    H1 9237   4.462   0.237   1.092
 3091TIP3    H2 9238   4.503   0.250   0.947
 3092TIP3   OH2 9239   2.342   6.148   5.707
 3092TIP3    H1 9240   2.268   6.092   5.733
 3092TIP3    H2 9241   2.315   6.184   5.623
 3093TIP3   OH2 9242   2.920   0.657   1.938
 3093TIP3    H1 9243   2.862   0.732   1.950
 3093TIP3    H2 9244   2.904   0.601   2.014
 3094TIP3   OH2 9245   4.809   6.369   4.448
 3094TIP3    H1 9246   4.724   6.328   4.463
 3094TIP3    H2 9247   4.808   6.447   4.503
 3095TIP3   OH2 9248   1.263   6.439   1.953
 3095TIP3    H1 9249   1.250   6.353   1.993
 3095TIP3    H2 9250   1.311   6.489   2.018
 3096TIP3   OH2 9251   0.339   2.315   0.390
 3096TIP3    H1 9252   0.413   2.262   0.360
 3096TIP3    H2 9253   0.377   2.380   0.449
 3097TIP3   OH2 9254   5.204   6.174   5.625
 3097TIP3    H1 9255   5.151   6.166   5.705
 3097TIP3    H2 9256   5.294   6.166   5.656
 3098TIP3   OH2 9257   5.386   6.207   4.300
 3098TIP3    H1 9258   5.437   6.177   4.375
 3098TIP3    H2 9259   5.413   6.298   4.288
 3099TIP3   OH2 9260   1.501   0.975   3.521
 3099TIP3    H1 9261   1.558   0.899   3.520
 3099TIP3    H2 9262   1.468   0.979   3.610
 3100TIP3   OH2 9263   0.194   5.095   4.007
 3100TIP3    H1 9264   0.155   5.178   4.035
 3100TIP3    H2 9265   0.180   5.093   3.912
 3101TIP3   OH2 9266   3.293   6.067   5.458
 3101TIP3    H1 9267   3.320   5.986   5.501
 3101TIP3    H2 9268   3.249   6.117   5.527
 3102TIP3   OH2 9269   2.209   0.831   3.190
 3102TIP3    H1 9270   2.296   0.869   3.202
 3102TIP3    H2 9271   2.157   0.869   3.260
 3103TIP3   OH2 9272   2.073   0.917   2.505
 3103TIP3    H1 9273   2.080   0.942   2.412
 3103TIP3    H2 9274   2.157   0.945   2.543
 3104TIP3   OH2 9275   7.076   2.007   3.078
 3104TIP3    H1 9276   7.003   2.038   3.132
 3104TIP3    H2 9277   7.151   2.059   3.106
 3105TIP3   OH2 9278   0.305   5.455   5.739
 3105TIP3    H1 9279   0.309   5.370   5.695
 3105TIP3    H2 9280   0.221   5.455   5.783
 3106TIP3   OH2 9281   1.760   1.124   3.842
 3106TIP3    H1 9282   1.819   1.170   3.901
 3106TIP3    H2 9283   1.708   1.068   3.899
 3107TIP3   OH2 9284   6.272   2.651   5.397
 3107TIP3    H1 9285   6.252   2.587   5.466
 3107TIP3    H2 9286   6.204   2.637   5.331
 3108TIP3   OH2 9287   3.335   3.757   1.825
 3108TIP3    H1 9288   3.391   3.719   1.758
 3108TIP3    H2 9289   3.273   3.812   1.776
 3109TIP3   OH2 9290   2.603   5.012   4.952
 3109TIP3    H1 9291   2.622   5.086   4.894
 3109TIP3    H2 9292   2.512   5.023   4.976
 3110TIP3   OH2 9293   3.427   6.159   4.071
 3110TIP3    H1 9294   3.376   6.139   4.149
 3110TIP3    H2 9295   3.438   6.254   4.073
 3111TIP3   OH2 9296   4.359   1.374   0.102
 3111TIP3    H1 9297   4.355   1.300   0.041
 3111TIP3    H2 9298   4.319   1.446   0.055
 3112TIP3   OH2 9299   6.366   3.182   1.132
 3112TIP3    H1 9300   6.457   3.199   1.108
 3112TIP3    H2 9301   6.332   3.128   1.061
 3113TIP3   OH2 9302   6.177   6.438   0.183
 3113TIP3    H1 9303   6.201   6.349   0.212
 3113TIP3    H2 9304   6.168   6.488   0.264
 3114TIP3   OH2 9305   5.770   2.068   2.097
 3114TIP3    H1 9306   5.679   2.059   2.069
 3114TIP3    H2 9307   5.765   2.091   2.190
 3115TIP3   OH2 9308   1.116   2.968  -0.006
 3115TIP3    H1 9309   1.172   3.028  -0.055
 3115TIP3    H2 9310   1.172   2.933   0.063
 3116TIP3   OH2 9311   2.561   6.692   0.900
 3116TIP3    H1 9312   2.642   6.743   0.890
 3116TIP3    H2 9313   2.491   6.751   0.874
 3117TIP3   OH2 9314   5.292   1.842   0.213
 3117TIP3    H1 9315   5.201   1.870   0.203
 3117TIP3    H2 9316   5.331   1.857   0.127
 3118TIP3   OH2 9317   0.676   3.548   4.448
 3118TIP3    H1 9318   0.597   3.597   4.473
 3118TIP3    H2 9319   0.714   3.522   4.531
 3119TIP3   OH2 9320   0.302   2.294   3.121
 3119TIP3    H1 9321   0.375   2.314   3.063
 3119TIP3    H2 9322   0.322   2.341   3.203
 3120TIP3   OH2 9323   4.887   5.042   2.785
 3120TIP3    H1 9324   4.907   5.112   2.723
 3120TIP3    H2 9325   4.931   5.068   2.866
 3121TIP3   OH2 9326   6.860   3.074   5.410
 3121TIP3    H1 9327   6.881   3.018   5.335
 3121TIP3    H2 9328   6.819   3.016   5.473
 3122TIP3   OH2 9329   3.631   4.740   2.008
 3122TIP3    H1 9330   3.622   4.835   2.011
 3122TIP3    H2 9331   3.696   4.724   1.940
 3123TIP3   OH2 9332   2.428   2.340   4.741
 3123TIP3    H1 9333   2.355   2.353   4.802
 3123TIP3    H2 9334   2.499   2.306   4.795
 3124TIP3   OH2 9335   0.731   1.162   2.897
 3124TIP3    H1 9336   0.698   1.235   2.843
 3124TIP3    H2 9337   0.800   1.122   2.845
 3125TIP3   OH2 9338   1.894   4.159   5.401
 3125TIP3    H1 9339   1.949   4.153   5.323
 3125TIP3    H2 9340   1.806   4.174   5.366
 3126TIP3   OH2 9341   6.486   1.644   5.246
 3126TIP3    H1 9342   6.433   1.723   5.260
 3126TIP3    H2 9343   6.424   1.572   5.251
 3127TIP3   OH2 9344   4.201   6.103   1.967
 3127TIP3    H1 9345   4.296   6.112   1.965
 3127TIP3    H2 9346   4.169   6.160   1.898
 3128TIP3   OH2 9347   1.333   5.482   4.996
 3128TIP3    H1 9348   1.349   5.451   5.085
 3128TIP3    H2 9349   1.311   5.403   4.946
 3129TIP3   OH2 9350   5.027   5.181   0.856
 3129TIP3    H1 9351   4.985   5.266   0.843
 3129TIP3    H2 9352   4.954   5.119   0.858
 3130TIP3   OH2 9353   0.878   3.656   3.159
 3130TIP3    H1 9354   0.954   3.626   3.210
 3130TIP3    H2 9355   0.842   3.576   3.121
 3131TIP3   OH2 9356   2.522   5.431   3.063
 3131TIP3    H1 9357   2.596   5.372   3.080
 3131TIP3    H2 9358   2.495   5.409   2.974
 3132TIP3   OH2 9359   4.697   2.426   2.531
 3132TIP3    H1 9360   4.691   2.416   2.436
 3132TIP3    H2 9361   4.787   2.401   2.552
 3133TIP3   OH2 9362   0.603   1.686   5.505
 3133TIP3    H1 9363   0.628   1.769   5.462
 3133TIP3    H2 9364   0.560   1.636   5.436
 3134TIP3   OH2 9365   5.586   0.094   3.611
 3134TIP3    H1 9366   5.558   0.074   3.700
 3134TIP3    H2 9367   5.571   0.013   3.562
 3135TIP3   OH2 9368   1.566   3.114   0.309
 3135TIP3    H1 9369   1.474   3.108   0.333
 3135TIP3    H2 9370   1.578   3.047   0.241
 3136TIP3   OH2 9371   2.868   1.687   4.669
 3136TIP3    H1 9372   2.775   1.678   4.647
 3136TIP3    H2 9373   2.897   1.762   4.617
 3137TIP3   OH2 9374   5.385   1.056   3.129
 3137TIP3    H1 9375   5.301   1.010   3.130
 3137TIP3    H2 9376   5.407   1.063   3.036
 3138TIP3   OH2 9377   6.235   3.758   1.990
 3138TIP3    H1 9378   6.309   3.794   1.941
 3138TIP3    H2 9379   6.222   3.819   2.062
 3139TIP3   OH2 9380   0.368   4.148   4.287
 3139TIP3    H1 9381   0.399   4.223   4.338
 3139TIP3    H2 9382   0.377   4.176   4.196
 3140TIP3   OH2 9383   3.220   5.662   2.025
 3140TIP3    H1 9384   3.304   5.701   2.000
 3140TIP3    H2 9385   3.155   5.713   1.976
 3141TIP3   OH2 9386   0.331   2.560   2.653
 3141TIP3    H1 9387   0.363   2.651   2.648
 3141TIP3    H2 9388   0.272   2.559   2.728
 3142TIP3   OH2 9389   3.645   4.371   2.840
 3142TIP3    H1 9390   3.646   4.337   2.929
 3142TIP3    H2 9391   3.620   4.296   2.786
 3143TIP3   OH2 9392   7.108   1.158   3.382
 3143TIP3    H1 9393   7.153   1.140   3.465
 3143TIP3    H2 9394   7.062   1.240   3.397
 3144TIP3   OH2 9395   3.215   3.652   0.532
 3144TIP3    H1 9396   3.240   3.586   0.468
 3144TIP3    H2 9397   3.119   3.658   0.523
 3145TIP3   OH2 9398   6.699   0.352   2.177
 3145TIP3    H1 9399   6.651   0.362   2.260
 3145TIP3    H2 9400   6.643   0.295   2.125
 3146TIP3   OH2 9401   0.604   6.636   2.395
 3146TIP3    H1 9402   0.658   6.558   2.404
 3146TIP3    H2 9403   0.666   6.705   2.371
 3147TIP3   OH2 9404   5.104   2.923   3.799
 3147TIP3    H1 9405   5.076   2.837   3.766
 3147TIP3    H2 9406   5.022   2.964   3.829
 3148TIP3   OH2 9407   1.732   5.496   3.495
 3148TIP3    H1 9408   1.777   5.417   3.526
 3148TIP3    H2 9409   1.655   5.503   3.551
 3149TIP3   OH2 9410   4.298   3.602   1.065
 3149TIP3    H1 9411   4.235   3.671   1.047
 3149TIP3    H2 9412   4.375   3.624   1.013
 3150TIP3   OH2 9413   5.076   3.129   1.854
 3150TIP3    H1 9414   5.027   3.077   1.917
 3150TIP3    H2 9415   5.151   3.075   1.831
 3151TIP3   OH2 9416   5.467   6.213   5.429
 3151TIP3    H1 9417   5.556   6.209   5.393
 3151TIP3    H2 9418   5.459   6.135   5.483
 3152TIP3   OH2 9419   4.931   5.370   4.245
 3152TIP3    H1 9420   4.944   5.403   4.334
 3152TIP3    H2 9421   5.011   5.395   4.198
 3153TIP3   OH2 9422   6.348   6.465   2.024
 3153TIP3    H1 9423   6.388   6.551   2.015
 3153TIP3    H2 9424   6.416   6.412   2.067
 3154TIP3   OH2 9425   0.763   3.337   2.183
 3154TIP3    H1 9426   0.776   3.298   2.096
 3154TIP3    H2 9427   0.741   3.262   2.238
 3155TIP3   OH2 9428   5.181  -0.010   5.504
 3155TIP3    H1 9429   5.228   0.074   5.509
 3155TIP3    H2 9430   5.109   0.008   5.444
 3156TIP3   OH2 9431   6.050   4.171   4.325
 3156TIP3    H1 9432   5.966   4.182   4.370
 3156TIP3    H2 9433   6.029   4.180   4.232
 3157TIP3   OH2 9434   1.078   0.381   1.674
 3157TIP3    H1 9435   1.015   0.438   1.631
 3157TIP3    H2 9436   1.163   0.412   1.643
 3158TIP3   OH2 9437   6.621   5.043   2.473
 3158TIP3    H1 9438   6.618   4.957   2.432
 3158TIP3    H2 9439   6.535   5.081   2.456
 3159TIP3   OH2 9440   2.485   5.881   4.350
 3159TIP3    H1 9441   2.524   5.968   4.360
 3159TIP3    H2 9442   2.425   5.891   4.275
 3160TIP3   OH2 9443   6.319   3.020   1.750
 3160TIP3    H1 9444   6.330   3.055   1.839
 3160TIP3    H2 9445   6.225   3.022   1.735
 3161TIP3   OH2 9446   4.832   2.118   0.450
 3161TIP3    H1 9447   4.760   2.056   0.443
 3161TIP3    H2 9448   4.894   2.090   0.382
 3162TIP3   OH2 9449   4.202   2.420   5.788
 3162TIP3    H1 9450   4.168   2.443   5.874
 3162TIP3    H2 9451   4.226   2.503   5.748
 3163TIP3   OH2 9452   1.353   1.753   4.754
 3163TIP3    H1 9453   1.358   1.673   4.702
 3163TIP3    H2 9454   1.442   1.788   4.753
 3164TIP3   OH2 9455   0.537   2.761   5.693
 3164TIP3    H1 9456   0.498   2.681   5.728
 3164TIP3    H2 9457   0.595   2.792   5.762
 3165TIP3   OH2 9458   1.151   5.394   2.626
 3165TIP3    H1 9459   1.216   5.371   2.559
 3165TIP3    H2 9460   1.202   5.399   2.707
 3166TIP3   OH2 9461   3.194   0.260   0.534
 3166TIP3    H1 9462   3.276   0.269   0.582
 3166TIP3    H2 9463   3.194   0.169   0.504
 3167TIP3   OH2 9464   4.780   2.829   0.738
 3167TIP3    H1 9465   4.765   2.734   0.738
 3167TIP3    H2 9466   4.866   2.839   0.697
 3168TIP3   OH2 9467   5.348   0.810   1.977
 3168TIP3    H1 9468   5.423   0.795   1.920
 3168TIP3    H2 9469   5.375   0.882   2.034
 3169TIP3   OH2 9470   6.754   5.053   5.586
 3169TIP3    H1 9471   6.705   5.122   5.542
 3169TIP3    H2 9472   6.741   4.975   5.532
 3170TIP3   OH2 9473   5.433   2.789   5.386
 3170TIP3    H1 9474   5.466   2.700   5.399
 3170TIP3    H2 9475   5.492   2.827   5.321
 3171TIP3   OH2 9476   6.546   3.092   1.579
 3171TIP3    H1 9477   6.486   3.078   1.505
 3171TIP3    H2 9478   6.491   3.081   1.657
 3172TIP3   OH2 9479   5.368   3.295   3.620
 3172TIP3    H1 9480   5.300   3.285   3.686
 3172TIP3    H2 9481   5.369   3.212   3.573
 3173TIP3   OH2 9482   1.885   4.910   5.447
 3173TIP3    H1 9483   1.847   4.887   5.532
 3173TIP3    H2 9484   1.975   4.879   5.452
 3174TIP3   OH2 9485   0.294   4.356   2.687
 3174TIP3    H1 9486   0.368   4.398   2.644
 3174TIP3    H2 9487   0.296   4.266   2.657
 3175TIP3   OH2 9488   4.395   1.867   4.884
 3175TIP3    H1 9489   4.490   1.881   4.887
 3175TIP3    H2 9490   4.375   1.821   4.966
 3176TIP3   OH2 9491   0.625   1.803   1.356
 3176TIP3    H1 9492   0.577   1.873   1.312
 3176TIP3    H2 9493   0.715   1.812   1.326
 3177TIP3   OH2 9494   0.846   5.544   3.344
 3177TIP3    H1 9495   0.921   5.491   3.316
 3177TIP3    H2 9496   0.769   5.495   3.315
 3178TIP3   OH2 9497   5.375   4.300   5.792
 3178TIP3    H1 9498   5.409   4.379   5.834
 3178TIP3    H2 9499   5.440   4.233   5.812
 3179TIP3   OH2 9500   1.570   1.410   3.435
 3179TIP3    H1 9501   1.535   1.321   3.444
 3179TIP3    H2 9502   1.493   1.464   3.415
 3180TIP3   OH2 9503   4.528   5.298   1.770
 3180TIP3    H1 9504   4.475   5.346   1.707
 3180TIP3    H2 9505   4.618   5.327   1.753
 3181TIP3   OH2 9506   2.539   4.641   2.268
 3181TIP3    H1 9507   2.520   4.579   2.338
 3181TIP3    H2 9508   2.618   4.606   2.227
 3182TIP3   OH2 9509   2.916   1.163   3.686
 3182TIP3    H1 9510   2.852   1.096   3.713
 3182TIP3    H2 9511   2.909   1.165   3.591
 3183TIP3   OH2 9512   6.910   1.378   5.053
 3183TIP3    H1 9513   6.970   1.304   5.062
 3183TIP3    H2 9514   6.956   1.440   4.996
 3184TIP3   OH2 9515   3.566   0.605   2.615
 3184TIP3    H1 9516   3.596   0.630   2.528
 3184TIP3    H2 9517   3.617   0.527   2.637
 3185TIP3   OH2 9518   5.007   2.881   0.110
 3185TIP3    H1 9519   4.918   2.865   0.078
 3185TIP3    H2 9520   5.063   2.862   0.035
 3186TIP3   OH2 9521   1.659   0.483   2.674
 3186TIP3    H1 9522   1.726   0.445   2.617
 3186TIP3    H2 9523   1.607   0.409   2.704
 3187TIP3   OH2 9524   2.826   5.239   1.752
 3187TIP3    H1 9525   2.752   5.214   1.807
 3187TIP3    H2 9526   2.810   5.195   1.669
 3188TIP3   OH2 9527   7.082   5.829   4.834
 3188TIP3    H1 9528   7.137   5.785   4.899
 3188TIP3    H2 9529   6.993   5.803   4.857
 3189TIP3   OH2 9530   6.029   0.737   4.005
 3189TIP3    H1 9531   6.018   0.832   4.001
 3189TIP3    H2 9532   6.085   0.723   4.082
 3190TIP3   OH2 9533   4.306   6.394   2.749
 3190TIP3    H1 9534   4.345   6.367   2.832
 3190TIP3    H2 9535   4.377   6.440   2.703
 3191TIP3   OH2 9536   4.624   5.066   2.362
 3191TIP3    H1 9537   4.575   5.005   2.417
 3191TIP3    H2 9538   4.698   5.016   2.329
 3192TIP3   OH2 9539   4.476   1.730   3.370
 3192TIP3    H1 9540   4.423   1.724   3.450
 3192TIP3    H2 9541   4.552   1.780   3.396
 3193TIP3   OH2 9542   2.295   3.392   4.527
 3193TIP3    H1 9543   2.332   3.364   4.443
 3193TIP3    H2 9544   2.208   3.426   4.506
 3194TIP3   OH2 9545   4.474   3.003   4.453
 3194TIP3    H1 9546   4.508   3.053   4.379
 3194TIP3    H2 9547   4.413   2.940   4.414
 3195TIP3   OH2 9548   4.194   0.785   5.365
 3195TIP3    H1 9549   4.252   0.717   5.331
 3195TIP3    H2 9550   4.169   0.753   5.452
 3196TIP3   OH2 9551   0.816   2.760   5.445
 3196TIP3    H1 9552   0.911   2.750   5.447
 3196TIP3    H2 9553   0.784   2.703   5.514
 3197TIP3   OH2 9554   4.964   4.345   1.463
 3197TIP3    H1 9555   4.982   4.273   1.403
 3197TIP3    H2 9556   4.942   4.419   1.406
 3198TIP3   OH2 9557   1.367   6.456   1.028
 3198TIP3    H1 9558   1.432   6.426   0.965
 3198TIP3    H2 9559   1.332   6.376   1.067
 3199TIP3   OH2 9560   2.554   3.168   1.438
 3199TIP3    H1 9561   2.562   3.212   1.353
 3199TIP3    H2 9562   2.632   3.112   1.443
 3200TIP3   OH2 9563   6.936   0.849   5.759
 3200TIP3    H1 9564   7.005   0.801   5.805
 3200TIP3    H2 9565   6.925   0.801   5.677
 3201TIP3   OH2 9566   5.864   2.327   5.271
 3201TIP3    H1 9567   5.830   2.240   5.291
 3201TIP3    H2 9568   5.836   2.382   5.345
 3202TIP3   OH2 9569   6.677   5.109   5.171
 3202TIP3    H1 9570   6.635   5.182   5.215
 3202TIP3    H2 9571   6.660   5.124   5.078
 3203TIP3   OH2 9572   7.012   2.406   5.002
 3203TIP3    H1 9573   6.922   2.411   5.035
 3203TIP3    H2 9574   7.052   2.336   5.053
 3204TIP3   OH2 9575   0.293   3.288   5.671
 3204TIP3    H1 9576   0.271   3.280   5.764
 3204TIP3    H2 9577   0.384   3.259   5.665
 3205TIP3   OH2 9578   1.968   3.965   4.985
 3205TIP3    H1 9579   1.913   3.931   4.914
 3205TIP3    H2 9580   1.920   3.943   5.065
 3206TIP3   OH2 9581   5.123   1.204   3.762
 3206TIP3    H1 9582   5.044   1.153   3.778
 3206TIP3    H2 9583   5.162   1.216   3.849
 3207TIP3   OH2 9584   0.663   0.452   5.217
 3207TIP3    H1 9585   0.601   0.515   5.181
 3207TIP3    H2 9586   0.618   0.416   5.294
 3208TIP3   OH2 9587   3.918   2.179   2.547
 3208TIP3    H1 9588   3.867   2.243   2.597
 3208TIP3    H2 9589   4.006   2.184   2.585
 3209TIP3   OH2 9590   3.137   5.825   4.071
 3209TIP3    H1 9591   3.134   5.893   4.003
 3209TIP3    H2 9592   3.206   5.765   4.041
 3210TIP3   OH2 9593   2.441   3.778   1.797
 3210TIP3    H1 9594   2.519   3.739   1.758
 3210TIP3    H2 9595   2.450   3.759   1.891
 3211TIP3   OH2 9596   0.883   2.843   1.153
 3211TIP3    H1 9597   0.847   2.909   1.211
 3211TIP3    H2 9598   0.978   2.847   1.167
 3212TIP3   OH2 9599   0.829   4.713   1.097
 3212TIP3    H1 9600   0.778   4.753   1.167
 3212TIP3    H2 9601   0.908   4.681   1.140
 3213TIP3   OH2 9602   6.243   6.093   3.155
 3213TIP3    H1 9603   6.313   6.032   3.178
 3213TIP3    H2 9604   6.211   6.064   3.070
 3214TIP3   OH2 9605   0.728   3.091   5.705
 3214TIP3    H1 9606   0.720   3.052   5.792
 3214TIP3    H2 9607   0.811   3.056   5.671
 3215TIP3   OH2 9608   0.251   5.663   1.404
 3215TIP3    H1 9609   0.245   5.756   1.428
 3215TIP3    H2 9610   0.171   5.624   1.440
 3216TIP3   OH2 9611   5.682   0.126   4.832
 3216TIP3    H1 9612   5.685   0.134   4.737
 3216TIP3    H2 9613   5.762   0.169   4.863
 3217TIP3   OH2 9614   3.746   4.030   1.342
 3217TIP3    H1 9615   3.779   3.953   1.389
 3217TIP3    H2 9616   3.817   4.056   1.284
 3218TIP3   OH2 9617   5.053   0.731   4.593
 3218TIP3    H1 9618   5.056   0.662   4.660
 3218TIP3    H2 9619   5.040   0.683   4.511
 3219TIP3   OH2 9620   0.313   5.637   4.299
 3219TIP3    H1 9621   0.329   5.729   4.280
 3219TIP3    H2 9622   0.353   5.590   4.226
 3220TIP3   OH2 9623   0.700   1.860   0.385
 3220TIP3    H1 9624   0.681   1.819   0.301
 3220TIP3    H2 9625   0.615   1.892   0.417
 3221TIP3   OH2 9626   3.076   2.111   4.317
 3221TIP3    H1 9627   3.167   2.107   4.346
 3221TIP3    H2 9628   3.047   2.019   4.315
 3222TIP3   OH2 9629   5.505   5.009   5.458
 3222TIP3    H1 9630   5.544   4.997   5.372
 3222TIP3    H2 9631   5.424   5.057   5.442
 3223TIP3   OH2 9632   2.742   6.639   2.919
 3223TIP3    H1 9633   2.829   6.644   2.879
 3223TIP3    H2 9634   2.689   6.588   2.858
 3224TIP3   OH2 9635   4.515   4.723   5.565
 3224TIP3    H1 9636   4.437   4.772   5.538
 3224TIP3    H2 9637   4.557   4.778   5.630
 3225TIP3   OH2 9638   1.504   2.642   3.110
 3225TIP3    H1 9639   1.474   2.725   3.147
 3225TIP3    H2 9640   1.533   2.665   3.021
 3226TIP3   OH2 9641   1.439   3.213   3.795
 3226TIP3    H1 9642   1.453   3.152   3.723
 3226TIP3    H2 9643   1.481   3.294   3.767
 3227TIP3   OH2 9644   1.438   0.085   3.932
 3227TIP3    H1 9645   1.437   0.157   3.995
 3227TIP3    H2 9646   1.454   0.127   3.848
 3228TIP3   OH2 9647   3.644   1.311   3.071
 3228TIP3    H1 9648   3.592   1.231   3.079
 3228TIP3    H2 9649   3.582   1.382   3.088
 3229TIP3   OH2 9650   1.154   3.194   4.477
 3229TIP3    H1 9651   1.175   3.109   4.439
 3229TIP3    H2 9652   1.090   3.174   4.546
 3230TIP3   OH2 9653   4.421   4.017   1.527
 3230TIP3    H1 9654   4.445   3.925   1.540
 3230TIP3    H2 9655   4.420   4.029   1.432
 3231TIP3   OH2 9656   0.998   4.149   4.179
 3231TIP3    H1 9657   1.085   4.185   4.163
 3231TIP3    H2 9658   1.005   4.056   4.155
 3232TIP3   OH2 9659   6.334   0.388   5.720
 3232TIP3    H1 9660   6.293   0.402   5.805
 3232TIP3    H2 9661   6.354   0.294   5.718
 3233TIP3   OH2 9662   1.045   3.292   0.258
 3233TIP3    H1 9663   1.072   3.375   0.219
 3233TIP3    H2 9664   1.124   3.259   0.301
 3234TIP3   OH2 9665   4.995   5.817   1.776
 3234TIP3    H1 9666   4.918   5.866   1.747
 3234TIP3    H2 9667   5.060   5.884   1.795
 3235TIP3   OH2 9668   4.113   4.208   3.115
 3235TIP3    H1 9669   4.148   4.173   3.197
 3235TIP3    H2 9670   4.144   4.148   3.047
 3236TIP3   OH2 9671   7.187   2.909   4.204
 3236TIP3    H1 9672   7.227   2.949   4.281
 3236TIP3    H2 9673   7.095   2.895   4.229
 3237TIP3   OH2 9674   6.024   5.276   4.697
 3237TIP3    H1 9675   5.998   5.202   4.751
 3237TIP3    H2 9676   5.945   5.331   4.693
 3238TIP3   OH2 9677   1.702   5.438   1.899
 3238TIP3    H1 9678   1.643   5.499   1.854
 3238TIP3    H2 9679   1.689   5.354   1.854
 3239TIP3   OH2 9680   1.924   5.765   2.663
 3239TIP3    H1 9681   1.881   5.850   2.661
 3239TIP3    H2 9682   1.979   5.764   2.584
 3240TIP3   OH2 9683   1.067   2.189   3.966
 3240TIP3    H1 9684   1.151   2.156   3.934
 3240TIP3    H2 9685   1.031   2.118   4.018
 3241TIP3   OH2 9686   6.320   0.764   4.904
 3241TIP3    H1 9687   6.391   0.827   4.892
 3241TIP3    H2 9688   6.294   0.774   4.996
 3242TIP3   OH2 9689   0.777   0.955   0.889
 3242TIP3    H1 9690   0.838   0.923   0.955
 3242TIP3    H2 9691   0.813   0.923   0.806
 3243TIP3   OH2 9692   6.769   3.316   4.082
 3243TIP3    H1 9693   6.769   3.222   4.099
 3243TIP3    H2 9694   6.707   3.352   4.146
 3244TIP3   OH2 9695   6.025   1.195   5.340
 3244TIP3    H1 9696   6.066   1.119   5.381
 3244TIP3    H2 9697   5.971   1.159   5.270
 3245TIP3   OH2 9698   3.544   0.589   5.174
 3245TIP3    H1 9699   3.536   0.511   5.229
 3245TIP3    H2 9700   3.603   0.562   5.104
 3246TIP3   OH2 9701   7.046   2.646   3.997
 3246TIP3    H1 9702   7.014   2.558   3.978
 3246TIP3    H2 9703   6.973   2.689   4.042
 3247TIP3   OH2 9704   1.782   3.848   4.821
 3247TIP3    H1 9705   1.740   3.769   4.855
 3247TIP3    H2 9706   1.851   3.816   4.763
 3248TIP3   OH2 9707   7.128   4.613   5.069
 3248TIP3    H1 9708   7.210   4.576   5.101
 3248TIP3    H2 9709   7.154   4.678   5.004
 3249TIP3   OH2 9710   5.351   4.569   2.406
 3249TIP3    H1 9711   5.374   4.653   2.445
 3249TIP3    H2 9712   5.329   4.513   2.481
 3250TIP3   OH2 9713   6.495   3.993   3.524
 3250TIP3    H1 9714   6.413   3.949   3.549
 3250TIP3    H2 9715   6.486   4.081   3.559
 3251TIP3   OH2 9716   6.906   1.138   4.710
 3251TIP3    H1 9717   6.893   1.232   4.725
 3251TIP3    H2 9718   6.833   1.096   4.756
 3252TIP3   OH2 9719   3.984   5.088   1.474
 3252TIP3    H1 9720   4.016   5.083   1.564
 3252TIP3    H2 9721   3.896   5.127   1.482
 3253TIP3   OH2 9722   4.079   3.236   0.116
 3253TIP3    H1 9723   4.016   3.165   0.107
 3253TIP3    H2 9724   4.040   3.295   0.181
 3254TIP3   OH2 9725   1.287   0.278   0.735
 3254TIP3    H1 9726   1.298   0.288   0.641
 3254TIP3    H2 9727   1.320   0.360   0.772
 3255TIP3   OH2 9728   5.873   3.845   3.491
 3255TIP3    H1 9729   5.892   3.818   3.401
 3255TIP3    H2 9730   5.867   3.763   3.540
 3256TIP3   OH2 9731   2.627   1.654   3.956
 3256TIP3    H1 9732   2.595   1.663   3.866
 3256TIP3    H2 9733   2.657   1.563   3.962
 3257TIP3   OH2 9734   2.759   5.177   4.201
 3257TIP3    H1 9735   2.671   5.184   4.238
 3257TIP3    H2 9736   2.817   5.211   4.269
 3258TIP3   OH2 9737   3.814   5.387   5.273
 3258TIP3    H1 9738   3.906   5.393   5.245
 3258TIP3    H2 9739   3.774   5.467   5.239
 3259TIP3   OH2 9740   6.049   6.354   2.023
 3259TIP3    H1 9741   6.024   6.365   1.931
 3259TIP3    H2 9742   6.128   6.407   2.034
 3260TIP3   OH2 9743   1.547   0.806   1.668
 3260TIP3    H1 9744   1.476   0.747   1.691
 3260TIP3    H2 9745   1.576   0.842   1.752
 3261TIP3   OH2 9746   0.206   1.933   1.213
 3261TIP3    H1 9747   0.295   1.960   1.236
 3261TIP3    H2 9748   0.211   1.838   1.206
 3262TIP3   OH2 9749   6.826   5.675   0.823
 3262TIP3    H1 9750   6.855   5.765   0.834
 3262TIP3    H2 9751   6.738   5.682   0.787
 3263TIP3   OH2 9752   2.446   2.933   0.867
 3263TIP3    H1 9753   2.421   2.843   0.886
 3263TIP3    H2 9754   2.534   2.942   0.902
 3264TIP3   OH2 9755   3.195   5.600   3.406
 3264TIP3    H1 9756   3.257   5.527   3.411
 3264TIP3    H2 9757   3.235   5.661   3.344
 3265TIP3   OH2 9758   4.839   1.231   2.330
 3265TIP3    H1 9759   4.765   1.271   2.284
 3265TIP3    H2 9760   4.886   1.183   2.262
 3266TIP3   OH2 9761   4.275   5.843   3.581
 3266TIP3    H1 9762   4.300   5.880   3.497
 3266TIP3    H2 9763   4.248   5.753   3.561
 3267TIP3   OH2 9764   6.955   0.695   0.576
 3267TIP3    H1 9765   7.050   0.680   0.577
 3267TIP3    H2 9766   6.944   0.787   0.597
 3268TIP3   OH2 9767   7.052   1.429   4.254
 3268TIP3    H1 9768   7.036   1.483   4.176
 3268TIP3    H2 9769   7.127   1.374   4.231
 3269TIP3   OH2 9770   1.839   0.129   3.870
 3269TIP3    H1 9771   1.778   0.056   3.865
 3269TIP3    H2 9772   1.836   0.157   3.961
 3270TIP3   OH2 9773   0.212   2.080   0.032
 3270TIP3    H1 9774   0.290   2.131   0.016
 3270TIP3    H2 9775   0.141   2.144   0.036
 3271TIP3   OH2 9776   3.852   1.514   3.347
 3271TIP3    H1 9777   3.862   1.420   3.328
 3271TIP3    H2 9778   3.925   1.555   3.302
 3272TIP3   OH2 9779   4.978   2.013   3.656
 3272TIP3    H1 9780   5.041   2.083   3.676
 3272TIP3    H2 9781   4.897   2.060   3.635
 3273TIP3   OH2 9782   2.980   5.927   5.759
 3273TIP3    H1 9783   2.919   6.001   5.752
 3273TIP3    H2 9784   2.968   5.879   5.677
 3274TIP3   OH2 9785   1.005   5.326   4.003
 3274TIP3    H1 9786   1.078   5.269   3.978
 3274TIP3    H2 9787   0.935   5.266   4.028
 3275TIP3   OH2 9788   3.338   0.852   4.399
 3275TIP3    H1 9789   3.419   0.838   4.449
 3275TIP3    H2 9790   3.364   0.842   4.308
 3276TIP3   OH2 9791   2.088   5.477   4.598
 3276TIP3    H1 9792   1.996   5.483   4.571
 3276TIP3    H2 9793   2.125   5.411   4.540
 3277TIP3   OH2 9794   6.264   3.181   3.810
 3277TIP3    H1 9795   6.223   3.268   3.807
 3277TIP3    H2 9796   6.341   3.194   3.864
 3278TIP3   OH2 9797   3.338   4.675   1.086
 3278TIP3    H1 9798   3.401   4.624   1.137
 3278TIP3    H2 9799   3.277   4.611   1.051
 3279TIP3   OH2 9800   4.970   2.005   1.094
 3279TIP3    H1 9801   5.005   1.952   1.165
 3279TIP3    H2 9802   4.900   1.951   1.056
 3280TIP3   OH2 9803   6.153   0.078   2.936
 3280TIP3    H1 9804   6.192   0.162   2.911
 3280TIP3    H2 9805   6.211   0.045   3.006
 3281TIP3   OH2 9806   5.216   6.374   4.522
 3281TIP3    H1 9807   5.217   6.470   4.522
 3281TIP3    H2 9808   5.305   6.349   4.548
 3282TIP3   OH2 9809   6.374   3.528   2.133
 3282TIP3    H1 9810   6.290   3.572   2.122
 3282TIP3    H2 9811   6.406   3.514   2.044
 3283TIP3   OH2 9812   5.779   4.282   3.684
 3283TIP3    H1 9813   5.691   4.274   3.649
 3283TIP3    H2 9814   5.806   4.192   3.704
 3284TIP3   OH2 9815   3.399   4.784   3.068
 3284TIP3    H1 9816   3.493   4.768   3.059
 3284TIP3    H2 9817   3.363   4.772   2.980
 3285TIP3   OH2 9818   6.417   0.819   5.850
 3285TIP3    H1 9819   6.435   0.855   5.763
 3285TIP3    H2 9820   6.363   0.886   5.893
 3286TIP3   OH2 9821   2.672   4.809   0.866
 3286TIP3    H1 9822   2.650   4.812   0.773
 3286TIP3    H2 9823   2.744   4.747   0.871
 3287TIP3   OH2 9824   3.853   2.312   3.178
 3287TIP3    H1 9825   3.890   2.337   3.094
 3287TIP3    H2 9826   3.806   2.389   3.208
 3288TIP3   OH2 9827   0.381   3.864   2.900
 3288TIP3    H1 9828   0.370   3.877   2.806
 3288TIP3    H2 9829   0.433   3.785   2.908
 3289TIP3   OH2 9830   5.034   3.943   0.751
 3289TIP3    H1 9831   5.071   3.925   0.665
 3289TIP3    H2 9832   4.952   3.893   0.753
 3290TIP3   OH2 9833   3.689   4.838   4.192
 3290TIP3    H1 9834   3.615   4.776   4.189
 3290TIP3    H2 9835   3.648   4.924   4.181
 3291TIP3   OH2 9836   2.151   1.419   1.489
 3291TIP3    H1 9837   2.068   1.379   1.461
 3291TIP3    H2 9838   2.158   1.499   1.437
 3292TIP3   OH2 9839   2.471   4.057   1.207
 3292TIP3    H1 9840   2.527   3.979   1.209
 3292TIP3    H2 9841   2.436   4.063   1.296
 3293TIP3   OH2 9842   2.005   3.148   5.633
 3293TIP3    H1 9843   1.944   3.097   5.581
 3293TIP3    H2 9844   2.057   3.197   5.570
 3294TIP3   OH2 9845   5.178   2.251   2.452
 3294TIP3    H1 9846   5.259   2.201   2.458
 3294TIP3    H2 9847   5.139   2.223   2.369
 3295TIP3   OH2 9848   4.937   0.505   3.588
 3295TIP3    H1 9849   4.991   0.491   3.511
 3295TIP3    H2 9850   4.992   0.556   3.648
 3296TIP3   OH2 9851   7.230   3.983   0.824
 3296TIP3    H1 9852   7.175   3.911   0.855
 3296TIP3    H2 9853   7.168   4.050   0.795
 3297TIP3   OH2 9854   0.108   2.800   3.083
 3297TIP3    H1 9855   0.068   2.724   3.126
 3297TIP3    H2 9856   0.199   2.799   3.114
 3298TIP3   OH2 9857   5.205   2.206   5.770
 3298TIP3    H1 9858   5.210   2.300   5.752
 3298TIP3    H2 9859   5.125   2.178   5.725
 3299TIP3   OH2 9860   5.855   1.313   1.914
 3299TIP3    H1 9861   5.877   1.403   1.892
 3299TIP3    H2 9862   5.766   1.317   1.949
 3300TIP3   OH2 9863   1.281   0.309   4.912
 3300TIP3    H1 9864   1.345   0.331   4.979
 3300TIP3    H2 9865   1.325   0.328   4.829
 3301TIP3   OH2 9866   0.074   6.495   2.308
 3301TIP3    H1 9867   0.118   6.570   2.348
 3301TIP3    H2 9868   0.099   6.420   2.361
 3302TIP3   OH2 9869   3.297   1.951   2.276
 3302TIP3    H1 9870   3.204   1.934   2.258
 3302TIP3    H2 9871   3.304   2.046   2.274
 3303TIP3   OH2 9872   6.445   2.252   4.458
 3303TIP3    H1 9873   6.398   2.201   4.393
 3303TIP3    H2 9874   6.533   2.263   4.422
 3304TIP3   OH2 9875   6.285   1.740   0.825
 3304TIP3    H1 9876   6.258   1.649   0.838
 3304TIP3    H2 9877   6.326   1.765   0.908
 3305TIP3   OH2 9878   4.391   0.767   0.329
 3305TIP3    H1 9879   4.338   0.846   0.342
 3305TIP3    H2 9880   4.345   0.717   0.262
 3306TIP3   OH2 9881   1.967   6.024   4.862
 3306TIP3    H1 9882   1.951   6.104   4.812
 3306TIP3    H2 9883   2.053   5.994   4.831
 3307TIP3   OH2 9884   3.101   3.889   2.055
 3307TIP3    H1 9885   3.054   3.971   2.042
 3307TIP3    H2 9886   3.053   3.825   2.001
 3308TIP3   OH2 9887   3.693   5.487   4.147
 3308TIP3    H1 9888   3.775   5.534   4.163
 3308TIP3    H2 9889   3.718   5.415   4.090
 3309TIP3   OH2 9890   4.422   0.646   2.323
 3309TIP3    H1 9891   4.369   0.583   2.274
 3309TIP3    H2 9892   4.482   0.592   2.373
 3310TIP3   OH2 9893   1.700   4.734   2.134
 3310TIP3    H1 9894   1.654   4.660   2.095
 3310TIP3    H2 9895   1.692   4.804   2.068
 3311TIP3   OH2 9896   3.013   3.998   4.143
 3311TIP3    H1 9897   2.933   4.040   4.175
 3311TIP3    H2 9898   3.027   4.036   4.056
 3312TIP3   OH2 9899   4.186   0.839   1.186
 3312TIP3    H1 9900   4.126   0.891   1.240
 3312TIP3    H2 9901   4.257   0.900   1.164
 3313TIP3   OH2 9902   1.621   3.433   5.115
 3313TIP3    H1 9903   1.611   3.460   5.207
 3313TIP3    H2 9904   1.543   3.380   5.098
 3314TIP3   OH2 9905   1.998   1.360   5.253
 3314TIP3    H1 9906   1.990   1.451   5.281
 3314TIP3    H2 9907   2.067   1.323   5.309
 3315TIP3   OH2 9908   5.156   3.293   3.112
 3315TIP3    H1 9909   5.150   3.287   3.207
 3315TIP3    H2 9910   5.233   3.240   3.089
 3316TIP3   OH2 9911   2.130   4.123   3.201
 3316TIP3    H1 9912   2.124   4.219   3.194
 3316TIP3    H2 9913   2.187   4.097   3.129
 3317TIP3   OH2 9914   0.350   6.761   5.244
 3317TIP3    H1 9915   0.382   6.842   5.282
 3317TIP3    H2 9916   0.401   6.750   5.164
 3318TIP3   OH2 9917   3.061   3.705   1.499
 3318TIP3    H1 9918   2.986   3.745   1.454
 3318TIP3    H2 9919   3.087   3.633   1.442
 3319TIP3   OH2 9920   2.704   0.744   3.933
 3319TIP3    H1 9921   2.786   0.694   3.939
 3319TIP3    H2 9922   2.635   0.678   3.938
 3320TIP3   OH2 9923   5.794   3.932   4.398
 3320TIP3    H1 9924   5.874   3.914   4.349
 3320TIP3    H2 9925   5.793   4.027   4.408
 3321TIP3   OH2 9926   3.161   3.515   3.799
 3321TIP3    H1 9927   3.074   3.507   3.762
 3321TIP3    H2 9928   3.208   3.574   3.739
 3322TIP3   OH2 9929   0.641   6.361   3.199
 3322TIP3    H1 9930   0.623   6.414   3.278
 3322TIP3    H2 9931   0.555   6.327   3.174
 3323TIP3   OH2 9932   7.175   2.196   3.913
 3323TIP3    H1 9933   7.192   2.205   3.819
 3323TIP3    H2 9934   7.203   2.279   3.951
 3324TIP3   OH2 9935   5.664   0.176   4.237
 3324TIP3    H1 9936   5.759   0.167   4.247
 3324TIP3    H2 9937   5.636   0.095   4.194
 3325TIP3   OH2 9938   6.114   1.203   0.360
 3325TIP3    H1 9939   6.140   1.295   0.351
 3325TIP3    H2 9940   6.061   1.201   0.439
 3326TIP3   OH2 9941   6.358   4.493   0.841
 3326TIP3    H1 9942   6.355   4.398   0.847
 3326TIP3    H2 9943   6.267   4.519   0.825
 3327TIP3   OH2 9944   2.477   0.282   0.290
 3327TIP3    H1 9945   2.433   0.240   0.364
 3327TIP3    H2 9946   2.568   0.251   0.296
 3328TIP3   OH2 9947   1.355   4.249   1.428
 3328TIP3    H1 9948   1.342   4.172   1.372
 3328TIP3    H2 9949   1.441   4.235   1.468
 3329TIP3   OH2 9950   3.050   3.511   2.154
 3329TIP3    H1 9951   3.066   3.530   2.246
 3329TIP3    H2 9952   3.134   3.529   2.111
 3330TIP3   OH2 9953   1.982   2.661   3.152
 3330TIP3    H1 9954   1.913   2.639   3.088
 3330TIP3    H2 9955   1.937   2.661   3.236
 3331TIP3   OH2 9956   1.410   2.198   4.523
 3331TIP3    H1 9957   1.350   2.134   4.561
 3331TIP3    H2 9958   1.434   2.161   4.438
 3332TIP3   OH2 9959   6.670   0.821   2.125
 3332TIP3    H1 9960   6.722   0.750   2.087
 3332TIP3    H2 9961   6.619   0.780   2.194
 3333TIP3   OH2 9962   5.293   2.655   3.009
 3333TIP3    H1 9963   5.238   2.588   2.968
 3333TIP3    H2 9964   5.368   2.605   3.044
 3334TIP3   OH2 9965   5.018   3.162   4.110
 3334TIP3    H1 9966   5.076   3.176   4.184
 3334TIP3    H2 9967   4.959   3.091   4.138
 3335TIP3   OH2 9968   3.542   6.447   2.062
 3335TIP3    H1 9969   3.496   6.494   1.993
 3335TIP3    H2 9970   3.478   6.384   2.096
 3336TIP3   OH2 9971   1.511   4.741   1.269
 3336TIP3    H1 9972   1.527   4.737   1.363
 3336TIP3    H2 9973   1.438   4.681   1.254
 3337TIP3   OH2 9974   4.490   6.397   0.278
 3337TIP3    H1 9975   4.508   6.426   0.188
 3337TIP3    H2 9976   4.489   6.478   0.329
 3338TIP3   OH2 9977   3.387   1.266   5.110
 3338TIP3    H1 9978   3.343   1.243   5.192
 3338TIP3    H2 9979   3.359   1.356   5.093
 3339TIP3   OH2 9980   6.173   5.451   4.842
 3339TIP3    H1 9981   6.217   5.497   4.771
 3339TIP3    H2 9982   6.117   5.387   4.799
 3340TIP3   OH2 9983   2.987   1.024   1.301
 3340TIP3    H1 9984   2.944   1.079   1.367
 3340TIP3    H2 9985   3.046   1.084   1.255
 3341TIP3   OH2 9986   0.663   3.635   5.413
 3341TIP3    H1 9987   0.735   3.697   5.402
 3341TIP3    H2 9988   0.673   3.602   5.502
 3342TIP3   OH2 9989   6.615   6.652   2.256
 3342TIP3    H1 9990   6.611   6.646   2.352
 3342TIP3    H2 9991   6.680   6.587   2.231
 3343TIP3   OH2 9992   2.413   0.413   5.414
 3343TIP3    H1 9993   2.325   0.378   5.400
 3343TIP3    H2 9994   2.469   0.361   5.355
 3344TIP3   OH2 9995   3.512   6.111   5.323
 3344TIP3    H1 9996   3.499   6.022   5.289
 3344TIP3    H2 9997   3.429   6.132   5.367
 3345TIP3   OH2 9998   0.160   1.658   2.324
 3345TIP3    H1 9999   0.187   1.683   2.236
 3345TIP3    H210000   0.241   1.660   2.375
 3346TIP3   OH210001   2.541   3.576   2.522
 3346TIP3    H110002   2.502   3.656   2.555
 3346TIP3    H210003   2.632   3.578   2.552
 3347TIP3   OH210004   1.016   5.148   3.231
 3347TIP3    H110005   1.016   5.066   3.281
 3347TIP3    H210006   0.930   5.186   3.247
 3348TIP3   OH210007   7.146   2.190   5.435
 3348TIP3    H110008   7.143   2.279   5.470
 3348TIP3    H210009   7.124   2.134   5.509
 3349TIP3   OH210010   5.149   0.673   4.038
 3349TIP3    H110011   5.157   0.620   4.118
 3349TIP3    H210012   5.234   0.664   3.995
 3350TIP3   OH210013   2.641   0.252   4.574
 3350TIP3    H110014   2.563   0.210   4.537
 3350TIP3    H210015   2.709   0.185   4.570
 3351TIP3   OH210016   5.233   5.723   5.606
 3351TIP3    H110017   5.221   5.800   5.550
 3351TIP3    H210018   5.164   5.730   5.671
 3352TIP3   OH210019   6.462   1.451   4.546
 3352TIP3    H110020   6.438   1.451   4.453
 3352TIP3    H210021   6.503   1.536   4.560
 3353TIP3   OH210022   5.639   5.104   3.408
 3353TIP3    H110023   5.639   5.157   3.487
 3353TIP3    H210024   5.578   5.033   3.427
 3354TIP3   OH210025   1.685   5.316   0.358
 3354TIP3    H110026   1.710   5.374   0.286
 3354TIP3    H210027   1.590   5.328   0.366
 3355TIP3   OH210028   1.973   3.426   3.704
 3355TIP3    H110029   1.943   3.489   3.639
 3355TIP3    H210030   1.919   3.444   3.781
 3356TIP3   OH210031   4.071   0.836   1.804
 3356TIP3    H110032   4.019   0.770   1.849
 3356TIP3    H210033   4.068   0.912   1.861
 3357TIP3   OH210034   0.210   2.011   3.733
 3357TIP3    H110035   0.119   1.982   3.735
 3357TIP3    H210036   0.238   2.008   3.825
 3358TIP3   OH210037   0.400   6.810   4.598
 3358TIP3    H110038   0.400   6.720   4.565
 3358TIP3    H210039   0.423   6.801   4.690
 3359TIP3   OH210040   4.891   3.081   5.869
 3359TIP3    H110041   4.863   2.993   5.895
 3359TIP3    H210042   4.810   3.130   5.856
 3360TIP3   OH210043   1.071   1.875   0.969
 3360TIP3    H110044   0.987   1.872   1.016
 3360TIP3    H210045   1.073   1.963   0.931
 3361TIP3   OH210046   4.060   3.092   2.757
 3361TIP3    H110047   4.035   3.009   2.797
 3361TIP3    H210048   4.044   3.158   2.825
 3362TIP3   OH210049   0.492   2.059   1.567
 3362TIP3    H110050   0.444   2.045   1.649
 3362TIP3    H210051   0.584   2.046   1.590
 3363TIP3   OH210052   6.673   2.336   0.013
 3363TIP3    H110053   6.666   2.424   0.048
 3363TIP3    H210054   6.595   2.325  -0.042
 3364TIP3   OH210055   6.691   3.695   2.672
 3364TIP3    H110056   6.742   3.696   2.753
 3364TIP3    H210057   6.753   3.669   2.605
 3365TIP3   OH210058   3.626   1.138   0.697
 3365TIP3    H110059   3.686   1.065   0.683
 3365TIP3    H210060   3.634   1.191   0.617
 3366TIP3   OH210061   6.742   1.040   5.722
 3366TIP3    H110062   6.802   0.985   5.772
 3366TIP3    H210063   6.708   0.982   5.654
 3367TIP3   OH210064   2.554   6.420   3.560
 3367TIP3    H110065   2.476   6.374   3.530
 3367TIP3    H210066   2.576   6.480   3.489
 3368TIP3   OH210067   1.423   4.856   2.643
 3368TIP3    H110068   1.435   4.946   2.612
 3368TIP3    H210069   1.380   4.812   2.570
 3369TIP3   OH210070   7.138   0.897   1.678
 3369TIP3    H110071   7.075   0.848   1.731
 3369TIP3    H210072   7.153   0.842   1.602
 3370TIP3   OH210073   6.236   3.443   1.246
 3370TIP3    H110074   6.259   3.365   1.196
 3370TIP3    H210075   6.236   3.513   1.181
 3371TIP3   OH210076   5.187   5.157   0.282
 3371TIP3    H110077   5.249   5.202   0.340
 3371TIP3    H210078   5.201   5.064   0.300
 3372TIP3   OH210079   4.081   0.415   0.557
 3372TIP3    H110080   4.101   0.497   0.601
 3372TIP3    H210081   3.996   0.429   0.516
 3373TIP3   OH210082   6.602   2.135   3.477
 3373TIP3    H110083   6.574   2.161   3.389
 3373TIP3    H210084   6.556   2.053   3.493
 3374TIP3   OH210085   4.905   1.065   0.708
 3374TIP3    H110086   4.840   1.029   0.649
 3374TIP3    H210087   4.982   1.010   0.695
 3375TIP3   OH210088   3.603   1.643   2.263
 3375TIP3    H110089   3.679   1.607   2.309
 3375TIP3    H210090   3.542   1.666   2.333
 3376TIP3   OH210091   1.321   0.753   2.684
 3376TIP3    H110092   1.271   0.808   2.623
 3376TIP3    H210093   1.390   0.714   2.630
 3377TIP3   OH210094   1.933   6.526   2.576
 3377TIP3    H110095   2.015   6.490   2.610
 3377TIP3    H210096   1.952   6.619   2.562
 3378TIP3   OH210097   3.363   2.153   3.969
 3378TIP3    H110098   3.388   2.244   3.951
 3378TIP3    H210099   3.430   2.121   4.029
 3379TIP3   OH210100   0.188   5.636   0.468
 3379TIP3    H110101   0.123   5.639   0.538
 3379TIP3    H210102   0.136   5.626   0.388
 3380TIP3   OH210103   3.398   0.558   2.294
 3380TIP3    H110104   3.452   0.527   2.222
 3380TIP3    H210105   3.435   0.643   2.318
 3381TIP3   OH210106   5.000   5.244   2.660
 3381TIP3    H110107   5.055   5.213   2.587
 3381TIP3    H210108   5.062   5.282   2.722
 3382TIP3   OH210109   7.095   0.601   3.240
 3382TIP3    H110110   7.092   0.626   3.148
 3382TIP3    H210111   7.060   0.512   3.242
 3383TIP3   OH210112   1.698   3.654   0.062
 3383TIP3    H110113   1.653   3.738   0.059
 3383TIP3    H210114   1.791   3.676   0.068
 3384TIP3   OH210115   0.457   3.461   2.081
 3384TIP3    H110116   0.445   3.404   2.157
 3384TIP3    H210117   0.540   3.506   2.097
 3385TIP3   OH210118   6.619   1.656   1.881
 3385TIP3    H110119   6.709   1.674   1.908
 3385TIP3    H210120   6.568   1.663   1.962
 3386TIP3   OH210121   4.806   5.392   1.034
 3386TIP3    H110122   4.882   5.333   1.036
 3386TIP3    H210123   4.843   5.478   1.012
 3387TIP3   OH210124   3.074   4.420   4.022
 3387TIP3    H110125   3.091   4.329   3.998
 3387TIP3    H210126   3.145   4.444   4.080
 3388TIP3   OH210127   4.161   5.657   0.671
 3388TIP3    H110128   4.234   5.718   0.686
 3388TIP3    H210129   4.197   5.590   0.614
 3389TIP3   OH210130   4.693   5.346   4.929
 3389TIP3    H110131   4.699   5.437   4.961
 3389TIP3    H210132   4.768   5.337   4.871
 3390TIP3   OH210133   6.235   3.110   3.148
 3390TIP3    H110134   6.262   3.139   3.061
 3390TIP3    H210135   6.139   3.115   3.146
 3391TIP3   OH210136   6.634   3.525   3.405
 3391TIP3    H110137   6.545   3.510   3.435
 3391TIP3    H210138   6.668   3.595   3.461
 3392TIP3   OH210139   1.058   2.446   1.886
 3392TIP3    H110140   1.002   2.519   1.859
 3392TIP3    H210141   1.137   2.456   1.834
 3393TIP3   OH210142   1.213   3.376   1.546
 3393TIP3    H110143   1.306   3.362   1.532
 3393TIP3    H210144   1.171   3.301   1.503
 3394TIP3   OH210145   0.045   0.875   2.757
 3394TIP3    H110146   0.015   0.954   2.801
 3394TIP3    H210147   0.117   0.904   2.701
 3395TIP3   OH210148   6.041   0.506   0.791
 3395TIP3    H110149   6.028   0.412   0.789
 3395TIP3    H210150   6.072   0.525   0.880
 3396TIP3   OH210151   3.749   1.217   2.024
 3396TIP3    H110152   3.810   1.209   2.096
 3396TIP3    H210153   3.783   1.288   1.970
 3397TIP3   OH210154   0.902   1.216   1.687
 3397TIP3    H110155   0.816   1.239   1.650
 3397TIP3    H210156   0.881   1.179   1.773
 3398TIP3   OH210157   2.586   1.403   2.690
 3398TIP3    H110158   2.589   1.460   2.613
 3398TIP3    H210159   2.567   1.461   2.763
 3399TIP3   OH210160   5.263   1.231   5.880
 3399TIP3    H110161   5.250   1.215   5.786
 3399TIP3    H210162   5.265   1.144   5.919
 3400TIP3   OH210163   3.185   1.541   4.632
 3400TIP3    H110164   3.224   1.539   4.719
 3400TIP3    H210165   3.218   1.621   4.592
 3401TIP3   OH210166   1.722   3.474   1.195
 3401TIP3    H110167   1.676   3.554   1.221
 3401TIP3    H210168   1.804   3.505   1.156
 3402TIP3   OH210169   1.826   0.206   1.818
 3402TIP3    H110170   1.829   0.130   1.761
 3402TIP3    H210171   1.883   0.183   1.892
 3403TIP3   OH210172   3.852   4.946   5.634
 3403TIP3    H110173   3.763   4.911   5.625
 3403TIP3    H210174   3.908   4.878   5.599
 3404TIP3   OH210175   3.973   5.540   2.617
 3404TIP3    H110176   3.914   5.522   2.690
 3404TIP3    H210177   4.057   5.505   2.645
 3405TIP3   OH210178   2.577   4.358   0.098
 3405TIP3    H110179   2.523   4.309   0.161
 3405TIP3    H210180   2.607   4.434   0.148
 3406TIP3   OH210181   0.056   2.087   1.058
 3406TIP3    H110182   0.095   2.025   1.119
 3406TIP3    H210183   0.018   2.032   0.989
 3407TIP3   OH210184   1.153   3.880   1.470
 3407TIP3    H110185   1.190   3.794   1.488
 3407TIP3    H210186   1.216   3.921   1.410
 3408TIP3   OH210187   2.251   5.489   1.734
 3408TIP3    H110188   2.171   5.465   1.781
 3408TIP3    H210189   2.239   5.451   1.646
 3409TIP3   OH210190   3.964   2.758   1.185
 3409TIP3    H110191   3.970   2.852   1.202
 3409TIP3    H210192   3.931   2.752   1.096
 3410TIP3   OH210193   6.214   4.990   2.168
 3410TIP3    H110194   6.294   4.993   2.115
 3410TIP3    H210195   6.183   4.900   2.159
 3411TIP3   OH210196   5.301   3.904   2.098
 3411TIP3    H110197   5.295   3.816   2.136
 3411TIP3    H210198   5.371   3.897   2.032
 3412TIP3   OH210199   4.582   2.342   0.760
 3412TIP3    H110200   4.637   2.282   0.811
 3412TIP3    H210201   4.553   2.290   0.685
 3413TIP3   OH210202   0.132   0.408   0.778
 3413TIP3    H110203   0.058   0.348   0.776
 3413TIP3    H210204   0.179   0.390   0.697
 3414TIP3   OH210205   7.231   3.275   0.386
 3414TIP3    H110206   7.145   3.254   0.421
 3414TIP3    H210207   7.261   3.193   0.346
 3415TIP3   OH210208   7.103   5.053   1.648
 3415TIP3    H110209   7.052   5.060   1.729
 3415TIP3    H210210   7.194   5.045   1.677
 3416TIP3   OH210211   4.275   1.374   5.054
 3416TIP3    H110212   4.318   1.288   5.058
 3416TIP3    H210213   4.192   1.357   5.009
 3417TIP3   OH210214   2.647   2.559   3.419
 3417TIP3    H110215   2.676   2.616   3.347
 3417TIP3    H210216   2.654   2.614   3.497
 3418TIP3   OH210217   0.055   2.173   3.138
 3418TIP3    H110218   0.147   2.201   3.144
 3418TIP3    H210219   0.014   2.238   3.081
 3419TIP3   OH210220   5.323   2.686   1.166
 3419TIP3    H110221   5.230   2.666   1.158
 3419TIP3    H210222   5.344   2.733   1.085
 3420TIP3   OH210223   3.540   0.313   0.455
 3420TIP3    H110224   3.531   0.325   0.550
 3420TIP3    H210225   3.460   0.351   0.419
 3421TIP3   OH210226   3.381   5.659   4.905
 3421TIP3    H110227   3.429   5.696   4.831
 3421TIP3    H210228   3.348   5.735   4.953
 3422TIP3   OH210229   7.035   5.913   3.626
 3422TIP3    H110230   7.096   5.962   3.682
 3422TIP3    H210231   7.090   5.874   3.558
 3423TIP3   OH210232   6.873   5.701   3.668
 3423TIP3    H110233   6.908   5.787   3.645
 3423TIP3    H210234   6.908   5.682   3.754
 3424TIP3   OH210235   7.129   3.985   1.780
 3424TIP3    H110236   7.048   3.935   1.782
 3424TIP3    H210237   7.162   3.981   1.870
 3425TIP3   OH210238   0.602   0.942   2.682
 3425TIP3    H110239   0.660   0.967   2.753
 3425TIP3    H210240   0.657   0.891   2.622
 3426TIP3   OH210241   4.047   1.544   0.262
 3426TIP3    H110242   3.995   1.623   0.250
 3426TIP3    H210243   4.097   1.535   0.181
 3427TIP3   OH210244   4.943   6.640   0.722
 3427TIP3    H110245   4.911   6.702   0.656
 3427TIP3    H210246   4.925   6.554   0.685
 3428TIP3   OH210247   5.288   1.860   2.727
 3428TIP3    H110248   5.243   1.940   2.700
 3428TIP3    H210249   5.221   1.810   2.774
 3429TIP3   OH210250   2.489   2.628   4.870
 3429TIP3    H110251   2.461   2.542   4.902
 3429TIP3    H210252   2.561   2.609   4.809
 3430TIP3   OH210253   5.860   6.677   0.136
 3430TIP3    H110254   5.879   6.702   0.227
 3430TIP3    H210255   5.808   6.750   0.102
 3431TIP3   OH210256   6.049   0.931   5.243
 3431TIP3    H110257   6.027   0.860   5.181
 3431TIP3    H210258   5.986   0.920   5.314
 3432TIP3   OH210259   4.823   3.460   4.158
 3432TIP3    H110260   4.774   3.386   4.194
 3432TIP3    H210261   4.784   3.475   4.072
 3433TIP3   OH210262   2.137   2.855   4.995
 3433TIP3    H110263   2.188   2.859   4.915
 3433TIP3    H210264   2.049   2.883   4.969
 3434TIP3   OH210265   5.249   3.372   2.844
 3434TIP3    H110266   5.274   3.301   2.903
 3434TIP3    H210267   5.177   3.336   2.792
 3435TIP3   OH210268   3.828   0.406   0.467
 3435TIP3    H110269   3.749   0.366   0.503
 3435TIP3    H210270   3.853   0.349   0.394
 3436TIP3   OH210271   6.105   3.911   1.466
 3436TIP3    H110272   6.071   3.884   1.380
 3436TIP3    H210273   6.033   3.959   1.506
 3437TIP3   OH210274   2.527   4.330   1.128
 3437TIP3    H110275   2.481   4.414   1.135
 3437TIP3    H210276   2.460   4.265   1.149
 3438TIP3   OH210277   6.329   6.333   3.301
 3438TIP3    H110278   6.298   6.268   3.238
 3438TIP3    H210279   6.293   6.305   3.385
 3439TIP3   OH210280   2.751   0.985   1.727
 3439TIP3    H110281   2.755   0.945   1.814
 3439TIP3    H210282   2.658   0.979   1.703
 3440TIP3   OH210283   3.632   0.511   4.357
 3440TIP3    H110284   3.656   0.497   4.448
 3440TIP3    H210285   3.644   0.605   4.343
 3441TIP3   OH210286   1.876   6.836   3.759
 3441TIP3    H110287   1.953   6.806   3.711
 3441TIP3    H210288   1.834   6.756   3.789
 3442TIP3   OH210289   5.871   3.801   1.634
 3442TIP3    H110290   5.965   3.790   1.622
 3442TIP3    H210291   5.841   3.719   1.673
 3443TIP3   OH210292   6.065   2.530   5.246
 3443TIP3    H110293   6.067   2.434   5.254
 3443TIP3    H210294   5.971   2.551   5.244
 3444TIP3   OH210295   4.982   1.608   2.116
 3444TIP3    H110296   4.971   1.516   2.090
 3444TIP3    H210297   5.069   1.611   2.155
 3445TIP3   OH210298   3.118   4.745   2.281
 3445TIP3    H110299   3.102   4.823   2.334
 3445TIP3    H210300   3.091   4.770   2.193
 3446TIP3   OH210301   4.477   5.794   5.225
 3446TIP3    H110302   4.520   5.823   5.145
 3446TIP3    H210303   4.506   5.704   5.237
 3447TIP3   OH210304   5.191   3.320   5.621
 3447TIP3    H110305   5.259   3.310   5.555
 3447TIP3    H210306   5.125   3.254   5.599
 3448TIP3   OH210307   1.797   6.537   5.680
 3448TIP3    H110308   1.877   6.498   5.646
 3448TIP3    H210309   1.734   6.465   5.684
 3449TIP3   OH210310   0.320   3.834   0.910
 3449TIP3    H110311   0.361   3.916   0.939
 3449TIP3    H210312   0.279   3.857   0.826
 3450TIP3   OH210313   3.925   0.585   1.286
 3450TIP3    H110314   4.020   0.584   1.272
 3450TIP3    H210315   3.914   0.632   1.369
 3451TIP3   OH210316   5.114   5.764   1.217
 3451TIP3    H110317   5.075   5.840   1.260
 3451TIP3    H210318   5.116   5.697   1.286
 3452TIP3   OH210319   0.256   5.264   4.786
 3452TIP3    H110320   0.210   5.298   4.863
 3452TIP3    H210321   0.190   5.265   4.717
 3453TIP3   OH210322   4.611   4.910   5.772
 3453TIP3    H110323   4.648   4.988   5.813
 3453TIP3    H210324   4.545   4.944   5.710
 3454TIP3   OH210325   1.719   0.096   0.851
 3454TIP3    H110326   1.768   0.022   0.888
 3454TIP3    H210327   1.628   0.077   0.872
 3455TIP3   OH210328   5.922   3.036   2.875
 3455TIP3    H110329   5.932   3.072   2.963
 3455TIP3    H210330   5.889   3.109   2.823
 3456TIP3   OH210331   1.291   4.577   4.427
 3456TIP3    H110332   1.242   4.508   4.383
 3456TIP3    H210333   1.302   4.545   4.516
 3457TIP3   OH210334   6.338   0.897   3.933
 3457TIP3    H110335   6.310   0.877   3.844
 3457TIP3    H210336   6.354   0.992   3.931
 3458TIP3   OH210337   1.103   1.328   5.502
 3458TIP3    H110338   1.040   1.373   5.447
 3458TIP3    H210339   1.186   1.370   5.484
 3459TIP3   OH210340   4.785   1.854   0.983
 3459TIP3    H110341   4.806   1.839   0.890
 3459TIP3    H210342   4.690   1.861   0.985
 3460TIP3   OH210343   6.755   1.332   0.843
 3460TIP3    H110344   6.712   1.270   0.783
 3460TIP3    H210345   6.792   1.399   0.786
 3461TIP3   OH210346   2.743   3.403   1.831
 3461TIP3    H110347   2.783   3.436   1.911
 3461TIP3    H210348   2.699   3.480   1.793
 3462TIP3   OH210349   4.753   3.964   5.208
 3462TIP3    H110350   4.793   3.983   5.293
 3462TIP3    H210351   4.694   4.038   5.193
 3463TIP3   OH210352   2.967   0.144   4.111
 3463TIP3    H110353   2.925   0.061   4.133
 3463TIP3    H210354   3.057   0.120   4.087
 3464TIP3   OH210355   5.906   3.624   2.609
 3464TIP3    H110356   5.999   3.646   2.601
 3464TIP3    H210357   5.860   3.704   2.583
 3465TIP3   OH210358   3.700   5.025   3.529
 3465TIP3    H110359   3.629   4.969   3.496
 3465TIP3    H210360   3.759   4.964   3.574
 3466TIP3   OH210361   4.889   1.605   1.472
 3466TIP3    H110362   4.865   1.517   1.442
 3466TIP3    H210363   4.905   1.595   1.566
 3467TIP3   OH210364   5.805   4.743   3.442
 3467TIP3    H110365   5.890   4.782   3.421
 3467TIP3    H210366   5.819   4.649   3.433
 3468TIP3   OH210367   4.957   3.603   0.465
 3468TIP3    H110368   4.919   3.613   0.378
 3468TIP3    H210369   4.969   3.509   0.475
 3469TIP3   OH210370   1.746   4.680   4.905
 3469TIP3    H110371   1.777   4.732   4.979
 3469TIP3    H210372   1.761   4.735   4.828
 3470TIP3   OH210373   4.550   2.660   1.134
 3470TIP3    H110374   4.513   2.744   1.161
 3470TIP3    H210375   4.644   2.677   1.124
 3471TIP3   OH210376   1.709   5.192   0.599
 3471TIP3    H110377   1.616   5.185   0.623
 3471TIP3    H210378   1.711   5.260   0.532
 3472TIP3   OH210379   2.373   1.447   5.484
 3472TIP3    H110380   2.328   1.364   5.468
 3472TIP3    H210381   2.362   1.497   5.404
 3473TIP3   OH210382   1.599   1.388   5.467
 3473TIP3    H110383   1.683   1.397   5.512
 3473TIP3    H210384   1.613   1.428   5.381
 3474TIP3   OH210385   1.159   6.371   4.975
 3474TIP3    H110386   1.239   6.415   4.944
 3474TIP3    H210387   1.135   6.418   5.054
 3475TIP3   OH210388   4.861   0.057   4.049
 3475TIP3    H110389   4.901   0.031   4.131
 3475TIP3    H210390   4.927   0.113   4.007
 3476TIP3   OH210391   4.547   1.859   2.277
 3476TIP3    H110392   4.610   1.830   2.211
 3476TIP3    H210393   4.508   1.777   2.309
 3477TIP3   OH210394   3.692   6.092   5.725
 3477TIP3    H110395   3.679   6.176   5.680
 3477TIP3    H210396   3.749   6.112   5.799
 3478TIP3   OH210397   2.609   0.291   1.366
 3478TIP3    H110398   2.695   0.306   1.405
 3478TIP3    H210399   2.626   0.283   1.272
 3479TIP3   OH210400   3.398   5.251   1.417
 3479TIP3    H110401   3.381   5.178   1.478
 3479TIP3    H210402   3.393   5.211   1.330
 3480TIP3   OH210403   2.355   0.449   5.734
 3480TIP3    H110404   2.336   0.366   5.776
 3480TIP3    H210405   2.446   0.442   5.706
 3481TIP3   OH210406   7.049   6.382   2.819
 3481TIP3    H110407   6.974   6.365   2.763
 3481TIP3    H210408   7.043   6.476   2.839
 3482TIP3   OH210409   4.649   2.360   4.385
 3482TIP3    H110410   4.597   2.325   4.457
 3482TIP3    H210411   4.584   2.376   4.316
 3483TIP3   OH210412   6.366   0.030   0.717
 3483TIP3    H110413   6.352  -0.059   0.749
 3483TIP3    H210414   6.287   0.077   0.743
 3484TIP3   OH210415   3.177   5.560   3.013
 3484TIP3    H110416   3.083   5.578   3.020
 3484TIP3    H210417   3.216   5.608   3.086
 3485TIP3   OH210418   0.810   3.827   4.815
 3485TIP3    H110419   0.856   3.776   4.749
 3485TIP3    H210420   0.852   3.802   4.898
 3486TIP3   OH210421   4.296   0.020   5.859
 3486TIP3    H110422   4.340  -0.065   5.859
 3486TIP3    H210423   4.362   0.081   5.894
 3487TIP3   OH210424   5.135   5.601   1.409
 3487TIP3    H110425   5.078   5.534   1.446
 3487TIP3    H210426   5.193   5.626   1.480
 3488TIP3   OH210427   0.600   5.879   1.429
 3488TIP3    H110428   0.693   5.876   1.406
 3488TIP3    H210429   0.586   5.801   1.483
 3489TIP3   OH210430   2.768   4.431   1.757
 3489TIP3    H110431   2.836   4.406   1.695
 3489TIP3    H210432   2.763   4.357   1.818
 3490TIP3   OH210433   6.354   4.223   1.836
 3490TIP3    H110434   6.339   4.213   1.930
 3490TIP3    H210435   6.297   4.157   1.796
 3491TIP3   OH210436   5.561   4.912   1.646
 3491TIP3    H110437   5.500   4.984   1.663
 3491TIP3    H210438   5.624   4.916   1.717
 3492TIP3   OH210439   6.466   5.002   1.115
 3492TIP3    H110440   6.422   4.951   1.183
 3492TIP3    H210441   6.500   5.079   1.160
 3493TIP3   OH210442   7.089   1.375   4.642
 3493TIP3    H110443   7.133   1.308   4.589
 3493TIP3    H210444   7.022   1.411   4.584
 3494TIP3   OH210445   0.084   2.627   5.256
 3494TIP3    H110446   0.146   2.611   5.326
 3494TIP3    H210447   0.065   2.721   5.261
 3495TIP3   OH210448   4.107   3.135   4.097
 3495TIP3    H110449   4.035   3.151   4.158
 3495TIP3    H210450   4.065   3.092   4.022
 3496TIP3   OH210451   6.498   0.440   2.743
 3496TIP3    H110452   6.491   0.523   2.697
 3496TIP3    H210453   6.537   0.380   2.679
 3497TIP3   OH210454   1.157   5.098   0.450
 3497TIP3    H110455   1.083   5.037   0.448
 3497TIP3    H210456   1.226   5.050   0.496
 3498TIP3   OH210457   4.532   0.599   2.667
 3498TIP3    H110458   4.518   0.693   2.680
 3498TIP3    H210459   4.445   0.561   2.670
 3499TIP3   OH210460   0.102   3.535   0.184
 3499TIP3    H110461   0.020   3.547   0.231
 3499TIP3    H210462   0.141   3.457   0.223
 3500TIP3   OH210463   2.137   2.475   0.421
 3500TIP3    H110464   2.089   2.402   0.460
 3500TIP3    H210465   2.223   2.471   0.462
 3501TIP3   OH210466   4.294   3.684   2.695
 3501TIP3    H110467   4.381   3.689   2.733
 3501TIP3    H210468   4.271   3.591   2.702
 3502TIP3   OH210469   2.461   0.142   5.263
 3502TIP3    H110470   2.546   0.184   5.278
 3502TIP3    H210471   2.480   0.048   5.267
 3503TIP3   OH210472   2.669   3.279   2.848
 3503TIP3    H110473   2.595   3.313   2.897
 3503TIP3    H210474   2.649   3.186   2.835
 3504TIP3   OH210475   1.971   1.300   1.694
 3504TIP3    H110476   2.053   1.295   1.744
 3504TIP3    H210477   1.963   1.213   1.654
 3505TIP3   OH210478   0.516   4.209   5.688
 3505TIP3    H110479   0.551   4.256   5.612
 3505TIP3    H210480   0.532   4.267   5.762
 3506TIP3   OH210481   1.076   6.195   2.185
 3506TIP3    H110482   1.130   6.224   2.259
 3506TIP3    H210483   1.119   6.115   2.155
 3507TIP3   OH210484   3.571   3.147   1.537
 3507TIP3    H110485   3.524   3.199   1.471
 3507TIP3    H210486   3.530   3.061   1.533
 3508TIP3   OH210487   3.175   5.258   2.963
 3508TIP3    H110488   3.179   5.350   2.987
 3508TIP3    H210489   3.201   5.211   3.042
 3509TIP3   OH210490   0.289   1.290   5.145
 3509TIP3    H110491   0.253   1.377   5.163
 3509TIP3    H210492   0.349   1.273   5.217
 3510TIP3   OH210493   0.153   1.279   2.474
 3510TIP3    H110494   0.093   1.352   2.462
 3510TIP3    H210495   0.240   1.320   2.479
 3511TIP3   OH210496   4.248   2.009   3.410
 3511TIP3    H110497   4.181   2.066   3.371
 3511TIP3    H210498   4.288   1.965   3.335
 3512TIP3   OH210499   6.807   4.756   2.731
 3512TIP3    H110500   6.872   4.689   2.755
 3512TIP3    H210501   6.773   4.726   2.646
 3513TIP3   OH210502   1.849   3.792   1.020
 3513TIP3    H110503   1.899   3.710   1.015
 3513TIP3    H210504   1.912   3.856   1.052
 3514TIP3   OH210505   3.503   4.966   2.439
 3514TIP3    H110506   3.587   5.009   2.456
 3514TIP3    H210507   3.506   4.886   2.491
 3515TIP3   OH210508   6.288   0.700   3.508
 3515TIP3    H110509   6.214   0.653   3.546
 3515TIP3    H210510   6.304   0.657   3.424
 3516TIP3   OH210511   0.090   4.980   0.253
 3516TIP3    H110512   0.082   5.023   0.339
 3516TIP3    H210513   0.153   4.910   0.267
 3517TIP3   OH210514   5.157   0.879   0.736
 3517TIP3    H110515   5.225   0.918   0.681
 3517TIP3    H210516   5.204   0.840   0.810
 3518TIP3   OH210517   1.097   1.153   1.513
 3518TIP3    H110518   1.019   1.179   1.562
 3518TIP3    H210519   1.091   1.202   1.431
 3519TIP3   OH210520   7.035   4.999   5.617
 3519TIP3    H110521   6.950   5.043   5.620
 3519TIP3    H210522   7.062   4.993   5.709
 3520TIP3   OH210523   2.041   6.684   1.723
 3520TIP3    H110524   2.025   6.778   1.723
 3520TIP3    H210525   2.060   6.662   1.814
 3521TIP3   OH210526   4.331   4.513   0.615
 3521TIP3    H110527   4.286   4.583   0.568
 3521TIP3    H210528   4.398   4.558   0.667
 3522TIP3   OH210529   1.242   2.577   4.428
 3522TIP3    H110530   1.190   2.577   4.509
 3522TIP3    H210531   1.178   2.564   4.358
 3523TIP3   OH210532   6.517   2.672   1.622
 3523TIP3    H110533   6.586   2.607   1.606
 3523TIP3    H210534   6.563   2.746   1.662
 3524TIP3   OH210535   0.201   1.268   0.675
 3524TIP3    H110536   0.180   1.216   0.754
 3524TIP3    H210537   0.267   1.216   0.629
 3525TIP3   OH210538   2.100   0.418   5.059
 3525TIP3    H110539   2.051   0.474   5.119
 3525TIP3    H210540   2.033   0.378   5.004
 3526TIP3   OH210541   0.690   1.405   3.728
 3526TIP3    H110542   0.681   1.320   3.771
 3526TIP3    H210543   0.775   1.401   3.685
 3527TIP3   OH210544   1.735   1.800   3.467
 3527TIP3    H110545   1.823   1.765   3.470
 3527TIP3    H210546   1.691   1.764   3.544
 3528TIP3   OH210547   2.091   3.297   2.742
 3528TIP3    H110548   2.118   3.386   2.764
 3528TIP3    H210549   2.102   3.248   2.824
 3529TIP3   OH210550   4.794   0.492   3.932
 3529TIP3    H110551   4.800   0.586   3.950
 3529TIP3    H210552   4.831   0.450   4.010
 3530TIP3   OH210553   3.752   6.359   5.528
 3530TIP3    H110554   3.791   6.305   5.459
 3530TIP3    H210555   3.730   6.442   5.485
 3531TIP3   OH210556   3.738   2.084   1.841
 3531TIP3    H110557   3.687   2.135   1.778
 3531TIP3    H210558   3.730   2.132   1.923
 3532TIP3   OH210559   0.434   2.844   2.654
 3532TIP3    H110560   0.436   2.907   2.583
 3532TIP3    H210561   0.371   2.880   2.717
 3533TIP3   OH210562   7.086   6.350   4.879
 3533TIP3    H110563   7.106   6.261   4.907
 3533TIP3    H210564   7.048   6.392   4.956
 3534TIP3   OH210565   3.145   0.358   0.823
 3534TIP3    H110566   3.163   0.368   0.916
 3534TIP3    H210567   3.049   0.361   0.816
 3535TIP3   OH210568   6.134   1.476   0.301
 3535TIP3    H110569   6.191   1.509   0.231
 3535TIP3    H210570   6.074   1.547   0.320
 3536TIP3   OH210571   4.342   5.728   1.695
 3536TIP3    H110572   4.376   5.706   1.781
 3536TIP3    H210573   4.310   5.644   1.661
 3537TIP3   OH210574   5.246   0.094   1.973
 3537TIP3    H110575   5.168   0.075   1.922
 3537TIP3    H210576   5.240   0.036   2.049
 3538TIP3   OH210577   4.243   6.018   4.644
 3538TIP3    H110578   4.257   5.929   4.676
 3538TIP3    H210579   4.156   6.042   4.676
 3539TIP3   OH210580   1.295   4.303   2.045
 3539TIP3    H110581   1.255   4.347   2.120
 3539TIP3    H210582   1.226   4.244   2.013
 3540TIP3   OH210583   3.123   0.425   5.780
 3540TIP3    H110584   3.143   0.513   5.749
 3540TIP3    H210585   3.106   0.375   5.701
 3541TIP3   OH210586   2.813   1.238   2.250
 3541TIP3    H110587   2.833   1.180   2.176
 3541TIP3    H210588   2.811   1.326   2.211
 3542TIP3   OH210589   6.652   2.374   4.606
 3542TIP3    H110590   6.665   2.373   4.701
 3542TIP3    H210591   6.678   2.286   4.578
 3543TIP3   OH210592   1.857   0.436   5.435
 3543TIP3    H110593   1.871   0.528   5.458
 3543TIP3    H210594   1.772   0.414   5.473
 3544TIP3   OH210595   5.857   3.557   3.597
 3544TIP3    H110596   5.790   3.499   3.633
 3544TIP3    H210597   5.932   3.547   3.656
 3545TIP3   OH210598   2.814   5.787   1.634
 3545TIP3    H110599   2.899   5.791   1.677
 3545TIP3    H210600   2.834   5.775   1.541
 3546TIP3   OH210601   5.971   4.354   5.685
 3546TIP3    H110602   5.981   4.269   5.643
 3546TIP3    H210603   5.979   4.417   5.614
 3547TIP3   OH210604   6.097   5.971   1.171
 3547TIP3    H110605   6.034   5.899   1.173
 3547TIP3    H210606   6.092   6.005   1.082
 3548TIP3   OH210607   4.028   3.501   0.329
 3548TIP3    H110608   3.936   3.498   0.302
 3548TIP3    H210609   4.047   3.595   0.338
 3549TIP3   OH210610   5.256   1.890   5.496
 3549TIP3    H110611   5.314   1.890   5.420
 3549TIP3    H210612   5.297   1.830   5.558
 3550TIP3   OH210613   3.436   0.644   5.804
 3550TIP3    H110614   3.489   0.696   5.743
 3550TIP3    H210615   3.362   0.614   5.751
 3551TIP3   OH210616   3.748   0.629   5.536
 3551TIP3    H110617   3.785   0.546   5.564
 3551TIP3    H210618   3.810   0.695   5.567
 3552TIP3   OH210619   2.638   1.174   2.496
 3552TIP3    H110620   2.700   1.146   2.428
 3552TIP3    H210621   2.687   1.237   2.549
 3553TIP3   OH210622   5.309   4.409   2.171
 3553TIP3    H110623   5.299   4.328   2.121
 3553TIP3    H210624   5.268   4.390   2.256
 3554TIP3   OH210625   2.172   5.738   3.975
 3554TIP3    H110626   2.205   5.648   3.979
 3554TIP3    H210627   2.118   5.748   4.053
 3555TIP3   OH210628   2.899   2.949   5.260
 3555TIP3    H110629   2.961   2.904   5.318
 3555TIP3    H210630   2.886   2.888   5.187
 3556TIP3   OH210631   2.862   2.838   4.684
 3556TIP3    H110632   2.839   2.879   4.601
 3556TIP3    H210633   2.920   2.901   4.727
 3557TIP3   OH210634   0.703   2.871   2.745
 3557TIP3    H110635   0.732   2.804   2.806
 3557TIP3    H210636   0.610   2.854   2.732
 3558TIP3   OH210637   3.248   5.830   5.596
 3558TIP3    H110638   3.313   5.831   5.667
 3558TIP3    H210639   3.285   5.771   5.530
 3559TIP3   OH210640   6.078   5.008   5.398
 3559TIP3    H110641   6.136   5.060   5.341
 3559TIP3    H210642   5.990   5.031   5.369
 3560TIP3   OH210643   5.685   6.755   2.533
 3560TIP3    H110644   5.669   6.748   2.628
 3560TIP3    H210645   5.608   6.714   2.494
 3561TIP3   OH210646   2.266   4.372   1.355
 3561TIP3    H110647   2.258   4.305   1.422
 3561TIP3    H210648   2.176   4.389   1.326
 3562TIP3   OH210649   5.473   2.297   2.720
 3562TIP3    H110650   5.453   2.349   2.643
 3562TIP3    H210651   5.556   2.254   2.699
 3563TIP3   OH210652   1.359   6.196   4.854
 3563TIP3    H110653   1.359   6.101   4.858
 3563TIP3    H210654   1.296   6.223   4.920
 3564TIP3   OH210655   2.731   1.551   3.131
 3564TIP3    H110656   2.820   1.533   3.161
 3564TIP3    H210657   2.695   1.464   3.110
 3565TIP3   OH210658   5.630   4.805   3.897
 3565TIP3    H110659   5.589   4.718   3.907
 3565TIP3    H210660   5.699   4.792   3.833
 3566TIP3   OH210661   3.299   6.466   1.549
 3566TIP3    H110662   3.274   6.544   1.499
 3566TIP3    H210663   3.231   6.401   1.528
 3567TIP3   OH210664   3.647   0.929   1.117
 3567TIP3    H110665   3.677   0.887   1.198
 3567TIP3    H210666   3.727   0.954   1.072
 3568TIP3   OH210667   0.649   5.419   4.495
 3568TIP3    H110668   0.608   5.359   4.557
 3568TIP3    H210669   0.600   5.407   4.413
 3569TIP3   OH210670   2.905   3.732   4.113
 3569TIP3    H110671   2.882   3.713   4.203
 3569TIP3    H210672   2.965   3.806   4.119
 3570TIP3   OH210673   4.698   1.671   2.174
 3570TIP3    H110674   4.750   1.656   2.253
 3570TIP3    H210675   4.762   1.667   2.103
 3571TIP3   OH210676   2.836   6.646   3.536
 3571TIP3    H110677   2.860   6.735   3.513
 3571TIP3    H210678   2.746   6.636   3.505
 3572TIP3   OH210679   3.774   6.646   1.260
 3572TIP3    H110680   3.859   6.652   1.304
 3572TIP3    H210681   3.794   6.619   1.171
 3573TIP3   OH210682   7.025   0.628   5.565
 3573TIP3    H110683   6.942   0.594   5.530
 3573TIP3    H210684   7.035   0.714   5.525
 3574TIP3   OH210685   0.732   2.602   3.616
 3574TIP3    H110686   0.749   2.694   3.639
 3574TIP3    H210687   0.710   2.560   3.699
 3575TIP3   OH210688   1.866   0.122   4.177
 3575TIP3    H110689   1.810   0.045   4.189
 3575TIP3    H210690   1.954   0.092   4.201
 3576TIP3   OH210691   2.150   6.314   4.896
 3576TIP3    H110692   2.054   6.314   4.892
 3576TIP3    H210693   2.177   6.287   4.809
 3577TIP3   OH210694   0.338   1.570   1.484
 3577TIP3    H110695   0.311   1.534   1.400
 3577TIP3    H210696   0.365   1.494   1.535
 3578TIP3   OH210697   5.090   4.552   1.739
 3578TIP3    H110698   5.129   4.467   1.718
 3578TIP3    H210699   4.998   4.531   1.758
 3579TIP3   OH210700   3.882   1.251   3.644
 3579TIP3    H110701   3.865   1.317   3.712
 3579TIP3    H210702   3.975   1.258   3.625
 3580TIP3   OH210703   1.431   2.149   1.647
 3580TIP3    H110704   1.498   2.208   1.681
 3580TIP3    H210705   1.424   2.173   1.554
 3581TIP3   OH210706   5.132   0.945   5.847
 3581TIP3    H110707   5.150   0.958   5.941
 3581TIP3    H210708   5.215   0.916   5.811
 3582TIP3   OH210709   0.191   1.242   4.310
 3582TIP3    H110710   0.114   1.235   4.253
 3582TIP3    H210711   0.207   1.152   4.340
 3583TIP3   OH210712   3.905   0.539   3.234
 3583TIP3    H110713   3.938   0.450   3.222
 3583TIP3    H210714   3.843   0.531   3.307
 3584TIP3   OH210715   5.061   1.868   0.538
 3584TIP3    H110716   5.055   1.945   0.482
 3584TIP3    H210717   5.119   1.894   0.609
 3585TIP3   OH210718   4.919   1.582   5.292
 3585TIP3    H110719   4.949   1.656   5.345
 3585TIP3    H210720   4.823   1.586   5.298
 3586TIP3   OH210721   1.171   1.204   0.753
 3586TIP3    H110722   1.239   1.219   0.687
 3586TIP3    H210723   1.165   1.287   0.800
 3587TIP3   OH210724   3.501   1.510   3.162
 3587TIP3    H110725   3.538   1.491   3.249
 3587TIP3    H210726   3.447   1.588   3.176
 3588TIP3   OH210727   1.381   6.611   0.626
 3588TIP3    H110728   1.449   6.652   0.572
 3588TIP3    H210729   1.317   6.579   0.563
 3589TIP3   OH210730   0.613   4.252   1.410
 3589TIP3    H110731   0.669   4.203   1.470
 3589TIP3    H210732   0.545   4.190   1.384
 3590TIP3   OH210733   2.335   0.746   0.189
 3590TIP3    H110734   2.373   0.658   0.199
 3590TIP3    H210735   2.340   0.785   0.276
 3591TIP3   OH210736   0.361   4.589   1.504
 3591TIP3    H110737   0.445   4.583   1.458
 3591TIP3    H210738   0.297   4.556   1.440
 3592TIP3   OH210739   7.198   3.198   2.904
 3592TIP3    H110740   7.141   3.270   2.930
 3592TIP3    H210741   7.210   3.210   2.809
 3593TIP3   OH210742   0.946   3.904   3.250
 3593TIP3    H110743   0.857   3.919   3.281
 3593TIP3    H210744   0.942   3.820   3.205
 3594TIP3   OH210745   5.132   2.000   0.754
 3594TIP3    H110746   5.182   2.016   0.834
 3594TIP3    H210747   5.072   2.075   0.748
 3595TIP3   OH210748   3.751   6.478   0.270
 3595TIP3    H110749   3.821   6.436   0.320
 3595TIP3    H210750   3.746   6.567   0.304
 3596TIP3   OH210751   3.278   1.972   5.362
 3596TIP3    H110752   3.214   1.920   5.410
 3596TIP3    H210753   3.231   2.002   5.284
 3597TIP3   OH210754   6.354   1.220   4.611
 3597TIP3    H110755   6.363   1.305   4.568
 3597TIP3    H210756   6.260   1.211   4.628
 3598TIP3   OH210757   6.551   2.187   0.998
 3598TIP3    H110758   6.601   2.185   0.917
 3598TIP3    H210759   6.498   2.266   0.992
 3599TIP3   OH210760   1.043   6.124   4.934
 3599TIP3    H110761   1.068   6.214   4.958
 3599TIP3    H210762   1.089   6.069   4.997
 3600TIP3   OH210763   0.383   6.694   3.986
 3600TIP3    H110764   0.315   6.687   4.053
 3600TIP3    H210765   0.460   6.654   4.026
 3601TIP3   OH210766   4.996   4.280   1.165
 3601TIP3    H110767   4.930   4.305   1.101
 3601TIP3    H210768   5.071   4.336   1.146
 3602TIP3   OH210769   5.394   6.198   1.617
 3602TIP3    H110770   5.393   6.214   1.712
 3602TIP3    H210771   5.487   6.186   1.596
 3603TIP3   OH210772   4.225   0.391   2.892
 3603TIP3    H110773   4.269   0.306   2.890
 3603TIP3    H210774   4.149   0.377   2.948
 3604TIP3   OH210775   1.235   5.016   0.758
 3604TIP3    H110776   1.152   5.057   0.780
 3604TIP3    H210777   1.212   4.928   0.728
 3605TIP3   OH210778   6.987   0.942   0.325
 3605TIP3    H110779   6.908   0.887   0.315
 3605TIP3    H210780   7.057   0.888   0.289
 3606TIP3   OH210781   6.075   0.394   4.288
 3606TIP3    H110782   6.167   0.382   4.313
 3606TIP3    H210783   6.037   0.444   4.360
 3607TIP3   OH210784   2.542   4.198   0.530
 3607TIP3    H110785   2.617   4.157   0.487
 3607TIP3    H210786   2.546   4.290   0.501
 3608TIP3   OH210787   1.972   4.043   1.169
 3608TIP3    H110788   1.911   4.117   1.173
 3608TIP3    H210789   2.023   4.059   1.089
 3609TIP3   OH210790   2.379   4.096   5.153
 3609TIP3    H110791   2.401   4.008   5.122
 3609TIP3    H210792   2.448   4.117   5.216
 3610TIP3   OH210793   3.257   0.276   3.808
 3610TIP3    H110794   3.328   0.217   3.835
 3610TIP3    H210795   3.301   0.348   3.764
 3611TIP3   OH210796   3.623   3.491   3.331
 3611TIP3    H110797   3.603   3.579   3.300
 3611TIP3    H210798   3.706   3.469   3.289
 3612TIP3   OH210799   0.233   3.332   5.199
 3612TIP3    H110800   0.265   3.258   5.148
 3612TIP3    H210801   0.138   3.321   5.202
 3613TIP3   OH210802   3.959   5.181   0.150
 3613TIP3    H110803   4.003   5.255   0.107
 3613TIP3    H210804   3.886   5.160   0.091
 3614TIP3   OH210805   3.255   3.065   2.760
 3614TIP3    H110806   3.336   3.115   2.752
 3614TIP3    H210807   3.213   3.099   2.839
 3615TIP3   OH210808   5.020   3.583   1.108
 3615TIP3    H110809   5.019   3.621   1.196
 3615TIP3    H210810   5.061   3.650   1.054
 3616TIP3   OH210811   1.808   3.781   3.201
 3616TIP3    H110812   1.838   3.868   3.227
 3616TIP3    H210813   1.862   3.720   3.251
 3617TIP3   OH210814   7.208   1.063   3.888
 3617TIP3    H110815   7.204   1.021   3.974
 3617TIP3    H210816   7.171   1.150   3.901
 3618TIP3   OH210817   4.236   1.149   3.915
 3618TIP3    H110818   4.227   1.060   3.949
 3618TIP3    H210819   4.236   1.140   3.820
 3619TIP3   OH210820   1.747   2.885   0.731
 3619TIP3    H110821   1.675   2.923   0.780
 3619TIP3    H210822   1.824   2.934   0.760
 3620TIP3   OH210823   2.288   2.004   5.665
 3620TIP3    H110824   2.359   2.064   5.641
 3620TIP3    H210825   2.245   1.984   5.582
 3621TIP3   OH210826   1.808   4.274   4.644
 3621TIP3    H110827   1.896   4.237   4.656
 3621TIP3    H210828   1.750   4.211   4.687
 3622TIP3   OH210829   5.943   6.229   0.269
 3622TIP3    H110830   6.035   6.221   0.294
 3622TIP3    H210831   5.901   6.268   0.345
 3623TIP3   OH210832   6.146   4.011   4.848
 3623TIP3    H110833   6.226   4.063   4.857
 3623TIP3    H210834   6.098   4.054   4.777
 3624TIP3   OH210835   5.901   1.886   5.203
 3624TIP3    H110836   5.887   1.799   5.165
 3624TIP3    H210837   5.825   1.937   5.175
 3625TIP3   OH210838   2.067   1.191   0.739
 3625TIP3    H110839   2.141   1.138   0.710
 3625TIP3    H210840   2.017   1.134   0.797
 3626TIP3   OH210841   4.755   6.058   5.048
 3626TIP3    H110842   4.848   6.078   5.042
 3626TIP3    H210843   4.711   6.139   5.022
 3627TIP3   OH210844   0.374   3.448   4.106
 3627TIP3    H110845   0.291   3.495   4.099
 3627TIP3    H210846   0.407   3.470   4.193
 3628TIP3   OH210847   1.174   3.465   1.043
 3628TIP3    H110848   1.265   3.490   1.025
 3628TIP3    H210849   1.149   3.517   1.119
 3629TIP3   OH210850   2.688   5.541   4.758
 3629TIP3    H110851   2.709   5.465   4.813
 3629TIP3    H210852   2.598   5.527   4.730
 3630TIP3   OH210853   4.670   4.339   2.837
 3630TIP3    H110854   4.693   4.277   2.906
 3630TIP3    H210855   4.687   4.292   2.756
 3631TIP3   OH210856   5.820   4.778   4.094
 3631TIP3    H110857   5.770   4.725   4.156
 3631TIP3    H210858   5.767   4.777   4.014
 3632TIP3   OH210859   6.811   1.128   3.855
 3632TIP3    H110860   6.718   1.151   3.866
 3632TIP3    H210861   6.824   1.054   3.914
 3633TIP3   OH210862   6.800   3.802   2.922
 3633TIP3    H110863   6.859   3.852   2.866
 3633TIP3    H210864   6.827   3.824   3.011
 3634TIP3   OH210865   0.583   3.064   1.142
 3634TIP3    H110866   0.604   3.064   1.048
 3634TIP3    H210867   0.654   3.114   1.182
 3635TIP3   OH210868   6.257   2.354   0.074
 3635TIP3    H110869   6.308   2.295   0.017
 3635TIP3    H210870   6.319   2.378   0.144
 3636TIP3   OH210871   3.324   2.051   1.699
 3636TIP3    H110872   3.299   1.985   1.635
 3636TIP3    H210873   3.255   2.117   1.694
 3637TIP3   OH210874   2.266   3.663   3.722
 3637TIP3    H110875   2.226   3.665   3.635
 3637TIP3    H210876   2.343   3.720   3.714
 3638TIP3   OH210877   3.720   6.431   2.502
 3638TIP3    H110878   3.780   6.415   2.575
 3638TIP3    H210879   3.681   6.345   2.484
 3639TIP3   OH210880   7.159   4.182   1.365
 3639TIP3    H110881   7.195   4.257   1.411
 3639TIP3    H210882   7.070   4.209   1.340
 3640TIP3   OH210883   2.643   2.447   2.777
 3640TIP3    H110884   2.593   2.475   2.700
 3640TIP3    H210885   2.598   2.489   2.850
 3641TIP3   OH210886   0.203   1.987   5.676
 3641TIP3    H110887   0.220   2.080   5.662
 3641TIP3    H210888   0.113   1.974   5.646
 3642TIP3   OH210889   1.668   6.728   2.010
 3642TIP3    H110890   1.705   6.651   1.965
 3642TIP3    H210891   1.707   6.726   2.097
 3643TIP3   OH210892   2.065   6.682   3.628
 3643TIP3    H110893   2.079   6.616   3.561
 3643TIP3    H210894   2.142   6.677   3.684
 3644TIP3   OH210895   4.178   6.709   0.417
 3644TIP3    H110896   4.211   6.683   0.504
 3644TIP3    H210897   4.133   6.793   0.433
 3645TIP3   OH210898   2.896   5.251   2.252
 3645TIP3    H110899   2.845   5.242   2.172
 3645TIP3    H210900   2.861   5.184   2.311
 3646TIP3   OH210901   2.259   0.973   0.678
 3646TIP3    H110902   2.206   0.901   0.645
 3646TIP3    H210903   2.273   0.953   0.771
 3647TIP3   OH210904   1.149   5.094   2.262
 3647TIP3    H110905   1.123   5.009   2.225
 3647TIP3    H210906   1.111   5.094   2.350
 3648TIP3   OH210907   6.538   3.463   4.614
 3648TIP3    H110908   6.465   3.403   4.598
 3648TIP3    H210909   6.614   3.406   4.627
 3649TIP3   OH210910   7.101   0.930   3.574
 3649TIP3    H110911   7.082   0.935   3.668
 3649TIP3    H210912   7.197   0.931   3.570
 3650TIP3   OH210913   4.894   0.860   3.263
 3650TIP3    H110914   4.898   0.956   3.261
 3650TIP3    H210915   4.800   0.841   3.272
 3651TIP3   OH210916   4.056   4.665   0.544
 3651TIP3    H110917   4.005   4.589   0.571
 3651TIP3    H210918   4.099   4.638   0.462
 3652TIP3   OH210919   6.769   4.765   5.653
 3652TIP3    H110920   6.716   4.813   5.590
 3652TIP3    H210921   6.780   4.678   5.615
 3653TIP3   OH210922   0.610   5.404   0.751
 3653TIP3    H110923   0.516   5.417   0.767
 3653TIP3    H210924   0.614   5.364   0.664
 3654TIP3   OH210925   5.089   2.220   4.419
 3654TIP3    H110926   5.078   2.286   4.351
 3654TIP3    H210927   5.032   2.148   4.392
 3655TIP3   OH210928   4.017   6.093   3.202
 3655TIP3    H110929   4.017   6.000   3.224
 3655TIP3    H210930   4.072   6.134   3.268
 3656TIP3   OH210931   5.612   6.262   3.600
 3656TIP3    H110932   5.577   6.175   3.580
 3656TIP3    H210933   5.699   6.245   3.635
 3657TIP3   OH210934   5.628   0.673   5.551
 3657TIP3    H110935   5.681   0.594   5.549
 3657TIP3    H210936   5.573   0.663   5.629
 3658TIP3   OH210937   0.979   5.080   0.174
 3658TIP3    H110938   0.989   5.011   0.240
 3658TIP3    H210939   0.996   5.036   0.091
 3659TIP3   OH210940   3.390   3.080   0.779
 3659TIP3    H110941   3.441   3.023   0.722
 3659TIP3    H210942   3.453   3.145   0.811
 3660TIP3   OH210943   0.078   6.626   1.115
 3660TIP3    H110944   0.153   6.574   1.086
 3660TIP3    H210945   0.036   6.656   1.034
 3661TIP3   OH210946   4.305   3.945   5.447
 3661TIP3    H110947   4.370   3.999   5.491
 3661TIP3    H210948   4.343   3.927   5.361
 3662TIP3   OH210949   2.865   6.271   0.161
 3662TIP3    H110950   2.958   6.256   0.146
 3662TIP3    H210951   2.861   6.312   0.247
 3663TIP3   OH210952   4.095   1.631   3.843
 3663TIP3    H110953   4.189   1.612   3.847
 3663TIP3    H210954   4.082   1.668   3.756
 3664TIP3   OH210955   5.882   3.381   0.135
 3664TIP3    H110956   5.810   3.318   0.142
 3664TIP3    H210957   5.884   3.404   0.042
 3665TIP3   OH210958   4.871   5.931   0.720
 3665TIP3    H110959   4.912   6.008   0.759
 3665TIP3    H210960   4.941   5.867   0.713
 3666TIP3   OH210961   6.781   5.500   2.172
 3666TIP3    H110962   6.725   5.499   2.250
 3666TIP3    H210963   6.856   5.445   2.196
 3667TIP3   OH210964   0.059   1.820   0.715
 3667TIP3    H110965   0.100   1.739   0.687
 3667TIP3    H210966   0.062   1.816   0.811
 3668TIP3   OH210967   1.450   1.509   5.800
 3668TIP3    H110968   1.375   1.472   5.846
 3668TIP3    H210969   1.431   1.603   5.795
 3669TIP3   OH210970   2.758   1.109   0.713
 3669TIP3    H110971   2.698   1.156   0.771
 3669TIP3    H210972   2.836   1.095   0.766
 3670TIP3   OH210973   4.299   2.726   3.266
 3670TIP3    H110974   4.260   2.808   3.237
 3670TIP3    H210975   4.370   2.752   3.325
 3671TIP3   OH210976   2.282   5.491   3.980
 3671TIP3    H110977   2.294   5.399   3.954
 3671TIP3    H210978   2.367   5.518   4.012
 3672TIP3   OH210979   2.368   4.688   0.525
 3672TIP3    H110980   2.318   4.770   0.520
 3672TIP3    H210981   2.445   4.711   0.577
 3673TIP3   OH210982   5.659   1.778   2.432
 3673TIP3    H110983   5.625   1.850   2.485
 3673TIP3    H210984   5.597   1.768   2.360
 3674TIP3   OH210985   0.716   6.608   0.275
 3674TIP3    H110986   0.783   6.558   0.228
 3674TIP3    H210987   0.699   6.557   0.355
 3675TIP3   OH210988   4.715   0.579   4.887
 3675TIP3    H110989   4.683   0.492   4.866
 3675TIP3    H210990   4.801   0.565   4.926
 3676TIP3   OH210991   3.870   5.522   5.848
 3676TIP3    H110992   3.793   5.499   5.796
 3676TIP3    H210993   3.835   5.566   5.926
 3677TIP3   OH210994   1.608   3.873   3.428
 3677TIP3    H110995   1.661   3.873   3.348
 3677TIP3    H210996   1.522   3.906   3.399
 3678TIP3   OH210997   0.812   5.187   1.011
 3678TIP3    H110998   0.837   5.279   1.023
 3678TIP3    H210999   0.726   5.180   1.052
 3679TIP3   OH211000   5.013   5.289   1.425
 3679TIP3    H111001   4.920   5.293   1.450
 3679TIP3    H211002   5.059   5.265   1.505
 3680TIP3   OH211003   3.403  -0.006   3.131
 3680TIP3    H111004   3.325  -0.046   3.094
 3680TIP3    H211005   3.372   0.073   3.176
 3681TIP3   OH211006   1.941   2.142   0.696
 3681TIP3    H111007   1.941   2.055   0.737
 3681TIP3    H211008   1.849   2.158   0.676
 3682TIP3   OH211009   0.904   4.438   3.846
 3682TIP3    H111010   0.870   4.495   3.777
 3682TIP3    H211011   0.826   4.407   3.892
 3683TIP3   OH211012   0.331   5.937   1.508
 3683TIP3    H111013   0.318   5.995   1.583
 3683TIP3    H211014   0.424   5.944   1.488
 3684TIP3   OH211015   4.313   4.794   4.723
 3684TIP3    H111016   4.238   4.853   4.731
 3684TIP3    H211017   4.285   4.713   4.767
 3685TIP3   OH211018   6.488   5.227   0.169
 3685TIP3    H111019   6.505   5.183   0.252
 3685TIP3    H211020   6.394   5.218   0.155
 3686TIP3   OH211021   6.854   6.200   0.256
 3686TIP3    H111022   6.857   6.166   0.166
 3686TIP3    H211023   6.763   6.224   0.270
 3687TIP3   OH211024   4.454   4.447   2.958
 3687TIP3    H111025   4.434   4.364   3.002
 3687TIP3    H211026   4.523   4.424   2.896
 3688TIP3   OH211027   3.086   1.945   0.913
 3688TIP3    H111028   3.138   2.001   0.971
 3688TIP3    H211029   3.056   2.003   0.844
 3689TIP3   OH211030   3.242   6.575   3.961
 3689TIP3    H111031   3.158   6.554   3.921
 3689TIP3    H211032   3.281   6.490   3.980
 3690TIP3   OH211033   1.377   4.103   5.721
 3690TIP3    H111034   1.402   4.085   5.630
 3690TIP3    H211035   1.300   4.047   5.736
 3691TIP3   OH211036   3.023   3.394   3.408
 3691TIP3    H111037   2.989   3.436   3.487
 3691TIP3    H211038   3.070   3.464   3.362
 3692TIP3   OH211039   7.012   2.558   0.745
 3692TIP3    H111040   6.928   2.559   0.699
 3692TIP3    H211041   7.012   2.639   0.795
 3693TIP3   OH211042   6.691   3.479   5.306
 3693TIP3    H111043   6.695   3.401   5.361
 3693TIP3    H211044   6.666   3.549   5.366
 3694TIP3   OH211045   5.680   4.845   1.068
 3694TIP3    H111046   5.743   4.887   1.128
 3694TIP3    H211047   5.606   4.905   1.066
 3695TIP3   OH211048   2.572   4.791   4.324
 3695TIP3    H111049   2.483   4.756   4.323
 3695TIP3    H211050   2.605   4.775   4.236
 3696TIP3   OH211051   4.528   1.937   5.212
 3696TIP3    H111052   4.551   1.988   5.134
 3696TIP3    H211053   4.513   2.002   5.280
 3697TIP3   OH211054   5.247   5.947   3.970
 3697TIP3    H111055   5.315   5.991   3.918
 3697TIP3    H211056   5.212   6.017   4.026
 3698TIP3   OH211057   6.339   1.873   5.334
 3698TIP3    H111058   6.380   1.896   5.417
 3698TIP3    H211059   6.248   1.902   5.343
 3699TIP3   OH211060   0.492   0.734   1.286
 3699TIP3    H111061   0.471   0.761   1.376
 3699TIP3    H211062   0.567   0.789   1.262
 3700TIP3   OH211063   5.359   1.701   5.288
 3700TIP3    H111064   5.317   1.618   5.267
 3700TIP3    H211065   5.400   1.728   5.207
 3701TIP3   OH211066   4.271   1.850   4.061
 3701TIP3    H111067   4.183   1.814   4.067
 3701TIP3    H211068   4.317   1.816   4.137
 3702TIP3   OH211069   1.126   6.010   3.364
 3702TIP3    H111070   1.178   5.938   3.328
 3702TIP3    H211071   1.097   5.978   3.449
 3703TIP3   OH211072   1.794   6.464   4.451
 3703TIP3    H111073   1.751   6.524   4.390
 3703TIP3    H211074   1.821   6.390   4.396
 3704TIP3   OH211075   0.170   3.679   4.468
 3704TIP3    H111076   0.176   3.758   4.414
 3704TIP3    H211077   0.095   3.631   4.432
 3705TIP3   OH211078   3.067   4.207   1.189
 3705TIP3    H111079   3.076   4.212   1.284
 3705TIP3    H211080   2.999   4.141   1.175
 3706TIP3   OH211081   5.079   0.366   3.162
 3706TIP3    H111082   5.098   0.438   3.102
 3706TIP3    H211083   5.092   0.287   3.109
 3707TIP3   OH211084   1.148   1.552   4.570
 3707TIP3    H111085   1.127   1.471   4.524
 3707TIP3    H211086   1.130   1.532   4.662
 3708TIP3   OH211087   3.781   4.389   0.294
 3708TIP3    H111088   3.848   4.434   0.242
 3708TIP3    H211089   3.775   4.302   0.257
 3709TIP3   OH211090   0.765  -0.007   4.387
 3709TIP3    H111091   0.743  -0.033   4.297
 3709TIP3    H211092   0.748   0.087   4.389
 3710TIP3   OH211093   0.838   6.227   5.208
 3710TIP3    H111094   0.798   6.302   5.165
 3710TIP3    H211095   0.826   6.243   5.302
 3711TIP3   OH211096   5.455   2.156   0.823
 3711TIP3    H111097   5.392   2.102   0.871
 3711TIP3    H211098   5.507   2.093   0.774
 3712TIP3   OH211099   6.494   5.529   3.981
 3712TIP3    H111100   6.457   5.539   3.894
 3712TIP3    H211101   6.420   5.500   4.035
 3713TIP3   OH211102   4.935   4.534   2.129
 3713TIP3    H111103   4.971   4.540   2.217
 3713TIP3    H211104   4.879   4.456   2.132
 3714TIP3   OH211105   2.919   5.485   0.648
 3714TIP3    H111106   2.962   5.565   0.615
 3714TIP3    H211107   2.891   5.439   0.569
 3715TIP3   OH211108   5.117   2.057   4.750
 3715TIP3    H111109   5.076   2.141   4.729
 3715TIP3    H211110   5.047   1.993   4.736
 3716TIP3   OH211111   2.368   4.896   3.756
 3716TIP3    H111112   2.418   4.967   3.796
 3716TIP3    H211113   2.296   4.878   3.817
 3717TIP3   OH211114   4.387   2.691   2.124
 3717TIP3    H111115   4.464   2.635   2.136
 3717TIP3    H211116   4.420   2.780   2.138
 3718TIP3   OH211117   6.649   1.232   4.477
 3718TIP3    H111118   6.584   1.163   4.472
 3718TIP3    H211119   6.599   1.310   4.502
 3719TIP3   OH211120   4.894   0.725   2.735
 3719TIP3    H111121   4.807   0.752   2.704
 3719TIP3    H211122   4.954   0.764   2.672
 3720TIP3   OH211123   3.871   2.796   5.274
 3720TIP3    H111124   3.830   2.792   5.188
 3720TIP3    H211125   3.806   2.760   5.334
 3721TIP3   OH211126   2.612   4.708   4.719
 3721TIP3    H111127   2.526   4.699   4.758
 3721TIP3    H211128   2.624   4.802   4.706
 3722TIP3   OH211129   3.751   3.525   1.575
 3722TIP3    H111130   3.748   3.431   1.561
 3722TIP3    H211131   3.844   3.548   1.569
 3723TIP3   OH211132   4.472   2.803   4.681
 3723TIP3    H111133   4.429   2.884   4.653
 3723TIP3    H211134   4.485   2.754   4.600
 3724TIP3   OH211135   5.798   1.281   0.295
 3724TIP3    H111136   5.769   1.210   0.353
 3724TIP3    H211137   5.887   1.301   0.324
 3725TIP3   OH211138   2.820   3.222   3.504
 3725TIP3    H111139   2.875   3.207   3.581
 3725TIP3    H211140   2.882   3.244   3.435
 3726TIP3   OH211141   2.658   2.772   5.427
 3726TIP3    H111142   2.663   2.676   5.424
 3726TIP3    H211143   2.746   2.801   5.404
 3727TIP3   OH211144   5.067   0.139   0.572
 3727TIP3    H111145   5.010   0.214   0.588
 3727TIP3    H211146   5.010   0.063   0.582
 3728TIP3   OH211147   5.795   1.972   1.786
 3728TIP3    H111148   5.725   1.908   1.775
 3728TIP3    H211149   5.863   1.925   1.834
 3729TIP3   OH211150   6.196   2.471   5.584
 3729TIP3    H111151   6.114   2.441   5.622
 3729TIP3    H211152   6.264   2.427   5.634
 3730TIP3   OH211153   3.065   3.814   3.187
 3730TIP3    H111154   3.119   3.871   3.131
 3730TIP3    H211155   3.043   3.740   3.130
 3731TIP3   OH211156   1.807   4.020   1.956
 3731TIP3    H111157   1.809   4.031   1.861
 3731TIP3    H211158   1.752   3.944   1.970
 3732TIP3   OH211159   1.427   5.521   4.064
 3732TIP3    H111160   1.484   5.567   4.126
 3732TIP3    H211161   1.425   5.576   3.986
 3733TIP3   OH211162   3.951   6.435   0.441
 3733TIP3    H111163   4.030   6.399   0.482
 3733TIP3    H211164   3.970   6.528   0.430
 3734TIP3   OH211165   3.869   4.919   0.248
 3734TIP3    H111166   3.922   4.957   0.318
 3734TIP3    H211167   3.859   4.991   0.184
 3735TIP3   OH211168   1.836   2.813   5.850
 3735TIP3    H111169   1.816   2.865   5.773
 3735TIP3    H211170   1.929   2.792   5.841
 3736TIP3   OH211171   4.876   3.219   2.482
 3736TIP3    H111172   4.838   3.139   2.517
 3736TIP3    H211173   4.896   3.198   2.391
 3737TIP3   OH211174   1.595   1.312   1.207
 3737TIP3    H111175   1.672   1.356   1.244
 3737TIP3    H211176   1.520   1.357   1.246
 3738TIP3   OH211177   4.864   1.244   5.902
 3738TIP3    H111178   4.815   1.165   5.928
 3738TIP3    H211179   4.883   1.231   5.810
 3739TIP3   OH211180   4.006   2.486   5.372
 3739TIP3    H111181   3.973   2.408   5.416
 3739TIP3    H211182   3.929   2.523   5.329
 3740TIP3   OH211183   5.021   1.439   3.696
 3740TIP3    H111184   5.071   1.359   3.716
 3740TIP3    H211185   5.068   1.479   3.623
 3741TIP3   OH211186   3.584   4.538   2.235
 3741TIP3    H111187   3.589   4.515   2.328
 3741TIP3    H211188   3.674   4.563   2.211
 3742TIP3   OH211189   2.547   3.746   2.063
 3742TIP3    H111190   2.528   3.652   2.063
 3742TIP3    H211191   2.534   3.773   2.154
 3743TIP3   OH211192   3.044   3.113   0.366
 3743TIP3    H111193   3.096   3.049   0.416
 3743TIP3    H211194   3.039   3.189   0.423
 3744TIP3   OH211195   3.782   5.863   3.514
 3744TIP3    H111196   3.702   5.812   3.510
 3744TIP3    H211197   3.777   5.911   3.597
 3745TIP3   OH211198   0.563   3.396   5.270
 3745TIP3    H111199   0.559   3.329   5.339
 3745TIP3    H211200   0.578   3.478   5.317
 3746TIP3   OH211201   0.823   1.300   4.642
 3746TIP3    H111202   0.821   1.276   4.735
 3746TIP3    H211203   0.733   1.288   4.612
 3747TIP3   OH211204   0.318   4.185   5.323
 3747TIP3    H111205   0.327   4.217   5.233
 3747TIP3    H211206   0.322   4.265   5.377
 3748TIP3   OH211207   6.082   0.633   0.185
 3748TIP3    H111208   6.151   0.700   0.184
 3748TIP3    H211209   6.118   0.562   0.132
 3749TIP3   OH211210   4.239   4.352   1.781
 3749TIP3    H111211   4.213   4.319   1.867
 3749TIP3    H211212   4.325   4.311   1.765
 3750TIP3   OH211213   4.778   5.060   0.950
 3750TIP3    H111214   4.819   5.060   1.037
 3750TIP3    H211215   4.695   5.105   0.963
 3751TIP3   OH211216   2.490   5.155   4.300
 3751TIP3    H111217   2.494   5.076   4.354
 3751TIP3    H211218   2.397   5.177   4.296
 3752TIP3   OH211219   5.555   2.646   0.513
 3752TIP3    H111220   5.580   2.555   0.501
 3752TIP3    H211221   5.637   2.692   0.531
 3753TIP3   OH211222   1.374   3.409   2.543
 3753TIP3    H111223   1.336   3.460   2.614
 3753TIP3    H211224   1.333   3.322   2.552
 3754TIP3   OH211225   0.582   2.662   3.157
 3754TIP3    H111226   0.590   2.577   3.199
 3754TIP3    H211227   0.649   2.716   3.199
 3755TIP3   OH211228   0.727   6.446   5.054
 3755TIP3    H111229   0.727   6.469   4.961
 3755TIP3    H211230   0.638   6.414   5.070
 3756TIP3   OH211231   2.400   3.758   1.418
 3756TIP3    H111232   2.408   3.828   1.483
 3756TIP3    H211233   2.318   3.776   1.374
 3757TIP3   OH211234   5.127   3.800   0.973
 3757TIP3    H111235   5.162   3.857   1.041
 3757TIP3    H211236   5.096   3.859   0.905
 3758TIP3   OH211237   5.906   0.466   2.636
 3758TIP3    H111238   5.839   0.517   2.590
 3758TIP3    H211239   5.989   0.496   2.600
 3759TIP3   OH211240   3.583   5.100   4.223
 3759TIP3    H111241   3.524   5.131   4.155
 3759TIP3    H211242   3.601   5.177   4.276
 3760TIP3   OH211243   0.526   4.798   2.087
 3760TIP3    H111244   0.590   4.867   2.073
 3760TIP3    H211245   0.520   4.752   2.003
 3761TIP3   OH211246   5.616   5.980   1.028
 3761TIP3    H111247   5.553   5.932   1.082
 3761TIP3    H211248   5.633   6.060   1.077
 3762TIP3   OH211249   1.195   0.564   3.658
 3762TIP3    H111250   1.137   0.494   3.687
 3762TIP3    H211251   1.211   0.546   3.566
 3763TIP3   OH211252   2.301   6.782   5.234
 3763TIP3    H111253   2.275   6.747   5.149
 3763TIP3    H211254   2.302   6.706   5.292
 3764TIP3   OH211255   0.175   2.656   5.565
 3764TIP3    H111256   0.228   2.728   5.530
 3764TIP3    H211257   0.176   2.670   5.660
 3765TIP3   OH211258   4.892   5.543   3.812
 3765TIP3    H111259   4.910   5.536   3.906
 3765TIP3    H211260   4.830   5.472   3.794
 3766TIP3   OH211261   1.011   4.670   1.360
 3766TIP3    H111262   1.048   4.723   1.290
 3766TIP3    H211263   0.918   4.692   1.361
 3767TIP3   OH211264   3.003   0.241   3.865
 3767TIP3    H111265   2.977   0.229   3.956
 3767TIP3    H211266   3.099   0.242   3.867
 3768TIP3   OH211267   6.475   1.819   2.701
 3768TIP3    H111268   6.481   1.729   2.669
 3768TIP3    H211269   6.434   1.812   2.787
 3769TIP3   OH211270   6.297   1.333   1.434
 3769TIP3    H111271   6.288   1.299   1.345
 3769TIP3    H211272   6.304   1.427   1.423
 3770TIP3   OH211273   6.470   3.336   0.818
 3770TIP3    H111274   6.520   3.417   0.804
 3770TIP3    H211275   6.522   3.268   0.775
 3771TIP3   OH211276   5.725   1.934  -0.033
 3771TIP3    H111277   5.712   1.973   0.054
 3771TIP3    H211278   5.735   1.841  -0.016
 3772TIP3   OH211279   6.549   1.201   3.938
 3772TIP3    H111280   6.512   1.151   3.865
 3772TIP3    H211281   6.513   1.158   4.016
 3773TIP3   OH211282   7.074   2.344   4.167
 3773TIP3    H111283   7.006   2.301   4.218
 3773TIP3    H211284   7.108   2.412   4.225
 3774TIP3   OH211285   6.963   1.734   3.272
 3774TIP3    H111286   6.951   1.745   3.178
 3774TIP3    H211287   6.878   1.753   3.310
 3775TIP3   OH211288   0.341   6.460   0.064
 3775TIP3    H111289   0.334   6.481   0.157
 3775TIP3    H211290   0.261   6.497   0.025
 3776TIP3   OH211291   3.237   0.917   2.484
 3776TIP3    H111292   3.177   0.844   2.471
 3776TIP3    H211293   3.290   0.890   2.559
 3777TIP3   OH211294   2.236   6.048   0.853
 3777TIP3    H111295   2.311   6.091   0.813
 3777TIP3    H211296   2.271   5.968   0.892
 3778TIP3   OH211297   2.054   4.449   1.604
 3778TIP3    H111298   2.138   4.404   1.615
 3778TIP3    H211299   2.001   4.420   1.678
 3779TIP3   OH211300   3.903   5.919   0.976
 3779TIP3    H111301   3.852   5.844   0.944
 3779TIP3    H211302   3.972   5.880   1.029
 3780TIP3   OH211303   5.713   0.966   2.829
 3780TIP3    H111304   5.735   0.874   2.840
 3780TIP3    H211305   5.796   1.012   2.836
 3781TIP3   OH211306   1.096   0.805   1.256
 3781TIP3    H111307   1.134   0.865   1.192
 3781TIP3    H211308   1.003   0.827   1.257
 3782TIP3   OH211309   6.659   1.754   1.267
 3782TIP3    H111310   6.564   1.743   1.260
 3782TIP3    H211311   6.678   1.735   1.358
 3783TIP3   OH211312   7.102   1.979   0.049
 3783TIP3    H111313   7.143   2.065   0.038
 3783TIP3    H211314   7.081   1.951  -0.040
 3784TIP3   OH211315   5.632   2.714   0.845
 3784TIP3    H111316   5.663   2.639   0.895
 3784TIP3    H211317   5.712   2.758   0.815
 3785TIP3   OH211318   5.566   6.603   4.660
 3785TIP3    H111319   5.518   6.661   4.601
 3785TIP3    H211320   5.644   6.653   4.684
 3786TIP3   OH211321   3.889   5.808   1.681
 3786TIP3    H111322   3.856   5.895   1.658
 3786TIP3    H211323   3.819   5.748   1.656
 3787TIP3   OH211324   6.311   6.068   3.857
 3787TIP3    H111325   6.353   6.040   3.938
 3787TIP3    H211326   6.366   6.140   3.826
 3788TIP3   OH211327   3.872   5.191   5.731
 3788TIP3    H111328   3.845   5.113   5.682
 3788TIP3    H211329   3.967   5.185   5.734
 3789TIP3   OH211330   2.795   3.860   4.493
 3789TIP3    H111331   2.837   3.943   4.470
 3789TIP3    H211332   2.761   3.874   4.582
 3790TIP3   OH211333   2.694   0.629   2.372
 3790TIP3    H111334   2.748   0.706   2.388
 3790TIP3    H211335   2.681   0.591   2.459
 3791TIP3   OH211336   0.855   1.684   0.524
 3791TIP3    H111337   0.802   1.606   0.510
 3791TIP3    H211338   0.815   1.751   0.468
 3792TIP3   OH211339   6.663   3.897   4.286
 3792TIP3    H111340   6.585   3.950   4.265
 3792TIP3    H211341   6.635   3.807   4.272
 3793TIP3   OH211342   6.137   3.934   0.906
 3793TIP3    H111343   6.165   3.856   0.953
 3793TIP3    H211344   6.041   3.933   0.912
 3794TIP3   OH211345   3.369   6.496   4.872
 3794TIP3    H111346   3.429   6.570   4.863
 3794TIP3    H211347   3.423   6.424   4.904
 3795TIP3   OH211348   3.874   4.037   3.073
 3795TIP3    H111349   3.804   4.017   3.010
 3795TIP3    H211350   3.879   4.133   3.073
 3796TIP3   OH211351   2.883   1.891   4.494
 3796TIP3    H111352   2.886   1.857   4.404
 3796TIP3    H211353   2.964   1.940   4.504
 3797TIP3   OH211354   6.451   4.305   3.602
 3797TIP3    H111355   6.474   4.339   3.515
 3797TIP3    H211356   6.485   4.371   3.663
 3798TIP3   OH211357   2.916   1.241   2.581
 3798TIP3    H111358   2.968   1.257   2.502
 3798TIP3    H211359   2.979   1.205   2.644
 3799TIP3   OH211360   1.198   1.160   5.200
 3799TIP3    H111361   1.243   1.076   5.202
 3799TIP3    H211362   1.268   1.225   5.193
 3800TIP3   OH211363   2.166   3.787   5.172
 3800TIP3    H111364   2.111   3.720   5.131
 3800TIP3    H211365   2.197   3.841   5.100
 3801TIP3   OH211366   4.007   4.326   2.213
 3801TIP3    H111367   3.974   4.414   2.195
 3801TIP3    H211368   3.975   4.305   2.301
 3802TIP3   OH211369   7.193   4.815   0.667
 3802TIP3    H111370   7.195   4.727   0.627
 3802TIP3    H211371   7.122   4.810   0.731
 3803TIP3   OH211372   2.141   5.728   2.867
 3803TIP3    H111373   2.064   5.762   2.822
 3803TIP3    H211374   2.168   5.652   2.815
 3804TIP3   OH211375   1.150   4.850   2.150
 3804TIP3    H111376   1.130   4.756   2.155
 3804TIP3    H211377   1.169   4.866   2.058
 3805TIP3   OH211378   1.496   3.092   2.391
 3805TIP3    H111379   1.508   3.018   2.450
 3805TIP3    H211380   1.528   3.060   2.306
 3806TIP3   OH211381   0.289   4.153   3.266
 3806TIP3    H111382   0.327   4.151   3.178
 3806TIP3    H211383   0.212   4.209   3.258
 3807TIP3   OH211384   5.442   0.493   4.927
 3807TIP3    H111385   5.387   0.535   4.994
 3807TIP3    H211386   5.417   0.401   4.931
 3808TIP3   OH211387   0.082   3.497   2.922
 3808TIP3    H111388   0.080   3.592   2.909
 3808TIP3    H211389  -0.011   3.472   2.926
 3809TIP3   OH211390   5.849   1.104   5.104
 3809TIP3    H111391   5.794   1.112   5.182
 3809TIP3    H211392   5.787   1.086   5.033
 3810TIP3   OH211393   1.399   0.514   0.794
 3810TIP3    H111394   1.487   0.549   0.784
 3810TIP3    H211395   1.385   0.507   0.888
 3811TIP3   OH211396   4.563   4.552   0.773
 3811TIP3    H111397   4.530   4.503   0.849
 3811TIP3    H211398   4.555   4.644   0.798
 3812TIP3   OH211399   1.139   0.822   5.218
 3812TIP3    H111400   1.147   0.756   5.287
 3812TIP3    H211401   1.117   0.773   5.139
 3813TIP3   OH211402   0.310   0.135   4.453
 3813TIP3    H111403   0.277   0.162   4.367
 3813TIP3    H211404   0.316   0.039   4.447
 3814TIP3   OH211405   5.108   4.774   5.685
 3814TIP3    H111406   5.187   4.732   5.718
 3814TIP3    H211407   5.037   4.716   5.713
 3815TIP3   OH211408   4.421   6.018   3.806
 3815TIP3    H111409   4.388   5.942   3.855
 3815TIP3    H211410   4.496   5.984   3.757
 3816TIP3   OH211411   6.424   1.335   0.170
 3816TIP3    H111412   6.396   1.301   0.255
 3816TIP3    H211413   6.349   1.318   0.113
 3817TIP3   OH211414   3.500   3.266   1.258
 3817TIP3    H111415   3.417   3.306   1.232
 3817TIP3    H211416   3.560   3.340   1.271
 3818TIP3   OH211417   6.197   2.880   3.327
 3818TIP3    H111418   6.214   2.916   3.240
 3818TIP3    H211419   6.263   2.920   3.383
 3819TIP3   OH211420   3.572   5.764   4.711
 3819TIP3    H111421   3.582   5.846   4.663
 3819TIP3    H211422   3.655   5.718   4.699
 3820TIP3   OH211423   4.971   3.846   2.073
 3820TIP3    H111424   4.908   3.792   2.120
 3820TIP3    H211425   5.056   3.824   2.113
 3821TIP3   OH211426   0.866   1.033   3.152
 3821TIP3    H111427   0.958   1.017   3.129
 3821TIP3    H211428   0.830   1.075   3.074
 3822TIP3   OH211429   3.785   0.240   1.023
 3822TIP3    H111430   3.761   0.179   1.094
 3822TIP3    H211431   3.710   0.237   0.964
 3823TIP3   OH211432   1.717   0.451   1.970
 3823TIP3    H111433   1.740   0.365   1.936
 3823TIP3    H211434   1.798   0.486   2.005
 3824TIP3   OH211435   3.933   1.889   1.291
 3824TIP3    H111436   3.867   1.893   1.361
 3824TIP3    H211437   4.007   1.937   1.326
 3825TIP3   OH211438   6.934   6.382   1.941
 3825TIP3    H111439   7.024   6.351   1.949
 3825TIP3    H211440   6.881   6.312   1.979
 3826TIP3   OH211441   4.585   0.712   3.878
 3826TIP3    H111442   4.632   0.794   3.893
 3826TIP3    H211443   4.612   0.684   3.791
 3827TIP3   OH211444   0.372   4.185   3.010
 3827TIP3    H111445   0.405   4.100   2.982
 3827TIP3    H211446   0.361   4.235   2.929
 3828TIP3   OH211447   2.459   2.143   5.481
 3828TIP3    H111448   2.548   2.173   5.500
 3828TIP3    H211449   2.437   2.185   5.398
 3829TIP3   OH211450   2.941   6.053   5.173
 3829TIP3    H111451   3.026   6.092   5.154
 3829TIP3    H211452   2.907   6.104   5.247
 3830TIP3   OH211453   1.870   2.155   2.219
 3830TIP3    H111454   1.963   2.161   2.195
 3830TIP3    H211455   1.833   2.238   2.188
 3831TIP3   OH211456   0.230   6.453   2.762
 3831TIP3    H111457   0.303   6.430   2.704
 3831TIP3    H211458   0.200   6.538   2.730
 3832TIP3   OH211459   5.107   1.309   4.336
 3832TIP3    H111460   5.163   1.235   4.359
 3832TIP3    H211461   5.151   1.351   4.263
 3833TIP3   OH211462   3.848   0.969   4.608
 3833TIP3    H111463   3.822   0.980   4.699
 3833TIP3    H211464   3.843   0.875   4.593
 3834TIP3   OH211465   4.232   2.413   0.016
 3834TIP3    H111466   4.325   2.398  -0.001
 3834TIP3    H211467   4.221   2.398   0.110
 3835TIP3   OH211468   3.633   0.859   5.793
 3835TIP3    H111469   3.669   0.772   5.807
 3835TIP3    H211470   3.710   0.916   5.788
 3836TIP3   OH211471   1.027   4.505   0.577
 3836TIP3    H111472   0.953   4.550   0.536
 3836TIP3    H211473   1.097   4.510   0.512
 3837TIP3   OH211474   5.547   3.685   2.925
 3837TIP3    H111475   5.504   3.621   2.867
 3837TIP3    H211476   5.634   3.695   2.888
 3838TIP3   OH211477   2.234   0.951   1.542
 3838TIP3    H111478   2.223   0.948   1.447
 3838TIP3    H211479   2.274   0.867   1.564
 3839TIP3   OH211480   5.065   3.116   0.247
 3839TIP3    H111481   5.096   3.182   0.185
 3839TIP3    H211482   5.047   3.039   0.193
 3840TIP3   OH211483   6.265   0.243   4.655
 3840TIP3    H111484   6.251   0.186   4.580
 3840TIP3    H211485   6.193   0.307   4.650
 3841TIP3   OH211486   5.844   1.388   0.881
 3841TIP3    H111487   5.909   1.359   0.945
 3841TIP3    H211488   5.893   1.402   0.801
 3842TIP3   OH211489   3.587   1.947   3.875
 3842TIP3    H111490   3.536   1.892   3.935
 3842TIP3    H211491   3.547   2.033   3.880
 3843TIP3   OH211492   3.525   4.866   3.346
 3843TIP3    H111493   3.552   4.785   3.302
 3843TIP3    H211494   3.430   4.870   3.331
 3844TIP3   OH211495   0.338   1.636   3.818
 3844TIP3    H111496   0.373   1.706   3.873
 3844TIP3    H211497   0.299   1.681   3.744
 3845TIP3   OH211498   3.569   1.522   4.873
 3845TIP3    H111499   3.563   1.546   4.780
 3845TIP3    H211500   3.641   1.575   4.907
 3846TIP3   OH211501   2.211   2.645   2.064
 3846TIP3    H111502   2.179   2.628   1.976
 3846TIP3    H211503   2.174   2.574   2.117
 3847TIP3   OH211504   0.540   4.724   2.442
 3847TIP3    H111505   0.584   4.791   2.494
 3847TIP3    H211506   0.560   4.747   2.351
 3848TIP3   OH211507   1.391   3.582   0.081
 3848TIP3    H111508   1.391   3.491   0.051
 3848TIP3    H211509   1.483   3.607   0.082
 3849TIP3   OH211510   0.898   3.194   4.147
 3849TIP3    H111511   0.915   3.288   4.141
 3849TIP3    H211512   0.859   3.182   4.233
 3850TIP3   OH211513   0.870   0.820   5.818
 3850TIP3    H111514   0.876   0.863   5.903
 3850TIP3    H211515   0.867   0.893   5.755
 3851TIP3   OH211516   3.554   3.435   0.993
 3851TIP3    H111517   3.594   3.357   0.954
 3851TIP3    H211518   3.592   3.440   1.081
 3852TIP3   OH211519   1.498   4.496   0.403
 3852TIP3    H111520   1.550   4.424   0.367
 3852TIP3    H211521   1.547   4.524   0.480
 3853TIP3   OH211522   1.009   2.324   2.976
 3853TIP3    H111523   1.088   2.303   2.927
 3853TIP3    H211524   0.992   2.247   3.030
 3854TIP3   OH211525   2.117   6.079   1.713
 3854TIP3    H111526   2.153   5.998   1.677
 3854TIP3    H211527   2.101   6.134   1.637
 3855TIP3   OH211528   3.084   1.016   2.286
 3855TIP3    H111529   3.119   1.100   2.256
 3855TIP3    H211530   3.147   0.985   2.350
 3856TIP3   OH211531   1.493   4.073   2.227
 3856TIP3    H111532   1.520   4.114   2.145
 3856TIP3    H211533   1.497   3.979   2.210
 3857TIP3   OH211534   5.418   1.567   1.147
 3857TIP3    H111535   5.424   1.638   1.083
 3857TIP3    H211536   5.508   1.556   1.179
 3858TIP3   OH211537   1.847   3.791   1.464
 3858TIP3    H111538   1.803   3.865   1.424
 3858TIP3    H211539   1.910   3.829   1.525
 3859TIP3   OH211540   4.991   2.295   0.597
 3859TIP3    H111541   4.958   2.213   0.560
 3859TIP3    H211542   5.020   2.346   0.521
 3860TIP3   OH211543   3.206   4.483   0.571
 3860TIP3    H111544   3.272   4.413   0.575
 3860TIP3    H211545   3.123   4.437   0.557
 3861TIP3   OH211546   7.039   1.692   0.070
 3861TIP3    H111547   6.960   1.746   0.059
 3861TIP3    H211548   7.079   1.724   0.150
 3862TIP3   OH211549   3.749   1.665   5.487
 3862TIP3    H111550   3.697   1.650   5.566
 3862TIP3    H211551   3.685   1.688   5.420
 3863TIP3   OH211552   3.829   2.725   2.652
 3863TIP3    H111553   3.897   2.755   2.711
 3863TIP3    H211554   3.751   2.775   2.677
 3864TIP3   OH211555   2.882   0.381   1.821
 3864TIP3    H111556   2.864   0.458   1.875
 3864TIP3    H211557   2.976   0.386   1.803
 3865TIP3   OH211558   2.968   2.884   1.652
 3865TIP3    H111559   2.903   2.943   1.692
 3865TIP3    H211560   3.053   2.923   1.675
 3866TIP3   OH211561   0.406   1.414   4.052
 3866TIP3    H111562   0.345   1.466   4.104
 3866TIP3    H211563   0.400   1.452   3.964
 3867TIP3   OH211564   5.556   1.203   5.701
 3867TIP3    H111565   5.645   1.187   5.668
 3867TIP3    H211566   5.513   1.249   5.629
 3868TIP3   OH211567   1.233   3.817   0.783
 3868TIP3    H111568   1.286   3.816   0.862
 3868TIP3    H211569   1.284   3.867   0.720
 3869TIP3   OH211570   5.549   4.367   4.171
 3869TIP3    H111571   5.522   4.283   4.208
 3869TIP3    H211572   5.467   4.409   4.145
 3870TIP3   OH211573   3.804   3.460   5.210
 3870TIP3    H111574   3.757   3.534   5.172
 3870TIP3    H211575   3.738   3.413   5.262
 3871TIP3   OH211576   6.848   0.772   1.104
 3871TIP3    H111577   6.770   0.729   1.069
 3871TIP3    H211578   6.921   0.722   1.067
 3872TIP3   OH211579   3.218   4.723   5.748
 3872TIP3    H111580   3.257   4.676   5.822
 3872TIP3    H211581   3.172   4.655   5.698
 3873TIP3   OH211582   1.129   3.973   2.467
 3873TIP3    H111583   1.158   3.882   2.468
 3873TIP3    H211584   1.200   4.020   2.424
 3874TIP3   OH211585   0.069   4.850   1.487
 3874TIP3    H111586  -0.018   4.891   1.491
 3874TIP3    H211587   0.062   4.773   1.544
 3875TIP3   OH211588   6.680   6.504   4.272
 3875TIP3    H111589   6.669   6.475   4.182
 3875TIP3    H211590   6.772   6.531   4.277
 3876TIP3   OH211591   0.829   6.423   1.904
 3876TIP3    H111592   0.865   6.507   1.875
 3876TIP3    H211593   0.884   6.357   1.863
 3877TIP3   OH211594   6.956   0.942   0.841
 3877TIP3    H111595   6.983   0.960   0.751
 3877TIP3    H211596   7.031   0.896   0.880
 3878TIP3   OH211597   1.233   1.385   1.963
 3878TIP3    H111598   1.251   1.330   2.038
 3878TIP3    H211599   1.314   1.386   1.912
 3879TIP3   OH211600   5.655   3.245   0.831
 3879TIP3    H111601   5.646   3.164   0.882
 3879TIP3    H211602   5.610   3.311   0.883
 3880TIP3   OH211603   4.882   2.073   0.008
 3880TIP3    H111604   4.949   2.052   0.073
 3880TIP3    H211605   4.822   1.998   0.010
 3881TIP3   OH211606   1.992   1.139   2.179
 3881TIP3    H111607   2.075   1.185   2.166
 3881TIP3    H211608   1.953   1.182   2.255
 3882TIP3   OH211609   2.870   4.828   4.364
 3882TIP3    H111610   2.779   4.827   4.333
 3882TIP3    H211611   2.918   4.871   4.294
 3883TIP3   OH211612   2.166   1.325   4.045
 3883TIP3    H111613   2.222   1.401   4.063
 3883TIP3    H211614   2.103   1.356   3.980
 3884TIP3   OH211615   0.225   2.093   0.487
 3884TIP3    H111616   0.164   2.121   0.555
 3884TIP3    H211617   0.250   2.174   0.442
 3885TIP3   OH211618   2.602   4.849   5.645
 3885TIP3    H111619   2.632   4.938   5.664
 3885TIP3    H211620   2.525   4.837   5.701
 3886TIP3   OH211621   2.892   5.625   3.122
 3886TIP3    H111622   2.856   5.693   3.179
 3886TIP3    H211623   2.875   5.543   3.169
 3887TIP3   OH211624   3.768   4.154   0.090
 3887TIP3    H111625   3.830   4.083   0.072
 3887TIP3    H211626   3.693   4.110   0.130
 3888TIP3   OH211627   0.170   3.111   2.330
 3888TIP3    H111628   0.082   3.147   2.338
 3888TIP3    H211629   0.166   3.029   2.379
 3889TIP3   OH211630   4.710   5.156   1.238
 3889TIP3    H111631   4.715   5.250   1.220
 3889TIP3    H211632   4.800   5.132   1.261
 3890TIP3   OH211633   2.488   1.902   5.321
 3890TIP3    H111634   2.507   1.956   5.398
 3890TIP3    H211635   2.551   1.830   5.326
 3891TIP3   OH211636   1.901   5.322   1.291
 3891TIP3    H111637   1.867   5.351   1.376
 3891TIP3    H211638   1.964   5.253   1.313
 3892TIP3   OH211639   3.282   6.424   0.088
 3892TIP3    H111640   3.261   6.496   0.148
 3892TIP3    H211641   3.358   6.455   0.039
 3893TIP3   OH211642   2.536   1.614   3.341
 3893TIP3    H111643   2.618   1.604   3.292
 3893TIP3    H211644   2.544   1.697   3.387
 3894TIP3   OH211645   1.960   6.302   1.927
 3894TIP3    H111646   1.959   6.312   1.832
 3894TIP3    H211647   1.905   6.226   1.944
 3895TIP3   OH211648   2.931   6.380   5.070
 3895TIP3    H111649   3.022   6.372   5.100
 3895TIP3    H211650   2.938   6.429   4.988
 3896TIP3   OH211651   5.009   4.709   1.120
 3896TIP3    H111652   5.072   4.781   1.109
 3896TIP3    H211653   4.975   4.694   1.032
 3897TIP3   OH211654   3.385   4.152   2.263
 3897TIP3    H111655   3.373   4.078   2.323
 3897TIP3    H211656   3.478   4.173   2.270
 3898TIP3   OH211657   2.795   3.678   3.260
 3898TIP3    H111658   2.803   3.592   3.218
 3898TIP3    H211659   2.878   3.691   3.305
 3899TIP3   OH211660   3.592   2.895   5.567
 3899TIP3    H111661   3.631   2.826   5.514
 3899TIP3    H211662   3.503   2.864   5.585
 3900TIP3   OH211663   1.186   2.839   1.224
 3900TIP3    H111664   1.216   2.754   1.194
 3900TIP3    H211665   1.259   2.898   1.208
 3901TIP3   OH211666   2.116   2.744   5.756
 3901TIP3    H111667   2.135   2.672   5.815
 3901TIP3    H211668   2.200   2.790   5.745
 3902TIP3   OH211669   6.699   0.930   2.485
 3902TIP3    H111670   6.714   0.845   2.444
 3902TIP3    H211671   6.722   0.917   2.577
 3903TIP3   OH211672   4.380   5.176   2.699
 3903TIP3    H111673   4.459   5.227   2.718
 3903TIP3    H211674   4.325   5.187   2.777
 3904TIP3   OH211675   0.775   4.159   1.632
 3904TIP3    H111676   0.721   4.083   1.654
 3904TIP3    H211677   0.851   4.122   1.588
 3905TIP3   OH211678   0.866   0.979   4.734
 3905TIP3    H111679   0.781   0.935   4.732
 3905TIP3    H211680   0.855   1.048   4.800
 3906TIP3   OH211681   1.982   6.049   3.976
 3906TIP3    H111682   1.975   6.053   3.881
 3906TIP3    H211683   1.913   5.988   4.003
 3907TIP3   OH211684   4.778   3.529   0.991
 3907TIP3    H111685   4.783   3.449   0.937
 3907TIP3    H211686   4.863   3.534   1.035
 3908TIP3   OH211687   4.797   1.590   4.213
 3908TIP3    H111688   4.775   1.682   4.202
 3908TIP3    H211689   4.821   1.560   4.125
 3909TIP3   OH211690   1.341   1.540   2.512
 3909TIP3    H111691   1.430   1.505   2.514
 3909TIP3    H211692   1.329   1.579   2.599
 3910TIP3   OH211693   4.824   6.096   2.564
 3910TIP3    H111694   4.919   6.085   2.562
 3910TIP3    H211695   4.790   6.018   2.519
 3911TIP3   OH211696   2.956   5.250   4.409
 3911TIP3    H111697   2.916   5.337   4.407
 3911TIP3    H211698   2.922   5.210   4.490
 3912TIP3   OH211699   2.049   5.384   3.792
 3912TIP3    H111700   2.128   5.331   3.780
 3912TIP3    H211701   2.076   5.472   3.767
 3913TIP3   OH211702   2.446   6.558   1.356
 3913TIP3    H111703   2.375   6.507   1.395
 3913TIP3    H211704   2.445   6.532   1.263
 3914TIP3   OH211705   1.072   2.631   0.178
 3914TIP3    H111706   1.138   2.701   0.184
 3914TIP3    H211707   1.017   2.657   0.104
 3915TIP3   OH211708   4.641   6.275   3.804
 3915TIP3    H111709   4.648   6.181   3.784
 3915TIP3    H211710   4.548   6.288   3.823
 3916TIP3   OH211711   4.088   2.943   0.213
 3916TIP3    H111712   4.180   2.920   0.224
 3916TIP3    H211713   4.084   2.986   0.127
 3917TIP3   OH211714   4.310   1.027   3.391
 3917TIP3    H111715   4.237   1.083   3.363
 3917TIP3    H211716   4.385   1.059   3.341
 3918TIP3   OH211717   1.337   3.352   5.443
 3918TIP3    H111718   1.247   3.343   5.411
 3918TIP3    H211719   1.362   3.263   5.469
 3919TIP3   OH211720   7.199   0.038   2.234
 3919TIP3    H111721   7.110   0.002   2.236
 3919TIP3    H211722   7.228   0.034   2.325
 3920TIP3   OH211723   6.645   6.141   5.411
 3920TIP3    H111724   6.739   6.134   5.428
 3920TIP3    H211725   6.604   6.139   5.497
 3921TIP3   OH211726   1.684   5.584   2.321
 3921TIP3    H111727   1.729   5.518   2.375
 3921TIP3    H211728   1.753   5.645   2.295
 3922TIP3   OH211729   3.179   3.126   1.713
 3922TIP3    H111730   3.243   3.133   1.642
 3922TIP3    H211731   3.220   3.067   1.776
 3923TIP3   OH211732   5.219   1.505   2.226
 3923TIP3    H111733   5.183   1.420   2.204
 3923TIP3    H211734   5.261   1.493   2.311
 3924TIP3   OH211735   3.372   0.965   0.215
 3924TIP3    H111736   3.310   0.901   0.251
 3924TIP3    H211737   3.345   0.976   0.124
 3925TIP3   OH211738   2.623   3.616   0.790
 3925TIP3    H111739   2.631   3.521   0.802
 3925TIP3    H211740   2.636   3.629   0.696
 3926TIP3   OH211741   4.594   2.996   1.912
 3926TIP3    H111742   4.591   3.091   1.919
 3926TIP3    H211743   4.509   2.967   1.945
 3927TIP3   OH211744   1.245   6.356   3.680
 3927TIP3    H111745   1.222   6.310   3.600
 3927TIP3    H211746   1.286   6.437   3.650
 3928TIP3   OH211747   4.426   2.384   1.114
 3928TIP3    H111748   4.495   2.345   1.166
 3928TIP3    H211749   4.454   2.475   1.100
 3929TIP3   OH211750   4.345   1.919   3.176
 3929TIP3    H111751   4.312   1.874   3.098
 3929TIP3    H211752   4.399   1.854   3.220
 3930TIP3   OH211753   6.626   2.669   0.478
 3930TIP3    H111754   6.658   2.615   0.406
 3930TIP3    H211755   6.702   2.719   0.506
 3931TIP3   OH211756   6.090   5.245   3.221
 3931TIP3    H111757   6.090   5.166   3.166
 3931TIP3    H211758   6.008   5.289   3.199
 3932TIP3   OH211759   1.971   1.673   3.744
 3932TIP3    H111760   2.002   1.679   3.653
 3932TIP3    H211761   1.878   1.697   3.739
 3933TIP3   OH211762   6.331   1.887   1.989
 3933TIP3    H111763   6.392   1.959   1.981
 3933TIP3    H211764   6.248   1.928   2.015
 3934TIP3   OH211765   2.075   0.762   1.374
 3934TIP3    H111766   1.986   0.758   1.409
 3934TIP3    H211767   2.124   0.699   1.428
 3935TIP3   OH211768   2.848   5.937   4.155
 3935TIP3    H111769   2.916   5.873   4.134
 3935TIP3    H211770   2.874   5.972   4.240
 3936TIP3   OH211771   1.668   3.769   0.512
 3936TIP3    H111772   1.708   3.682   0.508
 3936TIP3    H211773   1.705   3.808   0.591
 3937TIP3   OH211774   5.712   5.532   0.119
 3937TIP3    H111775   5.740   5.530   0.028
 3937TIP3    H211776   5.649   5.460   0.126
 3938TIP3   OH211777   2.029   5.807   1.582
 3938TIP3    H111778   2.043   5.749   1.507
 3938TIP3    H211779   2.109   5.799   1.634
 3939TIP3   OH211780   6.244   2.445   0.629
 3939TIP3    H111781   6.263   2.365   0.678
 3939TIP3    H211782   6.179   2.418   0.564
 3940TIP3   OH211783   0.422   1.858   3.954
 3940TIP3    H111784   0.501   1.905   3.928
 3940TIP3    H211785   0.385   1.910   4.025
 3941TIP3   OH211786   6.258   4.132   0.377
 3941TIP3    H111787   6.275   4.150   0.469
 3941TIP3    H211788   6.311   4.196   0.329
 3942TIP3   OH211789   0.365   6.697   2.246
 3942TIP3    H111790   0.389   6.641   2.172
 3942TIP3    H211791   0.446   6.704   2.297
 3943TIP3   OH211792   5.920   1.872   1.416
 3943TIP3    H111793   5.983   1.942   1.400
 3943TIP3    H211794   5.860   1.876   1.342
 3944TIP3   OH211795   3.632   1.573   1.700
 3944TIP3    H111796   3.551   1.537   1.665
 3944TIP3    H211797   3.702   1.524   1.658
 3945TIP3   OH211798   5.273   0.114   3.508
 3945TIP3    H111799   5.248   0.185   3.567
 3945TIP3    H211800   5.357   0.141   3.471
 3946TIP3   OH211801   1.682   6.724   2.807
 3946TIP3    H111802   1.634   6.793   2.760
 3946TIP3    H211803   1.684   6.652   2.744
 3947TIP3   OH211804   1.488   0.555   4.016
 3947TIP3    H111805   1.399   0.522   4.008
 3947TIP3    H211806   1.512   0.538   4.107
 3948TIP3   OH211807   6.612   4.916   3.195
 3948TIP3    H111808   6.662   4.837   3.175
 3948TIP3    H211809   6.532   4.908   3.142
 3949TIP3   OH211810   4.096   5.851   1.457
 3949TIP3    H111811   4.051   5.888   1.532
 3949TIP3    H211812   4.155   5.785   1.494
 3950TIP3   OH211813   4.502   2.132   4.998
 3950TIP3    H111814   4.436   2.166   4.938
 3950TIP3    H211815   4.579   2.115   4.942
 3951TIP3   OH211816   0.015   4.504   3.617
 3951TIP3    H111817   0.107   4.520   3.599
 3951TIP3    H211818   0.004   4.524   3.710
 3952TIP3   OH211819   1.463   0.070   5.225
 3952TIP3    H111820   1.486   0.084   5.317
 3952TIP3    H211821   1.453   0.158   5.189
 3953TIP3   OH211822   3.907   2.396   4.318
 3953TIP3    H111823   3.934   2.374   4.407
 3953TIP3    H211824   3.984   2.437   4.279
 3954TIP3   OH211825   2.654   2.338   5.563
 3954TIP3    H111826   2.631   2.397   5.491
 3954TIP3    H211827   2.737   2.374   5.597
 3955TIP3   OH211828   3.391   2.876   1.047
 3955TIP3    H111829   3.332   2.920   1.108
 3955TIP3    H211830   3.476   2.917   1.061
 3956TIP3   OH211831   0.376   4.449   3.936
 3956TIP3    H111832   0.410   4.372   3.981
 3956TIP3    H211833   0.330   4.498   4.004
 3957TIP3   OH211834   3.137   0.787   3.662
 3957TIP3    H111835   3.067   0.742   3.615
 3957TIP3    H211836   3.126   0.762   3.753
 3958TIP3   OH211837   3.591   3.467   2.348
 3958TIP3    H111838   3.666   3.449   2.405
 3958TIP3    H211839   3.604   3.409   2.273
 3959TIP3   OH211840   0.736   4.756   1.362
 3959TIP3    H111841   0.700   4.674   1.396
 3959TIP3    H211842   0.659   4.812   1.350
 3960TIP3   OH211843   4.168   2.076   0.196
 3960TIP3    H111844   4.113   1.997   0.201
 3960TIP3    H211845   4.145   2.116   0.112
 3961TIP3   OH211846   1.132   6.559   2.346
 3961TIP3    H111847   1.111   6.467   2.361
 3961TIP3    H211848   1.086   6.582   2.265
 3962TIP3   OH211849   3.553   1.996   5.175
 3962TIP3    H111850   3.471   2.026   5.136
 3962TIP3    H211851   3.541   2.011   5.269
 3963TIP3   OH211852   0.085   1.009   0.734
 3963TIP3    H111853   0.049   0.922   0.748
 3963TIP3    H211854   0.073   1.026   0.641
 3964TIP3   OH211855   2.120   0.042   4.283
 3964TIP3    H111856   2.142  -0.041   4.326
 3964TIP3    H211857   2.189   0.052   4.217
 3965TIP3   OH211858   4.066   6.568   4.149
 3965TIP3    H111859   4.152   6.545   4.116
 3965TIP3    H211860   4.011   6.492   4.131
 3966TIP3   OH211861   2.844   2.209   4.240
 3966TIP3    H111862   2.933   2.191   4.271
 3966TIP3    H211863   2.800   2.124   4.243
 3967TIP3   OH211864   2.129   4.299   1.066
 3967TIP3    H111865   2.199   4.327   1.007
 3967TIP3    H211866   2.071   4.248   1.010
 3968TIP3   OH211867   4.744   3.877   3.720
 3968TIP3    H111868   4.823   3.823   3.729
 3968TIP3    H211869   4.777   3.963   3.695
 3969TIP3   OH211870   1.037   1.337   2.583
 3969TIP3    H111871   1.024   1.258   2.635
 3969TIP3    H211872   1.130   1.357   2.592
 3970TIP3   OH211873   0.550   6.329   4.182
 3970TIP3    H111874   0.640   6.315   4.152
 3970TIP3    H211875   0.497   6.273   4.126
 3971TIP3   OH211876   0.914   2.618   1.746
 3971TIP3    H111877   0.819   2.619   1.738
 3971TIP3    H211878   0.945   2.614   1.655
 3972TIP3   OH211879   3.261   3.381   4.204
 3972TIP3    H111880   3.240   3.306   4.259
 3972TIP3    H211881   3.234   3.353   4.116
 3973TIP3   OH211882   2.570   6.529   5.273
 3973TIP3    H111883   2.642   6.586   5.248
 3973TIP3    H211884   2.602   6.440   5.255
 3974TIP3   OH211885   1.820   2.560   2.518
 3974TIP3    H111886   1.887   2.505   2.478
 3974TIP3    H211887   1.774   2.599   2.444
 3975TIP3   OH211888   0.762   4.883   5.491
 3975TIP3    H111889   0.770   4.794   5.455
 3975TIP3    H211890   0.678   4.883   5.536
 3976TIP3   OH211891   5.805   4.281   4.166
 3976TIP3    H111892   5.720   4.302   4.205
 3976TIP3    H211893   5.833   4.363   4.125
 3977TIP3   OH211894   0.465   4.447   5.846
 3977TIP3    H111895   0.488   4.469   5.936
 3977TIP3    H211896   0.446   4.532   5.805
 3978TIP3   OH211897   7.179   4.026   5.676
 3978TIP3    H111898   7.271   4.035   5.701
 3978TIP3    H211899   7.142   4.114   5.688
 3979TIP3   OH211900   5.517   1.939   2.020
 3979TIP3    H111901   5.425   1.952   2.001
 3979TIP3    H211902   5.519   1.875   2.091
 3980TIP3   OH211903   1.506   6.502   0.250
 3980TIP3    H111904   1.492   6.581   0.197
 3980TIP3    H211905   1.595   6.474   0.229
 3981TIP3   OH211906   4.411   6.647   0.254
 3981TIP3    H111907   4.341   6.672   0.314
 3981TIP3    H211908   4.370   6.585   0.193
 3982TIP3   OH211909   6.614   6.005   2.839
 3982TIP3    H111910   6.598   5.977   2.929
 3982TIP3    H211911   6.598   5.927   2.787
 3983TIP3   OH211912   1.601   1.754   0.602
 3983TIP3    H111913   1.576   1.668   0.567
 3983TIP3    H211914   1.524   1.783   0.650
 3984TIP3   OH211915   3.774   3.208   4.523
 3984TIP3    H111916   3.708   3.146   4.555
 3984TIP3    H211917   3.846   3.201   4.587
 3985TIP3   OH211918   5.641   0.780   4.109
 3985TIP3    H111919   5.554   0.747   4.132
 3985TIP3    H211920   5.701   0.710   4.134
 3986TIP3   OH211921   3.845   2.593   3.934
 3986TIP3    H111922   3.897   2.536   3.990
 3986TIP3    H211923   3.784   2.637   3.994
 3987TIP3   OH211924   6.517   2.494   2.029
 3987TIP3    H111925   6.569   2.418   2.055
 3987TIP3    H211926   6.581   2.562   2.010
 3988TIP3   OH211927   3.327   2.498   1.386
 3988TIP3    H111928   3.335   2.402   1.383
 3988TIP3    H211929   3.407   2.530   1.345
 3989TIP3   OH211930   2.451   2.399   2.238
 3989TIP3    H111931   2.466   2.460   2.310
 3989TIP3    H211932   2.463   2.452   2.159
 3990TIP3   OH211933   1.415   6.258   0.104
 3990TIP3    H111934   1.387   6.350   0.104
 3990TIP3    H211935   1.335   6.209   0.083
 3991TIP3   OH211936   4.717   4.893   2.004
 3991TIP3    H111937   4.661   4.970   2.018
 3991TIP3    H211938   4.763   4.881   2.087
 3992TIP3   OH211939   3.932   3.795   0.400
 3992TIP3    H111940   4.014   3.839   0.419
 3992TIP3    H211941   3.911   3.747   0.480
 3993TIP3   OH211942   6.312   5.490   5.074
 3993TIP3    H111943   6.352   5.577   5.085
 3993TIP3    H211944   6.281   5.489   4.984
 3994TIP3   OH211945   2.507   0.250   5.017
 3994TIP3    H111946   2.466   0.218   5.097
 3994TIP3    H211947   2.459   0.330   4.995
 3995TIP3   OH211948   1.420   6.189   5.247
 3995TIP3    H111949   1.403   6.274   5.207
 3995TIP3    H211950   1.449   6.210   5.336
 3996TIP3   OH211951   0.377   3.299   0.238
 3996TIP3    H111952   0.383   3.334   0.327
 3996TIP3    H211953   0.370   3.204   0.250
 3997TIP3   OH211954   1.433   5.817   4.192
 3997TIP3    H111955   1.399   5.890   4.140
 3997TIP3    H211956   1.356   5.767   4.217
 3998TIP3   OH211957   6.117   4.005   0.017
 3998TIP3    H111958   6.108   3.975   0.108
 3998TIP3    H211959   6.039   3.973  -0.027
 3999TIP3   OH211960   4.606   5.923   0.786
 3999TIP3    H111961   4.610   5.929   0.881
 3999TIP3    H211962   4.695   5.945   0.757
 4000TIP3   OH211963   5.742   3.169   0.172
 4000TIP3    H111964   5.757   3.157   0.266
 4000TIP3    H211965   5.699   3.088   0.144
 4001TIP3   OH211966   2.933   2.578   0.463
 4001TIP3    H111967   2.894   2.492   0.481
 4001TIP3    H211968   2.935   2.622   0.548
 4002TIP3   OH211969   6.774   0.420   3.680
 4002TIP3    H111970   6.838   0.472   3.631
 4002TIP3    H211971   6.794   0.330   3.657
 4003TIP3   OH211972   2.561   5.638   4.427
 4003TIP3    H111973   2.556   5.732   4.405
 4003TIP3    H211974   2.477   5.603   4.398
 4004TIP3   OH211975   5.042   5.803   3.389
 4004TIP3    H111976   5.012   5.830   3.303
 4004TIP3    H211977   5.002   5.717   3.403
 4005TIP3   OH211978   5.941   1.395   0.035
 4005TIP3    H111979   5.916   1.303   0.047
 4005TIP3    H211980   6.013   1.408   0.096
 4006TIP3   OH211981   0.653   2.324   1.137
 4006TIP3    H111982   0.732   2.357   1.096
 4006TIP3    H211983   0.630   2.246   1.086
 4007TIP3   OH211984   4.495   3.192   0.595
 4007TIP3    H111985   4.547   3.112   0.600
 4007TIP3    H211986   4.549   3.258   0.639
 4008TIP3   OH211987   2.807   6.380   0.411
 4008TIP3    H111988   2.787   6.411   0.499
 4008TIP3    H211989   2.895   6.414   0.393
 4009TIP3   OH211990   5.028   0.904   5.516
 4009TIP3    H111991   5.046   0.811   5.501
 4009TIP3    H211992   5.105   0.949   5.481
 4010TIP3   OH211993   2.948   5.067   5.815
 4010TIP3    H111994   3.004   5.077   5.892
 4010TIP3    H211995   3.004   5.024   5.750
 4011TIP3   OH211996   3.250   0.895   0.874
 4011TIP3    H111997   3.217   0.811   0.843
 4011TIP3    H211998   3.341   0.877   0.898
 4012TIP3   OH211999   6.918   2.238   1.986
 4012TIP3    H112000   6.849   2.175   1.964
 4012TIP3    H212001   6.975   2.239   1.908
 4013TIP3   OH212002   2.045   3.453   0.799
 4013TIP3    H112003   2.075   3.532   0.753
 4013TIP3    H212004   2.020   3.393   0.728
 4014TIP3   OH212005   4.827   6.255   3.553
 4014TIP3    H112006   4.870   6.170   3.546
 4014TIP3    H212007   4.899   6.319   3.547
 4015TIP3   OH212008   2.531   5.840   0.542
 4015TIP3    H112009   2.522   5.802   0.629
 4015TIP3    H212010   2.459   5.902   0.534
 4016TIP3   OH212011   4.103   6.101   5.036
 4016TIP3    H112012   4.136   6.025   5.084
 4016TIP3    H212013   4.172   6.166   5.044
 4017TIP3   OH212014   1.701   1.582   2.017
 4017TIP3    H112015   1.733   1.667   1.985
 4017TIP3    H212016   1.780   1.533   2.039
 4018TIP3   OH212017   2.928   1.244   3.068
 4018TIP3    H112018   3.014   1.205   3.085
 4018TIP3    H212019   2.935   1.334   3.099
 4019TIP3   OH212020   2.192   1.294   0.396
 4019TIP3    H112021   2.240   1.236   0.455
 4019TIP3    H212022   2.178   1.374   0.447
 4020TIP3   OH212023   6.366   2.760   1.379
 4020TIP3    H112024   6.429   2.746   1.449
 4020TIP3    H212025   6.288   2.794   1.422
 4021TIP3   OH212026   0.936   1.538   2.427
 4021TIP3    H112027   0.955   1.464   2.483
 4021TIP3    H212028   1.021   1.575   2.404
 4022TIP3   OH212029   1.182   5.821   3.959
 4022TIP3    H112030   1.103   5.864   3.925
 4022TIP3    H212031   1.237   5.892   3.989
 4023TIP3   OH212032   0.956   1.689   1.612
 4023TIP3    H112033   0.944   1.748   1.687
 4023TIP3    H212034   0.973   1.747   1.538
 4024TIP3   OH212035   3.555   6.687   4.869
 4024TIP3    H112036   3.533   6.697   4.961
 4024TIP3    H212037   3.647   6.663   4.868
 4025TIP3   OH212038   1.094   4.341   5.601
 4025TIP3    H112039   1.054   4.387   5.674
 4025TIP3    H212040   1.062   4.251   5.608
 4026TIP3   OH212041   0.876   1.713   5.645
 4026TIP3    H112042   0.839   1.757   5.568
 4026TIP3    H212043   0.827   1.632   5.653
 4027TIP3   OH212044   6.969   2.582   1.814
 4027TIP3    H112045   6.990   2.554   1.903
 4027TIP3    H212046   6.988   2.676   1.813
 4028TIP3   OH212047   0.987   3.564   1.246
 4028TIP3    H112048   0.926   3.571   1.173
 4028TIP3    H212049   0.936   3.526   1.317
 4029TIP3   OH212050   3.333   1.055   4.012
 4029TIP3    H112051   3.288   1.088   4.089
 4029TIP3    H212052   3.264   1.044   3.946
 4030TIP3   OH212053   5.905   0.482   0.346
 4030TIP3    H112054   5.950   0.546   0.291
 4030TIP3    H212055   5.896   0.525   0.431
 4031TIP3   OH212056   6.950   2.729   5.728
 4031TIP3    H112057   6.911   2.722   5.641
 4031TIP3    H212058   6.895   2.675   5.784
 4032TIP3   OH212059   5.313   4.607   3.715
 4032TIP3    H112060   5.347   4.683   3.668
 4032TIP3    H212061   5.349   4.531   3.669
 4033TIP3   OH212062   1.583   1.620   3.222
 4033TIP3    H112063   1.573   1.604   3.316
 4033TIP3    H212064   1.630   1.544   3.189
 4034TIP3   OH212065   2.393   3.338   3.327
 4034TIP3    H112066   2.366   3.251   3.295
 4034TIP3    H212067   2.463   3.320   3.390
 4035TIP3   OH212068   1.864   6.246   4.753
 4035TIP3    H112069   1.917   6.314   4.711
 4035TIP3    H212070   1.811   6.209   4.683
 4036TIP3   OH212071   2.144   4.596   5.748
 4036TIP3    H112072   2.112   4.527   5.806
 4036TIP3    H212073   2.152   4.673   5.805
 4037TIP3   OH212074   0.539   1.085   1.215
 4037TIP3    H112075   0.507   1.161   1.168
 4037TIP3    H212076   0.498   1.091   1.302
 4038TIP3   OH212077   6.477   5.604   5.828
 4038TIP3    H112078   6.409   5.641   5.771
 4038TIP3    H212079   6.535   5.678   5.847
 4039TIP3   OH212080   7.194   3.035   0.646
 4039TIP3    H112081   7.132   3.038   0.573
 4039TIP3    H212082   7.209   2.942   0.662
 4040TIP3   OH212083   2.862   2.926   1.224
 4040TIP3    H112084   2.869   2.860   1.293
 4040TIP3    H212085   2.945   2.974   1.229
 4041TIP3   OH212086   0.119   5.202   0.792
 4041TIP3    H112087   0.093   5.131   0.734
 4041TIP3    H212088   0.105   5.168   0.880
 4042TIP3   OH212089   6.966   6.474   1.683
 4042TIP3    H112090   7.060   6.461   1.676
 4042TIP3    H212091   6.951   6.495   1.775
 4043TIP3   OH212092   2.077   3.560   2.798
 4043TIP3    H112093   2.070   3.638   2.742
 4043TIP3    H212094   2.119   3.592   2.878
 4044TIP3   OH212095   0.667   3.688   3.368
 4044TIP3    H112096   0.610   3.754   3.328
 4044TIP3    H212097   0.723   3.659   3.296
 4045TIP3   OH212098   4.456   0.668   0.850
 4045TIP3    H112099   4.402   0.703   0.779
 4045TIP3    H212100   4.496   0.745   0.891
 4046TIP3   OH212101   3.171   3.024   3.596
 4046TIP3    H112102   3.223   3.091   3.641
 4046TIP3    H212103   3.138   2.969   3.667
 4047TIP3   OH212104   0.017   0.692   0.533
 4047TIP3    H112105   0.011   0.622   0.469
 4047TIP3    H212106   0.092   0.669   0.588
 4048TIP3   OH212107   0.957   4.873   5.135
 4048TIP3    H112108   0.970   4.936   5.206
 4048TIP3    H212109   1.046   4.852   5.105
 4049TIP3   OH212110   6.819   5.192   0.136
 4049TIP3    H112111   6.785   5.112   0.175
 4049TIP3    H212112   6.907   5.168   0.108
 4050TIP3   OH212113   0.453   3.751   2.656
 4050TIP3    H112114   0.543   3.722   2.671
 4050TIP3    H212115   0.456   3.797   2.572
 4051TIP3   OH212116   1.268   1.565   0.022
 4051TIP3    H112117   1.341   1.579   0.083
 4051TIP3    H212118   1.232   1.653   0.010
 4052TIP3   OH212119   0.722   4.125   2.656
 4052TIP3    H112120   0.768   4.041   2.651
 4052TIP3    H212121   0.666   4.116   2.734
 4053TIP3   OH212122   3.005   5.463   5.672
 4053TIP3    H112123   3.018   5.474   5.766
 4053TIP3    H212124   2.929   5.518   5.652
 4054TIP3   OH212125   3.734   6.750   1.520
 4054TIP3    H112126   3.733   6.846   1.518
 4054TIP3    H212127   3.737   6.724   1.428
 4055TIP3   OH212128   0.074   5.573   4.742
 4055TIP3    H112129   0.035   5.647   4.694
 4055TIP3    H212130   0.152   5.551   4.693
 4056TIP3   OH212131   3.296   1.769   0.645
 4056TIP3    H112132   3.316   1.862   0.649
 4056TIP3    H212133   3.210   1.765   0.605
 4057TIP3   OH212134   6.984   4.520   5.789
 4057TIP3    H112135   6.952   4.463   5.860
 4057TIP3    H212136   7.031   4.460   5.731
 4058TIP3   OH212137   5.703   1.067   1.366
 4058TIP3    H112138   5.615   1.043   1.393
 4058TIP3    H212139   5.745   0.984   1.343
 4059TIP3   OH212140   3.004   3.744   4.661
 4059TIP3    H112141   2.939   3.808   4.629
 4059TIP3    H212142   3.038   3.703   4.581
 4060TIP3   OH212143   3.001   3.705   0.248
 4060TIP3    H112144   3.073   3.665   0.199
 4060TIP3    H212145   2.932   3.639   0.249
 4061TIP3   OH212146   0.231   1.608   4.584
 4061TIP3    H112147   0.189   1.635   4.502
 4061TIP3    H212148   0.248   1.515   4.573
 4062TIP3   OH212149   7.061   4.578   3.007
 4062TIP3    H112150   7.071   4.638   2.933
 4062TIP3    H212151   7.118   4.504   2.986
 4063TIP3   OH212152   1.393   2.603   4.923
 4063TIP3    H112153   1.473   2.565   4.885
 4063TIP3    H212154   1.415   2.619   5.015
 4064TIP3   OH212155   0.915   0.128   2.323
 4064TIP3    H112156   0.900   0.052   2.380
 4064TIP3    H212157   0.880   0.101   2.238
 4065TIP3   OH212158   2.947   2.796   3.522
 4065TIP3    H112159   3.008   2.834   3.458
 4065TIP3    H212160   3.001   2.778   3.599
 4066TIP3   OH212161   4.559   4.695   2.245
 4066TIP3    H112162   4.571   4.683   2.339
 4066TIP3    H212163   4.507   4.775   2.237
 4067TIP3   OH212164   4.265   0.439   2.242
 4067TIP3    H112165   4.229   0.412   2.327
 4067TIP3    H212166   4.265   0.359   2.190
 4068TIP3   OH212167   4.441   0.985   3.777
 4068TIP3    H112168   4.356   1.018   3.746
 4068TIP3    H212169   4.493   0.976   3.697
 4069TIP3   OH212170   1.903   5.176   5.727
 4069TIP3    H112171   1.820   5.130   5.717
 4069TIP3    H212172   1.953   5.151   5.649
 4070TIP3   OH212173   4.509   0.381   5.229
 4070TIP3    H112174   4.563   0.327   5.172
 4070TIP3    H212175   4.570   0.443   5.269
 4071TIP3   OH212176   2.223   6.614   0.963
 4071TIP3    H112177   2.148   6.558   0.944
 4071TIP3    H212178   2.206   6.694   0.914
 4072TIP3   OH212179   6.120   6.788   1.299
 4072TIP3    H112180   6.114   6.797   1.394
 4072TIP3    H212181   6.136   6.695   1.285
 4073TIP3   OH212182   7.022   0.022   1.467
 4073TIP3    H112183   6.933  -0.014   1.465
 4073TIP3    H212184   7.058   0.003   1.380
 4074TIP3   OH212185   6.733   3.303   5.542
 4074TIP3    H112186   6.725   3.271   5.632
 4074TIP3    H212187   6.817   3.268   5.512
 4075TIP3   OH212188   5.526   4.137   0.400
 4075TIP3    H112189   5.558   4.120   0.311
 4075TIP3    H212190   5.439   4.098   0.402
 4076TIP3   OH212191   4.092   4.595   2.524
 4076TIP3    H112192   4.080   4.595   2.619
 4076TIP3    H212193   4.039   4.521   2.493
 4077TIP3   OH212194   0.187   2.202   5.332
 4077TIP3    H112195   0.100   2.230   5.359
 4077TIP3    H212196   0.238   2.201   5.412
 4078TIP3   OH212197   3.596   4.040   0.802
 4078TIP3    H112198   3.675   4.006   0.760
 4078TIP3    H212199   3.524   4.013   0.745
 4079TIP3   OH212200   5.173   0.743   4.879
 4079TIP3    H112201   5.212   0.704   4.957
 4079TIP3    H212202   5.127   0.671   4.836
 4080TIP3   OH212203   5.484   3.645   0.304
 4080TIP3    H112204   5.570   3.607   0.286
 4080TIP3    H212205   5.486   3.664   0.398
 4081TIP3   OH212206   2.438   3.351   0.959
 4081TIP3    H112207   2.380   3.413   0.915
 4081TIP3    H212208   2.512   3.340   0.898
 4082TIP3   OH212209   3.908   1.270   4.705
 4082TIP3    H112210   3.904   1.187   4.657
 4082TIP3    H212211   3.823   1.310   4.690
 4083TIP3   OH212212   5.716   5.568   1.198
 4083TIP3    H112213   5.640   5.570   1.141
 4083TIP3    H212214   5.692   5.624   1.272
 4084TIP3   OH212215   6.788   6.519   5.484
 4084TIP3    H112216   6.736   6.439   5.486
 4084TIP3    H212217   6.725   6.589   5.470
 4085TIP3   OH212218   3.156   0.699   5.314
 4085TIP3    H112219   3.093   0.652   5.259
 4085TIP3    H212220   3.109   0.776   5.346
 4086TIP3   OH212221   3.394   0.567   1.014
 4086TIP3    H112222   3.446   0.486   1.019
 4086TIP3    H212223   3.322   0.552   1.075
 4087TIP3   OH212224   7.113   1.320   5.504
 4087TIP3    H112225   7.085   1.401   5.461
 4087TIP3    H212226   7.034   1.268   5.513
 4088TIP3   OH212227   6.816   4.288   3.640
 4088TIP3    H112228   6.740   4.340   3.616
 4088TIP3    H212229   6.888   4.324   3.588
 4089TIP3   OH212230   3.196   4.166   4.286
 4089TIP3    H112231   3.116   4.210   4.315
 4089TIP3    H212232   3.165   4.087   4.240
 4090TIP3   OH212233   6.678   5.167   1.497
 4090TIP3    H112234   6.732   5.089   1.487
 4090TIP3    H212235   6.741   5.239   1.499
 4091TIP3   OH212236   4.094   2.297   4.770
 4091TIP3    H112237   4.082   2.226   4.833
 4091TIP3    H212238   4.167   2.349   4.804
 4092TIP3   OH212239   4.045   5.491   3.381
 4092TIP3    H112240   4.009   5.409   3.415
 4092TIP3    H212241   4.004   5.559   3.435
 4093TIP3   OH212242   3.267   3.817   3.808
 4093TIP3    H112243   3.284   3.762   3.731
 4093TIP3    H212244   3.206   3.884   3.777
 4094TIP3   OH212245   6.923   4.043   0.377
 4094TIP3    H112246   6.925   4.059   0.283
 4094TIP3    H212247   6.830   4.041   0.399
 4095TIP3   OH212248   1.619   4.719   0.266
 4095TIP3    H112249   1.711   4.746   0.263
 4095TIP3    H212250   1.612   4.665   0.345
 4096TIP3   OH212251   0.431   1.260   4.848
 4096TIP3    H112252   0.404   1.346   4.817
 4096TIP3    H212253   0.414   1.261   4.942
 4097TIP3   OH212254   5.005   3.980   5.346
 4097TIP3    H112255   5.071   4.049   5.335
 4097TIP3    H212256   5.045   3.918   5.407
 4098TIP3   OH212257   1.541   5.454   1.644
 4098TIP3    H112258   1.462   5.400   1.640
 4098TIP3    H212259   1.514   5.538   1.605
 4099TIP3   OH212260   5.987   3.026   1.023
 4099TIP3    H112261   6.058   2.982   1.070
 4099TIP3    H212262   5.995   3.118   1.048
 4100TIP3   OH212263   3.414   4.127   1.237
 4100TIP3    H112264   3.395   4.219   1.255
 4100TIP3    H212265   3.493   4.129   1.182
 4101TIP3   OH212266   2.396   0.530   3.306
 4101TIP3    H112267   2.384   0.535   3.401
 4101TIP3    H212268   2.320   0.481   3.275
 4102TIP3   OH212269   4.716   4.793   4.498
 4102TIP3    H112270   4.681   4.762   4.582
 4102TIP3    H212271   4.797   4.837   4.522
 4103TIP3   OH212272   1.485   5.237   5.355
 4103TIP3    H112273   1.568   5.193   5.338
 4103TIP3    H212274   1.430   5.169   5.394
 4104TIP3   OH212275   1.472   6.215   1.869
 4104TIP3    H112276   1.442   6.306   1.870
 4104TIP3    H212277   1.545   6.213   1.932
 4105TIP3   OH212278   6.315   1.571   2.312
 4105TIP3    H112279   6.306   1.651   2.364
 4105TIP3    H212280   6.237   1.568   2.258
 4106TIP3   OH212281   6.066   5.915   5.808
 4106TIP3    H112282   5.976   5.907   5.839
 4106TIP3    H212283   6.115   5.852   5.861
 4107TIP3   OH212284   1.700   2.164   5.551
 4107TIP3    H112285   1.684   2.118   5.468
 4107TIP3    H212286   1.721   2.095   5.613
 4108TIP3   OH212287   1.640   5.928   5.342
 4108TIP3    H112288   1.637   5.931   5.438
 4108TIP3    H212289   1.732   5.937   5.320
 4109TIP3   OH212290   6.130   5.635   5.653
 4109TIP3    H112291   6.062   5.575   5.683
 4109TIP3    H212292   6.114   5.716   5.701
 4110TIP3   OH212293   1.835   4.822   2.681
 4110TIP3    H112294   1.748   4.784   2.695
 4110TIP3    H212295   1.843   4.889   2.750
 4111TIP3   OH212296   4.878   1.381   0.006
 4111TIP3    H112297   4.877   1.408   0.098
 4111TIP3    H212298   4.789   1.398  -0.025
 4112TIP3   OH212299   5.832   0.717   2.558
 4112TIP3    H112300   5.874   0.802   2.572
 4112TIP3    H212301   5.743   0.739   2.532
 4113TIP3   OH212302   2.082   5.842   0.277
 4113TIP3    H112303   2.171   5.857   0.246
 4113TIP3    H212304   2.059   5.921   0.325
 4114TIP3   OH212305   6.886   4.973   1.922
 4114TIP3    H112306   6.959   5.035   1.921
 4114TIP3    H212307   6.821   5.014   1.980
 4115TIP3   OH212308   4.884   2.308   1.049
 4115TIP3    H112309   4.936   2.239   1.090
 4115TIP3    H212310   4.809   2.263   1.011
 4116TIP3   OH212311   1.957   6.037   0.480
 4116TIP3    H112312   1.895   5.966   0.500
 4116TIP3    H212313   1.925   6.111   0.531
 4117TIP3   OH212314   1.050   5.373   1.271
 4117TIP3    H112315   0.965   5.390   1.229
 4117TIP3    H212316   1.114   5.384   1.201
 4118TIP3   OH212317   4.449   1.030   0.181
 4118TIP3    H112318   4.388   1.019   0.254
 4118TIP3    H212319   4.434   0.954   0.125
 4119TIP3   OH212320   7.117   6.151   0.423
 4119TIP3    H112321   7.137   6.212   0.494
 4119TIP3    H212322   7.022   6.151   0.417
 4120TIP3   OH212323   5.976   5.228   5.771
 4120TIP3    H112324   6.045   5.242   5.706
 4120TIP3    H212325   5.917   5.303   5.759
 4121TIP3   OH212326   3.646   2.333   5.738
 4121TIP3    H112327   3.728   2.303   5.699
 4121TIP3    H212328   3.672   2.388   5.812
 4122TIP3   OH212329   1.315   5.778   3.337
 4122TIP3    H112330   1.361   5.802   3.256
 4122TIP3    H212331   1.382   5.784   3.405
 4123TIP3   OH212332   1.770   3.849   0.749
 4123TIP3    H112333   1.756   3.942   0.767
 4123TIP3    H212334   1.803   3.814   0.831
 4124TIP3   OH212335   0.360   4.993   0.720
 4124TIP3    H112336   0.445   5.037   0.728
 4124TIP3    H212337   0.340   4.962   0.808
 4125TIP3   OH212338   4.527   3.434   0.009
 4125TIP3    H112339   4.539   3.452   0.102
 4125TIP3    H212340   4.525   3.338   0.003
 4126TIP3   OH212341   1.713   4.011   1.389
 4126TIP3    H112342   1.635   3.963   1.417
 4126TIP3    H212343   1.698   4.101   1.418
 4127TIP3   OH212344   2.426   2.480   1.502
 4127TIP3    H112345   2.387   2.459   1.587
 4127TIP3    H212346   2.352   2.481   1.441
 4128TIP3   OH212347   0.672   4.111   0.457
 4128TIP3    H112348   0.608   4.089   0.524
 4128TIP3    H212349   0.623   4.109   0.375
 4129TIP3   OH212350   5.232   4.787   0.098
 4129TIP3    H112351   5.183   4.807   0.178
 4129TIP3    H212352   5.318   4.826   0.113
 4130TIP3   OH212353   5.475   3.110   2.097
 4130TIP3    H112354   5.452   3.135   2.008
 4130TIP3    H212355   5.525   3.185   2.131
 4131TIP3   OH212356   4.225   0.508   3.970
 4131TIP3    H112357   4.299   0.505   4.031
 4131TIP3    H212358   4.263   0.535   3.887
 4132TIP3   OH212359   7.052   1.213   0.810
 4132TIP3    H112360   6.988   1.211   0.881
 4132TIP3    H212361   7.117   1.147   0.834
 4133TIP3   OH212362   4.230   4.563   4.856
 4133TIP3    H112363   4.217   4.478   4.814
 4133TIP3    H212364   4.286   4.544   4.931
 4134TIP3   OH212365   6.309   5.716   4.340
 4134TIP3    H112366   6.276   5.664   4.267
 4134TIP3    H212367   6.396   5.743   4.312
 4135TIP3   OH212368   4.634   0.315   4.366
 4135TIP3    H112369   4.727   0.335   4.380
 4135TIP3    H212370   4.623   0.318   4.271
 4136TIP3   OH212371   1.942   3.887   5.751
 4136TIP3    H112372   2.006   3.947   5.712
 4136TIP3    H212373   1.889   3.858   5.677
 4137TIP3   OH212374   1.874   0.348   2.540
 4137TIP3    H112375   1.878   0.270   2.597
 4137TIP3    H212376   1.966   0.373   2.529
 4138TIP3   OH212377   4.337   2.202   1.495
 4138TIP3    H112378   4.390   2.271   1.535
 4138TIP3    H212379   4.365   2.121   1.537
 4139TIP3   OH212380   2.283   4.751   4.270
 4139TIP3    H112381   2.222   4.717   4.335
 4139TIP3    H212382   2.318   4.673   4.227
 4140TIP3   OH212383   2.864   2.152   3.959
 4140TIP3    H112384   2.859   2.056   3.959
 4140TIP3    H212385   2.898   2.174   4.046
 4141TIP3   OH212386   2.244   4.635   5.330
 4141TIP3    H112387   2.308   4.594   5.272
 4141TIP3    H212388   2.168   4.577   5.328
 4142TIP3   OH212389   1.861   2.080   2.508
 4142TIP3    H112390   1.948   2.108   2.534
 4142TIP3    H212391   1.844   2.127   2.426
 4143TIP3   OH212392   4.089   4.625   3.177
 4143TIP3    H112393   4.167   4.628   3.121
 4143TIP3    H212394   4.027   4.572   3.128
 4144TIP3   OH212395   4.841   3.956   0.151
 4144TIP3    H112396   4.834   3.950   0.056
 4144TIP3    H212397   4.907   3.891   0.175
 4145TIP3   OH212398   2.247   6.712   1.507
 4145TIP3    H112399   2.304   6.662   1.565
 4145TIP3    H212400   2.159   6.703   1.545
 4146TIP3   OH212401   2.587   5.039   1.405
 4146TIP3    H112402   2.642   5.113   1.429
 4146TIP3    H212403   2.546   5.012   1.487
 4147TIP3   OH212404   3.396   0.846   2.696
 4147TIP3    H112405   3.351   0.799   2.766
 4147TIP3    H212406   3.462   0.784   2.665
 4148TIP3   OH212407   6.983   6.333   4.197
 4148TIP3    H112408   7.055   6.296   4.145
 4148TIP3    H212409   7.012   6.324   4.288
 4149TIP3   OH212410   4.553   1.970   4.615
 4149TIP3    H112411   4.571   2.031   4.687
 4149TIP3    H212412   4.579   1.885   4.649
 4150TIP3   OH212413   3.285   6.802   1.520
 4150TIP3    H112414   3.229   6.780   1.594
 4150TIP3    H212415   3.370   6.764   1.543
 4151TIP3   OH212416   0.741   1.993   1.671
 4151TIP3    H112417   0.687   1.914   1.672
 4151TIP3    H212418   0.765   2.006   1.763
 4152TIP3   OH212419   7.206   6.725   4.700
 4152TIP3    H112420   7.218   6.775   4.620
 4152TIP3    H212421   7.162   6.785   4.760
 4153TIP3   OH212422   3.131   2.250   4.084
 4153TIP3    H112423   3.198   2.201   4.036
 4153TIP3    H212424   3.127   2.207   4.170
 4154TIP3   OH212425   4.673   5.665   1.685
 4154TIP3    H112426   4.765   5.640   1.685
 4154TIP3    H212427   4.667   5.735   1.621
 4155TIP3   OH212428   5.791   1.882   0.249
 4155TIP3    H112429   5.721   1.947   0.247
 4155TIP3    H212430   5.763   1.816   0.185
 4156TIP3   OH212431   3.748   2.738   4.147
 4156TIP3    H112432   3.833   2.777   4.167
 4156TIP3    H212433   3.696   2.811   4.112
 4157TIP3   OH212434   2.843   1.175   1.549
 4157TIP3    H112435   2.794   1.254   1.574
 4157TIP3    H212436   2.794   1.103   1.590
 4158TIP3   OH212437   5.607   0.216   5.459
 4158TIP3    H112438   5.618   0.257   5.544
 4158TIP3    H212439   5.659   0.270   5.399
 4159TIP3   OH212440   6.131   2.101   0.510
 4159TIP3    H112441   6.209   2.102   0.566
 4159TIP3    H212442   6.165   2.089   0.421
 4160TIP3   OH212443   4.674   5.875   5.467
 4160TIP3    H112444   4.659   5.888   5.561
 4160TIP3    H212445   4.709   5.959   5.437
 4161TIP3   OH212446   5.035   3.740   1.384
 4161TIP3    H112447   5.072   3.664   1.429
 4161TIP3    H212448   4.946   3.747   1.419
 4162TIP3   OH212449   2.817   0.269   3.469
 4162TIP3    H112450   2.825   0.176   3.450
 4162TIP3    H212451   2.825   0.311   3.384
 4163TIP3   OH212452   6.552   6.494   1.108
 4163TIP3    H112453   6.515   6.498   1.196
 4163TIP3    H212454   6.646   6.510   1.121
 4164TIP3   OH212455   6.605   0.493   4.698
 4164TIP3    H112456   6.679   0.499   4.758
 4164TIP3    H212457   6.645   0.498   4.611
 4165TIP3   OH212458   5.940   3.286   1.073
 4165TIP3    H112459   5.863   3.341   1.054
 4165TIP3    H212460   6.015   3.342   1.054
 4166TIP3   OH212461   2.594   0.722   0.451
 4166TIP3    H112462   2.511   0.766   0.431
 4166TIP3    H212463   2.628   0.769   0.527
 4167TIP3   OH212464   0.702   0.414   0.987
 4167TIP3    H112465   0.795   0.403   0.965
 4167TIP3    H212466   0.703   0.473   1.063
 4168TIP3   OH212467   0.220   3.341   4.697
 4168TIP3    H112468   0.157   3.366   4.765
 4168TIP3    H212469   0.305   3.359   4.737
 4169TIP3   OH212470   4.425   6.794   2.198
 4169TIP3    H112471   4.460   6.712   2.232
 4169TIP3    H212472   4.330   6.781   2.195
 4170TIP3   OH212473   3.173   1.828   4.380
 4170TIP3    H112474   3.122   1.768   4.326
 4170TIP3    H212475   3.252   1.846   4.329
 4171TIP3   OH212476   2.017   1.707   1.429
 4171TIP3    H112477   2.058   1.740   1.349
 4171TIP3    H212478   1.930   1.678   1.400
 4172TIP3   OH212479   0.682   5.566   5.699
 4172TIP3    H112480   0.676   5.564   5.795
 4172TIP3    H212481   0.625   5.494   5.670
 4173TIP3   OH212482   0.598   2.034   5.071
 4173TIP3    H112483   0.630   2.008   4.985
 4173TIP3    H212484   0.505   2.054   5.058
 4174TIP3   OH212485   2.991   4.872   5.487
 4174TIP3    H112486   2.937   4.937   5.442
 4174TIP3    H212487   3.059   4.924   5.530
 4175TIP3   OH212488   2.627   4.191   4.874
 4175TIP3    H112489   2.613   4.282   4.900
 4175TIP3    H212490   2.582   4.139   4.940
 4176TIP3   OH212491   1.980   0.032   1.387
 4176TIP3    H112492   2.061   0.075   1.361
 4176TIP3    H212493   1.914   0.067   1.326
 4177TIP3   OH212494   0.772   2.457   4.428
 4177TIP3    H112495   0.760   2.384   4.490
 4177TIP3    H212496   0.705   2.520   4.452
 4178TIP3   OH212497   2.779   3.480   3.849
 4178TIP3    H112498   2.725   3.402   3.833
 4178TIP3    H212499   2.720   3.539   3.897
 4179TIP3   OH212500   3.118   4.988   2.418
 4179TIP3    H112501   3.188   5.038   2.374
 4179TIP3    H212502   3.164   4.934   2.483
 4180TIP3   OH212503   6.075   1.609   5.314
 4180TIP3    H112504   6.014   1.536   5.305
 4180TIP3    H212505   6.038   1.678   5.259
 4181TIP3   OH212506   2.763   4.579   5.215
 4181TIP3    H112507   2.696   4.564   5.282
 4181TIP3    H212508   2.716   4.618   5.142
 4182TIP3   OH212509   3.075   3.577   5.073
 4182TIP3    H112510   3.025   3.650   5.036
 4182TIP3    H212511   3.011   3.529   5.126
 4183TIP3   OH212512   4.109   4.836   2.159
 4183TIP3    H112513   4.124   4.914   2.105
 4183TIP3    H212514   4.193   4.819   2.201
 4184TIP3   OH212515   2.440   3.355   5.522
 4184TIP3    H112516   2.394   3.292   5.578
 4184TIP3    H212517   2.482   3.301   5.455
 4185TIP3   OH212518   6.986   4.250   1.736
 4185TIP3    H112519   7.063   4.305   1.746
 4185TIP3    H212520   7.019   4.160   1.743
 4186TIP3   OH212521   5.012   5.825   4.876
 4186TIP3    H112522   5.083   5.804   4.815
 4186TIP3    H212523   4.936   5.841   4.819
 4187TIP3   OH212524   2.593   2.714   1.834
 4187TIP3    H112525   2.602   2.788   1.894
 4187TIP3    H212526   2.671   2.718   1.779
 4188TIP3   OH212527   4.745   6.091   2.188
 4188TIP3    H112528   4.827   6.070   2.234
 4188TIP3    H212529   4.772   6.103   2.097
 4189TIP3   OH212530   4.914   2.411   5.386
 4189TIP3    H112531   4.850   2.414   5.458
 4189TIP3    H212532   4.904   2.495   5.341
 4190TIP3   OH212533   4.593   0.147   1.808
 4190TIP3    H112534   4.526   0.200   1.852
 4190TIP3    H212535   4.611   0.194   1.727
 4191TIP3   OH212536   7.082   1.767   5.211
 4191TIP3    H112537   7.177   1.771   5.207
 4191TIP3    H212538   7.053   1.775   5.120
 4192TIP3   OH212539   4.632   2.832   1.659
 4192TIP3    H112540   4.639   2.928   1.659
 4192TIP3    H212541   4.549   2.815   1.703
 4193TIP3   OH212542   3.337   2.144   4.371
 4193TIP3    H112543   3.380   2.143   4.456
 4193TIP3    H212544   3.400   2.104   4.311
 4194TIP3   OH212545   6.963   0.619   3.626
 4194TIP3    H112546   7.018   0.608   3.549
 4194TIP3    H212547   7.014   0.676   3.684
 4195TIP3   OH212548  -0.018   5.787   5.150
 4195TIP3    H112549   0.046   5.813   5.216
 4195TIP3    H212550   0.034   5.744   5.082
 4196TIP3   OH212551   6.364   1.858   2.947
 4196TIP3    H112552   6.279   1.835   2.986
 4196TIP3    H212553   6.342   1.922   2.880
 4197TIP3   OH212554   5.287   6.707   5.890
 4197TIP3    H112555   5.376   6.733   5.866
 4197TIP3    H212556   5.232   6.740   5.820
 4198TIP3   OH212557   5.331   5.529   2.367
 4198TIP3    H112558   5.304   5.553   2.278
 4198TIP3    H212559   5.268   5.574   2.424
 4199TIP3   OH212560   0.456   0.288   1.942
 4199TIP3    H112561   0.416   0.284   1.855
 4199TIP3    H212562   0.431   0.206   1.983
 4200TIP3   OH212563   6.761   2.551   1.558
 4200TIP3    H112564   6.765   2.459   1.534
 4200TIP3    H212565   6.816   2.559   1.635
 4201TIP3   OH212566   7.047   0.708   1.908
 4201TIP3    H112567   7.037   0.707   2.003
 4201TIP3    H212568   7.049   0.615   1.883
 4202TIP3   OH212569   2.185   3.184   0.159
 4202TIP3    H112570   2.094   3.179   0.128
 4202TIP3    H212571   2.238   3.163   0.082
 4203TIP3   OH212572   1.635   5.728   5.736
 4203TIP3    H112573   1.568   5.743   5.670
 4203TIP3    H212574   1.620   5.638   5.766
 4204TIP3   OH212575   4.795   0.457   1.776
 4204TIP3    H112576   4.754   0.471   1.862
 4204TIP3    H212577   4.869   0.517   1.775
 4205TIP3   OH212578   6.094   5.386   0.907
 4205TIP3    H112579   6.028   5.334   0.953
 4205TIP3    H212580   6.114   5.336   0.828
 4206TIP3   OH212581   0.561   0.479   3.117
 4206TIP3    H112582   0.594   0.501   3.030
 4206TIP3    H212583   0.526   0.561   3.151
 4207TIP3   OH212584   4.859   2.238   1.804
 4207TIP3    H112585   4.935   2.182   1.824
 4207TIP3    H212586   4.792   2.211   1.867
 4208TIP3   OH212587   4.385   2.992   2.118
 4208TIP3    H112588   4.301   2.949   2.132
 4208TIP3    H212589   4.364   3.071   2.068
 4209TIP3   OH212590   2.313   5.508   4.403
 4209TIP3    H112591   2.243   5.477   4.346
 4209TIP3    H212592   2.268   5.536   4.483
 4210TIP3   OH212593   3.810   6.632   4.979
 4210TIP3    H112594   3.847   6.703   5.031
 4210TIP3    H212595   3.805   6.558   5.038
 4211TIP3   OH212596   5.774   2.332   2.559
 4211TIP3    H112597   5.864   2.347   2.532
 4211TIP3    H212598   5.725   2.403   2.518
 4212TIP3   OH212599   0.322   5.894   0.178
 4212TIP3    H112600   0.370   5.894   0.261
 4212TIP3    H212601   0.385   5.927   0.113
 4213TIP3   OH212602   6.560   5.510   0.056
 4213TIP3    H112603   6.597   5.576   0.114
 4213TIP3    H212604   6.531   5.559  -0.020
 4214TIP3   OH212605   6.748   2.816   0.049
 4214TIP3    H112606   6.829   2.861   0.024
 4214TIP3    H212607   6.687   2.886   0.073
 4215TIP3   OH212608   4.000   2.882   4.203
 4215TIP3    H112609   3.999   2.838   4.288
 4215TIP3    H212610   3.950   2.962   4.217
 4216TIP3   OH212611   0.510   3.535   0.095
 4216TIP3    H112612   0.445   3.465   0.092
 4216TIP3    H212613   0.511   3.562   0.187
 4217TIP3   OH212614   6.328   0.482   5.064
 4217TIP3    H112615   6.240   0.474   5.027
 4217TIP3    H212616   6.387   0.471   4.989
 4218TIP3   OH212617   3.565   4.511   4.923
 4218TIP3    H112618   3.626   4.557   4.865
 4218TIP3    H212619   3.489   4.568   4.927
 4219TIP3   OH212620   4.322   3.245   5.198
 4219TIP3    H112621   4.377   3.181   5.154
 4219TIP3    H212622   4.383   3.294   5.254
 4220TIP3   OH212623   6.487   3.095   5.597
 4220TIP3    H112624   6.520   3.172   5.550
 4220TIP3    H212625   6.536   3.021   5.560
 4221TIP3   OH212626   5.157   6.529   4.021
 4221TIP3    H112627   5.101   6.606   4.015
 4221TIP3    H212628   5.227   6.546   3.958
 4222TIP3   OH212629   4.092   4.787   0.124
 4222TIP3    H112630   4.066   4.696   0.106
 4222TIP3    H212631   4.010   4.830   0.149
 4223TIP3   OH212632   6.410   1.445   4.846
 4223TIP3    H112633   6.432   1.449   4.753
 4223TIP3    H212634   6.323   1.405   4.848
 4224TIP3   OH212635   6.326   4.831   1.272
 4224TIP3    H112636   6.238   4.867   1.266
 4224TIP3    H212637   6.315   4.738   1.254
 4225TIP3   OH212638   3.060   1.926   5.173
 4225TIP3    H112639   3.005   1.854   5.202
 4225TIP3    H212640   3.000   2.000   5.163
 4226TIP3   OH212641   2.331   1.761   5.113
 4226TIP3    H112642   2.348   1.834   5.173
 4226TIP3    H212643   2.290   1.694   5.168
 4227TIP3   OH212644   1.662   0.783   0.509
 4227TIP3    H112645   1.735   0.842   0.529
 4227TIP3    H212646   1.640   0.803   0.418
 4228TIP3   OH212647   2.999   0.771   0.201
 4228TIP3    H112648   3.010   0.676   0.206
 4228TIP3    H212649   2.909   0.784   0.173
 4229TIP3   OH212650   1.667   0.945   5.045
 4229TIP3    H112651   1.650   0.853   5.023
 4229TIP3    H212652   1.611   0.963   5.120
 4230TIP3   OH212653   4.678   5.462   4.314
 4230TIP3    H112654   4.618   5.512   4.258
 4230TIP3    H212655   4.757   5.452   4.261
 4231TIP3   OH212656   3.575   4.878   5.573
 4231TIP3    H112657   3.536   4.879   5.485
 4231TIP3    H212658   3.521   4.939   5.623
 4232TIP3   OH212659   0.585   3.731   0.683
 4232TIP3    H112660   0.678   3.711   0.671
 4232TIP3    H212661   0.556   3.670   0.751
 4233TIP3   OH212662   7.148   4.611   3.287
 4233TIP3    H112663   7.142   4.612   3.191
 4233TIP3    H212664   7.057   4.623   3.316
 4234TIP3   OH212665   0.745   6.236   2.931
 4234TIP3    H112666   0.695   6.170   2.980
 4234TIP3    H212667   0.723   6.319   2.973
 4235TIP3   OH212668   6.631   0.566   1.742
 4235TIP3    H112669   6.613   0.550   1.650
 4235TIP3    H212670   6.640   0.479   1.781
 4236TIP3   OH212671   5.978   6.151   3.220
 4236TIP3    H112672   5.957   6.059   3.202
 4236TIP3    H212673   6.073   6.151   3.236
 4237TIP3   OH212674   4.617   6.152   0.345
 4237TIP3    H112675   4.709   6.164   0.370
 4237TIP3    H212676   4.582   6.241   0.344
 4238TIP3   OH212677   5.904   6.148   0.804
 4238TIP3    H112678   5.985   6.110   0.771
 4238TIP3    H212679   5.835   6.090   0.771
 4239TIP3   OH212680   3.322   6.552   3.629
 4239TIP3    H112681   3.386   6.622   3.644
 4239TIP3    H212682   3.260   6.589   3.566
 4240TIP3   OH212683   3.466   6.536   2.537
 4240TIP3    H112684   3.463   6.481   2.616
 4240TIP3    H212685   3.558   6.535   2.511
 4241TIP3   OH212686   4.538   4.839   4.283
 4241TIP3    H112687   4.611   4.838   4.345
 4241TIP3    H212688   4.496   4.754   4.293
 4242TIP3   OH212689   0.413   0.811   0.393
 4242TIP3    H112690   0.485   0.862   0.356
 4242TIP3    H212691   0.453   0.761   0.464
 4243TIP3   OH212692   2.067   1.068   0.266
 4243TIP3    H112693   2.132   1.137   0.276
 4243TIP3    H212694   1.985   1.108   0.295
 4244TIP3   OH212695   5.798   3.988   0.635
 4244TIP3    H112696   5.796   3.985   0.539
 4244TIP3    H212697   5.719   4.038   0.659
 4245TIP3   OH212698   1.794   2.404   2.158
 4245TIP3    H112699   1.834   2.483   2.194
 4245TIP3    H212700   1.726   2.436   2.098
 4246TIP3   OH212701   1.699   3.313   1.551
 4246TIP3    H112702   1.771   3.344   1.497
 4246TIP3    H212703   1.718   3.347   1.639
 4247TIP3   OH212704   2.725   4.044   3.742
 4247TIP3    H112705   2.646   3.994   3.766
 4247TIP3    H212706   2.719   4.056   3.647
 4248TIP3   OH212707   5.405   3.065   5.871
 4248TIP3    H112708   5.310   3.057   5.858
 4248TIP3    H212709   5.418   3.158   5.894
 4249TIP3   OH212710   3.719   0.878   0.432
 4249TIP3    H112711   3.792   0.834   0.388
 4249TIP3    H212712   3.682   0.812   0.490
 4250TIP3   OH212713   0.941   4.102   2.993
 4250TIP3    H112714   0.923   4.009   3.008
 4250TIP3    H212715   0.973   4.106   2.903
 4251TIP3   OH212716   0.661   1.413   0.505
 4251TIP3    H112717   0.701   1.331   0.475
 4251TIP3    H212718   0.657   1.403   0.600
 4252TIP3   OH212719   5.183   4.892   0.850
 4252TIP3    H112720   5.172   4.911   0.943
 4252TIP3    H212721   5.188   4.797   0.844
 4253TIP3   OH212722   6.567   0.248   4.277
 4253TIP3    H112723   6.495   0.290   4.323
 4253TIP3    H212724   6.525   0.187   4.216
 4254TIP3   OH212725   2.259   2.951   2.293
 4254TIP3    H112726   2.212   2.952   2.209
 4254TIP3    H212727   2.257   3.041   2.323
 4255TIP3   OH212728   6.355   4.451   4.972
 4255TIP3    H112729   6.365   4.545   4.955
 4255TIP3    H212730   6.375   4.409   4.888
 4256TIP3   OH212731   3.953   3.460   1.169
 4256TIP3    H112732   4.006   3.539   1.163
 4256TIP3    H212733   3.998   3.406   1.234
 4257TIP3   OH212734   0.714   0.555   3.657
 4257TIP3    H112735   0.712   0.559   3.561
 4257TIP3    H212736   0.718   0.647   3.685
 4258TIP3   OH212737   6.349   4.280   1.206
 4258TIP3    H112738   6.269   4.279   1.153
 4258TIP3    H212739   6.352   4.194   1.248
 4259TIP3   OH212740   3.636   5.470   2.354
 4259TIP3    H112741   3.573   5.535   2.384
 4259TIP3    H212742   3.617   5.392   2.406
 4260TIP3   OH212743   7.204   2.233   4.480
 4260TIP3    H112744   7.246   2.253   4.563
 4260TIP3    H212745   7.110   2.234   4.499
 4261TIP3   OH212746   3.811   4.337   3.177
 4261TIP3    H112747   3.717   4.321   3.190
 4261TIP3    H212748   3.838   4.388   3.253
 4262TIP3   OH212749   2.919   5.746   1.364
 4262TIP3    H112750   2.898   5.658   1.393
 4262TIP3    H212751   2.983   5.734   1.293
 4263TIP3   OH212752   0.178   6.756   3.578
 4263TIP3    H112753   0.185   6.770   3.484
 4263TIP3    H212754   0.265   6.775   3.612
 4264TIP3   OH212755   6.750   1.349   4.074
 4264TIP3    H112756   6.689   1.290   4.029
 4264TIP3    H212757   6.787   1.296   4.144
 4265TIP3   OH212758   3.438   3.516   4.865
 4265TIP3    H112759   3.362   3.499   4.809
 4265TIP3    H212760   3.401   3.547   4.947
 4266TIP3   OH212761   5.552   0.178   0.753
 4266TIP3    H112762   5.497   0.236   0.806
 4266TIP3    H212763   5.629   0.230   0.731
 4267TIP3   OH212764   2.525   3.876   0.852
 4267TIP3    H112765   2.549   3.784   0.858
 4267TIP3    H212766   2.549   3.912   0.938
 4268TIP3   OH212767   1.584   2.786   1.817
 4268TIP3    H112768   1.585   2.703   1.864
 4268TIP3    H212769   1.581   2.852   1.886
 4269TIP3   OH212770   4.674   4.796   1.447
 4269TIP3    H112771   4.765   4.766   1.456
 4269TIP3    H212772   4.654   4.783   1.355
 4270TIP3   OH212773   4.665   3.400   5.711
 4270TIP3    H112774   4.664   3.308   5.736
 4270TIP3    H212775   4.731   3.440   5.767
 4271TIP3   OH212776   1.864   3.960   4.143
 4271TIP3    H112777   1.825   4.031   4.194
 4271TIP3    H212778   1.909   4.004   4.071
 4272TIP3   OH212779   5.968   1.980   2.458
 4272TIP3    H112780   6.031   2.051   2.455
 4272TIP3    H212781   5.883   2.022   2.446
 4273TIP3   OH212782   5.580   2.799   3.223
 4273TIP3    H112783   5.603   2.713   3.189
 4273TIP3    H212784   5.498   2.821   3.179
 4274TIP3   OH212785   3.824   0.733   5.040
 4274TIP3    H112786   3.808   0.733   5.135
 4274TIP3    H212787   3.910   0.774   5.030
 4275TIP3   OH212788   1.255   5.075   2.763
 4275TIP3    H112789   1.341   5.108   2.737
 4275TIP3    H212790   1.239   5.115   2.848
 4276TIP3   OH212791   4.040   6.285   0.669
 4276TIP3    H112792   4.000   6.203   0.699
 4276TIP3    H212793   4.125   6.259   0.633
 4277TIP3   OH212794   2.541   1.163   4.910
 4277TIP3    H112795   2.472   1.098   4.926
 4277TIP3    H212796   2.622   1.111   4.907
 4278TIP3   OH212797   5.243   0.349   1.458
 4278TIP3    H112798   5.167   0.317   1.507
 4278TIP3    H212799   5.238   0.444   1.466
 4279TIP3   OH212800   6.137   5.387   3.944
 4279TIP3    H112801   6.124   5.316   3.881
 4279TIP3    H212802   6.068   5.374   4.009
 4280TIP3   OH212803   4.913   3.270   3.000
 4280TIP3    H112804   4.890   3.188   3.045
 4280TIP3    H212805   5.007   3.278   3.013
 4281TIP3   OH212806   5.364   2.411   0.655
 4281TIP3    H112807   5.421   2.361   0.714
 4281TIP3    H212808   5.341   2.349   0.585
 4282TIP3   OH212809   1.157   6.094   4.536
 4282TIP3    H112810   1.068   6.126   4.552
 4282TIP3    H212811   1.145   6.012   4.489
 4283TIP3   OH212812   4.579   0.704   5.286
 4283TIP3    H112813   4.656   0.712   5.229
 4283TIP3    H212814   4.613   0.665   5.366
 4284TIP3   OH212815   5.292   4.846   1.620
 4284TIP3    H112816   5.252   4.761   1.639
 4284TIP3    H212817   5.386   4.831   1.628
 4285TIP3   OH212818   5.371   0.143   1.627
 4285TIP3    H112819   5.277   0.126   1.633
 4285TIP3    H212820   5.380   0.207   1.556
 4286TIP3   OH212821   5.794   6.460   1.588
 4286TIP3    H112822   5.703   6.448   1.615
 4286TIP3    H212823   5.805   6.554   1.582
 4287TIP3   OH212824   2.924   1.660   1.862
 4287TIP3    H112825   2.929   1.570   1.829
 4287TIP3    H212826   3.015   1.688   1.872
 4288TIP3   OH212827   0.055   6.121   2.171
 4288TIP3    H112828   0.059   6.148   2.262
 4288TIP3    H212829   0.141   6.083   2.153
 4289TIP3   OH212830   3.569   1.948   2.277
 4289TIP3    H112831   3.594   1.856   2.267
 4289TIP3    H212832   3.476   1.950   2.254
 4290TIP3   OH212833   4.682   1.611   2.634
 4290TIP3    H112834   4.755   1.578   2.582
 4290TIP3    H212835   4.719   1.687   2.680
 4291TIP3   OH212836   5.835   3.334   4.458
 4291TIP3    H112837   5.856   3.246   4.427
 4291TIP3    H212838   5.812   3.321   4.550
 4292TIP3   OH212839   0.563   5.173   2.187
 4292TIP3    H112840   0.645   5.137   2.222
 4292TIP3    H212841   0.590   5.227   2.113
 4293TIP3   OH212842   4.205   2.968   3.197
 4293TIP3    H112843   4.164   2.934   3.117
 4293TIP3    H212844   4.157   3.048   3.216
 4294TIP3   OH212845   5.261   1.427   0.464
 4294TIP3    H112846   5.291   1.439   0.374
 4294TIP3    H212847   5.311   1.492   0.515
 4295TIP3   OH212848   5.048   2.126   2.241
 4295TIP3    H112849   5.037   2.195   2.176
 4295TIP3    H212850   5.068   2.048   2.189
 4296TIP3   OH212851   4.772   1.504   0.247
 4296TIP3    H112852   4.863   1.526   0.268
 4296TIP3    H212853   4.747   1.438   0.312
 4297TIP3   OH212854   1.865   1.258   3.426
 4297TIP3    H112855   1.854   1.331   3.487
 4297TIP3    H212856   1.876   1.182   3.482
 4298TIP3   OH212857   0.950   3.368   1.829
 4298TIP3    H112858   0.955   3.359   1.734
 4298TIP3    H212859   0.962   3.280   1.863
 4299TIP3   OH212860   7.194   6.133   1.539
 4299TIP3    H112861   7.189   6.225   1.565
 4299TIP3    H212862   7.148   6.086   1.608
 4300TIP3   OH212863   2.013   2.727   4.693
 4300TIP3    H112864   1.975   2.657   4.641
 4300TIP3    H212865   1.945   2.749   4.757
 4301TIP3   OH212866   6.924   0.900   4.012
 4301TIP3    H112867   6.914   0.817   4.058
 4301TIP3    H212868   6.979   0.880   3.937
 4302TIP3   OH212869   6.307   1.860   4.367
 4302TIP3    H112870   6.257   1.829   4.292
 4302TIP3    H212871   6.265   1.943   4.390
 4303TIP3   OH212872   0.640   1.323   0.797
 4303TIP3    H112873   0.587   1.385   0.847
 4303TIP3    H212874   0.724   1.320   0.843
 4304TIP3   OH212875   2.680   5.199   5.180
 4304TIP3    H112876   2.639   5.153   5.106
 4304TIP3    H212877   2.628   5.279   5.191
 4305TIP3   OH212878   0.396   4.633   0.910
 4305TIP3    H112879   0.389   4.579   0.832
 4305TIP3    H212880   0.306   4.662   0.927
 4306TIP3   OH212881   1.280   1.309   2.282
 4306TIP3    H112882   1.304   1.399   2.301
 4306TIP3    H212883   1.360   1.259   2.297
 4307TIP3   OH212884   0.983   0.391   3.427
 4307TIP3    H112885   1.052   0.455   3.408
 4307TIP3    H212886   1.029   0.307   3.430
 4308TIP3   OH212887   6.867   2.026   3.829
 4308TIP3    H112888   6.791   2.072   3.866
 4308TIP3    H212889   6.935   2.093   3.822
 4309TIP3   OH212890   6.713   0.922   2.760
 4309TIP3    H112891   6.657   0.990   2.798
 4309TIP3    H212892   6.764   0.888   2.834
 4310TIP3   OH212893   3.788   4.453   5.573
 4310TIP3    H112894   3.736   4.409   5.640
 4310TIP3    H212895   3.766   4.407   5.492
 4311TIP3   OH212896   5.954   2.526   0.333
 4311TIP3    H112897   5.874   2.533   0.386
 4311TIP3    H212898   6.000   2.451   0.371
 4312TIP3   OH212899   4.225   3.485   5.082
 4312TIP3    H112900   4.293   3.467   5.017
 4312TIP3    H212901   4.220   3.404   5.134
 4313TIP3   OH212902   6.646   1.160   1.511
 4313TIP3    H112903   6.682   1.139   1.598
 4313TIP3    H212904   6.555   1.182   1.528
 4314TIP3   OH212905   4.935   0.238   4.767
 4314TIP3    H112906   4.897   0.174   4.827
 4314TIP3    H212907   5.029   0.223   4.772
 4315TIP3   OH212908   0.600   4.237   2.037
 4315TIP3    H112909   0.569   4.283   2.115
 4315TIP3    H212910   0.568   4.290   1.964
 4316TIP3   OH212911   4.284   4.199   2.789
 4316TIP3    H112912   4.273   4.127   2.727
 4316TIP3    H212913   4.216   4.262   2.763
 4317TIP3   OH212914   3.357   5.552   0.805
 4317TIP3    H112915   3.350   5.589   0.893
 4317TIP3    H212916   3.274   5.507   0.792
 4318TIP3   OH212917   0.819   6.344   5.453
 4318TIP3    H112918   0.876   6.418   5.470
 4318TIP3    H212919   0.771   6.331   5.535
 4319TIP3   OH212920   4.907   3.447   2.620
 4319TIP3    H112921   4.910   3.522   2.561
 4319TIP3    H212922   4.918   3.371   2.563
 4320TIP3   OH212923   2.233   1.144   3.365
 4320TIP3    H112924   2.236   1.153   3.460
 4320TIP3    H212925   2.148   1.103   3.348
 4321TIP3   OH212926   5.600   4.469   5.385
 4321TIP3    H112927   5.584   4.389   5.435
 4321TIP3    H212928   5.519   4.482   5.335
 4322TIP3   OH212929   6.602   1.088   2.983
 4322TIP3    H112930   6.541   1.142   3.034
 4322TIP3    H212931   6.688   1.124   3.002
 4323TIP3   OH212932   6.513   1.066   3.265
 4323TIP3    H112933   6.506   0.971   3.268
 4323TIP3    H212934   6.552   1.090   3.349
 4324TIP3   OH212935   0.432   4.594   5.213
 4324TIP3    H112936   0.433   4.590   5.117
 4324TIP3    H212937   0.487   4.670   5.234
 4325TIP3   OH212938   1.564   1.858   5.697
 4325TIP3    H112939   1.515   1.927   5.740
 4325TIP3    H212940   1.539   1.863   5.605
 4326TIP3   OH212941   5.296   3.880   3.964
 4326TIP3    H112942   5.365   3.910   3.904
 4326TIP3    H212943   5.322   3.791   3.987
 4327TIP3   OH212944   4.326   5.186   1.429
 4327TIP3    H112945   4.273   5.213   1.503
 4327TIP3    H212946   4.374   5.109   1.460
 4328TIP3   OH212947   5.090   6.703   5.225
 4328TIP3    H112948   5.042   6.659   5.155
 4328TIP3    H212949   5.178   6.715   5.189
 4329TIP3   OH212950   1.677   6.120   2.585
 4329TIP3    H112951   1.772   6.114   2.591
 4329TIP3    H212952   1.658   6.213   2.590
 4330TIP3   OH212953   3.869   0.658   0.812
 4330TIP3    H112954   3.946   0.613   0.776
 4330TIP3    H212955   3.857   0.619   0.898
 4331TIP3   OH212956   6.169   3.940   0.627
 4331TIP3    H112957   6.155   3.933   0.722
 4331TIP3    H212958   6.105   3.880   0.589
 4332TIP3   OH212959   1.274   6.527   3.387
 4332TIP3    H112960   1.347   6.476   3.422
 4332TIP3    H212961   1.251   6.587   3.459
 4333TIP3   OH212962   3.754   4.598   4.503
 4333TIP3    H112963   3.773   4.508   4.478
 4333TIP3    H212964   3.683   4.592   4.567
 4334TIP3   OH212965   0.442   0.634   5.647
 4334TIP3    H112966   0.465   0.624   5.555
 4334TIP3    H212967   0.524   0.659   5.690
 4335TIP3   OH212968   4.163   4.877   2.479
 4335TIP3    H112969   4.186   4.874   2.572
 4335TIP3    H212970   4.129   4.789   2.461
 4336TIP3   OH212971   5.808   2.175   0.380
 4336TIP3    H112972   5.861   2.188   0.301
 4336TIP3    H212973   5.794   2.081   0.385
 4337TIP3   OH212974   1.986   4.831   3.330
 4337TIP3    H112975   1.940   4.908   3.366
 4337TIP3    H212976   2.052   4.868   3.272
 4338TIP3   OH212977   0.160   5.189   2.561
 4338TIP3    H112978   0.130   5.280   2.565
 4338TIP3    H212979   0.100   5.141   2.618
 4339TIP3   OH212980   2.857   0.552   0.721
 4339TIP3    H112981   2.848   0.479   0.782
 4339TIP3    H212982   2.868   0.510   0.635
 4340TIP3   OH212983   1.789   1.808   5.506
 4340TIP3    H112984   1.835   1.851   5.577
 4340TIP3    H212985   1.766   1.878   5.445
 4341TIP3   OH212986   2.766   0.568   1.115
 4341TIP3    H112987   2.738   0.477   1.111
 4341TIP3    H212988   2.859   0.566   1.090
 4342TIP3   OH212989   2.476   3.231   2.536
 4342TIP3    H112990   2.453   3.240   2.628
 4342TIP3    H212991   2.571   3.244   2.533
 4343TIP3   OH212992   5.030   0.622   5.523
 4343TIP3    H112993   4.994   0.542   5.485
 4343TIP3    H212994   5.122   0.622   5.496
 4344TIP3   OH212995   5.663   6.379   4.569
 4344TIP3    H112996   5.756   6.374   4.590
 4344TIP3    H212997   5.636   6.464   4.601
 4345TIP3   OH212998   1.583   0.093   1.436
 4345TIP3    H112999   1.567   0.085   1.530
 4345TIP3    H213000   1.498   0.080   1.395
 4346TIP3   OH213001   4.298   2.842   4.269
 4346TIP3    H113002   4.237   2.902   4.226
 4346TIP3    H213003   4.246   2.797   4.335
 4347TIP3   OH213004   3.984   5.341   1.359
 4347TIP3    H113005   3.997   5.387   1.442
 4347TIP3    H213006   4.015   5.252   1.376
 4348TIP3   OH213007   2.300   0.637   5.554
 4348TIP3    H113008   2.320   0.574   5.623
 4348TIP3    H213009   2.282   0.584   5.477
 4349TIP3   OH213010   5.817   5.293   3.269
 4349TIP3    H113011   5.799   5.327   3.182
 4349TIP3    H213012   5.753   5.223   3.281
 4350TIP3   OH213013   2.196   1.837   5.417
 4350TIP3    H113014   2.288   1.844   5.393
 4350TIP3    H213015   2.161   1.925   5.403
 4351TIP3   OH213016   4.316   6.506   5.620
 4351TIP3    H113017   4.390   6.512   5.559
 4351TIP3    H213018   4.287   6.415   5.615
 4352TIP3   OH213019   2.760   2.364   0.584
 4352TIP3    H113020   2.837   2.370   0.641
 4352TIP3    H213021   2.686   2.361   0.644
 4353TIP3   OH213022   7.208   5.616   0.655
 4353TIP3    H113023   7.221   5.599   0.749
 4353TIP3    H213024   7.113   5.615   0.644
 4354TIP3   OH213025   4.862   6.117   2.971
 4354TIP3    H113026   4.783   6.104   2.917
 4354TIP3    H213027   4.912   6.036   2.960
 4355TIP3   OH213028   6.177   3.372   3.482
 4355TIP3    H113029   6.226   3.293   3.460
 4355TIP3    H213030   6.110   3.342   3.543
 4356TIP3   OH213031   0.448   6.689   3.189
 4356TIP3    H113032   0.444   6.620   3.123
 4356TIP3    H213033   0.491   6.647   3.264
 4357TIP3   OH213034   3.783   5.755   0.090
 4357TIP3    H113035   3.739   5.764   0.005
 4357TIP3    H213036   3.711   5.757   0.153
 4358TIP3   OH213037   6.309   0.601   2.500
 4358TIP3    H113038   6.306   0.592   2.595
 4358TIP3    H213039   6.295   0.694   2.484
 4359TIP3   OH213040   1.202   6.270   3.245
 4359TIP3    H113041   1.111   6.291   3.227
 4359TIP3    H213042   1.223   6.318   3.325
 4360TIP3   OH213043   1.306   2.733   2.755
 4360TIP3    H113044   1.221   2.732   2.798
 4360TIP3    H213045   1.339   2.644   2.764
 4361TIP3   OH213046   2.845   2.939   2.795
 4361TIP3    H113047   2.763   2.948   2.844
 4361TIP3    H213048   2.833   2.860   2.743
 4362TIP3   OH213049   2.601   3.169   1.846
 4362TIP3    H113050   2.664   3.241   1.848
 4362TIP3    H213051   2.532   3.198   1.787
 4363TIP3   OH213052   1.036   1.195   2.306
 4363TIP3    H113053   0.979   1.253   2.357
 4363TIP3    H213054   1.122   1.237   2.309
 4364TIP3   OH213055   6.664   6.495   2.876
 4364TIP3    H113056   6.649   6.414   2.828
 4364TIP3    H213057   6.702   6.554   2.810
 4365TIP3   OH213058   2.583   1.253   3.437
 4365TIP3    H113059   2.642   1.296   3.374
 4365TIP3    H213060   2.617   1.279   3.523
 4366TIP3   OH213061   4.779   2.370   2.283
 4366TIP3    H113062   4.795   2.283   2.320
 4366TIP3    H213063   4.826   2.369   2.199
 4367TIP3   OH213064   3.857   3.141   4.260
 4367TIP3    H113065   3.835   3.140   4.353
 4367TIP3    H213066   3.786   3.191   4.219
 4368TIP3   OH213067   3.291   3.584   3.333
 4368TIP3    H113068   3.354   3.635   3.282
 4368TIP3    H213069   3.247   3.529   3.270
 4369TIP3   OH213070   5.277   5.684   0.321
 4369TIP3    H113071   5.257   5.763   0.271
 4369TIP3    H213072   5.360   5.653   0.285
 4370TIP3   OH213073   3.783   6.389   1.974
 4370TIP3    H113074   3.697   6.424   1.994
 4370TIP3    H213075   3.812   6.440   1.898
 4371TIP3   OH213076   2.457   6.486   1.077
 4371TIP3    H113077   2.364   6.470   1.065
 4371TIP3    H213078   2.477   6.558   1.017
 4372TIP3   OH213079   5.965   4.577   3.179
 4372TIP3    H113080   5.968   4.490   3.218
 4372TIP3    H213081   6.022   4.631   3.234
 4373TIP3   OH213082   1.196   6.096   0.100
 4373TIP3    H113083   1.176   6.126   0.012
 4373TIP3    H213084   1.110   6.082   0.141
 4374TIP3   OH213085   7.050   3.490   0.653
 4374TIP3    H113086   7.109   3.557   0.619
 4374TIP3    H213087   7.107   3.418   0.677
 4375TIP3   OH213088   3.601   0.578   3.930
 4375TIP3    H113089   3.599   0.510   3.998
 4375TIP3    H213090   3.542   0.646   3.962
 4376TIP3   OH213091   6.713   2.448   1.239
 4376TIP3    H113092   6.792   2.470   1.288
 4376TIP3    H213093   6.730   2.481   1.151
 4377TIP3   OH213094   6.168   3.634   1.047
 4377TIP3    H113095   6.264   3.641   1.050
 4377TIP3    H213096   6.150   3.570   0.979
 4378TIP3   OH213097   6.697   3.716   1.738
 4378TIP3    H113098   6.641   3.735   1.662
 4378TIP3    H213099   6.655   3.642   1.781
 4379TIP3   OH213100   6.285   4.020   4.336
 4379TIP3    H113101   6.206   4.071   4.354
 4379TIP3    H213102   6.267   3.933   4.370
 4380TIP3   OH213103   6.651   6.247   1.413
 4380TIP3    H113104   6.596   6.169   1.427
 4380TIP3    H213105   6.714   6.245   1.485
 4381TIP3   OH213106   3.171   5.049   1.215
 4381TIP3    H113107   3.112   5.016   1.147
 4381TIP3    H213108   3.178   4.978   1.278
 4382TIP3   OH213109   3.262   3.875   5.749
 4382TIP3    H113110   3.168   3.865   5.764
 4382TIP3    H213111   3.294   3.922   5.826
 4383TIP3   OH213112   1.849   0.733   4.810
 4383TIP3    H113113   1.802   0.653   4.833
 4383TIP3    H213114   1.781   0.793   4.779
 4384TIP3   OH213115   1.172   3.436   3.852
 4384TIP3    H113116   1.103   3.383   3.890
 4384TIP3    H213117   1.193   3.393   3.769
 4385TIP3   OH213118   6.075   4.491   0.861
 4385TIP3    H113119   6.036   4.570   0.824
 4385TIP3    H213120   6.003   4.428   0.867
 4386TIP3   OH213121   4.416   4.354   1.408
 4386TIP3    H113122   4.372   4.316   1.332
 4386TIP3    H213123   4.508   4.329   1.398
 4387TIP3   OH213124   6.037   6.280   5.877
 4387TIP3    H113125   6.007   6.269   5.787
 4387TIP3    H213126   5.972   6.234   5.930
 4388TIP3   OH213127   3.341   6.131   5.844
 4388TIP3    H113128   3.398   6.204   5.819
 4388TIP3    H213129   3.252   6.163   5.828
 4389TIP3   OH213130   0.878   5.462   5.036
 4389TIP3    H113131   0.934   5.513   5.095
 4389TIP3    H213132   0.902   5.371   5.052
 4390TIP3   OH213133   5.979   0.573   1.854
 4390TIP3    H113134   6.045   0.615   1.799
 4390TIP3    H213135   5.896   0.614   1.827
 4391TIP3   OH213136   0.895   4.229   3.307
 4391TIP3    H113137   0.887   4.325   3.306
 4391TIP3    H213138   0.930   4.208   3.220
 4392TIP3   OH213139   1.739   1.660   1.313
 4392TIP3    H113140   1.669   1.675   1.250
 4392TIP3    H213141   1.766   1.569   1.297
 4393TIP3   OH213142   4.865   5.811   0.439
 4393TIP3    H113143   4.868   5.824   0.534
 4393TIP3    H213144   4.844   5.898   0.404
 4394TIP3   OH213145   4.174   2.876   3.500
 4394TIP3    H113146   4.089   2.916   3.517
 4394TIP3    H213147   4.210   2.927   3.427
 4395TIP3   OH213148   6.830   1.071   1.747
 4395TIP3    H113149   6.835   0.977   1.733
 4395TIP3    H213150   6.818   1.081   1.841
 4396TIP3   OH213151   6.968   6.741   2.215
 4396TIP3    H113152   6.963   6.646   2.205
 4396TIP3    H213153   6.967   6.775   2.126
 4397TIP3   OH213154   3.134   1.552   4.268
 4397TIP3    H113155   3.222   1.520   4.253
 4397TIP3    H213156   3.084   1.474   4.293
 4398TIP3   OH213157   1.190   2.770   2.498
 4398TIP3    H113158   1.183   2.681   2.464
 4398TIP3    H213159   1.210   2.759   2.591
 4399TIP3   OH213160   1.878   2.646   2.203
 4399TIP3    H113161   1.907   2.640   2.112
 4399TIP3    H213162   1.949   2.693   2.247
 4400TIP3   OH213163   2.884   3.441   5.214
 4400TIP3    H113164   2.840   3.486   5.285
 4400TIP3    H213165   2.853   3.350   5.221
 4401TIP3   OH213166   0.696   2.874   1.922
 4401TIP3    H113167   0.709   2.855   1.829
 4401TIP3    H213168   0.604   2.853   1.939
 4402TIP3   OH213169   0.253   1.879   0.285
 4402TIP3    H113170   0.243   1.796   0.331
 4402TIP3    H213171   0.243   1.946   0.352
 4403TIP3   OH213172   0.444   1.162   1.473
 4403TIP3    H113173   0.398   1.177   1.556
 4403TIP3    H213174   0.508   1.233   1.468
 4404TIP3   OH213175   0.488   0.472   3.464
 4404TIP3    H113176   0.580   0.479   3.439
 4404TIP3    H213177   0.440   0.509   3.390
 4405TIP3   OH213178   1.103   2.960   4.095
 4405TIP3    H113179   1.037   3.001   4.150
 4405TIP3    H213180   1.158   3.033   4.066
 4406TIP3   OH213181   3.601   5.346   3.899
 4406TIP3    H113182   3.546   5.380   3.969
 4406TIP3    H213183   3.616   5.255   3.922
 4407TIP3   OH213184   6.832   2.734   1.327
 4407TIP3    H113185   6.777   2.691   1.392
 4407TIP3    H213186   6.886   2.795   1.377
 4408TIP3   OH213187   1.853   3.146   1.886
 4408TIP3    H113188   1.914   3.218   1.872
 4408TIP3    H213189   1.778   3.167   1.831
 4409TIP3   OH213190   6.758   0.896   4.911
 4409TIP3    H113191   6.692   0.956   4.943
 4409TIP3    H213192   6.828   0.899   4.976
 4410TIP3   OH213193   6.839   6.090   4.212
 4410TIP3    H113194   6.857   6.172   4.166
 4410TIP3    H213195   6.827   6.116   4.303
 4411TIP3   OH213196   3.878   6.076   2.970
 4411TIP3    H113197   3.922   6.107   2.891
 4411TIP3    H213198   3.946   6.076   3.038
 4412TIP3   OH213199   1.789   1.265   2.016
 4412TIP3    H113200   1.830   1.216   2.088
 4412TIP3    H213201   1.862   1.297   1.964
 4413TIP3   OH213202   3.013   5.799   2.370
 4413TIP3    H113203   3.027   5.771   2.461
 4413TIP3    H213204   2.940   5.746   2.339
 4414TIP3   OH213205   1.440   2.421   4.377
 4414TIP3    H113206   1.427   2.343   4.432
 4414TIP3    H213207   1.358   2.469   4.383
 4415TIP3   OH213208   2.666   3.625   1.683
 4415TIP3    H113209   2.668   3.600   1.591
 4415TIP3    H213210   2.734   3.691   1.692
 4416TIP3   OH213211   6.193   1.307   5.516
 4416TIP3    H113212   6.208   1.221   5.555
 4416TIP3    H213213   6.165   1.289   5.427
 4417TIP3   OH213214   5.926   0.681   5.784
 4417TIP3    H113215   5.852   0.620   5.780
 4417TIP3    H213216   5.954   0.678   5.876
 4418TIP3   OH213217   6.668   2.137   2.930
 4418TIP3    H113218   6.705   2.086   3.002
 4418TIP3    H213219   6.575   2.144   2.951
 4419TIP3   OH213220   3.665   6.573   4.451
 4419TIP3    H113221   3.623   6.605   4.371
 4419TIP3    H213222   3.662   6.647   4.511
 4420TIP3   OH213223   7.130   1.020   0.033
 4420TIP3    H113224   7.034   1.015   0.028
 4420TIP3    H213225   7.154   0.958   0.102
 4421TIP3   OH213226   6.942   5.129   1.344
 4421TIP3    H113227   6.964   5.079   1.266
 4421TIP3    H213228   6.911   5.213   1.311
 4422TIP3   OH213229   3.485   6.697   0.751
 4422TIP3    H113230   3.551   6.628   0.752
 4422TIP3    H213231   3.420   6.669   0.815
 4423TIP3   OH213232   5.542   1.812   3.079
 4423TIP3    H113233   5.621   1.760   3.095
 4423TIP3    H213234   5.566   1.901   3.106
 4424TIP3   OH213235   0.978   0.995   5.363
 4424TIP3    H113236   1.005   0.918   5.313
 4424TIP3    H213237   1.052   1.055   5.358
 4425TIP3   OH213238   0.917   5.644   2.211
 4425TIP3    H113239   0.906   5.555   2.243
 4425TIP3    H213240   0.973   5.687   2.276
 4426TIP3   OH213241   1.551   4.790   0.942
 4426TIP3    H113242   1.531   4.825   0.855
 4426TIP3    H213243   1.560   4.867   0.998
 4427TIP3   OH213244   2.606   6.111   4.958
 4427TIP3    H113245   2.514   6.118   4.930
 4427TIP3    H213246   2.605   6.041   5.024
 4428TIP3   OH213247   0.762   6.760   1.072
 4428TIP3    H113248   0.819   6.696   1.029
 4428TIP3    H213249   0.690   6.773   1.010
 4429TIP3   OH213250   6.656   4.646   0.339
 4429TIP3    H113251   6.641   4.628   0.246
 4429TIP3    H213252   6.709   4.572   0.369
 4430TIP3   OH213253   3.326   1.108   0.692
 4430TIP3    H113254   3.325   1.027   0.743
 4430TIP3    H213255   3.419   1.125   0.675
 4431TIP3   OH213256   0.879   2.437   0.971
 4431TIP3    H113257   0.822   2.403   0.902
 4431TIP3    H213258   0.846   2.525   0.989
 4432TIP3   OH213259   1.280   0.246   5.565
 4432TIP3    H113260   1.210   0.218   5.507
 4432TIP3    H213261   1.261   0.338   5.582
 4433TIP3   OH213262   0.986   6.165   0.962
 4433TIP3    H113263   1.038   6.102   1.012
 4433TIP3    H213264   1.039   6.182   0.884
 4434TIP3   OH213265   6.289   4.585   0.506
 4434TIP3    H113266   6.252   4.636   0.579
 4434TIP3    H213267   6.213   4.566   0.451
 4435TIP3   OH213268   7.013   5.255   4.056
 4435TIP3    H113269   6.923   5.288   4.056
 4435TIP3    H213270   7.006   5.166   4.021
 4436TIP3   OH213271   6.416   5.531   4.575
 4436TIP3    H113272   6.341   5.589   4.583
 4436TIP3    H213273   6.490   5.582   4.610
 4437TIP3   OH213274   0.513   2.377   5.051
 4437TIP3    H113275   0.480   2.345   5.135
 4437TIP3    H213276   0.483   2.312   4.988
 4438TIP3   OH213277   6.223   3.389   0.163
 4438TIP3    H113278   6.146   3.423   0.118
 4438TIP3    H213279   6.256   3.464   0.214
 4439TIP3   OH213280   5.195   3.906   3.599
 4439TIP3    H113281   5.146   3.855   3.664
 4439TIP3    H213282   5.286   3.899   3.626
 4440TIP3   OH213283   6.493   6.281   2.419
 4440TIP3    H113284   6.434   6.209   2.396
 4440TIP3    H213285   6.434   6.351   2.449
 4441TIP3   OH213286   6.209   5.698   4.598
 4441TIP3    H113287   6.122   5.664   4.579
 4441TIP3    H213288   6.242   5.730   4.514
 4442TIP3   OH213289   6.461   0.103   3.742
 4442TIP3    H113290   6.366   0.095   3.741
 4442TIP3    H213291   6.481   0.161   3.669
 4443TIP3   OH213292   2.289   0.086   2.001
 4443TIP3    H113293   2.304   0.136   1.921
 4443TIP3    H213294   2.344   0.008   1.992
 4444TIP3   OH213295   7.015   3.379   5.799
 4444TIP3    H113296   7.084   3.358   5.861
 4444TIP3    H213297   7.058   3.381   5.713
 4445TIP3   OH213298   0.730   4.068   3.963
 4445TIP3    H113299   0.801   4.068   3.898
 4445TIP3    H213300   0.748   3.992   4.018
 4446TIP3   OH213301   4.731   6.636   5.374
 4446TIP3    H113302   4.764   6.660   5.460
 4446TIP3    H213303   4.751   6.712   5.319
 4447TIP3   OH213304   1.620   3.331   3.626
 4447TIP3    H113305   1.688   3.375   3.677
 4447TIP3    H213306   1.667   3.280   3.561
 4448TIP3   OH213307   6.118   6.238   2.513
 4448TIP3    H113308   6.053   6.283   2.566
 4448TIP3    H213309   6.194   6.296   2.513
 4449TIP3   OH213310   0.623   2.660   5.081
 4449TIP3    H113311   0.545   2.605   5.068
 4449TIP3    H213312   0.696   2.599   5.072
 4450TIP3   OH213313   0.998   1.833   2.899
 4450TIP3    H113314   0.912   1.792   2.893
 4450TIP3    H213315   1.059   1.759   2.912
 4451TIP3   OH213316   4.015   1.544   0.550
 4451TIP3    H113317   3.975   1.462   0.576
 4451TIP3    H213318   4.004   1.547   0.455
 4452TIP3   OH213319   2.107   5.298   0.838
 4452TIP3    H113320   2.181   5.338   0.793
 4452TIP3    H213321   2.146   5.258   0.916
 4453TIP3   OH213322   4.659   4.491   5.573
 4453TIP3    H113323   4.623   4.574   5.542
 4453TIP3    H213324   4.593   4.456   5.632
 4454TIP3   OH213325   5.763   3.979   1.804
 4454TIP3    H113326   5.802   3.956   1.888
 4454TIP3    H213327   5.807   3.923   1.741
 4455TIP3   OH213328   5.690   1.956   4.118
 4455TIP3    H113329   5.645   1.911   4.046
 4455TIP3    H213330   5.692   1.891   4.188
 4456TIP3   OH213331   5.918   1.707   0.592
 4456TIP3    H113332   5.904   1.727   0.499
 4456TIP3    H213333   5.932   1.612   0.594
 4457TIP3   OH213334   4.492   5.064   5.270
 4457TIP3    H113335   4.584   5.089   5.260
 4457TIP3    H213336   4.443   5.144   5.247
 4458TIP3   OH213337   2.111   6.124   3.733
 4458TIP3    H113338   2.202   6.097   3.744
 4458TIP3    H213339   2.101   6.139   3.639
 4459TIP3   OH213340   3.885   0.907   4.148
 4459TIP3    H113341   3.972   0.932   4.116
 4459TIP3    H213342   3.879   0.813   4.132
 4460TIP3   OH213343   2.510   2.462   3.168
 4460TIP3    H113344   2.547   2.511   3.094
 4460TIP3    H213345   2.556   2.496   3.245
 4461TIP3   OH213346   1.581   5.248   5.644
 4461TIP3    H113347   1.568   5.257   5.549
 4461TIP3    H213348   1.639   5.173   5.653
 4462TIP3   OH213349   7.055   2.293   2.414
 4462TIP3    H113350   7.130   2.238   2.391
 4462TIP3    H213351   6.987   2.230   2.438
 4463TIP3   OH213352   1.089   4.150   1.968
 4463TIP3    H113353   1.003   4.161   2.009
 4463TIP3    H213354   1.070   4.124   1.879
 4464TIP3   OH213355   0.163   3.780   0.070
 4464TIP3    H113356   0.095   3.846   0.054
 4464TIP3    H213357   0.116   3.705   0.105
 4465TIP3   OH213358   5.382   3.446   4.904
 4465TIP3    H113359   5.326   3.518   4.875
 4465TIP3    H213360   5.399   3.464   4.996
 4466TIP3   OH213361   4.841   4.675   4.245
 4466TIP3    H113362   4.925   4.631   4.236
 4466TIP3    H213363   4.826   4.677   4.340
 4467TIP3   OH213364   6.402   6.610   5.042
 4467TIP3    H113365   6.324   6.658   5.015
 4467TIP3    H213366   6.460   6.678   5.078
 4468TIP3   OH213367   6.787   0.163   5.557
 4468TIP3    H113368   6.701   0.205   5.567
 4468TIP3    H213369   6.816   0.147   5.647
 4469TIP3   OH213370   0.405   1.115   1.776
 4469TIP3    H113371   0.430   1.162   1.856
 4469TIP3    H213372   0.479   1.057   1.759
 4470TIP3   OH213373   6.913   2.771   4.315
 4470TIP3    H113374   6.946   2.760   4.404
 4470TIP3    H213375   6.926   2.686   4.274
 4471TIP3   OH213376   4.893   0.273   4.433
 4471TIP3    H113377   4.943   0.320   4.499
 4471TIP3    H213378   4.923   0.182   4.439
 4472TIP3   OH213379   0.371   1.934   3.348
 4472TIP3    H113380   0.400   1.898   3.264
 4472TIP3    H213381   0.425   1.889   3.413
 4473TIP3   OH213382   6.536   5.968   0.107
 4473TIP3    H113383   6.542   6.059   0.137
 4473TIP3    H213384   6.461   5.932   0.154
 4474TIP3   OH213385   2.238   0.922   4.239
 4474TIP3    H113386   2.242   0.951   4.330
 4474TIP3    H213387   2.151   0.947   4.209
 4475TIP3   OH213388   3.720   2.855   1.325
 4475TIP3    H113389   3.812   2.879   1.338
 4475TIP3    H213390   3.702   2.792   1.395
 4476TIP3   OH213391   5.598   1.979   2.623
 4476TIP3    H113392   5.559   1.949   2.705
 4476TIP3    H213393   5.685   2.011   2.648
 4477TIP3   OH213394   4.809   0.996   4.139
 4477TIP3    H113395   4.823   0.906   4.110
 4477TIP3    H213396   4.762   1.038   4.067
 4478TIP3   OH213397   6.452   4.920   0.068
 4478TIP3    H113398   6.391   4.990   0.091
 4478TIP3    H213399   6.523   4.964   0.023
 4479TIP3   OH213400   2.928   3.833   3.810
 4479TIP3    H113401   2.892   3.921   3.803
 4479TIP3    H213402   2.937   3.818   3.904
 4480TIP3   OH213403   5.067   0.910   1.573
 4480TIP3    H113404   5.062   1.001   1.602
 4480TIP3    H213405   5.106   0.863   1.647
 4481TIP3   OH213406   4.924   5.008   1.786
 4481TIP3    H113407   4.968   5.066   1.848
 4481TIP3    H213408   4.901   5.065   1.712
 4482TIP3   OH213409   3.938   1.051   1.543
 4482TIP3    H113410   3.845   1.072   1.541
 4482TIP3    H213411   3.943   0.969   1.591
 4483TIP3   OH213412   2.717   0.473   4.325
 4483TIP3    H113413   2.806   0.456   4.356
 4483TIP3    H213414   2.702   0.404   4.260
 4484TIP3   OH213415   6.091   4.722   5.651
 4484TIP3    H113416   5.996   4.715   5.646
 4484TIP3    H213417   6.108   4.816   5.651
 4485TIP3   OH213418   1.254   3.433   0.597
 4485TIP3    H113419   1.203   3.477   0.528
 4485TIP3    H213420   1.329   3.490   0.612
 4486TIP3   OH213421   2.619   4.769   1.294
 4486TIP3    H113422   2.582   4.773   1.206
 4486TIP3    H213423   2.623   4.861   1.322
 4487TIP3   OH213424   4.989   4.193   5.092
 4487TIP3    H113425   5.010   4.127   5.026
 4487TIP3    H213426   4.944   4.144   5.161
 4488TIP3   OH213427   0.144   4.979   0.539
 4488TIP3    H113428   0.222   5.001   0.591
 4488TIP3    H213429   0.084   4.941   0.602
 4489TIP3   OH213430   4.382   2.059   1.155
 4489TIP3    H113431   4.297   2.100   1.138
 4489TIP3    H213432   4.406   2.089   1.243
 4490TIP3   OH213433   6.204   3.504   3.237
 4490TIP3    H113434   6.258   3.427   3.217
 4490TIP3    H213435   6.185   3.496   3.331
 4491TIP3   OH213436   3.737   2.509   1.052
 4491TIP3    H113437   3.824   2.543   1.028
 4491TIP3    H213438   3.679   2.541   0.983
 4492TIP3   OH213439   6.141   1.123   1.801
 4492TIP3    H113440   6.106   1.077   1.877
 4492TIP3    H213441   6.091   1.087   1.727
 4493TIP3   OH213442   2.975   2.253   5.007
 4493TIP3    H113443   2.918   2.240   4.931
 4493TIP3    H213444   2.964   2.174   5.060
 4494TIP3   OH213445   4.316   5.148   5.887
 4494TIP3    H113446   4.323   5.108   5.801
 4494TIP3    H213447   4.293   5.240   5.869
 4495TIP3   OH213448   4.768   0.788   2.475
 4495TIP3    H113449   4.776   0.729   2.399
 4495TIP3    H213450   4.690   0.840   2.456
 4496TIP3   OH213451   0.121   3.673   1.053
 4496TIP3    H113452   0.101   3.735   1.122
 4496TIP3    H213453   0.182   3.720   0.996
 4497TIP3   OH213454   5.239   6.783   2.015
 4497TIP3    H113455   5.269   6.806   2.103
 4497TIP3    H213456   5.319   6.779   1.963
 4498TIP3   OH213457   4.437   6.035   1.314
 4498TIP3    H113458   4.533   6.034   1.306
 4498TIP3    H213459   4.414   5.946   1.340
 4499TIP3   OH213460   4.681   4.503   2.418
 4499TIP3    H113461   4.589   4.479   2.427
 4499TIP3    H213462   4.717   4.435   2.362
 4500TIP3   OH213463   5.115   6.636   3.315
 4500TIP3    H113464   5.092   6.719   3.356
 4500TIP3    H213465   5.207   6.647   3.289
 4501TIP3   OH213466   5.373   0.706   3.713
 4501TIP3    H113467   5.362   0.642   3.783
 4501TIP3    H213468   5.467   0.711   3.699
 4502TIP3   OH213469   3.913   0.812   5.650
 4502TIP3    H113470   3.873   0.895   5.624
 4502TIP3    H213471   3.953   0.830   5.735
 4503TIP3   OH213472   6.670   0.588   3.020
 4503TIP3    H113473   6.641   0.569   2.931
 4503TIP3    H213474   6.619   0.528   3.075
 4504TIP3   OH213475   3.007   3.093   4.181
 4504TIP3    H113476   3.059   3.103   4.260
 4504TIP3    H213477   2.973   3.180   4.162
 4505TIP3   OH213478   0.867   3.524   4.061
 4505TIP3    H113479   0.820   3.583   4.120
 4505TIP3    H213480   0.921   3.582   4.006
 4506TIP3   OH213481   5.782   4.567   1.653
 4506TIP3    H113482   5.804   4.478   1.681
 4506TIP3    H213483   5.842   4.623   1.704
 4507TIP3   OH213484   6.039   4.737   2.041
 4507TIP3    H113485   6.017   4.790   1.964
 4507TIP3    H213486   5.971   4.759   2.105
 4508TIP3   OH213487   2.889   1.490   5.483
 4508TIP3    H113488   2.812   1.486   5.426
 4508TIP3    H213489   2.858   1.453   5.566
 4509TIP3   OH213490   4.507   3.201   5.483
 4509TIP3    H113491   4.443   3.132   5.499
 4509TIP3    H213492   4.592   3.156   5.484
 4510TIP3   OH213493   0.215   6.382   5.105
 4510TIP3    H113494   0.170   6.461   5.077
 4510TIP3    H213495   0.260   6.351   5.026
 4511TIP3   OH213496   2.929   1.811   0.257
 4511TIP3    H113497   2.964   1.781   0.173
 4511TIP3    H213498   2.841   1.773   0.261
 4512TIP3   OH213499   1.231   3.622   1.370
 4512TIP3    H113500   1.159   3.620   1.306
 4512TIP3    H213501   1.227   3.536   1.411
 4513TIP3   OH213502   5.525   1.674   4.553
 4513TIP3    H113503   5.443   1.640   4.516
 4513TIP3    H213504   5.529   1.635   4.641
 4514TIP3   OH213505   2.601   2.933   1.137
 4514TIP3    H113506   2.567   2.844   1.146
 4514TIP3    H213507   2.691   2.928   1.167
 4515TIP3   OH213508   0.832   2.099   1.449
 4515TIP3    H113509   0.802   2.048   1.525
 4515TIP3    H213510   0.778   2.178   1.451
 4516TIP3   OH213511   4.075   3.832   0.705
 4516TIP3    H113512   4.106   3.754   0.659
 4516TIP3    H213513   4.152   3.865   0.751
 4517TIP3   OH213514   1.579   4.537   3.849
 4517TIP3    H113515   1.545   4.626   3.852
 4517TIP3    H213516   1.544   4.500   3.768
 4518TIP3   OH213517   2.587   2.525   5.363
 4518TIP3    H113518   2.500   2.520   5.326
 4518TIP3    H213519   2.645   2.540   5.288
 4519TIP3   OH213520   5.512   1.544   3.298
 4519TIP3    H113521   5.461   1.466   3.319
 4519TIP3    H213522   5.595   1.510   3.266
 4520TIP3   OH213523   5.352   3.313   5.392
 4520TIP3    H113524   5.433   3.276   5.358
 4520TIP3    H213525   5.351   3.403   5.360
 4521TIP3   OH213526   2.754   2.760   0.403
 4521TIP3    H113527   2.808   2.813   0.344
 4521TIP3    H213528   2.806   2.681   0.418
 4522TIP3   OH213529   0.824   3.106   2.637
 4522TIP3    H113530   0.882   3.074   2.568
 4522TIP3    H213531   0.777   3.029   2.667
 4523TIP3   OH213532   2.840   2.137   2.011
 4523TIP3    H113533   2.835   2.230   1.988
 4523TIP3    H213534   2.756   2.119   2.054
 4524TIP3   OH213535   4.702   0.344   4.683
 4524TIP3    H113536   4.671   0.273   4.627
 4524TIP3    H213537   4.778   0.307   4.729
 4525TIP3   OH213538   5.844   3.852   3.184
 4525TIP3    H113539   5.860   3.836   3.091
 4525TIP3    H213540   5.815   3.768   3.218
 4526TIP3   OH213541   3.554   5.312   2.156
 4526TIP3    H113542   3.487   5.369   2.119
 4526TIP3    H213543   3.605   5.369   2.213
 4527TIP3   OH213544   1.883   3.572   2.467
 4527TIP3    H113545   1.915   3.492   2.425
 4527TIP3    H213546   1.822   3.541   2.534
 4528TIP3   OH213547   6.943   1.154   5.320
 4528TIP3    H113548   6.909   1.191   5.402
 4528TIP3    H213549   7.025   1.202   5.305
 4529TIP3   OH213550   2.223   4.274   4.940
 4529TIP3    H113551   2.261   4.208   4.998
 4529TIP3    H213552   2.252   4.249   4.853
 4530TIP3   OH213553   2.126   2.079   2.087
 4530TIP3    H113554   2.209   2.116   2.118
 4530TIP3    H213555   2.138   1.984   2.092
 4531TIP3   OH213556   1.302   4.538   1.309
 4531TIP3    H113557   1.342   4.477   1.246
 4531TIP3    H213558   1.276   4.482   1.382
 4532TIP3   OH213559   0.136   2.355   2.538
 4532TIP3    H113560   0.153   2.275   2.489
 4532TIP3    H213561   0.223   2.388   2.561
 4533TIP3   OH213562   4.194   5.905   4.133
 4533TIP3    H113563   4.157   5.821   4.159
 4533TIP3    H213564   4.170   5.964   4.205
 4534TIP3   OH213565   4.158   3.948   0.357
 4534TIP3    H113566   4.214   3.992   0.294
 4534TIP3    H213567   4.206   3.869   0.382
 4535TIP3   OH213568   2.498   2.836   3.147
 4535TIP3    H113569   2.449   2.901   3.098
 4535TIP3    H213570   2.587   2.872   3.154
 4536TIP3   OH213571   2.467   4.371   1.894
 4536TIP3    H113572   2.426   4.457   1.910
 4536TIP3    H213573   2.534   4.389   1.828
 4537TIP3   OH213574   0.471   6.121   4.014
 4537TIP3    H113575   0.422   6.039   4.017
 4537TIP3    H213576   0.406   6.186   3.986
 4538TIP3   OH213577   1.168   1.046   3.080
 4538TIP3    H113578   1.147   1.107   3.009
 4538TIP3    H213579   1.207   1.100   3.148
 4539TIP3   OH213580   0.445   1.917   0.043
 4539TIP3    H113581   0.513   1.979   0.069
 4539TIP3    H213582   0.493   1.841   0.010
 4540TIP3   OH213583   4.131   4.752   0.813
 4540TIP3    H113584   4.049   4.790   0.846
 4540TIP3    H213585   4.114   4.733   0.721
 4541TIP3   OH213586   3.657   4.514   1.696
 4541TIP3    H113587   3.705   4.532   1.777
 4541TIP3    H213588   3.708   4.446   1.652
 4542TIP3   OH213589   2.909   2.388   5.282
 4542TIP3    H113590   2.992   2.430   5.259
 4542TIP3    H213591   2.842   2.446   5.245
 4543TIP3   OH213592   7.076   1.076   5.824
 4543TIP3    H113593   7.039   1.102   5.908
 4543TIP3    H213594   7.015   1.010   5.790
 4544TIP3   OH213595   3.588   4.015   4.671
 4544TIP3    H113596   3.523   3.945   4.667
 4544TIP3    H213597   3.640   4.004   4.591
 4545TIP3   OH213598   3.574   3.169   5.561
 4545TIP3    H113599   3.489   3.205   5.536
 4545TIP3    H213600   3.557   3.078   5.583
 4546TIP3   OH213601   2.831   5.333   0.432
 4546TIP3    H113602   2.745   5.334   0.390
 4546TIP3    H213603   2.886   5.387   0.376
 4547TIP3   OH213604   5.842   1.163   5.593
 4547TIP3    H113605   5.898   1.134   5.665
 4547TIP3    H213606   5.852   1.096   5.526
 4548TIP3   OH213607   6.750   3.277   3.446
 4548TIP3    H113608   6.681   3.243   3.503
 4548TIP3    H213609   6.734   3.371   3.441
 4549TIP3   OH213610   1.176   6.181   0.771
 4549TIP3    H113611   1.270   6.195   0.763
 4549TIP3    H213612   1.137   6.260   0.733
 4550TIP3   OH213613   4.342   6.274   0.700
 4550TIP3    H113614   4.318   6.201   0.757
 4550TIP3    H213615   4.403   6.327   0.753
 4551TIP3   OH213616   5.254   6.492   2.046
 4551TIP3    H113617   5.245   6.479   2.140
 4551TIP3    H213618   5.269   6.586   2.035
 4552TIP3   OH213619   6.555   3.389   2.791
 4552TIP3    H113620   6.576   3.374   2.699
 4552TIP3    H213621   6.471   3.346   2.804
 4553TIP3   OH213622   4.265   5.267   3.317
 4553TIP3    H113623   4.312   5.183   3.322
 4553TIP3    H213624   4.173   5.242   3.310
 4554TIP3   OH213625   5.537   3.057   3.690
 4554TIP3    H113626   5.461   3.009   3.657
 4554TIP3    H213627   5.603   3.047   3.622
 4555TIP3   OH213628   0.543   5.139   2.868
 4555TIP3    H113629   0.530   5.234   2.869
 4555TIP3    H213630   0.623   5.126   2.818
 4556TIP3   OH213631   6.880   0.493   0.404
 4556TIP3    H113632   6.792   0.521   0.382
 4556TIP3    H213633   6.899   0.538   0.487
 4557TIP3   OH213634   1.493   1.940   1.029
 4557TIP3    H113635   1.467   1.986   1.109
 4557TIP3    H213636   1.460   1.851   1.041
 4558TIP3   OH213637   1.253   5.602   1.870
 4558TIP3    H113638   1.275   5.649   1.951
 4558TIP3    H213639   1.203   5.665   1.819
 4559TIP3   OH213640   6.888   2.837   0.868
 4559TIP3    H113641   6.946   2.905   0.900
 4559TIP3    H213642   6.841   2.806   0.945
 4560TIP3   OH213643   1.118   1.590   5.785
 4560TIP3    H113644   1.050   1.641   5.741
 4560TIP3    H213645   1.104   1.500   5.756
 4561TIP3   OH213646   5.940   0.189   0.800
 4561TIP3    H113647   5.925   0.096   0.782
 4561TIP3    H213648   5.859   0.219   0.843
 4562TIP3   OH213649   6.036   2.661   4.659
 4562TIP3    H113650   6.072   2.687   4.574
 4562TIP3    H213651   6.105   2.682   4.722
 4563TIP3   OH213652   3.427   2.874   3.690
 4563TIP3    H113653   3.482   2.938   3.644
 4563TIP3    H213654   3.365   2.928   3.739
 4564TIP3   OH213655   3.310   1.841   4.635
 4564TIP3    H113656   3.266   1.832   4.551
 4564TIP3    H213657   3.385   1.899   4.618
 4565TIP3   OH213658   0.193   4.008   5.025
 4565TIP3    H113659   0.252   3.941   5.060
 4565TIP3    H213660   0.199   3.998   4.930
 4566TIP3   OH213661   2.569   6.419   2.875
 4566TIP3    H113662   2.509   6.461   2.937
 4566TIP3    H213663   2.586   6.333   2.912
 4567TIP3   OH213664   4.589   5.567   1.389
 4567TIP3    H113665   4.680   5.594   1.400
 4567TIP3    H213666   4.591   5.506   1.315
 4568TIP3   OH213667   6.158   3.482   2.481
 4568TIP3    H113668   6.184   3.570   2.508
 4568TIP3    H213669   6.169   3.482   2.386
 4569TIP3   OH213670   3.364   5.401   3.358
 4569TIP3    H113671   3.423   5.377   3.430
 4569TIP3    H213672   3.423   5.423   3.286
 4570TIP3   OH213673   0.186   0.127   1.009
 4570TIP3    H113674   0.259   0.147   1.068
 4570TIP3    H213675   0.227   0.106   0.926
 4571TIP3   OH213676   6.851   4.448   1.035
 4571TIP3    H113677   6.896   4.531   1.049
 4571TIP3    H213678   6.835   4.414   1.123
 4572TIP3   OH213679   5.369   5.266   1.620
 4572TIP3    H113680   5.362   5.361   1.634
 4572TIP3    H213681   5.457   5.244   1.649
 4573TIP3   OH213682   5.460   1.634   4.114
 4573TIP3    H113683   5.549   1.602   4.131
 4573TIP3    H213684   5.472   1.725   4.089
 4574TIP3   OH213685   5.720   5.853   5.566
 4574TIP3    H113686   5.749   5.842   5.656
 4574TIP3    H213687   5.766   5.784   5.517
 4575TIP3   OH213688   5.471   4.655   2.850
 4575TIP3    H113689   5.463   4.592   2.921
 4575TIP3    H213690   5.383   4.660   2.813
 4576TIP3   OH213691   6.745   4.394   2.047
 4576TIP3    H113692   6.798   4.461   2.003
 4576TIP3    H213693   6.655   4.416   2.024
 4577TIP3   OH213694   5.241   2.047   1.024
 4577TIP3    H113695   5.149   2.033   1.044
 4577TIP3    H213696   5.274   2.101   1.097
 4578TIP3   OH213697   1.817   4.170   4.306
 4578TIP3    H113698   1.805   4.112   4.381
 4578TIP3    H213699   1.731   4.211   4.293
 4579TIP3   OH213700   0.746   2.883   3.196
 4579TIP3    H113701   0.823   2.854   3.149
 4579TIP3    H213702   0.706   2.949   3.140
 4580TIP3   OH213703   3.050   4.848   2.041
 4580TIP3    H113704   3.079   4.780   1.979
 4580TIP3    H213705   3.061   4.930   1.993
 4581TIP3   OH213706   5.232   5.569   5.008
 4581TIP3    H113707   5.158   5.510   5.022
 4581TIP3    H213708   5.227   5.631   5.081
 4582TIP3   OH213709   7.022   2.336   4.723
 4582TIP3    H113710   6.986   2.389   4.793
 4582TIP3    H213711   6.956   2.340   4.653
 4583TIP3   OH213712   7.104   1.166   1.415
 4583TIP3    H113713   7.195   1.139   1.399
 4583TIP3    H213714   7.058   1.085   1.435
 4584TIP3   OH213715   3.554   0.560   2.079
 4584TIP3    H113716   3.580   0.652   2.082
 4584TIP3    H213717   3.637   0.512   2.076
 4585TIP3   OH213718   3.429   1.446   1.514
 4585TIP3    H113719   3.386   1.362   1.531
 4585TIP3    H213720   3.497   1.425   1.450
 4586TIP3   OH213721   4.770   0.420   2.222
 4586TIP3    H113722   4.711   0.417   2.146
 4586TIP3    H213723   4.783   0.513   2.240
 4587TIP3   OH213724   3.376   5.388   5.035
 4587TIP3    H113725   3.326   5.416   5.111
 4587TIP3    H213726   3.390   5.469   4.985
 4588TIP3   OH213727   2.807   0.970   0.396
 4588TIP3    H113728   2.770   0.900   0.342
 4588TIP3    H213729   2.826   0.928   0.480
 4589TIP3   OH213730   6.404   4.652   3.945
 4589TIP3    H113731   6.495   4.645   3.916
 4589TIP3    H213732   6.379   4.563   3.969
 4590TIP3   OH213733   6.194   5.349   3.448
 4590TIP3    H113734   6.227   5.298   3.522
 4590TIP3    H213735   6.171   5.284   3.383
 4591TIP3   OH213736   3.523   2.757   3.280
 4591TIP3    H113737   3.434   2.785   3.301
 4591TIP3    H213738   3.578   2.799   3.347
 4592TIP3   OH213739   4.831   6.501   3.805
 4592TIP3    H113740   4.791   6.416   3.823
 4592TIP3    H213741   4.759   6.554   3.771
 4593TIP3   OH213742   2.432   0.647   1.854
 4593TIP3    H113743   2.488   0.669   1.928
 4593TIP3    H213744   2.493   0.625   1.784
 4594TIP3   OH213745   0.449   2.740   2.005
 4594TIP3    H113746   0.377   2.783   2.052
 4594TIP3    H213747   0.453   2.653   2.043
 4595TIP3   OH213748   6.112   4.955   1.369
 4595TIP3    H113749   6.096   4.992   1.455
 4595TIP3    H213750   6.033   4.975   1.319
 4596TIP3   OH213751   3.901   2.790   2.103
 4596TIP3    H113752   3.954   2.866   2.078
 4596TIP3    H213753   3.960   2.716   2.097
 4597TIP3   OH213754   2.167   1.273   5.456
 4597TIP3    H113755   2.144   1.302   5.544
 4597TIP3    H213756   2.214   1.191   5.469
 4598TIP3   OH213757   3.356   3.766   0.751
 4598TIP3    H113758   3.348   3.857   0.722
 4598TIP3    H213759   3.307   3.715   0.686
 4599TIP3   OH213760   4.888   6.113   0.403
 4599TIP3    H113761   4.951   6.095   0.472
 4599TIP3    H213762   4.941   6.124   0.324
 4600TIP3   OH213763   2.335   6.122   4.935
 4600TIP3    H113764   2.300   6.067   4.865
 4600TIP3    H213765   2.271   6.192   4.945
 4601TIP3   OH213766   4.151   3.347   1.341
 4601TIP3    H113767   4.113   3.259   1.344
 4601TIP3    H213768   4.185   3.361   1.430
 4602TIP3   OH213769   2.954   5.460   1.628
 4602TIP3    H113770   3.028   5.426   1.578
 4602TIP3    H213771   2.896   5.385   1.640
 4603TIP3   OH213772   6.736   0.617   4.991
 4603TIP3    H113773   6.678   0.643   5.063
 4603TIP3    H213774   6.749   0.698   4.941
 4604TIP3   OH213775   2.380   1.356   5.017
 4604TIP3    H113776   2.419   1.293   4.957
 4604TIP3    H213777   2.286   1.347   5.002
 4605TIP3   OH213778   3.609   0.741   0.663
 4605TIP3    H113779   3.701   0.755   0.685
 4605TIP3    H213780   3.561   0.771   0.740
 4606TIP3   OH213781   6.334   2.863   4.617
 4606TIP3    H113782   6.322   2.825   4.704
 4606TIP3    H213783   6.303   2.795   4.557
 4607TIP3   OH213784   5.525   5.284   1.928
 4607TIP3    H113785   5.486   5.202   1.897
 4607TIP3    H213786   5.527   5.275   2.024
 4608TIP3   OH213787   3.195   1.680   4.014
 4608TIP3    H113788   3.149   1.675   4.098
 4608TIP3    H213789   3.126   1.698   3.950
 4609TIP3   OH213790   2.575   5.349   5.689
 4609TIP3    H113791   2.561   5.395   5.771
 4609TIP3    H213792   2.614   5.414   5.630
 4610TIP3   OH213793   3.115   1.109   0.031
 4610TIP3    H113794   3.127   1.077   0.120
 4610TIP3    H213795   3.203   1.115  -0.004
 4611TIP3   OH213796   0.082   6.256   5.470
 4611TIP3    H113797   0.030   6.310   5.530
 4611TIP3    H213798   0.118   6.318   5.407
 4612TIP3   OH213799   0.126   3.516   4.892
 4612TIP3    H113800   0.122   3.561   4.808
 4612TIP3    H213801   0.179   3.575   4.947
 4613TIP3   OH213802   2.086   2.395   2.129
 4613TIP3    H113803   1.992   2.417   2.123
 4613TIP3    H213804   2.107   2.360   2.043
 4614TIP3   OH213805   4.781   4.311   2.199
 4614TIP3    H113806   4.820   4.229   2.229
 4614TIP3    H213807   4.741   4.289   2.115
 4615TIP3   OH213808   0.283   6.064   5.420
 4615TIP3    H113809   0.189   6.070   5.403
 4615TIP3    H213810   0.310   6.155   5.438
 4616TIP3   OH213811   3.631   3.427   4.397
 4616TIP3    H113812   3.653   3.518   4.415
 4616TIP3    H213813   3.706   3.377   4.430
 4617TIP3   OH213814   4.357   4.995   3.313
 4617TIP3    H113815   4.264   4.984   3.331
 4617TIP3    H213816   4.385   4.910   3.279
 4618TIP3   OH213817   0.454   5.588   0.415
 4618TIP3    H113818   0.489   5.617   0.331
 4618TIP3    H213819   0.359   5.597   0.406
 4619TIP3   OH213820   6.366   1.969   3.513
 4619TIP3    H113821   6.400   1.882   3.490
 4619TIP3    H213822   6.322   1.999   3.434
 4620TIP3   OH213823   0.182   0.315   0.510
 4620TIP3    H113824   0.226   0.270   0.438
 4620TIP3    H213825   0.187   0.408   0.488
 4621TIP3   OH213826   6.925   6.634   4.443
 4621TIP3    H113827   6.999   6.603   4.496
 4621TIP3    H213828   6.848   6.618   4.498
 4622TIP3   OH213829   3.093   5.799   2.780
 4622TIP3    H113830   3.164   5.800   2.716
 4622TIP3    H213831   3.136   5.813   2.864
 4623TIP3   OH213832   6.376   5.575   3.733
 4623TIP3    H113833   6.377   5.670   3.746
 4623TIP3    H213834   6.283   5.554   3.717
 4624TIP3   OH213835   7.045   3.297   0.932
 4624TIP3    H113836   7.025   3.369   0.993
 4624TIP3    H213837   7.112   3.332   0.874
 4625TIP3   OH213838   0.769   3.622   0.363
 4625TIP3    H113839   0.791   3.640   0.454
 4625TIP3    H213840   0.730   3.535   0.364
 4626TIP3   OH213841   5.233   0.736   0.442
 4626TIP3    H113842   5.152   0.743   0.494
 4626TIP3    H213843   5.273   0.655   0.472
 4627TIP3   OH213844   0.172   6.059   3.288
 4627TIP3    H113845   0.191   6.090   3.377
 4627TIP3    H213846   0.181   6.136   3.233
 4628TIP3   OH213847   5.959   4.293   2.230
 4628TIP3    H113848   5.898   4.228   2.264
 4628TIP3    H213849   6.015   4.316   2.305
 4629TIP3   OH213850   5.914   2.822   3.885
 4629TIP3    H113851   5.941   2.907   3.850
 4629TIP3    H213852   5.866   2.781   3.813
 4630TIP3   OH213853   1.019   5.079   4.157
 4630TIP3    H113854   0.963   5.022   4.209
 4630TIP3    H213855   1.020   5.162   4.205
 4631TIP3   OH213856   3.480   5.919   5.731
 4631TIP3    H113857   3.544   5.989   5.720
 4631TIP3    H213858   3.406   5.962   5.774
 4632TIP3   OH213859   3.220   0.719   2.885
 4632TIP3    H113860   3.270   0.689   2.961
 4632TIP3    H213861   3.161   0.646   2.864
 4633TIP3   OH213862   0.534   5.090   5.456
 4633TIP3    H113863   0.552   5.017   5.397
 4633TIP3    H213864   0.539   5.167   5.400
 4634TIP3   OH213865   5.383   5.042   1.800
 4634TIP3    H113866   5.384   4.975   1.869
 4634TIP3    H213867   5.318   5.011   1.737
 4635TIP3   OH213868   4.072   0.847   2.926
 4635TIP3    H113869   4.112   0.809   3.005
 4635TIP3    H213870   4.107   0.794   2.854
 4636TIP3   OH213871   2.240   4.605   2.636
 4636TIP3    H113872   2.183   4.674   2.603
 4636TIP3    H213873   2.298   4.650   2.697
 4637TIP3   OH213874   4.959   6.747   5.812
 4637TIP3    H113875   4.909   6.787   5.883
 4637TIP3    H213876   5.034   6.805   5.800
 4638TIP3   OH213877   4.571   4.770   2.820
 4638TIP3    H113878   4.607   4.687   2.790
 4638TIP3    H213879   4.592   4.773   2.914
 4639TIP3   OH213880   6.330   3.255   4.403
 4639TIP3    H113881   6.265   3.305   4.452
 4639TIP3    H213882   6.386   3.216   4.469
 4640TIP3   OH213883   2.568   0.757   5.725
 4640TIP3    H113884   2.581   0.720   5.638
 4640TIP3    H213885   2.645   0.729   5.775
 4641TIP3   OH213886   0.787   2.970   4.705
 4641TIP3    H113887   0.800   2.939   4.615
 4641TIP3    H213888   0.850   3.041   4.715
 4642TIP3   OH213889   3.341   5.474   4.048
 4642TIP3    H113890   3.352   5.534   4.122
 4642TIP3    H213891   3.317   5.532   3.975
 4643TIP3   OH213892   5.003   6.360   1.876
 4643TIP3    H113893   4.998   6.306   1.797
 4643TIP3    H213894   5.078   6.417   1.861
 4644TIP3   OH213895   5.939   1.342   1.563
 4644TIP3    H113896   5.943   1.411   1.496
 4644TIP3    H213897   5.959   1.387   1.645
 4645TIP3   OH213898   5.654   1.833   5.883
 4645TIP3    H113899   5.644   1.873   5.796
 4645TIP3    H213900   5.748   1.815   5.890
 4646TIP3   OH213901   4.725   3.081   4.979
 4646TIP3    H113902   4.636   3.053   5.000
 4646TIP3    H213903   4.780   3.007   5.005
 4647TIP3   OH213904   0.618   0.797   3.227
 4647TIP3    H113905   0.624   0.802   3.132
 4647TIP3    H213906   0.535   0.753   3.244
 4648TIP3   OH213907   1.179   5.367   0.536
 4648TIP3    H113908   1.108   5.428   0.519
 4648TIP3    H213909   1.149   5.283   0.500
 4649TIP3   OH213910   6.879   5.952   0.988
 4649TIP3    H113911   6.956   5.970   0.934
 4649TIP3    H213912   6.891   6.007   1.066
 4650TIP3   OH213913   2.616   5.312   3.956
 4650TIP3    H113914   2.692   5.281   4.005
 4650TIP3    H213915   2.578   5.381   4.010
 4651TIP3   OH213916   2.023   0.993   3.328
 4651TIP3    H113917   2.006   0.962   3.417
 4651TIP3    H213918   1.940   0.978   3.282
 4652TIP3   OH213919   3.751   1.680   4.479
 4652TIP3    H113920   3.774   1.773   4.482
 4652TIP3    H213921   3.815   1.637   4.535
 4653TIP3   OH213922   5.900   4.153   4.971
 4653TIP3    H113923   5.813   4.127   4.942
 4653TIP3    H213924   5.956   4.079   4.947
 4654TIP3   OH213925   1.563   2.840   4.204
 4654TIP3    H113926   1.577   2.927   4.166
 4654TIP3    H213927   1.525   2.789   4.133
 4655TIP3   OH213928   5.298   2.705   3.450
 4655TIP3    H113929   5.298   2.748   3.364
 4655TIP3    H213930   5.328   2.616   3.432
 4656TIP3   OH213931   2.328   1.450   1.686
 4656TIP3    H113932   2.266   1.418   1.620
 4656TIP3    H213933   2.413   1.416   1.658
 4657TIP3   OH213934   3.163   3.270   5.021
 4657TIP3    H113935   3.088   3.330   5.013
 4657TIP3    H213936   3.222   3.313   5.082
 4658TIP3   OH213937   3.812   3.302   1.832
 4658TIP3    H113938   3.865   3.379   1.853
 4658TIP3    H213939   3.791   3.313   1.740
 4659TIP3   OH213940   1.629   2.183   5.095
 4659TIP3    H113941   1.565   2.111   5.099
 4659TIP3    H213942   1.608   2.227   5.013
 4660TIP3   OH213943   5.962   6.228   2.255
 4660TIP3    H113944   5.976   6.250   2.163
 4660TIP3    H213945   6.049   6.212   2.289
 4661TIP3   OH213946   6.180   0.077   3.691
 4661TIP3    H113947   6.187   0.161   3.646
 4661TIP3    H213948   6.086   0.063   3.700
 4662TIP3   OH213949   2.497   4.783   2.600
 4662TIP3    H113950   2.435   4.776   2.673
 4662TIP3    H213951   2.567   4.839   2.634
 4663TIP3   OH213952   1.914   1.419   0.670
 4663TIP3    H113953   1.966   1.339   0.679
 4663TIP3    H213954   1.971   1.489   0.701
 4664TIP3   OH213955   4.298   4.743   3.488
 4664TIP3    H113956   4.323   4.681   3.420
 4664TIP3    H213957   4.211   4.773   3.463
 4665TIP3   OH213958   3.142   1.178   4.798
 4665TIP3    H113959   3.117   1.117   4.729
 4665TIP3    H213960   3.076   1.248   4.793
 4666TIP3   OH213961   3.725   4.987   2.074
 4666TIP3    H113962   3.786   4.994   2.148
 4666TIP3    H213963   3.780   5.003   1.997
 4667TIP3   OH213964   4.631   5.920   5.756
 4667TIP3    H113965   4.627   5.848   5.819
 4667TIP3    H213966   4.598   5.996   5.804
 4668TIP3   OH213967   0.599   4.531   2.188
 4668TIP3    H113968   0.571   4.508   2.100
 4668TIP3    H213969   0.592   4.627   2.190
 4669TIP3   OH213970   5.306   5.271   0.693
 4669TIP3    H113971   5.322   5.252   0.601
 4669TIP3    H213972   5.287   5.364   0.696
 4670TIP3   OH213973   0.762   3.209   4.891
 4670TIP3    H113974   0.733   3.123   4.861
 4670TIP3    H213975   0.839   3.191   4.944
 4671TIP3   OH213976   5.972   5.592   0.211
 4671TIP3    H113977   5.901   5.534   0.185
 4671TIP3    H213978   5.942   5.633   0.292
 4672TIP3   OH213979   4.545   5.608   2.617
 4672TIP3    H113980   4.566   5.522   2.579
 4672TIP3    H213981   4.548   5.668   2.542
 4673TIP3   OH213982   2.526   1.037   2.051
 4673TIP3    H113983   2.578   1.105   2.010
 4673TIP3    H213984   2.479   0.996   1.977
 4674TIP3   OH213985   0.916   0.004   1.335
 4674TIP3    H113986   0.844   0.052   1.376
 4674TIP3    H213987   0.977  -0.014   1.406
 4675TIP3   OH213988   2.900   3.400   4.101
 4675TIP3    H113989   2.878   3.455   4.026
 4675TIP3    H213990   2.985   3.363   4.080
 4676TIP3   OH213991   2.653   6.751   0.300
 4676TIP3    H113992   2.606   6.773   0.380
 4676TIP3    H213993   2.624   6.662   0.278
 4677TIP3   OH213994   5.073   3.560   3.057
 4677TIP3    H113995   5.012   3.555   2.983
 4677TIP3    H213996   5.099   3.469   3.073
 4678TIP3   OH213997   2.693   0.750   4.432
 4678TIP3    H113998   2.728   0.670   4.393
 4678TIP3    H213999   2.630   0.783   4.367
 4679TIP3   OH214000   2.328   2.206   5.231
 4679TIP3    H114001   2.283   2.135   5.186
 4679TIP3    H214002   2.299   2.285   5.186
 4680TIP3   OH214003   2.434   3.700   1.072
 4680TIP3    H114004   2.370   3.769   1.052
 4680TIP3    H214005   2.383   3.633   1.116
 4681TIP3   OH214006   3.940   1.756   0.696
 4681TIP3    H114007   3.915   1.734   0.786
 4681TIP3    H214008   3.982   1.677   0.662
 4682TIP3   OH214009   5.037   0.557   1.337
 4682TIP3    H114010   4.947   0.580   1.359
 4682TIP3    H214011   5.031   0.510   1.254
 4683TIP3   OH214012   5.288   4.004   4.692
 4683TIP3    H114013   5.366   4.061   4.693
 4683TIP3    H214014   5.295   3.956   4.609
 4684TIP3   OH214015   6.395   2.003   0.313
 4684TIP3    H114016   6.341   1.926   0.296
 4684TIP3    H214017   6.476   1.987   0.266
 4685TIP3   OH214018   0.943   0.437   5.356
 4685TIP3    H114019   0.859   0.395   5.335
 4685TIP3    H214020   0.996   0.368   5.394
 4686TIP3   OH214021   4.777   1.139   3.549
 4686TIP3    H114022   4.698   1.086   3.543
 4686TIP3    H214023   4.809   1.145   3.459
 4687TIP3   OH214024   2.704   3.172   2.185
 4687TIP3    H114025   2.627   3.177   2.127
 4687TIP3    H214026   2.718   3.262   2.214
 4688TIP3   OH214027   2.926   0.362   0.543
 4688TIP3    H114028   2.873   0.289   0.510
 4688TIP3    H214029   3.012   0.324   0.558
 4689TIP3   OH214030   6.577   1.944   4.326
 4689TIP3    H114031   6.575   1.989   4.242
 4689TIP3    H214032   6.491   1.901   4.332
 4690TIP3   OH214033   1.268   6.725   5.300
 4690TIP3    H114034   1.235   6.815   5.290
 4690TIP3    H214035   1.356   6.735   5.336
 4691TIP3   OH214036   0.671   2.872   2.200
 4691TIP3    H114037   0.669   2.776   2.204
 4691TIP3    H214038   0.690   2.892   2.108
 4692TIP3   OH214039   5.342   5.917   0.492
 4692TIP3    H114040   5.327   5.828   0.460
 4692TIP3    H214041   5.261   5.963   0.473
 4693TIP3   OH214042   4.509   4.191   4.740
 4693TIP3    H114043   4.594   4.182   4.696
 4693TIP3    H214044   4.530   4.232   4.824
 4694TIP3   OH214045   2.052   3.911   1.612
 4694TIP3    H114046   2.123   3.938   1.670
 4694TIP3    H214047   2.022   3.993   1.573
 4695TIP3   OH214048   4.083   5.822   3.277
 4695TIP3    H114049   4.063   5.781   3.192
 4695TIP3    H214050   4.085   5.748   3.338
 4696TIP3   OH214051   2.456   4.972   1.654
 4696TIP3    H114052   2.533   4.971   1.711
 4696TIP3    H214053   2.381   4.974   1.714
 4697TIP3   OH214054   1.229   3.146   1.366
 4697TIP3    H114055   1.314   3.178   1.394
 4697TIP3    H214056   1.243   3.111   1.278
 4698TIP3   OH214057   1.274   2.111   3.791
 4698TIP3    H114058   1.311   2.066   3.715
 4698TIP3    H214059   1.275   2.203   3.767
 4699TIP3   OH214060   0.631   6.681   1.646
 4699TIP3    H114061   0.562   6.740   1.616
 4699TIP3    H214062   0.636   6.614   1.578
 4700TIP3   OH214063   5.705   2.774   2.536
 4700TIP3    H114064   5.701   2.852   2.480
 4700TIP3    H214065   5.750   2.804   2.615
 4701TIP3   OH214066   1.957   5.411   2.198
 4701TIP3    H114067   1.961   5.437   2.291
 4701TIP3    H214068   1.986   5.320   2.197
 4702TIP3   OH214069   1.224   5.983   1.340
 4702TIP3    H114070   1.204   5.920   1.410
 4702TIP3    H214071   1.297   6.034   1.375
 4703TIP3   OH214072   5.395   0.259   3.881
 4703TIP3    H114073   5.446   0.179   3.886
 4703TIP3    H214074   5.394   0.281   3.787
 4704TIP3   OH214075   0.779   2.960   4.068
 4704TIP3    H114076   0.778   2.955   3.972
 4704TIP3    H214077   0.821   3.043   4.087
 4705TIP3   OH214078   0.897   3.791   5.435
 4705TIP3    H114079   0.918   3.878   5.468
 4705TIP3    H214080   0.973   3.765   5.384
 4706TIP3   OH214081   4.129   4.045   5.648
 4706TIP3    H114082   4.095   4.130   5.675
 4706TIP3    H214083   4.224   4.052   5.661
 4707TIP3   OH214084   3.551   2.753   1.779
 4707TIP3    H114085   3.554   2.735   1.685
 4707TIP3    H214086   3.567   2.847   1.785
 4708TIP3   OH214087   5.155   5.972   5.445
 4708TIP3    H114088   5.169   6.040   5.511
 4708TIP3    H214089   5.131   6.020   5.365
 4709TIP3   OH214090   4.149   6.376   3.182
 4709TIP3    H114091   4.163   6.339   3.270
 4709TIP3    H214092   4.227   6.352   3.133
 4710TIP3   OH214093   7.155   0.526   0.341
 4710TIP3    H114094   7.176   0.461   0.274
 4710TIP3    H214095   7.061   0.517   0.355
 4711TIP3   OH214096   5.155   0.463   0.542
 4711TIP3    H114097   5.151   0.437   0.450
 4711TIP3    H214098   5.226   0.409   0.579
 4712TIP3   OH214099   5.819   2.096   2.985
 4712TIP3    H114100   5.879   2.160   3.025
 4712TIP3    H214101   5.750   2.084   3.050
 4713TIP3   OH214102   6.194   1.699   5.014
 4713TIP3    H114103   6.289   1.697   5.006
 4713TIP3    H214104   6.162   1.665   4.930
 4714TIP3   OH214105   6.499   3.886   1.226
 4714TIP3    H114106   6.429   3.946   1.251
 4714TIP3    H214107   6.539   3.927   1.149
 4715TIP3   OH214108   4.713   0.881   4.914
 4715TIP3    H114109   4.658   0.959   4.900
 4715TIP3    H214110   4.684   0.819   4.848
 4716TIP3   OH214111   7.010   1.947   4.655
 4716TIP3    H114112   7.087   1.893   4.640
 4716TIP3    H214113   7.031   1.999   4.733
 4717TIP3   OH214114   0.111   0.267   2.131
 4717TIP3    H114115   0.044   0.215   2.176
 4717TIP3    H214116   0.088   0.260   2.038
 4718TIP3   OH214117   0.546   4.728   5.846
 4718TIP3    H114118   0.566   4.820   5.827
 4718TIP3    H214119   0.464   4.712   5.799
 4719TIP3   OH214120   2.582   6.472   0.253
 4719TIP3    H114121   2.657   6.454   0.309
 4719TIP3    H214122   2.516   6.408   0.280
 4720TIP3   OH214123   5.676   2.568   3.986
 4720TIP3    H114124   5.687   2.522   4.069
 4720TIP3    H214125   5.648   2.656   4.012
 4721TIP3   OH214126   3.701   5.126   0.023
 4721TIP3    H114127   3.638   5.089  -0.039
 4721TIP3    H214128   3.675   5.218   0.031
 4722TIP3   OH214129   3.870   3.642   4.535
 4722TIP3    H114130   3.923   3.695   4.476
 4722TIP3    H214131   3.782   3.677   4.526
 4723TIP3   OH214132   1.627   5.653   3.051
 4723TIP3    H114133   1.607   5.577   3.106
 4723TIP3    H214134   1.616   5.621   2.962
 4724TIP3   OH214135   6.116   4.750   3.352
 4724TIP3    H114136   6.093   4.835   3.390
 4724TIP3    H214137   6.204   4.763   3.318
 4725TIP3   OH214138   1.605   2.287   3.733
 4725TIP3    H114139   1.581   2.202   3.770
 4725TIP3    H214140   1.674   2.266   3.669
 4726TIP3   OH214141   4.494   6.345   1.214
 4726TIP3    H114142   4.520   6.253   1.208
 4726TIP3    H214143   4.563   6.393   1.168
 4727TIP3   OH214144   6.789   3.995   1.855
 4727TIP3    H114145   6.809   3.922   1.797
 4727TIP3    H214146   6.752   4.062   1.798
 4728TIP3   OH214147   1.278   5.409   4.278
 4728TIP3    H114148   1.320   5.401   4.192
 4728TIP3    H214149   1.259   5.502   4.287
 4729TIP3   OH214150   3.133   1.966   4.833
 4729TIP3    H114151   3.201   1.925   4.781
 4729TIP3    H214152   3.071   1.895   4.853
 4730TIP3   OH214153   6.192   1.039   5.531
 4730TIP3    H114154   6.144   1.028   5.613
 4730TIP3    H214155   6.258   0.969   5.532
 4731TIP3   OH214156   1.289   0.900   4.042
 4731TIP3    H114157   1.256   0.811   4.032
 4731TIP3    H214158   1.232   0.953   3.986
 4732TIP3   OH214159   5.365   6.626   3.862
 4732TIP3    H114160   5.320   6.671   3.791
 4732TIP3    H214161   5.435   6.577   3.820
 4733TIP3   OH214162   0.652   6.355   0.730
 4733TIP3    H114163   0.637   6.295   0.803
 4733TIP3    H214164   0.666   6.441   0.772
 4734TIP3   OH214165   6.249   1.217   1.175
 4734TIP3    H114166   6.181   1.217   1.108
 4734TIP3    H214167   6.305   1.142   1.153
 4735TIP3   OH214168   6.513   4.031   5.467
 4735TIP3    H114169   6.559   3.975   5.405
 4735TIP3    H214170   6.569   4.031   5.545
 4736TIP3   OH214171   3.149   4.821   0.240
 4736TIP3    H114172   3.092   4.857   0.309
 4736TIP3    H214173   3.164   4.895   0.181
 4737TIP3   OH214174   1.523   1.264   0.112
 4737TIP3    H114175   1.609   1.222   0.115
 4737TIP3    H214176   1.539   1.350   0.072
 4738TIP3   OH214177   3.995   4.019   2.051
 4738TIP3    H114178   3.956   3.932   2.041
 4738TIP3    H214179   4.028   4.022   2.141
 4739TIP3   OH214180   4.831   2.325   4.884
 4739TIP3    H114181   4.863   2.360   4.967
 4739TIP3    H214182   4.906   2.333   4.824
 4740TIP3   OH214183   0.831   1.573   3.321
 4740TIP3    H114184   0.761   1.628   3.356
 4740TIP3    H214185   0.799   1.484   3.329
 4741TIP3   OH214186   0.080   2.707   3.803
 4741TIP3    H114187   0.090   2.707   3.898
 4741TIP3    H214188   0.156   2.658   3.770
 4742TIP3   OH214189   6.048   6.011   3.765
 4742TIP3    H114190   6.131   6.021   3.811
 4742TIP3    H214191   6.001   5.944   3.815
 4743TIP3   OH214192   3.971   3.662   2.865
 4743TIP3    H114193   4.032   3.605   2.912
 4743TIP3    H214194   4.024   3.736   2.836
 4744TIP3   OH214195   6.122   0.702   3.744
 4744TIP3    H114196   6.096   0.727   3.833
 4744TIP3    H214197   6.069   0.624   3.724
 4745TIP3   OH214198   1.035   2.801   1.440
 4745TIP3    H114199   1.103   2.828   1.379
 4745TIP3    H214200   1.050   2.707   1.452
 4746TIP3   OH214201   0.549   5.798   4.072
 4746TIP3    H114202   0.619   5.737   4.094
 4746TIP3    H214203   0.580   5.844   3.995
 4747TIP3   OH214204   2.406   3.281   5.074
 4747TIP3    H114205   2.376   3.371   5.068
 4747TIP3    H214206   2.330   3.228   5.050
 4748TIP3   OH214207   1.177   2.073   0.343
 4748TIP3    H114208   1.082   2.073   0.330
 4748TIP3    H214209   1.212   2.113   0.263
 4749TIP3   OH214210   1.888   4.216   2.305
 4749TIP3    H114211   1.863   4.308   2.304
 4749TIP3    H214212   1.947   4.206   2.230
 4750TIP3   OH214213   0.845   1.872   3.758
 4750TIP3    H114214   0.767   1.818   3.746
 4750TIP3    H214215   0.812   1.961   3.763
 4751TIP3   OH214216   0.556   2.603   4.533
 4751TIP3    H114217   0.480   2.591   4.476
 4751TIP3    H214218   0.520   2.642   4.613
 4752TIP3   OH214219   2.281   2.916   0.515
 4752TIP3    H114220   2.212   2.857   0.545
 4752TIP3    H214221   2.361   2.881   0.554
 4753TIP3   OH214222   6.916   3.759   3.963
 4753TIP3    H114223   6.998   3.784   3.921
 4753TIP3    H214224   6.929   3.778   4.056
 4754TIP3   OH214225   4.358   6.267   4.689
 4754TIP3    H114226   4.318   6.311   4.614
 4754TIP3    H214227   4.330   6.176   4.682
 4755TIP3   OH214228   0.310   2.132   5.098
 4755TIP3    H114229   0.233   2.182   5.071
 4755TIP3    H214230   0.314   2.144   5.193
 4756TIP3   OH214231   6.292   3.986   2.718
 4756TIP3    H114232   6.386   3.973   2.728
 4756TIP3    H214233   6.256   3.961   2.803
 4757TIP3   OH214234   6.964   2.989   2.804
 4757TIP3    H114235   6.924   3.075   2.813
 4757TIP3    H214236   7.031   2.986   2.871
 4758TIP3   OH214237   0.962   2.980   5.598
 4758TIP3    H114238   1.028   2.912   5.583
 4758TIP3    H214239   0.914   2.986   5.515
 4759TIP3   OH214240   2.405   0.934   0.406
 4759TIP3    H114241   2.314   0.935   0.438
 4759TIP3    H214242   2.447   1.007   0.452
 4760TIP3   OH214243   5.753   3.365   1.893
 4760TIP3    H114244   5.728   3.303   1.824
 4760TIP3    H214245   5.825   3.321   1.939
 4761TIP3   OH214246   3.709   3.674   2.902
 4761TIP3    H114247   3.696   3.582   2.881
 4761TIP3    H214248   3.804   3.687   2.895
 4762TIP3   OH214249   1.263   5.200   0.214
 4762TIP3    H114250   1.220   5.136   0.271
 4762TIP3    H214251   1.206   5.207   0.138
 4763TIP3   OH214252   3.476   4.988   2.175
 4763TIP3    H114253   3.566   4.987   2.143
 4763TIP3    H214254   3.484   4.979   2.270
 4764TIP3   OH214255   3.677   4.750   3.040
 4764TIP3    H114256   3.710   4.823   3.091
 4764TIP3    H214257   3.733   4.748   2.962
 4765TIP3   OH214258   6.119   5.449   2.108
 4765TIP3    H114259   6.027   5.463   2.129
 4765TIP3    H214260   6.150   5.388   2.175
 4766TIP3   OH214261   4.573   4.445   3.438
 4766TIP3    H114262   4.573   4.453   3.342
 4766TIP3    H214263   4.484   4.418   3.459
 4767TIP3   OH214264  -0.004   2.734   1.240
 4767TIP3    H114265  -0.046   2.713   1.156
 4767TIP3    H214266   0.085   2.701   1.231
 4768TIP3   OH214267   4.730   2.398   3.723
 4768TIP3    H114268   4.729   2.315   3.676
 4768TIP3    H214269   4.640   2.411   3.752
 4769TIP3   OH214270   5.865   2.861   1.322
 4769TIP3    H114271   5.798   2.920   1.287
 4769TIP3    H214272   5.828   2.827   1.403
 4770TIP3   OH214273   4.571   3.109   4.741
 4770TIP3    H114274   4.609   3.048   4.677
 4770TIP3    H214275   4.640   3.119   4.808
 4771TIP3   OH214276   3.039   0.926   5.393
 4771TIP3    H114277   3.014   0.968   5.475
 4771TIP3    H214278   3.038   0.996   5.329
 4772TIP3   OH214279   7.161   3.557   3.288
 4772TIP3    H114280   7.161   3.653   3.294
 4772TIP3    H214281   7.068   3.533   3.284
 4773TIP3   OH214282   0.956   2.939   2.431
 4773TIP3    H114283   1.048   2.912   2.422
 4773TIP3    H214284   0.910   2.860   2.459
 4774TIP3   OH214285   2.696   6.131   0.451
 4774TIP3    H114286   2.721   6.215   0.412
 4774TIP3    H214287   2.776   6.099   0.492
 4775TIP3   OH214288   6.805   5.257   2.517
 4775TIP3    H114289   6.876   5.232   2.576
 4775TIP3    H214290   6.768   5.174   2.487
 4776TIP3   OH214291   2.618   5.270   2.754
 4776TIP3    H114292   2.573   5.353   2.768
 4776TIP3    H214293   2.669   5.256   2.834
 4777TIP3   OH214294   3.389   3.996   0.600
 4777TIP3    H114295   3.414   3.969   0.512
 4777TIP3    H214296   3.352   4.083   0.590
 4778TIP3   OH214297   2.030   5.045   3.688
 4778TIP3    H114298   2.033   5.061   3.782
 4778TIP3    H214299   2.121   5.055   3.659
 4779TIP3   OH214300   4.240   5.543   1.974
 4779TIP3    H114301   4.230   5.615   2.035
 4779TIP3    H214302   4.335   5.538   1.957
 4780TIP3   OH214303   6.556   4.024   0.987
 4780TIP3    H114304   6.626   4.038   0.923
 4780TIP3    H214305   6.482   4.072   0.951
 4781TIP3   OH214306   5.278   2.675   0.621
 4781TIP3    H114307   5.340   2.742   0.591
 4781TIP3    H214308   5.332   2.600   0.643
 4782TIP3   OH214309   2.086   3.128   0.589
 4782TIP3    H114310   2.160   3.068   0.584
 4782TIP3    H214311   2.035   3.096   0.664
 4783TIP3   OH214312   1.045   5.271   4.338
 4783TIP3    H114313   1.114   5.328   4.303
 4783TIP3    H214314   0.998   5.326   4.401
 4784TIP3   OH214315   7.004   2.804   2.353
 4784TIP3    H114316   7.010   2.870   2.422
 4784TIP3    H214317   7.047   2.727   2.390
 4785TIP3   OH214318   3.264   5.810   4.641
 4785TIP3    H114319   3.186   5.847   4.681
 4785TIP3    H214320   3.267   5.849   4.553
 4786TIP3   OH214321   0.357   4.012   3.504
 4786TIP3    H114322   0.347   4.080   3.437
 4786TIP3    H214323   0.296   3.943   3.476
 4787TIP3   OH214324   6.574   3.794   1.478
 4787TIP3    H114325   6.487   3.783   1.516
 4787TIP3    H214326   6.561   3.856   1.407
 4788TIP3   OH214327   5.072   2.570   0.444
 4788TIP3    H114328   4.998   2.630   0.456
 4788TIP3    H214329   5.132   2.592   0.514
 4789TIP3   OH214330   0.548   5.348   5.584
 4789TIP3    H114331   0.476   5.284   5.586
 4789TIP3    H214332   0.593   5.331   5.501
 4790TIP3   OH214333   2.225   3.096   0.951
 4790TIP3    H114334   2.290   3.039   0.910
 4790TIP3    H214335   2.272   3.177   0.970
 4791TIP3   OH214336   1.121   1.419   4.841
 4791TIP3    H114337   1.123   1.323   4.849
 4791TIP3    H214338   1.029   1.442   4.853
 4792TIP3   OH214339   0.440   2.558   4.829
 4792TIP3    H114340   0.375   2.517   4.773
 4792TIP3    H214341   0.464   2.490   4.892
 4793TIP3   OH214342   2.789   6.192   4.019
 4793TIP3    H114343   2.722   6.202   3.951
 4793TIP3    H214344   2.772   6.106   4.057
 4794TIP3   OH214345   3.167   1.156   1.164
 4794TIP3    H114346   3.247   1.209   1.157
 4794TIP3    H214347   3.164   1.104   1.084
 4795TIP3   OH214348   6.278   5.442   4.185
 4795TIP3    H114349   6.292   5.367   4.243
 4795TIP3    H214350   6.224   5.407   4.114
 4796TIP3   OH214351   4.675   4.819   0.591
 4796TIP3    H114352   4.593   4.810   0.543
 4796TIP3    H214353   4.651   4.802   0.683
 4797TIP3   OH214354   1.560   0.374   1.012
 4797TIP3    H114355   1.527   0.312   1.077
 4797TIP3    H214356   1.653   0.382   1.030
 4798TIP3   OH214357   0.820   2.628   0.777
 4798TIP3    H114358   0.893   2.683   0.805
 4798TIP3    H214359   0.861   2.554   0.732
 4799TIP3   OH214360   0.722   3.643   2.713
 4799TIP3    H114361   0.799   3.693   2.690
 4799TIP3    H214362   0.735   3.558   2.671
 4800TIP3   OH214363   3.534   6.610   1.374
 4800TIP3    H114364   3.563   6.561   1.451
 4800TIP3    H214365   3.594   6.583   1.305
 4801TIP3   OH214366   5.812   3.277   1.593
 4801TIP3    H114367   5.768   3.192   1.595
 4801TIP3    H214368   5.803   3.306   1.503
 4802TIP3   OH214369   2.657   6.565   2.361
 4802TIP3    H114370   2.685   6.493   2.306
 4802TIP3    H214371   2.564   6.551   2.374
 4803TIP3   OH214372   3.759   5.331   3.283
 4803TIP3    H114373   3.693   5.276   3.241
 4803TIP3    H214374   3.815   5.361   3.211
 4804TIP3   OH214375   2.960   2.456   4.065
 4804TIP3    H114376   2.876   2.411   4.072
 4804TIP3    H214377   3.022   2.389   4.035
 4805TIP3   OH214378   3.071   3.286   2.660
 4805TIP3    H114379   3.154   3.255   2.697
 4805TIP3    H214380   3.033   3.208   2.619
 4806TIP3   OH214381   6.836   6.391   1.284
 4806TIP3    H114382   6.884   6.457   1.334
 4806TIP3    H214383   6.773   6.355   1.346
 4807TIP3   OH214384   1.122   2.459   3.350
 4807TIP3    H114385   1.159   2.392   3.292
 4807TIP3    H214386   1.195   2.485   3.406
 4808TIP3   OH214387   6.346   1.245   2.177
 4808TIP3    H114388   6.427   1.287   2.208
 4808TIP3    H214389   6.306   1.310   2.119
 4809TIP3   OH214390   7.210   6.635   0.849
 4809TIP3    H114391   7.157   6.568   0.805
 4809TIP3    H214392   7.179   6.717   0.812
 4810TIP3   OH214393   2.239   2.414   5.440
 4810TIP3    H114394   2.296   2.429   5.516
 4810TIP3    H214395   2.160   2.375   5.476
 4811TIP3   OH214396   7.198   0.776   0.840
 4811TIP3    H114397   7.269   0.734   0.791
 4811TIP3    H214398   7.132   0.708   0.849
 4812TIP3   OH214399   2.111   6.555   3.943
 4812TIP3    H114400   2.172   6.610   3.894
 4812TIP3    H214401   2.026   6.600   3.935
 4813TIP3   OH214402   5.427   2.011   3.761
 4813TIP3    H114403   5.444   1.955   3.837
 4813TIP3    H214404   5.397   2.094   3.798
 4814TIP3   OH214405   3.088   5.204   3.486
 4814TIP3    H114406   3.149   5.134   3.462
 4814TIP3    H214407   3.138   5.259   3.547
 4815TIP3   OH214408   5.269   2.198   0.035
 4815TIP3    H114409   5.200   2.175   0.099
 4815TIP3    H214410   5.238   2.162  -0.048
 4816TIP3   OH214411   7.148   5.584   0.290
 4816TIP3    H114412   7.128   5.508   0.235
 4816TIP3    H214413   7.199   5.641   0.234
 4817TIP3   OH214414   4.570   5.523   5.227
 4817TIP3    H114415   4.493   5.467   5.232
 4817TIP3    H214416   4.643   5.465   5.249
 4818TIP3   OH214417   5.741   0.309   3.568
 4818TIP3    H114418   5.676   0.241   3.587
 4818TIP3    H214419   5.751   0.356   3.650
 4819TIP3   OH214420   3.445   4.795   0.858
 4819TIP3    H114421   3.429   4.742   0.936
 4819TIP3    H214422   3.468   4.881   0.892
 4820TIP3   OH214423   5.076   4.565   4.853
 4820TIP3    H114424   5.138   4.612   4.908
 4820TIP3    H214425   5.043   4.631   4.791
 4821TIP3   OH214426   2.934   2.767   5.499
 4821TIP3    H114427   3.012   2.713   5.483
 4821TIP3    H214428   2.924   2.766   5.594
 4822TIP3   OH214429   5.068   2.672   2.636
 4822TIP3    H114430   5.111   2.752   2.606
 4822TIP3    H214431   5.012   2.646   2.564
 4823TIP3   OH214432   5.507   4.161   1.608
 4823TIP3    H114433   5.574   4.229   1.621
 4823TIP3    H214434   5.555   4.084   1.579
 4824TIP3   OH214435   1.811   6.724   4.755
 4824TIP3    H114436   1.792   6.784   4.827
 4824TIP3    H214437   1.899   6.691   4.774
 4825TIP3   OH214438   0.374   1.465   2.748
 4825TIP3    H114439   0.322   1.546   2.745
 4825TIP3    H214440   0.314   1.399   2.783
 4826TIP3   OH214441   6.688   4.629   4.476
 4826TIP3    H114442   6.616   4.614   4.538
 4826TIP3    H214443   6.656   4.701   4.421
 4827TIP3   OH214444   4.823   6.564   0.106
 4827TIP3    H114445   4.878   6.568   0.028
 4827TIP3    H214446   4.738   6.533   0.073
 4828TIP3   OH214447   1.560   5.781   4.452
 4828TIP3    H114448   1.538   5.693   4.483
 4828TIP3    H214449   1.500   5.795   4.378
 4829TIP3   OH214450   2.938   4.447   4.537
 4829TIP3    H114451   2.857   4.464   4.489
 4829TIP3    H214452   3.003   4.502   4.494
 4830TIP3   OH214453   6.536   1.363   2.787
 4830TIP3    H114454   6.581   1.375   2.871
 4830TIP3    H214455   6.543   1.449   2.745
 4831TIP3   OH214456   2.848   4.203   3.949
 4831TIP3    H114457   2.780   4.177   3.886
 4831TIP3    H214458   2.930   4.192   3.901
 4832TIP3   OH214459   0.037   1.964   1.425
 4832TIP3    H114460   0.097   1.917   1.483
 4832TIP3    H214461   0.040   1.915   1.343
 4833TIP3   OH214462   4.572   0.354   3.788
 4833TIP3    H114463   4.653   0.405   3.784
 4833TIP3    H214464   4.598   0.266   3.760
 4834TIP3   OH214465   6.897   3.925   5.450
 4834TIP3    H114466   6.860   3.950   5.535
 4834TIP3    H214467   6.976   3.977   5.442
 4835TIP3   OH214468   4.733   4.051   1.671
 4835TIP3    H114469   4.810   4.079   1.721
 4835TIP3    H214470   4.697   3.978   1.722
 4836TIP3   OH214471   0.128   1.519   0.665
 4836TIP3    H114472   0.152   1.430   0.638
 4836TIP3    H214473   0.036   1.513   0.689
 4837TIP3   OH214474   3.097   2.234   1.490
 4837TIP3    H114475   3.020   2.265   1.443
 4837TIP3    H214476   3.093   2.278   1.575
 4838TIP3   OH214477   1.620   4.271   2.878
 4838TIP3    H114478   1.699   4.294   2.830
 4838TIP3    H214479   1.649   4.210   2.946
 4839TIP3   OH214480   1.920   0.774   4.521
 4839TIP3    H114481   1.903   0.813   4.435
 4839TIP3    H214482   1.842   0.721   4.539
 4840TIP3   OH214483   3.430   1.992   3.605
 4840TIP3    H114484   3.421   2.074   3.556
 4840TIP3    H214485   3.514   2.000   3.649
 4841TIP3   OH214486   2.982   5.905   0.621
 4841TIP3    H114487   2.974   5.867   0.708
 4841TIP3    H214488   3.075   5.921   0.610
 4842TIP3   OH214489   4.228   4.130   4.495
 4842TIP3    H114490   4.320   4.106   4.506
 4842TIP3    H214491   4.186   4.105   4.577
 4843TIP3   OH214492   3.024   4.041   1.467
 4843TIP3    H114493   2.958   3.978   1.438
 4843TIP3    H214494   3.105   4.012   1.423
 4844TIP3   OH214495   1.280   4.018   1.269
 4844TIP3    H114496   1.231   4.011   1.187
 4844TIP3    H214497   1.372   4.017   1.242
 4845TIP3   OH214498   0.720   4.960   2.322
 4845TIP3    H114499   0.787   4.900   2.355
 4845TIP3    H214500   0.728   5.037   2.379
 4846TIP3   OH214501   5.291   2.892   5.596
 4846TIP3    H114502   5.248   2.807   5.603
 4846TIP3    H214503   5.361   2.878   5.532
 4847TIP3   OH214504   3.419   2.279   5.589
 4847TIP3    H114505   3.458   2.289   5.502
 4847TIP3    H214506   3.487   2.310   5.649
 4848TIP3   OH214507   5.160   2.650   0.201
 4848TIP3    H114508   5.106   2.729   0.191
 4848TIP3    H214509   5.119   2.603   0.274
 4849TIP3   OH214510   5.278   1.075   1.140
 4849TIP3    H114511   5.299   1.009   1.205
 4849TIP3    H214512   5.363   1.112   1.116
 4850TIP3   OH214513   0.894   4.754   2.457
 4850TIP3    H114514   0.959   4.794   2.514
 4850TIP3    H214515   0.812   4.759   2.507
 4851TIP3   OH214516   1.591   5.024   1.068
 4851TIP3    H114517   1.540   5.105   1.071
 4851TIP3    H214518   1.675   5.050   1.031
 4852TIP3   OH214519   3.158   1.028   3.773
 4852TIP3    H114520   3.165   0.943   3.731
 4852TIP3    H214521   3.096   1.077   3.720
 4853TIP3   OH214522   3.498   6.246   4.941
 4853TIP3    H114523   3.466   6.171   4.893
 4853TIP3    H214524   3.590   6.254   4.914
 4854TIP3   OH214525   4.058   0.538   4.319
 4854TIP3    H114526   4.151   0.546   4.341
 4854TIP3    H214527   4.014   0.598   4.379
 4855TIP3   OH214528   7.035   1.559   0.492
 4855TIP3    H114529   7.126   1.583   0.478
 4855TIP3    H214530   6.988   1.602   0.421
 4856TIP3   OH214531   1.164   6.492   4.298
 4856TIP3    H114532   1.175   6.540   4.380
 4856TIP3    H214533   1.207   6.408   4.313
 4857TIP3   OH214534   3.052   2.521   1.372
 4857TIP3    H114535   3.025   2.460   1.304
 4857TIP3    H214536   3.147   2.529   1.361
 4858TIP3   OH214537   1.586   1.030   4.320
 4858TIP3    H114538   1.578   1.104   4.379
 4858TIP3    H214539   1.550   1.061   4.237
 4859TIP3   OH214540   6.608   2.900   2.686
 4859TIP3    H114541   6.657   2.950   2.620
 4859TIP3    H214542   6.555   2.838   2.636
 4860TIP3   OH214543   2.127   6.520   3.408
 4860TIP3    H114544   2.199   6.524   3.345
 4860TIP3    H214545   2.061   6.465   3.366
 4861TIP3   OH214546   2.531   4.133   4.029
 4861TIP3    H114547   2.550   4.095   4.114
 4861TIP3    H214548   2.528   4.059   3.969
 4862TIP3   OH214549   0.278   5.843   1.087
 4862TIP3    H114550   0.244   5.844   1.176
 4862TIP3    H214551   0.245   5.924   1.048
 4863TIP3   OH214552   4.572   2.024   1.421
 4863TIP3    H114553   4.657   1.981   1.409
 4863TIP3    H214554   4.567   2.042   1.514
 4864TIP3   OH214555   1.863   4.133   0.680
 4864TIP3    H114556   1.791   4.192   0.660
 4864TIP3    H214557   1.911   4.124   0.598
 4865TIP3   OH214558   0.301   3.926   1.523
 4865TIP3    H114559   0.207   3.944   1.531
 4865TIP3    H214560   0.308   3.870   1.445
 4866TIP3   OH214561   5.030   1.197   3.101
 4866TIP3    H114562   5.100   1.170   3.041
 4866TIP3    H214563   5.043   1.291   3.113
 4867TIP3   OH214564   1.812   3.166   1.038
 4867TIP3    H114565   1.768   3.190   1.120
 4867TIP3    H214566   1.743   3.173   0.972
 4868TIP3   OH214567   5.549   3.381   5.730
 4868TIP3    H114568   5.563   3.289   5.709
 4868TIP3    H214569   5.484   3.382   5.799
 4869TIP3   OH214570   1.674   5.190   3.348
 4869TIP3    H114571   1.628   5.189   3.432
 4869TIP3    H214572   1.753   5.242   3.365
 4870TIP3   OH214573   3.481   2.649   5.372
 4870TIP3    H114574   3.469   2.571   5.319
 4870TIP3    H214575   3.468   2.722   5.312
 4871TIP3   OH214576   1.299   5.002   1.590
 4871TIP3    H114577   1.251   4.921   1.571
 4871TIP3    H214578   1.316   5.040   1.503
 4872TIP3   OH214579   2.401   4.610   5.105
 4872TIP3    H114580   2.320   4.657   5.083
 4872TIP3    H214581   2.471   4.670   5.080
 4873TIP3   OH214582   5.112   6.612   4.628
 4873TIP3    H114583   5.144   6.701   4.638
 4873TIP3    H214584   5.141   6.567   4.707
 4874TIP3   OH214585   5.478   6.350   0.995
 4874TIP3    H114586   5.451   6.330   1.084
 4874TIP3    H214587   5.572   6.365   1.001
 4875TIP3   OH214588   3.215   6.721   4.174
 4875TIP3    H114589   3.204   6.667   4.251
 4875TIP3    H214590   3.238   6.659   4.104
 4876TIP3   OH214591   3.045   1.801   3.272
 4876TIP3    H114592   3.138   1.788   3.292
 4876TIP3    H214593   3.000   1.773   3.352
 4877TIP3   OH214594   1.393   4.733   3.996
 4877TIP3    H114595   1.408   4.821   3.961
 4877TIP3    H214596   1.297   4.727   4.003
 4878TIP3   OH214597   0.060   6.319   3.078
 4878TIP3    H114598   0.048   6.282   2.990
 4878TIP3    H214599  -0.025   6.307   3.120
 4879TIP3   OH214600   7.199   4.387   0.438
 4879TIP3    H114601   7.190   4.338   0.356
 4879TIP3    H214602   7.134   4.457   0.431
 4880TIP3   OH214603   3.613   5.245   0.518
 4880TIP3    H114604   3.543   5.277   0.575
 4880TIP3    H214605   3.666   5.189   0.575
 4881TIP3   OH214606   4.822   5.010   4.168
 4881TIP3    H114607   4.877   5.020   4.090
 4881TIP3    H214608   4.880   4.972   4.234
 4882TIP3   OH214609   6.289   4.218   5.872
 4882TIP3    H114610   6.205   4.230   5.916
 4882TIP3    H214611   6.266   4.200   5.781
 4883TIP3   OH214612   1.997   6.757   2.452
 4883TIP3    H114613   2.073   6.751   2.394
 4883TIP3    H214614   1.990   6.850   2.473
 4884TIP3   OH214615   1.084   0.187   5.382
 4884TIP3    H114616   1.115   0.194   5.291
 4884TIP3    H214617   1.020   0.116   5.381
 4885TIP3   OH214618   3.059   5.767   5.120
 4885TIP3    H114619   3.001   5.704   5.164
 4885TIP3    H214620   3.022   5.853   5.142
 4886TIP3   OH214621   6.719   1.612   3.180
 4886TIP3    H114622   6.640   1.649   3.217
 4886TIP3    H214623   6.692   1.527   3.145
 4887TIP3   OH214624   6.457   5.735   5.152
 4887TIP3    H114625   6.440   5.749   5.246
 4887TIP3    H214626   6.541   5.778   5.137
 4888TIP3   OH214627   2.190   2.337   4.905
 4888TIP3    H114628   2.185   2.255   4.955
 4888TIP3    H214629   2.223   2.401   4.967
 4889TIP3   OH214630   6.026   5.990   4.206
 4889TIP3    H114631   6.024   6.079   4.169
 4889TIP3    H214632   6.105   5.989   4.261
 4890TIP3   OH214633   3.761   3.369   5.682
 4890TIP3    H114634   3.758   3.357   5.777
 4890TIP3    H214635   3.711   3.296   5.646
 4891TIP3   OH214636   2.038   2.215   0.463
 4891TIP3    H114637   2.028   2.185   0.553
 4891TIP3    H214638   2.096   2.150   0.422
 4892TIP3   OH214639   0.243   6.791   5.619
 4892TIP3    H114640   0.303   6.861   5.644
 4892TIP3    H214641   0.295   6.733   5.563
 4893TIP3   OH214642   2.690   1.616   4.218
 4893TIP3    H114643   2.632   1.675   4.267
 4893TIP3    H214644   2.683   1.646   4.128
 4894TIP3   OH214645   5.291   2.968   3.572
 4894TIP3    H114646   5.243   2.963   3.655
 4894TIP3    H214647   5.319   2.878   3.555
 4895TIP3   OH214648   3.196   2.586   5.781
 4895TIP3    H114649   3.134   2.652   5.751
 4895TIP3    H214650   3.142   2.507   5.792
 4896TIP3   OH214651   0.564   6.374   2.087
 4896TIP3    H114652   0.588   6.466   2.076
 4896TIP3    H214653   0.583   6.334   2.002
 4897TIP3   OH214654   4.875   6.019   5.699
 4897TIP3    H114655   4.793   5.984   5.734
 4897TIP3    H214656   4.874   6.112   5.724
 4898TIP3   OH214657   0.468   4.637   4.950
 4898TIP3    H114658   0.407   4.681   4.891
 4898TIP3    H214659   0.554   4.674   4.929
 4899TIP3   OH214660   3.503   4.358   4.038
 4899TIP3    H114661   3.584   4.322   4.075
 4899TIP3    H214662   3.474   4.292   3.975
 4900TIP3   OH214663   4.642   2.947   5.600
 4900TIP3    H114664   4.738   2.946   5.598
 4900TIP3    H214665   4.617   2.861   5.565
 4901TIP3   OH214666   2.979   6.354   3.746
 4901TIP3    H114667   3.008   6.327   3.833
 4901TIP3    H214668   2.931   6.278   3.712
 4902TIP3   OH214669   5.884   6.701   3.725
 4902TIP3    H114670   5.856   6.775   3.779
 4902TIP3    H214671   5.975   6.685   3.751
 4903TIP3   OH214672   5.722   5.266   4.331
 4903TIP3    H114673   5.664   5.248   4.405
 4903TIP3    H214674   5.713   5.189   4.274
 4904TIP3   OH214675   0.157   1.114   1.416
 4904TIP3    H114676   0.241   1.156   1.398
 4904TIP3    H214677   0.174   1.057   1.491
 4905TIP3   OH214678   0.748   4.927   2.045
 4905TIP3    H114679   0.760   4.938   2.140
 4905TIP3    H214680   0.782   5.008   2.008
 4906TIP3   OH214681   6.043   3.106   1.354
 4906TIP3    H114682   6.066   3.037   1.292
 4906TIP3    H214683   5.948   3.102   1.360
 4907TIP3   OH214684   7.132   5.195   2.404
 4907TIP3    H114685   7.207   5.148   2.439
 4907TIP3    H214686   7.103   5.250   2.476
 4908TIP3   OH214687   3.347   0.306   4.576
 4908TIP3    H114688   3.266   0.257   4.589
 4908TIP3    H214689   3.416   0.242   4.595
 4909TIP3   OH214690   1.493   3.308   1.170
 4909TIP3    H114691   1.578   3.351   1.162
 4909TIP3    H214692   1.493   3.272   1.259
 4910TIP3   OH214693   1.865   6.493   0.368
 4910TIP3    H114694   1.848   6.542   0.448
 4910TIP3    H214695   1.844   6.554   0.297
 4911TIP3   OH214696   6.687   5.245   4.595
 4911TIP3    H114697   6.751   5.201   4.540
 4911TIP3    H214698   6.616   5.270   4.536
 4912TIP3   OH214699   2.645   1.434   4.891
 4912TIP3    H114700   2.564   1.462   4.849
 4912TIP3    H214701   2.624   1.349   4.930
 4913TIP3   OH214702   5.893   1.588   1.781
 4913TIP3    H114703   5.895   1.642   1.860
 4913TIP3    H214704   5.959   1.627   1.724
 4914TIP3   OH214705   5.350   4.063   0.886
 4914TIP3    H114706   5.394   4.089   0.967
 4914TIP3    H214707   5.286   4.132   0.871
 4915TIP3   OH214708   1.594   5.806   2.087
 4915TIP3    H114709   1.546   5.752   2.025
 4915TIP3    H214710   1.531   5.873   2.114
 4916TIP3   OH214711   4.239   0.767   2.717
 4916TIP3    H114712   4.325   0.808   2.729
 4916TIP3    H214713   4.196   0.820   2.651
 4917TIP3   OH214714   4.631   1.944   0.408
 4917TIP3    H114715   4.562   1.933   0.342
 4917TIP3    H214716   4.654   1.854   0.434
 4918TIP3   OH214717   1.735   5.320   3.026
 4918TIP3    H114718   1.823   5.327   3.064
 4918TIP3    H214719   1.676   5.344   3.098
 4919TIP3   OH214720   1.864   3.044   1.424
 4919TIP3    H114721   1.787   3.100   1.419
 4919TIP3    H214722   1.932   3.100   1.460
 4920TIP3   OH214723   2.098   3.149   5.051
 4920TIP3    H114724   2.110   3.067   5.100
 4920TIP3    H214725   2.118   3.125   4.961
 4921TIP3   OH214726   6.187   1.512   1.693
 4921TIP3    H114727   6.181   1.465   1.610
 4921TIP3    H214728   6.188   1.604   1.668
 4922TIP3   OH214729   1.174   6.637   0.984
 4922TIP3    H114730   1.158   6.688   1.063
 4922TIP3    H214731   1.246   6.579   1.007
 4923TIP3   OH214732   2.664   6.413   5.818
 4923TIP3    H114733   2.660   6.439   5.726
 4923TIP3    H214734   2.749   6.447   5.848
 4924TIP3   OH214735   6.382   5.447   1.202
 4924TIP3    H114736   6.324   5.522   1.218
 4924TIP3    H214737   6.333   5.372   1.237
 4925TIP3   OH214738   0.094   2.673   4.096
 4925TIP3    H114739   0.082   2.745   4.157
 4925TIP3    H214740   0.006   2.643   4.076
 4926TIP3   OH214741   3.401   0.765   4.843
 4926TIP3    H114742   3.372   0.675   4.827
 4926TIP3    H214743   3.439   0.793   4.760
 4927TIP3   OH214744   3.902   6.191   1.110
 4927TIP3    H114745   3.910   6.103   1.075
 4927TIP3    H214746   3.991   6.226   1.109
 4928TIP3   OH214747   6.420   2.151   5.774
 4928TIP3    H114748   6.501   2.111   5.807
 4928TIP3    H214749   6.350   2.105   5.819
 4929TIP3   OH214750   1.313   2.842   2.278
 4929TIP3    H114751   1.342   2.752   2.261
 4929TIP3    H214752   1.287   2.842   2.370
 4930TIP3   OH214753   3.856   3.107   2.558
 4930TIP3    H114754   3.905   3.091   2.639
 4930TIP3    H214755   3.864   3.026   2.508
 4931TIP3   OH214756   6.766   2.545   3.760
 4931TIP3    H114757   6.749   2.581   3.847
 4931TIP3    H214758   6.690   2.490   3.742
 4932TIP3   OH214759   3.097   5.624   0.000
 4932TIP3    H114760   3.064   5.540  -0.030
 4932TIP3    H214761   3.177   5.603   0.049
 4933TIP3   OH214762   6.086   0.534   4.932
 4933TIP3    H114763   6.003   0.520   4.886
 4933TIP3    H214764   6.148   0.556   4.863
 4934TIP3   OH214765   2.287   4.457   3.470
 4934TIP3    H114766   2.204   4.418   3.441
 4934TIP3    H214767   2.350   4.386   3.464
 4935TIP3   OH214768   4.897   4.456   3.261
 4935TIP3    H114769   4.803   4.468   3.245
 4935TIP3    H214770   4.927   4.543   3.288
 4936TIP3   OH214771   1.496   5.519   4.459
 4936TIP3    H114772   1.544   5.529   4.542
 4936TIP3    H214773   1.428   5.454   4.478
 4937TIP3   OH214774   4.134   3.249   2.505
 4937TIP3    H114775   4.096   3.309   2.569
 4937TIP3    H214776   4.168   3.176   2.557
 4938TIP3   OH214777   7.076   6.721   2.892
 4938TIP3    H114778   7.103   6.683   2.976
 4938TIP3    H214779   7.110   6.810   2.895
 4939TIP3   OH214780   2.638   2.331   4.936
 4939TIP3    H114781   2.633   2.260   5.000
 4939TIP3    H214782   2.708   2.305   4.877
 4940TIP3   OH214783   4.992   5.936   1.397
 4940TIP3    H114784   5.070   5.969   1.443
 4940TIP3    H214785   4.920   5.959   1.455
 4941TIP3   OH214786   1.401   3.987   5.442
 4941TIP3    H114787   1.341   3.986   5.367
 4941TIP3    H214788   1.395   3.899   5.479
 4942TIP3   OH214789   6.156   5.709   1.798
 4942TIP3    H114790   6.200   5.734   1.879
 4942TIP3    H214791   6.078   5.662   1.828
 4943TIP3   OH214792   6.135   4.630   2.450
 4943TIP3    H114793   6.218   4.597   2.416
 4943TIP3    H214794   6.153   4.649   2.542
 4944TIP3   OH214795   3.424   1.197   4.843
 4944TIP3    H114796   3.337   1.234   4.860
 4944TIP3    H214797   3.477   1.223   4.918
 4945TIP3   OH214798   2.052   2.801   2.794
 4945TIP3    H114799   2.019   2.857   2.724
 4945TIP3    H214800   1.975   2.755   2.827
 4946TIP3   OH214801   7.127   4.599   1.320
 4946TIP3    H114802   7.066   4.608   1.247
 4946TIP3    H214803   7.072   4.581   1.396
 4947TIP3   OH214804   2.756   1.636   5.051
 4947TIP3    H114805   2.707   1.647   5.132
 4947TIP3    H214806   2.707   1.570   5.002
 4948TIP3   OH214807   3.208   1.527   0.221
 4948TIP3    H114808   3.220   1.433   0.235
 4948TIP3    H214809   3.113   1.538   0.219
 4949TIP3   OH214810   1.992   5.189   4.538
 4949TIP3    H114811   1.990   5.094   4.526
 4949TIP3    H214812   1.907   5.210   4.576
 4950TIP3   OH214813   4.664   6.045   2.789
 4950TIP3    H114814   4.687   5.961   2.829
 4950TIP3    H214815   4.730   6.058   2.721
 4951TIP3   OH214816   1.381   0.120   2.309
 4951TIP3    H114817   1.457   0.150   2.258
 4951TIP3    H214818   1.418   0.090   2.392
 4952TIP3   OH214819   0.679   4.366   4.620
 4952TIP3    H114820   0.753   4.419   4.591
 4952TIP3    H214821   0.717   4.296   4.672
 4953TIP3   OH214822   1.299   0.123   2.857
 4953TIP3    H114823   1.306   0.029   2.839
 4953TIP3    H214824   1.215   0.149   2.819
 4954TIP3   OH214825   3.128   6.738   0.431
 4954TIP3    H114826   3.193   6.807   0.415
 4954TIP3    H214827   3.044   6.778   0.410
 4955TIP3   OH214828   4.183   1.171   2.395
 4955TIP3    H114829   4.228   1.240   2.346
 4955TIP3    H214830   4.248   1.103   2.407
 4956TIP3   OH214831   2.568   1.047   5.741
 4956TIP3    H114832   2.581   1.075   5.832
 4956TIP3    H214833   2.558   0.952   5.746
 4957TIP3   OH214834   3.199   0.887   1.511
 4957TIP3    H114835   3.188   0.818   1.446
 4957TIP3    H214836   3.210   0.841   1.594
 4958TIP3   OH214837   2.021   3.726   4.763
 4958TIP3    H114838   2.005   3.632   4.766
 4958TIP3    H214839   2.085   3.742   4.832
 4959TIP3   OH214840   3.664   5.889   1.890
 4959TIP3    H114841   3.686   5.964   1.946
 4959TIP3    H214842   3.747   5.868   1.846
 4960TIP3   OH214843   4.439   2.689   5.857
 4960TIP3    H114844   4.443   2.602   5.896
 4960TIP3    H214845   4.381   2.680   5.782
 4961TIP3   OH214846   5.709   3.810   2.652
 4961TIP3    H114847   5.630   3.767   2.620
 4961TIP3    H214848   5.693   3.904   2.638
 4962TIP3   OH214849   1.252   6.109   2.982
 4962TIP3    H114850   1.173   6.074   3.022
 4962TIP3    H214851   1.289   6.167   3.049
 4963TIP3   OH214852   4.421   4.063   1.886
 4963TIP3    H114853   4.405   4.094   1.797
 4963TIP3    H214854   4.335   4.058   1.926
 4964TIP3   OH214855   1.846   2.061   3.268
 4964TIP3    H114856   1.936   2.074   3.299
 4964TIP3    H214857   1.834   1.966   3.268
 4965TIP3   OH214858   2.659   6.402   5.535
 4965TIP3    H114859   2.609   6.336   5.487
 4965TIP3    H214860   2.662   6.477   5.477
 4966TIP3   OH214861   0.080   6.484   2.022
 4966TIP3    H114862   0.061   6.476   2.115
 4966TIP3    H214863   0.103   6.576   2.009
 4967TIP3   OH214864   5.209   3.635   5.412
 4967TIP3    H114865   5.134   3.657   5.468
 4967TIP3    H214866   5.171   3.585   5.340
 4968TIP3   OH214867   2.893   5.920   4.452
 4968TIP3    H114868   2.954   5.970   4.506
 4968TIP3    H214869   2.863   5.849   4.509
 4969TIP3   OH214870   5.223   3.521   0.265
 4969TIP3    H114871   5.211   3.487   0.353
 4969TIP3    H214872   5.312   3.556   0.265
 4970TIP3   OH214873   0.298   3.578   5.294
 4970TIP3    H114874   0.345   3.573   5.377
 4970TIP3    H214875   0.288   3.486   5.267
 4971TIP3   OH214876   1.146   1.821   0.542
 4971TIP3    H114877   1.159   1.728   0.525
 4971TIP3    H214878   1.122   1.858   0.457
 4972TIP3   OH214879   3.566   5.489   1.426
 4972TIP3    H114880   3.602   5.504   1.514
 4972TIP3    H214881   3.526   5.402   1.432
 4973TIP3   OH214882   1.484   6.265   2.840
 4973TIP3    H114883   1.436   6.290   2.919
 4973TIP3    H214884   1.574   6.292   2.857
 4974TIP3   OH214885   5.442   6.740   5.003
 4974TIP3    H114886   5.398   6.754   5.087
 4974TIP3    H214887   5.407   6.809   4.946
 4975TIP3   OH214888   5.603   6.474   0.407
 4975TIP3    H114889   5.585   6.520   0.489
 4975TIP3    H214890   5.697   6.454   0.412
 4976TIP3   OH214891   6.475   1.686   4.938
 4976TIP3    H114892   6.466   1.595   4.912
 4976TIP3    H214893   6.568   1.695   4.962
 4977TIP3   OH214894   0.034   5.225   3.252
 4977TIP3    H114895  -0.010   5.265   3.327
 4977TIP3    H214896   0.014   5.131   3.259
 4978TIP3   OH214897   4.631   5.456   2.193
 4978TIP3    H114898   4.672   5.482   2.111
 4978TIP3    H214899   4.551   5.410   2.167
 4979TIP3   OH214900   1.019   0.210   2.766
 4979TIP3    H114901   0.988   0.161   2.842
 4979TIP3    H214902   0.968   0.176   2.693
 4980TIP3   OH214903   2.700   5.567   5.559
 4980TIP3    H114904   2.681   5.582   5.466
 4980TIP3    H214905   2.688   5.653   5.600
 4981TIP3   OH214906   0.939   5.184   2.890
 4981TIP3    H114907   0.943   5.256   2.953
 4981TIP3    H214908   0.984   5.111   2.934
 4982TIP3   OH214909   3.190   1.348   0.665
 4982TIP3    H114910   3.265   1.381   0.714
 4982TIP3    H214911   3.201   1.253   0.666
 4983TIP3   OH214912   6.729   3.633   3.784
 4983TIP3    H114913   6.775   3.697   3.839
 4983TIP3    H214914   6.766   3.645   3.697
 4984TIP3   OH214915   6.475   4.693   5.291
 4984TIP3    H114916   6.530   4.621   5.259
 4984TIP3    H214917   6.417   4.652   5.356
 4985TIP3   OH214918   5.370   0.894   5.723
 4985TIP3    H114919   5.407   0.916   5.637
 4985TIP3    H214920   5.426   0.940   5.786
 4986TIP3   OH214921   6.685   5.907   5.113
 4986TIP3    H114922   6.710   5.854   5.037
 4986TIP3    H214923   6.764   5.910   5.167
 4987TIP3   OH214924   3.243   1.483   1.061
 4987TIP3    H114925   3.159   1.466   1.020
 4987TIP3    H214926   3.276   1.561   1.016
 4988TIP3   OH214927   4.753   3.136   5.278
 4988TIP3    H114928   4.782   3.150   5.188
 4988TIP3    H214929   4.660   3.116   5.271
 4989TIP3   OH214930   2.690   1.395   3.668
 4989TIP3    H114931   2.640   1.477   3.674
 4989TIP3    H214932   2.763   1.415   3.611
 4990TIP3   OH214933   2.346   1.937   3.089
 4990TIP3    H114934   2.432   1.896   3.087
 4990TIP3    H214935   2.359   2.018   3.140
 4991TIP3   OH214936   3.082   2.906   3.269
 4991TIP3    H114937   3.047   2.888   3.182
 4991TIP3    H214938   3.108   2.998   3.266
 4992TIP3   OH214939   3.224   4.753   0.682
 4992TIP3    H114940   3.303   4.779   0.729
 4992TIP3    H214941   3.238   4.662   0.659
 4993TIP3   OH214942   2.702   3.070   0.700
 4993TIP3    H114943   2.630   3.027   0.654
 4993TIP3    H214944   2.674   3.162   0.708
 4994TIP3   OH214945   2.768   4.237   5.630
 4994TIP3    H114946   2.684   4.214   5.669
 4994TIP3    H214947   2.797   4.315   5.678
 4995TIP3   OH214948   0.845   0.308   0.261
 4995TIP3    H114949   0.793   0.378   0.301
 4995TIP3    H214950   0.830   0.232   0.317
 4996TIP3   OH214951   5.880   6.429   0.810
 4996TIP3    H114952   5.944   6.363   0.835
 4996TIP3    H214953   5.801   6.406   0.859
 4997TIP3   OH214954   0.933   2.859   0.881
 4997TIP3    H114955   0.970   2.946   0.869
 4997TIP3    H214956   0.915   2.853   0.974
 4998TIP3   OH214957   2.842   3.489   0.346
 4998TIP3    H114958   2.808   3.410   0.304
 4998TIP3    H214959   2.916   3.458   0.398
 4999TIP3   OH214960   2.514   3.834   2.321
 4999TIP3    H114961   2.505   3.922   2.358
 4999TIP3    H214962   2.454   3.780   2.372
 5000TIP3   OH214963   4.432   4.382   0.177
 5000TIP3    H114964   4.453   4.423   0.261
 5000TIP3    H214965   4.508   4.401   0.122
 5001TIP3   OH214966   3.275   4.656   5.244
 5001TIP3    H114967   3.295   4.652   5.151
 5001TIP3    H214968   3.180   4.668   5.247
 5002TIP3   OH214969   4.390   3.456   2.124
 5002TIP3    H114970   4.308   3.459   2.174
 5002TIP3    H214971   4.457   3.485   2.186
 5003TIP3   OH214972   1.697   4.261   3.790
 5003TIP3    H114973   1.705   4.356   3.802
 5003TIP3    H214974   1.760   4.223   3.851
 5004TIP3   OH214975   5.393   1.729   5.687
 5004TIP3    H114976   5.471   1.684   5.655
 5004TIP3    H214977   5.398   1.720   5.783
 5005TIP3   OH214978   6.887   0.420   3.048
 5005TIP3    H114979   6.862   0.333   3.079
 5005TIP3    H214980   6.805   0.459   3.018
 5006TIP3   OH214981   6.861   6.737   0.644
 5006TIP3    H114982   6.951   6.718   0.618
 5006TIP3    H214983   6.820   6.769   0.564
 5007TIP3   OH214984   5.930   3.858   2.392
 5007TIP3    H114985   5.875   3.935   2.402
 5007TIP3    H214986   6.010   3.880   2.440
 5008TIP3   OH214987   2.477   5.159   5.410
 5008TIP3    H114988   2.477   5.114   5.495
 5008TIP3    H214989   2.541   5.112   5.358
 5009TIP3   OH214990   1.230   4.274   4.138
 5009TIP3    H114991   1.272   4.219   4.204
 5009TIP3    H214992   1.291   4.346   4.124
 5010TIP3   OH214993   4.494   6.598   4.141
 5010TIP3    H114994   4.470   6.602   4.233
 5010TIP3    H214995   4.439   6.528   4.105
 5011TIP3   OH214996   1.877   6.168   1.322
 5011TIP3    H114997   1.959   6.204   1.356
 5011TIP3    H214998   1.895   6.075   1.308
 5012TIP3   OH214999   1.457   5.130   1.834
 5012TIP3    H115000   1.447   5.081   1.915
 5012TIP3    H215001   1.488   5.066   1.770
 5013TIP3   OH215002   1.466   2.389   3.215
 5013TIP3    H115003   1.531   2.324   3.187
 5013TIP3    H215004   1.476   2.460   3.152
 5014TIP3   OH215005   1.615   0.056   4.816
 5014TIP3    H115006   1.672   0.108   4.873
 5014TIP3    H215007   1.529   0.059   4.859
 5015TIP3   OH215008   5.577   5.173   0.868
 5015TIP3    H115009   5.601   5.230   0.795
 5015TIP3    H215010   5.481   5.174   0.868
 5016TIP3   OH215011   1.355   3.383   3.572
 5016TIP3    H115012   1.450   3.373   3.572
 5016TIP3    H215013   1.341   3.478   3.573
 5017TIP3   OH215014   6.194   6.517   1.284
 5017TIP3    H115015   6.120   6.459   1.301
 5017TIP3    H215016   6.250   6.507   1.360
 5018TIP3   OH215017   7.074   1.520   1.376
 5018TIP3    H115018   7.155   1.493   1.419
 5018TIP3    H215019   7.015   1.447   1.388
 5019TIP3   OH215020   5.534   6.672   3.429
 5019TIP3    H115021   5.490   6.608   3.485
 5019TIP3    H215022   5.535   6.753   3.480
 5020TIP3   OH215023   2.353   6.809   5.853
 5020TIP3    H115024   2.423   6.843   5.908
 5020TIP3    H215025   2.337   6.721   5.886
 5021TIP3   OH215026   0.673   5.036   4.734
 5021TIP3    H115027   0.720   4.953   4.744
 5021TIP3    H215028   0.739   5.097   4.701
 5022TIP3   OH215029   5.020   3.848   4.504
 5022TIP3    H115030   4.940   3.840   4.453
 5022TIP3    H215031   5.081   3.894   4.446
 5023TIP3   OH215032   6.852   2.775   0.598
 5023TIP3    H115033   6.933   2.730   0.573
 5023TIP3    H215034   6.859   2.787   0.692
 5024TIP3   OH215035   4.363   6.237   1.510
 5024TIP3    H115036   4.371   6.195   1.424
 5024TIP3    H215037   4.386   6.168   1.572
 5025TIP3   OH215038   6.304   3.089   5.369
 5025TIP3    H115039   6.274   3.161   5.424
 5025TIP3    H215040   6.383   3.122   5.327
 5026TIP3   OH215041   6.613   4.516   4.821
 5026TIP3    H115042   6.676   4.553   4.884
 5026TIP3    H215043   6.659   4.442   4.783
 5027TIP3   OH215044   6.753   5.496   4.700
 5027TIP3    H115045   6.704   5.422   4.664
 5027TIP3    H215046   6.707   5.518   4.781
 5028TIP3   OH215047   3.948   1.800   3.064
 5028TIP3    H115048   3.972   1.720   3.016
 5028TIP3    H215049   3.855   1.811   3.046
 5029TIP3   OH215050   0.776   4.083   5.414
 5029TIP3    H115051   0.773   4.063   5.320
 5029TIP3    H215052   0.860   4.047   5.443
 5030TIP3   OH215053   0.026   1.337   4.062
 5030TIP3    H115054  -0.025   1.352   3.982
 5030TIP3    H215055   0.101   1.396   4.054
 5031TIP3   OH215056   0.255   2.541   1.846
 5031TIP3    H115057   0.242   2.551   1.940
 5031TIP3    H215058   0.276   2.629   1.815
 5032TIP3   OH215059   5.958   0.567   3.242
 5032TIP3    H115060   5.874   0.576   3.198
 5032TIP3    H215061   6.017   0.533   3.175
 5033TIP3   OH215062   5.258   6.681   0.689
 5033TIP3    H115063   5.334   6.630   0.716
 5033TIP3    H215064   5.184   6.638   0.731
 5034TIP3   OH215065   7.115   5.371   3.497
 5034TIP3    H115066   7.049   5.434   3.468
 5034TIP3    H215067   7.115   5.377   3.592
 5035TIP3   OH215068   1.341   0.189   4.198
 5035TIP3    H115069   1.266   0.175   4.140
 5035TIP3    H215070   1.366   0.101   4.226
 5036TIP3   OH215071   2.577   2.143   1.266
 5036TIP3    H115072   2.492   2.120   1.303
 5036TIP3    H215073   2.580   2.238   1.270
 5037TIP3   OH215074   5.761   2.294   0.690
 5037TIP3    H115075   5.840   2.263   0.734
 5037TIP3    H215076   5.772   2.389   0.687
 5038TIP3   OH215077   1.403   0.754   5.578
 5038TIP3    H115078   1.405   0.849   5.586
 5038TIP3    H215079   1.487   0.724   5.614
 5039TIP3   OH215080   6.834   4.938   3.509
 5039TIP3    H115081   6.783   5.016   3.529
 5039TIP3    H215082   6.924   4.960   3.535
 5040TIP3   OH215083   4.492   1.401   4.707
 5040TIP3    H115084   4.586   1.381   4.700
 5040TIP3    H215085   4.449   1.329   4.662
 5041TIP3   OH215086   0.504   4.763   5.500
 5041TIP3    H115087   0.483   4.833   5.438
 5041TIP3    H215088   0.419   4.723   5.520
 5042TIP3   OH215089   6.219   1.459   0.604
 5042TIP3    H115090   6.221   1.464   0.700
 5042TIP3    H215091   6.294   1.511   0.575
 5043TIP3   OH215092   1.354   3.978   3.376
 5043TIP3    H115093   1.360   4.074   3.375
 5043TIP3    H215094   1.277   3.960   3.429
 5044TIP3   OH215095   4.272   6.545   3.447
 5044TIP3    H115096   4.181   6.575   3.453
 5044TIP3    H215097   4.311   6.570   3.531
 5045TIP3   OH215098   4.088   1.202   0.809
 5045TIP3    H115099   4.082   1.154   0.892
 5045TIP3    H215100   4.146   1.148   0.755
 5046TIP3   OH215101   1.717   6.142   4.269
 5046TIP3    H115102   1.679   6.119   4.184
 5046TIP3    H215103   1.811   6.127   4.259
 5047TIP3   OH215104   4.955   5.817   5.557
 5047TIP3    H115105   4.922   5.873   5.628
 5047TIP3    H215106   4.995   5.878   5.495
 5048TIP3   OH215107   7.168   2.227   1.452
 5048TIP3    H115108   7.192   2.136   1.466
 5048TIP3    H215109   7.230   2.277   1.505
 5049TIP3   OH215110   5.293   1.524   2.676
 5049TIP3    H115111   5.370   1.536   2.620
 5049TIP3    H215112   5.277   1.611   2.712
 5050TIP3   OH215113   1.633   5.074   1.340
 5050TIP3    H115114   1.608   5.056   1.249
 5050TIP3    H215115   1.729   5.078   1.338
 5051TIP3   OH215116   4.293   6.202   0.258
 5051TIP3    H115117   4.307   6.170   0.168
 5051TIP3    H215118   4.373   6.250   0.278
 5052TIP3   OH215119   4.932   4.431   3.997
 5052TIP3    H115120   4.989   4.499   4.033
 5052TIP3    H215121   4.967   4.416   3.909
 5053TIP3   OH215122   5.926   1.064   4.561
 5053TIP3    H115123   5.968   1.147   4.584
 5053TIP3    H215124   5.948   1.005   4.634
 5054TIP3   OH215125   5.048   6.500   5.768
 5054TIP3    H115126   5.016   6.469   5.683
 5054TIP3    H215127   5.015   6.589   5.775
 5055TIP3   OH215128   6.089   4.004   3.766
 5055TIP3    H115129   6.014   3.948   3.787
 5055TIP3    H215130   6.141   4.006   3.847
 5056TIP3   OH215131   6.193   1.362   1.931
 5056TIP3    H115132   6.184   1.275   1.895
 5056TIP3    H215133   6.203   1.419   1.855
 5057TIP3   OH215134   7.223   2.564   3.190
 5057TIP3    H115135   7.155   2.543   3.254
 5057TIP3    H215136   7.211   2.500   3.120
 5058TIP3   OH215137   0.544   0.205   0.964
 5058TIP3    H115138   0.491   0.239   0.892
 5058TIP3    H215139   0.616   0.268   0.973
 5059TIP3   OH215140   1.385   4.222   3.173
 5059TIP3    H115141   1.307   4.220   3.117
 5059TIP3    H215142   1.411   4.314   3.176
 5060TIP3   OH215143   2.592   2.112   5.168
 5060TIP3    H115144   2.511   2.159   5.184
 5060TIP3    H215145   2.564   2.028   5.132
 5061TIP3   OH215146   1.829   0.819   1.518
 5061TIP3    H115147   1.754   0.793   1.465
 5061TIP3    H215148   1.807   0.790   1.607
 5062TIP3   OH215149   4.441   6.769   1.094
 5062TIP3    H115150   4.471   6.682   1.121
 5062TIP3    H215151   4.520   6.823   1.095
 5063TIP3   OH215152   3.566   0.070   4.935
 5063TIP3    H115153   3.565   0.107   4.846
 5063TIP3    H215154   3.657   0.041   4.947
 5064TIP3   OH215155   2.907   4.206   5.209
 5064TIP3    H115156   2.982   4.251   5.248
 5064TIP3    H215157   2.911   4.230   5.116
 5065TIP3   OH215158   1.126   6.036   5.599
 5065TIP3    H115159   1.068   6.080   5.537
 5065TIP3    H215160   1.173   5.972   5.546
 5066TIP3   OH215161   1.509   3.947   4.823
 5066TIP3    H115162   1.530   3.976   4.912
 5066TIP3    H215163   1.594   3.942   4.779
 5067TIP3   OH215164   0.502   2.289   3.686
 5067TIP3    H115165   0.483   2.365   3.632
 5067TIP3    H215166   0.485   2.318   3.776
 5068TIP3   OH215167   5.705   2.057   5.142
 5068TIP3    H115168   5.714   2.112   5.065
 5068TIP3    H215169   5.610   2.042   5.150
 5069TIP3   OH215170   3.530   3.127   4.651
 5069TIP3    H115171   3.476   3.195   4.610
 5069TIP3    H215172   3.529   3.150   4.744
 5070TIP3   OH215173   0.379   5.588   2.329
 5070TIP3    H115174   0.451   5.559   2.384
 5070TIP3    H215175   0.337   5.507   2.300
 5071TIP3   OH215176   4.070   3.391   5.340
 5071TIP3    H115177   4.126   3.457   5.300
 5071TIP3    H215178   3.990   3.392   5.288
 5072TIP3   OH215179   1.701   6.325   1.227
 5072TIP3    H115180   1.737   6.372   1.151
 5072TIP3    H215181   1.772   6.266   1.254
 5073TIP3   OH215182   1.759   2.114   1.719
 5073TIP3    H115183   1.731   2.205   1.727
 5073TIP3    H215184   1.754   2.080   1.809
 5074TIP3   OH215185   3.867   6.369   2.712
 5074TIP3    H115186   3.799   6.398   2.773
 5074TIP3    H215187   3.934   6.330   2.768
 5075TIP3   OH215188   2.553   4.700   3.870
 5075TIP3    H115189   2.545   4.785   3.826
 5075TIP3    H215190   2.495   4.642   3.821
 5076TIP3   OH215191   2.401   3.741   4.707
 5076TIP3    H115192   2.445   3.665   4.668
 5076TIP3    H215193   2.432   3.744   4.797
 5077TIP3   OH215194   4.599   3.529   4.978
 5077TIP3    H115195   4.626   3.621   4.980
 5077TIP3    H215196   4.602   3.502   5.070
 5078TIP3   OH215197   6.322   3.418   5.500
 5078TIP3    H115198   6.238   3.432   5.543
 5078TIP3    H215199   6.386   3.417   5.572
 5079TIP3   OH215200   3.780   6.650   2.729
 5079TIP3    H115201   3.837   6.711   2.776
 5079TIP3    H215202   3.742   6.703   2.659
 5080TIP3   OH215203   0.532   3.737   4.226
 5080TIP3    H115204   0.621   3.772   4.217
 5080TIP3    H215205   0.542   3.661   4.283
 5081TIP3   OH215206   0.715   6.481   1.466
 5081TIP3    H115207   0.707   6.519   1.379
 5081TIP3    H215208   0.700   6.388   1.453
 5082TIP3   OH215209   5.659   5.137   2.716
 5082TIP3    H115210   5.722   5.131   2.644
 5082TIP3    H215211   5.616   5.051   2.717
 5083TIP3   OH215212   7.092   5.994   3.967
 5083TIP3    H115213   7.104   6.000   3.872
 5083TIP3    H215214   7.127   6.077   4.000
 5084TIP3   OH215215   0.326   3.909   5.537
 5084TIP3    H115216   0.366   3.964   5.471
 5084TIP3    H215217   0.399   3.862   5.578
 5085TIP3   OH215218   1.327   4.863   3.166
 5085TIP3    H115219   1.382   4.869   3.244
 5085TIP3    H215220   1.338   4.774   3.135
 5086TIP3   OH215221   4.658   2.785   3.757
 5086TIP3    H115222   4.620   2.759   3.841
 5086TIP3    H215223   4.721   2.853   3.779
 5087TIP3   OH215224   6.121   4.281   2.464
 5087TIP3    H115225   6.149   4.324   2.545
 5087TIP3    H215226   6.198   4.284   2.407
 5088TIP3   OH215227   5.322   3.339   5.888
 5088TIP3    H115228   5.265   3.322   5.813
 5088TIP3    H215229   5.294   3.425   5.920
 5089TIP3   OH215230   4.858   5.063   4.697
 5089TIP3    H115231   4.898   4.977   4.687
 5089TIP3    H215232   4.771   5.044   4.735
 5090TIP3   OH215233   4.614   5.373   2.486
 5090TIP3    H115234   4.568   5.300   2.444
 5090TIP3    H215235   4.654   5.421   2.413
 5091TIP3   OH215236   5.834   5.697   5.327
 5091TIP3    H115237   5.753   5.684   5.277
 5091TIP3    H215238   5.895   5.732   5.262
 5092TIP3   OH215239   1.580   4.905   2.382
 5092TIP3    H115240   1.675   4.893   2.386
 5092TIP3    H215241   1.567   4.978   2.323
 5093TIP3   OH215242   0.054   5.848   3.150
 5093TIP3    H115243   0.116   5.917   3.174
 5093TIP3    H215244   0.020   5.817   3.234
 5094TIP3   OH215245   1.983   2.487   0.691
 5094TIP3    H115246   2.034   2.567   0.705
 5094TIP3    H215247   2.041   2.417   0.722
 5095TIP3   OH215248   5.607   3.122   5.708
 5095TIP3    H115249   5.603   3.063   5.632
 5095TIP3    H215250   5.545   3.084   5.771
 5096TIP3   OH215251   1.887   1.568   1.731
 5096TIP3    H115252   1.963   1.626   1.729
 5096TIP3    H215253   1.923   1.480   1.723
 5097TIP3   OH215254   1.954   6.118   2.951
 5097TIP3    H115255   2.039   6.079   2.930
 5097TIP3    H215256   1.896   6.043   2.966
 5098TIP3   OH215257   2.360   4.626   1.928
 5098TIP3    H115258   2.387   4.712   1.960
 5098TIP3    H215259   2.285   4.644   1.871
 5099TIP3   OH215260   7.026   4.296   4.609
 5099TIP3    H115261   7.028   4.256   4.522
 5099TIP3    H215262   7.112   4.338   4.619
 5100TIP3   OH215263   0.375   6.275   1.870
 5100TIP3    H115264   0.461   6.270   1.829
 5100TIP3    H215265   0.385   6.225   1.951
 5101TIP3   OH215266   6.956   5.752   2.626
 5101TIP3    H115267   6.968   5.686   2.695
 5101TIP3    H215268   7.001   5.715   2.550
 5102TIP3   OH215269   6.491   1.729   3.423
 5102TIP3    H115270   6.469   1.745   3.331
 5102TIP3    H215271   6.426   1.667   3.454
 5103TIP3   OH215272   5.775   3.125   1.219
 5103TIP3    H115273   5.836   3.172   1.163
 5103TIP3    H215274   5.709   3.090   1.159
 5104TIP3   OH215275   1.770   4.352   0.820
 5104TIP3    H115276   1.863   4.353   0.798
 5104TIP3    H215277   1.725   4.345   0.735
 5105TIP3   OH215278   3.705   1.832   2.956
 5105TIP3    H115279   3.704   1.915   2.907
 5105TIP3    H215280   3.665   1.769   2.896
 5106TIP3   OH215281   3.130   6.831   3.875
 5106TIP3    H115282   3.069   6.760   3.856
 5106TIP3    H215283   3.195   6.792   3.934
 5107TIP3   OH215284   5.025   3.351   1.711
 5107TIP3    H115285   4.981   3.414   1.769
 5107TIP3    H215286   5.035   3.272   1.765
 5108TIP3   OH215287   6.546   4.689   2.637
 5108TIP3    H115288   6.557   4.754   2.706
 5108TIP3    H215289   6.452   4.671   2.634
 5109TIP3   OH215290   1.519   2.419   5.263
 5109TIP3    H115291   1.502   2.400   5.355
 5109TIP3    H215292   1.522   2.333   5.221
 5110TIP3   OH215293   5.064   5.499   2.060
 5110TIP3    H115294   5.048   5.438   2.132
 5110TIP3    H215295   5.136   5.554   2.091
 5111TIP3   OH215296   0.746   0.420   1.777
 5111TIP3    H115297   0.746   0.384   1.866
 5111TIP3    H215298   0.838   0.432   1.756
 5112TIP3   OH215299   2.312   5.428   2.163
 5112TIP3    H115300   2.292   5.389   2.248
 5112TIP3    H215301   2.402   5.459   2.171
 5113TIP3   OH215302   2.764   2.407   4.470
 5113TIP3    H115303   2.773   2.337   4.406
 5113TIP3    H215304   2.692   2.461   4.436
 5114TIP3   OH215305   3.308   1.611   1.709
 5114TIP3    H115306   3.299   1.680   1.643
 5114TIP3    H215307   3.325   1.531   1.658
 5115TIP3   OH215308   2.936   0.342   1.175
 5115TIP3    H115309   2.959   0.370   1.264
 5115TIP3    H215310   2.898   0.255   1.187
 5116TIP3   OH215311   4.828   1.359   4.381
 5116TIP3    H115312   4.774   1.411   4.320
 5116TIP3    H215313   4.917   1.370   4.349
 5117TIP3   OH215314   2.972   2.541   4.884
 5117TIP3    H115315   2.894   2.584   4.851
 5117TIP3    H215316   2.961   2.449   4.861
 5118TIP3   OH215317   0.956   3.423   1.537
 5118TIP3    H115318   0.939   3.359   1.468
 5118TIP3    H215319   1.050   3.416   1.553
 5119TIP3   OH215320   5.060   0.059   4.329
 5119TIP3    H115321   5.027  -0.030   4.348
 5119TIP3    H215322   5.154   0.047   4.315
 5120TIP3   OH215323   7.129   2.337   0.871
 5120TIP3    H115324   7.114   2.349   0.965
 5120TIP3    H215325   7.084   2.410   0.830
 5121TIP3   OH215326   3.275   3.928   0.166
 5121TIP3    H115327   3.343   3.995   0.176
 5121TIP3    H215328   3.301   3.859   0.228
 5122TIP3   OH215329   0.368   1.885   5.445
 5122TIP3    H115330   0.300   1.849   5.388
 5122TIP3    H215331   0.341   1.861   5.534
 5123TIP3   OH215332   3.987   4.174   4.345
 5123TIP3    H115333   4.021   4.165   4.257
 5123TIP3    H215334   4.065   4.182   4.401
 5124TIP3   OH215335   6.681   2.894   1.711
 5124TIP3    H115336   6.777   2.892   1.710
 5124TIP3    H215337   6.658   2.968   1.655
 5125TIP3   OH215338   5.881   0.066   1.780
 5125TIP3    H115339   5.878   0.154   1.743
 5125TIP3    H215340   5.954   0.069   1.842
 5126TIP3   OH215341   1.052   3.793   2.795
 5126TIP3    H115342   1.050   3.751   2.710
 5126TIP3    H215343   1.139   3.834   2.800
 5127TIP3   OH215344   6.968   4.895   4.920
 5127TIP3    H115345   6.902   4.906   4.852
 5127TIP3    H215346   6.918   4.883   5.001
 5128TIP3   OH215347   0.126   1.892   4.875
 5128TIP3    H115348   0.092   1.850   4.796
 5128TIP3    H215349   0.050   1.934   4.915
 5129TIP3   OH215350   6.517   2.667   5.297
 5129TIP3    H115351   6.552   2.600   5.355
 5129TIP3    H215352   6.429   2.684   5.330
 5130TIP3   OH215353   7.048   4.834   2.346
 5130TIP3    H115354   6.991   4.901   2.384
 5130TIP3    H215355   7.135   4.874   2.346
 5131TIP3   OH215356   4.639   2.117   1.933
 5131TIP3    H115357   4.665   2.025   1.938
 5131TIP3    H215358   4.627   2.143   2.024
 5132TIP3   OH215359   1.181   5.384   5.582
 5132TIP3    H115360   1.158   5.472   5.551
 5132TIP3    H215361   1.252   5.356   5.524
 5133TIP3   OH215362   4.836   2.688   4.177
 5133TIP3    H115363   4.852   2.625   4.247
 5133TIP3    H215364   4.804   2.636   4.104
 5134TIP3   OH215365   2.656   5.199   3.323
 5134TIP3    H115366   2.627   5.289   3.310
 5134TIP3    H215367   2.727   5.206   3.387
 5135TIP3   OH215368   5.634   6.432   2.678
 5135TIP3    H115369   5.683   6.448   2.758
 5135TIP3    H215370   5.546   6.408   2.708
 5136TIP3   OH215371   7.194   4.516   3.899
 5136TIP3    H115372   7.267   4.532   3.959
 5136TIP3    H215373   7.116   4.546   3.947
 5137TIP3   OH215374   3.222   1.749   3.482
 5137TIP3    H115375   3.163   1.812   3.522
 5137TIP3    H215376   3.297   1.746   3.541
 5138TIP3   OH215377   5.292   0.505   5.456
 5138TIP3    H115378   5.361   0.528   5.394
 5138TIP3    H215379   5.315   0.552   5.536
 5139TIP3   OH215380   5.694   0.371   3.947
 5139TIP3    H115381   5.601   0.387   3.961
 5139TIP3    H215382   5.738   0.419   4.018
 5140TIP3   OH215383   3.349   3.126   2.438
 5140TIP3    H115384   3.344   3.077   2.521
 5140TIP3    H215385   3.336   3.217   2.464
 5141TIP3   OH215386   1.665   1.551   5.240
 5141TIP3    H115387   1.749   1.569   5.197
 5141TIP3    H215388   1.599   1.592   5.184
 5142TIP3   OH215389   6.263   3.970   3.993
 5142TIP3    H115390   6.267   3.890   4.045
 5142TIP3    H215391   6.349   3.977   3.953
 5143TIP3   OH215392   3.675   0.725   2.881
 5143TIP3    H115393   3.655   0.715   2.788
 5143TIP3    H215394   3.738   0.655   2.900
 5144TIP3   OH215395   6.019   3.042   0.513
 5144TIP3    H115396   6.054   3.069   0.428
 5144TIP3    H215397   6.010   3.123   0.563
 5145TIP3   OH215398   1.166   1.456   0.320
 5145TIP3    H115399   1.210   1.524   0.270
 5145TIP3    H215400   1.186   1.375   0.272
 5146TIP3   OH215401   3.301   5.836   2.586
 5146TIP3    H115402   3.322   5.901   2.653
 5146TIP3    H215403   3.333   5.874   2.504
 5147TIP3   OH215404   4.270   2.394   3.080
 5147TIP3    H115405   4.251   2.301   3.093
 5147TIP3    H215406   4.197   2.439   3.123
 5148TIP3   OH215407   5.569   3.646   5.580
 5148TIP3    H115408   5.658   3.632   5.612
 5148TIP3    H215409   5.537   3.559   5.558
 5149TIP3   OH215410   6.750   1.855   4.685
 5149TIP3    H115411   6.755   1.761   4.704
 5149TIP3    H215412   6.837   1.877   4.651
 5150TIP3   OH215413   3.550   1.656   0.722
 5150TIP3    H115414   3.460   1.671   0.752
 5150TIP3    H215415   3.575   1.738   0.678
 5151TIP3   OH215416   0.878   1.030   4.431
 5151TIP3    H115417   0.971   1.054   4.427
 5151TIP3    H215418   0.856   1.037   4.524
 5152TIP3   OH215419   0.328   2.465   4.388
 5152TIP3    H115420   0.353   2.373   4.398
 5152TIP3    H215421   0.346   2.485   4.296
 5153TIP3   OH215422   5.540   0.877   1.034
 5153TIP3    H115423   5.566   0.960   0.994
 5153TIP3    H215424   5.616   0.852   1.087
 5154TIP3   OH215425   2.069   0.754   0.774
 5154TIP3    H115426   2.069   0.685   0.707
 5154TIP3    H215427   2.087   0.708   0.856
 5155TIP3   OH215428   3.331   0.540   3.053
 5155TIP3    H115429   3.389   0.529   3.128
 5155TIP3    H215430   3.332   0.455   3.009
 5156TIP3   OH215431   2.079   6.642   1.996
 5156TIP3    H115432   2.151   6.592   2.035
 5156TIP3    H215433   2.000   6.602   2.032
 5157TIP3   OH215434   6.911   1.879   0.505
 5157TIP3    H115435   6.819   1.852   0.499
 5157TIP3    H215436   6.949   1.821   0.571
 5158TIP3   OH215437   4.299   5.469   4.410
 5158TIP3    H115438   4.374   5.459   4.468
 5158TIP3    H215439   4.233   5.513   4.463
 5159TIP3   OH215440   1.954   3.630   3.401
 5159TIP3    H115441   1.895   3.657   3.471
 5159TIP3    H215442   2.038   3.672   3.422
 5160TIP3   OH215443   1.112   1.622   3.047
 5160TIP3    H115444   1.108   1.648   3.139
 5160TIP3    H215445   1.187   1.563   3.041
 5161TIP3   OH215446   1.303   3.882   2.842
 5161TIP3    H115447   1.360   3.892   2.918
 5161TIP3    H215448   1.305   3.967   2.798
 5162TIP3   OH215449   6.959   6.458   0.805
 5162TIP3    H115450   6.980   6.450   0.712
 5162TIP3    H215451   6.864   6.450   0.809
 5163TIP3   OH215452   5.077   1.689   4.184
 5163TIP3    H115453   5.034   1.617   4.230
 5163TIP3    H215454   5.062   1.766   4.239
 5164TIP3   OH215455   6.428   3.857   2.308
 5164TIP3    H115456   6.426   3.796   2.381
 5164TIP3    H215457   6.505   3.831   2.258
 5165TIP3   OH215458   6.080   3.927   0.278
 5165TIP3    H115459   6.036   3.891   0.354
 5165TIP3    H215460   6.138   3.994   0.313
 5166TIP3   OH215461   3.292   0.022   1.677
 5166TIP3    H115462   3.290   0.064   1.592
 5166TIP3    H215463   3.215  -0.036   1.676
 5167TIP3   OH215464   5.414   3.685   4.600
 5167TIP3    H115465   5.400   3.691   4.694
 5167TIP3    H215466   5.345   3.626   4.569
 5168TIP3   OH215467   5.831   5.060   1.324
 5168TIP3    H115468   5.736   5.049   1.322
 5168TIP3    H215469   5.845   5.150   1.296
 5169TIP3   OH215470   6.666   5.955   0.821
 5169TIP3    H115471   6.588   5.923   0.866
 5169TIP3    H215472   6.728   5.974   0.891
 5170TIP3   OH215473   5.607   4.713   2.290
 5170TIP3    H115474   5.558   4.669   2.360
 5170TIP3    H215475   5.557   4.794   2.275
 5171TIP3   OH215476   3.466   1.695   3.944
 5171TIP3    H115477   3.471   1.670   3.852
 5171TIP3    H215478   3.373   1.710   3.960
 5172TIP3   OH215479   6.506   3.213   3.600
 5172TIP3    H115480   6.460   3.202   3.683
 5172TIP3    H215481   6.436   3.220   3.535
 5173TIP3   OH215482   5.474   0.675   0.037
 5173TIP3    H115483   5.387   0.644   0.012
 5173TIP3    H215484   5.477   0.765   0.004
 5174TIP3   OH215485   0.724   6.296   5.711
 5174TIP3    H115486   0.707   6.208   5.744
 5174TIP3    H215487   0.804   6.323   5.754
 5175TIP3   OH215488   3.809   4.369   4.984
 5175TIP3    H115489   3.789   4.296   4.925
 5175TIP3    H215490   3.733   4.427   4.977
 5176TIP3   OH215491   2.950   3.534   3.639
 5176TIP3    H115492   2.896   3.516   3.715
 5176TIP3    H215493   2.949   3.629   3.630
 5177TIP3   OH215494   4.901   4.666   0.856
 5177TIP3    H115495   4.930   4.639   0.768
 5177TIP3    H215496   4.826   4.722   0.840
 5178TIP3   OH215497   4.457   2.363   2.150
 5178TIP3    H115498   4.503   2.385   2.068
 5178TIP3    H215499   4.367   2.346   2.123
 5179TIP3   OH215500   3.978   4.029   4.097
 5179TIP3    H115501   4.055   3.973   4.082
 5179TIP3    H215502   4.007   4.117   4.073
 5180TIP3   OH215503   5.216   4.436   1.219
 5180TIP3    H115504   5.275   4.393   1.282
 5180TIP3    H215505   5.190   4.518   1.263
 5181TIP3   OH215506   2.755   4.224   1.937
 5181TIP3    H115507   2.836   4.187   1.973
 5181TIP3    H215508   2.707   4.256   2.013
 5182TIP3   OH215509   4.470   2.512   3.224
 5182TIP3    H115510   4.404   2.461   3.176
 5182TIP3    H215511   4.432   2.599   3.232
 5183TIP3   OH215512   1.217   4.134   4.860
 5183TIP3    H115513   1.136   4.161   4.903
 5183TIP3    H215514   1.235   4.047   4.896
 5184TIP3   OH215515   3.652   4.372   0.700
 5184TIP3    H115516   3.639   4.423   0.780
 5184TIP3    H215517   3.658   4.281   0.730
 5185TIP3   OH215518   2.589   4.550   3.536
 5185TIP3    H115519   2.649   4.475   3.544
 5185TIP3    H215520   2.512   4.524   3.586
 5186TIP3   OH215521   2.428   2.070   3.357
 5186TIP3    H115522   2.374   2.056   3.435
 5186TIP3    H215523   2.442   2.164   3.354
 5187TIP3   OH215524   5.836   0.962   4.001
 5187TIP3    H115525   5.762   0.905   3.983
 5187TIP3    H215526   5.863   0.994   3.915
 5188TIP3   OH215527   4.452   1.356   2.563
 5188TIP3    H115528   4.507   1.377   2.639
 5188TIP3    H215529   4.362   1.359   2.597
 5189TIP3   OH215530   5.916   3.109   4.331
 5189TIP3    H115531   6.007   3.081   4.335
 5189TIP3    H215532   5.885   3.077   4.247
 5190TIP3   OH215533   6.788   0.526   5.452
 5190TIP3    H115534   6.810   0.532   5.359
 5190TIP3    H215535   6.733   0.447   5.458
 5191TIP3   OH215536   1.823   0.444   3.116
 5191TIP3    H115537   1.762   0.460   3.188
 5191TIP3    H215538   1.821   0.525   3.065
 5192TIP3   OH215539   4.573   5.125   0.164
 5192TIP3    H115540   4.578   5.043   0.116
 5192TIP3    H215541   4.635   5.183   0.119
 5193TIP3   OH215542   4.816   4.447   1.030
 5193TIP3    H115543   4.730   4.459   1.070
 5193TIP3    H215544   4.814   4.503   0.952
 5194TIP3   OH215545   2.660   5.257   2.082
 5194TIP3    H115546   2.588   5.202   2.051
 5194TIP3    H215547   2.622   5.344   2.091
 5195TIP3   OH215548   7.075   3.589   5.466
 5195TIP3    H115549   7.016   3.524   5.429
 5195TIP3    H215550   7.137   3.608   5.396
 5196TIP3   OH215551   2.652   4.522   5.751
 5196TIP3    H115552   2.737   4.566   5.755
 5196TIP3    H215553   2.588   4.593   5.763
 5197TIP3   OH215554   5.665   3.416   0.328
 5197TIP3    H115555   5.755   3.386   0.315
 5197TIP3    H215556   5.659   3.434   0.422
 5198TIP3   OH215557   5.306   2.861   3.169
 5198TIP3    H115558   5.279   2.795   3.106
 5198TIP3    H215559   5.309   2.942   3.119
 5199TIP3   OH215560   7.131   2.269   5.750
 5199TIP3    H115561   7.162   2.341   5.696
 5199TIP3    H215562   7.037   2.265   5.733
 5200TIP3   OH215563   4.086   2.600   3.717
 5200TIP3    H115564   4.067   2.507   3.729
 5200TIP3    H215565   4.030   2.644   3.782
 5201TIP3   OH215566   5.243   1.207   4.007
 5201TIP3    H115567   5.297   1.145   4.056
 5201TIP3    H215568   5.268   1.293   4.042
 5202TIP3   OH215569   4.300   2.163   4.527
 5202TIP3    H115570   4.295   2.068   4.539
 5202TIP3    H215571   4.236   2.182   4.459
 5203TIP3   OH215572   6.989   4.515   1.936
 5203TIP3    H115573   6.902   4.553   1.922
 5203TIP3    H215574   7.050   4.588   1.927
 5204TIP3   OH215575   5.635   1.834   4.365
 5204TIP3    H115576   5.591   1.770   4.421
 5204TIP3    H215577   5.581   1.913   4.373
 5205TIP3   OH215578   5.525   5.403   5.627
 5205TIP3    H115579   5.551   5.420   5.537
 5205TIP3    H215580   5.540   5.309   5.640
 5206TIP3   OH215581   3.188   0.611   0.760
 5206TIP3    H115582   3.254   0.622   0.691
 5206TIP3    H215583   3.173   0.516   0.763
 5207TIP3   OH215584   3.291   3.380   0.433
 5207TIP3    H115585   3.285   3.298   0.383
 5207TIP3    H215586   3.351   3.360   0.505
 5208TIP3   OH215587   2.154   4.931   5.190
 5208TIP3    H115588   2.173   4.860   5.251
 5208TIP3    H215589   2.173   5.011   5.238
 5209TIP3   OH215590   6.816   4.497   0.048
 5209TIP3    H115591   6.865   4.541  -0.022
 5209TIP3    H215592   6.728   4.534   0.043
 5210TIP3   OH215593   2.611   4.622   3.278
 5210TIP3    H115594   2.705   4.642   3.275
 5210TIP3    H215595   2.590   4.615   3.371
 5211TIP3   OH215596   4.810   4.869   5.509
 5211TIP3    H115597   4.891   4.914   5.487
 5211TIP3    H215598   4.784   4.906   5.593
 5212TIP3   OH215599   3.937   4.387   3.868
 5212TIP3    H115600   4.030   4.407   3.857
 5212TIP3    H215601   3.906   4.371   3.779
 5213TIP3   OH215602   0.102   1.001   3.122
 5213TIP3    H115603   0.192   0.984   3.091
 5213TIP3    H215604   0.097   0.956   3.206
 5214TIP3   OH215605   3.882   4.184   1.160
 5214TIP3    H115606   3.804   4.171   1.107
 5214TIP3    H215607   3.876   4.275   1.190
 5215TIP3   OH215608   1.490   1.052   1.527
 5215TIP3    H115609   1.516   0.973   1.574
 5215TIP3    H215610   1.569   1.106   1.524
 5216TIP3   OH215611   3.680   5.231   4.765
 5216TIP3    H115612   3.643   5.180   4.693
 5216TIP3    H215613   3.614   5.227   4.834
 5217TIP3   OH215614   6.758   3.143   3.776
 5217TIP3    H115615   6.814   3.220   3.763
 5217TIP3    H215616   6.705   3.139   3.696
 5218TIP3   OH215617   1.703   2.498   4.333
 5218TIP3    H115618   1.727   2.537   4.417
 5218TIP3    H215619   1.607   2.489   4.337
 5219TIP3   OH215620   3.669   3.097   3.035
 5219TIP3    H115621   3.607   3.064   2.969
 5219TIP3    H215622   3.697   3.182   3.001
 5220TIP3   OH215623   6.295   4.602   5.480
 5220TIP3    H115624   6.216   4.639   5.519
 5220TIP3    H215625   6.358   4.597   5.552
 5221TIP3   OH215626   4.326   0.238   3.964
 5221TIP3    H115627   4.298   0.324   3.933
 5221TIP3    H215628   4.329   0.184   3.885
 5222TIP3   OH215629   4.699   2.574   5.116
 5222TIP3    H115630   4.674   2.614   5.200
 5222TIP3    H215631   4.667   2.484   5.123
 5223TIP3   OH215632   1.896   4.360   3.017
 5223TIP3    H115633   1.948   4.396   3.088
 5223TIP3    H215634   1.960   4.322   2.957
 5224TIP3   OH215635   0.911   3.919   5.163
 5224TIP3    H115636   0.861   3.838   5.154
 5224TIP3    H215637   0.854   3.987   5.126
 5225TIP3   OH215638   4.562   1.694   4.689
 5225TIP3    H115639   4.626   1.629   4.718
 5225TIP3    H215640   4.498   1.697   4.760
 5226TIP3   OH215641   1.495   5.046   4.835
 5226TIP3    H115642   1.452   4.980   4.781
 5226TIP3    H215643   1.487   5.012   4.924
 5227TIP3   OH215644   3.540   6.759   0.495
 5227TIP3    H115645   3.482   6.821   0.450
 5227TIP3    H215646   3.515   6.765   0.587
 5228TIP3   OH215647   1.655   1.224   2.691
 5228TIP3    H115648   1.704   1.259   2.766
 5228TIP3    H215649   1.670   1.130   2.695
 5229TIP3   OH215650   0.369   6.579   1.874
 5229TIP3    H115651   0.369   6.483   1.882
 5229TIP3    H215652   0.356   6.595   1.781
 5230TIP3   OH215653   7.235   6.565   1.389
 5230TIP3    H115654   7.250   6.578   1.295
 5230TIP3    H215655   7.141   6.582   1.400
 5231TIP3   OH215656   3.532   6.820   3.241
 5231TIP3    H115657   3.623   6.792   3.241
 5231TIP3    H215658   3.485   6.752   3.192
 5232TIP3   OH215659   0.534   6.058   3.005
 5232TIP3    H115660   0.567   6.001   2.935
 5232TIP3    H215661   0.471   6.116   2.961
 5233TIP3   OH215662   0.435   5.759   1.862
 5233TIP3    H115663   0.491   5.699   1.913
 5233TIP3    H215664   0.489   5.837   1.849
 5234TIP3   OH215665   3.181   2.657   4.700
 5234TIP3    H115666   3.116   2.615   4.756
 5234TIP3    H215667   3.193   2.744   4.738
 5235TIP3   OH215668   1.090   0.549   1.025
 5235TIP3    H115669   1.174   0.596   1.027
 5235TIP3    H215670   1.074   0.524   1.115
 5236TIP3   OH215671   1.630   0.678   5.742
 5236TIP3    H115672   1.597   0.757   5.785
 5236TIP3    H215673   1.707   0.653   5.794
 5237TIP3   OH215674   6.140   0.567   5.618
 5237TIP3    H115675   6.176   0.480   5.634
 5237TIP3    H215676   6.056   0.567   5.665
 5238TIP3   OH215677   6.785   5.530   3.042
 5238TIP3    H115678   6.834   5.450   3.061
 5238TIP3    H215679   6.693   5.504   3.044
 5239TIP3   OH215680   0.165   1.467   0.966
 5239TIP3    H115681   0.097   1.477   0.898
 5239TIP3    H215682   0.213   1.389   0.940
 5240TIP3   OH215683   6.919   5.034   0.898
 5240TIP3    H115684   6.827   5.040   0.873
 5240TIP3    H215685   6.948   5.125   0.904
 5241TIP3   OH215686   0.588   5.617   3.801
 5241TIP3    H115687   0.649   5.543   3.806
 5241TIP3    H215688   0.501   5.577   3.804
 5242TIP3   OH215689   3.207   3.424   0.827
 5242TIP3    H115690   3.293   3.461   0.844
 5242TIP3    H215691   3.224   3.341   0.784
 5243TIP3   OH215692   6.296   2.259   1.369
 5243TIP3    H115693   6.356   2.330   1.347
 5243TIP3    H215694   6.270   2.276   1.459
 5244TIP3   OH215695   2.664   0.562   2.892
 5244TIP3    H115696   2.621   0.614   2.959
 5244TIP3    H215697   2.593   0.519   2.845
 5245TIP3   OH215698   3.477   5.012   2.839
 5245TIP3    H115699   3.556   5.064   2.852
 5245TIP3    H215700   3.508   4.931   2.797
 5246TIP3   OH215701   5.777   4.540   0.696
 5246TIP3    H115702   5.804   4.498   0.614
 5246TIP3    H215703   5.730   4.471   0.743
 5247TIP3   OH215704   5.567   1.860   5.403
 5247TIP3    H115705   5.610   1.881   5.319
 5247TIP3    H215706   5.510   1.786   5.383
 5248TIP3   OH215707   0.924   5.782   3.436
 5248TIP3    H115708   0.887   5.704   3.395
 5248TIP3    H215709   0.850   5.843   3.443
 5249TIP3   OH215710   0.948   5.971   0.176
 5249TIP3    H115711   0.926   6.025   0.251
 5249TIP3    H215712   0.877   5.907   0.170
 5250TIP3   OH215713   0.995   5.037   5.403
 5250TIP3    H115714   0.945   5.112   5.435
 5250TIP3    H215715   0.942   4.961   5.426
 5251TIP3   OH215716   3.813   5.059   2.778
 5251TIP3    H115717   3.866   5.097   2.848
 5251TIP3    H215718   3.824   4.965   2.788
 5252TIP3   OH215719   7.177   3.857   2.718
 5252TIP3    H115720   7.238   3.803   2.668
 5252TIP3    H215721   7.210   3.853   2.808
 5253TIP3   OH215722   5.286   0.055   0.401
 5253TIP3    H115723   5.242   0.098   0.474
 5253TIP3    H215724   5.216   0.029   0.342
 5254TIP3   OH215725   4.466   0.181   3.100
 5254TIP3    H115726   4.561   0.172   3.090
 5254TIP3    H215727   4.433   0.187   3.011
 5255TIP3   OH215728   3.273   2.209   2.270
 5255TIP3    H115729   3.222   2.260   2.333
 5255TIP3    H215730   3.345   2.266   2.245
 5256TIP3   OH215731   5.217   0.180   4.058
 5256TIP3    H115732   5.281   0.225   4.004
 5256TIP3    H215733   5.144   0.163   3.999
 5257TIP3   OH215734   6.225   3.654   0.253
 5257TIP3    H115735   6.251   3.742   0.225
 5257TIP3    H215736   6.161   3.668   0.322
 5258TIP3   OH215737   4.665   6.340   2.362
 5258TIP3    H115738   4.754   6.366   2.388
 5258TIP3    H215739   4.678   6.260   2.311
 5259TIP3   OH215740   2.244   2.848   4.745
 5259TIP3    H115741   2.317   2.787   4.743
 5259TIP3    H215742   2.169   2.798   4.713
 5260TIP3   OH215743   4.303   2.747   0.149
 5260TIP3    H115744   4.387   2.701   0.151
 5260TIP3    H215745   4.240   2.684   0.183
 5261TIP3   OH215746   2.348   5.432   5.461
 5261TIP3    H115747   2.297   5.380   5.523
 5261TIP3    H215748   2.394   5.367   5.408
 5262TIP3   OH215749   5.308   6.718   5.519
 5262TIP3    H115750   5.215   6.698   5.531
 5262TIP3    H215751   5.353   6.638   5.543
 5263TIP3   OH215752   7.032   6.448   5.449
 5263TIP3    H115753   6.938   6.468   5.454
 5263TIP3    H215754   7.055   6.418   5.537
 5264TIP3   OH215755   7.185   2.514   4.340
 5264TIP3    H115756   7.216   2.442   4.394
 5264TIP3    H215757   7.209   2.593   4.389
 5265TIP3   OH215758   4.639   4.457   4.024
 5265TIP3    H115759   4.610   4.423   4.109
 5265TIP3    H215760   4.690   4.386   3.986
 5266TIP3   OH215761   1.707   2.731   4.726
 5266TIP3    H115762   1.660   2.783   4.661
 5266TIP3    H215763   1.653   2.653   4.738
 5267TIP3   OH215764   1.000   6.745   0.806
 5267TIP3    H115765   1.049   6.777   0.730
 5267TIP3    H215766   1.064   6.697   0.858
 5268TIP3   OH215767   5.044   1.610   0.389
 5268TIP3    H115768   5.064   1.680   0.451
 5268TIP3    H215769   5.120   1.551   0.392
 5269TIP3   OH215770   2.296   1.746   3.941
 5269TIP3    H115771   2.259   1.824   3.983
 5269TIP3    H215772   2.328   1.692   4.013
 5270TIP3   OH215773   4.408   2.973   5.813
 5270TIP3    H115774   4.436   2.889   5.850
 5270TIP3    H215775   4.366   2.951   5.730
 5271TIP3   OH215776   2.156   5.190   2.050
 5271TIP3    H115777   2.174   5.282   2.072
 5271TIP3    H215778   2.077   5.194   1.996
 5272TIP3   OH215779   4.950   0.079   3.609
 5272TIP3    H115780   4.959   0.156   3.553
 5272TIP3    H215781   4.972   0.005   3.553
 5273TIP3   OH215782   5.221   0.860   1.326
 5273TIP3    H115783   5.203   0.879   1.418
 5273TIP3    H215784   5.149   0.803   1.299
 5274TIP3   OH215785   3.809   4.916   5.251
 5274TIP3    H115786   3.754   4.983   5.291
 5274TIP3    H215787   3.778   4.834   5.289
 5275TIP3   OH215788   1.479   5.646   0.664
 5275TIP3    H115789   1.513   5.729   0.696
 5275TIP3    H215790   1.552   5.585   0.674
 5276TIP3   OH215791   3.636   0.056   1.787
 5276TIP3    H115792   3.726   0.032   1.807
 5276TIP3    H215793   3.643   0.115   1.712
 5277TIP3   OH215794   3.635   6.736   5.794
 5277TIP3    H115795   3.632   6.787   5.713
 5277TIP3    H215796   3.718   6.689   5.789
 5278TIP3   OH215797   4.264   3.402   2.736
 5278TIP3    H115798   4.179   3.377   2.699
 5278TIP3    H215799   4.313   3.320   2.741
 5279TIP3   OH215800   2.361   1.051   3.983
 5279TIP3    H115801   2.448   1.021   4.009
 5279TIP3    H215802   2.325   1.092   4.061
 5280TIP3   OH215803   0.402   3.270   2.285
 5280TIP3    H115804   0.475   3.209   2.301
 5280TIP3    H215805   0.324   3.216   2.292
 5281TIP3   OH215806   7.163   0.475   4.699
 5281TIP3    H115807   7.230   0.446   4.761
 5281TIP3    H215808   7.194   0.443   4.614
 5282TIP3   OH215809   1.795   4.688   1.711
 5282TIP3    H115810   1.729   4.635   1.667
 5282TIP3    H215811   1.830   4.630   1.779
 5283TIP3   OH215812   3.214   6.668   2.079
 5283TIP3    H115813   3.268   6.743   2.104
 5283TIP3    H215814   3.274   6.610   2.032
 5284TIP3   OH215815   2.069   6.333   1.448
 5284TIP3    H115816   2.153   6.363   1.483
 5284TIP3    H215817   2.006   6.398   1.480
 5285TIP3   OH215818   1.912   1.241   4.439
 5285TIP3    H115819   1.869   1.169   4.483
 5285TIP3    H215820   1.843   1.306   4.425
 5286TIP3   OH215821   2.969   4.216   2.808
 5286TIP3    H115822   2.933   4.248   2.726
 5286TIP3    H215823   3.010   4.132   2.786
 5287TIP3   OH215824   3.294   5.434   0.505
 5287TIP3    H115825   3.251   5.351   0.488
 5287TIP3    H215826   3.357   5.443   0.433
 5288TIP3   OH215827   1.000   6.056   3.120
 5288TIP3    H115828   0.911   6.050   3.155
 5288TIP3    H215829   1.056   6.062   3.198
 5289TIP3   OH215830   2.811   3.350   3.144
 5289TIP3    H115831   2.756   3.274   3.166
 5289TIP3    H215832   2.801   3.359   3.049
 5290TIP3   OH215833   2.433   4.114   0.756
 5290TIP3    H115834   2.497   4.160   0.702
 5290TIP3    H215835   2.485   4.059   0.815
 5291TIP3   OH215836   0.365   5.763   0.675
 5291TIP3    H115837   0.350   5.839   0.619
 5291TIP3    H215838   0.353   5.687   0.618
 5292TIP3   OH215839   0.818   5.203   5.142
 5292TIP3    H115840   0.881   5.134   5.123
 5292TIP3    H215841   0.741   5.178   5.090
 5293TIP3   OH215842   3.316   3.667   2.576
 5293TIP3    H115843   3.395   3.699   2.532
 5293TIP3    H215844   3.336   3.674   2.669
 5294TIP3   OH215845   5.586   5.517   3.731
 5294TIP3    H115846   5.520   5.468   3.779
 5294TIP3    H215847   5.655   5.533   3.795
 5295TIP3   OH215848   3.045   3.297   1.898
 5295TIP3    H115849   3.119   3.279   1.840
 5295TIP3    H215850   3.016   3.385   1.874
 5296TIP3   OH215851   0.621   3.485   3.561
 5296TIP3    H115852   0.655   3.559   3.511
 5296TIP3    H215853   0.526   3.489   3.547
 5297TIP3   OH215854   1.391   3.558   2.332
 5297TIP3    H115855   1.369   3.505   2.409
 5297TIP3    H215856   1.463   3.510   2.290
 5298TIP3   OH215857   0.917   1.734   5.220
 5298TIP3    H115858   0.827   1.739   5.251
 5298TIP3    H215859   0.910   1.737   5.125
 5299TIP3   OH215860   0.304   4.538   0.629
 5299TIP3    H115861   0.219   4.518   0.668
 5299TIP3    H215862   0.283   4.588   0.550
 5300TIP3   OH215863   5.878   0.235   2.399
 5300TIP3    H115864   5.856   0.183   2.476
 5300TIP3    H215865   5.826   0.315   2.408
 5301TIP3   OH215866   1.414   5.783   5.570
 5301TIP3    H115867   1.398   5.855   5.509
 5301TIP3    H215868   1.349   5.793   5.639
 5302TIP3   OH215869   3.987   4.753   4.585
 5302TIP3    H115870   3.957   4.784   4.670
 5302TIP3    H215871   3.914   4.701   4.551
 5303TIP3   OH215872   4.982   2.383   5.097
 5303TIP3    H115873   5.011   2.310   5.150
 5303TIP3    H215874   5.020   2.460   5.138
 5304TIP3   OH215875   2.241   4.129   3.581
 5304TIP3    H115876   2.166   4.070   3.574
 5304TIP3    H215877   2.228   4.175   3.664
 5305TIP3   OH215878   3.373   0.767   5.191
 5305TIP3    H115879   3.292   0.734   5.230
 5305TIP3    H215880   3.431   0.691   5.189
 5306TIP3   OH215881   3.344   3.330   5.540
 5306TIP3    H115882   3.306   3.401   5.489
 5306TIP3    H215883   3.294   3.329   5.621
 5307TIP3   OH215884   4.629   3.485   2.585
 5307TIP3    H115885   4.724   3.477   2.590
 5307TIP3    H215886   4.598   3.448   2.668
 5308TIP3   OH215887   6.141   3.969   2.218
 5308TIP3    H115888   6.219   3.963   2.273
 5308TIP3    H215889   6.069   3.976   2.280
 5309TIP3   OH215890   3.086   3.454   3.146
 5309TIP3    H115891   3.082   3.504   3.064
 5309TIP3    H215892   3.001   3.413   3.154
 5310TIP3   OH215893   1.192   3.075   2.156
 5310TIP3    H115894   1.188   3.124   2.238
 5310TIP3    H215895   1.228   2.990   2.181
 5311TIP3   OH215896   1.327   3.822   5.911
 5311TIP3    H115897   1.302   3.731   5.900
 5311TIP3    H215898   1.268   3.870   5.852
 5312TIP3   OH215899   0.954   2.749   3.361
 5312TIP3    H115900   0.930   2.828   3.313
 5312TIP3    H215901   0.971   2.778   3.450
 5313TIP3   OH215902   0.821   5.108   3.863
 5313TIP3    H115903   0.914   5.098   3.841
 5313TIP3    H215904   0.781   5.027   3.831
 5314TIP3   OH215905   0.538   3.799   1.855
 5314TIP3    H115906   0.483   3.874   1.833
 5314TIP3    H215907   0.484   3.723   1.835
 5315TIP3   OH215908   3.121   0.158   2.786
 5315TIP3    H115909   3.056   0.103   2.742
 5315TIP3    H215910   3.198   0.153   2.729
 5316TIP3   OH215911   5.203   1.653   4.723
 5316TIP3    H115912   5.203   1.706   4.643
 5316TIP3    H215913   5.291   1.664   4.759
 5317TIP3   OH215914   5.143   6.480   2.350
 5317TIP3    H115915   5.151   6.450   2.440
 5317TIP3    H215916   5.050   6.499   2.338
 5318TIP3   OH215917   5.692   5.700   2.113
 5318TIP3    H115918   5.673   5.677   2.204
 5318TIP3    H215919   5.757   5.770   2.119
 5319TIP3   OH215920   3.154   3.208   2.975
 5319TIP3    H115921   3.097   3.284   2.967
 5319TIP3    H215922   3.222   3.236   3.037
 5320TIP3   OH215923   0.606   5.118   4.328
 5320TIP3    H115924   0.529   5.166   4.356
 5320TIP3    H215925   0.572   5.038   4.287
 5321TIP3   OH215926   3.468   5.411   3.066
 5321TIP3    H115927   3.434   5.439   2.981
 5321TIP3    H215928   3.554   5.453   3.072
 5322TIP3   OH215929   1.505   2.176   1.998
 5322TIP3    H115930   1.412   2.186   1.977
 5322TIP3    H215931   1.540   2.265   1.990
 5323TIP3   OH215932   2.633   4.930   3.244
 5323TIP3    H115933   2.588   4.892   3.320
 5323TIP3    H215934   2.664   5.015   3.274
 5324TIP3   OH215935   0.395   3.617   0.381
 5324TIP3    H115936   0.366   3.705   0.355
 5324TIP3    H215937   0.313   3.569   0.397
 5325TIP3   OH215938   6.805   6.772   3.026
 5325TIP3    H115939   6.849   6.723   2.956
 5325TIP3    H215940   6.872   6.781   3.094
 5326TIP3   OH215941   6.792   3.663   1.392
 5326TIP3    H115942   6.706   3.695   1.419
 5326TIP3    H215943   6.773   3.578   1.351
 5327TIP3   OH215944   6.519   5.059   0.372
 5327TIP3    H115945   6.559   5.137   0.410
 5327TIP3    H215946   6.526   4.992   0.440
 5328TIP3   OH215947   2.264   2.464   1.279
 5328TIP3    H115948   2.201   2.536   1.275
 5328TIP3    H215949   2.211   2.387   1.299
 5329TIP3   OH215950   6.428   5.710   0.999
 5329TIP3    H115951   6.500   5.679   1.055
 5329TIP3    H215952   6.351   5.708   1.055
 5330TIP3   OH215953   3.821   1.513   3.034
 5330TIP3    H115954   3.830   1.535   3.127
 5330TIP3    H215955   3.754   1.445   3.032
 5331TIP3   OH215956   4.025   6.169   2.200
 5331TIP3    H115957   3.999   6.260   2.184
 5331TIP3    H215958   4.030   6.131   2.113
 5332TIP3   OH215959   4.594   2.270   1.321
 5332TIP3    H115960   4.612   2.310   1.406
 5332TIP3    H215961   4.573   2.179   1.341
 5333TIP3   OH215962   1.030   5.065   1.124
 5333TIP3    H115963   0.950   5.091   1.078
 5333TIP3    H215964   1.096   5.126   1.092
 5334TIP3   OH215965   1.886   0.712   2.579
 5334TIP3    H115966   1.955   0.778   2.570
 5334TIP3    H215967   1.921   0.650   2.642
 5335TIP3   OH215968   5.732   0.065   2.234
 5335TIP3    H115969   5.643   0.087   2.259
 5335TIP3    H215970   5.786   0.102   2.304
 5336TIP3   OH215971   3.123   5.689   1.179
 5336TIP3    H115972   3.130   5.606   1.131
 5336TIP3    H215973   3.204   5.694   1.229
 5337TIP3   OH215974   0.298   2.214   5.591
 5337TIP3    H115975   0.298   2.222   5.686
 5337TIP3    H215976   0.390   2.203   5.567
 5338TIP3   OH215977   6.046   2.501   2.073
 5338TIP3    H115978   6.117   2.482   2.012
 5338TIP3    H215979   5.977   2.438   2.051
 5339TIP3   OH215980   4.181   4.932   5.197
 5339TIP3    H115981   4.252   4.959   5.139
 5339TIP3    H215982   4.108   4.988   5.172
 5340TIP3   OH215983   6.901   4.248   1.314
 5340TIP3    H115984   6.806   4.244   1.321
 5340TIP3    H215985   6.924   4.335   1.346
 5341TIP3   OH215986   2.222   1.182   1.799
 5341TIP3    H115987   2.196   1.091   1.811
 5341TIP3    H215988   2.309   1.177   1.759
 5342TIP3   OH215989   1.334   3.612   5.552
 5342TIP3    H115990   1.304   3.644   5.467
 5342TIP3    H215991   1.344   3.518   5.539
 5343TIP3   OH215992   3.351   2.590   5.005
 5343TIP3    H115993   3.333   2.554   4.918
 5343TIP3    H215994   3.405   2.667   4.988
 5344TIP3   OH215995   5.229   4.141   4.069
 5344TIP3    H115996   5.241   4.201   3.996
 5344TIP3    H215997   5.290   4.069   4.052
 5345TIP3   OH215998   1.766   2.720   2.739
 5345TIP3    H115999   1.735   2.643   2.787
 5345TIP3    H216000   1.775   2.691   2.649
 5346TIP3   OH216001   2.510   5.968   3.436
 5346TIP3    H116002   2.568   6.005   3.370
 5346TIP3    H216003   2.492   5.879   3.405
 5347TIP3   OH216004   5.670   1.479   0.556
 5347TIP3    H116005   5.764   1.474   0.574
 5347TIP3    H216006   5.664   1.504   0.464
 5348TIP3   OH216007   6.459   6.161   5.172
 5348TIP3    H116008   6.531   6.150   5.233
 5348TIP3    H216009   6.473   6.094   5.105
 5349TIP3   OH216010   6.942   3.265   1.629
 5349TIP3    H116011   6.957   3.179   1.590
 5349TIP3    H216012   7.001   3.269   1.704
 5350TIP3   OH216013   0.594   5.693   2.072
 5350TIP3    H116014   0.536   5.747   2.126
 5350TIP3    H216015   0.670   5.675   2.128
 5351TIP3   OH216016   2.664   1.778   5.866
 5351TIP3    H116017   2.663   1.848   5.800
 5351TIP3    H216018   2.623   1.703   5.822
 5352TIP3   OH216019   2.671   5.395   1.229
 5352TIP3    H116020   2.638   5.452   1.299
 5352TIP3    H216021   2.761   5.424   1.215
 5353TIP3   OH216022   3.754   2.299   4.865
 5353TIP3    H116023   3.779   2.213   4.832
 5353TIP3    H216024   3.662   2.289   4.889
 5354TIP3   OH216025   7.124   0.689   1.495
 5354TIP3    H116026   7.158   0.609   1.534
 5354TIP3    H216027   7.129   0.673   1.400
 5355TIP3   OH216028   0.682   6.586   5.778
 5355TIP3    H116029   0.693   6.612   5.869
 5355TIP3    H216030   0.760   6.535   5.757
 5356TIP3   OH216031   1.402   6.531   4.842
 5356TIP3    H116032   1.479   6.481   4.814
 5356TIP3    H216033   1.424   6.622   4.820
 5357TIP3   OH216034   3.209   5.382   2.569
 5357TIP3    H116035   3.122   5.343   2.576
 5357TIP3    H216036   3.260   5.337   2.637
 5358TIP3   OH216037   6.192   2.902   4.020
 5358TIP3    H116038   6.169   2.810   4.023
 5358TIP3    H216039   6.138   2.938   3.949
 5359TIP3   OH216040   0.698   4.562   2.764
 5359TIP3    H116041   0.627   4.528   2.709
 5359TIP3    H216042   0.760   4.489   2.770
 5360TIP3   OH216043   1.777   3.456   2.077
 5360TIP3    H116044   1.702   3.424   2.127
 5360TIP3    H216045   1.839   3.486   2.143
 5361TIP3   OH216046   5.136   4.899   2.385
 5361TIP3    H116047   5.167   4.884   2.474
 5361TIP3    H216048   5.152   4.816   2.339
 5362TIP3   OH216049   1.384   2.802   5.508
 5362TIP3    H116050   1.407   2.796   5.415
 5362TIP3    H216051   1.305   2.749   5.517
 5363TIP3   OH216052   0.483   3.511   1.176
 5363TIP3    H116053   0.445   3.424   1.161
 5363TIP3    H216054   0.513   3.508   1.267
 5364TIP3   OH216055   1.376   5.431   0.017
 5364TIP3    H116056   1.292   5.465  -0.015
 5364TIP3    H216057   1.357   5.396   0.104
 5365TIP3   OH216058   1.957   3.002   4.419
 5365TIP3    H116059   1.923   2.919   4.387
 5365TIP3    H216060   2.052   2.990   4.420
 5366TIP3   OH216061   3.136   5.780   3.656
 5366TIP3    H116062   3.053   5.779   3.703
 5366TIP3    H216063   3.123   5.719   3.584
 5367TIP3   OH216064   2.127   3.745   3.001
 5367TIP3    H116065   2.208   3.700   3.024
 5367TIP3    H216066   2.137   3.832   3.040
 5368TIP3   OH216067   3.424   1.709   4.276
 5368TIP3    H116068   3.497   1.763   4.246
 5368TIP3    H216069   3.405   1.651   4.202
 5369TIP3   OH216070   3.155   6.165   4.852
 5369TIP3    H116071   3.245   6.133   4.847
 5369TIP3    H216072   3.146   6.197   4.942
 5370TIP3   OH216073   2.947   2.894   0.240
 5370TIP3    H116074   2.920   2.935   0.158
 5370TIP3    H216075   2.968   2.967   0.298
 5371TIP3   OH216076   4.191   5.203   3.914
 5371TIP3    H116077   4.142   5.123   3.930
 5371TIP3    H216078   4.220   5.231   4.001
 5372TIP3   OH216079   3.096   0.739   3.923
 5372TIP3    H116080   3.173   0.715   3.976
 5372TIP3    H216081   3.030   0.763   3.988
 5373TIP3   OH216082   2.585   4.231   1.522
 5373TIP3    H116083   2.655   4.280   1.564
 5373TIP3    H216084   2.533   4.297   1.476
 5374TIP3   OH216085   1.891   0.152   2.221
 5374TIP3    H116086   1.950   0.161   2.146
 5374TIP3    H216087   1.910   0.065   2.256
 5375TIP3   OH216088   7.053   2.513   5.321
 5375TIP3    H116089   7.132   2.547   5.279
 5375TIP3    H216090   6.986   2.579   5.305
 5376TIP3   OH216091   4.088   6.661   2.252
 5376TIP3    H116092   4.165   6.638   2.304
 5376TIP3    H216093   4.038   6.579   2.247
 5377TIP3   OH216094   6.295   4.107   3.040
 5377TIP3    H116095   6.374   4.073   2.997
 5377TIP3    H216096   6.233   4.035   3.035
 5378TIP3   OH216097   6.051   1.085   1.536
 5378TIP3    H116098   6.096   1.112   1.456
 5378TIP3    H216099   5.993   1.158   1.557
 5379TIP3   OH216100   6.619   4.062   3.105
 5379TIP3    H116101   6.592   4.150   3.132
 5379TIP3    H216102   6.644   4.072   3.013
 5380TIP3   OH216103   6.559   5.894   3.092
 5380TIP3    H116104   6.516   5.812   3.068
 5380TIP3    H216105   6.600   5.876   3.177
 5381TIP3   OH216106   7.091   3.287   1.359
 5381TIP3    H116107   7.082   3.199   1.321
 5381TIP3    H216108   7.041   3.282   1.441
 5382TIP3   OH216109   1.979   5.760   5.580
 5382TIP3    H116110   2.043   5.691   5.562
 5382TIP3    H216111   1.908   5.715   5.626
 5383TIP3   OH216112   2.450   4.860   2.106
 5383TIP3    H116113   2.433   4.923   2.176
 5383TIP3    H216114   2.491   4.786   2.150
 5384TIP3   OH216115   6.199   4.980   0.364
 5384TIP3    H116116   6.142   5.047   0.402
 5384TIP3    H216117   6.286   5.000   0.398
 5385TIP3   OH216118   1.127   6.793   5.748
 5385TIP3    H116119   1.209   6.834   5.775
 5385TIP3    H216120   1.152   6.735   5.676
 5386TIP3   OH216121   2.929   0.655   3.527
 5386TIP3    H116122   2.836   0.670   3.511
 5386TIP3    H216123   2.931   0.592   3.599
 5387TIP3   OH216124   6.200   6.201   1.276
 5387TIP3    H116125   6.197   6.107   1.260
 5387TIP3    H216126   6.181   6.210   1.369
 5388TIP3   OH216127   6.946   0.108   1.985
 5388TIP3    H116128   6.892   0.088   2.061
 5388TIP3    H216129   6.942   0.028   1.931
 5389TIP3   OH216130   5.913   2.098   5.823
 5389TIP3    H116131   5.858   2.124   5.897
 5389TIP3    H216132   5.851   2.063   5.759
 5390TIP3   OH216133   2.038   5.639   0.547
 5390TIP3    H116134   1.962   5.654   0.491
 5390TIP3    H216135   2.111   5.627   0.486
 5391TIP3   OH216136   6.032   5.195   3.745
 5391TIP3    H116137   5.958   5.137   3.729
 5391TIP3    H216138   6.104   5.136   3.769
 5392TIP3   OH216139   2.632   4.968   4.557
 5392TIP3    H116140   2.541   4.986   4.579
 5392TIP3    H216141   2.628   4.908   4.482
 5393TIP3   OH216142   2.522   1.031   1.458
 5393TIP3    H116143   2.522   1.108   1.401
 5393TIP3    H216144   2.568   0.964   1.407
 5394TIP3   OH216145   5.516   0.175   1.912
 5394TIP3    H116146   5.431   0.161   1.953
 5394TIP3    H216147   5.557   0.243   1.965
 5395TIP3   OH216148   3.099   6.225   0.036
 5395TIP3    H116149   3.173   6.274   0.071
 5395TIP3    H216150   3.139   6.147  -0.003
 5396TIP3   OH216151   6.289   3.180   5.759
 5396TIP3    H116152   6.337   3.139   5.687
 5396TIP3    H216153   6.324   3.269   5.764
 5397TIP3   OH216154   5.196   3.582   0.790
 5397TIP3    H116155   5.127   3.621   0.843
 5397TIP3    H216156   5.202   3.491   0.820
 5398TIP3   OH216157   3.240   6.587   2.369
 5398TIP3    H116158   3.329   6.569   2.398
 5398TIP3    H216159   3.250   6.619   2.279
 5399TIP3   OH216160   6.675   0.920   5.444
 5399TIP3    H116161   6.682   0.889   5.353
 5399TIP3    H216162   6.713   1.008   5.442
 5400TIP3   OH216163   1.582   5.570   1.069
 5400TIP3    H116164   1.592   5.662   1.044
 5400TIP3    H216165   1.671   5.542   1.092
 5401TIP3   OH216166   1.682   6.004   3.968
 5401TIP3    H116167   1.650   6.091   3.943
 5401TIP3    H216168   1.635   5.944   3.911
 5402TIP3   OH216169   0.352   0.880   2.992
 5402TIP3    H116170   0.442   0.913   2.997
 5402TIP3    H216171   0.336   0.867   2.899
 5403TIP3   OH216172   1.664   4.187   5.693
 5403TIP3    H116173   1.641   4.277   5.670
 5403TIP3    H216174   1.587   4.155   5.741
 5404TIP3   OH216175   4.410   1.386   0.396
 5404TIP3    H116176   4.423   1.345   0.311
 5404TIP3    H216177   4.407   1.480   0.377
 5405TIP3   OH216178   3.696   0.172   0.759
 5405TIP3    H116179   3.759   0.101   0.774
 5405TIP3    H216180   3.742   0.251   0.785
 5406TIP3   OH216181   0.691   6.002   0.830
 5406TIP3    H116182   0.663   6.075   0.886
 5406TIP3    H216183   0.630   5.931   0.850
 5407TIP3   OH216184   4.479   3.476   0.299
 5407TIP3    H116185   4.480   3.572   0.307
 5407TIP3    H216186   4.568   3.449   0.324
 5408TIP3   OH216187   0.270   1.396   1.261
 5408TIP3    H116188   0.191   1.345   1.241
 5408TIP3    H216189   0.339   1.355   1.209
 5409TIP3   OH216190   6.978   5.154   0.429
 5409TIP3    H116191   7.071   5.155   0.452
 5409TIP3    H216192   6.953   5.062   0.435
 5410TIP3   OH216193   2.160   5.788   2.468
 5410TIP3    H116194   2.116   5.765   2.385
 5410TIP3    H216195   2.225   5.853   2.443
 5411TIP3   OH216196   0.747   6.254   3.569
 5411TIP3    H116197   0.735   6.281   3.660
 5411TIP3    H216198   0.792   6.328   3.528
 5412TIP3   OH216199   2.864   2.640   3.857
 5412TIP3    H116200   2.909   2.721   3.880
 5412TIP3    H216201   2.890   2.577   3.924
 5413TIP3   OH216202   2.962   5.524   3.929
 5413TIP3    H116203   2.943   5.524   4.023
 5413TIP3    H216204   3.057   5.531   3.923
 5414TIP3   OH216205   2.848   3.302   1.211
 5414TIP3    H116206   2.839   3.392   1.178
 5414TIP3    H216207   2.764   3.261   1.190
 5415TIP3   OH216208   5.065   0.450   3.836
 5415TIP3    H116209   5.101   0.504   3.906
 5415TIP3    H216210   4.970   0.460   3.844
 5416TIP3   OH216211   4.387   5.423   3.503
 5416TIP3    H116212   4.351   5.418   3.592
 5416TIP3    H216213   4.339   5.356   3.454
 5417TIP3   OH216214   6.398   6.096   4.568
 5417TIP3    H116215   6.454   6.076   4.643
 5417TIP3    H216216   6.370   6.186   4.581
 5418TIP3   OH216217   1.231   2.151   1.897
 5418TIP3    H116218   1.137   2.144   1.883
 5418TIP3    H216219   1.256   2.234   1.856
 5419TIP3   OH216220   3.051   6.517   3.119
 5419TIP3    H116221   3.109   6.533   3.045
 5419TIP3    H216222   2.996   6.595   3.125
 5420TIP3   OH216223   4.415   4.337   2.534
 5420TIP3    H116224   4.366   4.290   2.467
 5420TIP3    H216225   4.389   4.296   2.616
 5421TIP3   OH216226   0.170   3.709   2.591
 5421TIP3    H116227   0.177   3.747   2.504
 5421TIP3    H216228   0.260   3.709   2.624
 5422TIP3   OH216229   5.275   5.983   3.192
 5422TIP3    H116230   5.337   6.041   3.149
 5422TIP3    H216231   5.291   5.995   3.286
 5423TIP3   OH216232   7.173   3.840   0.352
 5423TIP3    H116233   7.162   3.848   0.447
 5423TIP3    H216234   7.143   3.751   0.332
 5424TIP3   OH216235   3.262   2.025   2.920
 5424TIP3    H116236   3.172   2.004   2.896
 5424TIP3    H216237   3.255   2.085   2.994
 5425TIP3   OH216238   5.715   0.321   3.273
 5425TIP3    H116239   5.791   0.318   3.215
 5425TIP3    H216240   5.750   0.356   3.356
 5426TIP3   OH216241   6.417   2.463   0.276
 5426TIP3    H116242   6.442   2.400   0.343
 5426TIP3    H216243   6.499   2.508   0.254
 5427TIP3   OH216244   3.308   2.835   3.071
 5427TIP3    H116245   3.229   2.845   3.124
 5427TIP3    H216246   3.287   2.764   3.010
 5428TIP3   OH216247   4.270   3.730   0.505
 5428TIP3    H116248   4.294   3.650   0.553
 5428TIP3    H216249   4.353   3.763   0.471
 5429TIP3   OH216250   3.761   5.987   2.699
 5429TIP3    H116251   3.845   5.986   2.653
 5429TIP3    H216252   3.717   6.066   2.667
 5430TIP3   OH216253   7.126   0.773   3.819
 5430TIP3    H116254   7.192   0.842   3.827
 5430TIP3    H216255   7.175   0.691   3.827
 5431TIP3   OH216256   6.676   0.237   1.243
 5431TIP3    H116257   6.587   0.242   1.278
 5431TIP3    H216258   6.704   0.329   1.237
 5432TIP3   OH216259   3.146   3.458   4.494
 5432TIP3    H116260   3.153   3.489   4.585
 5432TIP3    H216261   3.166   3.536   4.441
 5433TIP3   OH216262   0.177   4.897   0.931
 5433TIP3    H116263   0.128   4.814   0.931
 5433TIP3    H216264   0.120   4.959   0.976
 5434TIP3   OH216265   1.753   5.847   0.523
 5434TIP3    H116266   1.672   5.859   0.573
 5434TIP3    H216267   1.751   5.755   0.495
 5435TIP3   OH216268   6.785   2.252   4.832
 5435TIP3    H116269   6.782   2.274   4.926
 5435TIP3    H216270   6.876   2.226   4.816
 5436TIP3   OH216271   6.675   6.722   1.615
 5436TIP3    H116272   6.667   6.768   1.531
 5436TIP3    H216273   6.766   6.737   1.641
 5437TIP3   OH216274   3.239   5.957   0.634
 5437TIP3    H116275   3.303   5.895   0.599
 5437TIP3    H216276   3.292   6.032   0.661
 5438TIP3   OH216277   7.222   0.153   0.193
 5438TIP3    H116278   7.194   0.243   0.213
 5438TIP3    H216279   7.142   0.110   0.164
 5439TIP3   OH216280   2.228   2.847   0.225
 5439TIP3    H116281   2.163   2.916   0.213
 5439TIP3    H216282   2.261   2.860   0.314
 5440TIP3   OH216283   5.686   2.040   3.639
 5440TIP3    H116284   5.732   1.984   3.701
 5440TIP3    H216285   5.595   2.009   3.641
 5441TIP3   OH216286   3.657   5.216   1.915
 5441TIP3    H116287   3.604   5.152   1.867
 5441TIP3    H216288   3.626   5.211   2.005
 5442TIP3   OH216289   6.251   0.782   3.170
 5442TIP3    H116290   6.338   0.817   3.187
 5442TIP3    H216291   6.253   0.694   3.207
 5443TIP3   OH216292   3.277   2.059   5.663
 5443TIP3    H116293   3.335   2.002   5.713
 5443TIP3    H216294   3.334   2.125   5.625
 5444TIP3   OH216295   2.797   3.894   2.103
 5444TIP3    H116296   2.703   3.875   2.108
 5444TIP3    H216297   2.816   3.895   2.009
 5445TIP3   OH216298   1.508   1.256   5.681
 5445TIP3    H116299   1.531   1.287   5.593
 5445TIP3    H216300   1.477   1.335   5.727
 5446TIP3   OH216301   4.089   4.172   0.500
 5446TIP3    H116302   3.999   4.203   0.484
 5446TIP3    H216303   4.093   4.087   0.456
 5447TIP3   OH216304   4.019   6.145   4.739
 5447TIP3    H116305   4.029   6.136   4.834
 5447TIP3    H216306   3.942   6.201   4.728
 5448TIP3   OH216307   3.593   0.441   0.857
 5448TIP3    H116308   3.669   0.441   0.915
 5448TIP3    H216309   3.573   0.533   0.842
 5449TIP3   OH216310   3.739   5.127   2.521
 5449TIP3    H116311   3.758   5.120   2.614
 5449TIP3    H216312   3.679   5.201   2.515
 5450TIP3   OH216313   2.758   5.082   5.644
 5450TIP3    H116314   2.729   5.172   5.652
 5450TIP3    H216315   2.817   5.069   5.718
 5451TIP3   OH216316   4.941   6.195   3.221
 5451TIP3    H116317   4.963   6.115   3.270
 5451TIP3    H216318   4.881   6.165   3.153
 5452TIP3   OH216319   6.599   5.639   3.558
 5452TIP3    H116320   6.681   5.654   3.605
 5452TIP3    H216321   6.531   5.642   3.625
 5453TIP3   OH216322   4.530   0.586   1.277
 5453TIP3    H116323   4.530   0.623   1.365
 5453TIP3    H216324   4.621   0.594   1.247
 5454TIP3   OH216325   3.665   6.508   3.862
 5454TIP3    H116326   3.745   6.558   3.850
 5454TIP3    H216327   3.642   6.477   3.775
 5455TIP3   OH216328   3.522   1.131   3.461
 5455TIP3    H116329   3.443   1.155   3.510
 5455TIP3    H216330   3.518   1.185   3.382
 5456TIP3   OH216331   6.203   2.109   2.240
 5456TIP3    H116332   6.290   2.087   2.275
 5456TIP3    H216333   6.190   2.201   2.264
 5457TIP3   OH216334   3.995   4.421   2.989
 5457TIP3    H116335   3.907   4.427   3.027
 5457TIP3    H216336   4.031   4.339   3.024
 5458TIP3   OH216337   4.177   2.331   0.986
 5458TIP3    H116338   4.260   2.341   1.033
 5458TIP3    H216339   4.187   2.250   0.937
 5459TIP3   OH216340   3.853   0.719   2.566
 5459TIP3    H116341   3.801   0.799   2.577
 5459TIP3    H216342   3.939   0.750   2.539
 5460TIP3   OH216343   3.505   3.744   4.706
 5460TIP3    H116344   3.466   3.657   4.720
 5460TIP3    H216345   3.552   3.735   4.623
 5461TIP3   OH216346   2.230   5.162   5.295
 5461TIP3    H116347   2.249   5.225   5.225
 5461TIP3    H216348   2.315   5.144   5.335
 5462TIP3   OH216349   1.621   4.666   4.646
 5462TIP3    H116350   1.654   4.616   4.572
 5462TIP3    H216351   1.586   4.600   4.706
 5463TIP3   OH216352   1.111   4.171   2.716
 5463TIP3    H116353   1.097   4.090   2.667
 5463TIP3    H216354   1.205   4.171   2.735
 5464TIP3   OH216355   2.040   4.349   4.406
 5464TIP3    H116356   2.110   4.285   4.420
 5464TIP3    H216357   1.962   4.307   4.442
 5465TIP3   OH216358   2.123   0.011   1.709
 5465TIP3    H116359   2.209  -0.028   1.694
 5465TIP3    H216360   2.131   0.101   1.677
 5466TIP3   OH216361   1.133   5.965   1.090
 5466TIP3    H116362   1.077   5.888   1.099
 5466TIP3    H216363   1.163   5.982   1.180
 5467TIP3   OH216364   5.760   5.513   1.633
 5467TIP3    H116365   5.793   5.426   1.610
 5467TIP3    H216366   5.674   5.517   1.592
 5468TIP3   OH216367   6.327   0.850   5.255
 5468TIP3    H116368   6.319   0.770   5.308
 5468TIP3    H216369   6.237   0.879   5.241
 5469TIP3   OH216370   2.031   1.326   5.674
 5469TIP3    H116371   2.052   1.374   5.755
 5469TIP3    H216372   1.948   1.364   5.645
 5470TIP3   OH216373   0.120   5.474   2.524
 5470TIP3    H116374   0.104   5.475   2.430
 5470TIP3    H216375   0.150   5.563   2.544
 5471TIP3   OH216376   5.537   2.833   2.044
 5471TIP3    H116377   5.524   2.926   2.059
 5471TIP3    H216378   5.449   2.800   2.021
 5472TIP3   OH216379   4.968   0.956   4.975
 5472TIP3    H116380   5.032   0.898   4.932
 5472TIP3    H216381   4.890   0.950   4.921
 5473TIP3   OH216382   1.404   2.001   0.459
 5473TIP3    H116383   1.449   1.961   0.385
 5473TIP3    H216384   1.317   2.021   0.425
 5474TIP3   OH216385   0.888   0.972   2.467
 5474TIP3    H116386   0.851   0.884   2.476
 5474TIP3    H216387   0.886   0.990   2.373
 5475TIP3   OH216388   1.656   2.567   1.522
 5475TIP3    H116389   1.561   2.568   1.518
 5475TIP3    H216390   1.681   2.659   1.519
 5476TIP3   OH216391   0.047   1.683   1.586
 5476TIP3    H116392   0.069   1.591   1.570
 5476TIP3    H216393   0.130   1.730   1.580
 5477TIP3   OH216394   6.775   4.290   4.703
 5477TIP3    H116395   6.798   4.263   4.792
 5477TIP3    H216396   6.859   4.304   4.660
 5478TIP3   OH216397   0.426   5.553   4.076
 5478TIP3    H116398   0.490   5.509   4.020
 5478TIP3    H216399   0.449   5.645   4.070
 5479TIP3   OH216400   1.487   0.634   2.911
 5479TIP3    H116401   1.478   0.552   2.862
 5479TIP3    H216402   1.450   0.700   2.853
 5480TIP3   OH216403   6.191   4.652   1.075
 5480TIP3    H116404   6.218   4.713   1.006
 5480TIP3    H216405   6.120   4.602   1.036
 5481TIP3   OH216406   7.040   2.937   5.189
 5481TIP3    H116407   7.016   2.957   5.098
 5481TIP3    H216408   7.135   2.934   5.189
 5482TIP3   OH216409   6.812   4.866   5.147
 5482TIP3    H116410   6.752   4.940   5.154
 5482TIP3    H216411   6.828   4.839   5.238
 5483TIP3   OH216412   5.281   1.881   3.098
 5483TIP3    H116413   5.249   1.876   3.188
 5483TIP3    H216414   5.369   1.845   3.102
 5484TIP3   OH216415   6.747   1.590   0.396
 5484TIP3    H116416   6.670   1.644   0.416
 5484TIP3    H216417   6.744   1.579   0.301
 5485TIP3   OH216418   1.747   2.128   3.538
 5485TIP3    H116419   1.761   2.058   3.474
 5485TIP3    H216420   1.831   2.136   3.584
 5486TIP3   OH216421   0.091   5.815   2.213
 5486TIP3    H116422   0.179   5.832   2.179
 5486TIP3    H216423   0.059   5.741   2.161
 5487TIP3   OH216424   2.798   6.280   2.417
 5487TIP3    H116425   2.893   6.292   2.414
 5487TIP3    H216426   2.778   6.278   2.511
 5488TIP3   OH216427   6.203   4.267   2.094
 5488TIP3    H116428   6.202   4.359   2.067
 5488TIP3    H216429   6.121   4.256   2.141
 5489TIP3   OH216430   0.255   2.007   4.144
 5489TIP3    H116431   0.170   1.971   4.121
 5489TIP3    H216432   0.236   2.095   4.177
 5490TIP3   OH216433   6.850   3.779   0.295
 5490TIP3    H116434   6.914   3.845   0.320
 5490TIP3    H216435   6.801   3.761   0.375
 5491TIP3   OH216436   0.221   5.688   3.455
 5491TIP3    H116437   0.269   5.605   3.453
 5491TIP3    H216438   0.283   5.750   3.494
 5492TIP3   OH216439   6.813   0.421   4.845
 5492TIP3    H116440   6.900   0.388   4.867
 5492TIP3    H216441   6.785   0.468   4.923
 5493TIP3   OH216442   4.951   4.724   1.477
 5493TIP3    H116443   4.991   4.811   1.483
 5493TIP3    H216444   5.023   4.667   1.450
 5494TIP3   OH216445   7.021   2.678   2.765
 5494TIP3    H116446   6.990   2.624   2.693
 5494TIP3    H216447   6.992   2.767   2.742
 5495TIP3   OH216448   6.439   3.094   4.180
 5495TIP3    H116449   6.432   3.119   4.088
 5495TIP3    H216450   6.515   3.142   4.212
 5496TIP3   OH216451   4.346   0.898   2.381
 5496TIP3    H116452   4.428   0.942   2.403
 5496TIP3    H216453   4.372   0.809   2.356
 5497TIP3   OH216454   0.738   5.453   1.382
 5497TIP3    H116455   0.766   5.524   1.440
 5497TIP3    H216456   0.647   5.437   1.405
 5498TIP3   OH216457   2.498   5.860   4.678
 5498TIP3    H116458   2.523   5.929   4.616
 5498TIP3    H216459   2.575   5.848   4.733
 5499TIP3   OH216460   4.091   6.578   4.404
 5499TIP3    H116461   4.116   6.665   4.434
 5499TIP3    H216462   4.064   6.589   4.313
 5500TIP3   OH216463   5.769   4.373   0.491
 5500TIP3    H116464   5.715   4.295   0.478
 5500TIP3    H216465   5.742   4.433   0.422
 5501TIP3   OH216466   4.813   2.611   3.584
 5501TIP3    H116467   4.751   2.684   3.596
 5501TIP3    H216468   4.781   2.543   3.643
 5502TIP3   OH216469   5.089   0.755   5.263
 5502TIP3    H116470   5.096   0.850   5.251
 5502TIP3    H216471   5.000   0.735   5.234
 5503TIP3   OH216472   1.411   2.736   3.441
 5503TIP3    H116473   1.443   2.759   3.528
 5503TIP3    H216474   1.407   2.640   3.441
 5504TIP3   OH216475   6.742   4.099   3.827
 5504TIP3    H116476   6.772   4.173   3.774
 5504TIP3    H216477   6.823   4.052   3.850
 5505TIP3   OH216478   0.104   6.087   5.160
 5505TIP3    H116479   0.132   6.172   5.125
 5505TIP3    H216480   0.174   6.027   5.135
 5506TIP3   OH216481   5.967   2.040   4.878
 5506TIP3    H116482   5.993   2.037   4.970
 5506TIP3    H216483   5.970   2.133   4.855
 5507TIP3   OH216484   2.399   5.055   2.291
 5507TIP3    H116485   2.391   5.001   2.370
 5507TIP3    H216486   2.337   5.127   2.305
 5508TIP3   OH216487   5.876   6.364   0.520
 5508TIP3    H116488   5.878   6.406   0.606
 5508TIP3    H216489   5.816   6.290   0.531
 5509TIP3   OH216490   4.260   5.415   0.538
 5509TIP3    H116491   4.317   5.456   0.473
 5509TIP3    H216492   4.199   5.361   0.487
 5510TIP3   OH216493   7.122   0.479   4.358
 5510TIP3    H116494   7.208   0.438   4.368
 5510TIP3    H216495   7.072   0.416   4.306
 5511TIP3   OH216496   6.165   2.102   4.316
 5511TIP3    H116497   6.084   2.082   4.268
 5511TIP3    H216498   6.173   2.197   4.310
 5512TIP3   OH216499   6.317   0.942   0.869
 5512TIP3    H116500   6.250   1.011   0.870
 5512TIP3    H216501   6.400   0.989   0.873
 5513TIP3   OH216502   3.331   6.403   0.822
 5513TIP3    H116503   3.348   6.359   0.905
 5513TIP3    H216504   3.394   6.475   0.819
 5514TIP3   OH216505   1.018   0.430   1.282
 5514TIP3    H116506   1.113   0.441   1.285
 5514TIP3    H216507   1.002   0.348   1.329
 5515TIP3   OH216508   2.116   0.336   5.429
 5515TIP3    H116509   2.095   0.246   5.454
 5515TIP3    H216510   2.031   0.381   5.427
 5516TIP3   OH216511   1.829   3.545   0.541
 5516TIP3    H116512   1.832   3.459   0.583
 5516TIP3    H216513   1.920   3.565   0.521
 5517TIP3   OH216514   5.420   4.413   4.836
 5517TIP3    H116515   5.474   4.440   4.911
 5517TIP3    H216516   5.477   4.354   4.786
 5518TIP3   OH216517   1.933   2.272   1.040
 5518TIP3    H116518   1.888   2.189   1.054
 5518TIP3    H216519   2.019   2.246   1.007
 5519TIP3   OH216520   6.204   2.511   1.665
 5519TIP3    H116521   6.117   2.551   1.664
 5519TIP3    H216522   6.263   2.584   1.683
 5520TIP3   OH216523   3.036   1.884   3.002
 5520TIP3    H116524   3.075   1.872   3.089
 5520TIP3    H216525   2.972   1.955   3.014
 5521TIP3   OH216526   2.947   6.260   1.697
 5521TIP3    H116527   2.979   6.320   1.629
 5521TIP3    H216528   2.873   6.216   1.656
 5522TIP3   OH216529   6.404   0.379   5.324
 5522TIP3    H116530   6.340   0.310   5.345
 5522TIP3    H216531   6.365   0.426   5.250
 5523TIP3   OH216532   3.846   4.048   0.621
 5523TIP3    H116533   3.884   3.967   0.652
 5523TIP3    H216534   3.902   4.117   0.656
 5524TIP3   OH216535   6.778   3.815   4.948
 5524TIP3    H116536   6.808   3.797   5.037
 5524TIP3    H216537   6.726   3.896   4.956
 5525TIP3   OH216538   6.551   4.988   4.447
 5525TIP3    H116539   6.503   4.946   4.518
 5525TIP3    H216540   6.516   5.077   4.445
 5526TIP3   OH216541   0.870   4.872   5.752
 5526TIP3    H116542   0.861   4.787   5.796
 5526TIP3    H216543   0.823   4.861   5.669
 5527TIP3   OH216544   0.749   5.976   5.125
 5527TIP3    H116545   0.785   6.063   5.112
 5527TIP3    H216546   0.665   5.991   5.168
 5528TIP3   OH216547   1.751   0.667   2.983
 5528TIP3    H116548   1.669   0.641   2.941
 5528TIP3    H216549   1.747   0.762   2.985
 5529TIP3   OH216550   3.834   3.231   3.240
 5529TIP3    H116551   3.771   3.184   3.184
 5529TIP3    H216552   3.835   3.180   3.321
 5530TIP3   OH216553   1.717   3.698   3.850
 5530TIP3    H116554   1.627   3.729   3.839
 5530TIP3    H216555   1.764   3.773   3.888
 5531TIP3   OH216556   2.361   1.389   0.103
 5531TIP3    H116557   2.409   1.328   0.046
 5531TIP3    H216558   2.271   1.387   0.071
 5532TIP3   OH216559   3.118   4.489   2.427
 5532TIP3    H116560   3.093   4.567   2.377
 5532TIP3    H216561   3.205   4.510   2.461
 5533TIP3   OH216562   7.090   0.719   5.196
 5533TIP3    H116563   7.125   0.666   5.124
 5533TIP3    H216564   7.061   0.800   5.154
 5534TIP3   OH216565   3.532   5.309   2.571
 5534TIP3    H116566   3.550   5.383   2.630
 5534TIP3    H216567   3.469   5.256   2.619
 5535TIP3   OH216568   3.652   3.816   1.026
 5535TIP3    H116569   3.705   3.895   1.018
 5535TIP3    H216570   3.699   3.750   0.974
 5536TIP3   OH216571   2.362   0.259   1.808
 5536TIP3    H116572   2.449   0.299   1.809
 5536TIP3    H216573   2.326   0.280   1.722
 5537TIP3   OH216574   5.560   5.882   1.720
 5537TIP3    H116575   5.556   5.866   1.626
 5537TIP3    H216576   5.569   5.977   1.728
 5538TIP3   OH216577   2.803   5.342   4.920
 5538TIP3    H116578   2.835   5.311   5.004
 5538TIP3    H216579   2.868   5.311   4.857
 5539TIP3   OH216580   4.274   5.349   0.110
 5539TIP3    H116581   4.207   5.398   0.158
 5539TIP3    H216582   4.273   5.263   0.151
 5540TIP3   OH216583   2.172   4.306   3.785
 5540TIP3    H116584   2.217   4.357   3.853
 5540TIP3    H216585   2.132   4.373   3.729
 5541TIP3   OH216586   5.415   2.556   3.830
 5541TIP3    H116587   5.456   2.575   3.746
 5541TIP3    H216588   5.477   2.589   3.895
 5542TIP3   OH216589   2.370   1.586   1.908
 5542TIP3    H116590   2.301   1.585   1.974
 5542TIP3    H216591   2.333   1.540   1.833
 5543TIP3   OH216592   0.839   3.916   2.517
 5543TIP3    H116593   0.819   3.854   2.447
 5543TIP3    H216594   0.926   3.949   2.495
 5544TIP3   OH216595   0.540   1.934   4.534
 5544TIP3    H116596   0.519   1.896   4.449
 5544TIP3    H216597   0.635   1.934   4.538
 5545TIP3   OH216598   3.058   2.388   4.551
 5545TIP3    H116599   2.966   2.394   4.574
 5545TIP3    H216600   3.064   2.427   4.464
 5546TIP3   OH216601   4.676   3.244   4.305
 5546TIP3    H116602   4.693   3.252   4.399
 5546TIP3    H216603   4.581   3.256   4.296
 5547TIP3   OH216604   4.643   4.905   3.984
 5547TIP3    H116605   4.655   4.889   4.078
 5547TIP3    H216606   4.729   4.889   3.946
 5548TIP3   OH216607   4.411   5.568   0.358
 5548TIP3    H116608   4.337   5.573   0.298
 5548TIP3    H216609   4.439   5.659   0.371
 5549TIP3   OH216610   5.554   3.826   5.097
 5549TIP3    H116611   5.649   3.827   5.107
 5549TIP3    H216612   5.524   3.764   5.164
 5550TIP3   OH216613   5.528   2.790   4.041
 5550TIP3    H116614   5.507   2.776   4.133
 5550TIP3    H216615   5.465   2.856   4.012
 5551TIP3   OH216616   2.958   4.668   4.116
 5551TIP3    H116617   3.022   4.609   4.074
 5551TIP3    H216618   3.003   4.752   4.121
 5552TIP3   OH216619   2.968   6.528   2.804
 5552TIP3    H116620   2.911   6.516   2.728
 5552TIP3    H216621   3.054   6.545   2.767
 5553TIP3   OH216622   4.834   6.614   4.577
 5553TIP3    H116623   4.811   6.683   4.514
 5553TIP3    H216624   4.929   6.605   4.568
 5554TIP3   OH216625   7.188   2.617   5.895
 5554TIP3    H116626   7.277   2.620   5.860
 5554TIP3    H216627   7.139   2.680   5.844
 5555TIP3   OH216628   0.112   2.204   4.235
 5555TIP3    H116629   0.101   2.194   4.330
 5555TIP3    H216630   0.035   2.253   4.207
 5556TIP3   OH216631   2.989   2.197   3.296
 5556TIP3    H116632   2.980   2.285   3.331
 5556TIP3    H216633   2.953   2.140   3.363
 5557TIP3   OH216634   1.191   3.255   4.874
 5557TIP3    H116635   1.268   3.230   4.822
 5557TIP3    H216636   1.171   3.344   4.846
 5558TIP3   OH216637   3.383   6.449   3.194
 5558TIP3    H116638   3.430   6.370   3.169
 5558TIP3    H216639   3.348   6.430   3.281
 5559TIP3   OH216640   4.388   5.205   2.441
 5559TIP3    H116641   4.385   5.185   2.534
 5559TIP3    H216642   4.455   5.145   2.406
 5560TIP3   OH216643   4.491   0.013   0.206
 5560TIP3    H116644   4.501  -0.035   0.124
 5560TIP3    H216645   4.518   0.103   0.185
 5561TIP3   OH216646   0.252   1.328   4.558
 5561TIP3    H116647   0.247   1.319   4.463
 5561TIP3    H216648   0.206   1.251   4.592
 5562TIP3   OH216649   2.057   4.786   0.614
 5562TIP3    H116650   2.076   4.700   0.651
 5562TIP3    H216651   1.975   4.813   0.657
 5563TIP3   OH216652   4.980   3.706   2.615
 5563TIP3    H116653   4.961   3.753   2.696
 5563TIP3    H216654   5.070   3.675   2.626
 5564TIP3   OH216655   5.443   4.590   1.510
 5564TIP3    H116656   5.475   4.604   1.600
 5564TIP3    H216657   5.502   4.643   1.456
 5565TIP3   OH216658   3.214   0.413   5.331
 5565TIP3    H116659   3.217   0.507   5.350
 5565TIP3    H216660   3.193   0.408   5.237
 5566TIP3   OH216661   6.365   3.569   3.561
 5566TIP3    H116662   6.329   3.654   3.533
 5566TIP3    H216663   6.297   3.506   3.537
 5567TIP3   OH216664   4.821   0.712   4.343
 5567TIP3    H116665   4.801   0.804   4.362
 5567TIP3    H216666   4.776   0.663   4.411
 5568TIP3   OH216667   0.147   2.982   3.687
 5568TIP3    H116668   0.126   2.943   3.602
 5568TIP3    H216669   0.112   2.920   3.751
 5569TIP3   OH216670   5.329   0.758   0.901
 5569TIP3    H116671   5.393   0.792   0.963
 5569TIP3    H216672   5.380   0.732   0.825
 5570TIP3   OH216673   4.683   4.768   1.729
 5570TIP3    H116674   4.631   4.698   1.769
 5570TIP3    H216675   4.669   4.758   1.635
 5571TIP3   OH216676   2.478   2.609   2.067
 5571TIP3    H116677   2.506   2.635   1.979
 5571TIP3    H216678   2.386   2.638   2.072
 5572TIP3   OH216679   1.613   3.673   3.073
 5572TIP3    H116680   1.569   3.758   3.079
 5572TIP3    H216681   1.694   3.685   3.123
 5573TIP3   OH216682   2.720   3.976   1.571
 5573TIP3    H116683   2.681   4.063   1.571
 5573TIP3    H216684   2.699   3.940   1.485
 5574TIP3   OH216685   0.986   2.202   1.792
 5574TIP3    H116686   0.985   2.288   1.836
 5574TIP3    H216687   0.903   2.198   1.745
 5575TIP3   OH216688   3.825   0.530   3.680
 5575TIP3    H116689   3.828   0.608   3.735
 5575TIP3    H216690   3.915   0.499   3.678
 5576TIP3   OH216691   2.038   4.728   3.605
 5576TIP3    H116692   2.016   4.820   3.621
 5576TIP3    H216693   2.031   4.717   3.510
 5577TIP3   OH216694   1.641   4.264   0.589
 5577TIP3    H116695   1.633   4.221   0.504
 5577TIP3    H216696   1.552   4.297   0.607
 5578TIP3   OH216697   6.404   6.351   4.668
 5578TIP3    H116698   6.338   6.357   4.736
 5578TIP3    H216699   6.478   6.402   4.701
 5579TIP3   OH216700   1.780   5.857   2.290
 5579TIP3    H116701   1.842   5.922   2.256
 5579TIP3    H216702   1.720   5.841   2.218
 5580TIP3   OH216703   5.233   1.530   5.810
 5580TIP3    H116704   5.261   1.574   5.730
 5580TIP3    H216705   5.311   1.485   5.841
 5581TIP3   OH216706   0.867   6.373   0.207
 5581TIP3    H116707   0.951   6.421   0.207
 5581TIP3    H216708   0.880   6.303   0.272
 5582TIP3   OH216709   6.593   4.434   3.786
 5582TIP3    H116710   6.579   4.376   3.861
 5582TIP3    H216711   6.635   4.512   3.823
 5583TIP3   OH216712   4.883   0.750   3.924
 5583TIP3    H116713   4.910   0.759   3.833
 5583TIP3    H216714   4.964   0.763   3.974
 5584TIP3   OH216715   5.622   6.774   2.809
 5584TIP3    H116716   5.534   6.758   2.843
 5584TIP3    H216717   5.674   6.794   2.887
 5585TIP3   OH216718   0.566   5.925   2.780
 5585TIP3    H116719   0.499   5.858   2.767
 5585TIP3    H216720   0.634   5.904   2.715
 5586TIP3   OH216721   1.892   3.877   2.898
 5586TIP3    H116722   1.911   3.970   2.908
 5586TIP3    H216723   1.973   3.834   2.925
 5587TIP3   OH216724   0.826   2.440   3.405
 5587TIP3    H116725   0.780   2.480   3.479
 5587TIP3    H216726   0.824   2.346   3.425
 5588TIP3   OH216727   4.960   0.976   1.947
 5588TIP3    H116728   4.964   0.936   1.861
 5588TIP3    H216729   4.895   0.925   1.995
 5589TIP3   OH216730   6.576   4.092   0.059
 5589TIP3    H116731   6.580   4.027  -0.010
 5589TIP3    H216732   6.492   4.136   0.046
 5590TIP3   OH216733   4.885   4.602   5.821
 5590TIP3    H116734   4.904   4.539   5.889
 5590TIP3    H216735   4.793   4.586   5.798
 5591TIP3   OH216736   3.129   4.222   2.466
 5591TIP3    H116737   3.059   4.176   2.512
 5591TIP3    H216738   3.108   4.315   2.479
 5592TIP3   OH216739   3.787   0.334   2.062
 5592TIP3    H116740   3.730   0.338   1.986
 5592TIP3    H216741   3.752   0.263   2.115
 5593TIP3   OH216742   3.236   3.205   2.073
 5593TIP3    H116743   3.166   3.195   2.008
 5593TIP3    H216744   3.208   3.277   2.129
 5594TIP3   OH216745   5.738   2.804   0.079
 5594TIP3    H116746   5.679   2.866   0.120
 5594TIP3    H216747   5.686   2.725   0.065
 5595TIP3   OH216748   4.299   3.586   3.989
 5595TIP3    H116749   4.394   3.596   3.984
 5595TIP3    H216750   4.284   3.492   3.983
 5596TIP3   OH216751   1.716   3.106   2.154
 5596TIP3    H116752   1.763   3.138   2.077
 5596TIP3    H216753   1.784   3.081   2.215
 5597TIP3   OH216754   6.887   4.322   3.117
 5597TIP3    H116755   6.953   4.391   3.118
 5597TIP3    H216756   6.910   4.268   3.041
 5598TIP3   OH216757   6.509   3.048   2.150
 5598TIP3    H116758   6.514   3.088   2.237
 5598TIP3    H216759   6.594   3.068   2.110
 5599TIP3   OH216760   0.781   0.601   4.780
 5599TIP3    H116761   0.702   0.563   4.742
 5599TIP3    H216762   0.822   0.649   4.707
 5600TIP3   OH216763   4.329   6.274   3.761
 5600TIP3    H116764   4.362   6.186   3.783
 5600TIP3    H216765   4.241   6.259   3.729
 5601TIP3   OH216766   1.342   6.323   2.202
 5601TIP3    H116767   1.378   6.412   2.203
 5601TIP3    H216768   1.401   6.272   2.257
 5602TIP3   OH216769   2.535   3.872   5.175
 5602TIP3    H116770   2.520   3.867   5.270
 5602TIP3    H216771   2.618   3.918   5.166
 5603TIP3   OH216772   4.311   5.349   4.844
 5603TIP3    H116773   4.358   5.426   4.878
 5603TIP3    H216774   4.344   5.339   4.755
 5604TIP3   OH216775   1.596   6.294   1.506
 5604TIP3    H116776   1.648   6.284   1.426
 5604TIP3    H216777   1.566   6.385   1.504
 5605TIP3   OH216778   7.162   4.090   3.155
 5605TIP3    H116779   7.117   4.111   3.236
 5605TIP3    H216780   7.233   4.031   3.181
 5606TIP3   OH216781   5.557   2.527   3.571
 5606TIP3    H116782   5.588   2.447   3.530
 5606TIP3    H216783   5.466   2.535   3.543
 5607TIP3   OH216784   7.025   3.347   4.510
 5607TIP3    H116785   7.033   3.435   4.548
 5607TIP3    H216786   7.116   3.317   4.501
 5608TIP3   OH216787   3.469   2.631   0.918
 5608TIP3    H116788   3.452   2.721   0.945
 5608TIP3    H216789   3.382   2.592   0.908
 5609TIP3   OH216790   6.990   2.771   3.335
 5609TIP3    H116791   6.916   2.763   3.274
 5609TIP3    H216792   7.007   2.681   3.363
 5610TIP3   OH216793   3.460   3.110   4.331
 5610TIP3    H116794   3.531   3.048   4.321
 5610TIP3    H216795   3.469   3.142   4.421
 5611TIP3   OH216796   7.083   2.564   3.676
 5611TIP3    H116797   7.002   2.555   3.725
 5611TIP3    H216798   7.139   2.620   3.730
 5612TIP3   OH216799   1.743   2.744   0.483
 5612TIP3    H116800   1.756   2.782   0.570
 5612TIP3    H216801   1.649   2.754   0.466
 5613TIP3   OH216802   6.669   4.572   1.660
 5613TIP3    H116803   6.631   4.629   1.593
 5613TIP3    H216804   6.603   4.504   1.674
 5614TIP3   OH216805   4.433   6.112   5.081
 5614TIP3    H116806   4.491   6.162   5.024
 5614TIP3    H216807   4.426   6.026   5.040
 5615TIP3   OH216808   1.015   0.096   0.783
 5615TIP3    H116809   1.098   0.137   0.758
 5615TIP3    H216810   0.978   0.155   0.849
 5616TIP3   OH216811   1.642   3.228   5.653
 5616TIP3    H116812   1.726   3.191   5.679
 5616TIP3    H216813   1.641   3.220   5.557
 5617TIP3   OH216814   1.194   1.048   5.680
 5617TIP3    H116815   1.128   0.980   5.687
 5617TIP3    H216816   1.145   1.130   5.681
 5618TIP3   OH216817   6.138   5.829   0.487
 5618TIP3    H116818   6.062   5.855   0.435
 5618TIP3    H216819   6.197   5.905   0.482
 5619TIP3   OH216820   3.146   2.587   5.459
 5619TIP3    H116821   3.225   2.622   5.501
 5619TIP3    H216822   3.155   2.610   5.367
 5620TIP3   OH216823   7.041   3.271   5.519
 5620TIP3    H116824   7.000   3.185   5.506
 5620TIP3    H216825   7.026   3.317   5.437
 5621TIP3   OH216826   2.624   4.825   0.584
 5621TIP3    H116827   2.664   4.834   0.498
 5621TIP3    H216828   2.572   4.905   0.594
 5622TIP3   OH216829   1.693   0.948   2.994
 5622TIP3    H116830   1.606   0.948   2.955
 5622TIP3    H216831   1.701   1.034   3.035
 5623TIP3   OH216832   4.232   3.961  -0.006
 5623TIP3    H116833   4.316   3.952  -0.051
 5623TIP3    H216834   4.247   4.030   0.059
 5624TIP3   OH216835   1.026   4.014   1.734
 5624TIP3    H116836   1.050   3.962   1.657
 5624TIP3    H216837   0.941   3.979   1.761
 5625TIP3   OH216838   4.008   1.721   5.482
 5625TIP3    H116839   4.017   1.803   5.434
 5625TIP3    H216840   3.916   1.696   5.469
 5626TIP3   OH216841   1.231   2.529   5.386
 5626TIP3    H116842   1.265   2.472   5.455
 5626TIP3    H216843   1.196   2.470   5.320
 5627TIP3   OH216844   2.089   6.362   5.268
 5627TIP3    H116845   2.113   6.285   5.217
 5627TIP3    H216846   2.168   6.416   5.270
 5628TIP3   OH216847   2.013   6.125   5.116
 5628TIP3    H116848   1.946   6.077   5.164
 5628TIP3    H216849   2.027   6.074   5.036
 5629TIP3   OH216850   0.832   2.849   4.435
 5629TIP3    H116851   0.825   2.797   4.355
 5629TIP3    H216852   0.779   2.927   4.418
 5630TIP3   OH216853   6.486   3.376   0.449
 5630TIP3    H116854   6.485   3.310   0.518
 5630TIP3    H216855   6.457   3.331   0.371
 5631TIP3   OH216856   2.795   4.344   2.194
 5631TIP3    H116857   2.746   4.363   2.274
 5631TIP3    H216858   2.842   4.262   2.214
 5632TIP3   OH216859   0.718   0.322   2.036
 5632TIP3    H116860   0.741   0.235   2.070
 5632TIP3    H216861   0.623   0.319   2.027
 5633TIP3   OH216862   0.919   2.323   3.785
 5633TIP3    H116863   0.979   2.279   3.845
 5633TIP3    H216864   0.854   2.257   3.763
 5634TIP3   OH216865   4.177   2.870   4.951
 5634TIP3    H116866   4.092   2.832   4.929
 5634TIP3    H216867   4.219   2.805   5.007
 5635TIP3   OH216868   6.820   5.292   4.992
 5635TIP3    H116869   6.903   5.318   4.952
 5635TIP3    H216870   6.776   5.375   5.012
 5636TIP3   OH216871   1.934   4.213   5.708
 5636TIP3    H116872   1.839   4.209   5.719
 5636TIP3    H216873   1.948   4.196   5.614
 5637TIP3   OH216874   2.969   4.909   3.433
 5637TIP3    H116875   2.938   4.820   3.451
 5637TIP3    H216876   2.989   4.945   3.519
 5638TIP3   OH216877   2.911   5.074   3.221
 5638TIP3    H116878   2.915   5.025   3.303
 5638TIP3    H216879   2.992   5.051   3.175
 5639TIP3   OH216880   4.022   2.025   0.724
 5639TIP3    H116881   4.055   2.059   0.641
 5639TIP3    H216882   4.016   1.931   0.711
 5640TIP3   OH216883   5.528   0.863   5.395
 5640TIP3    H116884   5.519   0.822   5.309
 5640TIP3    H216885   5.563   0.794   5.451
 5641TIP3   OH216886   6.621   6.109   1.076
 5641TIP3    H116887   6.571   6.147   1.004
 5641TIP3    H216888   6.642   6.183   1.133
 5642TIP3   OH216889   3.092   3.631   2.933
 5642TIP3    H116890   3.015   3.601   2.887
 5642TIP3    H216891   3.146   3.673   2.866
 5643TIP3   OH216892   6.850   1.517   5.825
 5643TIP3    H116893   6.811   1.485   5.743
 5643TIP3    H216894   6.849   1.440   5.883
 5644TIP3   OH216895   5.666   2.058   0.673
 5644TIP3    H116896   5.760   2.041   0.678
 5644TIP3    H216897   5.659   2.152   0.660
 5645TIP3   OH216898   2.987   4.376   0.978
 5645TIP3    H116899   3.021   4.304   1.030
 5645TIP3    H216900   3.060   4.400   0.921
 5646TIP3   OH216901   3.603   4.182   3.030
 5646TIP3    H116902   3.633   4.095   3.007
 5646TIP3    H216903   3.508   4.179   3.017
 5647TIP3   OH216904   2.355   2.578   3.609
 5647TIP3    H116905   2.273   2.593   3.656
 5647TIP3    H216906   2.372   2.660   3.562
 5648TIP3   OH216907   1.360   1.026   3.757
 5648TIP3    H116908   1.359   0.938   3.793
 5648TIP3    H216909   1.279   1.066   3.787
 5649TIP3   OH216910   2.234   2.494   5.124
 5649TIP3    H116911   2.201   2.580   5.100
 5649TIP3    H216912   2.281   2.508   5.206
 5650TIP3   OH216913   6.382   0.610   4.004
 5650TIP3    H116914   6.363   0.700   3.977
 5650TIP3    H216915   6.463   0.587   3.959
 5651TIP3   OH216916   5.091   3.512   3.873
 5651TIP3    H116917   5.164   3.450   3.880
 5651TIP3    H216918   5.044   3.503   3.956
 5652TIP3   OH216919   5.117   5.213   1.687
 5652TIP3    H116920   5.213   5.209   1.686
 5652TIP3    H216921   5.097   5.292   1.737
 5653TIP3   OH216922   0.565   3.667   2.944
 5653TIP3    H116923   0.632   3.641   2.881
 5653TIP3    H216924   0.564   3.598   3.009
 5654TIP3   OH216925   0.065   3.661   0.645
 5654TIP3    H116926   0.151   3.701   0.656
 5654TIP3    H216927   0.003   3.731   0.664
 5655TIP3   OH216928   4.652   5.137   3.402
 5655TIP3    H116929   4.679   5.228   3.403
 5655TIP3    H216930   4.563   5.137   3.438
 5656TIP3   OH216931   1.258   6.745   3.174
 5656TIP3    H116932   1.271   6.674   3.236
 5656TIP3    H216933   1.164   6.746   3.157
 5657TIP3   OH216934   1.719   2.720   1.147
 5657TIP3    H116935   1.809   2.697   1.123
 5657TIP3    H216936   1.669   2.639   1.134
 5658TIP3   OH216937   0.543   1.541   2.138
 5658TIP3    H116938   0.607   1.477   2.169
 5658TIP3    H216939   0.515   1.587   2.218
 5659TIP3   OH216940   4.493   2.616   1.412
 5659TIP3    H116941   4.469   2.609   1.320
 5659TIP3    H216942   4.583   2.648   1.411
 5660TIP3   OH216943   3.579   0.907   5.048
 5660TIP3    H116944   3.616   0.991   5.019
 5660TIP3    H216945   3.654   0.847   5.048
 5661TIP3   OH216946   3.123   4.574   0.124
 5661TIP3    H116947   3.122   4.647   0.186
 5661TIP3    H216948   3.151   4.614   0.041
 5662TIP3   OH216949   5.801   4.372   2.517
 5662TIP3    H116950   5.735   4.427   2.558
 5662TIP3    H216951   5.868   4.360   2.584
 5663TIP3   OH216952   0.334   4.831   1.649
 5663TIP3    H116953   0.333   4.747   1.603
 5663TIP3    H216954   0.247   4.867   1.636
 5664TIP3   OH216955   0.626   1.961   5.869
 5664TIP3    H116956   0.702   1.922   5.826
 5664TIP3    H216957   0.564   1.889   5.877
 5665TIP3   OH216958   6.186   0.164   0.975
 5665TIP3    H116959   6.097   0.143   0.946
 5665TIP3    H216960   6.200   0.106   1.050
 5666TIP3   OH216961   4.232   3.364   1.642
 5666TIP3    H116962   4.160   3.427   1.645
 5666TIP3    H216963   4.311   3.418   1.653
 5667TIP3   OH216964   1.429   0.926   2.937
 5667TIP3    H116965   1.403   1.008   2.979
 5667TIP3    H216966   1.362   0.911   2.870
 5668TIP3   OH216967   0.857   1.297   0.959
 5668TIP3    H116968   0.887   1.223   1.011
 5668TIP3    H216969   0.938   1.339   0.930
 5669TIP3   OH216970   3.500   2.387   3.874
 5669TIP3    H116971   3.513   2.481   3.860
 5669TIP3    H216972   3.582   2.357   3.914
 5670TIP3   OH216973   0.376   5.349   2.598
 5670TIP3    H116974   0.338   5.261   2.588
 5670TIP3    H216975   0.304   5.408   2.576
 5671TIP3   OH216976   2.959   2.432   3.431
 5671TIP3    H116977   2.901   2.465   3.500
 5671TIP3    H216978   3.047   2.440   3.469
 5672TIP3   OH216979   5.101   3.390   4.914
 5672TIP3    H116980   5.094   3.470   4.966
 5672TIP3    H216981   5.011   3.356   4.909
 5673TIP3   OH216982   4.724   3.360   0.686
 5673TIP3    H116983   4.767   3.290   0.638
 5673TIP3    H216984   4.739   3.339   0.778
 5674TIP3   OH216985   3.777   3.288   0.490
 5674TIP3    H116986   3.715   3.313   0.421
 5674TIP3    H216987   3.835   3.225   0.447
 5675TIP3   OH216988   0.425   1.880   2.108
 5675TIP3    H116989   0.459   1.858   2.195
 5675TIP3    H216990   0.381   1.801   2.079
 5676TIP3   OH216991   0.735   0.395   4.125
 5676TIP3    H116992   0.717   0.353   4.209
 5676TIP3    H216993   0.648   0.414   4.089
 5677TIP3   OH216994   0.482   1.082   4.615
 5677TIP3    H116995   0.431   1.142   4.670
 5677TIP3    H216996   0.503   1.008   4.673
 5678TIP3   OH216997   2.627   4.664   1.729
 5678TIP3    H116998   2.548   4.640   1.682
 5678TIP3    H216999   2.677   4.583   1.737
 5679TIP3   OH217000   4.798   1.103   2.555
 5679TIP3    H117001   4.856   1.124   2.628
 5679TIP3    H217002   4.815   1.171   2.490
 5680TIP3   OH217003   0.360   2.061   2.461
 5680TIP3    H117004   0.440   2.011   2.444
 5680TIP3    H217005   0.391   2.152   2.468
 5681TIP3   OH217006   0.410   3.385   4.401
 5681TIP3    H117007   0.378   3.407   4.488
 5681TIP3    H217008   0.390   3.292   4.391
 5682TIP3   OH217009   4.774   5.828   2.470
 5682TIP3    H117010   4.679   5.841   2.460
 5682TIP3    H217011   4.797   5.768   2.399
 5683TIP3   OH217012   1.971   2.577   5.022
 5683TIP3    H117013   1.989   2.664   4.987
 5683TIP3    H217014   1.948   2.525   4.944
 5684TIP3   OH217015   5.476   4.092   2.389
 5684TIP3    H117016   5.493   4.104   2.482
 5684TIP3    H217017   5.388   4.126   2.375
 5685TIP3   OH217018   6.466   0.659   2.197
 5685TIP3    H117019   6.379   0.621   2.211
 5685TIP3    H217020   6.524   0.610   2.256
 5686TIP3   OH217021   7.186   5.683   1.834
 5686TIP3    H117022   7.149   5.770   1.848
 5686TIP3    H217023   7.274   5.699   1.802
 5687TIP3   OH217024   5.253   1.463   4.131
 5687TIP3    H117025   5.336   1.509   4.121
 5687TIP3    H217026   5.186   1.531   4.127
 5688TIP3   OH217027   3.171   2.991   5.777
 5688TIP3    H117028   3.124   3.073   5.761
 5688TIP3    H217029   3.105   2.934   5.816
 5689TIP3   OH217030   3.398   6.567   1.843
 5689TIP3    H117031   3.383   6.531   1.756
 5689TIP3    H217032   3.447   6.648   1.828
 5690TIP3   OH217033   0.023   5.144   1.050
 5690TIP3    H117034   0.050   5.187   1.131
 5690TIP3    H217035  -0.046   5.201   1.015
 5691TIP3   OH217036   1.217   4.377   0.117
 5691TIP3    H117037   1.178   4.464   0.114
 5691TIP3    H217038   1.148   4.320   0.151
 5692TIP3   OH217039   3.496   6.147   3.784
 5692TIP3    H117040   3.493   6.191   3.869
 5692TIP3    H217041   3.413   6.169   3.743
 5693TIP3   OH217042   1.248   4.584   4.915
 5693TIP3    H117043   1.211   4.646   4.853
 5693TIP3    H217044   1.271   4.508   4.862
 5694TIP3   OH217045   1.009   2.699   2.730
 5694TIP3    H117046   0.998   2.778   2.677
 5694TIP3    H217047   1.016   2.628   2.666
 5695TIP3   OH217048   6.507   2.227   0.411
 5695TIP3    H117049   6.445   2.156   0.396
 5695TIP3    H217050   6.527   2.223   0.504
 5696TIP3   OH217051   0.661   3.017   1.592
 5696TIP3    H117052   0.741   2.974   1.621
 5696TIP3    H217053   0.590   2.964   1.628
 5697TIP3   OH217054   5.186   3.779   1.679
 5697TIP3    H117055   5.139   3.713   1.628
 5697TIP3    H217056   5.194   3.741   1.767
 5698TIP3   OH217057   1.346   0.774   4.291
 5698TIP3    H117058   1.411   0.709   4.265
 5698TIP3    H217059   1.316   0.813   4.208
 5699TIP3   OH217060   0.806   2.740   2.492
 5699TIP3    H117061   0.779   2.727   2.401
 5699TIP3    H217062   0.723   2.747   2.540
 5700TIP3   OH217063   6.078   2.320   3.977
 5700TIP3    H117064   6.002   2.263   3.986
 5700TIP3    H217065   6.059   2.375   3.902
 5701TIP3   OH217066   0.958   6.707   4.698
 5701TIP3    H117067   1.018   6.778   4.677
 5701TIP3    H217068   1.009   6.627   4.683
 5702TIP3   OH217069   5.981   5.864   2.247
 5702TIP3    H117070   5.988   5.938   2.307
 5702TIP3    H217071   5.968   5.788   2.305
 5703TIP3   OH217072   1.557   1.040   1.252
 5703TIP3    H117073   1.530   1.040   1.344
 5703TIP3    H217074   1.548   1.131   1.225
 5704TIP3   OH217075   2.780   6.418   1.383
 5704TIP3    H117076   2.869   6.445   1.363
 5704TIP3    H217077   2.788   6.327   1.413
 5705TIP3   OH217078   4.215   0.775   1.591
 5705TIP3    H117079   4.158   0.810   1.661
 5705TIP3    H217080   4.279   0.845   1.576
 5706TIP3   OH217081   1.661   6.574   3.495
 5706TIP3    H117082   1.746   6.560   3.454
 5706TIP3    H217083   1.670   6.658   3.541
 5707TIP3   OH217084   5.988   2.723   1.882
 5707TIP3    H117085   5.996   2.672   1.962
 5707TIP3    H217086   6.077   2.756   1.866
 5708TIP3   OH217087   5.034   1.774   2.535
 5708TIP3    H117088   4.991   1.698   2.497
 5708TIP3    H217089   4.963   1.821   2.580
 5709TIP3   OH217090   5.588   3.458   4.412
 5709TIP3    H117091   5.670   3.413   4.431
 5709TIP3    H217092   5.614   3.541   4.372
 5710TIP3   OH217093   5.826   5.015   3.698
 5710TIP3    H117094   5.842   4.922   3.714
 5710TIP3    H217095   5.735   5.019   3.669
 5711TIP3   OH217096   4.311   3.413   3.679
 5711TIP3    H117097   4.273   3.427   3.593
 5711TIP3    H217098   4.313   3.500   3.719
 5712TIP3   OH217099   2.104   4.347   1.991
 5712TIP3    H117100   2.156   4.405   2.048
 5712TIP3    H217101   2.151   4.264   1.992
 5713TIP3   OH217102   2.703   2.012   3.296
 5713TIP3    H117103   2.619   2.057   3.304
 5713TIP3    H217104   2.687   1.943   3.232
 5714TIP3   OH217105   3.565   1.367   5.692
 5714TIP3    H117106   3.476   1.331   5.690
 5714TIP3    H217107   3.553   1.461   5.701
 5715TIP3   OH217108   2.791   4.425   1.222
 5715TIP3    H117109   2.857   4.382   1.167
 5715TIP3    H217110   2.722   4.359   1.230
 5716TIP3   OH217111   0.084   4.944   5.558
 5716TIP3    H117112  -0.005   4.958   5.587
 5716TIP3    H217113   0.078   4.942   5.462
 5717TIP3   OH217114   0.762   6.146   2.668
 5717TIP3    H117115   0.674   6.140   2.629
 5717TIP3    H217116   0.749   6.196   2.749
 5718TIP3   OH217117   1.994   3.440   3.038
 5718TIP3    H117118   2.064   3.486   3.084
 5718TIP3    H217119   1.975   3.495   2.962
 5719TIP3   OH217120   0.084   4.921   2.905
 5719TIP3    H117121   0.158   4.983   2.907
 5719TIP3    H217122   0.021   4.958   2.967
 5720TIP3   OH217123   2.323   6.274   0.432
 5720TIP3    H117124   2.267   6.332   0.381
 5720TIP3    H217125   2.265   6.202   0.459
 5721TIP3   OH217126   7.076   3.261   3.772
 5721TIP3    H117127   7.026   3.338   3.799
 5721TIP3    H217128   7.077   3.205   3.850
 5722TIP3   OH217129   4.722   1.295   0.739
 5722TIP3    H117130   4.810   1.258   0.726
 5722TIP3    H217131   4.684   1.297   0.652
 5723TIP3   OH217132   6.145   0.031   1.915
 5723TIP3    H117133   6.219   0.001   1.969
 5723TIP3    H217134   6.111   0.107   1.962
 5724TIP3   OH217135   7.151   5.380   5.608
 5724TIP3    H117136   7.059   5.372   5.582
 5724TIP3    H217137   7.153   5.349   5.699
 5725TIP3   OH217138   1.006   5.913   4.390
 5725TIP3    H117139   0.922   5.931   4.433
 5725TIP3    H217140   1.004   5.819   4.372
 5726TIP3   OH217141   1.982   1.379   0.999
 5726TIP3    H117142   2.071   1.404   0.972
 5726TIP3    H217143   1.970   1.291   0.964
 5727TIP3   OH217144   4.218   0.872   5.728
 5727TIP3    H117145   4.270   0.832   5.797
 5727TIP3    H217146   4.206   0.802   5.664
 5728TIP3   OH217147   0.825   4.668   0.433
 5728TIP3    H117148   0.766   4.647   0.506
 5728TIP3    H217149   0.768   4.709   0.368
 5729TIP3   OH217150   4.631   5.730   0.190
 5729TIP3    H117151   4.568   5.667   0.154
 5729TIP3    H217152   4.589   5.761   0.270
 5730TIP3   OH217153   5.271   2.247   0.436
 5730TIP3    H117154   5.215   2.239   0.359
 5730TIP3    H217155   5.291   2.157   0.461
 5731TIP3   OH217156   6.535   6.273   2.098
 5731TIP3    H117157   6.501   6.193   2.137
 5731TIP3    H217158   6.608   6.298   2.155
 5732TIP3   OH217159   3.074   6.490   0.878
 5732TIP3    H117160   3.059   6.557   0.811
 5732TIP3    H217161   3.159   6.452   0.855
 5733TIP3   OH217162   5.920   2.428   1.399
 5733TIP3    H117163   5.992   2.428   1.336
 5733TIP3    H217164   5.954   2.381   1.475
 5734TIP3   OH217165   7.116   4.285   2.035
 5734TIP3    H117166   7.201   4.306   2.072
 5734TIP3    H217167   7.080   4.370   2.009
 5735TIP3   OH217168   3.256   5.165   3.212
 5735TIP3    H117169   3.281   5.244   3.260
 5735TIP3    H217170   3.252   5.096   3.278
 5736TIP3   OH217171   5.325   1.068   0.619
 5736TIP3    H117172   5.256   1.127   0.589
 5736TIP3    H217173   5.405   1.121   0.614
 5737TIP3   OH217174   5.459   6.171   5.744
 5737TIP3    H117175   5.403   6.181   5.820
 5737TIP3    H217176   5.472   6.076   5.736
 5738TIP3   OH217177   4.398   4.738   1.156
 5738TIP3    H117178   4.426   4.820   1.195
 5738TIP3    H217179   4.348   4.763   1.079
 5739TIP3   OH217180   2.602   3.905   4.252
 5739TIP3    H117181   2.687   3.947   4.247
 5739TIP3    H217182   2.589   3.887   4.346
 5740TIP3   OH217183   3.701   1.842   4.184
 5740TIP3    H117184   3.722   1.794   4.104
 5740TIP3    H217185   3.774   1.823   4.243
 5741TIP3   OH217186   2.410   5.690   4.978
 5741TIP3    H117187   2.493   5.736   4.993
 5741TIP3    H217188   2.376   5.671   5.065
 5742TIP3   OH217189   5.389   4.296   1.401
 5742TIP3    H117190   5.377   4.256   1.487
 5742TIP3    H217191   5.484   4.309   1.393
 5743TIP3   OH217192   6.512   6.570   1.366
 5743TIP3    H117193   6.601   6.603   1.382
 5743TIP3    H217194   6.485   6.534   1.451
 5744TIP3   OH217195   1.259   2.014   4.654
 5744TIP3    H117196   1.297   1.931   4.683
 5744TIP3    H217197   1.196   2.037   4.723
 5745TIP3   OH217198   0.905   6.548   0.991
 5745TIP3    H117199   0.997   6.544   1.017
 5745TIP3    H217200   0.866   6.469   1.029
 5746TIP3   OH217201   5.862   2.589   2.998
 5746TIP3    H117202   5.931   2.644   3.034
 5746TIP3    H217203   5.813   2.646   2.939
 5747TIP3   OH217204   4.182   0.087   1.290
 5747TIP3    H117205   4.234   0.126   1.220
 5747TIP3    H217206   4.205  -0.006   1.288
 5748TIP3   OH217207   0.805   0.760   5.137
 5748TIP3    H117208   0.853   0.773   5.219
 5748TIP3    H217209   0.872   0.740   5.073
 5749TIP3   OH217210   5.822   2.096   4.494
 5749TIP3    H117211   5.905   2.073   4.535
 5749TIP3    H217212   5.756   2.054   4.549
 5750TIP3   OH217213   4.131   5.825   2.047
 5750TIP3    H117214   4.154   5.911   2.012
 5750TIP3    H217215   4.070   5.789   1.982
 5751TIP3   OH217216   7.099   2.184   5.166
 5751TIP3    H117217   7.008   2.155   5.155
 5751TIP3    H217218   7.112   2.187   5.260
 5752TIP3   OH217219   3.873   3.550   0.665
 5752TIP3    H117220   3.932   3.537   0.590
 5752TIP3    H217221   3.862   3.463   0.702
 5753TIP3   OH217222   5.006   5.625   5.359
 5753TIP3    H117223   5.006   5.657   5.449
 5753TIP3    H217224   4.946   5.683   5.312
 5754TIP3   OH217225   4.566   5.414   1.140
 5754TIP3    H117226   4.524   5.415   1.054
 5754TIP3    H217227   4.660   5.414   1.121
 5755TIP3   OH217228   6.860   1.313   1.442
 5755TIP3    H117229   6.934   1.259   1.416
 5755TIP3    H217230   6.789   1.251   1.459
 5756TIP3   OH217231   1.330   5.876   4.665
 5756TIP3    H117232   1.346   5.820   4.588
 5756TIP3    H217233   1.378   5.833   4.736
 5757TIP3   OH217234   3.728   2.224   0.378
 5757TIP3    H117235   3.735   2.319   0.379
 5757TIP3    H217236   3.635   2.206   0.385
 5758TIP3   OH217237   0.877   1.338   4.251
 5758TIP3    H117238   0.876   1.256   4.202
 5758TIP3    H217239   0.861   1.406   4.184
 5759TIP3   OH217240   6.219   2.953   5.013
 5759TIP3    H117241   6.185   2.951   5.103
 5759TIP3    H217242   6.177   3.029   4.973
 5760TIP3   OH217243   2.968   5.500   3.537
 5760TIP3    H117244   2.955   5.464   3.449
 5760TIP3    H217245   3.060   5.524   3.539
 5761TIP3   OH217246   3.679   1.813   0.192
 5761TIP3    H117247   3.657   1.807   0.099
 5761TIP3    H217248   3.709   1.725   0.215
 5762TIP3   OH217249   0.729   1.308   3.209
 5762TIP3    H117250   0.723   1.222   3.252
 5762TIP3    H217251   0.762   1.288   3.121
 5763TIP3   OH217252   1.970   4.886   4.519
 5763TIP3    H117253   1.917   4.873   4.597
 5763TIP3    H217254   1.906   4.902   4.449
 5764TIP3   OH217255   6.054   0.043   5.528
 5764TIP3    H117256   5.977   0.055   5.472
 5764TIP3    H217257   6.102  -0.030   5.488
 5765TIP3   OH217258   3.033   6.774   0.990
 5765TIP3    H117259   3.071   6.724   0.918
 5765TIP3    H217260   2.996   6.707   1.048
 5766TIP3   OH217261   4.476   3.913   3.678
 5766TIP3    H117262   4.457   3.889   3.587
 5766TIP3    H217263   4.569   3.898   3.688
 5767TIP3   OH217264   7.032   4.360   3.467
 5767TIP3    H117265   7.098   4.389   3.530
 5767TIP3    H217266   7.053   4.407   3.386
 5768TIP3   OH217267   5.904   0.185   4.360
 5768TIP3    H117268   5.894   0.184   4.455
 5768TIP3    H217269   5.939   0.272   4.341
 5769TIP3   OH217270   1.834   1.849   0.487
 5769TIP3    H117271   1.828   1.927   0.433
 5769TIP3    H217272   1.743   1.829   0.510
 5770TIP3   OH217273   3.588   1.201   0.978
 5770TIP3    H117274   3.648   1.274   0.994
 5770TIP3    H217275   3.612   1.170   0.890
 5771TIP3   OH217276   6.852   5.707   4.969
 5771TIP3    H117277   6.772   5.654   4.970
 5771TIP3    H217278   6.869   5.726   5.061
 5772TIP3   OH217279   1.742   6.658   5.120
 5772TIP3    H117280   1.798   6.582   5.106
 5772TIP3    H217281   1.802   6.733   5.116
 5773TIP3   OH217282   5.130   1.657   3.914
 5773TIP3    H117283   5.142   1.699   3.999
 5773TIP3    H217284   5.065   1.588   3.930
 5774TIP3   OH217285   5.640   3.337   2.163
 5774TIP3    H117286   5.672   3.375   2.081
 5774TIP3    H217287   5.624   3.412   2.220
 5775TIP3   OH217288   3.930   0.114   2.686
 5775TIP3    H117289   3.943   0.199   2.643
 5775TIP3    H217290   3.854   0.129   2.743
 5776TIP3   OH217291   6.167   1.982   0.887
 5776TIP3    H117292   6.168   1.968   0.982
 5776TIP3    H217293   6.175   1.894   0.849
 5777TIP3   OH217294   2.472   1.265   5.275
 5777TIP3    H117295   2.451   1.288   5.185
 5777TIP3    H217296   2.448   1.172   5.283
 5778TIP3   OH217297   3.876   3.931   0.896
 5778TIP3    H117298   3.933   3.865   0.857
 5778TIP3    H217299   3.915   4.015   0.869
 5779TIP3   OH217300   5.397   0.659   2.219
 5779TIP3    H117301   5.493   0.666   2.215
 5779TIP3    H217302   5.369   0.667   2.128
 5780TIP3   OH217303   1.849   4.861   1.228
 5780TIP3    H117304   1.900   4.808   1.290
 5780TIP3    H217305   1.778   4.803   1.200
 5781TIP3   OH217306   3.370   3.732   1.017
 5781TIP3    H117307   3.349   3.729   0.923
 5781TIP3    H217308   3.461   3.761   1.020
 5782TIP3   OH217309   6.242   6.592   5.696
 5782TIP3    H117310   6.252   6.542   5.616
 5782TIP3    H217311   6.319   6.650   5.699
 5783TIP3   OH217312   5.483   2.034   4.435
 5783TIP3    H117313   5.515   2.057   4.522
 5783TIP3    H217314   5.454   2.118   4.398
 5784TIP3   OH217315   1.825   4.106   1.703
 5784TIP3    H117316   1.731   4.111   1.685
 5784TIP3    H217317   1.865   4.163   1.637
 5785TIP3   OH217318   4.522   3.727   0.401
 5785TIP3    H117319   4.577   3.680   0.465
 5785TIP3    H217320   4.578   3.798   0.369
 5786TIP3   OH217321   3.961   3.185   2.295
 5786TIP3    H117322   3.979   3.203   2.387
 5786TIP3    H217323   3.960   3.089   2.289
 5787TIP3   OH217324   1.383   2.573   1.518
 5787TIP3    H117325   1.384   2.658   1.563
 5787TIP3    H217326   1.330   2.589   1.440
 5788TIP3   OH217327   7.115   4.197   5.409
 5788TIP3    H117328   7.187   4.158   5.360
 5788TIP3    H217329   7.089   4.273   5.357
 5789TIP3   OH217330   1.174   1.787   5.412
 5789TIP3    H117331   1.152   1.717   5.351
 5789TIP3    H217332   1.092   1.835   5.425
 5790TIP3   OH217333   3.147   0.078   0.817
 5790TIP3    H117334   3.130   0.172   0.816
 5790TIP3    H217335   3.236   0.069   0.782
 5791TIP3   OH217336   5.782   1.903   4.733
 5791TIP3    H117337   5.772   1.811   4.760
 5791TIP3    H217338   5.859   1.933   4.782
 5792TIP3   OH217339   5.314   5.004   4.994
 5792TIP3    H117340   5.236   5.050   5.025
 5792TIP3    H217341   5.359   5.068   4.938
 5793TIP3   OH217342   6.869   5.803   4.431
 5793TIP3    H117343   6.860   5.708   4.442
 5793TIP3    H217344   6.937   5.813   4.364
 5794TIP3   OH217345   1.264   3.697   3.983
 5794TIP3    H117346   1.276   3.639   3.908
 5794TIP3    H217347   1.301   3.649   4.057
 5795TIP3   OH217348   5.549   5.894   2.498
 5795TIP3    H117349   5.562   5.975   2.547
 5795TIP3    H217350   5.471   5.910   2.445
 5796TIP3   OH217351   4.025   0.928   4.939
 5796TIP3    H117352   4.077   0.850   4.960
 5796TIP3    H217353   4.079   0.977   4.877
 5797TIP3   OH217354   4.131   5.056   4.508
 5797TIP3    H117355   4.227   5.050   4.505
 5797TIP3    H217356   4.106   4.994   4.577
 5798TIP3   OH217357   0.939   0.396   5.784
 5798TIP3    H117358   0.893   0.472   5.817
 5798TIP3    H217359   1.032   0.416   5.796
 5799TIP3   OH217360   3.592   3.867   0.032
 5799TIP3    H117361   3.532   3.872   0.107
 5799TIP3    H217362   3.674   3.836   0.070
 5800TIP3   OH217363   1.104   5.050   3.883
 5800TIP3    H117364   1.199   5.060   3.892
 5800TIP3    H217365   1.073   5.037   3.973
 5801TIP3   OH217366   5.952   1.167   4.157
 5801TIP3    H117367   5.896   1.107   4.108
 5801TIP3    H217368   6.010   1.111   4.208
 5802TIP3   OH217369   6.647   2.880   5.513
 5802TIP3    H117370   6.645   2.791   5.549
 5802TIP3    H217371   6.647   2.867   5.418
 5803TIP3   OH217372   5.658   1.425   3.043
 5803TIP3    H117373   5.719   1.384   3.104
 5803TIP3    H217374   5.711   1.488   2.994
 5804TIP3   OH217375   3.974   1.898   4.182
 5804TIP3    H117376   3.986   1.929   4.272
 5804TIP3    H217377   4.004   1.808   4.183
 5805TIP3   OH217378   5.402   6.364   2.358
 5805TIP3    H117379   5.464   6.364   2.286
 5805TIP3    H217380   5.338   6.432   2.335
 5806TIP3   OH217381   1.885   3.528   4.864
 5806TIP3    H117382   1.789   3.525   4.875
 5806TIP3    H217383   1.901   3.487   4.779
 5807TIP3   OH217384   0.297   5.202   5.641
 5807TIP3    H117385   0.239   5.200   5.565
 5807TIP3    H217386   0.259   5.138   5.701
 5808TIP3   OH217387   6.956   4.965   2.583
 5808TIP3    H117388   6.922   4.900   2.645
 5808TIP3    H217389   7.046   4.980   2.610
 5809TIP3   OH217390   5.333   3.760   5.745
 5809TIP3    H117391   5.279   3.715   5.810
 5809TIP3    H217392   5.401   3.698   5.722
 5810TIP3   OH217393   0.939   4.633   4.916
 5810TIP3    H117394   0.928   4.585   4.998
 5810TIP3    H217395   1.033   4.632   4.900
 5811TIP3   OH217396   6.036   3.216   5.084
 5811TIP3    H117397   6.112   3.274   5.089
 5811TIP3    H217398   6.009   3.220   4.992
 5812TIP3   OH217399   5.839   4.105   5.589
 5812TIP3    H117400   5.787   4.170   5.637
 5812TIP3    H217401   5.789   4.024   5.596
 5813TIP3   OH217402   2.033   3.874   4.475
 5813TIP3    H117403   2.030   3.822   4.555
 5813TIP3    H217404   2.114   3.847   4.432
 5814TIP3   OH217405   5.908   4.590   2.292
 5814TIP3    H117406   5.893   4.512   2.346
 5814TIP3    H217407   6.001   4.609   2.303
 5815TIP3   OH217408   6.159   0.236   1.515
 5815TIP3    H117409   6.069   0.267   1.504
 5815TIP3    H217410   6.199   0.299   1.574
 5816TIP3   OH217411   5.537   1.568   2.545
 5816TIP3    H117412   5.557   1.549   2.637
 5816TIP3    H217413   5.579   1.652   2.528
 5817TIP3   OH217414   0.461   1.507   0.897
 5817TIP3    H117415   0.370   1.497   0.866
 5817TIP3    H217416   0.482   1.599   0.881
 5818TIP3   OH217417   5.345   1.546   0.222
 5818TIP3    H117418   5.314   1.637   0.227
 5818TIP3    H217419   5.440   1.553   0.230
 5819TIP3   OH217420   4.041   1.156   3.072
 5819TIP3    H117421   4.060   1.224   3.007
 5819TIP3    H217422   3.982   1.095   3.027
 5820TIP3   OH217423   4.995   1.496   5.673
 5820TIP3    H117424   5.056   1.489   5.746
 5820TIP3    H217425   4.977   1.406   5.649
 5821TIP3   OH217426   4.763   2.168   3.560
 5821TIP3    H117427   4.727   2.217   3.486
 5821TIP3    H217428   4.686   2.135   3.606
 5822TIP3   OH217429   7.160   1.449   2.115
 5822TIP3    H117430   7.124   1.398   2.043
 5822TIP3    H217431   7.203   1.384   2.171
 5823TIP3   OH217432   2.740   4.558   4.393
 5823TIP3    H117433   2.780   4.645   4.398
 5823TIP3    H217434   2.707   4.552   4.303
 5824TIP3   OH217435   5.872   3.394   4.109
 5824TIP3    H117436   5.800   3.352   4.062
 5824TIP3    H217437   5.878   3.347   4.192
 5825TIP3   OH217438   1.430   6.034   2.142
 5825TIP3    H117439   1.350   6.036   2.193
 5825TIP3    H217440   1.489   6.095   2.187
 5826TIP3   OH217441   2.482   1.353   4.107
 5826TIP3    H117442   2.506   1.301   4.184
 5826TIP3    H217443   2.554   1.339   4.045
 5827TIP3   OH217444   3.131   0.081   3.064
 5827TIP3    H117445   3.096   0.082   2.975
 5827TIP3    H217446   3.053   0.084   3.120
 5828TIP3   OH217447   4.115   3.880   2.752
 5828TIP3    H117448   4.190   3.823   2.736
 5828TIP3    H217449   4.099   3.922   2.668
 5829TIP3   OH217450   5.945   4.494   4.070
 5829TIP3    H117451   5.893   4.575   4.070
 5829TIP3    H217452   5.932   4.458   3.982
 5830TIP3   OH217453   1.838   2.154   4.177
 5830TIP3    H117454   1.866   2.185   4.264
 5830TIP3    H217455   1.743   2.170   4.176
 5831TIP3   OH217456   1.113   4.268   1.526
 5831TIP3    H117457   1.198   4.287   1.486
 5831TIP3    H217458   1.125   4.185   1.571
 5832TIP3   OH217459   0.086   5.319   1.856
 5832TIP3    H117460   0.160   5.300   1.913
 5832TIP3    H217461   0.124   5.329   1.769
 5833TIP3   OH217462   4.360   5.831   0.798
 5833TIP3    H117463   4.438   5.866   0.756
 5833TIP3    H217464   4.392   5.790   0.879
 5834TIP3   OH217465   4.009   0.489   4.981
 5834TIP3    H117466   3.997   0.478   5.075
 5834TIP3    H217467   3.923   0.516   4.949
 5835TIP3   OH217468   6.542   2.398   3.747
 5835TIP3    H117469   6.482   2.436   3.811
 5835TIP3    H217470   6.485   2.362   3.679
 5836TIP3   OH217471   0.154   2.319   1.233
 5836TIP3    H117472   0.209   2.266   1.292
 5836TIP3    H217473   0.103   2.254   1.184
 5837TIP3   OH217474   6.543   2.278   3.241
 5837TIP3    H117475   6.460   2.323   3.226
 5837TIP3    H217476   6.605   2.347   3.263
 5838TIP3   OH217477   4.170   4.981   2.799
 5838TIP3    H117478   4.173   5.062   2.747
 5838TIP3    H217479   4.214   5.004   2.881
 5839TIP3   OH217480   1.555   3.919   5.092
 5839TIP3    H117481   1.619   3.961   5.151
 5839TIP3    H217482   1.501   3.865   5.150
 5840TIP3   OH217483   3.324   0.231   5.535
 5840TIP3    H117484   3.289   0.295   5.473
 5840TIP3    H217485   3.417   0.252   5.541
 5841TIP3   OH217486   2.215   1.056   4.472
 5841TIP3    H117487   2.179   1.079   4.557
 5841TIP3    H217488   2.212   1.137   4.421
 5842TIP3   OH217489   3.077   3.260   5.715
 5842TIP3    H117490   3.107   3.273   5.805
 5842TIP3    H217491   3.018   3.333   5.697
 5843TIP3   OH217492   5.916   3.186   2.046
 5843TIP3    H117493   5.899   3.227   2.132
 5843TIP3    H217494   6.011   3.186   2.038
 5844TIP3   OH217495   3.209   4.255   5.239
 5844TIP3    H117496   3.201   4.165   5.271
 5844TIP3    H217497   3.297   4.261   5.204
 5845TIP3   OH217498   5.961   6.538   5.447
 5845TIP3    H117499   5.898   6.556   5.376
 5845TIP3    H217500   5.919   6.469   5.498
 5846TIP3   OH217501   5.197   4.679   2.798
 5846TIP3    H117502   5.198   4.592   2.756
 5846TIP3    H217503   5.109   4.687   2.835
 5847TIP3   OH217504   6.342   2.345   4.955
 5847TIP3    H117505   6.336   2.305   4.868
 5847TIP3    H217506   6.251   2.357   4.982
 5848TIP3   OH217507   6.161   2.031   2.781
 5848TIP3    H117508   6.069   2.039   2.758
 5848TIP3    H217509   6.208   2.065   2.705
 5849TIP3   OH217510   5.526   0.579   5.258
 5849TIP3    H117511   5.587   0.562   5.330
 5849TIP3    H217512   5.581   0.616   5.189
 5850TIP3   OH217513   4.575   2.164   5.390
 5850TIP3    H117514   4.663   2.164   5.429
 5850TIP3    H217515   4.516   2.169   5.465
 5851TIP3   OH217516   2.805   4.308   0.731
 5851TIP3    H117517   2.865   4.252   0.781
 5851TIP3    H217518   2.844   4.311   0.644
 5852TIP3   OH217519   1.797   6.727   3.081
 5852TIP3    H117520   1.794   6.817   3.115
 5852TIP3    H217521   1.718   6.720   3.027
 5853TIP3   OH217522   7.148   0.770   0.218
 5853TIP3    H117523   7.082   0.743   0.155
 5853TIP3    H217524   7.170   0.690   0.266
 5854TIP3   OH217525   4.009   1.336   4.944
 5854TIP3    H117526   3.977   1.314   4.857
 5854TIP3    H217527   3.932   1.368   4.991
 5855TIP3   OH217528   2.503   5.311   1.769
 5855TIP3    H117529   2.471   5.250   1.835
 5855TIP3    H217530   2.425   5.357   1.739
 5856TIP3   OH217531   4.002   0.276   4.214
 5856TIP3    H117532   3.996   0.366   4.245
 5856TIP3    H217533   3.963   0.277   4.127
 5857TIP3   OH217534   4.423   1.447   3.369
 5857TIP3    H117535   4.433   1.541   3.352
 5857TIP3    H217536   4.489   1.427   3.436
 5858TIP3   OH217537   6.455   3.276   0.067
 5858TIP3    H117538   6.372   3.319   0.087
 5858TIP3    H217539   6.512   3.346   0.035
 5859TIP3   OH217540   6.471   6.703   4.199
 5859TIP3    H117541   6.528   6.652   4.257
 5859TIP3    H217542   6.386   6.703   4.243
 5860TIP3   OH217543   4.098   1.618   5.018
 5860TIP3    H117544   4.018   1.607   5.069
 5860TIP3    H217545   4.146   1.536   5.031
 5861TIP3   OH217546   4.771   5.243   4.044
 5861TIP3    H117547   4.748   5.162   4.090
 5861TIP3    H217548   4.791   5.305   4.114
 5862TIP3   OH217549   4.493   0.872   2.680
 5862TIP3    H117550   4.489   0.934   2.606
 5862TIP3    H217551   4.529   0.924   2.752
 5863TIP3   OH217552   1.675   3.789   2.009
 5863TIP3    H117553   1.627   3.781   2.092
 5863TIP3    H217554   1.652   3.710   1.961
 5864TIP3   OH217555   5.136   2.444   5.581
 5864TIP3    H117556   5.137   2.516   5.518
 5864TIP3    H217557   5.119   2.366   5.527
 5865TIP3   OH217558   2.253   4.025   5.646
 5865TIP3    H117559   2.234   3.980   5.564
 5865TIP3    H217560   2.302   4.103   5.620
 5866TIP3   OH217561   5.575   2.508   5.412
 5866TIP3    H117562   5.516   2.462   5.471
 5866TIP3    H217563   5.662   2.487   5.444
 5867TIP3   OH217564   3.019   6.452   3.480
 5867TIP3    H117565   2.999   6.388   3.549
 5867TIP3    H217566   2.958   6.524   3.496
 5868TIP3   OH217567   0.113   4.391   1.064
 5868TIP3    H117568   0.173   4.331   1.019
 5868TIP3    H217569   0.029   4.345   1.066
 5869TIP3   OH217570   6.623   5.303   5.489
 5869TIP3    H117571   6.548   5.244   5.496
 5869TIP3    H217572   6.613   5.344   5.403
 5870TIP3   OH217573   0.498   6.179   2.546
 5870TIP3    H117574   0.508   6.190   2.452
 5870TIP3    H217575   0.468   6.265   2.577
 5871TIP3   OH217576   5.192   3.641   1.917
 5871TIP3    H117577   5.223   3.551   1.907
 5871TIP3    H217578   5.162   3.647   2.007
 5872TIP3   OH217579   6.929   1.550   2.453
 5872TIP3    H117580   6.878   1.500   2.517
 5872TIP3    H217581   6.917   1.503   2.370
 5873TIP3   OH217582   1.929   5.039   4.928
 5873TIP3    H117583   1.936   5.101   5.001
 5873TIP3    H217584   1.979   5.079   4.857
 5874TIP3   OH217585   0.681   1.709   0.165
 5874TIP3    H117586   0.765   1.666   0.149
 5874TIP3    H217587   0.629   1.644   0.211
 5875TIP3   OH217588   2.736   2.840   2.253
 5875TIP3    H117589   2.766   2.765   2.304
 5875TIP3    H217590   2.717   2.907   2.318
 5876TIP3   OH217591   5.886   1.098   3.038
 5876TIP3    H117592   5.903   1.182   2.995
 5876TIP3    H217593   5.954   1.091   3.105
 5877TIP3   OH217594   6.047   3.104   5.882
 5877TIP3    H117595   6.122   3.131   5.830
 5877TIP3    H217596   6.011   3.186   5.917
 5878TIP3   OH217597   5.566   4.090   0.688
 5878TIP3    H117598   5.545   4.160   0.627
 5878TIP3    H217599   5.481   4.052   0.711
 5879TIP3   OH217600   7.175   1.895   3.371
 5879TIP3    H117601   7.219   1.885   3.286
 5879TIP3    H217602   7.204   1.981   3.402
 5880TIP3   OH217603   1.001   5.632   3.655
 5880TIP3    H117604   0.974   5.703   3.597
 5880TIP3    H217605   0.951   5.556   3.624
 5881TIP3   OH217606   2.980   3.953   0.402
 5881TIP3    H117607   3.015   4.024   0.348
 5881TIP3    H217608   2.996   3.874   0.351
 5882TIP3   OH217609   4.215   6.079   1.160
 5882TIP3    H117610   4.300   6.070   1.203
 5882TIP3    H217611   4.210   6.172   1.138
 5883TIP3   OH217612   2.504   5.527   2.788
 5883TIP3    H117613   2.560   5.605   2.784
 5883TIP3    H217614   2.416   5.561   2.773
 5884TIP3   OH217615   4.460   3.097   3.137
 5884TIP3    H117616   4.541   3.092   3.188
 5884TIP3    H217617   4.392   3.064   3.196
 5885TIP3   OH217618   1.472   4.642   2.420
 5885TIP3    H117619   1.469   4.585   2.343
 5885TIP3    H217620   1.520   4.719   2.392
 5886TIP3   OH217621   6.003   2.793   5.740
 5886TIP3    H117622   5.933   2.767   5.679
 5886TIP3    H217623   6.073   2.825   5.683
 5887TIP3   OH217624   3.177   4.025   5.427
 5887TIP3    H117625   3.085   4.053   5.434
 5887TIP3    H217626   3.204   4.009   5.518
 5888TIP3   OH217627   2.213   2.439   3.878
 5888TIP3    H117628   2.183   2.434   3.969
 5888TIP3    H217629   2.262   2.358   3.865
 5889TIP3   OH217630   7.218   1.820   2.938
 5889TIP3    H117631   7.268   1.792   3.015
 5889TIP3    H217632   7.135   1.851   2.975
 5890TIP3   OH217633   1.177   5.532   4.644
 5890TIP3    H117634   1.247   5.562   4.702
 5890TIP3    H217635   1.096   5.549   4.694
 5891TIP3   OH217636   4.395   1.001   1.611
 5891TIP3    H117637   4.343   1.048   1.676
 5891TIP3    H217638   4.445   1.070   1.566
 5892TIP3   OH217639   7.003   1.283   0.532
 5892TIP3    H117640   7.012   1.297   0.626
 5892TIP3    H217641   6.970   1.367   0.498
 5893TIP3   OH217642   0.331   4.308   3.692
 5893TIP3    H117643   0.403   4.246   3.696
 5893TIP3    H217644   0.330   4.351   3.778
 5894TIP3   OH217645   0.462   3.550   3.213
 5894TIP3    H117646   0.547   3.509   3.233
 5894TIP3    H217647   0.402   3.477   3.200
 5895TIP3   OH217648   0.459   4.429   1.133
 5895TIP3    H117649   0.419   4.436   1.046
 5895TIP3    H217650   0.428   4.346   1.168
 5896TIP3   OH217651   4.984   4.934   3.937
 5896TIP3    H117652   5.014   4.969   3.854
 5896TIP3    H217653   4.942   4.850   3.915
 5897TIP3   OH217654   0.108   6.744   1.904
 5897TIP3    H117655   0.191   6.793   1.901
 5897TIP3    H217656   0.104   6.699   1.819
 5898TIP3   OH217657   0.392   6.556   0.723
 5898TIP3    H117658   0.447   6.627   0.690
 5898TIP3    H217659   0.336   6.533   0.649
 5899TIP3   OH217660   3.689   3.506   1.227
 5899TIP3    H117661   3.774   3.479   1.263
 5899TIP3    H217662   3.691   3.602   1.230
 5900TIP3   OH217663   1.564   4.108   0.852
 5900TIP3    H117664   1.613   4.147   0.779
 5900TIP3    H217665   1.488   4.165   0.862
 5901TIP3   OH217666   2.226   6.157   2.583
 5901TIP3    H117667   2.255   6.067   2.600
 5901TIP3    H217668   2.305   6.204   2.557
 5902TIP3   OH217669   2.844   0.092   1.306
 5902TIP3    H117670   2.903   0.018   1.297
 5902TIP3    H217671   2.763   0.064   1.263
 5903TIP3   OH217672   5.136   3.378   1.252
 5903TIP3    H117673   5.082   3.300   1.243
 5903TIP3    H217674   5.111   3.434   1.178
 5904TIP3   OH217675   4.444   4.157   3.030
 5904TIP3    H117676   4.433   4.068   3.063
 5904TIP3    H217677   4.381   4.164   2.959
 5905TIP3   OH217678   4.745   3.957   5.498
 5905TIP3    H117679   4.819   4.018   5.492
 5905TIP3    H217680   4.761   3.908   5.579
 5906TIP3   OH217681   5.935   1.948   3.355
 5906TIP3    H117682   5.991   1.931   3.431
 5906TIP3    H217683   5.980   2.018   3.308
 5907TIP3   OH217684   0.873   0.948   0.154
 5907TIP3    H117685   0.935   0.891   0.199
 5907TIP3    H217686   0.900   0.945   0.062
 5908TIP3   OH217687   2.960   3.757   1.817
 5908TIP3    H117688   2.921   3.706   1.887
 5908TIP3    H217689   2.914   3.841   1.820
 5909TIP3   OH217690   5.000   3.335   0.403
 5909TIP3    H117691   5.021   3.262   0.344
 5909TIP3    H217692   5.074   3.340   0.462
 5910TIP3   OH217693   3.698   5.845   1.413
 5910TIP3    H117694   3.647   5.767   1.436
 5910TIP3    H217695   3.744   5.821   1.333
 5911TIP3   OH217696   2.432   5.131   1.997
 5911TIP3    H117697   2.344   5.155   2.026
 5911TIP3    H217698   2.444   5.042   2.028
 5912TIP3   OH217699   5.764   4.825   4.906
 5912TIP3    H117700   5.825   4.775   4.852
 5912TIP3    H217701   5.716   4.759   4.956
 5913TIP3   OH217702   6.595   3.769   2.096
 5913TIP3    H117703   6.640   3.842   2.138
 5913TIP3    H217704   6.521   3.811   2.050
 5914TIP3   OH217705   6.411   0.642   4.279
 5914TIP3    H117706   6.408   0.618   4.187
 5914TIP3    H217707   6.357   0.720   4.285
 5915TIP3   OH217708   0.754   4.785   3.928
 5915TIP3    H117709   0.826   4.793   3.866
 5915TIP3    H217710   0.708   4.705   3.902
 5916TIP3   OH217711   3.003   5.808   4.779
 5916TIP3    H117712   2.952   5.885   4.805
 5916TIP3    H217713   2.990   5.746   4.851
 5917TIP3   OH217714   1.870   3.232   4.282
 5917TIP3    H117715   1.885   3.167   4.351
 5917TIP3    H217716   1.852   3.313   4.329
 5918TIP3   OH217717   4.209   5.781   2.449
 5918TIP3    H117718   4.190   5.697   2.408
 5918TIP3    H217719   4.148   5.842   2.409
 5919TIP3   OH217720   1.915   4.505   2.520
 5919TIP3    H117721   1.845   4.495   2.456
 5919TIP3    H217722   1.905   4.595   2.552
 5920TIP3   OH217723   6.777   1.305   1.972
 5920TIP3    H117724   6.775   1.212   1.994
 5920TIP3    H217725   6.685   1.328   1.957
 5921TIP3   OH217726   0.931   3.059   0.353
 5921TIP3    H117727   0.970   3.142   0.327
 5921TIP3    H217728   0.847   3.083   0.393
 5922TIP3   OH217729   4.259   5.420   2.659
 5922TIP3    H117730   4.307   5.473   2.595
 5922TIP3    H217731   4.321   5.407   2.731
 5923TIP3   OH217732   6.905   0.069   4.707
 5923TIP3    H117733   6.853  -0.004   4.673
 5923TIP3    H217734   6.928   0.042   4.796
 5924TIP3   OH217735   3.953   0.080   4.391
 5924TIP3    H117736   3.873   0.081   4.338
 5924TIP3    H217737   4.017   0.128   4.339
 5925TIP3   OH217738   2.045   2.121   3.961
 5925TIP3    H117739   1.973   2.120   4.024
 5925TIP3    H217740   2.119   2.083   4.008
 5926TIP3   OH217741   6.033   3.542   4.441
 5926TIP3    H117742   5.960   3.481   4.435
 5926TIP3    H217743   6.085   3.511   4.515
 5927TIP3   OH217744   4.696   3.514   3.617
 5927TIP3    H117745   4.626   3.546   3.560
 5927TIP3    H217746   4.775   3.520   3.563
 5928TIP3   OH217747   4.370   0.921   3.127
 5928TIP3    H117748   4.296   0.963   3.084
 5928TIP3    H217749   4.436   0.912   3.057
 5929TIP3   OH217750   3.221   6.392   5.103
 5929TIP3    H117751   3.184   6.476   5.132
 5929TIP3    H217752   3.279   6.415   5.031
 5930TIP3   OH217753   6.746   1.374   4.823
 5930TIP3    H117754   6.683   1.309   4.792
 5930TIP3    H217755   6.757   1.354   4.916
 5931TIP3   OH217756   5.710   5.116   3.028
 5931TIP3    H117757   5.739   5.169   2.954
 5931TIP3    H217758   5.624   5.084   3.002
 5932TIP3   OH217759   4.112   2.110   5.633
 5932TIP3    H117760   4.073   2.036   5.679
 5932TIP3    H217761   4.172   2.070   5.570
 5933TIP3   OH217762   0.257   2.222   0.918
 5933TIP3    H117763   0.246   2.148   0.858
 5933TIP3    H217764   0.195   2.205   0.989
 5934TIP3   OH217765   6.819   2.323   2.790
 5934TIP3    H117766   6.857   2.357   2.872
 5934TIP3    H217767   6.764   2.250   2.818
 5935TIP3   OH217768   3.884   2.613   5.705
 5935TIP3    H117769   3.920   2.606   5.793
 5935TIP3    H217770   3.912   2.532   5.662
 5936TIP3   OH217771   3.016   1.983   1.563
 5936TIP3    H117772   2.942   1.981   1.502
 5936TIP3    H217773   3.056   2.069   1.549
 5937TIP3   OH217774   6.243   4.921   4.257
 5937TIP3    H117775   6.239   4.842   4.310
 5937TIP3    H217776   6.199   4.898   4.176
 5938TIP3   OH217777   1.244   0.969   2.544
 5938TIP3    H117778   1.168   0.959   2.487
 5938TIP3    H217779   1.311   1.006   2.487
 5939TIP3   OH217780   2.446   1.674   2.626
 5939TIP3    H117781   2.531   1.694   2.587
 5939TIP3    H217782   2.402   1.620   2.560
 5940TIP3   OH217783   5.686   5.990   0.767
 5940TIP3    H117784   5.682   5.979   0.862
 5940TIP3    H217785   5.602   6.028   0.744
 5941TIP3   OH217786   1.529   5.916   0.693
 5941TIP3    H117787   1.442   5.914   0.733
 5941TIP3    H217788   1.542   6.007   0.668
 5942TIP3   OH217789   6.078   6.478   2.369
 5942TIP3    H117790   6.021   6.419   2.319
 5942TIP3    H217791   6.018   6.526   2.427
 5943TIP3   OH217792   7.046   2.296   1.194
 5943TIP3    H117793   7.088   2.257   1.271
 5943TIP3    H217794   7.010   2.379   1.226
 5944TIP3   OH217795   3.112   0.530   0.433
 5944TIP3    H117796   3.034   0.479   0.455
 5944TIP3    H217797   3.185   0.471   0.450
 5945TIP3   OH217798   0.223   5.942   3.999
 5945TIP3    H117799   0.173   5.966   3.921
 5945TIP3    H217800   0.158   5.906   4.060
 5946TIP3   OH217801   4.595   3.715   5.439
 5946TIP3    H117802   4.644   3.795   5.456
 5946TIP3    H217803   4.659   3.645   5.447
 5947TIP3   OH217804   1.778   5.354   3.739
 5947TIP3    H117805   1.863   5.386   3.769
 5947TIP3    H217806   1.715   5.412   3.782
 5948TIP3   OH217807   1.419   4.960   4.230
 5948TIP3    H117808   1.438   4.874   4.269
 5948TIP3    H217809   1.337   4.947   4.183
 5949TIP3   OH217810   0.163   2.961   0.921
 5949TIP3    H117811   0.115   3.024   0.975
 5949TIP3    H217812   0.243   2.944   0.970
 5950TIP3   OH217813   6.366   6.749   3.606
 5950TIP3    H117814   6.445   6.698   3.628
 5950TIP3    H217815   6.351   6.730   3.513
 5951TIP3   OH217816   3.810   6.771   3.240
 5951TIP3    H117817   3.797   6.678   3.257
 5951TIP3    H217818   3.881   6.774   3.176
 5952TIP3   OH217819   5.425   3.233   4.431
 5952TIP3    H117820   5.473   3.315   4.418
 5952TIP3    H217821   5.373   3.248   4.510
 5953TIP3   OH217822   6.316   2.459   3.308
 5953TIP3    H117823   6.296   2.467   3.215
 5953TIP3    H217824   6.232   2.468   3.352
 5954TIP3   OH217825   4.347   5.903   5.638
 5954TIP3    H117826   4.422   5.852   5.670
 5954TIP3    H217827   4.364   5.916   5.545
 5955TIP3   OH217828   5.489   2.576   5.155
 5955TIP3    H117829   5.570   2.569   5.103
 5955TIP3    H217830   5.513   2.543   5.241
 5956TIP3   OH217831   3.873   4.606   0.106
 5956TIP3    H117832   3.854   4.578   0.017
 5956TIP3    H217833   3.817   4.683   0.119
 5957TIP3   OH217834   3.788   1.279   5.854
 5957TIP3    H117835   3.827   1.353   5.902
 5957TIP3    H217836   3.726   1.319   5.794
 5958TIP3   OH217837   1.609   0.886   1.924
 5958TIP3    H117838   1.587   0.977   1.905
 5958TIP3    H217839   1.623   0.883   2.019
 5959TIP3   OH217840   0.541   4.067   0.217
 5959TIP3    H117841   0.477   4.067   0.146
 5959TIP3    H217842   0.558   3.975   0.234
 5960TIP3   OH217843   2.825   5.703   2.854
 5960TIP3    H117844   2.902   5.742   2.811
 5960TIP3    H217845   2.858   5.671   2.938
 5961TIP3   OH217846   0.357   0.228   3.657
 5961TIP3    H117847   0.377   0.223   3.751
 5961TIP3    H217848   0.433   0.271   3.618
 5962TIP3   OH217849   5.068   5.822   3.774
 5962TIP3    H117850   5.152   5.853   3.807
 5962TIP3    H217851   5.071   5.840   3.680
 5963TIP3   OH217852   2.782   3.264   2.579
 5963TIP3    H117853   2.749   3.300   2.661
 5963TIP3    H217854   2.822   3.339   2.534
 5964TIP3   OH217855   1.838   2.021   1.064
 5964TIP3    H117856   1.845   1.930   1.093
 5964TIP3    H217857   1.770   2.058   1.120
 5965TIP3   OH217858   3.374   2.220   1.348
 5965TIP3    H117859   3.304   2.166   1.385
 5965TIP3    H217860   3.450   2.199   1.402
 5966TIP3   OH217861   7.021   6.247   3.165
 5966TIP3    H117862   7.020   6.158   3.129
 5966TIP3    H217863   6.935   6.282   3.144
 5967TIP3   OH217864   2.993   3.420   1.453
 5967TIP3    H117865   3.059   3.397   1.387
 5967TIP3    H217866   2.994   3.346   1.514
 5968TIP3   OH217867   2.844   6.107   3.709
 5968TIP3    H117868   2.794   6.030   3.680
 5968TIP3    H217869   2.892   6.077   3.786
 5969TIP3   OH217870   4.202   0.165   3.215
 5969TIP3    H117871   4.182   0.201   3.301
 5969TIP3    H217872   4.296   0.182   3.203
 5970TIP3   OH217873   4.631   3.206   3.676
 5970TIP3    H117874   4.558   3.178   3.730
 5970TIP3    H217875   4.618   3.300   3.663
 5971TIP3   OH217876   1.337   2.075   4.969
 5971TIP3    H117877   1.371   1.996   5.012
 5971TIP3    H217878   1.261   2.043   4.919
 5972TIP3   OH217879   1.179   0.604   0.640
 5972TIP3    H117880   1.263   0.602   0.686
 5972TIP3    H217881   1.202   0.599   0.548
 5973TIP3   OH217882   5.168   5.245   3.143
 5973TIP3    H117883   5.258   5.214   3.149
 5973TIP3    H217884   5.156   5.297   3.223
 5974TIP3   OH217885   0.602   5.123   5.013
 5974TIP3    H117886   0.507   5.130   5.007
 5974TIP3    H217887   0.629   5.087   4.929
 5975TIP3   OH217888   4.580   4.619   0.345
 5975TIP3    H117889   4.537   4.689   0.395
 5975TIP3    H217890   4.601   4.553   0.412
 5976TIP3   OH217891   3.133   6.193   2.641
 5976TIP3    H117892   3.085   6.256   2.589
 5976TIP3    H217893   3.066   6.136   2.678
 5977TIP3   OH217894   3.222   4.481   0.852
 5977TIP3    H117895   3.224   4.505   0.759
 5977TIP3    H217896   3.292   4.417   0.861
 5978TIP3   OH217897   6.095   1.777   1.667
 5978TIP3    H117898   6.059   1.841   1.605
 5978TIP3    H217899   6.169   1.822   1.707
 5979TIP3   OH217900   1.190   2.513   2.364
 5979TIP3    H117901   1.160   2.479   2.448
 5979TIP3    H217902   1.113   2.506   2.306
 5980TIP3   OH217903   6.814   3.893   3.181
 5980TIP3    H117904   6.890   3.939   3.217
 5980TIP3    H217905   6.759   3.962   3.144
 5981TIP3   OH217906   6.979   4.787   0.835
 5981TIP3    H117907   6.953   4.877   0.859
 5981TIP3    H217908   6.986   4.741   0.919
 5982TIP3   OH217909   5.760   5.373   4.639
 5982TIP3    H117910   5.708   5.361   4.560
 5982TIP3    H217911   5.694   5.378   4.709
 5983TIP3   OH217912   2.396   3.608   5.425
 5983TIP3    H117913   2.305   3.623   5.450
 5983TIP3    H217914   2.416   3.521   5.460
 5984TIP3   OH217915   4.019   3.532   3.674
 5984TIP3    H117916   4.062   3.491   3.599
 5984TIP3    H217917   3.925   3.524   3.654
 5985TIP3   OH217918   4.432   3.731   1.484
 5985TIP3    H117919   4.384   3.777   1.415
 5985TIP3    H217920   4.373   3.734   1.560
 5986TIP3   OH217921   6.264   6.706   4.395
 5986TIP3    H117922   6.172   6.679   4.405
 5986TIP3    H217923   6.310   6.663   4.467
 5987TIP3   OH217924   7.148   4.261   3.780
 5987TIP3    H117925   7.195   4.332   3.822
 5987TIP3    H217926   7.199   4.240   3.701
 5988TIP3   OH217927   0.865   0.875   3.926
 5988TIP3    H117928   0.854   0.882   3.831
 5988TIP3    H217929   0.789   0.826   3.955
 5989TIP3   OH217930   6.161   4.561   4.648
 5989TIP3    H117931   6.234   4.607   4.690
 5989TIP3    H217932   6.203   4.497   4.591
 5990TIP3   OH217933   4.582   4.680   4.756
 5990TIP3    H117934   4.521   4.747   4.787
 5990TIP3    H217935   4.563   4.603   4.810
 5991TIP3   OH217936   4.434   3.976   1.257
 5991TIP3    H117937   4.461   3.978   1.165
 5991TIP3    H217938   4.352   3.926   1.257
 5992TIP3   OH217939   2.907   0.596   5.211
 5992TIP3    H117940   2.826   0.555   5.183
 5992TIP3    H217941   2.913   0.676   5.159
 5993TIP3   OH217942   6.389   5.074   3.714
 5993TIP3    H117943   6.433   5.151   3.749
 5993TIP3    H217944   6.410   5.004   3.776
 5994TIP3   OH217945   0.908   2.047   0.297
 5994TIP3    H117946   0.856   1.979   0.341
 5994TIP3    H217947   0.859   2.068   0.218
 5995TIP3   OH217948   7.172   2.579   2.460
 5995TIP3    H117949   7.232   2.507   2.483
 5995TIP3    H217950   7.145   2.615   2.544
 5996TIP3   OH217951   1.465   6.754   0.124
 5996TIP3    H117952   1.372   6.774   0.117
 5996TIP3    H217953   1.504   6.796   0.047
 5997TIP3   OH217954   5.084   4.265   1.973
 5997TIP3    H117955   5.073   4.294   1.883
 5997TIP3    H217956   5.098   4.346   2.023
 5998TIP3   OH217957   1.642   2.438   1.157
 5998TIP3    H117958   1.571   2.384   1.189
 5998TIP3    H217959   1.711   2.430   1.223
 5999TIP3   OH217960   1.506   1.185   4.957
 5999TIP3    H117961   1.561   1.110   4.978
 5999TIP3    H217962   1.459   1.203   5.039
 6000TIP3   OH217963   6.292   2.130   3.859
 6000TIP3    H117964   6.234   2.132   3.783
 6000TIP3    H217965   6.259   2.199   3.916
 6001TIP3   OH217966   1.603   0.843   4.725
 6001TIP3    H117967   1.533   0.904   4.746
 6001TIP3    H217968   1.574   0.759   4.763
 6002TIP3   OH217969   4.064   3.530   4.799
 6002TIP3    H117970   4.061   3.557   4.708
 6002TIP3    H217971   4.043   3.609   4.849
 6003TIP3   OH217972   5.822   6.608   2.200
 6003TIP3    H117973   5.917   6.591   2.200
 6003TIP3    H217974   5.793   6.574   2.285
 6004TIP3   OH217975   2.560   2.338   0.754
 6004TIP3    H117976   2.604   2.339   0.839
 6004TIP3    H217977   2.525   2.249   0.747
 6005TIP3   OH217978   3.446   5.998   1.118
 6005TIP3    H117979   3.457   5.980   1.211
 6005TIP3    H217980   3.481   5.921   1.074
 6006TIP3   OH217981   1.310   2.739   5.875
 6006TIP3    H117982   1.400   2.753   5.905
 6006TIP3    H217983   1.273   2.827   5.868
 6007TIP3   OH217984   3.406   2.781   0.160
 6007TIP3    H117985   3.482   2.754   0.211
 6007TIP3    H217986   3.331   2.750   0.210
 6008TIP3   OH217987   1.861   0.894   5.518
 6008TIP3    H117988   1.809   0.929   5.590
 6008TIP3    H217989   1.866   0.966   5.455
 6009TIP3   OH217990   3.573   3.698   4.435
 6009TIP3    H117991   3.486   3.681   4.401
 6009TIP3    H217992   3.618   3.744   4.365
 6010TIP3   OH217993   3.786   4.272   4.067
 6010TIP3    H117994   3.849   4.307   4.004
 6010TIP3    H217995   3.812   4.309   4.151
 6011TIP3   OH217996   2.373   3.630   3.066
 6011TIP3    H117997   2.435   3.694   3.103
 6011TIP3    H217998   2.325   3.597   3.142
 6012TIP3   OH217999   0.147   4.902   5.178
 6012TIP3    H118000   0.080   4.936   5.237
 6012TIP3    H218001   0.099   4.860   5.108
 6013TIP3   OH218002   1.104   2.070   1.436
 6013TIP3    H118003   1.115   2.009   1.509
 6013TIP3    H218004   1.009   2.078   1.426
 6014TIP3   OH218005  -0.005   6.240   4.079
 6014TIP3    H118006   0.034   6.326   4.061
 6014TIP3    H218007   0.055   6.199   4.142
 6015TIP3   OH218008   2.850   2.098   3.532
 6015TIP3    H118009   2.794   2.170   3.560
 6015TIP3    H218010   2.798   2.049   3.469
 6016TIP3   OH218011   0.346   2.928   1.358
 6016TIP3    H118012   0.287   2.914   1.284
 6016TIP3    H218013   0.426   2.881   1.334
 6017TIP3   OH218014   5.586   5.610   2.976
 6017TIP3    H118015   5.656   5.670   2.951
 6017TIP3    H218016   5.587   5.542   2.909
 6018TIP3   OH218017   2.324   6.245   5.446
 6018TIP3    H118018   2.319   6.195   5.364
 6018TIP3    H218019   2.313   6.336   5.419
 6019TIP3   OH218020   5.829   3.799   4.932
 6019TIP3    H118021   5.805   3.845   4.852
 6019TIP3    H218022   5.924   3.804   4.936
 6020TIP3   OH218023   1.433   2.296   4.811
 6020TIP3    H118024   1.403   2.212   4.846
 6020TIP3    H218025   1.359   2.329   4.762
 6021TIP3   OH218026   3.817   1.223   3.291
 6021TIP3    H118027   3.759   1.259   3.223
 6021TIP3    H218028   3.811   1.129   3.279
 6022TIP3   OH218029   3.051   0.925   3.237
 6022TIP3    H118030   3.033   0.855   3.300
 6022TIP3    H218031   3.136   0.959   3.263
 6023TIP3   OH218032   5.802   2.370   2.016
 6023TIP3    H118033   5.736   2.319   2.063
 6023TIP3    H218034   5.798   2.457   2.055
 6024TIP3   OH218035   5.272   3.341   4.634
 6024TIP3    H118036   5.228   3.409   4.582
 6024TIP3    H218037   5.222   3.338   4.715
 6025TIP3   OH218038   2.579   4.821   3.497
 6025TIP3    H118039   2.629   4.891   3.540
 6025TIP3    H218040   2.573   4.752   3.564
 6026TIP3   OH218041   4.911   5.703   1.017
 6026TIP3    H118042   4.972   5.723   1.087
 6026TIP3    H218043   4.865   5.785   1.001
 6027TIP3   OH218044   2.061   3.067   1.599
 6027TIP3    H118045   2.154   3.045   1.603
 6027TIP3    H218046   2.047   3.125   1.674
 6028TIP3   OH218047   1.220   1.006   0.323
 6028TIP3    H118048   1.272   1.033   0.399
 6028TIP3    H218049   1.237   1.074   0.258
 6029TIP3   OH218050   7.002   1.712   3.576
 6029TIP3    H118051   7.039   1.730   3.663
 6029TIP3    H218052   6.920   1.667   3.595
 6030TIP3   OH218053   3.096   4.848   3.092
 6030TIP3    H118054   3.128   4.775   3.038
 6030TIP3    H218055   3.100   4.923   3.033
 6031TIP3   OH218056   1.394   6.458   5.122
 6031TIP3    H118057   1.368   6.546   5.147
 6031TIP3    H218058   1.425   6.466   5.032
 6032TIP3   OH218059   0.631   3.300   3.762
 6032TIP3    H118060   0.722   3.293   3.792
 6032TIP3    H218061   0.632   3.375   3.702
 6033TIP3   OH218062   3.820   1.711   1.917
 6033TIP3    H118063   3.896   1.667   1.879
 6033TIP3    H218064   3.858   1.780   1.973
 6034TIP3   OH218065   6.333   4.157   0.884
 6034TIP3    H118066   6.338   4.198   0.798
 6034TIP3    H218067   6.258   4.099   0.879
 6035TIP3   OH218068   1.660   6.776   2.281
 6035TIP3    H118069   1.578   6.775   2.331
 6035TIP3    H218070   1.725   6.740   2.342
 6036TIP3   OH218071   0.777   5.831   3.152
 6036TIP3    H118072   0.746   5.788   3.231
 6036TIP3    H218073   0.727   5.791   3.081
 6037TIP3   OH218074   5.926   6.198   2.946
 6037TIP3    H118075   5.922   6.193   3.042
 6037TIP3    H218076   6.019   6.183   2.926
 6038TIP3   OH218077   3.567   1.468   1.226
 6038TIP3    H118078   3.520   1.525   1.166
 6038TIP3    H218079   3.654   1.507   1.233
 6039TIP3   OH218080   4.413   3.964   4.176
 6039TIP3    H118081   4.395   4.057   4.164
 6039TIP3    H218082   4.483   3.945   4.113
 6040TIP3   OH218083   6.355   1.368   3.317
 6040TIP3    H118084   6.288   1.300   3.323
 6040TIP3    H218085   6.390   1.376   3.406
 6041TIP3   OH218086   3.490   4.405   0.331
 6041TIP3    H118087   3.473   4.499   0.332
 6041TIP3    H218088   3.584   4.398   0.347
 6042TIP3   OH218089   0.585   6.281   0.203
 6042TIP3    H118090   0.666   6.307   0.247
 6042TIP3    H218091   0.589   6.323   0.117
 6043TIP3   OH218092   0.402   4.367   4.899
 6043TIP3    H118093   0.401   4.462   4.895
 6043TIP3    H218094   0.310   4.343   4.913
 6044TIP3   OH218095   1.576   1.635   1.083
 6044TIP3    H118096   1.588   1.578   1.006
 6044TIP3    H218097   1.482   1.638   1.095
 6045TIP3   OH218098   2.682   5.699   0.208
 6045TIP3    H118099   2.680   5.794   0.221
 6045TIP3    H218100   2.675   5.664   0.297
 6046TIP3   OH218101   3.610   1.147   1.618
 6046TIP3    H118102   3.639   1.235   1.594
 6046TIP3    H218103   3.525   1.137   1.574
 6047TIP3   OH218104   0.109   4.878   2.363
 6047TIP3    H118105   0.156   4.838   2.289
 6047TIP3    H218106   0.178   4.922   2.414
 6048TIP3   OH218107   5.173   2.199   5.454
 6048TIP3    H118108   5.141   2.216   5.365
 6048TIP3    H218109   5.201   2.107   5.452
 6049TIP3   OH218110   2.585   6.073   1.764
 6049TIP3    H118111   2.586   6.099   1.672
 6049TIP3    H218112   2.608   6.153   1.812
 6050TIP3   OH218113   6.594   5.222   1.237
 6050TIP3    H118114   6.554   5.308   1.249
 6050TIP3    H218115   6.616   5.193   1.326
 6051TIP3   OH218116   1.460   6.567   2.118
 6051TIP3    H118117   1.452   6.620   2.039
 6051TIP3    H218118   1.473   6.630   2.189
 6052TIP3   OH218119   5.109   4.266   1.705
 6052TIP3    H118120   5.045   4.294   1.640
 6052TIP3    H218121   5.149   4.188   1.668
 6053TIP3   OH218122   5.311   0.117   3.108
 6053TIP3    H118123   5.334   0.210   3.114
 6053TIP3    H218124   5.342   0.091   3.021
 6054TIP3   OH218125   1.655   5.850   2.581
 6054TIP3    H118126   1.620   5.807   2.503
 6054TIP3    H218127   1.655   5.943   2.559
 6055TIP3   OH218128   2.182   4.774   4.673
 6055TIP3    H118129   2.174   4.679   4.680
 6055TIP3    H218130   2.117   4.798   4.607
 6056TIP3   OH218131   0.802   1.982   0.990
 6056TIP3    H118132   0.708   2.002   0.984
 6056TIP3    H218133   0.824   1.946   0.904
 6057TIP3   OH218134   3.542   1.524   3.415
 6057TIP3    H118135   3.552   1.619   3.422
 6057TIP3    H218136   3.629   1.489   3.433
 6058TIP3   OH218137   3.339   5.396   2.001
 6058TIP3    H118138   3.284   5.470   2.027
 6058TIP3    H218139   3.281   5.320   2.008
 6059TIP3   OH218140   3.709   0.502   3.435
 6059TIP3    H118141   3.731   0.556   3.510
 6059TIP3    H218142   3.688   0.416   3.472
 6060TIP3   OH218143   2.681   3.180   4.142
 6060TIP3    H118144   2.613   3.244   4.121
 6060TIP3    H218145   2.750   3.197   4.079
 6061TIP3   OH218146   3.905   1.311   0.594
 6061TIP3    H118147   3.917   1.266   0.678
 6061TIP3    H218148   3.978   1.279   0.540
 6062TIP3   OH218149   0.794   0.588   2.084
 6062TIP3    H118150   0.728   0.638   2.036
 6062TIP3    H218151   0.780   0.497   2.057
 6063TIP3   OH218152   5.399   0.609   3.279
 6063TIP3    H118153   5.362   0.682   3.329
 6063TIP3    H218154   5.493   0.614   3.294
 6064TIP3   OH218155   0.998   2.221   2.597
 6064TIP3    H118156   0.934   2.260   2.537
 6064TIP3    H218157   0.961   2.136   2.621
 6065TIP3   OH218158   4.461   1.648   2.449
 6065TIP3    H118159   4.521   1.647   2.524
 6065TIP3    H218160   4.374   1.636   2.487
 6066TIP3   OH218161   6.159   5.171   5.201
 6066TIP3    H118162   6.144   5.154   5.108
 6066TIP3    H218163   6.113   5.253   5.219
 6067TIP3   OH218164   1.489   3.573   1.971
 6067TIP3    H118165   1.548   3.497   1.969
 6067TIP3    H218166   1.410   3.543   1.925
 6068TIP3   OH218167   1.752   5.197   0.882
 6068TIP3    H118168   1.702   5.208   0.801
 6068TIP3    H218169   1.834   5.155   0.854
 6069TIP3   OH218170   6.249   6.446   5.447
 6069TIP3    H118171   6.164   6.490   5.452
 6069TIP3    H218172   6.274   6.454   5.355
 6070TIP3   OH218173   1.055   4.036   5.486
 6070TIP3    H118174   1.119   4.018   5.554
 6070TIP3    H218175   1.105   4.082   5.418
 6071TIP3   OH218176   6.788   6.341   3.084
 6071TIP3    H118177   6.721   6.309   3.144
 6071TIP3    H218178   6.741   6.400   3.025
 6072TIP3   OH218179  -0.007   0.011   5.586
 6072TIP3    H118180   0.067  -0.008   5.644
 6072TIP3    H218181  -0.018   0.106   5.592
 6073TIP3   OH218182   4.808   2.936   1.155
 6073TIP3    H118183   4.871   2.884   1.106
 6073TIP3    H218184   4.736   2.951   1.094
 6074TIP3   OH218185   3.233   3.195   1.441
 6074TIP3    H118186   3.255   3.263   1.377
 6074TIP3    H218187   3.158   3.150   1.403
 6075TIP3   OH218188   0.839   6.117   1.996
 6075TIP3    H118189   0.811   6.189   2.052
 6075TIP3    H218190   0.878   6.053   2.056
 6076TIP3   OH218191   5.013   6.786   1.755
 6076TIP3    H118192   4.982   6.743   1.834
 6076TIP3    H218193   4.951   6.760   1.687
 6077TIP3   OH218194   1.824   5.932   3.272
 6077TIP3    H118195   1.918   5.945   3.283
 6077TIP3    H218196   1.811   5.922   3.177
 6078TIP3   OH218197   1.180   5.801   0.097
 6078TIP3    H118198   1.258   5.850   0.123
 6078TIP3    H218199   1.107   5.861   0.111
 6079TIP3   OH218200   1.726   5.689   0.123
 6079TIP3    H118201   1.694   5.710   0.035
 6079TIP3    H218202   1.649   5.654   0.168
 6080TIP3   OH218203   4.176   1.758   1.509
 6080TIP3    H118204   4.144   1.844   1.536
 6080TIP3    H218205   4.259   1.775   1.465
 6081TIP3   OH218206   4.987   5.190   5.396
 6081TIP3    H118207   4.947   5.209   5.311
 6081TIP3    H218208   5.035   5.108   5.382
 6082TIP3   OH218209   4.553   4.137   1.070
 6082TIP3    H118210   4.560   4.191   1.148
 6082TIP3    H218211   4.502   4.190   1.009
 6083TIP3   OH218212   5.438   1.025   1.419
 6083TIP3    H118213   5.391   0.956   1.373
 6083TIP3    H218214   5.414   1.014   1.511
 6084TIP3   OH218215   1.789   5.448   4.901
 6084TIP3    H118216   1.756   5.437   4.990
 6084TIP3    H218217   1.724   5.402   4.846
 6085TIP3   OH218218   6.452   1.639   2.077
 6085TIP3    H118219   6.398   1.606   2.149
 6085TIP3    H218220   6.394   1.699   2.030
 6086TIP3   OH218221   5.187   4.683   2.191
 6086TIP3    H118222   5.194   4.660   2.099
 6086TIP3    H218223   5.253   4.630   2.235
 6087TIP3   OH218224   6.138   6.759   1.598
 6087TIP3    H118225   6.197   6.790   1.667
 6087TIP3    H218226   6.170   6.672   1.576
 6088TIP3   OH218227   6.328   3.687   1.572
 6088TIP3    H118228   6.253   3.747   1.570
 6088TIP3    H218229   6.290   3.600   1.567
 6089TIP3   OH218230   1.909   1.408   2.436
 6089TIP3    H118231   1.936   1.442   2.351
 6089TIP3    H218232   1.852   1.334   2.415
 6090TIP3   OH218233   6.214   5.102   3.511
 6090TIP3    H118234   6.255   5.048   3.443
 6090TIP3    H218235   6.264   5.083   3.590
 6091TIP3   OH218236   4.632   1.422   3.795
 6091TIP3    H118237   4.719   1.427   3.837
 6091TIP3    H218238   4.650   1.434   3.702
 6092TIP3   OH218239   0.052   1.402   1.518
 6092TIP3    H118240   0.040   1.311   1.492
 6092TIP3    H218241   0.083   1.398   1.608
 6093TIP3   OH218242   6.042   1.422   4.256
 6093TIP3    H118243   6.026   1.340   4.209
 6093TIP3    H218244   6.137   1.434   4.252
 6094TIP3   OH218245   0.931   5.845   5.655
 6094TIP3    H118246   0.992   5.910   5.690
 6094TIP3    H218247   0.937   5.771   5.716
 6095TIP3   OH218248   0.347   5.912   5.101
 6095TIP3    H118249   0.397   5.947   5.175
 6095TIP3    H218250   0.414   5.873   5.044
 6096TIP3   OH218251   1.455   2.740   0.469
 6096TIP3    H118252   1.409   2.820   0.443
 6096TIP3    H218253   1.423   2.720   0.556
 6097TIP3   OH218254   0.608   3.345   3.300
 6097TIP3    H118255   0.700   3.317   3.298
 6097TIP3    H218256   0.589   3.356   3.393
 6098TIP3   OH218257   1.105   1.016   3.889
 6098TIP3    H118258   1.083   1.105   3.860
 6098TIP3    H218259   1.021   0.969   3.887
 6099TIP3   OH218260   0.513   5.982   5.297
 6099TIP3    H118261   0.435   5.983   5.353
 6099TIP3    H218262   0.585   5.965   5.357
 6100TIP3   OH218263   1.290   2.178   3.479
 6100TIP3    H118264   1.334   2.094   3.466
 6100TIP3    H218265   1.199   2.154   3.499
 6101TIP3   OH218266   1.381   0.697   4.847
 6101TIP3    H118267   1.358   0.616   4.802
 6101TIP3    H218268   1.431   0.669   4.924
 6102TIP3   OH218269   6.395   4.921   4.665
 6102TIP3    H118270   6.324   4.955   4.719
 6102TIP3    H218271   6.475   4.951   4.708
 6103TIP3   OH218272   6.715   6.008   3.574
 6103TIP3    H118273   6.645   6.072   3.586
 6103TIP3    H218274   6.792   6.060   3.550
 6104TIP3   OH218275   2.135   0.359   1.132
 6104TIP3    H118276   2.143   0.403   1.047
 6104TIP3    H218277   2.166   0.270   1.116
 6105TIP3   OH218278   4.537   3.716   4.436
 6105TIP3    H118279   4.586   3.715   4.354
 6105TIP3    H218280   4.601   3.739   4.503
 6106TIP3   OH218281   4.788   1.476   2.961
 6106TIP3    H118282   4.810   1.567   2.980
 6106TIP3    H218283   4.861   1.444   2.908
 6107TIP3   OH218284   3.599   3.295   5.325
 6107TIP3    H118285   3.586   3.287   5.420
 6107TIP3    H218286   3.653   3.219   5.302
 6108TIP3   OH218287   0.096   4.643   0.906
 6108TIP3    H118288   0.079   4.619   0.814
 6108TIP3    H218289   0.086   4.560   0.953
 6109TIP3   OH218290   3.129   5.259   2.111
 6109TIP3    H118291   3.193   5.228   2.175
 6109TIP3    H218292   3.044   5.239   2.149
 6110TIP3   OH218293   1.310   5.297   1.628
 6110TIP3    H118294   1.322   5.214   1.672
 6110TIP3    H218295   1.215   5.311   1.627
 6111TIP3   OH218296   1.336   3.538   2.778
 6111TIP3    H118297   1.293   3.620   2.802
 6111TIP3    H218298   1.385   3.514   2.857
 6112TIP3   OH218299   5.700   0.512   5.828
 6112TIP3    H118300   5.754   0.459   5.769
 6112TIP3    H218301   5.641   0.449   5.869
 6113TIP3   OH218302   3.929   0.301   4.557
 6113TIP3    H118303   3.893   0.222   4.517
 6113TIP3    H218304   4.011   0.273   4.596
 6114TIP3   OH218305   2.284   4.793   2.381
 6114TIP3    H118306   2.201   4.805   2.428
 6114TIP3    H218307   2.349   4.782   2.450
 6115TIP3   OH218308   0.918   6.308   0.630
 6115TIP3    H118309   0.834   6.342   0.659
 6115TIP3    H218310   0.982   6.372   0.661
 6116TIP3   OH218311   6.454   1.925   4.795
 6116TIP3    H118312   6.431   1.850   4.849
 6116TIP3    H218313   6.550   1.925   4.795
 6117TIP3   OH218314   6.923   2.528   2.973
 6117TIP3    H118315   6.939   2.597   2.909
 6117TIP3    H218316   6.882   2.572   3.047
 6118TIP3   OH218317   3.534   1.664   5.674
 6118TIP3    H118318   3.528   1.725   5.748
 6118TIP3    H218319   3.443   1.647   5.649
 6119TIP3   OH218320   1.324   6.198   2.612
 6119TIP3    H118321   1.313   6.107   2.638
 6119TIP3    H218322   1.372   6.238   2.684
 6120TIP3   OH218323   0.389   4.947   3.505
 6120TIP3    H118324   0.311   4.901   3.535
 6120TIP3    H218325   0.395   5.023   3.563
 6121TIP3   OH218326   6.961   3.785   1.699
 6121TIP3    H118327   6.950   3.821   1.611
 6121TIP3    H218328   6.886   3.727   1.712
 6122TIP3   OH218329   5.004   1.147   1.291
 6122TIP3    H118330   5.078   1.144   1.230
 6122TIP3    H218331   5.029   1.212   1.356
 6123TIP3   OH218332   4.194   0.800   2.145
 6123TIP3    H118333   4.125   0.736   2.125
 6123TIP3    H218334   4.240   0.764   2.220
 6124TIP3   OH218335   2.419   0.380   0.913
 6124TIP3    H118336   2.432   0.453   0.852
 6124TIP3    H218337   2.326   0.358   0.904
 6125TIP3   OH218338   2.285   2.464   1.742
 6125TIP3    H118339   2.258   2.388   1.793
 6125TIP3    H218340   2.206   2.517   1.733
 6126TIP3   OH218341   0.733   2.398   1.398
 6126TIP3    H118342   0.705   2.380   1.309
 6126TIP3    H218343   0.657   2.376   1.452
 6127TIP3   OH218344   2.156   0.389   3.279
 6127TIP3    H118345   2.076   0.441   3.289
 6127TIP3    H218346   2.134   0.304   3.316
 6128TIP3   OH218347   2.877   2.692   2.416
 6128TIP3    H118348   2.919   2.608   2.400
 6128TIP3    H218349   2.841   2.685   2.504
 6129TIP3   OH218350   4.479   6.015   2.236
 6129TIP3    H118351   4.571   6.023   2.210
 6129TIP3    H218352   4.447   6.105   2.237
 6130TIP3   OH218353   4.133   1.789   4.732
 6130TIP3    H118354   4.209   1.819   4.682
 6130TIP3    H218355   4.170   1.740   4.806
 6131TIP3   OH218356   1.057   6.269   3.486
 6131TIP3    H118357   0.982   6.242   3.539
 6131TIP3    H218358   1.073   6.195   3.427
 6132TIP3   OH218359   5.519   6.191   5.127
 6132TIP3    H118360   5.525   6.286   5.118
 6132TIP3    H218361   5.447   6.166   5.069
 6133TIP3   OH218362   4.636   1.684   0.492
 6133TIP3    H118363   4.613   1.684   0.585
 6133TIP3    H218364   4.680   1.601   0.478
 6134TIP3   OH218365   3.692   2.404   2.287
 6134TIP3    H118366   3.652   2.361   2.362
 6134TIP3    H218367   3.631   2.386   2.215
 6135TIP3   OH218368   1.718   5.247   4.576
 6135TIP3    H118369   1.648   5.292   4.623
 6135TIP3    H218370   1.673   5.179   4.526
 6136TIP3   OH218371   5.043   6.150   5.267
 6136TIP3    H118372   5.030   6.179   5.177
 6136TIP3    H218373   5.120   6.199   5.297
 6137TIP3   OH218374   7.101   4.751   2.796
 6137TIP3    H118375   7.177   4.799   2.829
 6137TIP3    H218376   7.124   4.731   2.705
 6138TIP3   OH218377   2.174   0.426   0.849
 6138TIP3    H118378   2.125   0.348   0.824
 6138TIP3    H218379   2.176   0.480   0.770
 6139TIP3   OH218380   2.596   1.976   0.997
 6139TIP3    H118381   2.507   1.942   1.009
 6139TIP3    H218382   2.611   2.031   1.074
 6140TIP3   OH218383   1.006   2.520   4.292
 6140TIP3    H118384   0.977   2.598   4.244
 6140TIP3    H218385   0.930   2.494   4.344
 6141TIP3   OH218386   5.544   4.064   2.668
 6141TIP3    H118387   5.541   4.132   2.735
 6141TIP3    H218388   5.473   4.005   2.691
 6142TIP3   OH218389   2.802   1.870   3.935
 6142TIP3    H118390   2.878   1.818   3.910
 6142TIP3    H218391   2.729   1.809   3.932
 6143TIP3   OH218392   2.350   0.779   5.068
 6143TIP3    H118393   2.266   0.748   5.102
 6143TIP3    H218394   2.387   0.830   5.140
 6144TIP3   OH218395   1.440   6.757   0.857
 6144TIP3    H118396   1.409   6.697   0.790
 6144TIP3    H218397   1.460   6.702   0.933
 6145TIP3   OH218398   4.734   3.448   3.892
 6145TIP3    H118399   4.666   3.382   3.903
 6145TIP3    H218400   4.724   3.479   3.802
 6146TIP3   OH218401   5.264   6.754   3.637
 6146TIP3    H118402   5.251   6.678   3.581
 6146TIP3    H218403   5.209   6.822   3.598
 6147TIP3   OH218404   4.670   1.888   5.710
 6147TIP3    H118405   4.585   1.847   5.699
 6147TIP3    H218406   4.732   1.825   5.673
 6148TIP3   OH218407   5.982   4.973   3.433
 6148TIP3    H118408   6.049   5.033   3.465
 6148TIP3    H218409   5.899   5.019   3.446
 6149TIP3   OH218410   0.284   6.510   0.963
 6149TIP3    H118411   0.200   6.469   0.941
 6149TIP3    H218412   0.327   6.524   0.879
 6150TIP3   OH218413   2.388   3.029   5.476
 6150TIP3    H118414   2.308   3.035   5.423
 6150TIP3    H218415   2.455   3.072   5.423
 6151TIP3   OH218416   5.440   5.306   3.912
 6151TIP3    H118417   5.505   5.248   3.951
 6151TIP3    H218418   5.401   5.254   3.841
 6152TIP3   OH218419   1.063   0.134   3.259
 6152TIP3    H118420   1.136   0.080   3.287
 6152TIP3    H218421   0.991   0.112   3.319
 6153TIP3   OH218422   3.093   1.130   5.212
 6153TIP3    H118423   3.072   1.211   5.259
 6153TIP3    H218424   3.018   1.118   5.153
 6154TIP3   OH218425   7.202   3.562   4.306
 6154TIP3    H118426   7.122   3.532   4.264
 6154TIP3    H218427   7.248   3.611   4.238
 6155TIP3   OH218428   4.399   4.236   4.238
 6155TIP3    H118429   4.466   4.294   4.276
 6155TIP3    H218430   4.353   4.200   4.313
 6156TIP3   OH218431   6.983   0.951   5.077
 6156TIP3    H118432   7.028   0.999   5.007
 6156TIP3    H218433   6.955   1.018   5.139
 6157TIP3   OH218434   4.957   5.371   0.171
 6157TIP3    H118435   4.871   5.366   0.128
 6157TIP3    H218436   4.956   5.456   0.214
 6158TIP3   OH218437   6.253   4.403   4.006
 6158TIP3    H118438   6.162   4.422   4.027
 6158TIP3    H218439   6.271   4.320   4.051
 6159TIP3   OH218440   4.921   3.587   3.268
 6159TIP3    H118441   4.973   3.583   3.188
 6159TIP3    H218442   4.960   3.659   3.318
 6160TIP3   OH218443   0.945   4.740   4.529
 6160TIP3    H118444   0.938   4.819   4.476
 6160TIP3    H218445   0.894   4.675   4.480
 6161TIP3   OH218446   2.745   6.791   2.255
 6161TIP3    H118447   2.716   6.732   2.324
 6161TIP3    H218448   2.824   6.750   2.220
 6162TIP3   OH218449   1.103   6.353   5.423
 6162TIP3    H118450   1.123   6.368   5.515
 6162TIP3    H218451   1.061   6.268   5.421
 6163TIP3   OH218452   1.534   6.295   5.844
 6163TIP3    H118453   1.506   6.203   5.842
 6163TIP3    H218454   1.545   6.318   5.752
 6164TIP3   OH218455   0.450   0.277   0.068
 6164TIP3    H118456   0.482   0.238   0.148
 6164TIP3    H218457   0.358   0.250   0.063
 6165TIP3   OH218458   6.541   0.772   3.180
 6165TIP3    H118459   6.588   0.769   3.097
 6165TIP3    H218460   6.608   0.756   3.247
 6166TIP3   OH218461   1.267   5.105   5.473
 6166TIP3    H118462   1.184   5.117   5.428
 6166TIP3    H218463   1.253   5.030   5.531
 6167TIP3   OH218464   2.896   6.233   5.360
 6167TIP3    H118465   2.882   6.197   5.448
 6167TIP3    H218466   2.902   6.327   5.374
 6168TIP3   OH218467   3.768   4.682   1.117
 6168TIP3    H118468   3.746   4.673   1.024
 6168TIP3    H218469   3.850   4.730   1.119
 6169TIP3   OH218470   4.359   6.778   3.945
 6169TIP3    H118471   4.418   6.734   4.006
 6169TIP3    H218472   4.304   6.708   3.910
 6170TIP3   OH218473   6.141   6.156   1.573
 6170TIP3    H118474   6.089   6.080   1.599
 6170TIP3    H218475   6.214   6.157   1.635
 6171TIP3   OH218476   5.749   1.665   0.051
 6171TIP3    H118477   5.825   1.623   0.093
 6171TIP3    H218478   5.719   1.601  -0.014
 6172TIP3   OH218479   2.766   5.082   0.854
 6172TIP3    H118480   2.731   4.994   0.871
 6172TIP3    H218481   2.720   5.138   0.917
 6173TIP3   OH218482   5.968   6.710   2.535
 6173TIP3    H118483   5.968   6.675   2.624
 6173TIP3    H218484   5.877   6.736   2.520
 6174TIP3   OH218485   5.137   0.786   1.818
 6174TIP3    H118486   5.213   0.794   1.875
 6174TIP3    H218487   5.145   0.699   1.779
 6175TIP3   OH218488   4.104   1.590   2.016
 6175TIP3    H118489   4.075   1.606   2.106
 6175TIP3    H218490   4.143   1.673   1.989
 6176TIP3   OH218491   3.330   4.530   4.167
 6176TIP3    H118492   3.377   4.460   4.122
 6176TIP3    H218493   3.391   4.557   4.237
 6177TIP3   OH218494   3.428   4.709   1.521
 6177TIP3    H118495   3.451   4.764   1.596
 6177TIP3    H218496   3.389   4.768   1.458
 6178TIP3   OH218497   6.111   2.821   2.882
 6178TIP3    H118498   6.203   2.836   2.905
 6178TIP3    H218499   6.069   2.905   2.896
 6179TIP3   OH218500   5.591   3.002   0.999
 6179TIP3    H118501   5.660   2.976   0.938
 6179TIP3    H218502   5.564   2.921   1.042
 6180TIP3   OH218503   3.243   3.601   0.172
 6180TIP3    H118504   3.283   3.519   0.145
 6180TIP3    H218505   3.243   3.655   0.093
 6181TIP3   OH218506   0.351   0.249   2.334
 6181TIP3    H118507   0.403   0.317   2.292
 6181TIP3    H218508   0.267   0.250   2.288
 6182TIP3   OH218509   3.974   5.113   5.144
 6182TIP3    H118510   3.911   5.056   5.187
 6182TIP3    H218511   3.938   5.201   5.153
 6183TIP3   OH218512   3.963   3.998   5.054
 6183TIP3    H118513   3.888   3.991   5.113
 6183TIP3    H218514   3.926   4.031   4.972
 6184TIP3   OH218515   1.635   5.767   3.392
 6184TIP3    H118516   1.674   5.819   3.322
 6184TIP3    H218517   1.708   5.748   3.451
 6185TIP3   OH218518   6.208   5.169   0.079
 6185TIP3    H118519   6.147   5.098   0.100
 6185TIP3    H218520   6.249   5.141  -0.003
 6186TIP3   OH218521   1.000   1.112   3.467
 6186TIP3    H118522   1.057   1.043   3.432
 6186TIP3    H218523   0.914   1.071   3.470
 6187TIP3   OH218524   2.317   1.935   2.567
 6187TIP3    H118525   2.360   1.872   2.624
 6187TIP3    H218526   2.223   1.917   2.577
 6188TIP3   OH218527   3.053   5.711   1.711
 6188TIP3    H118528   3.023   5.634   1.662
 6188TIP3    H218529   3.126   5.745   1.659
 6189TIP3   OH218530   5.314   4.276   4.506
 6189TIP3    H118531   5.302   4.338   4.435
 6189TIP3    H218532   5.250   4.303   4.573
 6190TIP3   OH218533   1.212   4.010   0.999
 6190TIP3    H118534   1.264   4.079   0.957
 6190TIP3    H218535   1.176   3.960   0.925
 6191TIP3   OH218536   2.233   1.423   4.692
 6191TIP3    H118537   2.170   1.351   4.695
 6191TIP3    H218538   2.318   1.380   4.681
 6192TIP3   OH218539   1.876   2.863   1.643
 6192TIP3    H118540   1.920   2.945   1.621
 6192TIP3    H218541   1.792   2.867   1.597
 6193TIP3   OH218542   2.230   4.927   0.904
 6193TIP3    H118543   2.298   4.948   0.840
 6193TIP3    H218544   2.159   4.890   0.852
 6194TIP3   OH218545   6.175   3.050   4.303
 6194TIP3    H118546   6.219   3.132   4.322
 6194TIP3    H218547   6.230   3.007   4.237
 6195TIP3   OH218548   3.752   1.126   0.317
 6195TIP3    H118549   3.706   1.188   0.373
 6195TIP3    H218550   3.743   1.041   0.361
 6196TIP3   OH218551   5.280   1.262   2.955
 6196TIP3    H118552   5.301   1.354   2.969
 6196TIP3    H218553   5.361   1.223   2.924
 6197TIP3   OH218554   1.303   2.262   2.930
 6197TIP3    H118555   1.269   2.176   2.904
 6197TIP3    H218556   1.283   2.268   3.024
 6198TIP3   OH218557   5.370   1.977   0.441
 6198TIP3    H118558   5.336   1.935   0.362
 6198TIP3    H218559   5.465   1.964   0.435
 6199TIP3   OH218560   0.229   6.197   0.193
 6199TIP3    H118561   0.248   6.106   0.168
 6199TIP3    H218562   0.261   6.249   0.120
 6200TIP3   OH218563   4.103   3.217   3.275
 6200TIP3    H118564   4.069   3.180   3.357
 6200TIP3    H218565   4.034   3.201   3.211
 6201TIP3   OH218566   3.706   1.111   5.293
 6201TIP3    H118567   3.645   1.038   5.294
 6201TIP3    H218568   3.791   1.071   5.272
 6202TIP3   OH218569   2.810   3.980   1.838
 6202TIP3    H118570   2.797   3.958   1.746
 6202TIP3    H218571   2.757   4.059   1.852
 6203TIP3   OH218572   5.553   1.974   0.198
 6203TIP3    H118573   5.484   1.915   0.168
 6203TIP3    H218574   5.510   2.060   0.204
 6204TIP3   OH218575   7.102   4.189   0.714
 6204TIP3    H118576   7.029   4.199   0.653
 6204TIP3    H218577   7.090   4.259   0.778
 6205TIP3   OH218578   5.860   1.796   0.850
 6205TIP3    H118579   5.773   1.757   0.836
 6205TIP3    H218580   5.905   1.783   0.767
 6206TIP3   OH218581   0.891   1.214   0.668
 6206TIP3    H118582   0.837   1.222   0.747
 6206TIP3    H218583   0.977   1.189   0.700
 6207TIP3   OH218584   5.875   2.680   3.374
 6207TIP3    H118585   5.788   2.685   3.335
 6207TIP3    H218586   5.860   2.684   3.468
 6208TIP3   OH218587   7.121   1.477   0.831
 6208TIP3    H118588   7.117   1.383   0.818
 6208TIP3    H218589   7.102   1.489   0.924
 6209TIP3   OH218590   5.606   4.352   3.324
 6209TIP3    H118591   5.691   4.379   3.359
 6209TIP3    H218592   5.597   4.401   3.242
 6210TIP3   OH218593   5.166   3.176   2.635
 6210TIP3    H118594   5.243   3.208   2.587
 6210TIP3    H218595   5.094   3.184   2.573
 6211TIP3   OH218596   6.990   5.379   4.612
 6211TIP3    H118597   6.901   5.412   4.601
 6211TIP3    H218598   6.981   5.284   4.605
 6212TIP3   OH218599   5.332   4.493   5.335
 6212TIP3    H118600   5.289   4.455   5.411
 6212TIP3    H218601   5.265   4.550   5.296
 6213TIP3   OH218602   2.378   0.481   4.963
 6213TIP3    H118603   2.374   0.545   4.892
 6213TIP3    H218604   2.291   0.483   5.002
 6214TIP3   OH218605   1.667   1.010   5.686
 6214TIP3    H118606   1.579   1.014   5.724
 6214TIP3    H218607   1.689   1.101   5.666
 6215TIP3   OH218608   6.046   3.657   5.267
 6215TIP3    H118609   5.979   3.724   5.255
 6215TIP3    H218610   6.106   3.693   5.333
 6216TIP3   OH218611   1.354   4.404   4.737
 6216TIP3    H118612   1.322   4.319   4.766
 6216TIP3    H218613   1.449   4.398   4.744
 6217TIP3   OH218614   1.950   5.724   5.064
 6217TIP3    H118615   1.858   5.727   5.040
 6217TIP3    H218616   1.994   5.688   4.986
 6218TIP3   OH218617   2.754   1.236   2.839
 6218TIP3    H118618   2.816   1.245   2.766
 6218TIP3    H218619   2.686   1.301   2.820
 6219TIP3   OH218620   4.306   1.890   4.506
 6219TIP3    H118621   4.341   1.833   4.438
 6219TIP3    H218622   4.383   1.917   4.556
 6220TIP3   OH218623   7.059   3.610   1.363
 6220TIP3    H118624   7.068   3.571   1.450
 6220TIP3    H218625   6.973   3.653   1.364
 6221TIP3   OH218626   1.419   5.940   0.188
 6221TIP3    H118627   1.514   5.948   0.194
 6221TIP3    H218628   1.393   6.014   0.133
 6222TIP3   OH218629   1.126   6.618   2.629
 6222TIP3    H118630   1.168   6.599   2.712
 6222TIP3    H218631   1.195   6.607   2.564
 6223TIP3   OH218632   0.700   0.506   0.395
 6223TIP3    H118633   0.607   0.484   0.400
 6223TIP3    H218634   0.706   0.592   0.438
 6224TIP3   OH218635   0.887   6.769   1.949
 6224TIP3    H118636   0.916   6.797   1.862
 6224TIP3    H218637   0.792   6.772   1.945
 6225TIP3   OH218638   6.413   6.004   5.881
 6225TIP3    H118639   6.472   5.933   5.905
 6225TIP3    H218640   6.456   6.048   5.809
 6226TIP3   OH218641   0.444   2.396   1.462
 6226TIP3    H118642   0.419   2.460   1.395
 6226TIP3    H218643   0.370   2.336   1.467
 6227TIP3   OH218644   4.677   4.628   0.089
 6227TIP3    H118645   4.650   4.610   0.180
 6227TIP3    H218646   4.772   4.628   0.092
 6228TIP3   OH218647   2.925   0.390   3.238
 6228TIP3    H118648   3.011   0.384   3.277
 6228TIP3    H218649   2.912   0.484   3.222
 6229TIP3   OH218650   0.198   1.066   5.035
 6229TIP3    H118651   0.221   1.153   5.065
 6229TIP3    H218652   0.103   1.068   5.026
 6230TIP3   OH218653   3.535   2.867   4.609
 6230TIP3    H118654   3.561   2.827   4.526
 6230TIP3    H218655   3.534   2.961   4.591
 6231TIP3   OH218656   2.976   0.969   0.958
 6231TIP3    H118657   3.004   0.880   0.979
 6231TIP3    H218658   3.016   0.988   0.874
 6232TIP3   OH218659   4.397   1.505   4.459
 6232TIP3    H118660   4.414   1.599   4.454
 6232TIP3    H218661   4.449   1.476   4.534
 6233TIP3   OH218662   3.385   6.182   0.666
 6233TIP3    H118663   3.476   6.207   0.653
 6233TIP3    H218664   3.345   6.259   0.707
 6234TIP3   OH218665   3.364   0.564   0.276
 6234TIP3    H118666   3.269   0.564   0.261
 6234TIP3    H218667   3.376   0.611   0.358
 6235TIP3   OH218668   6.207   2.230   1.713
 6235TIP3    H118669   6.130   2.206   1.662
 6235TIP3    H218670   6.211   2.325   1.708
 6236TIP3   OH218671   0.517   5.594   0.145
 6236TIP3    H118672   0.565   5.511   0.142
 6236TIP3    H218673   0.447   5.583   0.080
 6237TIP3   OH218674   2.609   6.266   2.215
 6237TIP3    H118675   2.530   6.276   2.268
 6237TIP3    H218676   2.681   6.260   2.278
 6238TIP3   OH218677   2.725   5.889   2.493
 6238TIP3    H118678   2.654   5.935   2.448
 6238TIP3    H218679   2.704   5.797   2.483
 6239TIP3   OH218680   3.986   1.089   5.166
 6239TIP3    H118681   3.993   1.019   5.101
 6239TIP3    H218682   4.008   1.169   5.118
 6240TIP3   OH218683   5.936   3.202   0.730
 6240TIP3    H118684   5.992   3.254   0.788
 6240TIP3    H218685   5.849   3.241   0.739
 6241TIP3   OH218686   1.960   6.230   3.245
 6241TIP3    H118687   1.869   6.254   3.262
 6241TIP3    H218688   1.967   6.231   3.149
 6242TIP3   OH218689   6.075   0.979   2.220
 6242TIP3    H118690   6.028   1.059   2.198
 6242TIP3    H218691   6.125   0.958   2.141
 6243TIP3   OH218692   2.168   3.826   1.269
 6243TIP3    H118693   2.209   3.843   1.185
 6243TIP3    H218694   2.105   3.897   1.280
 6244TIP3   OH218695   6.982   0.012   0.453
 6244TIP3    H118696   6.908   0.006   0.394
 6244TIP3    H218697   6.944   0.035   0.538
 6245TIP3   OH218698   3.719   3.824   4.894
 6245TIP3    H118699   3.708   3.851   4.985
 6245TIP3    H218700   3.634   3.841   4.854
 6246TIP3   OH218701   4.178   4.212   2.009
 6246TIP3    H118702   4.121   4.139   1.985
 6246TIP3    H218703   4.138   4.250   2.087
 6247TIP3   OH218704   6.094   5.495   5.267
 6247TIP3    H118705   6.174   5.490   5.214
 6247TIP3    H218706   6.102   5.578   5.315
 6248TIP3   OH218707   6.625   1.818   0.496
 6248TIP3    H118708   6.538   1.796   0.462
 6248TIP3    H218709   6.611   1.827   0.591
 6249TIP3   OH218710   5.766   1.726   5.612
 6249TIP3    H118711   5.735   1.807   5.573
 6249TIP3    H218712   5.689   1.668   5.613
 6250TIP3   OH218713   6.977   5.680   0.539
 6250TIP3    H118714   6.913   5.748   0.521
 6250TIP3    H218715   7.045   5.693   0.473
 6251TIP3   OH218716   3.785   5.793   5.668
 6251TIP3    H118717   3.854   5.854   5.643
 6251TIP3    H218718   3.716   5.849   5.705
 6252TIP3   OH218719   2.549   2.892   4.894
 6252TIP3    H118720   2.492   2.935   4.830
 6252TIP3    H218721   2.531   2.799   4.885
 6253TIP3   OH218722   4.825   0.405   5.322
 6253TIP3    H118723   4.914   0.385   5.349
 6253TIP3    H218724   4.779   0.423   5.404
 6254TIP3   OH218725   2.874   5.794   3.818
 6254TIP3    H118726   2.833   5.750   3.743
 6254TIP3    H218727   2.822   5.765   3.893
 6255TIP3   OH218728   5.251   4.678   4.523
 6255TIP3    H118729   5.180   4.713   4.578
 6255TIP3    H218730   5.206   4.634   4.451
 6256TIP3   OH218731   2.630   2.155   2.212
 6256TIP3    H118732   2.585   2.239   2.217
 6256TIP3    H218733   2.671   2.144   2.297
 6257TIP3   OH218734   2.982   0.621   1.659
 6257TIP3    H118735   2.955   0.695   1.605
 6257TIP3    H218736   2.954   0.645   1.747
 6258TIP3   OH218737   4.294   0.127   2.845
 6258TIP3    H118738   4.207   0.086   2.844
 6258TIP3    H218739   4.354   0.055   2.825
 6259TIP3   OH218740   2.952   4.175   4.949
 6259TIP3    H118741   2.909   4.246   4.901
 6259TIP3    H218742   3.035   4.162   4.904
 6260TIP3   OH218743   5.316   3.802   0.112
 6260TIP3    H118744   5.344   3.762   0.194
 6260TIP3    H218745   5.387   3.783   0.051
 6261TIP3   OH218746   3.457   5.764   2.262
 6261TIP3    H118747   3.475   5.748   2.355
 6261TIP3    H218748   3.371   5.806   2.261
 6262TIP3   OH218749   2.445   5.918   3.023
 6262TIP3    H118750   2.418   5.834   3.059
 6262TIP3    H218751   2.500   5.895   2.948
 6263TIP3   OH218752   0.832   0.559   4.416
 6263TIP3    H118753   0.865   0.630   4.470
 6263TIP3    H218754   0.891   0.485   4.434
 6264TIP3   OH218755   7.057   5.444   1.892
 6264TIP3    H118756   7.127   5.382   1.913
 6264TIP3    H218757   7.102   5.526   1.871
 6265TIP3   OH218758   5.015   0.422   0.287
 6265TIP3    H118759   4.974   0.486   0.230
 6265TIP3    H218760   5.006   0.459   0.375
 6266TIP3   OH218761   0.067   5.773   2.867
 6266TIP3    H118762   0.066   5.814   2.953
 6266TIP3    H218763   0.004   5.824   2.815
 6267TIP3   OH218764   1.002   6.319   1.329
 6267TIP3    H118765   0.968   6.381   1.393
 6267TIP3    H218766   1.097   6.325   1.339
 6268TIP3   OH218767   6.130   3.120   0.232
 6268TIP3    H118768   6.161   3.192   0.178
 6268TIP3    H218769   6.148   3.041   0.180
 6269TIP3   OH218770   1.743   2.019   1.978
 6269TIP3    H118771   1.802   2.018   2.054
 6269TIP3    H218772   1.664   2.061   2.010
 6270TIP3   OH218773   0.740   0.286   2.474
 6270TIP3    H118774   0.730   0.366   2.423
 6270TIP3    H218775   0.802   0.233   2.423
 6271TIP3   OH218776   5.700   5.430   2.463
 6271TIP3    H118777   5.687   5.495   2.394
 6271TIP3    H218778   5.613   5.419   2.503
 6272TIP3   OH218779   1.043   5.936   1.694
 6272TIP3    H118780   1.019   6.006   1.633
 6272TIP3    H218781   1.132   5.911   1.669
 6273TIP3   OH218782   1.891  -0.001   0.433
 6273TIP3    H118783   1.821  -0.023   0.495
 6273TIP3    H218784   1.859   0.078   0.389
 6274TIP3   OH218785   1.792   0.364   0.774
 6274TIP3    H118786   1.832   0.369   0.861
 6274TIP3    H218787   1.818   0.279   0.740
 6275TIP3   OH218788   3.945   6.318   4.091
 6275TIP3    H118789   3.858   6.289   4.120
 6275TIP3    H218790   3.979   6.243   4.042
 6276TIP3   OH218791   1.675   5.490   0.777
 6276TIP3    H118792   1.693   5.469   0.868
 6276TIP3    H218793   1.759   5.480   0.732
 6277TIP3   OH218794   7.028   0.231   5.198
 6277TIP3    H118795   7.015   0.289   5.123
 6277TIP3    H218796   7.044   0.291   5.271
 6278TIP3   OH218797   5.945   0.975   2.527
 6278TIP3    H118798   5.972   1.012   2.443
 6278TIP3    H218799   6.001   1.018   2.592
 6279TIP3   OH218800   3.923   2.858   1.511
 6279TIP3    H118801   3.935   2.768   1.481
 6279TIP3    H218802   3.909   2.850   1.605
 6280TIP3   OH218803   4.374   0.028   5.045
 6280TIP3    H118804   4.450  -0.010   5.090
 6280TIP3    H218805   4.375   0.120   5.071
 6281TIP3   OH218806   3.426   1.042   5.665
 6281TIP3    H118807   3.496   0.976   5.664
 6281TIP3    H218808   3.446   1.098   5.590
 6282TIP3   OH218809   2.416   1.618   4.880
 6282TIP3    H118810   2.327   1.601   4.848
 6282TIP3    H218811   2.403   1.662   4.964
 6283TIP3   OH218812   0.645   5.958   1.821
 6283TIP3    H118813   0.703   6.009   1.878
 6283TIP3    H218814   0.620   6.020   1.752
 6284TIP3   OH218815   6.241   4.106   5.426
 6284TIP3    H118816   6.218   4.196   5.405
 6284TIP3    H218817   6.331   4.110   5.456
 6285TIP3   OH218818   4.105   5.129   2.426
 6285TIP3    H118819   4.122   5.037   2.448
 6285TIP3    H218820   4.192   5.168   2.420
 6286TIP3   OH218821   1.065   2.598   5.771
 6286TIP3    H118822   1.101   2.510   5.781
 6286TIP3    H218823   1.107   2.649   5.840
 6287TIP3   OH218824   2.896  -0.001   0.602
 6287TIP3    H118825   2.877   0.048   0.522
 6287TIP3    H218826   2.989   0.018   0.619
 6288TIP3   OH218827   6.819   6.259   1.621
 6288TIP3    H118828   6.881   6.327   1.646
 6288TIP3    H218829   6.868   6.177   1.629
 6289TIP3   OH218830   6.345   2.264   3.578
 6289TIP3    H118831   6.326   2.279   3.486
 6289TIP3    H218832   6.339   2.169   3.589
 6290TIP3   OH218833   6.184   0.613   1.023
 6290TIP3    H118834   6.194   0.707   1.034
 6290TIP3    H218835   6.135   0.585   1.101
 6291TIP3   OH218836   0.456   4.694   4.140
 6291TIP3    H118837   0.416   4.705   4.054
 6291TIP3    H218838   0.406   4.623   4.181
 6292TIP3   OH218839   4.415   2.254   1.833
 6292TIP3    H118840   4.491   2.261   1.890
 6292TIP3    H218841   4.412   2.337   1.785
 6293TIP3   OH218842   3.991   5.797   2.784
 6293TIP3    H118843   3.930   5.866   2.757
 6293TIP3    H218844   4.049   5.786   2.709
 6294TIP3   OH218845   2.236   2.707   3.039
 6294TIP3    H118846   2.150   2.677   3.069
 6294TIP3    H218847   2.285   2.725   3.120
 6295TIP3   OH218848   1.634   6.176   0.699
 6295TIP3    H118849   1.680   6.206   0.777
 6295TIP3    H218850   1.694   6.197   0.627
 6296TIP3   OH218851   4.887   6.654   4.996
 6296TIP3    H118852   4.825   6.685   5.062
 6296TIP3    H218853   4.831   6.625   4.923
 6297TIP3   OH218854   2.093   1.651   4.761
 6297TIP3    H118855   2.146   1.578   4.730
 6297TIP3    H218856   2.027   1.663   4.693
 6298TIP3   OH218857   5.894   3.385   2.750
 6298TIP3    H118858   5.861   3.433   2.825
 6298TIP3    H218859   5.885   3.446   2.676
 6299TIP3   OH218860   6.559   1.396   3.078
 6299TIP3    H118861   6.514   1.349   3.148
 6299TIP3    H218862   6.491   1.448   3.035
 6300TIP3   OH218863   2.406   2.961   5.149
 6300TIP3    H118864   2.416   3.056   5.156
 6300TIP3    H218865   2.464   2.937   5.077
 6301TIP3   OH218866   1.435   3.704   1.664
 6301TIP3    H118867   1.528   3.704   1.687
 6301TIP3    H218868   1.392   3.661   1.737
 6302TIP3   OH218869   4.006   0.361   3.976
 6302TIP3    H118870   4.084   0.413   3.957
 6302TIP3    H218871   3.996   0.303   3.901
 6303TIP3   OH218872   6.834   6.204   2.121
 6303TIP3    H118873   6.768   6.136   2.112
 6303TIP3    H218874   6.913   6.158   2.150
 6304TIP3   OH218875   5.373   4.090   5.406
 6304TIP3    H118876   5.293   4.121   5.364
 6304TIP3    H218877   5.383   4.000   5.374
 6305TIP3   OH218878   2.967   4.933   3.733
 6305TIP3    H118879   3.027   4.864   3.764
 6305TIP3    H218880   3.002   5.013   3.772
 6306TIP3   OH218881   5.860   4.414   4.875
 6306TIP3    H118882   5.777   4.442   4.912
 6306TIP3    H218883   5.887   4.340   4.930
 6307TIP3   OH218884   6.866   1.407   2.222
 6307TIP3    H118885   6.918   1.327   2.212
 6307TIP3    H218886   6.847   1.434   2.133
 6308TIP3   OH218887   4.854   5.620   2.293
 6308TIP3    H118888   4.798   5.569   2.234
 6308TIP3    H218889   4.914   5.666   2.234
 6309TIP3   OH218890   2.057   3.292   1.736
 6309TIP3    H118891   2.114   3.361   1.702
 6309TIP3    H218892   1.970   3.331   1.741
 6310TIP3   OH218893   0.821   4.544   4.381
 6310TIP3    H118894   0.902   4.503   4.350
 6310TIP3    H218895   0.797   4.606   4.312
 6311TIP3   OH218896   3.126   5.396   5.254
 6311TIP3    H118897   3.105   5.351   5.336
 6311TIP3    H218898   3.114   5.329   5.187
 6312TIP3   OH218899   1.465   4.522   2.174
 6312TIP3    H118900   1.371   4.512   2.187
 6312TIP3    H218901   1.474   4.569   2.091
 6313TIP3   OH218902   2.380   0.652   0.730
 6313TIP3    H118903   2.437   0.722   0.698
 6313TIP3    H218904   2.327   0.692   0.798
 6314TIP3   OH218905   6.755   5.200   3.586
 6314TIP3    H118906   6.803   5.257   3.647
 6314TIP3    H218907   6.686   5.257   3.550
 6315TIP3   OH218908   2.045   0.226   0.686
 6315TIP3    H118909   2.062   0.134   0.704
 6315TIP3    H218910   2.090   0.242   0.603
 6316TIP3   OH218911   5.087   4.608   3.097
 6316TIP3    H118912   5.027   4.664   3.145
 6316TIP3    H218913   5.041   4.525   3.088
 6317TIP3   OH218914   0.678   1.697   4.719
 6317TIP3    H118915   0.727   1.699   4.637
 6317TIP3    H218916   0.614   1.627   4.707
 6318TIP3   OH218917   4.742   3.771   5.767
 6318TIP3    H118918   4.677   3.713   5.808
 6318TIP3    H218919   4.695   3.853   5.754
 6319TIP3   OH218920   4.864   1.503   0.557
 6319TIP3    H118921   4.939   1.514   0.499
 6319TIP3    H218922   4.820   1.424   0.525
 6320TIP3   OH218923   3.308   3.629   3.606
 6320TIP3    H118924   3.313   3.615   3.511
 6320TIP3    H218925   3.397   3.612   3.637
 6321TIP3   OH218926   2.302   1.895   1.808
 6321TIP3    H118927   2.290   1.812   1.760
 6321TIP3    H218928   2.295   1.871   1.900
 6322TIP3   OH218929   6.542   5.739   0.650
 6322TIP3    H118930   6.467   5.691   0.686
 6322TIP3    H218931   6.516   5.831   0.657
 6323TIP3   OH218932   5.960   6.400   3.912
 6323TIP3    H118933   6.048   6.425   3.881
 6323TIP3    H218934   5.935   6.326   3.857
 6324TIP3   OH218935   6.953   5.217   5.259
 6324TIP3    H118936   6.881   5.166   5.222
 6324TIP3    H218937   6.956   5.296   5.205
 6325TIP3   OH218938   1.546   0.186   1.709
 6325TIP3    H118939   1.623   0.231   1.746
 6325TIP3    H218940   1.506   0.252   1.653
 6326TIP3   OH218941   5.963   5.209   4.447
 6326TIP3    H118942   5.892   5.271   4.434
 6326TIP3    H218943   6.011   5.242   4.523
 6327TIP3   OH218944   2.177   2.290   4.563
 6327TIP3    H118945   2.119   2.273   4.638
 6327TIP3    H218946   2.245   2.348   4.598
 6328TIP3   OH218947   6.375   3.351   1.625
 6328TIP3    H118948   6.290   3.345   1.669
 6328TIP3    H218949   6.376   3.276   1.565
 6329TIP3   OH218950   0.269   0.785   3.996
 6329TIP3    H118951   0.321   0.800   3.916
 6329TIP3    H218952   0.306   0.846   4.059
 6330TIP3   OH218953   5.452   4.524   3.477
 6330TIP3    H118954   5.486   4.442   3.443
 6330TIP3    H218955   5.488   4.591   3.419
 6331TIP3   OH218956   5.612   1.183   2.525
 6331TIP3    H118957   5.604   1.256   2.587
 6331TIP3    H218958   5.612   1.224   2.439
 6332TIP3   OH218959   3.962   2.806   0.884
 6332TIP3    H118960   3.964   2.870   0.813
 6332TIP3    H218961   4.012   2.731   0.851
 6333TIP3   OH218962   3.326   1.739   5.879
 6333TIP3    H118963   3.292   1.723   5.791
 6333TIP3    H218964   3.318   1.654   5.924
 6334TIP3   OH218965   2.700   0.527   5.832
 6334TIP3    H118966   2.633   0.474   5.788
 6334TIP3    H218967   2.755   0.464   5.878
 6335TIP3   OH218968   3.781   5.671   4.469
 6335TIP3    H118969   3.817   5.684   4.557
 6335TIP3    H218970   3.786   5.757   4.428
 6336TIP3   OH218971   2.296   0.686   1.550
 6336TIP3    H118972   2.254   0.634   1.618
 6336TIP3    H218973   2.338   0.621   1.493
 6337TIP3   OH218974   1.460   4.234   3.542
 6337TIP3    H118975   1.509   4.239   3.460
 6337TIP3    H218976   1.499   4.300   3.598
 6338TIP3   OH218977   4.466   4.960   1.528
 6338TIP3    H118978   4.523   4.901   1.480
 6338TIP3    H218979   4.450   4.916   1.611
 6339TIP3   OH218980   0.209   4.707   0.437
 6339TIP3    H118981   0.232   4.724   0.346
 6339TIP3    H218982   0.184   4.793   0.472
 6340TIP3   OH218983   1.757   0.404   2.311
 6340TIP3    H118984   1.789   0.401   2.401
 6340TIP3    H218985   1.803   0.333   2.267
 6341TIP3   OH218986   4.452   6.023   5.397
 6341TIP3    H118987   4.408   6.037   5.313
 6341TIP3    H218988   4.486   5.934   5.391
 6342TIP3   OH218989   5.935   4.722   4.720
 6342TIP3    H118990   5.989   4.645   4.738
 6342TIP3    H218991   5.965   4.753   4.634
 6343TIP3   OH218992   2.418   2.264   1.967
 6343TIP3    H118993   2.500   2.313   1.961
 6343TIP3    H218994   2.407   2.247   2.061
 6344TIP3   OH218995   0.580   0.204   3.176
 6344TIP3    H118996   0.634   0.203   3.255
 6344TIP3    H218997   0.579   0.295   3.148
 6345TIP3   OH218998   5.415   1.520   3.852
 6345TIP3    H118999   5.326   1.553   3.835
 6345TIP3    H219000   5.442   1.564   3.933
 6346TIP3   OH219001   6.171   4.500   2.971
 6346TIP3    H119002   6.107   4.515   3.040
 6346TIP3    H219003   6.220   4.423   2.999
 6347TIP3   OH219004   0.500   0.555   4.076
 6347TIP3    H119005   0.405   0.553   4.086
 6347TIP3    H219006   0.522   0.648   4.068
 6348TIP3   OH219007   0.378   3.474   2.451
 6348TIP3    H119008   0.297   3.522   2.434
 6348TIP3    H219009   0.377   3.402   2.388
 6349TIP3   OH219010   1.402   0.363   4.443
 6349TIP3    H119011   1.324   0.315   4.415
 6349TIP3    H219012   1.475   0.309   4.414
 6350TIP3   OH219013   6.494   3.833   0.497
 6350TIP3    H119014   6.518   3.910   0.548
 6350TIP3    H219015   6.417   3.798   0.542
 6351TIP3   OH219016   2.639   5.185   3.023
 6351TIP3    H119017   2.621   5.178   3.117
 6351TIP3    H219018   2.719   5.135   3.010
 6352TIP3   OH219019   4.703   2.134   0.908
 6352TIP3    H119020   4.752   2.062   0.869
 6352TIP3    H219021   4.644   2.092   0.970
 6353TIP3   OH219022   4.158   2.678   1.803
 6353TIP3    H119023   4.122   2.650   1.887
 6353TIP3    H219024   4.086   2.725   1.760
 6354TIP3   OH219025   3.317   2.854   5.556
 6354TIP3    H119026   3.288   2.901   5.478
 6354TIP3    H219027   3.271   2.897   5.628
 6355TIP3   OH219028   5.662   5.229   3.647
 6355TIP3    H119029   5.667   5.221   3.743
 6355TIP3    H219030   5.739   5.280   3.624
 6356TIP3   OH219031   0.300   5.997   2.490
 6356TIP3    H119032   0.379   6.048   2.509
 6356TIP3    H219033   0.230   6.044   2.537
 6357TIP3   OH219034   2.659   1.026   4.014
 6357TIP3    H119035   2.683   0.934   4.003
 6357TIP3    H219036   2.742   1.072   4.024
 6358TIP3   OH219037   3.250   4.774   3.287
 6358TIP3    H119038   3.308   4.776   3.211
 6358TIP3    H219039   3.164   4.798   3.252
 6359TIP3   OH219040   0.736   0.563   3.371
 6359TIP3    H119041   0.701   0.629   3.311
 6359TIP3    H219042   0.823   0.544   3.338
 6360TIP3   OH219043   6.372   3.185   2.373
 6360TIP3    H119044   6.298   3.186   2.313
 6360TIP3    H219045   6.408   3.273   2.368
 6361TIP3   OH219046   1.643   4.265   1.495
 6361TIP3    H119047   1.652   4.335   1.559
 6361TIP3    H219048   1.664   4.306   1.411
 6362TIP3   OH219049   0.365   0.121   3.933
 6362TIP3    H119050   0.289   0.077   3.895
 6362TIP3    H219051   0.441   0.071   3.901
 6363TIP3   OH219052   6.112   4.027   2.510
 6363TIP3    H119053   6.091   4.115   2.481
 6363TIP3    H219054   6.175   4.039   2.581
 6364TIP3   OH219055   3.407   2.325   1.031
 6364TIP3    H119056   3.411   2.284   1.117
 6364TIP3    H219057   3.486   2.294   0.986
 6365TIP3   OH219058   6.436   6.745   1.164
 6365TIP3    H119059   6.446   6.690   1.242
 6365TIP3    H219060   6.443   6.683   1.091
 6366TIP3   OH219061   5.885   0.630   5.281
 6366TIP3    H119062   5.963   0.576   5.266
 6366TIP3    H219063   5.853   0.651   5.193
 6367TIP3   OH219064   6.969   5.291   3.074
 6367TIP3    H119065   6.929   5.208   3.101
 6367TIP3    H219066   6.975   5.343   3.154
 6368TIP3   OH219067   1.192   0.657   4.017
 6368TIP3    H119068   1.186   0.648   3.922
 6368TIP3    H219069   1.160   0.574   4.051
 6369TIP3   OH219070   0.346   4.783   3.894
 6369TIP3    H119071   0.383   4.871   3.901
 6369TIP3    H219072   0.255   4.794   3.922
 6370TIP3   OH219073   6.000   3.771   1.237
 6370TIP3    H119074   6.054   3.703   1.195
 6370TIP3    H219075   5.966   3.823   1.164
 6371TIP3   OH219076   6.700   3.654   0.488
 6371TIP3    H119077   6.644   3.727   0.513
 6371TIP3    H219078   6.641   3.590   0.448
 6372TIP3   OH219079   6.346   3.597   3.853
 6372TIP3    H119080   6.353   3.644   3.770
 6372TIP3    H219081   6.424   3.543   3.857
 6373TIP3   OH219082   2.378   2.415   0.574
 6373TIP3    H119083   2.455   2.396   0.628
 6373TIP3    H219084   2.304   2.390   0.629
 6374TIP3   OH219085   6.139   2.648   3.505
 6374TIP3    H119086   6.081   2.710   3.460
 6374TIP3    H219087   6.225   2.690   3.504
 6375TIP3   OH219088   6.725   3.211   2.042
 6375TIP3    H119089   6.730   3.290   2.096
 6375TIP3    H219090   6.703   3.243   1.955
 6376TIP3   OH219091   5.774   2.543   4.546
 6376TIP3    H119092   5.719   2.468   4.565
 6376TIP3    H219093   5.838   2.544   4.617
 6377TIP3   OH219094   3.560   1.818   1.939
 6377TIP3    H119095   3.472   1.853   1.952
 6377TIP3    H219096   3.618   1.887   1.972
 6378TIP3   OH219097   2.789   6.519   1.878
 6378TIP3    H119098   2.760   6.428   1.887
 6378TIP3    H219099   2.835   6.521   1.794
 6379TIP3   OH219100   4.782   5.105   1.544
 6379TIP3    H119101   4.717   5.068   1.485
 6379TIP3    H219102   4.763   5.199   1.546
 6380TIP3   OH219103   6.227   6.824   2.583
 6380TIP3    H119104   6.138   6.793   2.565
 6380TIP3    H219105   6.253   6.775   2.661
 6381TIP3   OH219106   6.856   5.756   3.154
 6381TIP3    H119107   6.800   5.759   3.232
 6381TIP3    H219108   6.825   5.680   3.104
 6382TIP3   OH219109   5.836   5.625   3.231
 6382TIP3    H119110   5.772   5.592   3.294
 6382TIP3    H219111   5.829   5.565   3.156
 6383TIP3   OH219112   6.603   0.534   3.857
 6383TIP3    H119113   6.581   0.443   3.881
 6383TIP3    H219114   6.672   0.525   3.791
 6384TIP3   OH219115   1.178   3.216   2.676
 6384TIP3    H119116   1.237   3.172   2.738
 6384TIP3    H219117   1.114   3.260   2.731
 6385TIP3   OH219118   3.331   0.635   4.016
 6385TIP3    H119119   3.346   0.621   3.923
 6385TIP3    H219120   3.295   0.552   4.048
 6386TIP3   OH219121   5.909   5.942   0.359
 6386TIP3    H119122   5.816   5.929   0.342
 6386TIP3    H219123   5.932   6.020   0.308
 6387TIP3   OH219124   0.784   0.039   2.100
 6387TIP3    H119125   0.825  -0.019   2.036
 6387TIP3    H219126   0.719  -0.015   2.144
 6388TIP3   OH219127   4.515   2.086   3.621
 6388TIP3    H119128   4.435   2.094   3.569
 6388TIP3    H219129   4.487   2.042   3.702
 6389TIP3   OH219130   6.544   4.948   3.466
 6389TIP3    H119131   6.548   5.024   3.525
 6389TIP3    H219132   6.626   4.951   3.417
 6390TIP3   OH219133   2.360   5.001   0.680
 6390TIP3    H119134   2.277   5.039   0.651
 6390TIP3    H219135   2.427   5.062   0.649
 6391TIP3   OH219136   2.768   2.893   3.132
 6391TIP3    H119137   2.801   2.823   3.188
 6391TIP3    H219138   2.840   2.912   3.072
 6392TIP3   OH219139   4.416   1.557   4.925
 6392TIP3    H119140   4.356   1.501   4.973
 6392TIP3    H219141   4.429   1.511   4.842
 6393TIP3   OH219142   3.285   5.652   3.858
 6393TIP3    H119143   3.236   5.701   3.792
 6393TIP3    H219144   3.376   5.656   3.828
 6394TIP3   OH219145   2.267   5.820   1.333
 6394TIP3    H119146   2.216   5.741   1.350
 6394TIP3    H219147   2.295   5.849   1.419
 6395TIP3   OH219148   1.528   3.088   4.758
 6395TIP3    H119149   1.452   3.031   4.748
 6395TIP3    H219150   1.572   3.086   4.673
 6396TIP3   OH219151   0.317   5.051   2.987
 6396TIP3    H119152   0.403   5.079   2.955
 6396TIP3    H219153   0.333   5.018   3.075
 6397TIP3   OH219154   1.822   5.420   1.045
 6397TIP3    H119155   1.834   5.372   1.126
 6397TIP3    H219156   1.799   5.354   0.980
 6398TIP3   OH219157   4.695   1.824   5.015
 6398TIP3    H119158   4.637   1.859   5.083
 6398TIP3    H219159   4.707   1.732   5.038
 6399TIP3   OH219160   3.717   0.138   3.568
 6399TIP3    H119161   3.659   0.192   3.621
 6399TIP3    H219162   3.805   0.160   3.598
 6400TIP3   OH219163   1.073   0.136   1.148
 6400TIP3    H119164   1.156   0.089   1.161
 6400TIP3    H219165   1.006   0.076   1.182
 6401TIP3   OH219166   4.617   2.404   4.752
 6401TIP3    H119167   4.692   2.362   4.795
 6401TIP3    H219168   4.657   2.466   4.690
 6402TIP3   OH219169   0.981   5.675   1.166
 6402TIP3    H119170   0.949   5.588   1.141
 6402TIP3    H219171   0.903   5.730   1.167
 6403TIP3   OH219172   6.430   4.115   1.589
 6403TIP3    H119173   6.512   4.125   1.636
 6403TIP3    H219174   6.373   4.068   1.650
 6404TIP3   OH219175   6.853   2.116   2.470
 6404TIP3    H119176   6.818   2.067   2.395
 6404TIP3    H219177   6.788   2.106   2.539
 6405TIP3   OH219178   3.085  -0.008   3.623
 6405TIP3    H119179   2.990  -0.001   3.616
 6405TIP3    H219180   3.105   0.025   3.711
 6406TIP3   OH219181   1.536   0.778   3.803
 6406TIP3    H119182   1.582   0.821   3.875
 6406TIP3    H219183   1.465   0.729   3.845
 6407TIP3   OH219184   4.168   2.457   4.242
 6407TIP3    H119185   4.200   2.503   4.319
 6407TIP3    H219186   4.239   2.398   4.218
 6408TIP3   OH219187   4.724   0.992   0.256
 6408TIP3    H119188   4.632   0.967   0.252
 6408TIP3    H219189   4.727   1.081   0.223
 6409TIP3   OH219190   1.895   1.717   1.021
 6409TIP3    H119191   1.918   1.627   1.042
 6409TIP3    H219192   1.843   1.711   0.941
 6410TIP3   OH219193   3.159   2.780   2.780
 6410TIP3    H119194   3.237   2.763   2.728
 6410TIP3    H219195   3.137   2.872   2.761
 6411TIP3   OH219196   0.937   1.449   3.588
 6411TIP3    H119197   0.939   1.544   3.600
 6411TIP3    H219198   0.983   1.435   3.505
 6412TIP3   OH219199   2.046   0.555   2.741
 6412TIP3    H119200   2.034   0.464   2.767
 6412TIP3    H219201   2.069   0.600   2.822
 6413TIP3   OH219202   3.541   3.967   1.630
 6413TIP3    H119203   3.465   3.921   1.594
 6413TIP3    H219204   3.503   4.041   1.679
 6414TIP3   OH219205   5.752   5.504   3.951
 6414TIP3    H119206   5.742   5.574   4.017
 6414TIP3    H219207   5.786   5.430   4.001
 6415TIP3   OH219208   3.582   2.250   2.494
 6415TIP3    H119209   3.500   2.267   2.541
 6415TIP3    H219210   3.644   2.225   2.563
 6416TIP3   OH219211   2.762   6.104   5.663
 6416TIP3    H119212   2.733   6.183   5.618
 6416TIP3    H219213   2.721   6.109   5.750
 6417TIP3   OH219214   0.780   1.726   4.195
 6417TIP3    H119215   0.848   1.668   4.163
 6417TIP3    H219216   0.699   1.691   4.158
 6418TIP3   OH219217   0.609   0.959   0.298
 6418TIP3    H119218   0.683   0.973   0.238
 6418TIP3    H219219   0.613   1.032   0.359
 6419TIP3   OH219220   5.154   6.266   0.346
 6419TIP3    H119221   5.097   6.342   0.360
 6419TIP3    H219222   5.152   6.252   0.251
 6420TIP3   OH219223   2.003   3.643   0.085
 6420TIP3    H119224   1.979   3.578   0.151
 6420TIP3    H219225   2.027   3.592   0.008
 6421TIP3   OH219226   2.557   0.362   2.133
 6421TIP3    H119227   2.463   0.382   2.141
 6421TIP3    H219228   2.567   0.277   2.174
 6422TIP3   OH219229   3.512   5.683   2.021
 6422TIP3    H119230   3.497   5.710   2.112
 6422TIP3    H219231   3.549   5.760   1.979
 6423TIP3   OH219232   6.000   4.958   1.003
 6423TIP3    H119233   5.948   4.886   0.968
 6423TIP3    H219234   6.074   4.965   0.943
 6424TIP3   OH219235   0.180   1.862   5.170
 6424TIP3    H119236   0.202   1.838   5.080
 6424TIP3    H219237   0.173   1.958   5.168
 6425TIP3   OH219238   4.736   2.125   5.622
 6425TIP3    H119239   4.807   2.101   5.563
 6425TIP3    H219240   4.702   2.041   5.653
 6426TIP3   OH219241   2.501   3.898   5.452
 6426TIP3    H119242   2.409   3.893   5.478
 6426TIP3    H219243   2.547   3.843   5.514
 6427TIP3   OH219244   5.688   1.491   4.218
 6427TIP3    H119245   5.707   1.399   4.234
 6427TIP3    H219246   5.772   1.528   4.189
 6428TIP3   OH219247   2.778   3.561   1.140
 6428TIP3    H119248   2.748   3.612   1.065
 6428TIP3    H219249   2.864   3.598   1.161
 6429TIP3   OH219250   3.035   2.961   2.996
 6429TIP3    H119251   2.986   2.954   2.914
 6429TIP3    H219252   3.084   3.043   2.989
 6430TIP3   OH219253   6.554   1.728   4.056
 6430TIP3    H119254   6.480   1.789   4.057
 6430TIP3    H219255   6.525   1.657   3.999
 6431TIP3   OH219256   4.018   6.620   3.530
 6431TIP3    H119257   3.981   6.697   3.487
 6431TIP3    H219258   3.957   6.549   3.510
 6432TIP3   OH219259   5.198   1.248   5.313
 6432TIP3    H119260   5.115   1.261   5.360
 6432TIP3    H219261   5.213   1.331   5.268
 6433TIP3   OH219262   2.172   1.123   1.119
 6433TIP3    H119263   2.109   1.132   1.190
 6433TIP3    H219264   2.231   1.197   1.130
 6434TIP3   OH219265   6.489   0.153   0.099
 6434TIP3    H119266   6.543   0.183   0.172
 6434TIP3    H219267   6.494   0.057   0.104
 6435TIP3   OH219268   2.932   2.239   0.954
 6435TIP3    H119269   2.862   2.304   0.950
 6435TIP3    H219270   2.939   2.204   0.866
 6436TIP3   OH219271   4.686   0.132   3.724
 6436TIP3    H119272   4.765   0.109   3.676
 6436TIP3    H219273   4.653   0.049   3.757
 6437TIP3   OH219274   7.242   4.515   0.686
 6437TIP3    H119275   7.233   4.484   0.596
 6437TIP3    H219276   7.153   4.511   0.722
 6438TIP3   OH219277   6.823   4.671   0.632
 6438TIP3    H119278   6.875   4.708   0.704
 6438TIP3    H219279   6.733   4.672   0.666
 6439TIP3   OH219280   0.914   0.711   5.388
 6439TIP3    H119281   1.006   0.728   5.408
 6439TIP3    H219282   0.907   0.615   5.387
 6440TIP3   OH219283   3.589   2.088   1.573
 6440TIP3    H119284   3.513   2.058   1.622
 6440TIP3    H219285   3.655   2.021   1.586
 6441TIP3   OH219286   7.026   0.273   5.455
 6441TIP3    H119287   7.006   0.361   5.485
 6441TIP3    H219288   6.950   0.221   5.481
 6442TIP3   OH219289   0.117   2.785   0.709
 6442TIP3    H119290   0.150   2.857   0.762
 6442TIP3    H219291   0.154   2.706   0.750
 6443TIP3   OH219292   1.088   4.482   2.903
 6443TIP3    H119293   1.056   4.570   2.923
 6443TIP3    H219294   1.073   4.472   2.809
 6444TIP3   OH219295   6.439   3.655   2.568
 6444TIP3    H119296   6.530   3.656   2.598
 6444TIP3    H219297   6.388   3.683   2.644
 6445TIP3   OH219298   1.030   3.843   0.467
 6445TIP3    H119299   1.095   3.900   0.508
 6445TIP3    H219300   1.016   3.882   0.381
 6446TIP3   OH219301   6.632   3.151   1.070
 6446TIP3    H119302   6.693   3.174   1.000
 6446TIP3    H219303   6.688   3.122   1.142
 6447TIP3   OH219304   4.085   5.354   5.495
 6447TIP3    H119305   4.076   5.363   5.400
 6447TIP3    H219306   4.057   5.438   5.530
 6448TIP3   OH219307   4.513   0.804   5.712
 6448TIP3    H119308   4.470   0.728   5.672
 6448TIP3    H219309   4.464   0.879   5.677
 6449TIP3   OH219310   4.547   2.597   0.195
 6449TIP3    H119311   4.619   2.581   0.134
 6449TIP3    H219312   4.589   2.619   0.278
 6450TIP3   OH219313   0.747   2.352   2.085
 6450TIP3    H119314   0.784   2.264   2.083
 6450TIP3    H219315   0.818   2.407   2.119
 6451TIP3   OH219316   2.250   5.787   0.976
 6451TIP3    H119317   2.161   5.794   0.942
 6451TIP3    H219318   2.246   5.712   1.037
 6452TIP3   OH219319   2.291   5.889   4.177
 6452TIP3    H119320   2.267   5.833   4.103
 6452TIP3    H219321   2.220   5.876   4.240
 6453TIP3   OH219322   2.945   6.532   1.611
 6453TIP3    H119323   2.955   6.544   1.517
 6453TIP3    H219324   3.000   6.600   1.650
 6454TIP3   OH219325   5.489   3.623   2.459
 6454TIP3    H119326   5.435   3.578   2.395
 6454TIP3    H219327   5.526   3.553   2.513
 6455TIP3   OH219328   6.604   5.825   1.183
 6455TIP3    H119329   6.671   5.894   1.182
 6455TIP3    H219330   6.525   5.869   1.215
 6456TIP3   OH219331   3.619   0.372   1.850
 6456TIP3    H119332   3.591   0.301   1.791
 6456TIP3    H219333   3.538   0.404   1.889
 6457TIP3   OH219334   1.486   5.477   3.700
 6457TIP3    H119335   1.413   5.535   3.721
 6457TIP3    H219336   1.453   5.389   3.715
 6458TIP3   OH219337   1.419   0.418   1.563
 6458TIP3    H119338   1.371   0.500   1.573
 6458TIP3    H219339   1.505   0.436   1.601
 6459TIP3   OH219340   4.668   4.247   1.950
 6459TIP3    H119341   4.608   4.182   1.914
 6459TIP3    H219342   4.721   4.274   1.875
 6460TIP3   OH219343   5.113   2.473   3.902
 6460TIP3    H119344   5.108   2.560   3.943
 6460TIP3    H219345   5.206   2.460   3.885
 6461TIP3   OH219346   3.474   5.033   0.183
 6461TIP3    H119347   3.545   5.082   0.142
 6461TIP3    H219348   3.399   5.046   0.123
 6462TIP3   OH219349   1.393   4.376   0.642
 6462TIP3    H119350   1.368   4.468   0.647
 6462TIP3    H219351   1.336   4.333   0.705
 6463TIP3   OH219352   6.017   2.351   4.503
 6463TIP3    H119353   5.994   2.267   4.463
 6463TIP3    H219354   6.055   2.401   4.431
 6464TIP3   OH219355   2.653   2.109  -0.006
 6464TIP3    H119356   2.632   2.085   0.084
 6464TIP3    H219357   2.569   2.133  -0.045
 6465TIP3   OH219358   0.742   5.992   3.458
 6465TIP3    H119359   0.671   5.998   3.395
 6465TIP3    H219360   0.755   6.082   3.489
 6466TIP3   OH219361   1.024   3.106   0.860
 6466TIP3    H119362   1.008   3.168   0.932
 6466TIP3    H219363   1.118   3.115   0.841
 6467TIP3   OH219364   5.463   3.923   4.486
 6467TIP3    H119365   5.521   3.964   4.550
 6467TIP3    H219366   5.432   3.843   4.530
 6468TIP3   OH219367   5.577   1.177   4.654
 6468TIP3    H119368   5.640   1.213   4.590
 6468TIP3    H219369   5.495   1.220   4.632
 6469TIP3   OH219370   0.013   5.087   2.151
 6469TIP3    H119371  -0.003   5.133   2.234
 6469TIP3    H219372   0.108   5.073   2.151
 6470TIP3   OH219373   4.989   0.955   2.362
 6470TIP3    H119374   5.026   1.042   2.369
 6470TIP3    H219375   4.908   0.958   2.413
 6471TIP3   OH219376   1.713   5.575   0.480
 6471TIP3    H119377   1.741   5.484   0.473
 6471TIP3    H219378   1.649   5.586   0.409
 6472TIP3   OH219379   2.873   0.121   1.585
 6472TIP3    H119380   2.854   0.094   1.495
 6472TIP3    H219381   2.872   0.216   1.583
 6473TIP3   OH219382   3.843   1.945   1.618
 6473TIP3    H119383   3.927   1.991   1.622
 6473TIP3    H219384   3.806   1.953   1.706
 6474TIP3   OH219385   1.967   3.658   1.747
 6474TIP3    H119386   2.032   3.641   1.814
 6474TIP3    H219387   2.013   3.708   1.680
 6475TIP3   OH219388   3.441   5.749   0.627
 6475TIP3    H119389   3.510   5.771   0.690
 6475TIP3    H219390   3.400   5.670   0.663
 6476TIP3   OH219391   1.367   0.527   0.077
 6476TIP3    H119392   1.382   0.442   0.034
 6476TIP3    H219393   1.381   0.509   0.170
 6477TIP3   OH219394   5.490   1.254   1.078
 6477TIP3    H119395   5.482   1.328   1.018
 6477TIP3    H219396   5.584   1.237   1.083
 6478TIP3   OH219397   0.869   3.310   0.033
 6478TIP3    H119398   0.849   3.218   0.055
 6478TIP3    H219399   0.942   3.332   0.091
 6479TIP3   OH219400   0.255   1.816   5.890
 6479TIP3    H119401   0.243   1.857   5.805
 6479TIP3    H219402   0.168   1.816   5.930
 6480TIP3   OH219403   2.043   5.321   5.463
 6480TIP3    H119404   2.082   5.281   5.385
 6480TIP3    H219405   1.962   5.361   5.431
 6481TIP3   OH219406   4.947   6.027   3.519
 6481TIP3    H119407   5.040   6.044   3.532
 6481TIP3    H219408   4.944   5.947   3.466
 6482TIP3   OH219409   3.936   3.594   2.385
 6482TIP3    H119410   3.918   3.529   2.316
 6482TIP3    H219411   3.880   3.568   2.458
 6483TIP3   OH219412   5.108   1.448   3.239
 6483TIP3    H119413   5.148   1.524   3.283
 6483TIP3    H219414   5.175   1.380   3.242
 6484TIP3   OH219415   0.498   6.016   3.288
 6484TIP3    H119416   0.555   6.023   3.212
 6484TIP3    H219417   0.417   6.060   3.263
 6485TIP3   OH219418   1.192   0.914   3.419
 6485TIP3    H119419   1.253   0.840   3.418
 6485TIP3    H219420   1.237   0.983   3.371
 6486TIP3   OH219421   6.379   6.588   3.358
 6486TIP3    H119422   6.428   6.627   3.285
 6486TIP3    H219423   6.351   6.503   3.325
 6487TIP3   OH219424   3.126   2.296   5.509
 6487TIP3    H119425   3.110   2.385   5.479
 6487TIP3    H219426   3.220   2.294   5.527
 6488TIP3   OH219427   0.113   6.268   1.245
 6488TIP3    H119428   0.041   6.216   1.281
 6488TIP3    H219429   0.078   6.305   1.165
 6489TIP3   OH219430   5.068   6.509   3.090
 6489TIP3    H119431   5.075   6.528   3.184
 6489TIP3    H219432   5.066   6.595   3.048
 6490TIP3   OH219433   6.392   6.731   2.785
 6490TIP3    H119434   6.433   6.650   2.814
 6490TIP3    H219435   6.396   6.789   2.862
 6491TIP3   OH219436   4.516   1.082   2.878
 6491TIP3    H119437   4.452   1.153   2.873
 6491TIP3    H219438   4.596   1.124   2.910
 6492TIP3   OH219439   6.304   5.463   5.518
 6492TIP3    H119440   6.340   5.541   5.474
 6492TIP3    H219441   6.256   5.498   5.593
 6493TIP3   OH219442   4.606   0.647   1.583
 6493TIP3    H119443   4.684   0.668   1.532
 6493TIP3    H219444   4.606   0.710   1.654
 6494TIP3   OH219445   4.294   6.034   2.792
 6494TIP3    H119446   4.390   6.033   2.785
 6494TIP3    H219447   4.268   5.944   2.773
 6495TIP3   OH219448   6.066   2.647   4.047
 6495TIP3    H119449   6.036   2.614   4.132
 6495TIP3    H219450   5.988   2.686   4.008
 6496TIP3   OH219451   1.709   4.001   3.675
 6496TIP3    H119452   1.683   4.089   3.702
 6496TIP3    H219453   1.637   3.970   3.621
 6497TIP3   OH219454   7.051   2.500   3.410
 6497TIP3    H119455   7.087   2.510   3.498
 6497TIP3    H219456   6.971   2.451   3.422
 6498TIP3   OH219457   0.775   5.173   1.369
 6498TIP3    H119458   0.867   5.148   1.363
 6498TIP3    H219459   0.775   5.268   1.354
 6499TIP3   OH219460   6.534   0.019   4.871
 6499TIP3    H119461   6.549   0.091   4.809
 6499TIP3    H219462   6.585   0.043   4.948
 6500TIP3   OH219463   3.904   6.479   4.571
 6500TIP3    H119464   3.986   6.525   4.559
 6500TIP3    H219465   3.838   6.534   4.528
 6501TIP3   OH219466   5.241   4.740   5.017
 6501TIP3    H119467   5.192   4.733   5.099
 6501TIP3    H219468   5.281   4.827   5.020
 6502TIP3   OH219469   6.663   4.444   2.887
 6502TIP3    H119470   6.690   4.477   2.802
 6502TIP3    H219471   6.701   4.356   2.892
 6503TIP3   OH219472   4.184   1.499   1.444
 6503TIP3    H119473   4.202   1.452   1.526
 6503TIP3    H219474   4.191   1.592   1.468
 6504TIP3   OH219475   2.353   1.476   3.601
 6504TIP3    H119476   2.385   1.412   3.665
 6504TIP3    H219477   2.276   1.435   3.562
 6505TIP3   OH219478   2.880   1.950   1.802
 6505TIP3    H119479   2.879   2.021   1.866
 6505TIP3    H219480   2.948   1.974   1.740
 6506TIP3   OH219481   3.239   6.415   1.203
 6506TIP3    H119482   3.234   6.337   1.148
 6506TIP3    H219483   3.330   6.444   1.194
 6507TIP3   OH219484   2.410   2.979   1.581
 6507TIP3    H119485   2.349   2.914   1.547
 6507TIP3    H219486   2.410   3.049   1.517
 6508TIP3   OH219487   6.591   1.353   5.084
 6508TIP3    H119488   6.514   1.393   5.042
 6508TIP3    H219489   6.579   1.259   5.071
 6509TIP3   OH219490   6.643   6.310   3.577
 6509TIP3    H119491   6.730   6.271   3.563
 6509TIP3    H219492   6.630   6.368   3.502
 6510TIP3   OH219493   2.930   3.186   1.594
 6510TIP3    H119494   2.888   3.254   1.647
 6510TIP3    H219495   3.013   3.168   1.638
 6511TIP3   OH219496   3.038   4.512   5.652
 6511TIP3    H119497   2.965   4.560   5.616
 6511TIP3    H219498   3.002   4.468   5.729
 6512TIP3   OH219499   5.219   3.248   3.889
 6512TIP3    H119500   5.291   3.218   3.944
 6512TIP3    H219501   5.141   3.235   3.942
 6513TIP3   OH219502   0.031   6.077   3.724
 6513TIP3    H119503   0.057   6.162   3.760
 6513TIP3    H219504   0.110   6.045   3.681
 6514TIP3   OH219505   2.308   3.235   5.730
 6514TIP3    H119506   2.277   3.309   5.782
 6514TIP3    H219507   2.292   3.158   5.785
 6515TIP3   OH219508   0.000   4.661   2.549
 6515TIP3    H119509   0.076   4.718   2.544
 6515TIP3    H219510  -0.062   4.696   2.485
 6516TIP3   OH219511   2.104   1.565   0.467
 6516TIP3    H119512   2.141   1.615   0.394
 6516TIP3    H219513   2.034   1.621   0.501
 6517TIP3   OH219514   5.067   3.033   4.542
 6517TIP3    H119515   4.981   3.073   4.557
 6517TIP3    H219516   5.109   3.034   4.627
 6518TIP3   OH219517   4.022   1.449   0.894
 6518TIP3    H119518   4.102   1.493   0.922
 6518TIP3    H219519   4.051   1.364   0.862
 6519TIP3   OH219520   1.459   0.160   1.165
 6519TIP3    H119521   1.396   0.103   1.208
 6519TIP3    H219522   1.513   0.101   1.111
 6520TIP3   OH219523   6.601   0.982   3.505
 6520TIP3    H119524   6.616   0.887   3.505
 6520TIP3    H219525   6.687   1.020   3.519
 6521TIP3   OH219526   4.349   0.522   3.725
 6521TIP3    H119527   4.434   0.481   3.742
 6521TIP3    H219528   4.360   0.565   3.641
 6522TIP3   OH219529   0.069   5.515   5.235
 6522TIP3    H119530   0.079   5.529   5.330
 6522TIP3    H219531   0.105   5.594   5.195
 6523TIP3   OH219532   4.840   3.277   0.086
 6523TIP3    H119533   4.851   3.226   0.005
 6523TIP3    H219534   4.909   3.343   0.083
 6524TIP3   OH219535   7.155   4.758   4.616
 6524TIP3    H119536   7.114   4.725   4.537
 6524TIP3    H219537   7.149   4.853   4.608
 6525TIP3   OH219538   6.949   2.928   3.547
 6525TIP3    H119539   6.968   2.866   3.477
 6525TIP3    H219540   6.957   3.014   3.506
 6526TIP3   OH219541   6.586   0.685   3.587
 6526TIP3    H119542   6.498   0.723   3.581
 6526TIP3    H219543   6.592   0.653   3.677
 6527TIP3   OH219544   5.581   6.458   5.080
 6527TIP3    H119545   5.672   6.450   5.050
 6527TIP3    H219546   5.548   6.536   5.036
 6528TIP3   OH219547   2.861   6.451   4.526
 6528TIP3    H119548   2.887   6.448   4.618
 6528TIP3    H219549   2.769   6.477   4.527
 6529TIP3   OH219550   1.954   4.196   3.896
 6529TIP3    H119551   2.014   4.262   3.862
 6529TIP3    H219552   2.010   4.137   3.948
 6530TIP3   OH219553   6.221   6.359   3.861
 6530TIP3    H119554   6.304   6.361   3.814
 6530TIP3    H219555   6.222   6.275   3.908
 6531TIP3   OH219556   0.789   4.591   3.032
 6531TIP3    H119557   0.752   4.572   2.946
 6531TIP3    H219558   0.817   4.682   3.026
 6532TIP3   OH219559   1.281   1.428   1.162
 6532TIP3    H119560   1.255   1.453   1.073
 6532TIP3    H219561   1.311   1.510   1.202
 6533TIP3   OH219562   6.544   4.103   0.573
 6533TIP3    H119563   6.474   4.167   0.559
 6533TIP3    H219564   6.603   4.145   0.636
 6534TIP3   OH219565   7.053   1.778   4.940
 6534TIP3    H119566   7.083   1.734   4.860
 6534TIP3    H219567   7.041   1.869   4.915
 6535TIP3   OH219568   3.530   3.073   3.303
 6535TIP3    H119569   3.456   3.041   3.354
 6535TIP3    H219570   3.539   3.011   3.231
 6536TIP3   OH219571   5.261   4.082   0.483
 6536TIP3    H119572   5.182   4.032   0.461
 6536TIP3    H219573   5.255   4.160   0.428
 6537TIP3   OH219574   4.554   1.781   3.860
 6537TIP3    H119575   4.645   1.790   3.888
 6537TIP3    H219576   4.516   1.868   3.874
 6538TIP3   OH219577   6.475   1.036   1.978
 6538TIP3    H119578   6.506   1.124   1.955
 6538TIP3    H219579   6.542   0.978   1.942
 6539TIP3   OH219580   0.947   5.580   4.777
 6539TIP3    H119581   0.881   5.648   4.766
 6539TIP3    H219582   0.920   5.533   4.855
 6540TIP3   OH219583   4.079   0.470   3.607
 6540TIP3    H119584   4.069   0.556   3.566
 6540TIP3    H219585   4.155   0.479   3.665
 6541TIP3   OH219586   2.656   0.022   3.038
 6541TIP3    H119587   2.705   0.086   2.985
 6541TIP3    H219588   2.720  -0.012   3.100
 6542TIP3   OH219589   1.458   3.150   1.768
 6542TIP3    H119590   1.428   3.071   1.811
 6542TIP3    H219591   1.441   3.220   1.831
 6543TIP3   OH219592   3.014   1.925   2.290
 6543TIP3    H119593   2.944   1.876   2.248
 6543TIP3    H219594   2.992   2.017   2.274
 6544TIP3   OH219595   0.785   2.578   5.693
 6544TIP3    H119596   0.782   2.484   5.673
 6544TIP3    H219597   0.875   2.593   5.721
 6545TIP3   OH219598   0.783   3.888   1.767
 6545TIP3    H119599   0.784   3.800   1.729
 6545TIP3    H219600   0.699   3.893   1.812
 6546TIP3   OH219601   6.678   3.382   1.352
 6546TIP3    H119602   6.685   3.286   1.352
 6546TIP3    H219603   6.659   3.404   1.444
 6547TIP3   OH219604   3.987   4.404   4.671
 6547TIP3    H119605   4.017   4.493   4.691
 6547TIP3    H219606   4.034   4.348   4.733
 6548TIP3   OH219607   1.400   5.919   1.873
 6548TIP3    H119608   1.411   5.953   1.962
 6548TIP3    H219609   1.398   5.997   1.818
 6549TIP3   OH219610   5.048   6.463   5.411
 6549TIP3    H119611   5.134   6.428   5.387
 6549TIP3    H219612   5.033   6.533   5.347
 6550TIP3   OH219613   4.283   3.805   3.498
 6550TIP3    H119614   4.260   3.796   3.590
 6550TIP3    H219615   4.200   3.822   3.453
 6551TIP3   OH219616   0.237   6.097   1.717
 6551TIP3    H119617   0.149   6.134   1.703
 6551TIP3    H219618   0.279   6.160   1.776
 6552TIP3   OH219619   0.548   0.366   2.664
 6552TIP3    H119620   0.507   0.299   2.718
 6552TIP3    H219621   0.605   0.318   2.604
 6553TIP3   OH219622   0.268   5.401   0.113
 6553TIP3    H119623   0.228   5.488   0.109
 6553TIP3    H219624   0.302   5.387   0.025
 6554TIP3   OH219625   6.721   2.998   5.131
 6554TIP3    H119626   6.701   2.931   5.065
 6554TIP3    H219627   6.808   3.031   5.106
 6555TIP3   OH219628   4.579   4.540   1.819
 6555TIP3    H119629   4.505   4.558   1.762
 6555TIP3    H219630   4.539   4.522   1.904
 6556TIP3   OH219631   5.561   4.918   5.199
 6556TIP3    H119632   5.655   4.926   5.213
 6556TIP3    H219633   5.546   4.957   5.113
 6557TIP3   OH219634   2.879   0.199   5.314
 6557TIP3    H119635   2.938   0.152   5.373
 6557TIP3    H219636   2.922   0.196   5.229
 6558TIP3   OH219637   2.636   0.045   1.092
 6558TIP3    H119638   2.585  -0.035   1.106
 6558TIP3    H219639   2.670   0.036   1.004
 6559TIP3   OH219640   1.907   2.594   4.132
 6559TIP3    H119641   1.967   2.520   4.138
 6559TIP3    H219642   1.821   2.556   4.145
 6560TIP3   OH219643   2.105   2.928   2.062
 6560TIP3    H119644   2.184   2.935   2.008
 6560TIP3    H219645   2.036   2.901   2.001
 6561TIP3   OH219646   2.034   6.177   2.305
 6561TIP3    H119647   2.124   6.203   2.286
 6561TIP3    H219648   2.004   6.136   2.224
 6562TIP3   OH219649   2.537   0.829   4.229
 6562TIP3    H119650   2.526   0.882   4.150
 6562TIP3    H219651   2.448   0.812   4.259
 6563TIP3   OH219652   3.513   0.348   5.318
 6563TIP3    H119653   3.491   0.259   5.290
 6563TIP3    H219654   3.553   0.337   5.404
 6564TIP3   OH219655   5.977   4.383   4.626
 6564TIP3    H119656   6.035   4.458   4.616
 6564TIP3    H219657   5.951   4.385   4.718
 6565TIP3   OH219658   6.084   3.567   5.734
 6565TIP3    H119659   6.158   3.606   5.687
 6565TIP3    H219660   6.040   3.512   5.669
 6566TIP3   OH219661   2.469   1.278   4.665
 6566TIP3    H119662   2.535   1.275   4.734
 6566TIP3    H219663   2.499   1.214   4.600
 6567TIP3   OH219664   5.342   6.743   1.764
 6567TIP3    H119665   5.377   6.799   1.695
 6567TIP3    H219666   5.263   6.788   1.795
 6568TIP3   OH219667   2.842   0.883   2.337
 6568TIP3    H119668   2.921   0.911   2.291
 6568TIP3    H219669   2.772   0.938   2.300
 6569TIP3   OH219670   4.106   0.727   3.495
 6569TIP3    H119671   4.060   0.807   3.518
 6569TIP3    H219672   4.117   0.731   3.400
 6570TIP3   OH219673   3.651   6.153   0.814
 6570TIP3    H119674   3.653   6.059   0.796
 6570TIP3    H219675   3.596   6.161   0.892
 6571TIP3   OH219676   1.313   6.237   4.322
 6571TIP3    H119677   1.336   6.207   4.410
 6571TIP3    H219678   1.394   6.276   4.288
 6572TIP3   OH219679   2.199   5.236   2.381
 6572TIP3    H119680   2.256   5.257   2.454
 6572TIP3    H219681   2.124   5.192   2.420
 6573TIP3   OH219682   2.719   6.213   2.692
 6573TIP3    H119683   2.759   6.135   2.652
 6573TIP3    H219684   2.748   6.211   2.783
 6574TIP3   OH219685   6.725   1.821   3.739
 6574TIP3    H119686   6.779   1.889   3.779
 6574TIP3    H219687   6.636   1.839   3.770
 6575TIP3   OH219688   3.421   1.366   0.783
 6575TIP3    H119689   3.419   1.410   0.868
 6575TIP3    H219690   3.511   1.337   0.773
 6576TIP3   OH219691   2.907   2.460   3.120
 6576TIP3    H119692   2.928   2.405   3.196
 6576TIP3    H219693   2.853   2.530   3.157
 6577TIP3   OH219694   2.407   2.339   4.256
 6577TIP3    H119695   2.478   2.397   4.228
 6577TIP3    H219696   2.439   2.299   4.337
 6578TIP3   OH219697   1.541   5.636   5.376
 6578TIP3    H119698   1.592   5.710   5.343
 6578TIP3    H219699   1.502   5.667   5.457
 6579TIP3   OH219700   1.803   0.641   0.295
 6579TIP3    H119701   1.728   0.689   0.259
 6579TIP3    H219702   1.764   0.579   0.356
 6580TIP3   OH219703   2.582   1.949   0.493
 6580TIP3    H119704   2.676   1.933   0.495
 6580TIP3    H219705   2.563   1.990   0.578
 6581TIP3   OH219706   2.349   5.974   2.385
 6581TIP3    H119707   2.307   6.059   2.371
 6581TIP3    H219708   2.431   5.979   2.335
 6582TIP3   OH219709   5.495   1.862   0.663
 6582TIP3    H119710   5.576   1.912   0.675
 6582TIP3    H219711   5.437   1.922   0.616
 6583TIP3   OH219712   5.528   5.640   5.482
 6583TIP3    H119713   5.580   5.709   5.522
 6583TIP3    H219714   5.481   5.600   5.555
 6584TIP3   OH219715   5.468   3.323   0.131
 6584TIP3    H119716   5.547   3.355   0.175
 6584TIP3    H219717   5.417   3.283   0.201
 6585TIP3   OH219718   4.130   0.513   2.666
 6585TIP3    H119719   4.178   0.468   2.736
 6585TIP3    H219720   4.155   0.605   2.675
 6586TIP3   OH219721   1.860   1.550   5.047
 6586TIP3    H119722   1.953   1.530   5.058
 6586TIP3    H219723   1.825   1.474   4.999
 6587TIP3   OH219724   2.799   5.869   0.416
 6587TIP3    H119725   2.721   5.887   0.469
 6587TIP3    H219726   2.870   5.861   0.479
 6588TIP3   OH219727   5.552   2.282   2.165
 6588TIP3    H119728   5.511   2.212   2.215
 6588TIP3    H219729   5.489   2.354   2.168
 6589TIP3   OH219730   3.567   2.961   2.571
 6589TIP3    H119731   3.573   3.055   2.587
 6589TIP3    H219732   3.594   2.921   2.654
 6590TIP3   OH219733   5.567   6.660   0.085
 6590TIP3    H119734   5.568   6.756   0.084
 6590TIP3    H219735   5.638   6.636   0.144
 6591TIP3   OH219736   6.846   4.444   0.304
 6591TIP3    H119737   6.870   4.481   0.219
 6591TIP3    H219738   6.796   4.365   0.283
 6592TIP3   OH219739   5.111   0.323   4.980
 6592TIP3    H119740   5.197   0.358   5.000
 6592TIP3    H219741   5.127   0.254   4.916
 6593TIP3   OH219742   4.209   3.847   1.349
 6593TIP3    H119743   4.140   3.782   1.333
 6593TIP3    H219744   4.173   3.904   1.417
 6594TIP3   OH219745   4.834   3.734   0.818
 6594TIP3    H119746   4.812   3.803   0.881
 6594TIP3    H219747   4.821   3.652   0.867
 6595TIP3   OH219748   7.185   4.223   0.191
 6595TIP3    H119749   7.157   4.305   0.151
 6595TIP3    H219750   7.110   4.164   0.181
 6596TIP3   OH219751   5.020   1.315   0.990
 6596TIP3    H119752   5.007   1.385   0.926
 6596TIP3    H219753   5.104   1.277   0.966
 6597TIP3   OH219754   6.945   1.893   0.960
 6597TIP3    H119755   6.982   1.830   1.022
 6597TIP3    H219756   6.959   1.852   0.874
 6598TIP3   OH219757   5.884   0.177   3.877
 6598TIP3    H119758   5.954   0.187   3.941
 6598TIP3    H219759   5.810   0.224   3.915
 6599TIP3   OH219760   6.835   0.356   2.497
 6599TIP3    H119761   6.745   0.325   2.506
 6599TIP3    H219762   6.874   0.340   2.583
 6600TIP3   OH219763   0.098   0.526   5.406
 6600TIP3    H119764   0.043   0.590   5.361
 6600TIP3    H219765   0.117   0.565   5.491
 6601TIP3   OH219766   4.360   0.372   0.415
 6601TIP3    H119767   4.356   0.380   0.319
 6601TIP3    H219768   4.269   0.381   0.442
 6602TIP3   OH219769   6.322   5.397   2.640
 6602TIP3    H119770   6.365   5.320   2.676
 6602TIP3    H219771   6.229   5.376   2.642
 6603TIP3   OH219772   1.411   2.126   4.098
 6603TIP3    H119773   1.473   2.175   4.044
 6603TIP3    H219774   1.353   2.193   4.134
 6604TIP3   OH219775   6.435   4.073   4.557
 6604TIP3    H119776   6.396   4.034   4.479
 6604TIP3    H219777   6.451   3.999   4.615
 6605TIP3   OH219778   2.955   1.755   4.908
 6605TIP3    H119779   2.889   1.719   4.968
 6605TIP3    H219780   2.937   1.713   4.824
 6606TIP3   OH219781   5.640   1.607   5.171
 6606TIP3    H119782   5.710   1.628   5.109
 6606TIP3    H219783   5.566   1.584   5.114
 6607TIP3   OH219784   2.055   0.607   1.731
 6607TIP3    H119785   1.994   0.535   1.715
 6607TIP3    H219786   1.998   0.683   1.744
 6608TIP3   OH219787   2.106   3.009   1.253
 6608TIP3    H119788   2.106   3.064   1.175
 6608TIP3    H219789   2.016   3.012   1.284
 6609TIP3   OH219790   1.276   5.761   1.612
 6609TIP3    H119791   1.371   5.762   1.604
 6609TIP3    H219792   1.245   5.734   1.526
 6610TIP3   OH219793   0.595   1.011   4.371
 6610TIP3    H119794   0.687   1.000   4.394
 6610TIP3    H219795   0.552   1.035   4.454
 6611TIP3   OH219796   2.945   6.301   1.032
 6611TIP3    H119797   2.989   6.383   1.011
 6611TIP3    H219798   3.015   6.242   1.058
 6612TIP3   OH219799   2.927   1.052   3.979
 6612TIP3    H119800   2.979   1.058   3.899
 6612TIP3    H219801   2.990   1.028   4.046
 6613TIP3   OH219802   2.715   2.475   1.535
 6613TIP3    H119803   2.622   2.483   1.511
 6613TIP3    H219804   2.717   2.401   1.596
 6614TIP3   OH219805   5.711   5.610   4.224
 6614TIP3    H119806   5.741   5.696   4.256
 6614TIP3    H219807   5.616   5.617   4.223
 6615TIP3   OH219808   0.245   1.662   0.434
 6615TIP3    H119809   0.207   1.602   0.498
 6615TIP3    H219810   0.334   1.629   0.420
 6616TIP3   OH219811   7.041   0.159   3.095
 6616TIP3    H119812   6.968   0.104   3.064
 6616TIP3    H219813   7.109   0.096   3.120
 6617TIP3   OH219814   1.729   4.501   0.091
 6617TIP3    H119815   1.650   4.462   0.055
 6617TIP3    H219816   1.715   4.501   0.185
 6618TIP3   OH219817   3.333   1.188   5.428
 6618TIP3    H119818   3.238   1.198   5.433
 6618TIP3    H219819   3.368   1.275   5.445
 6619TIP3   OH219820   3.869   4.459   0.565
 6619TIP3    H119821   3.808   4.422   0.629
 6619TIP3    H219822   3.831   4.435   0.480
 6620TIP3   OH219823   5.495   0.487   1.269
 6620TIP3    H119824   5.498   0.392   1.283
 6620TIP3    H219825   5.414   0.501   1.219
 6621TIP3   OH219826   4.209   3.165   3.581
 6621TIP3    H119827   4.216   3.254   3.617
 6621TIP3    H219828   4.116   3.151   3.568
 6622TIP3   OH219829   3.982   2.331   3.780
 6622TIP3    H119830   3.933   2.271   3.724
 6622TIP3    H219831   3.926   2.344   3.857
 6623TIP3   OH219832   2.871   4.723   4.820
 6623TIP3    H119833   2.780   4.725   4.791
 6623TIP3    H219834   2.889   4.631   4.837
 6624TIP3   OH219835   4.100   4.399   0.854
 6624TIP3    H119836   4.159   4.384   0.780
 6624TIP3    H219837   4.110   4.492   0.874
 6625TIP3   OH219838   3.823   1.587   1.243
 6625TIP3    H119839   3.887   1.546   1.301
 6625TIP3    H219840   3.849   1.678   1.238
 6626TIP3   OH219841   4.243   6.314   2.322
 6626TIP3    H119842   4.244   6.275   2.409
 6626TIP3    H219843   4.181   6.261   2.272
 6627TIP3   OH219844   1.881   4.988   0.689
 6627TIP3    H119845   1.931   4.979   0.608
 6627TIP3    H219846   1.836   5.072   0.681
 6628TIP3   OH219847   6.055   3.476   0.611
 6628TIP3    H119848   6.042   3.388   0.575
 6628TIP3    H219849   6.011   3.473   0.696
 6629TIP3   OH219850   6.027   4.349   3.305
 6629TIP3    H119851   5.983   4.270   3.273
 6629TIP3    H219852   6.120   4.333   3.289
 6630TIP3   OH219853   7.158   1.529   3.082
 6630TIP3    H119854   7.151   1.509   3.176
 6630TIP3    H219855   7.218   1.603   3.078
 6631TIP3   OH219856   2.085   4.839   2.563
 6631TIP3    H119857   2.118   4.916   2.610
 6631TIP3    H219858   1.992   4.836   2.584
 6632TIP3   OH219859   3.471   4.103   0.242
 6632TIP3    H119860   3.452   4.186   0.287
 6632TIP3    H219861   3.541   4.063   0.293
 6633TIP3   OH219862   5.446   5.064   0.400
 6633TIP3    H119863   5.422   5.049   0.491
 6633TIP3    H219864   5.521   5.125   0.405
 6634TIP3   OH219865   0.069   3.789   1.300
 6634TIP3    H119866  -0.005   3.741   1.337
 6634TIP3    H219867   0.080   3.865   1.358
 6635TIP3   OH219868   5.924   2.060   0.722
 6635TIP3    H119869   5.978   2.011   0.784
 6635TIP3    H219870   5.975   2.062   0.641
 6636TIP3   OH219871   2.036   4.422   5.092
 6636TIP3    H119872   2.120   4.376   5.089
 6636TIP3    H219873   2.055   4.510   5.061
 6637TIP3   OH219874   1.655   4.645   5.462
 6637TIP3    H119875   1.732   4.643   5.407
 6637TIP3    H219876   1.688   4.633   5.551
 6638TIP3   OH219877   1.679   3.319   4.802
 6638TIP3    H119878   1.719   3.235   4.777
 6638TIP3    H219879   1.585   3.303   4.796
 6639TIP3   OH219880   4.431   1.754   4.308
 6639TIP3    H119881   4.463   1.694   4.241
 6639TIP3    H219882   4.486   1.832   4.300
 6640TIP3   OH219883   3.247   2.452   3.455
 6640TIP3    H119884   3.276   2.446   3.364
 6640TIP3    H219885   3.286   2.534   3.487
 6641TIP3   OH219886   2.724   4.641   2.529
 6641TIP3    H119887   2.726   4.655   2.434
 6641TIP3    H219888   2.664   4.708   2.562
 6642TIP3   OH219889   3.774   2.832   5.027
 6642TIP3    H119890   3.701   2.778   4.997
 6642TIP3    H219891   3.838   2.826   4.956
 6643TIP3   OH219892   5.752   1.460   3.566
 6643TIP3    H119893   5.830   1.502   3.602
 6643TIP3    H219894   5.679   1.518   3.590
 6644TIP3   OH219895   0.076   3.165   1.095
 6644TIP3    H119896   0.048   3.256   1.106
 6644TIP3    H219897   0.031   3.118   1.165
 6645TIP3   OH219898   3.543   0.814   3.109
 6645TIP3    H119899   3.553   0.754   3.183
 6645TIP3    H219900   3.567   0.762   3.033
 6646TIP3   OH219901   0.970   6.512   1.520
 6646TIP3    H119902   1.008   6.529   1.607
 6646TIP3    H219903   0.876   6.515   1.535
 6647TIP3   OH219904   4.074   0.195   5.822
 6647TIP3    H119905   4.115   0.233   5.900
 6647TIP3    H219906   4.137   0.129   5.792
 6648TIP3   OH219907   5.213   2.576   5.187
 6648TIP3    H119908   5.303   2.546   5.177
 6648TIP3    H219909   5.208   2.610   5.276
 6649TIP3   OH219910   2.533   5.275   4.863
 6649TIP3    H119911   2.510   5.275   4.771
 6649TIP3    H219912   2.623   5.309   4.866
 6650TIP3   OH219913   2.115   4.022   1.977
 6650TIP3    H119914   2.020   4.013   1.969
 6650TIP3    H219915   2.137   3.974   2.057
 6651TIP3   OH219916   6.486   3.109   4.573
 6651TIP3    H119917   6.485   3.102   4.668
 6651TIP3    H219918   6.440   3.031   4.542
 6652TIP3   OH219919   3.720   1.464   4.311
 6652TIP3    H119920   3.681   1.472   4.225
 6652TIP3    H219921   3.732   1.554   4.341
 6653TIP3   OH219922   6.870   1.395   4.447
 6653TIP3    H119923   6.806   1.324   4.454
 6653TIP3    H219924   6.915   1.378   4.364
 6654TIP3   OH219925   6.902   4.629   3.714
 6654TIP3    H119926   6.953   4.710   3.716
 6654TIP3    H219927   6.968   4.560   3.703
 6655TIP3   OH219928   7.043   4.961   1.133
 6655TIP3    H119929   6.988   4.977   1.057
 6655TIP3    H219930   7.126   5.004   1.112
 6656TIP3   OH219931   3.370   1.759   2.839
 6656TIP3    H119932   3.345   1.845   2.872
 6656TIP3    H219933   3.441   1.777   2.778
 6657TIP3   OH219934   0.446   0.434   0.401
 6657TIP3    H119935   0.443   0.444   0.496
 6657TIP3    H219936   0.440   0.340   0.387
 6658TIP3   OH219937   5.893   2.948   4.936
 6658TIP3    H119938   5.905   3.004   4.860
 6658TIP3    H219939   5.951   2.986   5.003
 6659TIP3   OH219940   7.200   5.058   4.651
 6659TIP3    H119941   7.203   5.087   4.742
 6659TIP3    H219942   7.229   5.134   4.601
 6660TIP3   OH219943   6.454   2.023   5.123
 6660TIP3    H119944   6.367   2.023   5.082
 6660TIP3    H219945   6.440   1.986   5.210
 6661TIP3   OH219946   6.588   3.218   3.209
 6661TIP3    H119947   6.679   3.193   3.227
 6661TIP3    H219948   6.582   3.218   3.114
 6662TIP3   OH219949   4.707   4.213   2.587
 6662TIP3    H119950   4.624   4.252   2.561
 6662TIP3    H219951   4.688   4.120   2.596
 6663TIP3   OH219952   1.851   2.960   3.608
 6663TIP3    H119953   1.771   2.984   3.562
 6663TIP3    H219954   1.874   2.874   3.573
 6664TIP3   OH219955   1.738   4.506   5.710
 6664TIP3    H119956   1.781   4.512   5.796
 6664TIP3    H219957   1.811   4.498   5.648
 6665TIP3   OH219958   5.705   2.641   1.517
 6665TIP3    H119959   5.662   2.570   1.470
 6665TIP3    H219960   5.634   2.684   1.565
 6666TIP3   OH219961   2.434   4.228   3.407
 6666TIP3    H119962   2.523   4.196   3.423
 6666TIP3    H219963   2.380   4.183   3.473
 6667TIP3   OH219964   6.175   1.323   4.957
 6667TIP3    H119965   6.090   1.366   4.965
 6667TIP3    H219966   6.156   1.229   4.969
 6668TIP3   OH219967   3.430   1.071   2.351
 6668TIP3    H119968   3.493   1.013   2.309
 6668TIP3    H219969   3.354   1.015   2.369
 6669TIP3   OH219970   2.300   1.025   4.963
 6669TIP3    H119971   2.275   1.029   5.055
 6669TIP3    H219972   2.318   0.933   4.946
 6670TIP3   OH219973   5.235   4.043   1.608
 6670TIP3    H119974   5.197   3.956   1.622
 6670TIP3    H219975   5.327   4.027   1.589
 6671TIP3   OH219976   0.047   2.178   0.698
 6671TIP3    H119977  -0.035   2.138   0.670
 6671TIP3    H219978   0.022   2.236   0.770
 6672TIP3   OH219979   3.005   0.730   1.266
 6672TIP3    H119980   2.946   0.731   1.191
 6672TIP3    H219981   3.002   0.820   1.300
 6673TIP3   OH219982   3.721   0.453   1.422
 6673TIP3    H119983   3.646   0.497   1.383
 6673TIP3    H219984   3.798   0.496   1.384
 6674TIP3   OH219985   1.178   6.262   5.762
 6674TIP3    H119986   1.227   6.227   5.836
 6674TIP3    H219987   1.155   6.185   5.710
 6675TIP3   OH219988   6.924   5.191   4.409
 6675TIP3    H119989   7.015   5.192   4.380
 6675TIP3    H219990   6.877   5.146   4.339
 6676TIP3   OH219991   5.539   5.687   5.217
 6676TIP3    H119992   5.544   5.654   5.306
 6676TIP3    H219993   5.510   5.778   5.226
 6677TIP3   OH219994   1.465   6.503   3.788
 6677TIP3    H119995   1.490   6.424   3.835
 6677TIP3    H219996   1.487   6.575   3.847
 6678TIP3   OH219997   0.884   5.982   0.647
 6678TIP3    H119998   0.937   6.056   0.675
 6678TIP3    H219999   0.823   5.967   0.720
 6679TIP3   OH220000   5.727   5.026   4.178
 6679TIP3    H120001   5.632   5.021   4.164
 6679TIP3    H220002   5.759   4.939   4.151
 6680TIP3   OH220003   5.159   6.054   1.908
 6680TIP3    H120004   5.162   6.111   1.985
 6680TIP3    H220005   5.235   6.079   1.856
 6681TIP3   OH220006   4.890   3.489   5.840
 6681TIP3    H120007   4.933   3.444   5.913
 6681TIP3    H220008   4.855   3.570   5.878
 6682TIP3   OH220009   3.476   4.490   1.950
 6682TIP3    H120010   3.447   4.401   1.968
 6682TIP3    H220011   3.439   4.510   1.864
 6683TIP3   OH220012   7.131   0.167   4.577
 6683TIP3    H120013   7.163   0.123   4.498
 6683TIP3    H220014   7.054   0.116   4.602
 6684TIP3   OH220015   2.150   4.866   3.132
 6684TIP3    H120016   2.123   4.817   3.054
 6684TIP3    H220017   2.233   4.826   3.158
 6685TIP3   OH220018   3.351   4.483   1.651
 6685TIP3    H120019   3.429   4.428   1.654
 6685TIP3    H220020   3.382   4.566   1.613
 6686TIP3   OH220021   3.256   1.275   2.200
 6686TIP3    H120022   3.325   1.218   2.166
 6686TIP3    H220023   3.261   1.353   2.145
 6687TIP3   OH220024   2.417   1.878   4.716
 6687TIP3    H120025   2.353   1.867   4.786
 6687TIP3    H220026   2.378   1.834   4.640
 6688TIP3   OH220027   3.142   2.973   2.358
 6688TIP3    H120028   3.072   3.007   2.413
 6688TIP3    H220029   3.214   3.035   2.369
 6689TIP3   OH220030   4.247   0.991   0.365
 6689TIP3    H120031   4.170   0.941   0.395
 6689TIP3    H220032   4.233   1.078   0.401
 6690TIP3   OH220033   2.786   2.782   4.971
 6690TIP3    H120034   2.698   2.820   4.965
 6690TIP3    H220035   2.837   2.831   4.906
 6691TIP3   OH220036   3.246   0.985   4.992
 6691TIP3    H120037   3.245   1.073   4.957
 6691TIP3    H220038   3.197   0.991   5.075
 6692TIP3   OH220039   6.471   2.403   5.648
 6692TIP3    H120040   6.472   2.311   5.675
 6692TIP3    H220041   6.505   2.402   5.559
 6693TIP3   OH220042   1.399   1.791   3.091
 6693TIP3    H120043   1.457   1.731   3.137
 6693TIP3    H220044   1.456   1.838   3.030
 6694TIP3   OH220045   0.045   5.555   4.220
 6694TIP3    H120046   0.135   5.564   4.252
 6694TIP3    H220047   0.027   5.461   4.226
 6695TIP3   OH220048   4.355   4.210   3.877
 6695TIP3    H120049   4.357   4.226   3.971
 6695TIP3    H220050   4.276   4.158   3.863
 6696TIP3   OH220051   0.057   3.208   4.535
 6696TIP3    H120052   0.085   3.215   4.444
 6696TIP3    H220053   0.120   3.262   4.583
 6697TIP3   OH220054   3.279   3.836   4.821
 6697TIP3    H120055   3.223   3.821   4.744
 6697TIP3    H220056   3.366   3.808   4.793
 6698TIP3   OH220057   1.552   2.034   3.337
 6698TIP3    H120058   1.580   1.950   3.300
 6698TIP3    H220059   1.633   2.083   3.348
 6699TIP3   OH220060   1.924   5.774   4.760
 6699TIP3    H120061   2.015   5.789   4.787
 6699TIP3    H220062   1.885   5.861   4.756
 6700TIP3   OH220063   1.549   0.249   0.649
 6700TIP3    H120064   1.601   0.274   0.726
 6700TIP3    H220065   1.472   0.207   0.686
 6701TIP3   OH220066   3.544   1.789   2.649
 6701TIP3    H120067   3.547   1.878   2.613
 6701TIP3    H220068   3.497   1.739   2.582
 6702TIP3   OH220069   1.613   4.276   3.318
 6702TIP3    H120070   1.614   4.345   3.252
 6702TIP3    H220071   1.623   4.195   3.269
 6703TIP3   OH220072   4.798   6.803   3.610
 6703TIP3    H120073   4.727   6.830   3.551
 6703TIP3    H220074   4.753   6.757   3.681
 6704TIP3   OH220075   1.889   2.523   1.923
 6704TIP3    H120076   1.797   2.540   1.943
 6704TIP3    H220077   1.894   2.429   1.910
 6705TIP3   OH220078   4.213   2.071   1.758
 6705TIP3    H120079   4.284   2.126   1.791
 6705TIP3    H220080   4.134   2.122   1.773
 6706TIP3   OH220081   6.511   3.135   3.916
 6706TIP3    H120082   6.603   3.159   3.904
 6706TIP3    H220083   6.510   3.039   3.908
 6707TIP3   OH220084   5.967   5.537   4.312
 6707TIP3    H120085   6.015   5.592   4.251
 6707TIP3    H220086   5.881   5.525   4.271
 6708TIP3   OH220087   4.575   1.435   2.804
 6708TIP3    H120088   4.657   1.424   2.853
 6708TIP3    H220089   4.591   1.510   2.746
 6709TIP3   OH220090   1.467   1.670   4.259
 6709TIP3    H120091   1.399   1.735   4.243
 6709TIP3    H220092   1.549   1.716   4.243
 6710TIP3   OH220093   0.795   3.831   5.881
 6710TIP3    H120094   0.745   3.904   5.917
 6710TIP3    H220095   0.812   3.856   5.790
 6711TIP3   OH220096   4.243   2.468   4.894
 6711TIP3    H120097   4.199   2.545   4.930
 6711TIP3    H220098   4.325   2.502   4.857
 6712TIP3   OH220099   4.318   1.040   0.803
 6712TIP3    H120100   4.411   1.062   0.812
 6712TIP3    H220101   4.303   0.973   0.870
 6713TIP3   OH220102   1.257   4.624   0.690
 6713TIP3    H120103   1.166   4.606   0.667
 6713TIP3    H220104   1.255   4.649   0.782
 6714TIP3   OH220105   0.334   5.314   0.457
 6714TIP3    H120106   0.332   5.253   0.531
 6714TIP3    H220107   0.395   5.383   0.484
 6715TIP3   OH220108   7.106   2.285   1.812
 6715TIP3    H120109   7.180   2.240   1.854
 6715TIP3    H220110   7.145   2.362   1.770
 6716TIP3   OH220111   5.043   4.891   4.327
 6716TIP3    H120112   5.038   4.870   4.420
 6716TIP3    H220113   5.128   4.935   4.317
 6717TIP3   OH220114   1.847   0.171   4.940
 6717TIP3    H120115   1.929   0.185   4.892
 6717TIP3    H220116   1.862   0.090   4.988
 6718TIP3   OH220117   5.399   3.170   1.101
 6718TIP3    H120118   5.452   3.118   1.040
 6718TIP3    H220119   5.309   3.140   1.087
 6719TIP3   OH220120   5.450   6.017   2.126
 6719TIP3    H120121   5.404   5.975   2.199
 6719TIP3    H220122   5.534   6.044   2.163
 6720TIP3   OH220123   1.131   0.536   5.136
 6720TIP3    H120124   1.129   0.489   5.053
 6720TIP3    H220125   1.078   0.483   5.195
 6721TIP3   OH220126   6.256   4.654   2.725
 6721TIP3    H120127   6.235   4.747   2.738
 6721TIP3    H220128   6.218   4.611   2.801
 6722TIP3   OH220129   2.617   0.711   4.980
 6722TIP3    H120130   2.614   0.714   4.884
 6722TIP3    H220131   2.526   0.723   5.007
 6723TIP3   OH220132   4.954   4.579   0.097
 6723TIP3    H120133   4.898   4.559   0.171
 6723TIP3    H220134   5.014   4.647   0.130
 6724TIP3   OH220135   3.972   1.368   1.322
 6724TIP3    H120136   4.061   1.405   1.317
 6724TIP3    H220137   3.981   1.279   1.289
 6725TIP3   OH220138   5.440   6.038   3.472
 6725TIP3    H120139   5.352   6.072   3.482
 6725TIP3    H220140   5.448   5.971   3.540
 6726TIP3   OH220141   4.362   2.381   0.277
 6726TIP3    H120142   4.438   2.439   0.279
 6726TIP3    H220143   4.397   2.295   0.254
 6727TIP3   OH220144   3.417   2.174   0.094
 6727TIP3    H120145   3.361   2.110   0.048
 6727TIP3    H220146   3.423   2.142   0.183
 6728TIP3   OH220147   6.863   0.430   4.578
 6728TIP3    H120148   6.854   0.425   4.673
 6728TIP3    H220149   6.957   0.418   4.562
 6729TIP3   OH220150   3.736   3.551   3.616
 6729TIP3    H120151   3.650   3.540   3.655
 6729TIP3    H220152   3.723   3.534   3.523
 6730TIP3   OH220153   1.321   5.974   5.402
 6730TIP3    H120154   1.381   6.033   5.356
 6730TIP3    H220155   1.262   5.943   5.334
 6731TIP3   OH220156   3.669   5.545   3.440
 6731TIP3    H120157   3.699   5.459   3.410
 6731TIP3    H220158   3.649   5.532   3.532
 6732TIP3   OH220159   3.846   0.176   5.281
 6732TIP3    H120160   3.875   0.258   5.241
 6732TIP3    H220161   3.892   0.108   5.232
 6733TIP3   OH220162   0.751   2.864   3.741
 6733TIP3    H120163   0.840   2.892   3.764
 6733TIP3    H220164   0.734   2.905   3.656
 6734TIP3   OH220165   6.588   3.036   0.091
 6734TIP3    H120166   6.500   3.000   0.081
 6734TIP3    H220167   6.577   3.130   0.078
 6735TIP3   OH220168   4.096   0.925   2.497
 6735TIP3    H120169   4.179   0.910   2.452
 6735TIP3    H220170   4.105   1.012   2.535
 6736TIP3   OH220171   0.841   6.315   1.104
 6736TIP3    H120172   0.896   6.311   1.183
 6736TIP3    H220173   0.883   6.254   1.044
 6737TIP3   OH220174   6.021   1.595   3.358
 6737TIP3    H120175   5.996   1.621   3.446
 6737TIP3    H220176   6.086   1.659   3.330
 6738TIP3   OH220177   3.034   6.521   1.352
 6738TIP3    H120178   3.047   6.614   1.335
 6738TIP3    H220179   3.116   6.479   1.326
 6739TIP3   OH220180   0.774   0.224   3.374
 6739TIP3    H120181   0.727   0.205   3.454
 6739TIP3    H220182   0.833   0.297   3.397
 6740TIP3   OH220183   2.239   3.903   0.777
 6740TIP3    H120184   2.296   3.829   0.756
 6740TIP3    H220185   2.279   3.977   0.732
 6741TIP3   OH220186   6.220   0.917   2.005
 6741TIP3    H120187   6.244   0.829   1.975
 6741TIP3    H220188   6.298   0.970   1.990
 6742TIP3   OH220189   6.883   3.769   1.973
 6742TIP3    H120190   6.900   3.863   1.964
 6742TIP3    H220191   6.798   3.756   1.932
 6743TIP3   OH220192   2.051   1.537   5.862
 6743TIP3    H120193   2.140   1.559   5.832
 6743TIP3    H220194   1.998   1.613   5.839
 6744TIP3   OH220195   6.465   4.655   4.635
 6744TIP3    H120196   6.447   4.743   4.669
 6744TIP3    H220197   6.510   4.610   4.707
 6745TIP3   OH220198   5.819   2.624   4.263
 6745TIP3    H120199   5.814   2.600   4.355
 6745TIP3    H220200   5.772   2.707   4.257
 6746TIP3   OH220201   5.438   2.261   5.489
 6746TIP3    H120202   5.466   2.259   5.581
 6746TIP3    H220203   5.342   2.270   5.494
 6747TIP3   OH220204   6.937   5.437   0.746
 6747TIP3    H120205   6.894   5.416   0.663
 6747TIP3    H220206   6.888   5.512   0.780
 6748TIP3   OH220207   4.389   2.171   4.233
 6748TIP3    H120208   4.296   2.153   4.245
 6748TIP3    H220209   4.434   2.104   4.285
 6749TIP3   OH220210   1.496   2.360   5.527
 6749TIP3    H120211   1.452   2.362   5.612
 6749TIP3    H220212   1.581   2.320   5.544
 6750TIP3   OH220213   4.096   2.478   0.283
 6750TIP3    H120214   4.065   2.505   0.369
 6750TIP3    H220215   4.179   2.433   0.300
 6751TIP3   OH220216   3.068   1.523   5.799
 6751TIP3    H120217   3.055   1.524   5.894
 6751TIP3    H220218   2.981   1.502   5.764
 6752TIP3   OH220219   0.266   3.917   0.662
 6752TIP3    H120220   0.264   3.902   0.568
 6752TIP3    H220221   0.199   3.983   0.678
 6753TIP3   OH220222   4.589   3.333   4.571
 6753TIP3    H120223   4.546   3.417   4.558
 6753TIP3    H220224   4.528   3.283   4.625
 6754TIP3   OH220225   4.624   1.594   5.117
 6754TIP3    H120226   4.561   1.568   5.050
 6754TIP3    H220227   4.654   1.511   5.154
 6755TIP3   OH220228   3.540   2.734   4.868
 6755TIP3    H120229   3.580   2.687   4.795
 6755TIP3    H220230   3.509   2.816   4.829
 6756TIP3   OH220231   5.836   4.685   1.370
 6756TIP3    H120232   5.755   4.729   1.346
 6756TIP3    H220233   5.823   4.659   1.461
 6757TIP3   OH220234   3.490   1.609   0.217
 6757TIP3    H120235   3.450   1.600   0.304
 6757TIP3    H220236   3.421   1.647   0.163
 6758TIP3   OH220237   0.427   2.858   1.625
 6758TIP3    H120238   0.412   2.889   1.536
 6758TIP3    H220239   0.342   2.866   1.668
 6759TIP3   OH220240   1.222   4.598   3.317
 6759TIP3    H120241   1.231   4.507   3.344
 6759TIP3    H220242   1.306   4.619   3.276
 6760TIP3   OH220243   4.946   5.503   2.546
 6760TIP3    H120244   4.937   5.539   2.457
 6760TIP3    H220245   4.967   5.411   2.532
 6761TIP3   OH220246   2.983   3.872   5.794
 6761TIP3    H120247   2.957   3.852   5.704
 6761TIP3    H220248   2.933   3.810   5.848
 6762TIP3   OH220249   2.810   4.572   0.640
 6762TIP3    H120250   2.773   4.497   0.686
 6762TIP3    H220251   2.753   4.646   0.663
 6763TIP3   OH220252   6.968   3.407   5.281
 6763TIP3    H120253   6.875   3.418   5.258
 6763TIP3    H220254   7.014   3.421   5.198
 6764TIP3   OH220255   5.613   2.316   4.635
 6764TIP3    H120256   5.554   2.381   4.674
 6764TIP3    H220257   5.583   2.232   4.670
 6765TIP3   OH220258   5.039   3.102   0.784
 6765TIP3    H120259   5.036   3.006   0.786
 6765TIP3    H220260   4.960   3.128   0.737
 6766TIP3   OH220261   4.352   4.112   2.386
 6766TIP3    H120262   4.294   4.045   2.348
 6766TIP3    H220263   4.406   4.141   2.312
 6767TIP3   OH220264   4.487   4.023   4.493
 6767TIP3    H120265   4.533   3.980   4.421
 6767TIP3    H220266   4.557   4.049   4.553
 6768TIP3   OH220267   4.770   1.295   4.628
 6768TIP3    H120268   4.851   1.254   4.661
 6768TIP3    H220269   4.793   1.328   4.541
 6769TIP3   OH220270   3.358   5.205   4.051
 6769TIP3    H120271   3.291   5.186   4.117
 6769TIP3    H220272   3.352   5.300   4.038
 6770TIP3   OH220273   2.074   1.934   0.908
 6770TIP3    H120274   1.979   1.943   0.923
 6770TIP3    H220275   2.113   2.006   0.957
 6771TIP3   OH220276   6.188   2.894   1.194
 6771TIP3    H120277   6.146   2.831   1.253
 6771TIP3    H220278   6.281   2.887   1.214
 6772TIP3   OH220279   1.801   5.405   0.025
 6772TIP3    H120280   1.861   5.478   0.042
 6772TIP3    H220281   1.859   5.329   0.018
 6773TIP3   OH220282   0.283   0.746   4.610
 6773TIP3    H120283   0.359   0.717   4.560
 6773TIP3    H220284   0.212   0.752   4.546
 6774TIP3   OH220285   5.568   2.368   1.618
 6774TIP3    H120286   5.659   2.360   1.649
 6774TIP3    H220287   5.577   2.381   1.523
 6775TIP3   OH220288   4.678   3.728   4.660
 6775TIP3    H120289   4.743   3.791   4.690
 6775TIP3    H220290   4.609   3.732   4.727
 6776TIP3   OH220291   5.392   2.268   3.865
 6776TIP3    H120292   5.408   2.248   3.957
 6776TIP3    H220293   5.440   2.350   3.850
 6777TIP3   OH220294   6.931   3.165   3.184
 6777TIP3    H120295   6.931   3.124   3.270
 6777TIP3    H220296   6.995   3.115   3.134
 6778TIP3   OH220297   5.685   3.041   1.611
 6778TIP3    H120298   5.703   3.004   1.697
 6778TIP3    H220299   5.594   3.018   1.593
 6779TIP3   OH220300   7.079   6.362   5.192
 6779TIP3    H120301   7.030   6.281   5.178
 6779TIP3    H220302   7.065   6.385   5.283
 6780TIP3   OH220303   1.935   5.210   2.493
 6780TIP3    H120304   1.853   5.240   2.453
 6780TIP3    H220305   1.907   5.162   2.571
 6781TIP3   OH220306   3.243   4.793   2.560
 6781TIP3    H120307   3.303   4.718   2.552
 6781TIP3    H220308   3.157   4.753   2.572
 6782TIP3   OH220309   1.910   5.691   1.064
 6782TIP3    H120310   1.945   5.707   0.976
 6782TIP3    H220311   1.869   5.605   1.058
 6783TIP3   OH220312   4.694   1.294   3.148
 6783TIP3    H120313   4.599   1.286   3.145
 6783TIP3    H220314   4.716   1.350   3.074
 6784TIP3   OH220315   7.065   0.724   2.178
 6784TIP3    H120316   7.040   0.806   2.220
 6784TIP3    H220317   7.071   0.661   2.250
 6785TIP3   OH220318   5.252   4.912   2.663
 6785TIP3    H120319   5.277   4.994   2.704
 6785TIP3    H220320   5.248   4.849   2.735
 6786TIP3   OH220321   7.125   0.187   0.715
 6786TIP3    H120322   7.056   0.231   0.664
 6786TIP3    H220323   7.176   0.140   0.649
 6787TIP3   OH220324   4.041   5.570   1.542
 6787TIP3    H120325   4.019   5.534   1.628
 6787TIP3    H220326   3.994   5.653   1.538
 6788TIP3   OH220327   2.588   3.825   3.129
 6788TIP3    H120328   2.610   3.918   3.130
 6788TIP3    H220329   2.657   3.784   3.181
 6789TIP3   OH220330   1.196   5.745   5.750
 6789TIP3    H120331   1.196   5.810   5.821
 6789TIP3    H220332   1.112   5.700   5.759
 6790TIP3   OH220333   6.743   5.093   2.158
 6790TIP3    H120334   6.747   5.187   2.139
 6790TIP3    H220335   6.785   5.084   2.244
 6791TIP3   OH220336   4.205   6.190   2.571
 6791TIP3    H120337   4.236   6.264   2.625
 6791TIP3    H220338   4.238   6.113   2.617
 6792TIP3   OH220339   6.152   2.881   2.311
 6792TIP3    H120340   6.211   2.906   2.382
 6792TIP3    H220341   6.156   2.955   2.250
 6793TIP3   OH220342   1.038   1.562   2.097
 6793TIP3    H120343   1.089   1.585   2.175
 6793TIP3    H220344   1.100   1.513   2.043
 6794TIP3   OH220345   3.137   0.121   4.641
 6794TIP3    H120346   3.160   0.028   4.642
 6794TIP3    H220347   3.073   0.128   4.570
 6795TIP3   OH220348   6.303   0.907   4.472
 6795TIP3    H120349   6.324   0.990   4.515
 6795TIP3    H220350   6.385   0.857   4.478
 6796TIP3   OH220351   4.437   2.834   5.340
 6796TIP3    H120352   4.372   2.867   5.403
 6796TIP3    H220353   4.387   2.777   5.281
 6797TIP3   OH220354   3.667   4.434   3.611
 6797TIP3    H120355   3.690   4.485   3.689
 6797TIP3    H220356   3.572   4.424   3.616
 6798TIP3   OH220357   3.288   2.909   1.864
 6798TIP3    H120358   3.238   2.908   1.946
 6798TIP3    H220359   3.273   2.823   1.825
 6799TIP3   OH220360   5.316   2.070   3.468
 6799TIP3    H120361   5.284   2.138   3.528
 6799TIP3    H220362   5.375   2.017   3.522
 6800TIP3   OH220363   0.836   6.680   5.191
 6800TIP3    H120364   0.931   6.671   5.181
 6800TIP3    H220365   0.800   6.605   5.143
 6801TIP3   OH220366   5.455   0.905   4.663
 6801TIP3    H120367   5.513   0.829   4.678
 6801TIP3    H220368   5.514   0.975   4.637
 6802TIP3   OH220369   6.753   5.697   1.998
 6802TIP3    H120370   6.777   5.637   2.069
 6802TIP3    H220371   6.690   5.647   1.945
 6803TIP3   OH220372   5.539   5.341   5.356
 6803TIP3    H120373   5.504   5.430   5.354
 6803TIP3    H220374   5.590   5.334   5.275
 6804TIP3   OH220375   1.335   5.952   0.864
 6804TIP3    H120376   1.299   5.918   0.945
 6804TIP3    H220377   1.292   6.037   0.852
 6805TIP3   OH220378   1.411   0.238   3.402
 6805TIP3    H120379   1.371   0.152   3.392
 6805TIP3    H220380   1.494   0.232   3.354
 6806TIP3   OH220381   1.535   4.915   0.420
 6806TIP3    H120382   1.583   4.990   0.385
 6806TIP3    H220383   1.543   4.847   0.353
 6807TIP3   OH220384   6.232   3.023   2.581
 6807TIP3    H120385   6.165   3.084   2.609
 6807TIP3    H220386   6.295   3.077   2.533
 6808TIP3   OH220387   4.053   3.856   3.356
 6808TIP3    H120388   4.014   3.941   3.375
 6808TIP3    H220389   4.027   3.837   3.266
 6809TIP3   OH220390   5.449   6.094   0.649
 6809TIP3    H120391   5.405   6.037   0.585
 6809TIP3    H220392   5.432   6.183   0.617
 6810TIP3   OH220393   6.846   5.918   1.294
 6810TIP3    H120394   6.921   5.866   1.324
 6810TIP3    H220395   6.808   5.955   1.373
 6811TIP3   OH220396   5.453   1.754   2.229
 6811TIP3    H120397   5.383   1.769   2.293
 6811TIP3    H220398   5.429   1.672   2.187
 6812TIP3   OH220399   0.846   0.028   5.386
 6812TIP3    H120400   0.845   0.075   5.469
 6812TIP3    H220401   0.823  -0.062   5.409
 6813TIP3   OH220402   6.668   4.180   4.467
 6813TIP3    H120403   6.694   4.190   4.559
 6813TIP3    H220404   6.583   4.136   4.471
 6814TIP3   OH220405   6.352   0.627   5.434
 6814TIP3    H120406   6.289   0.601   5.502
 6814TIP3    H220407   6.392   0.544   5.406
 6815TIP3   OH220408   5.938   0.849   0.452
 6815TIP3    H120409   5.907   0.837   0.362
 6815TIP3    H220410   6.034   0.847   0.445
 6816TIP3   OH220411   0.412   2.261   0.012
 6816TIP3    H120412   0.499   2.223   0.029
 6816TIP3    H220413   0.429   2.354  -0.001
 6817TIP3   OH220414   2.055   0.255   4.803
 6817TIP3    H120415   2.142   0.215   4.814
 6817TIP3    H220416   2.038   0.249   4.709
 6818TIP3   OH220417   4.526   3.249   1.847
 6818TIP3    H120418   4.580   3.328   1.858
 6818TIP3    H220419   4.521   3.236   1.753
 6819TIP3   OH220420   3.116   0.462   1.452
 6819TIP3    H120421   3.100   0.524   1.523
 6819TIP3    H220422   3.178   0.506   1.394
 6820TIP3   OH220423   3.311   6.104   1.540
 6820TIP3    H120424   3.272   6.028   1.584
 6820TIP3    H220425   3.247   6.129   1.474
 6821TIP3   OH220426   6.952   0.104   2.412
 6821TIP3    H120427   6.991   0.178   2.366
 6821TIP3    H220428   6.898   0.060   2.347
 6822TIP3   OH220429   0.618   6.241   0.985
 6822TIP3    H120430   0.537   6.236   1.036
 6822TIP3    H220431   0.685   6.263   1.050
 6823TIP3   OH220432   1.223   0.065   4.793
 6823TIP3    H120433   1.284   0.015   4.847
 6823TIP3    H220434   1.218   0.151   4.835
 6824TIP3   OH220435   6.177   1.821   2.386
 6824TIP3    H120436   6.202   1.864   2.305
 6824TIP3    H220437   6.113   1.880   2.426
 6825TIP3   OH220438   0.037   3.959   1.513
 6825TIP3    H120439   0.014   4.028   1.451
 6825TIP3    H220440  -0.024   3.972   1.586
 6826TIP3   OH220441   2.386   1.872   1.445
 6826TIP3    H120442   2.360   1.962   1.426
 6826TIP3    H220443   2.332   1.847   1.520
 6827TIP3   OH220444   5.970   2.360   5.701
 6827TIP3    H120445   5.973   2.382   5.795
 6827TIP3    H220446   5.945   2.267   5.699
 6828TIP3   OH220447   3.628   0.218   0.109
 6828TIP3    H120448   3.639   0.220   0.014
 6828TIP3    H220449   3.540   0.253   0.123
 6829TIP3   OH220450   3.347   3.608   4.310
 6829TIP3    H120451   3.299   3.531   4.278
 6829TIP3    H220452   3.362   3.661   4.233
 6830TIP3   OH220453   4.814   5.562   3.081
 6830TIP3    H120454   4.723   5.587   3.099
 6830TIP3    H220455   4.813   5.532   2.990
 6831TIP3   OH220456   3.988   1.780   5.745
 6831TIP3    H120457   3.973   1.766   5.651
 6831TIP3    H220458   4.079   1.810   5.750
 6832TIP3   OH220459   0.737   0.140   1.641
 6832TIP3    H120460   0.819   0.152   1.689
 6832TIP3    H220461   0.706   0.230   1.625
 6833TIP3   OH220462   1.388   4.093   4.628
 6833TIP3    H120463   1.418   4.017   4.679
 6833TIP3    H220464   1.299   4.109   4.659
 6834TIP3   OH220465   5.263   3.157   0.630
 6834TIP3    H120466   5.312   3.080   0.602
 6834TIP3    H220467   5.186   3.122   0.674
 6835TIP3   OH220468   4.308   4.563   5.320
 6835TIP3    H120469   4.298   4.478   5.364
 6835TIP3    H220470   4.289   4.627   5.389
 6836TIP3   OH220471   0.919   1.990   5.095
 6836TIP3    H120472   0.926   1.900   5.128
 6836TIP3    H220473   0.888   2.041   5.170
 6837TIP3   OH220474   0.844   4.127   4.733
 6837TIP3    H120475   0.877   4.164   4.814
 6837TIP3    H220476   0.826   4.035   4.755
 6838TIP3   OH220477   5.505   0.215   1.108
 6838TIP3    H120478   5.498   0.130   1.065
 6838TIP3    H220479   5.417   0.234   1.139
 6839TIP3   OH220480   1.789   0.525   4.048
 6839TIP3    H120481   1.811   0.463   4.117
 6839TIP3    H220482   1.696   0.509   4.030
 6840TIP3   OH220483   1.989   2.069   0.059
 6840TIP3    H120484   2.060   2.044   0.000
 6840TIP3    H220485   2.018   2.039   0.145
 6841TIP3   OH220486   1.321   4.953   1.274
 6841TIP3    H120487   1.402   4.906   1.257
 6841TIP3    H220488   1.349   5.044   1.286
 6842TIP3   OH220489   2.123   3.021   5.891
 6842TIP3    H120490   2.048   3.054   5.841
 6842TIP3    H220491   2.180   2.981   5.825
 6843TIP3   OH220492   0.392   3.275   1.647
 6843TIP3    H120493   0.424   3.275   1.737
 6843TIP3    H220494   0.469   3.253   1.594
 6844TIP3   OH220495   0.138   6.707   4.307
 6844TIP3    H120496   0.054   6.752   4.301
 6844TIP3    H220497   0.115   6.615   4.319
 6845TIP3   OH220498   2.783   3.430   5.690
 6845TIP3    H120499   2.695   3.460   5.714
 6845TIP3    H220500   2.773   3.336   5.679
 6846TIP3   OH220501   5.155   4.129   5.623
 6846TIP3    H120502   5.220   4.112   5.691
 6846TIP3    H220503   5.206   4.160   5.548
 6847TIP3   OH220504   3.119   0.952   4.551
 6847TIP3    H120505   3.067   1.033   4.557
 6847TIP3    H220506   3.186   0.972   4.486
 6848TIP3   OH220507   3.299   3.973   4.522
 6848TIP3    H120508   3.256   4.055   4.499
 6848TIP3    H220509   3.254   3.907   4.469
 6849TIP3   OH220510   1.065   3.166   5.786
 6849TIP3    H120511   1.020   3.112   5.721
 6849TIP3    H220512   1.137   3.110   5.818
 6850TIP3   OH220513   1.892   4.617   1.447
 6850TIP3    H120514   1.879   4.665   1.528
 6850TIP3    H220515   1.967   4.559   1.465
 6851TIP3   OH220516   0.466   2.265   4.790
 6851TIP3    H120517   0.540   2.279   4.731
 6851TIP3    H220518   0.469   2.172   4.809
 6852TIP3   OH220519   0.576   2.668   4.141
 6852TIP3    H120520   0.539   2.751   4.170
 6852TIP3    H220521   0.500   2.613   4.121
 6853TIP3   OH220522   1.318   1.456   3.048
 6853TIP3    H120523   1.246   1.438   3.109
 6853TIP3    H220524   1.374   1.379   3.055
 6854TIP3   OH220525   2.107   5.408   0.233
 6854TIP3    H120526   2.077   5.496   0.210
 6854TIP3    H220527   2.054   5.383   0.309
 6855TIP3   OH220528   5.677   5.243   5.142
 6855TIP3    H120529   5.722   5.323   5.115
 6855TIP3    H220530   5.675   5.189   5.063
 6856TIP3   OH220531   0.860   1.908   1.230
 6856TIP3    H120532   0.834   1.942   1.145
 6856TIP3    H220533   0.860   1.984   1.288
 6857TIP3   OH220534   2.129   6.474   1.214
 6857TIP3    H120535   2.080   6.425   1.280
 6857TIP3    H220536   2.205   6.419   1.194
 6858TIP3   OH220537   5.525   6.548   0.729
 6858TIP3    H120538   5.588   6.590   0.788
 6858TIP3    H220539   5.478   6.487   0.785
 6859TIP3   OH220540   5.313   5.729   2.973
 6859TIP3    H120541   5.274   5.688   3.050
 6859TIP3    H220542   5.407   5.714   2.983
 6860TIP3   OH220543   2.380   0.100   4.507
 6860TIP3    H120544   2.363   0.154   4.430
 6860TIP3    H220545   2.328   0.140   4.577
 6861TIP3   OH220546   3.529   0.031   0.568
 6861TIP3    H120547   3.518   0.100   0.503
 6861TIP3    H220548   3.584   0.070   0.636
 6862TIP3   OH220549   2.697   6.244   1.941
 6862TIP3    H120550   2.668   6.276   2.027
 6862TIP3    H220551   2.740   6.161   1.960
 6863TIP3   OH220552   7.027   1.066   3.108
 6863TIP3    H120553   7.020   1.085   3.201
 6863TIP3    H220554   7.118   1.039   3.095
 6864TIP3   OH220555   3.142   3.848   3.458
 6864TIP3    H120556   3.133   3.872   3.366
 6864TIP3    H220557   3.156   3.753   3.456
 6865TIP3   OH220558   1.542   1.914   1.809
 6865TIP3    H120559   1.593   1.972   1.865
 6865TIP3    H220560   1.486   1.973   1.759
 6866TIP3   OH220561   5.677   2.539   4.845
 6866TIP3    H120562   5.624   2.614   4.817
 6866TIP3    H220563   5.762   2.578   4.868
 6867TIP3   OH220564   1.646   6.296   2.065
 6867TIP3    H120565   1.716   6.262   2.121
 6867TIP3    H220566   1.598   6.356   2.121
 6868TIP3   OH220567   5.317   3.946   2.780
 6868TIP3    H120568   5.267   3.975   2.855
 6868TIP3    H220569   5.283   3.859   2.759
 6869TIP3   OH220570   4.745   0.510   0.166
 6869TIP3    H120571   4.672   0.530   0.108
 6869TIP3    H220572   4.784   0.595   0.186
 6870TIP3   OH220573   2.825   5.023   0.106
 6870TIP3    H120574   2.784   5.108   0.088
 6870TIP3    H220575   2.841   4.986   0.019
 6871TIP3   OH220576   6.398   3.937   5.017
 6871TIP3    H120577   6.379   4.016   5.067
 6871TIP3    H220578   6.423   3.873   5.083
 6872TIP3   OH220579   5.140   1.831   1.223
 6872TIP3    H120580   5.220   1.781   1.212
 6872TIP3    H220581   5.071   1.775   1.187
 6873TIP3   OH220582   5.561   3.065   2.761
 6873TIP3    H120583   5.513   3.095   2.838
 6873TIP3    H220584   5.539   2.972   2.754
 6874TIP3   OH220585   3.734   4.873   0.547
 6874TIP3    H120586   3.768   4.819   0.476
 6874TIP3    H220587   3.652   4.909   0.513
 6875TIP3   OH220588   5.621   4.659   5.641
 6875TIP3    H120589   5.576   4.593   5.589
 6875TIP3    H220590   5.651   4.612   5.718
 6876TIP3   OH220591   2.478   5.410   5.101
 6876TIP3    H120592   2.503   5.381   5.013
 6876TIP3    H220593   2.383   5.400   5.104
 6877TIP3   OH220594   4.266   6.466   0.093
 6877TIP3    H120595   4.226   6.380   0.108
 6877TIP3    H220596   4.192   6.527   0.090
 6878TIP3   OH220597   5.376   3.651   3.138
 6878TIP3    H120598   5.286   3.628   3.114
 6878TIP3    H220599   5.413   3.687   3.057
 6879TIP3   OH220600   6.725   1.635   5.054
 6879TIP3    H120601   6.779   1.645   4.976
 6879TIP3    H220602   6.692   1.546   5.050
 6880TIP3   OH220603   4.874   6.549   2.349
 6880TIP3    H120604   4.837   6.638   2.347
 6880TIP3    H220605   4.856   6.514   2.262
 6881TIP3   OH220606   5.977   4.731   0.425
 6881TIP3    H120607   6.048   4.795   0.426
 6881TIP3    H220608   5.898   4.782   0.441
 6882TIP3   OH220609   5.936   1.313   2.741
 6882TIP3    H120610   5.969   1.376   2.804
 6882TIP3    H220611   6.010   1.255   2.723
 6883TIP3   OH220612   6.482   4.421   1.975
 6883TIP3    H120613   6.471   4.413   1.880
 6883TIP3    H220614   6.404   4.468   2.004
 6884TIP3   OH220615   2.478   2.178   4.488
 6884TIP3    H120616   2.529   2.097   4.492
 6884TIP3    H220617   2.470   2.206   4.579
 6885TIP3   OH220618   3.840   1.408   3.893
 6885TIP3    H120619   3.892   1.487   3.881
 6885TIP3    H220620   3.903   1.343   3.925
 6886TIP3   OH220621   1.073   0.770   0.846
 6886TIP3    H120622   1.093   0.704   0.912
 6886TIP3    H220623   1.121   0.741   0.768
 6887TIP3   OH220624   4.562   1.985   4.347
 6887TIP3    H120625   4.557   1.978   4.442
 6887TIP3    H220626   4.655   1.998   4.329
 6888TIP3   OH220627   0.763   5.335   4.219
 6888TIP3    H120628   0.713   5.269   4.267
 6888TIP3    H220629   0.854   5.305   4.225
 6889TIP3   OH220630   5.876   5.887   4.452
 6889TIP3    H120631   5.876   5.886   4.356
 6889TIP3    H220632   5.968   5.876   4.476
 6890TIP3   OH220633   4.846   4.696   3.912
 6890TIP3    H120634   4.840   4.642   3.990
 6890TIP3    H220635   4.849   4.634   3.839
 6891TIP3   OH220636   4.459   1.612   4.073
 6891TIP3    H120637   4.485   1.649   3.989
 6891TIP3    H220638   4.440   1.521   4.054
 6892TIP3   OH220639   0.016   6.388   1.649
 6892TIP3    H120640   0.038   6.455   1.584
 6892TIP3    H220641   0.090   6.388   1.710
 6893TIP3   OH220642   0.510   2.988   4.734
 6893TIP3    H120643   0.511   3.055   4.667
 6893TIP3    H220644   0.602   2.966   4.748
 6894TIP3   OH220645   0.106   2.406   3.614
 6894TIP3    H120646   0.089   2.351   3.538
 6894TIP3    H220647   0.020   2.422   3.653
 6895TIP3   OH220648   4.256   2.957   5.572
 6895TIP3    H120649   4.176   2.907   5.555
 6895TIP3    H220650   4.240   3.043   5.532
 6896TIP3   OH220651   5.575   2.668   5.842
 6896TIP3    H120652   5.643   2.629   5.898
 6896TIP3    H220653   5.620   2.738   5.795
 6897TIP3   OH220654   2.880   2.108   3.028
 6897TIP3    H120655   2.811   2.141   2.971
 6897TIP3    H220656   2.852   2.134   3.116
 6898TIP3   OH220657   0.170   1.580   5.203
 6898TIP3    H120658   0.183   1.533   5.285
 6898TIP3    H220659   0.186   1.671   5.225
 6899TIP3   OH220660   3.755   6.069   2.071
 6899TIP3    H120661   3.695   6.042   2.141
 6899TIP3    H220662   3.735   6.162   2.057
 6900TIP3   OH220663   4.263   3.798   4.374
 6900TIP3    H120664   4.350   3.761   4.362
 6900TIP3    H220665   4.257   3.869   4.311
 6901TIP3   OH220666   5.921   0.247   4.905
 6901TIP3    H120667   6.016   0.249   4.894
 6901TIP3    H220668   5.906   0.289   4.990
 6902TIP3   OH220669   4.979   3.391   3.626
 6902TIP3    H120670   4.939   3.332   3.690
 6902TIP3    H220671   5.045   3.439   3.676
 6903TIP3   OH220672   1.474   3.860   0.336
 6903TIP3    H120673   1.534   3.828   0.404
 6903TIP3    H220674   1.530   3.873   0.260
 6904TIP3   OH220675   4.808   3.830   2.425
 6904TIP3    H120676   4.736   3.855   2.483
 6904TIP3    H220677   4.885   3.826   2.483
 6905TIP3   OH220678   0.245   5.349   2.891
 6905TIP3    H120679   0.167   5.403   2.885
 6905TIP3    H220680   0.224   5.270   2.840
 6906TIP3   OH220681   5.326   2.506   1.694
 6906TIP3    H120682   5.404   2.452   1.686
 6906TIP3    H220683   5.342   2.580   1.635
 6907TIP3   OH220684   4.595   0.355   1.609
 6907TIP3    H120685   4.667   0.358   1.672
 6907TIP3    H220686   4.565   0.445   1.602
 6908TIP3   OH220687   6.133   0.185   0.621
 6908TIP3    H120688   6.055   0.215   0.668
 6908TIP3    H220689   6.103   0.174   0.530
 6909TIP3   OH220690   1.060   2.822   3.599
 6909TIP3    H120691   1.067   2.742   3.652
 6909TIP3    H220692   1.105   2.889   3.651
 6910TIP3   OH220693   6.569   5.481   1.610
 6910TIP3    H120694   6.635   5.443   1.552
 6910TIP3    H220695   6.494   5.422   1.601
 6911TIP3   OH220696   3.951   2.264   4.538
 6911TIP3    H120697   4.003   2.268   4.618
 6911TIP3    H220698   3.890   2.192   4.552
 6912TIP3   OH220699   2.401   4.556   1.202
 6912TIP3    H120700   2.353   4.500   1.263
 6912TIP3    H220701   2.483   4.577   1.248
 6913TIP3   OH220702   6.835   6.658   2.744
 6913TIP3    H120703   6.925   6.681   2.767
 6913TIP3    H220704   6.840   6.633   2.652
 6914TIP3   OH220705   3.574   5.042   4.585
 6914TIP3    H120706   3.656   5.019   4.543
 6914TIP3    H220707   3.541   4.959   4.619
 6915TIP3   OH220708   0.616   1.844   0.676
 6915TIP3    H120709   0.579   1.910   0.618
 6915TIP3    H220710   0.705   1.875   0.693
 6916TIP3   OH220711   0.549   3.994   0.657
 6916TIP3    H120712   0.583   3.906   0.677
 6916TIP3    H220713   0.458   3.979   0.630
 6917TIP3   OH220714   3.131   6.247   3.195
 6917TIP3    H120715   3.130   6.341   3.176
 6917TIP3    H220716   3.178   6.208   3.122
 6918TIP3   OH220717   2.792   3.427   2.264
 6918TIP3    H120718   2.754   3.514   2.275
 6918TIP3    H220719   2.884   3.444   2.239
 6919TIP3   OH220720   4.400   6.829   1.725
 6919TIP3    H120721   4.393   6.741   1.761
 6919TIP3    H220722   4.371   6.821   1.634
 6920TIP3   OH220723   6.783   5.404   3.823
 6920TIP3    H120724   6.687   5.400   3.818
 6920TIP3    H220725   6.801   5.472   3.888
 6921TIP3   OH220726   5.506   3.667   1.569
 6921TIP3    H120727   5.592   3.629   1.586
 6921TIP3    H220728   5.446   3.615   1.622
 6922TIP3   OH220729   6.177   4.512   1.983
 6922TIP3    H120730   6.204   4.529   1.893
 6922TIP3    H220731   6.121   4.587   2.005
 6923TIP3   OH220732   4.328   0.348   0.145
 6923TIP3    H120733   4.395   0.364   0.079
 6923TIP3    H220734   4.266   0.289   0.102
 6924TIP3   OH220735   0.635   4.179   0.856
 6924TIP3    H120736   0.592   4.257   0.819
 6924TIP3    H220737   0.615   4.109   0.794
 6925TIP3   OH220738   2.058   2.758   2.388
 6925TIP3    H120739   2.035   2.793   2.474
 6925TIP3    H220740   2.126   2.817   2.356
 6926TIP3   OH220741   1.193   4.488   3.628
 6926TIP3    H120742   1.142   4.445   3.697
 6926TIP3    H220743   1.171   4.441   3.548
 6927TIP3   OH220744   2.207   5.331   1.513
 6927TIP3    H120745   2.184   5.275   1.587
 6927TIP3    H220746   2.186   5.278   1.435
 6928TIP3   OH220747   1.847   1.477   5.578
 6928TIP3    H120748   1.809   1.544   5.636
 6928TIP3    H220749   1.898   1.526   5.514
 6929TIP3   OH220750   4.384   1.563   0.635
 6929TIP3    H120751   4.472   1.549   0.670
 6929TIP3    H220752   4.355   1.475   0.609
 6930TIP3   OH220753   4.180   5.709   0.258
 6930TIP3    H120754   4.140   5.758   0.187
 6930TIP3    H220755   4.175   5.768   0.334
 6931TIP3   OH220756   4.756   4.726   3.027
 6931TIP3    H120757   4.842   4.727   2.985
 6931TIP3    H220758   4.768   4.779   3.106
 6932TIP3   OH220759   0.722   5.785   0.184
 6932TIP3    H120760   0.646   5.728   0.172
 6932TIP3    H220761   0.695   5.847   0.251
 6933TIP3   OH220762   2.107   6.113   3.460
 6933TIP3    H120763   2.131   6.025   3.430
 6933TIP3    H220764   2.057   6.150   3.387
 6934TIP3   OH220765   1.708   0.373   1.428
 6934TIP3    H120766   1.655   0.432   1.374
 6934TIP3    H220767   1.705   0.289   1.382
 6935TIP3   OH220768   4.527   6.784   0.808
 6935TIP3    H120769   4.566   6.870   0.799
 6935TIP3    H220770   4.583   6.738   0.871
 6936TIP3   OH220771   1.577   0.667   3.509
 6936TIP3    H120772   1.543   0.606   3.574
 6936TIP3    H220773   1.587   0.615   3.430
 6937TIP3   OH220774   0.501   1.077   0.880
 6937TIP3    H120775   0.554   1.157   0.874
 6937TIP3    H220776   0.557   1.015   0.927
 6938TIP3   OH220777   5.854   4.875   2.198
 6938TIP3    H120778   5.789   4.941   2.173
 6938TIP3    H220779   5.853   4.876   2.294
 6939TIP3   OH220780   5.695   3.689   0.046
 6939TIP3    H120781   5.724   3.632  -0.026
 6939TIP3    H220782   5.628   3.745   0.006
 6940TIP3   OH220783   4.892   1.842   4.731
 6940TIP3    H120784   4.820   1.794   4.770
 6940TIP3    H220785   4.952   1.775   4.699
 6941TIP3   OH220786   6.737   2.781   3.591
 6941TIP3    H120787   6.766   2.695   3.623
 6941TIP3    H220788   6.812   2.838   3.603
 6942TIP3   OH220789   4.956   6.708   3.916
 6942TIP3    H120790   4.905   6.636   3.878
 6942TIP3    H220791   4.912   6.728   3.998
 6943TIP3   OH220792   0.753   5.081   3.558
 6943TIP3    H120793   0.743   5.031   3.477
 6943TIP3    H220794   0.846   5.098   3.565
 6944TIP3   OH220795   1.932   1.940   5.172
 6944TIP3    H120796   1.981   1.872   5.217
 6944TIP3    H220797   1.891   1.990   5.242
 6945TIP3   OH220798   6.644   1.809   5.469
 6945TIP3    H120799   6.582   1.798   5.542
 6945TIP3    H220800   6.621   1.739   5.408
 6946TIP3   OH220801   6.104   1.138   3.233
 6946TIP3    H120802   6.106   1.060   3.289
 6946TIP3    H220803   6.062   1.205   3.287
 6947TIP3   OH220804   0.425   4.070   0.982
 6947TIP3    H120805   0.429   4.059   1.077
 6947TIP3    H220806   0.516   4.084   0.955
 6948TIP3   OH220807   1.577   0.990   5.280
 6948TIP3    H120808   1.652   1.036   5.317
 6948TIP3    H220809   1.508   1.001   5.346
 6949TIP3   OH220810   1.774   6.315   2.847
 6949TIP3    H120811   1.800   6.235   2.892
 6949TIP3    H220812   1.856   6.365   2.838
 6950TIP3   OH220813   1.947   1.457   2.174
 6950TIP3    H120814   1.983   1.544   2.159
 6950TIP3    H220815   2.005   1.398   2.126
 6951TIP3   OH220816   1.228   4.328   3.398
 6951TIP3    H120817   1.187   4.269   3.334
 6951TIP3    H220818   1.304   4.279   3.429
 6952TIP3   OH220819   3.727   2.325   1.252
 6952TIP3    H120820   3.724   2.377   1.171
 6952TIP3    H220821   3.658   2.260   1.240
 6953TIP3   OH220822   3.365   3.643   5.096
 6953TIP3    H120823   3.273   3.618   5.084
 6953TIP3    H220824   3.363   3.736   5.116
 6954TIP3   OH220825   6.932   4.090   2.082
 6954TIP3    H120826   6.859   4.096   2.019
 6954TIP3    H220827   6.984   4.169   2.066
 6955TIP3   OH220828   2.398   4.457   2.439
 6955TIP3    H120829   2.378   4.504   2.520
 6955TIP3    H220830   2.332   4.387   2.435
 6956TIP3   OH220831   2.898   5.676   4.586
 6956TIP3    H120832   2.823   5.660   4.643
 6956TIP3    H220833   2.961   5.721   4.643
 6957TIP3   OH220834   0.456   3.004   3.757
 6957TIP3    H120835   0.529   2.943   3.755
 6957TIP3    H220836   0.494   3.086   3.791
 6958TIP3   OH220837   6.201   1.777   3.210
 6958TIP3    H120838   6.140   1.812   3.145
 6958TIP3    H220839   6.254   1.853   3.236
 6959TIP3   OH220840   1.650   1.977   0.128
 6959TIP3    H120841   1.610   2.043   0.072
 6959TIP3    H220842   1.696   2.028   0.195
 6960TIP3   OH220843   0.009   0.829   3.296
 6960TIP3    H120844   0.042   0.851   3.383
 6960TIP3    H220845  -0.046   0.752   3.310
 6961TIP3   OH220846   4.415   4.814   0.469
 6961TIP3    H120847   4.356   4.825   0.395
 6961TIP3    H220848   4.388   4.881   0.531
 6962TIP3   OH220849   3.634   2.853   2.850
 6962TIP3    H120850   3.549   2.867   2.891
 6962TIP3    H220851   3.688   2.816   2.919
 6963TIP3   OH220852   1.941   5.002   0.396
 6963TIP3    H120853   2.034   5.020   0.387
 6963TIP3    H220854   1.904   5.022   0.311
 6964TIP3   OH220855   6.075   3.862   5.075
 6964TIP3    H120856   6.083   3.772   5.108
 6964TIP3    H220857   6.165   3.886   5.051
 6965TIP3   OH220858   1.563   3.529   4.120
 6965TIP3    H120859   1.618   3.487   4.054
 6965TIP3    H220860   1.616   3.603   4.152
 6966TIP3   OH220861   5.311   1.864   5.022
 6966TIP3    H120862   5.243   1.879   4.957
 6966TIP3    H220863   5.366   1.796   4.983
 6967TIP3   OH220864   1.991   5.052   3.017
 6967TIP3    H120865   2.049   4.983   3.049
 6967TIP3    H220866   2.014   5.129   3.069
 6968TIP3   OH220867   5.331   1.286   3.289
 6968TIP3    H120868   5.344   1.204   3.241
 6968TIP3    H220869   5.392   1.280   3.363
 6969TIP3   OH220870   6.322   1.408   5.193
 6969TIP3    H120871   6.303   1.377   5.105
 6969TIP3    H220872   6.244   1.456   5.220
 6970TIP3   OH220873   2.884   3.055   0.936
 6970TIP3    H120874   2.819   3.011   0.881
 6970TIP3    H220875   2.857   3.035   1.026
 6971TIP3   OH220876   6.838   4.800   4.113
 6971TIP3    H120877   6.782   4.777   4.188
 6971TIP3    H220878   6.841   4.895   4.113
 6972TIP3   OH220879   5.238   1.483   5.174
 6972TIP3    H120880   5.262   1.439   5.093
 6972TIP3    H220881   5.177   1.552   5.146
 6973TIP3   OH220882   0.316   4.529   4.330
 6973TIP3    H120883   0.272   4.532   4.415
 6973TIP3    H220884   0.383   4.461   4.340
 6974TIP3   OH220885   4.310   5.955   3.334
 6974TIP3    H120886   4.238   5.897   3.309
 6974TIP3    H220887   4.334   6.000   3.254
 6975TIP3   OH220888   4.953   6.738   2.030
 6975TIP3    H120889   4.896   6.800   2.075
 6975TIP3    H220890   5.041   6.761   2.058
 6976TIP3   OH220891   5.660   0.698   2.188
 6976TIP3    H120892   5.720   0.635   2.147
 6976TIP3    H220893   5.702   0.783   2.176
 6977TIP3   OH220894   6.035   2.978   1.724
 6977TIP3    H120895   6.028   2.883   1.710
 6977TIP3    H220896   5.959   3.000   1.778
 6978TIP3   OH220897   5.961   4.457   3.769
 6978TIP3    H120898   6.054   4.452   3.745
 6978TIP3    H220899   5.930   4.367   3.761
 6979TIP3   OH220900   6.277   0.357   3.642
 6979TIP3    H120901   6.361   0.378   3.602
 6979TIP3    H220902   6.212   0.395   3.583
 6980TIP3   OH220903   2.462   2.475   0.074
 6980TIP3    H120904   2.554   2.454   0.058
 6980TIP3    H220905   2.463   2.566   0.105
 6981TIP3   OH220906   6.249   5.996   4.355
 6981TIP3    H120907   6.274   5.903   4.359
 6981TIP3    H220908   6.290   6.035   4.432
 6982TIP3   OH220909   6.600   3.750   0.131
 6982TIP3    H120910   6.540   3.784   0.198
 6982TIP3    H220911   6.684   3.742   0.175
 6983TIP3   OH220912   5.528   2.420   4.235
 6983TIP3    H120913   5.481   2.349   4.277
 6983TIP3    H220914   5.618   2.411   4.265
 6984TIP3   OH220915   5.941   0.484   1.148
 6984TIP3    H120916   5.886   0.406   1.148
 6984TIP3    H220917   5.889   0.550   1.102
 6985TIP3   OH220918   5.199   6.171   3.504
 6985TIP3    H120919   5.150   6.243   3.467
 6985TIP3    H220920   5.231   6.204   3.588
 6986TIP3   OH220921   5.437   4.190   3.481
 6986TIP3    H120922   5.509   4.210   3.421
 6986TIP3    H220923   5.413   4.100   3.461
 6987TIP3   OH220924   0.818   5.465   1.113
 6987TIP3    H120925   0.781   5.532   1.056
 6987TIP3    H220926   0.757   5.460   1.187
 6988TIP3   OH220927   7.034   3.831   4.834
 6988TIP3    H120928   7.055   3.819   4.741
 6988TIP3    H220929   6.950   3.787   4.846
 6989TIP3   OH220930   2.591   0.305   3.239
 6989TIP3    H120931   2.604   0.383   3.294
 6989TIP3    H220932   2.623   0.331   3.153
 6990TIP3   OH220933   3.266   0.248   2.112
 6990TIP3    H120934   3.360   0.257   2.102
 6990TIP3    H220935   3.255   0.188   2.186
 6991TIP3   OH220936   5.391   2.862   1.521
 6991TIP3    H120937   5.376   2.772   1.493
 6991TIP3    H220938   5.421   2.908   1.443
 6992TIP3   OH220939   6.250   3.262   1.923
 6992TIP3    H120940   6.297   3.344   1.937
 6992TIP3    H220941   6.183   3.284   1.859
 6993TIP3   OH220942   1.891   5.180   1.896
 6993TIP3    H120943   1.816   5.152   1.950
 6993TIP3    H220944   1.891   5.119   1.822
 6994TIP3   OH220945   4.422   2.744   1.802
 6994TIP3    H120946   4.456   2.677   1.861
 6994TIP3    H220947   4.329   2.724   1.795
 6995TIP3   OH220948   3.454   2.333   0.661
 6995TIP3    H120949   3.491   2.308   0.745
 6995TIP3    H220950   3.528   2.371   0.613
 6996TIP3   OH220951   2.601   5.976   0.210
 6996TIP3    H120952   2.639   5.987   0.298
 6996TIP3    H220953   2.524   6.033   0.210
 6997TIP3   OH220954   1.229   1.763   3.740
 6997TIP3    H120955   1.219   1.819   3.816
 6997TIP3    H220956   1.322   1.765   3.720
 6998TIP3   OH220957   1.118   0.568   4.408
 6998TIP3    H120958   1.054   0.552   4.338
 6998TIP3    H220959   1.191   0.612   4.365
 6999TIP3   OH220960   5.499   0.246   2.811
 6999TIP3    H120961   5.497   0.311   2.881
 6999TIP3    H220962   5.592   0.230   2.796
 7000TIP3   OH220963   3.889   2.365   5.101
 7000TIP3    H120964   3.884   2.284   5.152
 7000TIP3    H220965   3.855   2.341   5.015
 7001TIP3   OH220966   2.431   6.525   1.999
 7001TIP3    H120967   2.357   6.466   1.984
 7001TIP3    H220968   2.464   6.502   2.086
 7002TIP3   OH220969   2.371   5.515   0.082
 7002TIP3    H120970   2.383   5.591   0.025
 7002TIP3    H220971   2.286   5.479   0.056
 7003TIP3   OH220972   2.843   6.650   5.190
 7003TIP3    H120973   2.877   6.608   5.112
 7003TIP3    H220974   2.913   6.642   5.255
 7004TIP3   OH220975   4.949   5.277   2.273
 7004TIP3    H120976   5.013   5.228   2.324
 7004TIP3    H220977   4.880   5.300   2.336
 7005TIP3   OH220978   4.194   3.095   1.623
 7005TIP3    H120979   4.133   3.074   1.693
 7005TIP3    H220980   4.211   3.188   1.633
 7006TIP3   OH220981   6.979   1.911   2.250
 7006TIP3    H120982   7.050   1.848   2.238
 7006TIP3    H220983   7.002   1.957   2.331
 7007TIP3   OH220984   6.638   0.466   0.554
 7007TIP3    H120985   6.659   0.378   0.585
 7007TIP3    H220986   6.551   0.484   0.590
 7008TIP3   OH220987   0.061   5.303   4.569
 7008TIP3    H120988   0.121   5.373   4.545
 7008TIP3    H220989  -0.021   5.348   4.591
 7009TIP3   OH220990   1.964   4.884   1.986
 7009TIP3    H120991   2.032   4.912   2.046
 7009TIP3    H220992   1.959   4.789   1.996
 7010TIP3   OH220993   2.392   4.449   2.923
 7010TIP3    H120994   2.390   4.446   3.019
 7010TIP3    H220995   2.486   4.450   2.901
 7011TIP3   OH220996   4.171   0.610   1.350
 7011TIP3    H120997   4.203   0.649   1.270
 7011TIP3    H220998   4.205   0.666   1.420
 7012TIP3   OH220999   7.094   3.585   0.334
 7012TIP3    H121000   7.107   3.546   0.421
 7012TIP3    H221001   7.000   3.580   0.319
 7013TIP3   OH221002   3.992   6.409   3.837
 7013TIP3    H121003   3.922   6.473   3.822
 7013TIP3    H221004   3.996   6.399   3.932
 7014TIP3   OH221005   5.170   2.218   1.424
 7014TIP3    H121006   5.100   2.153   1.411
 7014TIP3    H221007   5.222   2.214   1.344
 7015TIP3   OH221008   1.295   2.385   3.797
 7015TIP3    H121009   1.252   2.440   3.862
 7015TIP3    H221010   1.368   2.438   3.765
 7016TIP3   OH221011   4.865   2.687   4.927
 7016TIP3    H121012   4.884   2.756   4.990
 7016TIP3    H221013   4.816   2.622   4.978
 7017TIP3   OH221014   3.040   3.651   0.860
 7017TIP3    H121015   3.036   3.687   0.771
 7017TIP3    H221016   3.081   3.566   0.850
 7018TIP3   OH221017   0.619   6.404   0.462
 7018TIP3    H121018   0.548   6.339   0.464
 7018TIP3    H221019   0.656   6.402   0.550
 7019TIP3   OH221020   1.674   2.722   2.354
 7019TIP3    H121021   1.589   2.701   2.315
 7019TIP3    H221022   1.736   2.717   2.282
 7020TIP3   OH221023   1.996   0.884   2.035
 7020TIP3    H121024   1.921   0.858   2.089
 7020TIP3    H221025   2.008   0.977   2.056
 7021TIP3   OH221026   4.101   2.162   3.165
 7021TIP3    H121027   4.093   2.125   3.077
 7021TIP3    H221028   4.013   2.193   3.186
 7022TIP3   OH221029   1.002   1.724   3.588
 7022TIP3    H121030   0.938   1.776   3.637
 7022TIP3    H221031   1.078   1.719   3.647
 7023TIP3   OH221032   4.429   2.570   0.784
 7023TIP3    H121033   4.497   2.503   0.789
 7023TIP3    H221034   4.453   2.633   0.852
 7024TIP3   OH221035   4.360   6.545   1.724
 7024TIP3    H121036   4.346   6.522   1.815
 7024TIP3    H221037   4.287   6.505   1.677
 7025TIP3   OH221038   5.565   0.944   0.036
 7025TIP3    H121039   5.651   0.977   0.011
 7025TIP3    H221040   5.549   0.983   0.122
 7026TIP3   OH221041   4.088   0.031   3.563
 7026TIP3    H121042   4.161   0.045   3.623
 7026TIP3    H221043   4.097   0.100   3.498
 7027TIP3   OH221044   4.627   1.100   3.948
 7027TIP3    H121045   4.585   1.185   3.959
 7027TIP3    H221046   4.558   1.043   3.914
 7028TIP3   OH221047   1.167   3.345   4.217
 7028TIP3    H121048   1.195   3.276   4.156
 7028TIP3    H221049   1.124   3.298   4.288
 7029TIP3   OH221050   4.837   4.449   1.743
 7029TIP3    H121051   4.819   4.421   1.654
 7029TIP3    H221052   4.757   4.492   1.772
 7030TIP3   OH221053   1.456   4.390   2.580
 7030TIP3    H121054   1.464   4.478   2.542
 7030TIP3    H221055   1.532   4.343   2.546
 7031TIP3   OH221056   3.921   5.784   0.641
 7031TIP3    H121057   3.997   5.726   0.636
 7031TIP3    H221058   3.890   5.791   0.551
 7032TIP3   OH221059   6.743   6.197   0.690
 7032TIP3    H121060   6.714   6.280   0.727
 7032TIP3    H221061   6.694   6.130   0.738
 7033TIP3   OH221062   5.052   4.487   3.745
 7033TIP3    H121063   4.999   4.486   3.665
 7033TIP3    H221064   5.129   4.539   3.722
 7034TIP3   OH221065   7.048   1.623   5.650
 7034TIP3    H121066   6.971   1.602   5.704
 7034TIP3    H221067   7.014   1.683   5.583
 7035TIP3   OH221068   1.427   1.904   5.454
 7035TIP3    H121069   1.360   1.837   5.437
 7035TIP3    H221070   1.389   1.985   5.420
 7036TIP3   OH221071   5.086   4.718   5.256
 7036TIP3    H121072   5.097   4.796   5.310
 7036TIP3    H221073   5.030   4.660   5.309
 7037TIP3   OH221074   2.100   1.405   4.966
 7037TIP3    H121075   2.125   1.435   4.878
 7037TIP3    H221076   2.023   1.351   4.950
 7038TIP3   OH221077   3.040   1.040   4.217
 7038TIP3    H121078   3.111   1.088   4.260
 7038TIP3    H221079   2.963   1.059   4.270
 7039TIP3   OH221080   5.033   0.216   5.729
 7039TIP3    H121081   5.014   0.275   5.802
 7039TIP3    H221082   5.125   0.191   5.742
 7040TIP3   OH221083   5.252   5.947   4.453
 7040TIP3    H121084   5.278   5.964   4.544
 7040TIP3    H221085   5.210   6.029   4.425
 7041TIP3   OH221086   6.751   0.169   0.191
 7041TIP3    H121087   6.744   0.263   0.177
 7041TIP3    H221088   6.719   0.129   0.110
 7042TIP3   OH221089   3.462   4.923   0.444
 7042TIP3    H121090   3.465   4.960   0.356
 7042TIP3    H221091   3.375   4.946   0.477
 7043TIP3   OH221092   3.395   2.608   3.619
 7043TIP3    H121093   3.326   2.564   3.668
 7043TIP3    H221094   3.397   2.697   3.655
 7044TIP3   OH221095   4.451   1.051   5.603
 7044TIP3    H121096   4.498   1.135   5.602
 7044TIP3    H221097   4.359   1.075   5.615
 7045TIP3   OH221098   0.211   5.765   3.769
 7045TIP3    H121099   0.138   5.703   3.777
 7045TIP3    H221100   0.224   5.798   3.858
 7046TIP3   OH221101   4.804   1.088   2.929
 7046TIP3    H121102   4.828   1.130   3.012
 7046TIP3    H221103   4.868   1.121   2.867
 7047TIP3   OH221104   6.440   1.883   1.387
 7047TIP3    H121105   6.467   1.963   1.342
 7047TIP3    H221106   6.466   1.896   1.478
 7048TIP3   OH221107   6.507   6.431   5.588
 7048TIP3    H121108   6.423   6.394   5.563
 7048TIP3    H221109   6.517   6.508   5.533
 7049TIP3   OH221110   1.229   5.119   3.027
 7049TIP3    H121111   1.253   5.028   3.047
 7049TIP3    H221112   1.176   5.147   3.102
 7050TIP3   OH221113   3.141   6.145   0.846
 7050TIP3    H121114   3.146   6.096   0.764
 7050TIP3    H221115   3.089   6.222   0.825
 7051TIP3   OH221116   0.376   4.147   1.277
 7051TIP3    H121117   0.294   4.156   1.229
 7051TIP3    H221118   0.354   4.091   1.351
 7052TIP3   OH221119   4.451   0.454   4.824
 7052TIP3    H121120   4.506   0.390   4.780
 7052TIP3    H221121   4.395   0.489   4.754
 7053TIP3   OH221122   1.662   0.252   0.100
 7053TIP3    H121123   1.723   0.323   0.081
 7053TIP3    H221124   1.590   0.264   0.038
 7054TIP3   OH221125   2.734   2.434   0.033
 7054TIP3    H121126   2.809   2.387   0.068
 7054TIP3    H221127   2.770   2.517   0.001
 7055TIP3   OH221128   6.137   1.945   5.084
 7055TIP3    H121129   6.067   1.933   5.148
 7055TIP3    H221130   6.163   1.856   5.060
 7056TIP3   OH221131   1.080   0.679   2.499
 7056TIP3    H121132   1.058   0.597   2.544
 7056TIP3    H221133   1.079   0.657   2.406
 7057TIP3   OH221134   4.994   3.738   3.758
 7057TIP3    H121135   5.033   3.657   3.792
 7057TIP3    H221136   4.974   3.790   3.835
 7058TIP3   OH221137   4.157   4.601   1.767
 7058TIP3    H121138   4.232   4.644   1.808
 7058TIP3    H221139   4.186   4.511   1.751
 7059TIP3   OH221140   2.693   5.763   5.001
 7059TIP3    H121141   2.704   5.678   4.960
 7059TIP3    H221142   2.773   5.811   4.979
 7060TIP3   OH221143   6.863   5.849   0.102
 7060TIP3    H121144   6.885   5.793   0.027
 7060TIP3    H221145   6.795   5.801   0.149
 7061TIP3   OH221146   4.854   2.581   4.688
 7061TIP3    H121147   4.796   2.646   4.647
 7061TIP3    H221148   4.861   2.611   4.779
 7062TIP3   OH221149   1.804   4.260   1.112
 7062TIP3    H121150   1.800   4.289   1.020
 7062TIP3    H221151   1.758   4.329   1.160
 7063TIP3   OH221152   3.789   0.704   4.743
 7063TIP3    H121153   3.827   0.736   4.825
 7063TIP3    H221154   3.719   0.644   4.770
 7064TIP3   OH221155   2.609   5.765   5.762
 7064TIP3    H121156   2.682   5.719   5.804
 7064TIP3    H221157   2.540   5.766   5.828
 7065TIP3   OH221158   1.937   5.147   5.208
 7065TIP3    H121159   2.027   5.130   5.236
 7065TIP3    H221160   1.929   5.242   5.210
 7066TIP3   OH221161   4.352   4.379   4.633
 7066TIP3    H121162   4.296   4.312   4.594
 7066TIP3    H221163   4.420   4.329   4.678
 7067TIP3   OH221164   2.707   2.686   0.869
 7067TIP3    H121165   2.755   2.679   0.952
 7067TIP3    H221166   2.773   2.717   0.806
 7068TIP3   OH221167   0.147   2.555   0.875
 7068TIP3    H121168   0.146   2.462   0.851
 7068TIP3    H221169   0.209   2.560   0.948
 7069TIP3   OH221170   1.572   0.770   0.940
 7069TIP3    H121171   1.609   0.719   0.868
 7069TIP3    H221172   1.628   0.751   1.015
 7070TIP3   OH221173   6.722   0.295   1.849
 7070TIP3    H121174   6.785   0.223   1.846
 7070TIP3    H221175   6.648   0.260   1.899
 7071TIP3   OH221176   5.679   2.916   3.480
 7071TIP3    H121177   5.645   2.899   3.392
 7071TIP3    H221178   5.767   2.950   3.466
 7072TIP3   OH221179   3.966   1.865   2.102
 7072TIP3    H121180   4.049   1.868   2.150
 7072TIP3    H221181   3.961   1.949   2.057
 7073TIP3   OH221182   0.294   0.754   1.085
 7073TIP3    H121183   0.292   0.663   1.056
 7073TIP3    H221184   0.330   0.750   1.174
 7074TIP3   OH221185   3.803   1.662   4.905
 7074TIP3    H121186   3.851   1.620   4.833
 7074TIP3    H221187   3.840   1.622   4.984
 7075TIP3   OH221188   3.029   3.534   1.711
 7075TIP3    H121189   3.027   3.616   1.761
 7075TIP3    H221190   3.037   3.561   1.620
 7076TIP3   OH221191   2.589   1.264   5.541
 7076TIP3    H121192   2.510   1.277   5.488
 7076TIP3    H221193   2.563   1.198   5.605
 7077TIP3   OH221194   1.273   5.367   2.914
 7077TIP3    H121195   1.221   5.439   2.949
 7077TIP3    H221196   1.230   5.288   2.948
 7078TIP3   OH221197   7.039   6.785   3.186
 7078TIP3    H121198   7.069   6.694   3.195
 7078TIP3    H221199   7.068   6.828   3.266
 7079TIP3   OH221200   5.848   4.813   5.601
 7079TIP3    H121201   5.764   4.768   5.607
 7079TIP3    H221202   5.855   4.861   5.683
 7080TIP3   OH221203   1.509   2.653   0.931
 7080TIP3    H121204   1.601   2.680   0.935
 7080TIP3    H221205   1.510   2.559   0.949
 7081TIP3   OH221206   2.571   3.253   0.463
 7081TIP3    H121207   2.481   3.250   0.431
 7081TIP3    H221208   2.624   3.251   0.383
 7082TIP3   OH221209   7.104   5.279   5.861
 7082TIP3    H121210   7.147   5.204   5.902
 7082TIP3    H221211   7.012   5.272   5.888
 7083TIP3   OH221212   0.889   2.383   4.717
 7083TIP3    H121213   0.860   2.371   4.808
 7083TIP3    H221214   0.908   2.476   4.710
 7084TIP3   OH221215   5.198   3.664   2.841
 7084TIP3    H121216   5.220   3.573   2.824
 7084TIP3    H221217   5.160   3.664   2.929
 7085TIP3   OH221218   5.144   5.813   4.192
 7085TIP3    H121219   5.170   5.820   4.100
 7085TIP3    H221220   5.157   5.901   4.227
 7086TIP3   OH221221   4.914   5.483   4.522
 7086TIP3    H121222   4.829   5.521   4.503
 7086TIP3    H221223   4.976   5.554   4.509
 7087TIP3   OH221224   2.920   4.236   3.081
 7087TIP3    H121225   2.912   4.198   2.993
 7087TIP3    H221226   2.975   4.313   3.069
 7088TIP3   OH221227   4.576   6.428   1.584
 7088TIP3    H121228   4.509   6.370   1.548
 7088TIP3    H221229   4.527   6.496   1.630
 7089TIP3   OH221230   0.990   1.949   4.092
 7089TIP3    H121231   0.900   1.918   4.080
 7089TIP3    H221232   1.043   1.869   4.091
 7090TIP3   OH221233   4.514   0.098   4.583
 7090TIP3    H121234   4.523   0.048   4.503
 7090TIP3    H221235   4.481   0.183   4.555
 7091TIP3   OH221236   1.900   3.301   1.307
 7091TIP3    H121237   1.839   3.371   1.284
 7091TIP3    H221238   1.985   3.344   1.310
 7092TIP3   OH221239   6.834   5.862   4.065
 7092TIP3    H121240   6.819   5.945   4.110
 7092TIP3    H221241   6.879   5.807   4.130
 7093TIP3   OH221242   2.567   3.194   1.173
 7093TIP3    H121243   2.527   3.239   1.099
 7093TIP3    H221244   2.574   3.103   1.145
 7094TIP3   OH221245   2.262   5.042   3.513
 7094TIP3    H121246   2.281   4.955   3.548
 7094TIP3    H221247   2.329   5.099   3.551
 7095TIP3   OH221248   6.003   0.889   3.316
 7095TIP3    H121249   5.937   0.893   3.385
 7095TIP3    H221250   6.008   0.797   3.292
 7096TIP3   OH221251   2.259   4.743   1.443
 7096TIP3    H121252   2.291   4.760   1.354
 7096TIP3    H221253   2.220   4.826   1.470
 7097TIP3   OH221254   3.981   5.945   5.573
 7097TIP3    H121255   3.971   5.908   5.485
 7097TIP3    H221256   4.055   5.898   5.611
 7098TIP3   OH221257   1.120   4.357   0.800
 7098TIP3    H121258   1.090   4.432   0.748
 7098TIP3    H221259   1.040   4.314   0.829
 7099TIP3   OH221260   2.129   4.690   3.880
 7099TIP3    H121261   2.051   4.725   3.923
 7099TIP3    H221262   2.112   4.702   3.786
 7100TIP3   OH221263   2.083   4.688   2.944
 7100TIP3    H121264   2.008   4.641   2.981
 7100TIP3    H221265   2.090   4.655   2.855
 7101TIP3   OH221266   5.666   2.809   5.590
 7101TIP3    H121267   5.672   2.798   5.495
 7101TIP3    H221268   5.584   2.855   5.603
 7102TIP3   OH221269   2.329   1.346   1.228
 7102TIP3    H121270   2.392   1.308   1.290
 7102TIP3    H221271   2.362   1.434   1.211
 7103TIP3   OH221272   7.155   5.260   1.466
 7103TIP3    H121273   7.146   5.229   1.556
 7103TIP3    H221274   7.082   5.219   1.419
 7104TIP3   OH221275   0.381   4.997   2.346
 7104TIP3    H121276   0.465   5.033   2.318
 7104TIP3    H221277   0.399   4.961   2.433
 7105TIP3   OH221278   5.062   5.208   3.660
 7105TIP3    H121279   5.050   5.256   3.741
 7105TIP3    H221280   4.987   5.149   3.655
 7106TIP3   OH221281   3.444   5.580   5.295
 7106TIP3    H121282   3.480   5.643   5.232
 7106TIP3    H221283   3.368   5.625   5.333
 7107TIP3   OH221284   7.198   1.100   1.864
 7107TIP3    H121285   7.202   1.036   1.935
 7107TIP3    H221286   7.150   1.055   1.794
 7108TIP3   OH221287   2.033   1.248   2.636
 7108TIP3    H121288   2.079   1.177   2.592
 7108TIP3    H221289   2.008   1.308   2.566
 7109TIP3   OH221290   3.522   3.058   1.827
 7109TIP3    H121291   3.494   3.107   1.750
 7109TIP3    H221292   3.441   3.031   1.869
 7110TIP3   OH221293   1.915   5.990   5.428
 7110TIP3    H121294   1.924   5.904   5.471
 7110TIP3    H221295   1.886   6.048   5.498
 7111TIP3   OH221296   5.288   4.307   3.278
 7111TIP3    H121297   5.200   4.270   3.289
 7111TIP3    H221298   5.322   4.317   3.367
 7112TIP3   OH221299   6.223   4.653   1.660
 7112TIP3    H121300   6.289   4.589   1.685
 7112TIP3    H221301   6.273   4.731   1.637
 7113TIP3   OH221302   1.279   5.280   3.938
 7113TIP3    H121303   1.331   5.342   3.989
 7113TIP3    H221304   1.296   5.304   3.847
 7114TIP3   OH221305   0.735   3.904   5.627
 7114TIP3    H121306   0.724   3.950   5.544
 7114TIP3    H221307   0.727   3.811   5.605
 7115TIP3   OH221308   5.589   6.110   2.703
 7115TIP3    H121309   5.613   6.163   2.626
 7115TIP3    H221310   5.526   6.164   2.750
 7116TIP3   OH221311   5.473   4.338   3.734
 7116TIP3    H121312   5.437   4.302   3.653
 7116TIP3    H221313   5.498   4.262   3.785
 7117TIP3   OH221314   2.088   3.884   2.224
 7117TIP3    H121315   2.021   3.900   2.289
 7117TIP3    H221316   2.171   3.901   2.269
 7118TIP3   OH221317   2.593   2.884   4.069
 7118TIP3    H121318   2.558   2.878   4.158
 7118TIP3    H221319   2.687   2.900   4.081
 7119TIP3   OH221320   5.171   3.142   3.338
 7119TIP3    H121321   5.178   3.085   3.415
 7119TIP3    H221322   5.096   3.198   3.357
 7120TIP3   OH221323   4.350   1.967   0.750
 7120TIP3    H121324   4.287   1.918   0.697
 7120TIP3    H221325   4.371   2.044   0.697
 7121TIP3   OH221326   3.878   4.435   5.240
 7121TIP3    H121327   3.972   4.450   5.229
 7121TIP3    H221328   3.850   4.398   5.157
 7122TIP3   OH221329   0.375   5.408   3.786
 7122TIP3    H121330   0.464   5.391   3.816
 7122TIP3    H221331   0.321   5.401   3.865
 7123TIP3   OH221332   4.615   3.948   2.613
 7123TIP3    H121333   4.590   3.890   2.685
 7123TIP3    H221334   4.536   3.955   2.560
 7124TIP3   OH221335   1.038   5.915   4.749
 7124TIP3    H121336   1.046   5.999   4.795
 7124TIP3    H221337   1.115   5.911   4.693
 7125TIP3   OH221338   6.640   2.732   5.062
 7125TIP3    H121339   6.578   2.721   5.134
 7125TIP3    H221340   6.620   2.660   5.002
 7126TIP3   OH221341   5.822   2.742   0.530
 7126TIP3    H121342   5.832   2.795   0.451
 7126TIP3    H221343   5.910   2.734   0.565
 7127TIP3   OH221344   4.017   1.679   2.790
 7127TIP3    H121345   3.926   1.651   2.782
 7127TIP3    H221346   4.015   1.772   2.770
 7128TIP3   OH221347   1.050   0.987   2.136
 7128TIP3    H121348   1.054   1.065   2.192
 7128TIP3    H221349   1.135   0.983   2.094
 7129TIP3   OH221350   2.824   1.208   1.049
 7129TIP3    H121351   2.857   1.118   1.052
 7129TIP3    H221352   2.874   1.255   1.116
 7130TIP3   OH221353   6.345   0.068   5.100
 7130TIP3    H121354   6.400   0.048   5.024
 7130TIP3    H221355   6.402   0.057   5.175
 7131TIP3   OH221356   1.198   5.425   5.877
 7131TIP3    H121357   1.232   5.337   5.859
 7131TIP3    H221358   1.152   5.449   5.797
 7132TIP3   OH221359   2.559   5.514   2.104
 7132TIP3    H121360   2.642   5.561   2.097
 7132TIP3    H221361   2.506   5.547   2.032
 7133TIP3   OH221362   3.224   2.380   4.837
 7133TIP3    H121363   3.144   2.395   4.888
 7133TIP3    H221364   3.193   2.370   4.747
 7134TIP3   OH221365   6.239   5.546   0.471
 7134TIP3    H121366   6.167   5.523   0.412
 7134TIP3    H221367   6.202   5.611   0.531
 7135TIP3   OH221368   2.153   1.290   4.332
 7135TIP3    H121369   2.139   1.265   4.241
 7135TIP3    H221370   2.067   1.285   4.373
 7136TIP3   OH221371   4.782   2.350   1.553
 7136TIP3    H121372   4.785   2.441   1.582
 7136TIP3    H221373   4.816   2.300   1.627
 7137TIP3   OH221374   1.911   6.522   1.542
 7137TIP3    H121375   1.941   6.579   1.613
 7137TIP3    H221376   1.849   6.575   1.492
 7138TIP3   OH221377   7.010   4.580   0.461
 7138TIP3    H121378   6.960   4.552   0.385
 7138TIP3    H221379   6.944   4.603   0.526
 7139TIP3   OH221380   5.072   1.880   2.130
 7139TIP3    H121381   4.994   1.829   2.107
 7139TIP3    H221382   5.115   1.897   2.046
 7140TIP3   OH221383   6.520   3.689   5.069
 7140TIP3    H121384   6.477   3.668   4.987
 7140TIP3    H221385   6.525   3.606   5.116
 7141TIP3   OH221386   3.639   4.583   3.264
 7141TIP3    H121387   3.650   4.629   3.181
 7141TIP3    H221388   3.728   4.571   3.297
 7142TIP3   OH221389   3.606   6.131   0.495
 7142TIP3    H121390   3.657   6.132   0.414
 7142TIP3    H221391   3.660   6.178   0.558
 7143TIP3   OH221392   2.839   6.095   1.203
 7143TIP3    H121393   2.853   6.152   1.128
 7143TIP3    H221394   2.786   6.023   1.169
 7144TIP3   OH221395   0.234   5.349   1.609
 7144TIP3    H121396   0.160   5.406   1.587
 7144TIP3    H221397   0.308   5.409   1.620
 7145TIP3   OH221398   0.824   5.129   1.776
 7145TIP3    H121399   0.917   5.153   1.770
 7145TIP3    H221400   0.810   5.070   1.702
 7146TIP3   OH221401   5.552   5.433   1.408
 7146TIP3    H121402   5.543   5.435   1.313
 7146TIP3    H221403   5.523   5.520   1.437
 7147TIP3   OH221404   5.257   2.950   2.246
 7147TIP3    H121405   5.220   2.876   2.199
 7147TIP3    H221406   5.312   2.995   2.182
 7148TIP3   OH221407   0.760   1.414   2.255
 7148TIP3    H121408   0.734   1.336   2.305
 7148TIP3    H221409   0.822   1.459   2.312
 7149TIP3   OH221410   4.642   2.985   0.918
 7149TIP3    H121411   4.684   2.920   0.861
 7149TIP3    H221412   4.552   2.988   0.887
 7150TIP3   OH221413   6.735   0.708   4.185
 7150TIP3    H121414   6.706   0.665   4.105
 7150TIP3    H221415   6.732   0.640   4.252
 7151TIP3   OH221416   4.916   6.190   1.125
 7151TIP3    H121417   5.006   6.206   1.153
 7151TIP3    H221418   4.891   6.271   1.080
 7152TIP3   OH221419   7.203   1.936   4.089
 7152TIP3    H121420   7.140   1.877   4.047
 7152TIP3    H221421   7.214   2.007   4.026
 7153TIP3   OH221422   3.270   5.007   3.438
 7153TIP3    H121423   3.253   4.922   3.398
 7153TIP3    H221424   3.316   4.986   3.520
 7154TIP3   OH221425   6.096   3.510   3.772
 7154TIP3    H121426   6.191   3.518   3.764
 7154TIP3    H221427   6.075   3.554   3.854
 7155TIP3   OH221428   4.970   2.845   5.386
 7155TIP3    H121429   4.984   2.866   5.479
 7155TIP3    H221430   4.876   2.827   5.380
 7156TIP3   OH221431   3.063   0.449   5.056
 7156TIP3    H121432   3.011   0.399   4.993
 7156TIP3    H221433   2.999   0.486   5.117
 7157TIP3   OH221434   4.358   3.876   3.090
 7157TIP3    H121435   4.396   3.794   3.119
 7157TIP3    H221436   4.265   3.857   3.080
 7158TIP3   OH221437   1.817   1.122   5.366
 7158TIP3    H121438   1.824   1.147   5.274
 7158TIP3    H221439   1.860   1.193   5.413
 7159TIP3   OH221440   5.837   5.734   1.485
 7159TIP3    H121441   5.810   5.673   1.553
 7159TIP3    H221442   5.756   5.762   1.443
 7160TIP3   OH221443   0.296   6.362   4.325
 7160TIP3    H121444   0.366   6.369   4.260
 7160TIP3    H221445   0.324   6.292   4.384
 7161TIP3   OH221446   6.311   0.572   4.713
 7161TIP3    H121447   6.313   0.636   4.784
 7161TIP3    H221448   6.403   0.548   4.700
 7162TIP3   OH221449   6.486   6.730   3.920
 7162TIP3    H121450   6.480   6.721   4.016
 7162TIP3    H221451   6.402   6.768   3.894
 7163TIP3   OH221452   2.840   1.483   2.149
 7163TIP3    H121453   2.786   1.480   2.070
 7163TIP3    H221454   2.824   1.569   2.186
 7164TIP3   OH221455   4.833   3.697   1.735
 7164TIP3    H121456   4.779   3.774   1.755
 7164TIP3    H221457   4.903   3.731   1.680
 7165TIP3   OH221458   1.935   1.880   2.320
 7165TIP3    H121459   1.922   1.825   2.397
 7165TIP3    H221460   1.910   1.968   2.349
 7166TIP3   OH221461   5.129   5.605   0.064
 7166TIP3    H121462   5.192   5.575   0.130
 7166TIP3    H221463   5.048   5.620   0.113
 7167TIP3   OH221464   5.990   0.969   5.735
 7167TIP3    H121465   6.017   0.990   5.824
 7167TIP3    H221466   5.937   0.890   5.743
 7168TIP3   OH221467   1.849   0.577   3.481
 7168TIP3    H121468   1.869   0.487   3.505
 7168TIP3    H221469   1.769   0.598   3.529
 7169TIP3   OH221470   2.222   2.818   1.410
 7169TIP3    H121471   2.180   2.890   1.363
 7169TIP3    H221472   2.153   2.752   1.419
 7170TIP3   OH221473   0.721   1.152   0.122
 7170TIP3    H121474   0.782   1.218   0.156
 7170TIP3    H221475   0.771   1.070   0.124
 7171TIP3   OH221476   0.604   5.223   5.857
 7171TIP3    H121477   0.662   5.254   5.787
 7171TIP3    H221478   0.557   5.149   5.819
 7172TIP3   OH221479   5.949   2.982   3.438
 7172TIP3    H121480   5.933   3.076   3.428
 7172TIP3    H221481   6.038   2.970   3.404
 7173TIP3   OH221482   0.206   0.558   4.913
 7173TIP3    H121483   0.292   0.600   4.904
 7173TIP3    H221484   0.223   0.482   4.970
 7174TIP3   OH221485   6.854   0.988   4.428
 7174TIP3    H121486   6.886   0.903   4.459
 7174TIP3    H221487   6.855   1.044   4.506
 7175TIP3   OH221488   3.043   6.312   4.051
 7175TIP3    H121489   3.030   6.387   4.109
 7175TIP3    H221490   2.957   6.269   4.049
 7176TIP3   OH221491   1.959   6.052   2.553
 7176TIP3    H121492   2.041   6.095   2.577
 7176TIP3    H221493   1.959   6.052   2.457
 7177TIP3   OH221494   7.131   1.688   2.215
 7177TIP3    H121495   7.130   1.610   2.159
 7177TIP3    H221496   7.203   1.672   2.276
 7178TIP3   OH221497   1.912   5.908   1.253
 7178TIP3    H121498   1.999   5.931   1.223
 7178TIP3    H221499   1.900   5.818   1.223
 7179TIP3   OH221500   6.336   0.091   5.709
 7179TIP3    H121501   6.322   0.023   5.643
 7179TIP3    H221502   6.420   0.068   5.750
 7180TIP3   OH221503   2.840   4.710   5.643
 7180TIP3    H121504   2.757   4.740   5.606
 7180TIP3    H221505   2.907   4.759   5.596
 7181TIP3   OH221506   1.004   0.838   2.933
 7181TIP3    H121507   1.072   0.878   2.987
 7181TIP3    H221508   1.047   0.762   2.893
 7182TIP3   OH221509   2.484   5.497   4.168
 7182TIP3    H121510   2.558   5.559   4.168
 7182TIP3    H221511   2.440   5.513   4.251
 7183TIP3   OH221512   4.420   5.757   1.297
 7183TIP3    H121513   4.491   5.702   1.329
 7183TIP3    H221514   4.341   5.705   1.309
 7184TIP3   OH221515   2.354   5.682   5.244
 7184TIP3    H121516   2.322   5.761   5.287
 7184TIP3    H221517   2.364   5.619   5.315
 7185TIP3   OH221518   5.685   3.210   3.988
 7185TIP3    H121519   5.607   3.211   4.043
 7185TIP3    H221520   5.725   3.125   4.004
 7186TIP3   OH221521   1.262   4.824   0.494
 7186TIP3    H121522   1.283   4.756   0.558
 7186TIP3    H221523   1.346   4.847   0.454
 7187TIP3   OH221524   4.471   2.833   2.729
 7187TIP3    H121525   4.491   2.758   2.673
 7187TIP3    H221526   4.556   2.864   2.759
 7188TIP3   OH221527   4.213   0.338   5.493
 7188TIP3    H121528   4.159   0.263   5.467
 7188TIP3    H221529   4.261   0.307   5.569
 7189TIP3   OH221530   2.458   4.514   4.482
 7189TIP3    H121531   2.472   4.483   4.392
 7189TIP3    H221532   2.538   4.562   4.502
 7190TIP3   OH221533   1.260   1.321   4.235
 7190TIP3    H121534   1.230   1.411   4.245
 7190TIP3    H221535   1.181   1.272   4.213
 7191TIP3   OH221536   0.632   0.721   0.066
 7191TIP3    H121537   0.596   0.640   0.030
 7191TIP3    H221538   0.668   0.696   0.151
 7192TIP3   OH221539   2.586   3.345   3.559
 7192TIP3    H121540   2.669   3.313   3.523
 7192TIP3    H221541   2.565   3.285   3.630
 7193TIP3   OH221542   4.813   0.306   3.263
 7193TIP3    H121543   4.883   0.276   3.321
 7193TIP3    H221544   4.859   0.344   3.188
 7194TIP3   OH221545   5.797   3.885   5.216
 7194TIP3    H121546   5.825   3.889   5.124
 7194TIP3    H221547   5.857   3.942   5.263
 7195TIP3   OH221548   6.855   1.067   3.563
 7195TIP3    H121549   6.921   0.998   3.554
 7195TIP3    H221550   6.883   1.115   3.641
 7196TIP3   OH221551   5.465   4.687   4.678
 7196TIP3    H121552   5.377   4.677   4.642
 7196TIP3    H221553   5.470   4.621   4.747
 7197TIP3   OH221554   7.059   4.120   2.919
 7197TIP3    H121555   7.117   4.091   2.849
 7197TIP3    H221556   7.101   4.091   3.000
 7198TIP3   OH221557   0.370   2.845   5.073
 7198TIP3    H121558   0.322   2.816   4.995
 7198TIP3    H221559   0.457   2.808   5.063
 7199TIP3   OH221560   0.492   0.711   4.395
 7199TIP3    H121561   0.522   0.802   4.399
 7199TIP3    H221562   0.544   0.671   4.325
 7200TIP3   OH221563   5.053   0.165   3.848
 7200TIP3    H121564   5.060   0.259   3.831
 7200TIP3    H221565   5.003   0.131   3.773
 7201TIP3   OH221566   6.014   6.133   5.004
 7201TIP3    H121567   6.091   6.091   5.041
 7201TIP3    H221568   5.940   6.088   5.045
 7202TIP3   OH221569   3.061   0.702   2.456
 7202TIP3    H121570   2.975   0.739   2.439
 7202TIP3    H221571   3.053   0.610   2.429
 7203TIP3   OH221572   2.772   6.690   3.215
 7203TIP3    H121573   2.756   6.647   3.131
 7203TIP3    H221574   2.822   6.769   3.192
 7204TIP3   OH221575   3.876   6.433   5.261
 7204TIP3    H121576   3.968   6.430   5.287
 7204TIP3    H221577   3.850   6.341   5.257
 7205TIP3   OH221578   6.555   6.269   1.825
 7205TIP3    H121579   6.646   6.240   1.823
 7205TIP3    H221580   6.535   6.279   1.918
 7206TIP3   OH221581   6.484   0.083   3.411
 7206TIP3    H121582   6.413   0.138   3.381
 7206TIP3    H221583   6.553   0.145   3.436
 7207TIP3   OH221584   5.595   1.712   0.862
 7207TIP3    H121585   5.552   1.753   0.787
 7207TIP3    H221586   5.547   1.743   0.938
 7208TIP3   OH221587   6.760   1.827   3.464
 7208TIP3    H121588   6.674   1.800   3.432
 7208TIP3    H221589   6.755   1.815   3.559
 7209TIP3   OH221590   4.300   5.078   3.024
 7209TIP3    H121591   4.393   5.064   3.044
 7209TIP3    H221592   4.254   5.019   3.084
 7210TIP3   OH221593   5.473   2.446   2.444
 7210TIP3    H121594   5.545   2.496   2.404
 7210TIP3    H221595   5.440   2.392   2.372
 7211TIP3   OH221596   5.064   2.697   3.259
 7211TIP3    H121597   5.155   2.723   3.246
 7211TIP3    H221598   5.029   2.689   3.170
 7212TIP3   OH221599   1.302   1.214   4.505
 7212TIP3    H121600   1.324   1.246   4.418
 7212TIP3    H221601   1.213   1.246   4.521
 7213TIP3   OH221602   2.486   2.763   3.843
 7213TIP3    H121603   2.548   2.774   3.771
 7213TIP3    H221604   2.536   2.784   3.922
 7214TIP3   OH221605   2.727   0.585   1.375
 7214TIP3    H121606   2.730   0.591   1.280
 7214TIP3    H221607   2.767   0.667   1.406
 7215TIP3   OH221608   1.629   4.495   1.956
 7215TIP3    H121609   1.575   4.471   1.881
 7215TIP3    H221610   1.648   4.412   2.000
 7216TIP3   OH221611   0.329   1.951   0.787
 7216TIP3    H121612   0.399   1.984   0.730
 7216TIP3    H221613   0.251   1.953   0.732
 7217TIP3   OH221614   4.745   1.806   1.327
 7217TIP3    H121615   4.789   1.743   1.385
 7217TIP3    H221616   4.749   1.765   1.241
 7218TIP3   OH221617   2.674   4.099   3.194
 7218TIP3    H121618   2.746   4.161   3.206
 7218TIP3    H221619   2.618   4.140   3.128
 7219TIP3   OH221620   6.106   4.187   1.110
 7219TIP3    H121621   6.141   4.110   1.065
 7219TIP3    H221622   6.037   4.219   1.051
 7220TIP3   OH221623   4.849   5.723   4.209
 7220TIP3    H121624   4.835   5.750   4.118
 7220TIP3    H221625   4.933   5.760   4.233
 7221TIP3   OH221626   6.498   1.725   5.676
 7221TIP3    H121627   6.414   1.769   5.687
 7221TIP3    H221628   6.475   1.638   5.642
 7222TIP3   OH221629   5.196   3.320   0.891
 7222TIP3    H121630   5.214   3.262   0.966
 7222TIP3    H221631   5.134   3.271   0.838
 7223TIP3   OH221632   4.032   1.628   4.131
 7223TIP3    H121633   4.033   1.642   4.037
 7223TIP3    H221634   4.034   1.532   4.141
 7224TIP3   OH221635   3.912   6.057   0.695
 7224TIP3    H121636   3.901   5.971   0.655
 7224TIP3    H221637   3.873   6.049   0.782
 7225TIP3   OH221638   0.923   3.144   3.451
 7225TIP3    H121639   0.865   3.073   3.475
 7225TIP3    H221640   1.004   3.128   3.500
 7226TIP3   OH221641   7.152   5.982   1.083
 7226TIP3    H121642   7.225   5.969   1.145
 7226TIP3    H221643   7.091   6.038   1.131
 7227TIP3   OH221644   3.985   3.141   1.393
 7227TIP3    H121645   3.966   3.083   1.319
 7227TIP3    H221646   4.007   3.082   1.465
 7228TIP3   OH221647   0.588   3.319   2.558
 7228TIP3    H121648   0.658   3.348   2.499
 7228TIP3    H221649   0.520   3.386   2.549
 7229TIP3   OH221650   5.062   5.216   5.837
 7229TIP3    H121651   5.066   5.205   5.932
 7229TIP3    H221652   5.079   5.309   5.823
 7230TIP3   OH221653   5.355   2.970   3.915
 7230TIP3    H121654   5.273   2.959   3.868
 7230TIP3    H221655   5.416   3.002   3.850
 7231TIP3   OH221656   5.183   1.658   1.720
 7231TIP3    H121657   5.278   1.647   1.721
 7231TIP3    H221658   5.165   1.700   1.636
 7232TIP3   OH221659   3.792   2.100   3.331
 7232TIP3    H121660   3.826   2.174   3.281
 7232TIP3    H221661   3.783   2.133   3.420
 7233TIP3   OH221662   1.232   4.221   0.400
 7233TIP3    H121663   1.274   4.305   0.381
 7233TIP3    H221664   1.142   4.232   0.368
 7234TIP3   OH221665   0.137   5.222   5.425
 7234TIP3    H121666   0.073   5.152   5.411
 7234TIP3    H221667   0.085   5.302   5.423
 7235TIP3   OH221668   4.715   4.186   3.079
 7235TIP3    H121669   4.619   4.188   3.075
 7235TIP3    H221670   4.738   4.261   3.134
 7236TIP3   OH221671   6.671   2.573   0.175
 7236TIP3    H121672   6.763   2.556   0.193
 7236TIP3    H221673   6.670   2.659   0.134
 7237TIP3   OH221674   0.064   6.203   0.688
 7237TIP3    H121675   0.153   6.223   0.659
 7237TIP3    H221676   0.063   6.109   0.701
 7238TIP3   OH221677   2.085   6.521   2.283
 7238TIP3    H121678   2.089   6.560   2.371
 7238TIP3    H221679   1.993   6.496   2.272
 7239TIP3   OH221680   4.292   2.120   5.232
 7239TIP3    H121681   4.365   2.113   5.171
 7239TIP3    H221682   4.250   2.203   5.210
 7240TIP3   OH221683   4.631   3.136   5.812
 7240TIP3    H121684   4.548   3.129   5.860
 7240TIP3    H221685   4.628   3.064   5.748
 7241TIP3   OH221686   5.297   5.119   3.543
 7241TIP3    H121687   5.332   5.207   3.532
 7241TIP3    H221688   5.218   5.130   3.595
 7242TIP3   OH221689   6.590   2.426   5.399
 7242TIP3    H121690   6.677   2.388   5.413
 7242TIP3    H221691   6.552   2.371   5.330
 7243TIP3   OH221692   7.108   4.315   4.899
 7243TIP3    H121693   7.047   4.252   4.860
 7243TIP3    H221694   7.091   4.396   4.852
 7244TIP3   OH221695   3.339   5.547   1.746
 7244TIP3    H121696   3.381   5.527   1.829
 7244TIP3    H221697   3.277   5.617   1.766
 7245TIP3   OH221698   6.866   2.479   4.314
 7245TIP3    H121699   6.886   2.518   4.399
 7245TIP3    H221700   6.825   2.395   4.335
 7246TIP3   OH221701   1.676   0.601   0.734
 7246TIP3    H121702   1.693   0.635   0.646
 7246TIP3    H221703   1.722   0.517   0.736
 7247TIP3   OH221704   1.092   0.443   2.657
 7247TIP3    H121705   1.161   0.432   2.592
 7247TIP3    H221706   1.080   0.355   2.694
 7248TIP3   OH221707   1.572   6.386   5.576
 7248TIP3    H121708   1.494   6.339   5.543
 7248TIP3    H221709   1.571   6.469   5.529
 7249TIP3   OH221710   6.518   3.899   4.744
 7249TIP3    H121711   6.502   3.940   4.829
 7249TIP3    H221712   6.611   3.876   4.746
 7250TIP3   OH221713   4.981   1.167   1.709
 7250TIP3    H121714   5.068   1.139   1.738
 7250TIP3    H221715   4.999   1.230   1.639
 7251TIP3   OH221716   1.012   3.798   1.008
 7251TIP3    H121717   0.921   3.828   1.016
 7251TIP3    H221718   1.063   3.878   1.002
 7252TIP3   OH221719   1.757   1.641   5.776
 7252TIP3    H121720   1.692   1.576   5.801
 7252TIP3    H221721   1.706   1.715   5.744
 7253TIP3   OH221722   1.258   0.373   3.979
 7253TIP3    H121723   1.169   0.372   4.016
 7253TIP3    H221724   1.246   0.348   3.888
 7254TIP3   OH221725   2.671   3.030   2.430
 7254TIP3    H121726   2.710   3.071   2.353
 7254TIP3    H221727   2.694   3.088   2.502
 7255TIP3   OH221728   1.668   6.768   5.629
 7255TIP3    H121729   1.723   6.795   5.555
 7255TIP3    H221730   1.703   6.682   5.654
 7256TIP3   OH221731   0.121   6.712   2.442
 7256TIP3    H121732   0.119   6.711   2.537
 7256TIP3    H221733   0.158   6.798   2.420
 7257TIP3   OH221734   4.147   3.404   2.234
 7257TIP3    H121735   4.134   3.378   2.325
 7257TIP3    H221736   4.079   3.356   2.186
 7258TIP3   OH221737   2.861   0.386   1.486
 7258TIP3    H121738   2.813   0.451   1.434
 7258TIP3    H221739   2.951   0.418   1.486
 7259TIP3   OH221740   4.962   1.843   5.413
 7259TIP3    H121741   4.914   1.908   5.361
 7259TIP3    H221742   5.054   1.857   5.389
 7260TIP3   OH221743   0.171   2.669   4.482
 7260TIP3    H121744   0.136   2.618   4.556
 7260TIP3    H221745   0.221   2.605   4.431
 7261TIP3   OH221746   2.793   2.025   1.406
 7261TIP3    H121747   2.720   2.026   1.345
 7261TIP3    H221748   2.758   2.062   1.487
 7262TIP3   OH221749   7.180   4.402   2.844
 7262TIP3    H121750   7.145   4.314   2.830
 7262TIP3    H221751   7.182   4.441   2.756
 7263TIP3   OH221752   0.313   5.437   3.528
 7263TIP3    H121753   0.309   5.409   3.619
 7263TIP3    H221754   0.402   5.417   3.500
 7264TIP3   OH221755   1.156   3.697   2.393
 7264TIP3    H121756   1.087   3.665   2.334
 7264TIP3    H221757   1.236   3.655   2.361
 7265TIP3   OH221758   5.985   1.334   2.451
 7265TIP3    H121759   6.073   1.330   2.487
 7265TIP3    H221760   5.928   1.314   2.525
 7266TIP3   OH221761   5.644   3.906   5.602
 7266TIP3    H121762   5.576   3.942   5.658
 7266TIP3    H221763   5.607   3.824   5.568
 7267TIP3   OH221764   2.130   5.429   1.162
 7267TIP3    H121765   2.162   5.339   1.148
 7267TIP3    H221766   2.037   5.425   1.139
 7268TIP3   OH221767   0.635   6.097   1.582
 7268TIP3    H121768   0.605   6.018   1.536
 7268TIP3    H221769   0.653   6.160   1.512
 7269TIP3   OH221770   6.059   1.992   4.633
 7269TIP3    H121771   6.036   2.004   4.725
 7269TIP3    H221772   6.118   1.916   4.633
 7270TIP3   OH221773   1.987   3.682   2.044
 7270TIP3    H121774   2.030   3.731   2.114
 7270TIP3    H221775   1.897   3.716   2.043
 7271TIP3   OH221776   1.894   0.123   2.694
 7271TIP3    H121777   1.815   0.131   2.747
 7271TIP3    H221778   1.916   0.030   2.697
 7272TIP3   OH221779   2.949   3.788   4.945
 7272TIP3    H121780   2.965   3.806   4.852
 7272TIP3    H221781   2.878   3.847   4.969
 7273TIP3   OH221782   3.419   3.092   4.065
 7273TIP3    H121783   3.437   3.119   4.155
 7273TIP3    H221784   3.449   3.166   4.012
 7274TIP3   OH221785   0.421   2.829   1.041
 7274TIP3    H121786   0.454   2.778   0.967
 7274TIP3    H221787   0.495   2.885   1.066
 7275TIP3   OH221788   2.435   0.141   2.924
 7275TIP3    H121789   2.501   0.086   2.967
 7275TIP3    H221790   2.430   0.219   2.979
 7276TIP3   OH221791   0.563   2.532   0.335
 7276TIP3    H121792   0.655   2.537   0.308
 7276TIP3    H221793   0.515   2.515   0.254
 7277TIP3   OH221794   1.388   5.212   3.236
 7277TIP3    H121795   1.362   5.176   3.150
 7277TIP3    H221796   1.461   5.158   3.263
 7278TIP3   OH221797   6.980   5.637   5.469
 7278TIP3    H121798   7.041   5.711   5.471
 7278TIP3    H221799   7.015   5.575   5.534
 7279TIP3   OH221800   2.254   6.105   1.949
 7279TIP3    H121801   2.199   6.102   1.870
 7279TIP3    H221802   2.295   6.019   1.953
 7280TIP3   OH221803   5.782   2.242   1.776
 7280TIP3    H121804   5.795   2.148   1.794
 7280TIP3    H221805   5.811   2.285   1.856
 7281TIP3   OH221806   5.250   6.671   2.693
 7281TIP3    H121807   5.289   6.630   2.771
 7281TIP3    H221808   5.227   6.759   2.722
 7282TIP3   OH221809   2.232   3.909   4.907
 7282TIP3    H121810   2.274   3.967   4.843
 7282TIP3    H221811   2.142   3.942   4.914
 7283TIP3   OH221812   4.141   4.135   1.144
 7283TIP3    H121813   4.163   4.095   1.228
 7283TIP3    H221814   4.050   4.164   1.154
 7284TIP3   OH221815   4.185   3.125   4.479
 7284TIP3    H121816   4.236   3.117   4.560
 7284TIP3    H221817   4.118   3.058   4.486
 7285TIP3   OH221818   6.861   2.138   1.051
 7285TIP3    H121819   6.926   2.201   1.080
 7285TIP3    H221820   6.911   2.057   1.036
 7286TIP3   OH221821   2.390   2.790   3.455
 7286TIP3    H121822   2.319   2.780   3.391
 7286TIP3    H221823   2.429   2.874   3.433
 7287TIP3   OH221824   0.662   0.455   5.858
 7287TIP3    H121825   0.678   0.506   5.779
 7287TIP3    H221826   0.705   0.504   5.927
 7288TIP3   OH221827   4.422   5.148   3.556
 7288TIP3    H121828   4.424   5.055   3.534
 7288TIP3    H221829   4.448   5.151   3.648
 7289TIP3   OH221830   5.043   3.024   3.101
 7289TIP3    H121831   5.087   3.027   3.186
 7289TIP3    H221832   5.110   3.051   3.038
 7290TIP3   OH221833   5.362   0.919   4.938
 7290TIP3    H121834   5.283   0.868   4.917
 7290TIP3    H221835   5.422   0.902   4.866
 7291TIP3   OH221836   3.183   4.173   1.802
 7291TIP3    H121837   3.165   4.085   1.772
 7291TIP3    H221838   3.276   4.187   1.783
 7292TIP3   OH221839   5.250   0.398   3.633
 7292TIP3    H121840   5.181   0.422   3.696
 7292TIP3    H221841   5.224   0.439   3.551
 7293TIP3   OH221842   2.893   2.705   3.275
 7293TIP3    H121843   2.984   2.700   3.245
 7293TIP3    H221844   2.899   2.745   3.362
 7294TIP3   OH221845   2.056   5.062   3.960
 7294TIP3    H121846   2.123   5.073   4.027
 7294TIP3    H221847   2.019   4.975   3.977
 7295TIP3   OH221848   4.652   4.278   1.306
 7295TIP3    H121849   4.697   4.193   1.307
 7295TIP3    H221850   4.723   4.342   1.303
 7296TIP3   OH221851   1.591   3.119   0.820
 7296TIP3    H121852   1.527   3.050   0.803
 7296TIP3    H221853   1.537   3.195   0.845
 7297TIP3   OH221854   5.948   1.424   0.591
 7297TIP3    H121855   6.037   1.461   0.589
 7297TIP3    H221856   5.960   1.336   0.627
 7298TIP3   OH221857   2.511   3.565   4.529
 7298TIP3    H121858   2.595   3.520   4.543
 7298TIP3    H221859   2.447   3.495   4.520
 7299TIP3   OH221860   5.905   5.045   4.744
 7299TIP3    H121861   5.844   4.973   4.759
 7299TIP3    H221862   5.916   5.047   4.649
 7300TIP3   OH221863   1.503   2.481   4.115
 7300TIP3    H121864   1.552   2.407   4.079
 7300TIP3    H221865   1.497   2.462   4.209
 7301TIP3   OH221866   4.827   5.802   5.236
 7301TIP3    H121867   4.785   5.785   5.320
 7301TIP3    H221868   4.808   5.894   5.218
 7302TIP3   OH221869   1.820   2.796   4.335
 7302TIP3    H121870   1.757   2.790   4.264
 7302TIP3    H221871   1.832   2.706   4.365
 7303TIP3   OH221872   4.082   3.803   5.334
 7303TIP3    H121873   4.015   3.735   5.332
 7303TIP3    H221874   4.111   3.810   5.243
 7304TIP3   OH221875   2.071   6.758   4.368
 7304TIP3    H121876   1.980   6.772   4.394
 7304TIP3    H221877   2.068   6.760   4.272
 7305TIP3   OH221878   0.090   4.352   2.293
 7305TIP3    H121879   0.033   4.417   2.253
 7305TIP3    H221880   0.066   4.353   2.386
 7306TIP3   OH221881   3.206   0.389   1.090
 7306TIP3    H121882   3.252   0.315   1.129
 7306TIP3    H221883   3.115   0.378   1.116
 7307TIP3   OH221884   0.681   5.695   5.458
 7307TIP3    H121885   0.717   5.674   5.544
 7307TIP3    H221886   0.598   5.648   5.454
 7308TIP3   OH221887   6.471   6.049   4.085
 7308TIP3    H121888   6.479   5.976   4.146
 7308TIP3    H221889   6.539   6.111   4.113
 7309TIP3   OH221890   3.396   5.140   5.230
 7309TIP3    H121891   3.379   5.063   5.285
 7309TIP3    H221892   3.406   5.212   5.292
 7310TIP3   OH221893   5.650   0.288   1.443
 7310TIP3    H121894   5.632   0.338   1.523
 7310TIP3    H221895   5.643   0.197   1.469
 7311TIP3   OH221896   1.860   2.111   1.438
 7311TIP3    H121897   1.837   2.112   1.531
 7311TIP3    H221898   1.802   2.045   1.400
 7312TIP3   OH221899   1.983   4.713   2.262
 7312TIP3    H121900   1.995   4.795   2.309
 7312TIP3    H221901   2.061   4.662   2.283
 7313TIP3   OH221902   7.095   4.207   4.187
 7313TIP3    H121903   7.033   4.263   4.140
 7313TIP3    H221904   7.041   4.162   4.252
 7314TIP3   OH221905   2.608   1.448   1.874
 7314TIP3    H121906   2.525   1.494   1.886
 7314TIP3    H221907   2.618   1.443   1.779
 7315TIP3   OH221908   1.748   4.126   3.077
 7315TIP3    H121909   1.775   4.055   3.135
 7315TIP3    H221910   1.820   4.136   3.015
 7316TIP3   OH221911   2.968   1.706   5.325
 7316TIP3    H121912   2.974   1.713   5.420
 7316TIP3    H221913   2.963   1.612   5.308
 7317TIP3   OH221914   2.243   6.542   5.064
 7317TIP3    H121915   2.230   6.459   5.019
 7317TIP3    H221916   2.163   6.555   5.115
 7318TIP3   OH221917   5.216   3.419   0.548
 7318TIP3    H121918   5.251   3.347   0.600
 7318TIP3    H221919   5.225   3.496   0.604
 7319TIP3   OH221920   2.211   6.323   5.899
 7319TIP3    H121921   2.186   6.376   5.823
 7319TIP3    H221922   2.272   6.258   5.864
 7320TIP3   OH221923   6.744   0.011   1.420
 7320TIP3    H121924   6.738  -0.050   1.347
 7320TIP3    H221925   6.728   0.097   1.382
 7321TIP3   OH221926   3.866   5.088   4.909
 7321TIP3    H121927   3.785   5.140   4.908
 7321TIP3    H221928   3.892   5.086   5.001
 7322TIP3   OH221929   6.675   0.968   0.933
 7322TIP3    H121930   6.672   0.888   0.984
 7322TIP3    H221931   6.761   0.967   0.891
 7323TIP3   OH221932   6.844   0.775   2.938
 7323TIP3    H121933   6.936   0.763   2.962
 7323TIP3    H221934   6.798   0.705   2.984
 7324TIP3   OH221935   5.617   6.387   4.284
 7324TIP3    H121936   5.701   6.397   4.240
 7324TIP3    H221937   5.640   6.363   4.374
 7325TIP3   OH221938   0.260   0.011   4.904
 7325TIP3    H121939   0.249   0.078   4.836
 7325TIP3    H221940   0.174  -0.031   4.910
 7326TIP3   OH221941   3.964   4.887   5.874
 7326TIP3    H121942   3.919   4.926   5.799
 7326TIP3    H221943   4.002   4.962   5.921
 7327TIP3   OH221944   0.111   3.287   4.267
 7327TIP3    H121945   0.139   3.357   4.207
 7327TIP3    H221946   0.016   3.291   4.267
 7328TIP3   OH221947   5.673   6.298   5.845
 7328TIP3    H121948   5.597   6.247   5.817
 7328TIP3    H221949   5.705   6.254   5.923
 7329TIP3   OH221950   3.154   2.505   2.712
 7329TIP3    H121951   3.164   2.589   2.758
 7329TIP3    H221952   3.063   2.480   2.729
 7330TIP3   OH221953   7.148   0.228   2.801
 7330TIP3    H121954   7.101   0.169   2.742
 7330TIP3    H221955   7.101   0.220   2.885
 7331TIP3   OH221956   1.621   3.960   0.111
 7331TIP3    H121957   1.675   4.008   0.173
 7331TIP3    H221958   1.591   4.026   0.049
 7332TIP3   OH221959   6.942   6.697   0.239
 7332TIP3    H121960   7.021   6.748   0.254
 7332TIP3    H221961   6.870   6.759   0.255
 7333TIP3   OH221962   1.905   1.388   1.254
 7333TIP3    H121963   1.905   1.295   1.274
 7333TIP3    H221964   1.918   1.392   1.159
 7334TIP3   OH221965   5.647   2.561   0.167
 7334TIP3    H121966   5.570   2.614   0.189
 7334TIP3    H221967   5.666   2.513   0.247
 7335TIP3   OH221968   7.046   4.667   4.377
 7335TIP3    H121969   7.060   4.611   4.301
 7335TIP3    H221970   6.952   4.684   4.378
 7336TIP3   OH221971   4.296   5.527   2.401
 7336TIP3    H121972   4.297   5.543   2.307
 7336TIP3    H221973   4.277   5.434   2.409
 7337TIP3   OH221974   6.831   1.598   4.674
 7337TIP3    H121975   6.812   1.515   4.719
 7337TIP3    H221976   6.814   1.579   4.581
 7338TIP3   OH221977   1.649   0.180   2.944
 7338TIP3    H121978   1.578   0.195   3.006
 7338TIP3    H221979   1.727   0.214   2.988
 7339TIP3   OH221980   5.884   3.011   5.383
 7339TIP3    H121981   5.879   3.043   5.473
 7339TIP3    H221982   5.796   2.977   5.366
 7340TIP3   OH221983   1.508   3.077   5.830
 7340TIP3    H121984   1.537   3.110   5.915
 7340TIP3    H221985   1.523   3.149   5.770
 7341TIP3   OH221986   6.263   2.441   2.991
 7341TIP3    H121987   6.301   2.421   2.906
 7341TIP3    H221988   6.272   2.536   2.999
 7342TIP3   OH221989   5.271   5.246   1.291
 7342TIP3    H121990   5.311   5.323   1.251
 7342TIP3    H221991   5.201   5.281   1.346
 7343TIP3   OH221992   1.716   1.867   0.828
 7343TIP3    H121993   1.695   1.906   0.743
 7343TIP3    H221994   1.655   1.908   0.889
 7344TIP3   OH221995   5.778   6.481   2.447
 7344TIP3    H121996   5.748   6.390   2.446
 7344TIP3    H221997   5.741   6.518   2.527
 7345TIP3   OH221998   2.460   5.753   0.784
 7345TIP3    H121999   2.509   5.676   0.814
 7345TIP3    H222000   2.410   5.780   0.862
 7346TIP3   OH222001   3.011   3.367   0.525
 7346TIP3    H122002   3.098   3.392   0.556
 7346TIP3    H222003   2.960   3.354   0.604
 7347TIP3   OH222004   1.277   3.473   1.807
 7347TIP3    H122005   1.250   3.396   1.858
 7347TIP3    H222006   1.258   3.451   1.717
 7348TIP3   OH222007   1.432   6.088   3.321
 7348TIP3    H122008   1.367   6.153   3.345
 7348TIP3    H222009   1.389   6.033   3.256
 7349TIP3   OH222010   2.004   2.343   2.981
 7349TIP3    H122011   1.999   2.249   2.999
 7349TIP3    H222012   2.083   2.354   2.928
 7350TIP3   OH222013   4.314   3.200   0.387
 7350TIP3    H122014   4.251   3.263   0.421
 7350TIP3    H222015   4.383   3.195   0.453
 7351TIP3   OH222016   5.771   3.942   0.360
 7351TIP3    H122017   5.696   3.971   0.309
 7351TIP3    H222018   5.778   3.848   0.341
 7352TIP3   OH222019   1.627   3.379   2.322
 7352TIP3    H122020   1.585   3.294   2.332
 7352TIP3    H222021   1.636   3.412   2.411
 7353TIP3   OH222022   2.082   0.787   1.074
 7353TIP3    H122023   2.129   0.739   1.142
 7353TIP3    H222024   1.995   0.800   1.110
 7354TIP3   OH222025   6.498   1.022   2.277
 7354TIP3    H122026   6.448   1.094   2.238
 7354TIP3    H222027   6.564   1.000   2.212
 7355TIP3   OH222028   0.252   5.011   5.836
 7355TIP3    H122029   0.229   5.047   5.921
 7355TIP3    H222030   0.204   4.929   5.830
 7356TIP3   OH222031   6.601   0.199   0.693
 7356TIP3    H122032   6.534   0.138   0.664
 7356TIP3    H222033   6.617   0.176   0.784
 7357TIP3   OH222034   5.300   1.526   4.435
 7357TIP3    H122035   5.316   1.584   4.360
 7357TIP3    H222036   5.350   1.447   4.414
 7358TIP3   OH222037   3.462   2.170   0.383
 7358TIP3    H122038   3.374   2.181   0.420
 7358TIP3    H222039   3.483   2.078   0.399
 7359TIP3   OH222040   2.602   6.003   2.281
 7359TIP3    H122041   2.644   5.955   2.210
 7359TIP3    H222042   2.608   6.095   2.256
 7360TIP3   OH222043   5.485   6.349   1.268
 7360TIP3    H122044   5.508   6.257   1.280
 7360TIP3    H222045   5.399   6.357   1.310
 7361TIP3   OH222046   6.661   3.210   0.617
 7361TIP3    H122047   6.715   3.289   0.618
 7361TIP3    H222048   6.660   3.183   0.525
 7362TIP3   OH222049   1.696   1.209   1.493
 7362TIP3    H122050   1.659   1.297   1.506
 7362TIP3    H222051   1.775   1.208   1.547
 7363TIP3   OH222052   3.784   6.175   5.273
 7363TIP3    H122053   3.690   6.165   5.290
 7363TIP3    H222054   3.810   6.092   5.233
 7364TIP3   OH222055   4.586   3.220   1.574
 7364TIP3    H122056   4.556   3.141   1.529
 7364TIP3    H222057   4.680   3.222   1.557
 7365TIP3   OH222058   3.446   4.125   5.090
 7365TIP3    H122059   3.488   4.134   5.005
 7365TIP3    H222060   3.442   4.215   5.125
 7366TIP3   OH222061   6.207   0.209   5.364
 7366TIP3    H122062   6.217   0.127   5.317
 7366TIP3    H222063   6.193   0.183   5.455
 7367TIP3   OH222064   1.592   1.419   2.487
 7367TIP3    H122065   1.608   1.403   2.394
 7367TIP3    H222066   1.617   1.336   2.529
 7368TIP3   OH222067   4.460   5.004   1.219
 7368TIP3    H122068   4.412   5.083   1.242
 7368TIP3    H222069   4.552   5.028   1.227
 7369TIP3   OH222070   1.474   1.119   2.255
 7369TIP3    H122071   1.536   1.188   2.230
 7369TIP3    H222072   1.470   1.124   2.350
 7370TIP3   OH222073   1.809   3.438   1.792
 7370TIP3    H122074   1.828   3.530   1.773
 7370TIP3    H222075   1.813   3.432   1.887
 7371TIP3   OH222076   5.518   2.417   5.724
 7371TIP3    H122077   5.534   2.511   5.737
 7371TIP3    H222078   5.491   2.385   5.810
 7372TIP3   OH222079   6.993   5.497   5.144
 7372TIP3    H122080   7.080   5.508   5.182
 7372TIP3    H222081   7.008   5.499   5.050
 7373TIP3   OH222082   4.107   5.965   3.760
 7373TIP3    H122083   4.164   5.917   3.700
 7373TIP3    H222084   4.086   6.046   3.713
 7374TIP3   OH222085   3.711   5.420   5.574
 7374TIP3    H122086   3.751   5.462   5.497
 7374TIP3    H222087   3.767   5.345   5.592
 7375TIP3   OH222088   0.428   2.515   0.592
 7375TIP3    H122089   0.376   2.593   0.610
 7375TIP3    H222090   0.497   2.545   0.532
 7376TIP3   OH222091   2.901   5.582   5.250
 7376TIP3    H122092   2.807   5.563   5.249
 7376TIP3    H222093   2.942   5.495   5.253
 7377TIP3   OH222094   1.340   1.244   1.682
 7377TIP3    H122095   1.248   1.237   1.655
 7377TIP3    H222096   1.386   1.184   1.623
 7378TIP3   OH222097   5.840   5.594   0.844
 7378TIP3    H122098   5.892   5.524   0.806
 7378TIP3    H222099   5.825   5.655   0.772
 7379TIP3   OH222100   3.366   2.954   1.543
 7379TIP3    H122101   3.311   2.990   1.473
 7379TIP3    H222102   3.340   2.862   1.549
 7380TIP3   OH222103   1.155   4.758   4.721
 7380TIP3    H122104   1.230   4.783   4.667
 7380TIP3    H222105   1.082   4.755   4.660
 7381TIP3   OH222106   3.264   5.310   3.670
 7381TIP3    H122107   3.292   5.269   3.752
 7381TIP3    H222108   3.344   5.340   3.628
 7382TIP3   OH222109   6.019   1.735   0.300
 7382TIP3    H122110   6.090   1.736   0.236
 7382TIP3    H222111   5.965   1.810   0.277
 7383TIP3   OH222112   2.389   5.890   5.602
 7383TIP3    H122113   2.480   5.863   5.610
 7383TIP3    H222114   2.393   5.986   5.597
 7384TIP3   OH222115   6.837   5.324   1.166
 7384TIP3    H122116   6.757   5.273   1.179
 7384TIP3    H222117   6.807   5.414   1.153
 7385TIP3   OH222118   1.983   3.540   1.052
 7385TIP3    H122119   2.067   3.529   1.096
 7385TIP3    H222120   1.987   3.481   0.976
 7386TIP3   OH222121   3.158   2.520   3.751
 7386TIP3    H122122   3.184   2.496   3.840
 7386TIP3    H222123   3.104   2.447   3.721
 7387TIP3   OH222124   4.591   5.365   0.369
 7387TIP3    H122125   4.533   5.441   0.355
 7387TIP3    H222126   4.674   5.404   0.398
 7388TIP3   OH222127   5.062   0.719   2.275
 7388TIP3    H122128   5.045   0.810   2.301
 7388TIP3    H222129   5.141   0.725   2.221
 7389TIP3   OH222130   3.122   3.931   1.710
 7389TIP3    H122131   3.105   3.951   1.618
 7389TIP3    H222132   3.068   3.855   1.729
 7390TIP3   OH222133   3.002   1.865   3.635
 7390TIP3    H122134   2.952   1.944   3.614
 7390TIP3    H222135   3.062   1.893   3.704
 7391TIP3   OH222136   4.517   5.449   4.575
 7391TIP3    H122137   4.589   5.394   4.543
 7391TIP3    H222138   4.553   5.538   4.576
 7392TIP3   OH222139   2.235   1.907   0.693
 7392TIP3    H122140   2.188   1.888   0.611
 7392TIP3    H222141   2.167   1.903   0.760
 7393TIP3   OH222142   2.828   1.060   5.142
 7393TIP3    H122143   2.821   0.979   5.091
 7393TIP3    H222144   2.782   1.040   5.224
 7394TIP3   OH222145   3.996   0.256   3.071
 7394TIP3    H122146   4.081   0.238   3.111
 7394TIP3    H222147   3.961   0.169   3.050
 7395TIP3   OH222148   6.978   3.462   2.665
 7395TIP3    H122149   6.939   3.514   2.736
 7395TIP3    H222150   6.953   3.507   2.585
 7396TIP3   OH222151   2.097   5.441   4.238
 7396TIP3    H122152   2.002   5.448   4.250
 7396TIP3    H222153   2.113   5.480   4.152
 7397TIP3   OH222154   1.172   4.252   3.872
 7397TIP3    H122155   1.190   4.253   3.966
 7397TIP3    H222156   1.081   4.281   3.866
 7398TIP3   OH222157   1.236   4.963   1.909
 7398TIP3    H122158   1.294   5.001   1.844
 7398TIP3    H222159   1.161   5.022   1.913
 7399TIP3   OH222160   0.270   2.997   2.868
 7399TIP3    H122161   0.294   2.950   2.948
 7399TIP3    H222162   0.217   3.070   2.899
 7400TIP3   OH222163   0.795   3.127   1.988
 7400TIP3    H122164   0.766   3.040   1.959
 7400TIP3    H222165   0.890   3.120   1.995
 7401TIP3   OH222166   2.823   5.877   3.265
 7401TIP3    H122167   2.765   5.907   3.195
 7401TIP3    H222168   2.848   5.957   3.311
 7402TIP3   OH222169   6.862   3.404   0.320
 7402TIP3    H122170   6.903   3.367   0.242
 7402TIP3    H222171   6.773   3.368   0.320
 7403TIP3   OH222172   0.417   6.215   0.409
 7403TIP3    H122173   0.334   6.246   0.373
 7403TIP3    H222174   0.483   6.242   0.346
 7404TIP3   OH222175   6.316   0.117   2.678
 7404TIP3    H122176   6.235   0.106   2.628
 7404TIP3    H222177   6.383   0.078   2.622
 7405TIP3   OH222178   1.537   4.761   1.530
 7405TIP3    H122179   1.453   4.758   1.575
 7405TIP3    H222180   1.571   4.849   1.548
 7406TIP3   OH222181   1.802   3.422   3.271
 7406TIP3    H122182   1.865   3.384   3.211
 7406TIP3    H222183   1.843   3.503   3.302
 7407TIP3   OH222184   6.256   4.356   5.322
 7407TIP3    H122185   6.212   4.391   5.245
 7407TIP3    H222186   6.279   4.434   5.373
 7408TIP3   OH222187   5.366   1.319   5.542
 7408TIP3    H122188   5.316   1.315   5.460
 7408TIP3    H222189   5.315   1.264   5.603
 7409TIP3   OH222190   0.826   0.199   0.516
 7409TIP3    H122191   0.866   0.284   0.537
 7409TIP3    H222192   0.808   0.160   0.601
 7410TIP3   OH222193   0.140   5.732   4.945
 7410TIP3    H122194   0.112   5.676   4.873
 7410TIP3    H222195   0.222   5.693   4.976
 7411TIP3   OH222196   3.384   1.447   4.158
 7411TIP3    H122197   3.361   1.357   4.178
 7411TIP3    H222198   3.465   1.441   4.108
 7412TIP3   OH222199   4.117   1.596   2.297
 7412TIP3    H122200   4.142   1.637   2.380
 7412TIP3    H222201   4.178   1.523   2.287
 7413TIP3   OH222202   6.747   1.765   5.776
 7413TIP3    H122203   6.773   1.673   5.781
 7413TIP3    H222204   6.664   1.764   5.728
 7414TIP3   OH222205   3.350   4.260   0.591
 7414TIP3    H122206   3.431   4.309   0.577
 7414TIP3    H222207   3.342   4.255   0.686
 7415TIP3   OH222208   5.012   3.273   5.312
 7415TIP3    H122209   5.071   3.225   5.371
 7415TIP3    H222210   4.924   3.244   5.338
 7416TIP3   OH222211   0.511   4.732   1.817
 7416TIP3    H122212   0.588   4.749   1.763
 7416TIP3    H222213   0.441   4.784   1.776
 7417TIP3   OH222214   2.123   3.210   2.022
 7417TIP3    H122215   2.183   3.203   1.948
 7417TIP3    H222216   2.105   3.119   2.047
 7418TIP3   OH222217   3.369   3.982   2.032
 7418TIP3    H122218   3.286   3.935   2.027
 7418TIP3    H222219   3.355   4.050   2.097
 7419TIP3   OH222220   2.153   6.012   1.162
 7419TIP3    H122221   2.199   5.960   1.228
 7419TIP3    H222222   2.210   6.007   1.085
 7420TIP3   OH222223   0.432   5.927   5.851
 7420TIP3    H122224   0.435   5.831   5.859
 7420TIP3    H222225   0.416   5.958   5.940
 7421TIP3   OH222226   4.701   4.114   3.525
 7421TIP3    H122227   4.630   4.178   3.519
 7421TIP3    H222228   4.669   4.038   3.477
 7422TIP3   OH222229   6.132   6.596   1.010
 7422TIP3    H122230   6.072   6.534   0.970
 7422TIP3    H222231   6.169   6.549   1.085
 7423TIP3   OH222232   0.903   0.828   1.758
 7423TIP3    H122233   0.964   0.765   1.797
 7423TIP3    H222234   0.911   0.905   1.814
 7424TIP3   OH222235   7.051   0.216   3.414
 7424TIP3    H122236   7.103   0.294   3.434
 7424TIP3    H222237   7.075   0.194   3.323
 7425TIP3   OH222238   2.210   3.493   2.001
 7425TIP3    H122239   2.141   3.560   2.003
 7425TIP3    H222240   2.164   3.410   2.000
 7426TIP3   OH222241   6.749   3.059   4.180
 7426TIP3    H122242   6.824   3.062   4.239
 7426TIP3    H222243   6.724   2.967   4.178
 7427TIP3   OH222244   1.649   2.059   0.612
 7427TIP3    H122245   1.691   2.065   0.526
 7427TIP3    H222246   1.556   2.077   0.594
 7428TIP3   OH222247   6.224   6.234   0.364
 7428TIP3    H122248   6.227   6.257   0.457
 7428TIP3    H222249   6.254   6.143   0.361
 7429TIP3   OH222250   4.852   6.474   2.078
 7429TIP3    H122251   4.903   6.555   2.070
 7429TIP3    H222252   4.891   6.414   2.015
 7430TIP3   OH222253   5.282   0.616   1.441
 7430TIP3    H122254   5.333   0.649   1.367
 7430TIP3    H222255   5.194   0.604   1.406
 7431TIP3   OH222256   2.982   2.119   4.618
 7431TIP3    H122257   3.031   2.195   4.587
 7431TIP3    H222258   3.042   2.074   4.677
 7432TIP3   OH222259   3.659   0.780   1.354
 7432TIP3    H122260   3.615   0.696   1.340
 7432TIP3    H222261   3.640   0.801   1.446
 7433TIP3   OH222262   4.250   5.413   3.748
 7433TIP3    H122263   4.291   5.329   3.766
 7433TIP3    H222264   4.266   5.465   3.827
 7434TIP3   OH222265   0.032   3.414   5.610
 7434TIP3    H122266  -0.039   3.382   5.554
 7434TIP3    H222267   0.095   3.341   5.613
 7435TIP3   OH222268   0.710   1.248   2.478
 7435TIP3    H122269   0.755   1.188   2.538
 7435TIP3    H222270   0.662   1.308   2.535
 7436TIP3   OH222271   0.068   2.562   4.977
 7436TIP3    H122272   0.050   2.652   4.952
 7436TIP3    H222273   0.099   2.567   5.067
 7437TIP3   OH222274   6.145   0.669   2.792
 7437TIP3    H122275   6.056   0.655   2.759
 7437TIP3    H222276   6.134   0.727   2.868
 7438TIP3   OH222277   1.723   4.458   1.305
 7438TIP3    H122278   1.670   4.531   1.273
 7438TIP3    H222279   1.770   4.494   1.381
 7439TIP3   OH222280   2.532   2.636   2.943
 7439TIP3    H122281   2.457   2.662   2.889
 7439TIP3    H222282   2.530   2.696   3.017
 7440TIP3   OH222283   1.439   4.460   4.096
 7440TIP3    H122284   1.420   4.554   4.093
 7440TIP3    H222285   1.495   4.445   4.020
 7441TIP3   OH222286   5.763   5.182   3.909
 7441TIP3    H122287   5.769   5.127   3.987
 7441TIP3    H222288   5.854   5.204   3.888
 7442TIP3   OH222289   4.554   2.920   0.622
 7442TIP3    H122290   4.636   2.898   0.665
 7442TIP3    H222291   4.491   2.929   0.694
 7443TIP3   OH222292   3.662   3.938   2.902
 7443TIP3    H122293   3.660   3.842   2.902
 7443TIP3    H222294   3.669   3.962   2.810
 7444TIP3   OH222295   3.107   4.471   1.534
 7444TIP3    H122296   3.058   4.398   1.573
 7444TIP3    H222297   3.180   4.486   1.594
 7445TIP3   OH222298   0.176   5.795   5.335
 7445TIP3    H122299   0.189   5.749   5.418
 7445TIP3    H222300   0.243   5.863   5.334
 7446TIP3   OH222301   1.414   6.185   4.577
 7446TIP3    H122302   1.334   6.132   4.580
 7446TIP3    H222303   1.410   6.239   4.656
 7447TIP3   OH222304   1.543   1.129   1.847
 7447TIP3    H122305   1.589   1.190   1.905
 7447TIP3    H222306   1.469   1.180   1.812
 7448TIP3   OH222307   6.648   4.223   0.264
 7448TIP3    H122308   6.575   4.261   0.314
 7448TIP3    H222309   6.606   4.170   0.197
 7449TIP3   OH222310   0.257   4.733   0.180
 7449TIP3    H122311   0.176   4.705   0.136
 7449TIP3    H222312   0.327   4.697   0.126
 7450TIP3   OH222313   0.457   0.452   1.321
 7450TIP3    H122314   0.472   0.543   1.296
 7450TIP3    H222315   0.495   0.444   1.408
 7451TIP3   OH222316   5.138   6.241   2.091
 7451TIP3    H122317   5.075   6.298   2.048
 7451TIP3    H222318   5.213   6.298   2.109
 7452TIP3   OH222319   6.497   3.882   3.278
 7452TIP3    H122320   6.492   3.909   3.370
 7452TIP3    H222321   6.562   3.940   3.239
 7453TIP3   OH222322   3.666   5.843   0.761
 7453TIP3    H122323   3.638   5.811   0.847
 7453TIP3    H222324   3.745   5.793   0.741
 7454TIP3   OH222325   5.623   3.285   5.319
 7454TIP3    H122326   5.631   3.286   5.224
 7454TIP3    H222327   5.709   3.312   5.350
 7455TIP3   OH222328   6.804   2.326   3.461
 7455TIP3    H122329   6.745   2.399   3.438
 7455TIP3    H222330   6.745   2.254   3.484
 7456TIP3   OH222331   4.772   2.561   0.718
 7456TIP3    H122332   4.718   2.491   0.756
 7456TIP3    H222333   4.862   2.536   0.742
 7457TIP3   OH222334   2.153   2.691   0.747
 7457TIP3    H122335   2.244   2.670   0.728
 7457TIP3    H222336   2.155   2.732   0.834
 7458TIP3   OH222337   5.766   1.247   1.156
 7458TIP3    H122338   5.743   1.181   1.222
 7458TIP3    H222339   5.862   1.247   1.155
 7459TIP3   OH222340   3.402   5.583   2.464
 7459TIP3    H122341   3.367   5.647   2.527
 7459TIP3    H222342   3.333   5.518   2.456
 7460TIP3   OH222343   2.199   5.373   5.683
 7460TIP3    H122344   2.139   5.356   5.610
 7460TIP3    H222345   2.202   5.469   5.689
 7461TIP3   OH222346   1.926   1.908   5.705
 7461TIP3    H122347   1.881   1.910   5.790
 7461TIP3    H222348   1.995   1.843   5.716
 7462TIP3   OH222349   6.633   5.461   2.419
 7462TIP3    H122350   6.688   5.393   2.458
 7462TIP3    H222351   6.561   5.413   2.379
 7463TIP3   OH222352   3.568   3.254   4.913
 7463TIP3    H122353   3.529   3.340   4.931
 7463TIP3    H222354   3.662   3.267   4.929
 7464TIP3   OH222355   0.296   1.640   2.062
 7464TIP3    H122356   0.389   1.618   2.076
 7464TIP3    H222357   0.255   1.556   2.041
 7465TIP3   OH222358   2.201   4.570   4.464
 7465TIP3    H122359   2.168   4.485   4.435
 7465TIP3    H222360   2.294   4.556   4.481
 7466TIP3   OH222361   1.646   4.156   2.503
 7466TIP3    H122362   1.720   4.154   2.443
 7466TIP3    H222363   1.618   4.065   2.509
 7467TIP3   OH222364   4.922   1.940   1.675
 7467TIP3    H122365   4.908   2.020   1.625
 7467TIP3    H222366   4.963   1.879   1.613
 7468TIP3   OH222367   6.450   3.832   5.803
 7468TIP3    H122368   6.475   3.750   5.845
 7468TIP3    H222369   6.533   3.870   5.774
 7469TIP3   OH222370   2.544   0.047   3.939
 7469TIP3    H122371   2.639   0.057   3.940
 7469TIP3    H222372   2.517   0.072   3.851
 7470TIP3   OH222373   3.597   4.408   2.491
 7470TIP3    H122374   3.541   4.346   2.537
 7470TIP3    H222375   3.685   4.371   2.500
 7471TIP3   OH222376   0.068   5.282   0.303
 7471TIP3    H122377  -0.005   5.322   0.256
 7471TIP3    H222378   0.046   5.293   0.395
 7472TIP3   OH222379   5.480   5.709   0.804
 7472TIP3    H122380   5.522   5.752   0.730
 7472TIP3    H222381   5.443   5.781   0.856
 7473TIP3   OH222382   5.179   2.604   4.254
 7473TIP3    H122383   5.113   2.663   4.289
 7473TIP3    H222384   5.185   2.627   4.161
 7474TIP3   OH222385   5.128   3.855   5.566
 7474TIP3    H122386   5.208   3.804   5.579
 7474TIP3    H222387   5.151   3.944   5.593
 7475TIP3   OH222388   5.387   0.550   3.958
 7475TIP3    H122389   5.416   0.514   4.042
 7475TIP3    H222390   5.379   0.473   3.901
 7476TIP3   OH222391   2.388   1.579   0.310
 7476TIP3    H122392   2.408   1.609   0.221
 7476TIP3    H222393   2.374   1.485   0.301
 7477TIP3   OH222394   3.205   5.246   0.300
 7477TIP3    H122395   3.226   5.157   0.326
 7477TIP3    H222396   3.119   5.239   0.259
 7478TIP3   OH222397   6.475   6.399   4.398
 7478TIP3    H122398   6.468   6.378   4.491
 7478TIP3    H222399   6.557   6.448   4.391
 7479TIP3   OH222400   6.463   2.546   4.507
 7479TIP3    H122401   6.381   2.510   4.541
 7479TIP3    H222402   6.529   2.480   4.527
 7480TIP3   OH222403   7.127   0.653   5.838
 7480TIP3    H122404   7.214   0.612   5.846
 7480TIP3    H222405   7.101   0.636   5.747
 7481TIP3   OH222406   2.312   0.386   4.651
 7481TIP3    H122407   2.373   0.410   4.581
 7481TIP3    H222408   2.233   0.437   4.632
 7482TIP3   OH222409   3.838   0.756   3.858
 7482TIP3    H122410   3.753   0.731   3.894
 7482TIP3    H222411   3.822   0.841   3.818
 7483TIP3   OH222412   6.328   6.064   2.305
 7483TIP3    H122413   6.383   5.986   2.309
 7483TIP3    H222414   6.304   6.071   2.212
 7484TIP3   OH222415   4.334   0.837   4.317
 7484TIP3    H122416   4.367   0.871   4.234
 7484TIP3    H222417   4.398   0.865   4.382
 7485TIP3   OH222418   5.007   6.753   2.965
 7485TIP3    H122419   5.034   6.831   2.916
 7485TIP3    H222420   4.976   6.788   3.049
 7486TIP3   OH222421   1.642   4.268   0.300
 7486TIP3    H122422   1.599   4.284   0.215
 7486TIP3    H222423   1.712   4.207   0.280
 7487TIP3   OH222424   2.320   0.050   0.376
 7487TIP3    H122425   2.337   0.001   0.457
 7487TIP3    H222426   2.391   0.023   0.317
 7488TIP3   OH222427   5.204   6.019   1.583
 7488TIP3    H122428   5.243   5.934   1.604
 7488TIP3    H222429   5.277   6.080   1.582
 7489TIP3   OH222430   2.346   2.250   2.809
 7489TIP3    H122431   2.325   2.318   2.872
 7489TIP3    H222432   2.302   2.171   2.842
 7490TIP3   OH222433   1.234   6.499   5.619
 7490TIP3    H122434   1.218   6.422   5.673
 7490TIP3    H222435   1.303   6.547   5.664
 7491TIP3   OH222436   1.147   0.128   2.011
 7491TIP3    H122437   1.169   0.161   2.098
 7491TIP3    H222438   1.178   0.037   2.012
 7492TIP3   OH222439   1.072   5.474   5.241
 7492TIP3    H122440   1.091   5.563   5.211
 7492TIP3    H222441   1.156   5.443   5.277
 7493TIP3   OH222442   2.015   3.208   3.437
 7493TIP3    H122443   1.928   3.171   3.451
 7493TIP3    H222444   2.010   3.296   3.475
 7494TIP3   OH222445   2.573   3.705   4.936
 7494TIP3    H122446   2.628   3.627   4.948
 7494TIP3    H222447   2.554   3.735   5.025
 7495TIP3   OH222448   3.024   2.080   1.177
 7495TIP3    H122449   2.986   2.119   1.099
 7495TIP3    H222450   2.957   2.091   1.245
 7496TIP3   OH222451   3.535   6.198   3.114
 7496TIP3    H122452   3.624   6.231   3.129
 7496TIP3    H222453   3.523   6.131   3.180
 7497TIP3   OH222454   2.456   4.561   4.173
 7497TIP3    H122455   2.471   4.468   4.192
 7497TIP3    H222456   2.538   4.592   4.135
 7498TIP3   OH222457   2.260   1.494   5.199
 7498TIP3    H122458   2.176   1.464   5.165
 7498TIP3    H222459   2.325   1.448   5.146
 7499TIP3   OH222460   6.340   4.551   2.314
 7499TIP3    H122461   6.425   4.593   2.300
 7499TIP3    H222462   6.351   4.463   2.279
 7500TIP3   OH222463   4.936   4.218   4.169
 7500TIP3    H122464   4.925   4.284   4.101
 7500TIP3    H222465   5.010   4.165   4.140
 7501TIP3   OH222466   2.137   0.666   1.996
 7501TIP3    H122467   2.155   0.661   1.902
 7501TIP3    H222468   2.090   0.749   2.007
 7502TIP3   OH222469   1.120   0.663   1.876
 7502TIP3    H122470   1.155   0.687   1.962
 7502TIP3    H222471   1.121   0.568   1.875
 7503TIP3   OH222472   2.665   4.026   3.465
 7503TIP3    H122473   2.644   4.042   3.373
 7503TIP3    H222474   2.730   3.955   3.462
 7504TIP3   OH222475   5.827   0.796   3.497
 7504TIP3    H122476   5.781   0.755   3.424
 7504TIP3    H222477   5.758   0.822   3.558
 7505TIP3   OH222478   4.255   3.741   1.682
 7505TIP3    H122479   4.185   3.800   1.709
 7505TIP3    H222480   4.315   3.738   1.756
 7506TIP3   OH222481   1.574   3.809   4.388
 7506TIP3    H122482   1.499   3.828   4.331
 7506TIP3    H222483   1.539   3.750   4.455
 7507TIP3   OH222484   2.708   4.141   0.297
 7507TIP3    H122485   2.752   4.225   0.284
 7507TIP3    H222486   2.744   4.084   0.230
 7508TIP3   OH222487   6.939   1.771   1.489
 7508TIP3    H122488   6.904   1.849   1.447
 7508TIP3    H222489   6.882   1.700   1.458
 7509TIP3   OH222490   3.692   3.288   2.124
 7509TIP3    H122491   3.723   3.304   2.034
 7509TIP3    H222492   3.678   3.194   2.127
 7510TIP3   OH222493   5.820   0.909   5.410
 7510TIP3    H122494   5.730   0.919   5.379
 7510TIP3    H222495   5.828   0.816   5.428
 7511TIP3   OH222496   6.902   4.159   0.126
 7511TIP3    H122497   6.807   4.162   0.142
 7511TIP3    H222498   6.910   4.166   0.031
 7512TIP3   OH222499   0.816   1.494   5.383
 7512TIP3    H122500   0.735   1.545   5.389
 7512TIP3    H222501   0.825   1.473   5.290
 7513TIP3   OH222502   5.727   4.615   2.013
 7513TIP3    H122503   5.791   4.553   1.977
 7513TIP3    H222504   5.701   4.670   1.939
 7514TIP3   OH222505   7.000   0.344   3.845
 7514TIP3    H122506   6.976   0.433   3.817
 7514TIP3    H222507   6.917   0.300   3.861
 7515TIP3   OH222508   6.184   5.008   0.777
 7515TIP3    H122509   6.140   5.086   0.744
 7515TIP3    H222510   6.277   5.024   0.762
 7516TIP3   OH222511   4.127   4.574   1.331
 7516TIP3    H122512   4.151   4.658   1.292
 7516TIP3    H222513   4.100   4.596   1.420
 7517TIP3   OH222514   6.007   3.624   4.058
 7517TIP3    H122515   5.920   3.663   4.049
 7517TIP3    H222516   5.992   3.542   4.105
 7518TIP3   OH222517   4.032   2.600   5.018
 7518TIP3    H122518   3.995   2.571   4.935
 7518TIP3    H222519   3.995   2.540   5.083
 7519TIP3   OH222520   4.367   3.152   1.044
 7519TIP3    H122521   4.339   3.232   1.001
 7519TIP3    H222522   4.458   3.168   1.070
 7520TIP3   OH222523   1.422   4.717   5.301
 7520TIP3    H122524   1.503   4.712   5.352
 7520TIP3    H222525   1.444   4.675   5.218
 7521TIP3   OH222526   0.277   4.738   2.190
 7521TIP3    H122527   0.351   4.791   2.160
 7521TIP3    H222528   0.304   4.648   2.176
 7522TIP3   OH222529   6.659   5.019   0.810
 7522TIP3    H122530   6.650   4.969   0.729
 7522TIP3    H222531   6.577   5.066   0.819
 7523TIP3   OH222532   1.646   4.450   3.100
 7523TIP3    H122533   1.630   4.519   3.036
 7523TIP3    H222534   1.733   4.417   3.079
 7524TIP3   OH222535   0.379   0.884   5.834
 7524TIP3    H122536   0.431   0.863   5.912
 7524TIP3    H222537   0.295   0.914   5.869
 7525TIP3   OH222538   3.580   2.608   3.054
 7525TIP3    H122539   3.646   2.565   3.108
 7525TIP3    H222540   3.543   2.676   3.110
 7526TIP3   OH222541   0.656   2.113   2.377
 7526TIP3    H122542   0.631   2.021   2.373
 7526TIP3    H222543   0.733   2.119   2.322
 7527TIP3   OH222544   2.673   1.222   0.360
 7527TIP3    H122545   2.711   1.136   0.379
 7527TIP3    H222546   2.581   1.214   0.385
 7528TIP3   OH222547   3.647   1.894   4.860
 7528TIP3    H122548   3.586   1.866   4.929
 7528TIP3    H222549   3.714   1.826   4.858
 7529TIP3   OH222550   1.027   6.269   2.825
 7529TIP3    H122551   1.104   6.214   2.839
 7529TIP3    H222552   0.960   6.232   2.883
 7530TIP3   OH222553   1.238   3.171   2.414
 7530TIP3    H122554   1.328   3.143   2.396
 7530TIP3    H222555   1.234   3.180   2.509
 7531TIP3   OH222556   1.820   0.347   4.348
 7531TIP3    H122557   1.843   0.264   4.307
 7531TIP3    H222558   1.777   0.322   4.430
 7532TIP3   OH222559   1.849   0.358   1.086
 7532TIP3    H122560   1.944   0.351   1.075
 7532TIP3    H222561   1.826   0.285   1.144
 7533TIP3   OH222562   5.683   0.102   5.129
 7533TIP3    H122563   5.709   0.193   5.147
 7533TIP3    H222564   5.697   0.091   5.035
 7534TIP3   OH222565   2.604   1.245   1.294
 7534TIP3    H122566   2.683   1.239   1.241
 7534TIP3    H222567   2.621   1.316   1.357
 7535TIP3   OH222568   4.752   4.605   2.713
 7535TIP3    H122569   4.795   4.585   2.630
 7535TIP3    H222570   4.731   4.520   2.750
 7536TIP3   OH222571   1.166   6.595   1.346
 7536TIP3    H122572   1.094   6.594   1.409
 7536TIP3    H222573   1.199   6.505   1.346
 7537TIP3   OH222574   2.022   4.141   0.449
 7537TIP3    H122575   2.027   4.048   0.474
 7537TIP3    H222576   2.089   4.184   0.502
 7538TIP3   OH222577   2.899   4.977   1.117
 7538TIP3    H122578   2.856   4.936   1.192
 7538TIP3    H222579   2.955   4.908   1.081
 7539TIP3   OH222580   6.718   4.957   0.213
 7539TIP3    H122581   6.667   5.013   0.272
 7539TIP3    H222582   6.660   4.882   0.197
 7540TIP3   OH222583   5.123   3.973   1.263
 7540TIP3    H122584   5.060   4.043   1.277
 7540TIP3    H222585   5.104   3.910   1.333
 7541TIP3   OH222586   6.262   1.864   5.666
 7541TIP3    H122587   6.177   1.853   5.623
 7541TIP3    H222588   6.249   1.935   5.728
 7542TIP3   OH222589   1.105   0.183   3.566
 7542TIP3    H122590   1.074   0.098   3.534
 7542TIP3    H222591   1.193   0.165   3.600
 7543TIP3   OH222592   6.288   5.058   4.905
 7543TIP3    H122593   6.193   5.046   4.909
 7543TIP3    H222594   6.324   4.982   4.950
 7544TIP3   OH222595   5.352   2.441   3.402
 7544TIP3    H122596   5.443   2.412   3.390
 7544TIP3    H222597   5.299   2.366   3.374
 7545TIP3   OH222598   5.556   5.339   4.836
 7545TIP3    H122599   5.462   5.334   4.853
 7545TIP3    H222600   5.592   5.377   4.916
 7546TIP3   OH222601   2.397   5.386   2.499
 7546TIP3    H122602   2.441   5.379   2.584
 7546TIP3    H222603   2.427   5.468   2.462
 7547TIP3   OH222604   0.403   5.842   3.606
 7547TIP3    H122605   0.415   5.933   3.633
 7547TIP3    H222606   0.353   5.802   3.677
 7548TIP3   OH222607   1.957   1.102   1.321
 7548TIP3    H122608   1.948   1.096   1.417
 7548TIP3    H222609   1.880   1.056   1.287
 7549TIP3   OH222610   0.774   1.841   2.209
 7549TIP3    H122611   0.691   1.846   2.257
 7549TIP3    H222612   0.761   1.771   2.146
 7550TIP3   OH222613   4.757   1.233   5.622
 7550TIP3    H122614   4.725   1.143   5.616
 7550TIP3    H222615   4.679   1.285   5.640
 7551TIP3   OH222616   5.763   0.271   1.169
 7551TIP3    H122617   5.714   0.300   1.246
 7551TIP3    H222618   5.702   0.282   1.096
 7552TIP3   OH222619   2.542   1.524   5.688
 7552TIP3    H122620   2.465   1.525   5.630
 7552TIP3    H222621   2.599   1.456   5.652
 7553TIP3   OH222622   6.922   1.941   1.973
 7553TIP3    H122623   6.832   1.962   1.948
 7553TIP3    H222624   6.932   1.979   2.060
 7554TIP3   OH222625   3.814   4.607   4.095
 7554TIP3    H122626   3.781   4.689   4.131
 7554TIP3    H222627   3.893   4.588   4.146
 7555TIP3   OH222628   7.115   3.153   1.834
 7555TIP3    H122629   7.209   3.150   1.821
 7555TIP3    H222630   7.099   3.103   1.913
 7556TIP3   OH222631   5.967   0.452   3.774
 7556TIP3    H122632   5.879   0.420   3.797
 7556TIP3    H222633   6.026   0.388   3.813
 7557TIP3   OH222634   2.093   5.834   4.368
 7557TIP3    H122635   2.067   5.914   4.412
 7557TIP3    H222636   2.018   5.775   4.379
 7558TIP3   OH222637   5.508   4.198   5.162
 7558TIP3    H122638   5.523   4.292   5.166
 7558TIP3    H222639   5.422   4.186   5.202
 7559TIP3   OH222640   0.438   2.821   0.252
 7559TIP3    H122641   0.504   2.858   0.193
 7559TIP3    H222642   0.395   2.753   0.201
 7560TIP3   OH222643   5.440   1.734   1.630
 7560TIP3    H122644   5.502   1.732   1.703
 7560TIP3    H222645   5.485   1.689   1.559
 7561TIP3   OH222646   0.934   6.363   3.217
 7561TIP3    H122647   0.844   6.344   3.191
 7561TIP3    H222648   0.926   6.407   3.301
 7562TIP3   OH222649   0.822   0.995   5.591
 7562TIP3    H122650   0.869   1.010   5.509
 7562TIP3    H222651   0.738   0.957   5.564
 7563TIP3   OH222652   1.924   2.144   4.649
 7563TIP3    H122653   1.838   2.186   4.643
 7563TIP3    H222654   1.908   2.054   4.622
 7564TIP3   OH222655   5.150   0.513   3.402
 7564TIP3    H122656   5.220   0.570   3.369
 7564TIP3    H222657   5.094   0.497   3.326
 7565TIP3   OH222658   0.408   6.597   4.987
 7565TIP3    H122659   0.321   6.569   4.961
 7565TIP3    H222660   0.448   6.519   5.026
 7566TIP3   OH222661   3.515   6.363   5.166
 7566TIP3    H122662   3.545   6.297   5.229
 7566TIP3    H222663   3.495   6.313   5.087
 7567TIP3   OH222664   5.224   2.600   4.888
 7567TIP3    H122665   5.129   2.601   4.875
 7567TIP3    H222666   5.235   2.573   4.980
 7568TIP3   OH222667   2.365   0.753   4.593
 7568TIP3    H122668   2.414   0.676   4.564
 7568TIP3    H222669   2.273   0.729   4.580
 7569TIP3   OH222670   3.399   3.389   2.534
 7569TIP3    H122671   3.352   3.472   2.528
 7569TIP3    H222672   3.468   3.396   2.468
 7570TIP3   OH222673   1.979   2.314   5.494
 7570TIP3    H122674   1.994   2.305   5.588
 7570TIP3    H222675   1.893   2.274   5.481
 7571TIP3   OH222676   5.393   0.382   0.859
 7571TIP3    H122677   5.399   0.463   0.809
 7571TIP3    H222678   5.299   0.366   0.867
 7572TIP3   OH222679   3.648   4.085   5.310
 7572TIP3    H122680   3.596   4.123   5.381
 7572TIP3    H222681   3.587   4.082   5.236
 7573TIP3   OH222682   7.194   5.955   2.428
 7573TIP3    H122683   7.273   5.931   2.380
 7573TIP3    H222684   7.128   5.893   2.399
 7574TIP3   OH222685   0.776   3.734   2.330
 7574TIP3    H122686   0.843   3.668   2.312
 7574TIP3    H222687   0.705   3.713   2.270
 7575TIP3   OH222688   5.848   6.504   4.945
 7575TIP3    H122689   5.854   6.421   4.897
 7575TIP3    H222690   5.914   6.496   5.014
 7576TIP3   OH222691   4.108   3.201   5.512
 7576TIP3    H122692   4.103   3.268   5.444
 7576TIP3    H222693   4.018   3.190   5.542
 7577TIP3   OH222694   2.435   3.495   1.443
 7577TIP3    H122695   2.433   3.580   1.486
 7577TIP3    H222696   2.524   3.488   1.409
 7578TIP3   OH222697   4.654   5.856   1.919
 7578TIP3    H122698   4.671   5.847   1.826
 7578TIP3    H222699   4.692   5.940   1.943
 7579TIP3   OH222700   6.316   5.137   1.847
 7579TIP3    H122701   6.331   5.226   1.880
 7579TIP3    H222702   6.402   5.107   1.817
 7580TIP3   OH222703   3.831   0.142   1.309
 7580TIP3    H122704   3.829   0.215   1.372
 7580TIP3    H222705   3.915   0.099   1.326
 7581TIP3   OH222706   2.369   6.630   4.382
 7581TIP3    H122707   2.364   6.586   4.297
 7581TIP3    H222708   2.290   6.685   4.385
 7582TIP3   OH222709   0.559   4.484   1.916
 7582TIP3    H122710   0.525   4.573   1.914
 7582TIP3    H222711   0.624   4.482   1.845
 7583TIP3   OH222712   2.983   5.503   2.057
 7583TIP3    H122713   3.067   5.547   2.050
 7583TIP3    H222714   3.005   5.416   2.091
 7584TIP3   OH222715   5.994   0.226   3.424
 7584TIP3    H122716   5.967   0.143   3.385
 7584TIP3    H222717   5.914   0.261   3.463
 7585TIP3   OH222718   0.141   5.683   0.130
 7585TIP3    H122719   0.090   5.744   0.078
 7585TIP3    H222720   0.213   5.734   0.164
 7586TIP3   OH222721   6.885   4.343   4.029
 7586TIP3    H122722   6.927   4.296   3.957
 7586TIP3    H222723   6.794   4.314   4.028
 7587TIP3   OH222724   2.691   2.944   1.545
 7587TIP3    H122725   2.734   2.963   1.628
 7587TIP3    H222726   2.601   2.975   1.557
 7588TIP3   OH222727   2.694   1.724   5.347
 7588TIP3    H122728   2.778   1.762   5.321
 7588TIP3    H222729   2.708   1.629   5.342
 7589TIP3   OH222730   3.369   0.681   0.543
 7589TIP3    H122731   3.305   0.752   0.537
 7589TIP3    H222732   3.448   0.722   0.578
 7590TIP3   OH222733   1.626   0.172   2.204
 7590TIP3    H122734   1.721   0.162   2.206
 7590TIP3    H222735   1.610   0.242   2.140
 7591TIP3   OH222736   1.485   6.191   2.404
 7591TIP3    H122737   1.414   6.193   2.467
 7591TIP3    H222738   1.552   6.136   2.445
 7592TIP3   OH222739   5.615   4.106   3.812
 7592TIP3    H122740   5.660   4.078   3.892
 7592TIP3    H222741   5.637   4.038   3.747
 7593TIP3   OH222742   4.377   2.952   0.866
 7593TIP3    H122743   4.335   2.871   0.894
 7593TIP3    H222744   4.361   3.014   0.938
 7594TIP3   OH222745   3.568   2.633   0.654
 7594TIP3    H122746   3.660   2.609   0.651
 7594TIP3    H222747   3.537   2.604   0.740
 7595TIP3   OH222748   3.585   3.624   1.770
 7595TIP3    H122749   3.545   3.547   1.811
 7595TIP3    H222750   3.649   3.587   1.709
 7596TIP3   OH222751   2.553   5.160   0.625
 7596TIP3    H122752   2.645   5.150   0.650
 7596TIP3    H222753   2.547   5.251   0.594
 7597TIP3   OH222754   5.409   3.169   0.349
 7597TIP3    H122755   5.499   3.197   0.364
 7597TIP3    H222756   5.367   3.178   0.434
 7598TIP3   OH222757   1.051   0.575   2.242
 7598TIP3    H122758   0.977   0.592   2.184
 7598TIP3    H222759   1.038   0.485   2.273
 7599TIP3   OH222760   1.719   6.039   1.092
 7599TIP3    H122761   1.812   6.039   1.118
 7599TIP3    H222762   1.676   5.990   1.162
 7600TIP3   OH222763   5.598   0.166   0.046
 7600TIP3    H122764   5.605   0.260   0.031
 7600TIP3    H222765   5.680   0.129   0.011
 7601TIP3   OH222766   1.669   0.150   3.351
 7601TIP3    H122767   1.709   0.181   3.433
 7601TIP3    H222768   1.741   0.152   3.287
 7602TIP3   OH222769   6.116   6.760   3.361
 7602TIP3    H122770   6.189   6.701   3.341
 7602TIP3    H222771   6.059   6.709   3.419
 7603TIP3   OH222772   3.167   3.014   4.575
 7603TIP3    H122773   3.154   2.996   4.668
 7603TIP3    H222774   3.213   2.937   4.542
 7604TIP3   OH222775   1.121   1.034   0.978
 7604TIP3    H122776   1.136   0.943   0.953
 7604TIP3    H222777   1.159   1.085   0.907
 7605TIP3   OH222778   3.935   1.575   4.656
 7605TIP3    H122779   4.005   1.634   4.682
 7605TIP3    H222780   3.979   1.494   4.631
 7606TIP3   OH222781   3.336   5.539   0.146
 7606TIP3    H122782   3.366   5.630   0.142
 7606TIP3    H222783   3.371   5.507   0.229
 7607TIP3   OH222784   0.914   1.576   0.141
 7607TIP3    H122785   0.941   1.612   0.057
 7607TIP3    H222786   0.989   1.593   0.199
 7608TIP3   OH222787   4.001   5.718   3.530
 7608TIP3    H122788   4.003   5.729   3.625
 7608TIP3    H222789   3.921   5.762   3.502
 7609TIP3   OH222790   6.258   5.671   1.225
 7609TIP3    H122791   6.164   5.688   1.223
 7609TIP3    H222792   6.286   5.700   1.312
 7610TIP3   OH222793   5.804   6.640   4.251
 7610TIP3    H122794   5.815   6.568   4.189
 7610TIP3    H222795   5.720   6.624   4.293
 7611TIP3   OH222796   5.878   3.961   2.050
 7611TIP3    H122797   5.821   3.987   2.122
 7611TIP3    H222798   5.964   3.995   2.075
 7612TIP3   OH222799   5.809   6.019   4.676
 7612TIP3    H122800   5.830   5.944   4.731
 7612TIP3    H222801   5.830   5.991   4.587
 7613TIP3   OH222802   2.745   1.721   1.610
 7613TIP3    H122803   2.808   1.722   1.538
 7613TIP3    H222804   2.702   1.636   1.603
 7614TIP3   OH222805   1.220   6.664   2.883
 7614TIP3    H122806   1.254   6.689   2.968
 7614TIP3    H222807   1.147   6.605   2.903
 7615TIP3   OH222808   4.153   1.045   2.031
 7615TIP3    H122809   4.077   1.081   2.077
 7615TIP3    H222810   4.172   0.963   2.078
 7616TIP3   OH222811   6.956   3.486   4.216
 7616TIP3    H122812   6.941   3.579   4.228
 7616TIP3    H222813   6.898   3.461   4.143
 7617TIP3   OH222814   5.214   4.755   3.424
 7617TIP3    H122815   5.214   4.841   3.382
 7617TIP3    H222816   5.291   4.711   3.388
 7618TIP3   OH222817   6.549   2.547   5.879
 7618TIP3    H122818   6.525   2.508   5.795
 7618TIP3    H222819   6.643   2.559   5.874
 7619TIP3   OH222820   1.708   3.243   5.366
 7619TIP3    H122821   1.785   3.295   5.344
 7619TIP3    H222822   1.740   3.152   5.364
 7620TIP3   OH222823   3.265   0.107   5.752
 7620TIP3    H122824   3.274   0.156   5.671
 7620TIP3    H222825   3.347   0.059   5.760
 7621TIP3   OH222826   4.889   2.569   3.003
 7621TIP3    H122827   4.835   2.625   2.948
 7621TIP3    H222828   4.946   2.523   2.942
 7622TIP3   OH222829   2.956   4.258   1.664
 7622TIP3    H122830   2.968   4.177   1.613
 7622TIP3    H222831   3.030   4.258   1.725
 7623TIP3   OH222832   2.777   4.388   4.124
 7623TIP3    H122833   2.853   4.446   4.118
 7623TIP3    H222834   2.776   4.340   4.041
 7624TIP3   OH222835   5.787   6.599   5.222
 7624TIP3    H122836   5.762   6.675   5.170
 7624TIP3    H222837   5.708   6.575   5.270
 7625TIP3   OH222838   3.415   3.356   4.537
 7625TIP3    H122839   3.473   3.368   4.462
 7625TIP3    H222840   3.352   3.429   4.531
 7626TIP3   OH222841   5.204   0.972   4.609
 7626TIP3    H122842   5.144   0.899   4.594
 7626TIP3    H222843   5.291   0.932   4.615
 7627TIP3   OH222844   5.506   3.897   1.863
 7627TIP3    H122845   5.476   3.911   1.773
 7627TIP3    H222846   5.594   3.934   1.864
 7628TIP3   OH222847   2.580   0.938   1.046
 7628TIP3    H122848   2.593   1.007   0.981
 7628TIP3    H222849   2.487   0.915   1.038
 7629TIP3   OH222850   4.128   3.747   5.636
 7629TIP3    H122851   4.216   3.740   5.673
 7629TIP3    H222852   4.090   3.660   5.646
 7630TIP3   OH222853   2.623   4.168   4.464
 7630TIP3    H122854   2.609   4.078   4.494
 7630TIP3    H222855   2.678   4.208   4.531
 7631TIP3   OH222856   5.776   2.513   0.962
 7631TIP3    H122857   5.835   2.457   0.911
 7631TIP3    H222858   5.835   2.566   1.016
 7632TIP3   OH222859   1.499   0.520   1.277
 7632TIP3    H122860   1.495   0.489   1.187
 7632TIP3    H222861   1.408   0.535   1.301
 7633TIP3   OH222862   6.533   4.914   2.132
 7633TIP3    H122863   6.535   4.861   2.211
 7633TIP3    H222864   6.598   4.983   2.147
 7634TIP3   OH222865   4.701   6.255   1.748
 7634TIP3    H122866   4.717   6.178   1.694
 7634TIP3    H222867   4.672   6.323   1.687
 7635TIP3   OH222868   1.685   6.680   1.466
 7635TIP3    H122869   1.655   6.673   1.375
 7635TIP3    H222870   1.709   6.772   1.476
 7636TIP3   OH222871   5.237   1.865   1.892
 7636TIP3    H122872   5.212   1.781   1.853
 7636TIP3    H222873   5.241   1.925   1.818
 7637TIP3   OH222874   4.834   0.351   0.558
 7637TIP3    H122875   4.821   0.394   0.643
 7637TIP3    H222876   4.749   0.354   0.515
 7638TIP3   OH222877   7.105   5.348   0.096
 7638TIP3    H122878   7.121   5.253   0.099
 7638TIP3    H222879   7.082   5.365   0.004
 7639TIP3   OH222880   3.663   0.126   4.285
 7639TIP3    H122881   3.607   0.073   4.228
 7639TIP3    H222882   3.612   0.139   4.365
 7640TIP3   OH222883   2.584   6.007   4.025
 7640TIP3    H122884   2.560   5.976   3.937
 7640TIP3    H222885   2.623   5.930   4.067
 7641TIP3   OH222886   6.779   3.738   0.959
 7641TIP3    H122887   6.747   3.648   0.956
 7641TIP3    H222888   6.731   3.783   0.890
 7642TIP3   OH222889   4.302   1.912   5.783
 7642TIP3    H122890   4.312   1.957   5.699
 7642TIP3    H222891   4.341   1.825   5.768
 7643TIP3   OH222892   2.951   2.032   0.413
 7643TIP3    H122893   2.930   1.953   0.362
 7643TIP3    H222894   2.891   2.099   0.377
 7644TIP3   OH222895   0.737   2.249   2.781
 7644TIP3    H122896   0.794   2.173   2.775
 7644TIP3    H222897   0.725   2.278   2.691
 7645TIP3   OH222898   6.884   6.777   4.957
 7645TIP3    H122899   6.849   6.700   5.002
 7645TIP3    H222900   6.920   6.831   5.027
 7646TIP3   OH222901   2.345   0.989   5.269
 7646TIP3    H122902   2.389   0.945   5.342
 7646TIP3    H222903   2.287   1.052   5.311
 7647TIP3   OH222904   4.927   4.259   0.338
 7647TIP3    H122905   4.906   4.352   0.347
 7647TIP3    H222906   4.857   4.225   0.282
 7648TIP3   OH222907   1.506   1.423   1.874
 7648TIP3    H122908   1.533   1.479   1.946
 7648TIP3    H222909   1.556   1.455   1.799
 7649TIP3   OH222910   0.642   2.533   2.634
 7649TIP3    H122911   0.696   2.547   2.712
 7649TIP3    H222912   0.558   2.573   2.656
 7650TIP3   OH222913   0.838   0.280   5.044
 7650TIP3    H122914   0.887   0.341   4.989
 7650TIP3    H222915   0.771   0.335   5.085
 7651TIP3   OH222916   0.421   5.332   4.341
 7651TIP3    H122917   0.376   5.369   4.417
 7651TIP3    H222918   0.362   5.350   4.267
 7652TIP3   OH222919   4.094   0.340   1.394
 7652TIP3    H122920   4.145   0.261   1.374
 7652TIP3    H222921   4.093   0.389   1.312
 7653TIP3   OH222922   5.770   1.628   4.790
 7653TIP3    H122923   5.675   1.627   4.804
 7653TIP3    H222924   5.781   1.590   4.703
 7654TIP3   OH222925   6.013   1.118   0.123
 7654TIP3    H122926   6.060   1.145   0.201
 7654TIP3    H222927   6.079   1.080   0.066
 7655TIP3   OH222928   1.842   0.408   3.794
 7655TIP3    H122929   1.831   0.316   3.817
 7655TIP3    H222930   1.863   0.451   3.876
 7656TIP3   OH222931   1.394   6.093   1.550
 7656TIP3    H122932   1.472   6.146   1.533
 7656TIP3    H222933   1.340   6.149   1.607
 7657TIP3   OH222934   3.280   2.478   4.039
 7657TIP3    H122935   3.356   2.468   4.096
 7657TIP3    H222936   3.205   2.477   4.098
 7658TIP3   OH222937   2.973   5.205   2.543
 7658TIP3    H122938   3.016   5.129   2.504
 7658TIP3    H222939   2.879   5.188   2.533
 7659TIP3   OH222940   6.852   3.601   5.778
 7659TIP3    H122941   6.807   3.613   5.694
 7659TIP3    H222942   6.904   3.522   5.767
 7660TIP3   OH222943   1.122   2.358   0.253
 7660TIP3    H122944   1.155   2.343   0.342
 7660TIP3    H222945   1.125   2.453   0.242
 7661TIP3   OH222946   6.551   5.870   4.313
 7661TIP3    H122947   6.619   5.805   4.331
 7661TIP3    H222948   6.586   5.952   4.346
 7662TIP3   OH222949   1.757   6.683   0.073
 7662TIP3    H122950   1.701   6.606   0.062
 7662TIP3    H222951   1.827   6.671   0.009
 7663TIP3   OH222952   4.594   3.013   2.305
 7663TIP3    H122953   4.554   3.017   2.218
 7663TIP3    H222954   4.584   3.102   2.340
 7664TIP3   OH222955   2.293   5.254   3.837
 7664TIP3    H122956   2.339   5.188   3.888
 7664TIP3    H222957   2.333   5.251   3.750
 7665TIP3   OH222958   7.130   6.376   5.717
 7665TIP3    H122959   7.104   6.384   5.809
 7665TIP3    H222960   7.205   6.435   5.708
 7666TIP3   OH222961   5.176   2.970   5.110
 7666TIP3    H122962   5.232   2.957   5.187
 7666TIP3    H222963   5.188   3.062   5.086
 7667TIP3   OH222964   3.211   5.371   4.731
 7667TIP3    H122965   3.210   5.454   4.778
 7667TIP3    H222966   3.267   5.387   4.655
 7668TIP3   OH222967   4.027   5.463   1.798
 7668TIP3    H122968   3.953   5.491   1.852
 7668TIP3    H222969   4.101   5.514   1.830
 7669TIP3   OH222970   5.179   3.568   4.538
 7669TIP3    H122971   5.086   3.550   4.523
 7669TIP3    H222972   5.194   3.653   4.497
 7670TIP3   OH222973   0.525   2.928   4.217
 7670TIP3    H122974   0.601   2.974   4.181
 7670TIP3    H222975   0.457   2.995   4.223
 7671TIP3   OH222976   3.163   3.170   3.345
 7671TIP3    H122977   3.122   3.257   3.347
 7671TIP3    H222978   3.198   3.158   3.433
 7672TIP3   OH222979   2.568   4.112   2.213
 7672TIP3    H122980   2.523   4.035   2.179
 7672TIP3    H222981   2.515   4.186   2.184
 7673TIP3   OH222982   4.855   1.379   1.345
 7673TIP3    H122983   4.864   1.284   1.337
 7673TIP3    H222984   4.935   1.414   1.307
 7674TIP3   OH222985   0.681   3.109   2.349
 7674TIP3    H122986   0.733   3.103   2.428
 7674TIP3    H222987   0.706   3.033   2.297
 7675TIP3   OH222988   4.198   1.883   3.635
 7675TIP3    H122989   4.246   1.800   3.633
 7675TIP3    H222990   4.215   1.922   3.549
 7676TIP3   OH222991   5.337   5.350   0.433
 7676TIP3    H122992   5.402   5.385   0.494
 7676TIP3    H222993   5.372   5.370   0.347
 7677TIP3   OH222994   4.031   1.439   5.598
 7677TIP3    H122995   4.009   1.529   5.574
 7677TIP3    H222996   3.949   1.391   5.591
 7678TIP3   OH222997   3.307   2.082   5.046
 7678TIP3    H122998   3.239   2.140   5.081
 7678TIP3    H222999   3.269   2.047   4.966
 7679TIP3   OH223000   6.781   3.445   0.657
 7679TIP3    H123001   6.746   3.497   0.585
 7679TIP3    H223002   6.873   3.470   0.661
 7680TIP3   OH223003   6.926   3.359   2.258
 7680TIP3    H123004   6.975   3.408   2.192
 7680TIP3    H223005   6.841   3.402   2.262
 7681TIP3   OH223006   5.555   3.025   4.326
 7681TIP3    H123007   5.513   3.104   4.359
 7681TIP3    H223008   5.600   2.988   4.402
 7682TIP3   OH223009   2.808   1.003   4.325
 7682TIP3    H123010   2.760   0.927   4.356
 7682TIP3    H223011   2.741   1.065   4.298
 7683TIP3   OH223012   4.166   5.062   2.033
 7683TIP3    H123013   4.170   5.023   1.946
 7683TIP3    H223014   4.155   5.156   2.018
 7684TIP3   OH223015   3.902   4.107   3.395
 7684TIP3    H123016   3.826   4.054   3.418
 7684TIP3    H223017   3.875   4.155   3.316
 7685TIP3   OH223018   0.109   0.274   4.941
 7685TIP3    H123019   0.149   0.268   4.854
 7685TIP3    H223020   0.170   0.227   4.998
 7686TIP3   OH223021   5.562   3.420   3.100
 7686TIP3    H123022   5.528   3.352   3.043
 7686TIP3    H223023   5.488   3.479   3.114
 7687TIP3   OH223024   4.303   5.348   1.190
 7687TIP3    H123025   4.396   5.369   1.183
 7687TIP3    H223026   4.298   5.283   1.260
 7688TIP3   OH223027   6.823   5.471   0.151
 7688TIP3    H123028   6.891   5.426   0.201
 7688TIP3    H223029   6.872   5.532   0.096
 7689TIP3   OH223030   1.826   4.578   3.937
 7689TIP3    H123031   1.826   4.524   4.016
 7689TIP3    H223032   1.737   4.569   3.903
 7690TIP3   OH223033   1.466   6.382   0.782
 7690TIP3    H123034   1.460   6.459   0.726
 7690TIP3    H223035   1.522   6.321   0.733
 7691TIP3   OH223036   3.310   3.425   1.565
 7691TIP3    H123037   3.233   3.456   1.613
 7691TIP3    H223038   3.281   3.343   1.523
 7692TIP3   OH223039   5.445   3.553   3.594
 7692TIP3    H123040   5.533   3.535   3.562
 7692TIP3    H223041   5.396   3.473   3.576
 7693TIP3   OH223042   4.831   5.858   4.669
 7693TIP3    H123043   4.840   5.924   4.600
 7693TIP3    H223044   4.779   5.789   4.629
 7694TIP3   OH223045   1.382   4.995   3.558
 7694TIP3    H123046   1.437   4.948   3.495
 7694TIP3    H223047   1.333   4.926   3.604
 7695TIP3   OH223048   4.593   0.199   1.384
 7695TIP3    H123049   4.540   0.250   1.322
 7695TIP3    H223050   4.606   0.257   1.459
 7696TIP3   OH223051   2.441   6.131   0.694
 7696TIP3    H123052   2.528   6.161   0.667
 7696TIP3    H223053   2.391   6.125   0.612
 7697TIP3   OH223054   4.801   6.062   4.104
 7697TIP3    H123055   4.782   6.146   4.061
 7697TIP3    H223056   4.827   6.004   4.032
 7698TIP3   OH223057   6.977   0.619   0.848
 7698TIP3    H123058   6.956   0.619   0.755
 7698TIP3    H223059   6.892   0.610   0.892
 7699TIP3   OH223060   3.695   2.917   0.888
 7699TIP3    H123061   3.684   2.944   0.979
 7699TIP3    H223062   3.785   2.885   0.883
 7700TIP3   OH223063   1.781   6.663   4.234
 7700TIP3    H123064   1.775   6.709   4.318
 7700TIP3    H223065   1.787   6.732   4.169
 7701TIP3   OH223066   3.789   2.668   2.387
 7701TIP3    H123067   3.758   2.577   2.390
 7701TIP3    H223068   3.812   2.688   2.477
 7702TIP3   OH223069   6.786   3.764   3.531
 7702TIP3    H123070   6.881   3.759   3.547
 7702TIP3    H223071   6.769   3.857   3.518
 7703TIP3   OH223072   2.457   3.321   1.644
 7703TIP3    H123073   2.481   3.248   1.587
 7703TIP3    H223074   2.440   3.394   1.585
 7704TIP3   OH223075   2.624   6.555   4.430
 7704TIP3    H123076   2.638   6.490   4.361
 7704TIP3    H223077   2.531   6.578   4.422
 7705TIP3   OH223078   1.904   1.572   3.186
 7705TIP3    H123079   1.985   1.525   3.169
 7705TIP3    H223080   1.836   1.517   3.149
 7706TIP3   OH223081   7.048   5.739   1.371
 7706TIP3    H123082   7.070   5.722   1.463
 7706TIP3    H223083   7.124   5.786   1.337
 7707TIP3   OH223084   4.569   0.710   0.535
 7707TIP3    H123085   4.585   0.615   0.529
 7707TIP3    H223086   4.508   0.728   0.463
 7708TIP3   OH223087   4.490   3.285   2.389
 7708TIP3    H123088   4.417   3.250   2.440
 7708TIP3    H223089   4.512   3.368   2.432
 7709TIP3   OH223090   1.429   5.316   0.408
 7709TIP3    H123091   1.372   5.327   0.485
 7709TIP3    H223092   1.373   5.275   0.343
 7710TIP3   OH223093   6.005   4.872   2.490
 7710TIP3    H123094   5.967   4.847   2.575
 7710TIP3    H223095   6.039   4.791   2.454
 7711TIP3   OH223096   6.429   3.679   1.051
 7711TIP3    H123097   6.481   3.602   1.078
 7711TIP3    H223098   6.455   3.747   1.113
 7712TIP3   OH223099   3.421   4.532   2.824
 7712TIP3    H123100   3.495   4.472   2.832
 7712TIP3    H223101   3.345   4.478   2.844
 7713TIP3   OH223102   1.592   4.289   5.076
 7713TIP3    H123103   1.671   4.286   5.022
 7713TIP3    H223104   1.618   4.250   5.160
 7714TIP3   OH223105   3.170   6.649   4.741
 7714TIP3    H123106   3.177   6.744   4.747
 7714TIP3    H223107   3.239   6.617   4.799
 7715TIP3   OH223108   5.138   5.450   1.801
 7715TIP3    H123109   5.225   5.488   1.806
 7715TIP3    H223110   5.099   5.468   1.887
 7716TIP3   OH223111   0.434   2.887   2.324
 7716TIP3    H123112   0.421   2.963   2.380
 7716TIP3    H223113   0.520   2.900   2.284
 7717TIP3   OH223114   0.213   2.654   0.210
 7717TIP3    H123115   0.160   2.576   0.226
 7717TIP3    H223116   0.192   2.680   0.120
 7718TIP3   OH223117   0.366   6.185   4.919
 7718TIP3    H123118   0.395   6.227   4.839
 7718TIP3    H223119   0.301   6.121   4.891
 7719TIP3   OH223120   0.924   3.989   1.397
 7719TIP3    H123121   1.010   3.960   1.429
 7719TIP3    H223122   0.880   3.908   1.371
 7720TIP3   OH223123   7.027   5.991   2.125
 7720TIP3    H123124   6.989   5.992   2.214
 7720TIP3    H223125   7.116   6.022   2.137
 7721TIP3   OH223126   6.968   2.973   5.879
 7721TIP3    H123127   6.878   2.958   5.907
 7721TIP3    H223128   6.996   2.889   5.843
 7722TIP3   OH223129   1.332   1.694   1.251
 7722TIP3    H123130   1.360   1.685   1.342
 7722TIP3    H223131   1.245   1.734   1.256
 7723TIP3   OH223132   5.004   4.015   2.628
 7723TIP3    H123133   5.007   3.988   2.720
 7723TIP3    H223134   4.960   4.101   2.630
 7724TIP3   OH223135   5.448   4.968   3.010
 7724TIP3    H123136   5.367   4.919   3.021
 7724TIP3    H223137   5.425   5.037   2.947
 7725TIP3   OH223138   5.379   0.257   5.096
 7725TIP3    H123139   5.452   0.198   5.077
 7725TIP3    H223140   5.387   0.276   5.189
 7726TIP3   OH223141   0.930   6.140   0.396
 7726TIP3    H123142   0.924   6.200   0.471
 7726TIP3    H223143   1.005   6.085   0.416
 7727TIP3   OH223144   4.946   1.220   5.408
 7727TIP3    H123145   4.908   1.149   5.356
 7727TIP3    H223146   4.880   1.238   5.475
 7728TIP3   OH223147   4.968   1.854   5.108
 7728TIP3    H123148   5.020   1.782   5.073
 7728TIP3    H223149   4.880   1.839   5.076
 7729TIP3   OH223150   4.324   6.571   2.342
 7729TIP3    H123151   4.294   6.481   2.328
 7729TIP3    H223152   4.393   6.564   2.407
 7730TIP3   OH223153   0.533   3.520   1.433
 7730TIP3    H123154   0.444   3.525   1.467
 7730TIP3    H223155   0.570   3.442   1.473
 7731TIP3   OH223156   1.980   3.423   4.630
 7731TIP3    H123157   1.958   3.330   4.631
 7731TIP3    H223158   1.981   3.447   4.537
 7732TIP3   OH223159   1.351   5.247   3.662
 7732TIP3    H123160   1.310   5.274   3.580
 7732TIP3    H223161   1.370   5.154   3.650
 7733TIP3   OH223162   6.308   2.199   0.707
 7733TIP3    H123163   6.393   2.158   0.692
 7733TIP3    H223164   6.280   2.168   0.792
 7734TIP3   OH223165   5.273   5.888   0.121
 7734TIP3    H123166   5.257   5.979   0.094
 7734TIP3    H223167   5.363   5.870   0.092
 7735TIP3   OH223168   6.616   6.526   0.029
 7735TIP3    H123169   6.604   6.618   0.005
 7735TIP3    H223170   6.682   6.494  -0.033
 7736TIP3   OH223171   5.194   0.158   4.778
 7736TIP3    H123172   5.175   0.092   4.711
 7736TIP3    H223173   5.262   0.213   4.739
 7737TIP3   OH223174   0.285   4.683   2.571
 7737TIP3    H123175   0.305   4.612   2.632
 7737TIP3    H223176   0.366   4.695   2.522
 7738TIP3   OH223177   4.868   1.064   4.406
 7738TIP3    H123178   4.814   1.031   4.334
 7738TIP3    H223179   4.852   1.158   4.408
 7739TIP3   OH223180   5.629   4.840   3.132
 7739TIP3    H123181   5.553   4.867   3.080
 7739TIP3    H223182   5.697   4.905   3.111
 7740TIP3   OH223183   4.518   6.427   0.864
 7740TIP3    H123184   4.534   6.341   0.903
 7740TIP3    H223185   4.605   6.462   0.847
 7741TIP3   OH223186   5.545   5.470   0.578
 7741TIP3    H123187   5.561   5.475   0.672
 7741TIP3    H223188   5.616   5.415   0.545
 7742TIP3   OH223189   1.648   2.624   5.698
 7742TIP3    H123190   1.634   2.719   5.704
 7742TIP3    H223191   1.739   2.614   5.671
 7743TIP3   OH223192   5.902   2.918   2.167
 7743TIP3    H123193   5.962   2.990   2.144
 7743TIP3    H223194   5.959   2.844   2.187
 7744TIP3   OH223195   5.851   3.612   2.229
 7744TIP3    H123196   5.884   3.681   2.286
 7744TIP3    H223197   5.803   3.554   2.287
 7745TIP3   OH223198   4.286   2.913   2.908
 7745TIP3    H123199   4.289   3.009   2.906
 7745TIP3    H223200   4.349   2.887   2.841
 7746TIP3   OH223201   4.955   2.912   5.647
 7746TIP3    H123202   4.932   2.961   5.726
 7746TIP3    H223203   5.020   2.848   5.677
 7747TIP3   OH223204   4.644   1.540   1.704
 7747TIP3    H123205   4.641   1.450   1.737
 7747TIP3    H223206   4.734   1.568   1.718
 7748TIP3   OH223207   6.894   3.935   1.485
 7748TIP3    H123208   6.903   4.017   1.437
 7748TIP3    H223209   6.811   3.899   1.454
 7749TIP3   OH223210   2.541   5.804   1.728
 7749TIP3    H123211   2.562   5.897   1.732
 7749TIP3    H223212   2.623   5.761   1.704
 7750TIP3   OH223213   4.452   3.101   0.172
 7750TIP3    H123214   4.392   3.081   0.101
 7750TIP3    H223215   4.404   3.160   0.229
 7751TIP3   OH223216   2.186   3.934   2.651
 7751TIP3    H123217   2.136   4.010   2.622
 7751TIP3    H223218   2.154   3.862   2.597
 7752TIP3   OH223219   0.348   0.658   1.805
 7752TIP3    H123220   0.284   0.587   1.799
 7752TIP3    H223221   0.297   0.738   1.794
 7753TIP3   OH223222   1.848   0.447   0.053
 7753TIP3    H123223   1.825   0.484  -0.032
 7753TIP3    H223224   1.922   0.500   0.082
 7754TIP3   OH223225   3.963   5.385   3.713
 7754TIP3    H123226   4.054   5.382   3.744
 7754TIP3    H223227   3.969   5.358   3.621
 7755TIP3   OH223228   2.334   4.388   0.884
 7755TIP3    H123229   2.391   4.311   0.876
 7755TIP3    H223230   2.338   4.430   0.799
 7756TIP3   OH223231   5.065   0.438   2.312
 7756TIP3    H123232   5.129   0.422   2.382
 7756TIP3    H223233   5.077   0.530   2.289
 7757TIP3   OH223234   6.899   6.104   2.867
 7757TIP3    H123235   6.955   6.074   2.939
 7757TIP3    H223236   6.817   6.057   2.880
 7758TIP3   OH223237   5.896   5.889   3.195
 7758TIP3    H123238   5.906   5.796   3.218
 7758TIP3    H223239   5.810   5.912   3.231
 7759TIP3   OH223240   1.240   0.119   5.878
 7759TIP3    H123241   1.278   0.132   5.791
 7759TIP3    H223242   1.146   0.112   5.863
 7760TIP3   OH223243   2.675   5.522   1.704
 7760TIP3    H123244   2.764   5.485   1.702
 7760TIP3    H223245   2.620   5.450   1.733
 7761TIP3   OH223246   0.762   5.097   2.702
 7761TIP3    H123247   0.763   5.181   2.656
 7761TIP3    H223248   0.833   5.105   2.766
 7762TIP3   OH223249   4.165   2.645   2.509
 7762TIP3    H123250   4.198   2.621   2.596
 7762TIP3    H223251   4.218   2.595   2.448
 7763TIP3   OH223252   0.787   1.654   2.017
 7763TIP3    H123253   0.878   1.625   2.028
 7763TIP3    H223254   0.735   1.582   2.051
 7764TIP3   OH223255   1.974   5.483   5.217
 7764TIP3    H123256   1.934   5.500   5.303
 7764TIP3    H223257   1.955   5.562   5.166
 7765TIP3   OH223258   4.069   3.186   0.907
 7765TIP3    H123259   4.100   3.154   0.823
 7765TIP3    H223260   4.113   3.271   0.918
 7766TIP3   OH223261   4.418   2.450   1.587
 7766TIP3    H123262   4.471   2.501   1.648
 7766TIP3    H223263   4.435   2.491   1.502
 7767TIP3   OH223264   5.329   6.078   1.042
 7767TIP3    H123265   5.358   5.987   1.048
 7767TIP3    H223266   5.356   6.105   0.954
 7768TIP3   OH223267   6.306   0.822   0.161
 7768TIP3    H123268   6.317   0.877   0.238
 7768TIP3    H223269   6.395   0.794   0.139
 7769TIP3   OH223270   5.780   4.512   5.846
 7769TIP3    H123271   5.848   4.472   5.791
 7769TIP3    H223272   5.813   4.600   5.865
 7770TIP3   OH223273   3.092   5.652   0.509
 7770TIP3    H123274   3.177   5.612   0.529
 7770TIP3    H223275   3.114   5.738   0.473
 7771TIP3   OH223276   5.332   6.792   2.270
 7771TIP3    H123277   5.287   6.853   2.328
 7771TIP3    H223278   5.355   6.718   2.326
 7772TIP3   OH223279   4.017   6.642   0.146
 7772TIP3    H123280   4.007   6.652   0.241
 7772TIP3    H223281   3.934   6.674   0.110
 7773TIP3   OH223282   6.238   0.225   3.335
 7773TIP3    H123283   6.226   0.143   3.288
 7773TIP3    H223284   6.155   0.238   3.381
 7774TIP3   OH223285   2.143   3.202   2.997
 7774TIP3    H123286   2.128   3.116   3.036
 7774TIP3    H223287   2.083   3.261   3.042
 7775TIP3   OH223288   1.722   5.109   5.367
 7775TIP3    H123289   1.803   5.122   5.318
 7775TIP3    H223290   1.741   5.037   5.427
 7776TIP3   OH223291   4.108   5.010   4.808
 7776TIP3    H123292   4.174   5.050   4.865
 7776TIP3    H223293   4.025   5.043   4.841
 7777TIP3   OH223294   6.579   4.760   4.271
 7777TIP3    H123295   6.504   4.702   4.254
 7777TIP3    H223296   6.540   4.848   4.275
 7778TIP3   OH223297   3.198   4.235   4.568
 7778TIP3    H123298   3.174   4.323   4.595
 7778TIP3    H223299   3.234   4.194   4.647
 7779TIP3   OH223300   1.469   2.758   4.434
 7779TIP3    H123301   1.411   2.688   4.403
 7779TIP3    H223302   1.506   2.794   4.353
 7780TIP3   OH223303   4.317   1.092   1.217
 7780TIP3    H123304   4.310   1.187   1.232
 7780TIP3    H223305   4.373   1.084   1.140
 7781TIP3   OH223306   3.398   4.883   5.335
 7781TIP3    H123307   3.445   4.890   5.252
 7781TIP3    H223308   3.332   4.815   5.321
 7782TIP3   OH223309   2.644   2.515   4.230
 7782TIP3    H123310   2.661   2.452   4.160
 7782TIP3    H223311   2.726   2.563   4.240
 7783TIP3   OH223312   3.270   3.865   2.285
 7783TIP3    H123313   3.206   3.863   2.214
 7783TIP3    H223314   3.344   3.814   2.253
 7784TIP3   OH223315   5.139   0.735   0.189
 7784TIP3    H123316   5.150   0.830   0.182
 7784TIP3    H223317   5.190   0.711   0.266
 7785TIP3   OH223318   3.132   1.282   4.460
 7785TIP3    H123319   3.052   1.264   4.508
 7785TIP3    H223320   3.179   1.346   4.514
 7786TIP3   OH223321   3.757   1.740   3.935
 7786TIP3    H123322   3.829   1.748   3.873
 7786TIP3    H223323   3.691   1.802   3.903
 7787TIP3   OH223324   2.460   3.220   2.078
 7787TIP3    H123325   2.375   3.235   2.120
 7787TIP3    H223326   2.438   3.204   1.986
 7788TIP3   OH223327   6.403   2.369   2.770
 7788TIP3    H123328   6.383   2.331   2.684
 7788TIP3    H223329   6.476   2.428   2.754
 7789TIP3   OH223330   0.847   3.355   2.552
 7789TIP3    H123331   0.823   3.272   2.594
 7789TIP3    H223332   0.888   3.329   2.469
 7790TIP3   OH223333   6.975   1.807   3.993
 7790TIP3    H123334   6.925   1.742   4.041
 7790TIP3    H223335   6.910   1.871   3.963
 7791TIP3   OH223336   3.638   1.004   1.830
 7791TIP3    H123337   3.605   1.054   1.755
 7791TIP3    H223338   3.678   1.070   1.887
 7792TIP3   OH223339   1.707   3.731   1.702
 7792TIP3    H123340   1.734   3.750   1.612
 7792TIP3    H223341   1.789   3.714   1.749
 7793TIP3   OH223342   2.265   3.899   0.331
 7793TIP3    H123343   2.265   3.991   0.305
 7793TIP3    H223344   2.175   3.882   0.359
 7794TIP3   OH223345   5.825   5.658   2.635
 7794TIP3    H123346   5.852   5.737   2.684
 7794TIP3    H223347   5.730   5.665   2.629
 7795TIP3   OH223348   3.487   4.379   5.146
 7795TIP3    H123349   3.517   4.435   5.073
 7795TIP3    H223350   3.478   4.438   5.220
 7796TIP3   OH223351   0.568   1.132   2.010
 7796TIP3    H123352   0.654   1.172   2.021
 7796TIP3    H223353   0.574   1.048   2.055
 7797TIP3   OH223354   6.021   6.031   2.022
 7797TIP3    H123355   6.104   6.054   2.064
 7797TIP3    H223356   5.979   5.970   2.083
 7798TIP3   OH223357   2.860   4.482   4.932
 7798TIP3    H123358   2.779   4.483   4.984
 7798TIP3    H223359   2.928   4.458   4.994
 7799TIP3   OH223360   2.747   4.038   2.909
 7799TIP3    H123361   2.692   4.109   2.878
 7799TIP3    H223362   2.758   4.054   3.003
 7800TIP3   OH223363   0.660   3.099   0.442
 7800TIP3    H123364   0.587   3.080   0.501
 7800TIP3    H223365   0.637   3.181   0.401
 7801TIP3   OH223366   2.572   0.045   3.317
 7801TIP3    H123367   2.554   0.006   3.232
 7801TIP3    H223368   2.568   0.139   3.301
 7802TIP3   OH223369   3.950   6.429   2.174
 7802TIP3    H123370   3.911   6.437   2.087
 7802TIP3    H223371   3.880   6.458   2.233
 7803TIP3   OH223372   2.800   4.667   2.938
 7803TIP3    H123373   2.829   4.628   3.020
 7803TIP3    H223374   2.852   4.747   2.929
 7804TIP3   OH223375   2.875   3.055   5.843
 7804TIP3    H123376   2.887   3.054   5.938
 7804TIP3    H223377   2.858   2.964   5.821
 7805TIP3   OH223378   3.669   3.322   4.139
 7805TIP3    H123379   3.639   3.338   4.228
 7805TIP3    H223380   3.736   3.390   4.124
 7806TIP3   OH223381   0.760   4.891   3.305
 7806TIP3    H123382   0.852   4.867   3.319
 7806TIP3    H223383   0.756   4.919   3.214
 7807TIP3   OH223384   6.102   1.389   5.776
 7807TIP3    H123385   6.113   1.406   5.683
 7807TIP3    H223386   6.179   1.427   5.817
 7808TIP3   OH223387   1.701   2.584   3.324
 7808TIP3    H123388   1.613   2.572   3.288
 7808TIP3    H223389   1.724   2.500   3.363
 7809TIP3   OH223390   6.466   2.151   4.174
 7809TIP3    H123391   6.405   2.162   4.102
 7809TIP3    H223392   6.534   2.218   4.159
 7810TIP3   OH223393   5.060   5.719   4.485
 7810TIP3    H123394   5.106   5.691   4.565
 7810TIP3    H223395   5.119   5.782   4.445
 7811TIP3   OH223396   5.368   1.493   3.036
 7811TIP3    H123397   5.392   1.503   3.128
 7811TIP3    H223398   5.451   1.489   2.989
 7812TIP3   OH223399   1.598   0.445   5.604
 7812TIP3    H123400   1.605   0.540   5.612
 7812TIP3    H223401   1.606   0.413   5.694
 7813TIP3   OH223402   3.758   5.163   0.869
 7813TIP3    H123403   3.693   5.233   0.860
 7813TIP3    H223404   3.815   5.174   0.793
 7814TIP3   OH223405   0.383   0.177   0.372
 7814TIP3    H123406   0.324   0.115   0.329
 7814TIP3    H223407   0.461   0.125   0.392
 7815TIP3   OH223408   5.234   2.930   1.743
 7815TIP3    H123409   5.263   2.903   1.656
 7815TIP3    H223410   5.254   2.856   1.800
 7816TIP3   OH223411   0.260   3.245   2.653
 7816TIP3    H123412   0.281   3.310   2.719
 7816TIP3    H223413   0.215   3.294   2.584
 7817TIP3   OH223414   4.066   6.466   1.859
 7817TIP3    H123415   4.054   6.392   1.800
 7817TIP3    H223416   4.151   6.450   1.901
 7818TIP3   OH223417   2.640   1.826   2.758
 7818TIP3    H123418   2.688   1.783   2.687
 7818TIP3    H223419   2.615   1.911   2.721
 7819TIP3   OH223420   5.396   0.113   2.601
 7819TIP3    H123421   5.303   0.139   2.600
 7819TIP3    H223422   5.441   0.190   2.636
 7820TIP3   OH223423   5.537   3.785   0.530
 7820TIP3    H123424   5.513   3.786   0.623
 7820TIP3    H223425   5.553   3.877   0.508
 7821TIP3   OH223426   4.826   6.700   0.967
 7821TIP3    H123427   4.855   6.790   0.978
 7821TIP3    H223428   4.873   6.669   0.890
 7822TIP3   OH223429   0.259   1.644   4.171
 7822TIP3    H123430   0.207   1.700   4.228
 7822TIP3    H223431   0.221   1.658   4.084
 7823TIP3   OH223432   1.999   3.876   0.540
 7823TIP3    H123433   1.919   3.838   0.577
 7823TIP3    H223434   2.063   3.805   0.542
 7824TIP3   OH223435   4.023   4.133   0.863
 7824TIP3    H123436   4.063   4.114   0.948
 7824TIP3    H223437   4.017   4.229   0.861
 7825TIP3   OH223438   1.274   2.974   3.403
 7825TIP3    H123439   1.224   2.893   3.393
 7825TIP3    H223440   1.285   2.984   3.498
 7826TIP3   OH223441   1.853   2.395   3.495
 7826TIP3    H123442   1.940   2.376   3.530
 7826TIP3    H223443   1.815   2.308   3.479
 7827TIP3   OH223444   2.222   1.278   2.269
 7827TIP3    H123445   2.260   1.197   2.235
 7827TIP3    H223446   2.250   1.281   2.360
 7828TIP3   OH223447   3.931   1.888   4.497
 7828TIP3    H123448   4.024   1.869   4.504
 7828TIP3    H223449   3.919   1.966   4.551
 7829TIP3   OH223450   6.501   0.554   0.819
 7829TIP3    H123451   6.587   0.524   0.846
 7829TIP3    H223452   6.456   0.475   0.790
 7830TIP3   OH223453   4.766   1.007   5.860
 7830TIP3    H123454   4.830   0.938   5.845
 7830TIP3    H223455   4.698   0.992   5.794
 7831TIP3   OH223456   3.366   4.389   3.240
 7831TIP3    H123457   3.311   4.431   3.306
 7831TIP3    H223458   3.447   4.439   3.240
 7832TIP3   OH223459   2.425   2.639   0.783
 7832TIP3    H123460   2.516   2.634   0.811
 7832TIP3    H223461   2.398   2.548   0.769
 7833TIP3   OH223462   6.990   4.096   3.391
 7833TIP3    H123463   6.980   4.191   3.398
 7833TIP3    H223464   6.908   4.061   3.427
 7834TIP3   OH223465   6.999   4.446   0.784
 7834TIP3    H123466   6.923   4.421   0.731
 7834TIP3    H223467   6.968   4.444   0.874
 7835TIP3   OH223468   5.836   1.000   1.885
 7835TIP3    H123469   5.852   1.089   1.853
 7835TIP3    H223470   5.870   0.944   1.816
 7836TIP3   OH223471   1.623   5.993   5.714
 7836TIP3    H123472   1.552   5.980   5.777
 7836TIP3    H223473   1.676   5.914   5.720
 7837TIP3   OH223474   1.337   1.900   3.958
 7837TIP3    H123475   1.331   1.962   3.884
 7837TIP3    H223476   1.396   1.943   4.020
 7838TIP3   OH223477   2.263   4.547   2.184
 7838TIP3    H123478   2.302   4.595   2.257
 7838TIP3    H223479   2.288   4.597   2.106
 7839TIP3   OH223480   0.207   0.546   2.161
 7839TIP3    H123481   0.146   0.475   2.142
 7839TIP3    H223482   0.159   0.604   2.219
 7840TIP3   OH223483   0.615   6.756   1.912
 7840TIP3    H123484   0.522   6.755   1.934
 7840TIP3    H223485   0.621   6.707   1.829
 7841TIP3   OH223486   5.391   1.899   4.032
 7841TIP3    H123487   5.299   1.875   4.042
 7841TIP3    H223488   5.398   1.986   4.071
 7842TIP3   OH223489   3.138   6.668   2.625
 7842TIP3    H123490   3.192   6.654   2.547
 7842TIP3    H223491   3.066   6.723   2.595
 7843TIP3   OH223492   3.496   5.747   0.185
 7843TIP3    H123493   3.538   5.758   0.271
 7843TIP3    H223494   3.464   5.834   0.163
 7844TIP3   OH223495   0.189   2.605   2.126
 7844TIP3    H123496   0.191   2.510   2.136
 7844TIP3    H223497   0.219   2.639   2.211
 7845TIP3   OH223498   2.489   3.821   3.617
 7845TIP3    H123499   2.518   3.890   3.557
 7845TIP3    H223500   2.530   3.741   3.584
 7846TIP3   OH223501   6.906   2.009   1.302
 7846TIP3    H123502   6.848   2.053   1.364
 7846TIP3    H223503   6.880   2.043   1.216
 7847TIP3   OH223504   1.543   2.349   0.441
 7847TIP3    H123505   1.634   2.379   0.448
 7847TIP3    H223506   1.507   2.360   0.529
 7848TIP3   OH223507   6.682   0.602   2.369
 7848TIP3    H123508   6.752   0.564   2.315
 7848TIP3    H223509   6.716   0.598   2.458
 7849TIP3   OH223510   5.867   5.333   3.528
 7849TIP3    H123511   5.957   5.317   3.557
 7849TIP3    H223512   5.868   5.310   3.435
 7850TIP3   OH223513   5.544   6.466   3.760
 7850TIP3    H123514   5.557   6.392   3.700
 7850TIP3    H223515   5.630   6.482   3.797
 7851TIP3   OH223516   4.470   4.609   4.500
 7851TIP3    H123517   4.430   4.543   4.557
 7851TIP3    H223518   4.527   4.659   4.559
 7852TIP3   OH223519   1.438   5.846   3.097
 7852TIP3    H123520   1.466   5.898   3.021
 7852TIP3    H223521   1.484   5.763   3.087
 7853TIP3   OH223522   1.206   5.038   4.724
 7853TIP3    H123523   1.229   5.029   4.631
 7853TIP3    H223524   1.186   4.948   4.752
 7854TIP3   OH223525   5.716   0.532   5.006
 7854TIP3    H123526   5.750   0.546   4.917
 7854TIP3    H223527   5.621   0.525   4.994
 7855TIP3   OH223528   0.450   2.588   3.557
 7855TIP3    H123529   0.431   2.669   3.509
 7855TIP3    H223530   0.545   2.580   3.554
 7856TIP3   OH223531   5.913   4.268   0.927
 7856TIP3    H123532   5.950   4.212   0.858
 7856TIP3    H223533   5.819   4.269   0.908
 7857TIP3   OH223534   3.668   4.006   0.410
 7857TIP3    H123535   3.707   4.039   0.491
 7857TIP3    H223536   3.687   3.912   0.411
 7858TIP3   OH223537   4.381   4.103   5.742
 7858TIP3    H123538   4.428   4.174   5.700
 7858TIP3    H223539   4.449   4.037   5.759
 7859TIP3   OH223540   2.106   2.091   3.337
 7859TIP3    H123541   2.193   2.069   3.306
 7859TIP3    H223542   2.101   2.053   3.425
 7860TIP3   OH223543   1.679   2.347   0.878
 7860TIP3    H123544   1.662   2.372   0.969
 7860TIP3    H223545   1.772   2.364   0.866
 7861TIP3   OH223546   5.160   5.317   2.876
 7861TIP3    H123547   5.160   5.412   2.867
 7861TIP3    H223548   5.166   5.303   2.971
 7862TIP3   OH223549   5.514   0.869   0.696
 7862TIP3    H123550   5.550   0.947   0.737
 7862TIP3    H223551   5.456   0.903   0.627
 7863TIP3   OH223552   2.918   3.412   2.861
 7863TIP3    H123553   2.974   3.371   2.795
 7863TIP3    H223554   2.832   3.371   2.849
 7864TIP3   OH223555   6.496   1.597   0.156
 7864TIP3    H123556   6.581   1.587   0.113
 7864TIP3    H223557   6.472   1.508   0.182
 7865TIP3   OH223558   5.842   0.006   5.327
 7865TIP3    H123559   5.868  -0.033   5.244
 7865TIP3    H223560   5.782   0.076   5.303
 7866TIP3   OH223561   6.393   4.446   1.693
 7866TIP3    H123562   6.378   4.356   1.723
 7866TIP3    H223563   6.405   4.437   1.598
 7867TIP3   OH223564   0.896   6.829   2.262
 7867TIP3    H123565   0.919   6.764   2.328
 7867TIP3    H223566   0.904   6.783   2.179
 7868TIP3   OH223567   3.542   5.198   4.986
 7868TIP3    H123568   3.508   5.144   5.057
 7868TIP3    H223569   3.489   5.277   4.989
 7869TIP3   OH223570   2.850   4.959   2.925
 7869TIP3    H123571   2.854   4.969   3.020
 7869TIP3    H223572   2.942   4.954   2.897
 7870TIP3   OH223573   0.044   5.522   1.175
 7870TIP3    H123574  -0.048   5.546   1.177
 7870TIP3    H223575   0.079   5.569   1.099
 7871TIP3   OH223576   2.508   6.275   2.523
 7871TIP3    H123577   2.572   6.250   2.589
 7871TIP3    H223578   2.483   6.364   2.547
 7872TIP3   OH223579   2.397   5.669   3.147
 7872TIP3    H123580   2.301   5.668   3.143
 7872TIP3    H223581   2.423   5.580   3.125
 7873TIP3   OH223582   1.969   1.680   3.444
 7873TIP3    H123583   1.951   1.686   3.350
 7873TIP3    H223584   1.920   1.603   3.472
 7874TIP3   OH223585   2.324   1.835   0.410
 7874TIP3    H123586   2.333   1.742   0.392
 7874TIP3    H223587   2.405   1.860   0.454
 7875TIP3   OH223588   7.006   4.416   2.429
 7875TIP3    H123589   7.085   4.406   2.481
 7875TIP3    H223590   7.036   4.452   2.346
 7876TIP3   OH223591   0.182   2.205   4.739
 7876TIP3    H123592   0.272   2.238   4.741
 7876TIP3    H223593   0.145   2.232   4.823
 7877TIP3   OH223594   1.070   2.959   5.346
 7877TIP3    H123595   0.990   3.002   5.317
 7877TIP3    H223596   1.122   3.030   5.385
 7878TIP3   OH223597   1.420   6.689   2.398
 7878TIP3    H123598   1.359   6.617   2.381
 7878TIP3    H223599   1.405   6.711   2.490
 7879TIP3   OH223600   3.122   2.140   2.534
 7879TIP3    H123601   3.104   2.142   2.440
 7879TIP3    H223602   3.067   2.069   2.567
 7880TIP3   OH223603   6.514   5.334   3.745
 7880TIP3    H123604   6.516   5.327   3.650
 7880TIP3    H223605   6.464   5.414   3.762
 7881TIP3   OH223606   2.706   2.420   0.980
 7881TIP3    H123607   2.714   2.513   0.957
 7881TIP3    H223608   2.710   2.418   1.075
 7882TIP3   OH223609   6.181   4.339   2.737
 7882TIP3    H123610   6.109   4.282   2.763
 7882TIP3    H223611   6.183   4.407   2.804
 7883TIP3   OH223612   0.553   2.847   5.417
 7883TIP3    H123613   0.647   2.832   5.410
 7883TIP3    H223614   0.539   2.870   5.509
 7884TIP3   OH223615   6.147   1.157   2.646
 7884TIP3    H123616   6.224   1.172   2.591
 7884TIP3    H223617   6.181   1.158   2.735
 7885TIP3   OH223618   1.385   2.669   3.976
 7885TIP3    H123619   1.297   2.633   3.968
 7885TIP3    H223620   1.434   2.604   4.026
 7886TIP3   OH223621   7.183   4.952   3.279
 7886TIP3    H123622   7.115   4.903   3.233
 7886TIP3    H223623   7.262   4.899   3.268
 7887TIP3   OH223624   3.308   2.082   0.689
 7887TIP3    H123625   3.355   2.158   0.655
 7887TIP3    H223626   3.275   2.109   0.774
 7888TIP3   OH223627   1.609   0.526   1.715
 7888TIP3    H123628   1.702   0.503   1.712
 7888TIP3    H223629   1.592   0.543   1.807
 7889TIP3   OH223630   3.445   5.140   1.160
 7889TIP3    H123631   3.361   5.097   1.145
 7889TIP3    H223632   3.501   5.111   1.088
 7890TIP3   OH223633   1.648   3.738   1.210
 7890TIP3    H123634   1.634   3.822   1.252
 7890TIP3    H223635   1.699   3.758   1.131
 7891TIP3   OH223636   0.505   2.036   1.226
 7891TIP3    H123637   0.481   2.122   1.261
 7891TIP3    H223638   0.495   2.044   1.131
 7892TIP3   OH223639   6.042   2.188   3.242
 7892TIP3    H123640   6.061   2.267   3.293
 7892TIP3    H223641   6.036   2.219   3.151
 7893TIP3   OH223642   0.294   2.654   2.367
 7893TIP3    H123643   0.344   2.734   2.380
 7893TIP3    H223644   0.263   2.630   2.454
 7894TIP3   OH223645   6.670   2.157   0.208
 7894TIP3    H123646   6.619   2.204   0.274
 7894TIP3    H223647   6.671   2.215   0.132
 7895TIP3   OH223648   4.142   3.751   2.464
 7895TIP3    H123649   4.197   3.716   2.534
 7895TIP3    H223650   4.093   3.675   2.431
 7896TIP3   OH223651   6.974   4.825   5.398
 7896TIP3    H123652   6.955   4.731   5.400
 7896TIP3    H223653   6.983   4.849   5.491
 7897TIP3   OH223654   1.026   5.156   3.607
 7897TIP3    H123655   1.069   5.107   3.676
 7897TIP3    H223656   1.095   5.209   3.568
 7898TIP3   OH223657   1.779   5.999   5.104
 7898TIP3    H123658   1.707   6.059   5.082
 7898TIP3    H223659   1.793   5.949   5.024
 7899TIP3   OH223660   5.681   2.030   5.649
 7899TIP3    H123661   5.676   2.087   5.572
 7899TIP3    H223662   5.590   2.022   5.679
 7900TIP3   OH223663   2.164   5.947   5.841
 7900TIP3    H123664   2.182   5.913   5.929
 7900TIP3    H223665   2.086   6.002   5.853
 7901TIP3   OH223666   1.652   2.137   4.643
 7901TIP3    H123667   1.571   2.186   4.656
 7901TIP3    H223668   1.639   2.089   4.562
 7902TIP3   OH223669   5.425   5.211   3.192
 7902TIP3    H123670   5.455   5.180   3.278
 7902TIP3    H223671   5.484   5.283   3.170
 7903TIP3   OH223672   4.519   1.900   0.960
 7903TIP3    H123673   4.459   1.943   1.020
 7903TIP3    H223674   4.480   1.913   0.873
 7904TIP3   OH223675   2.773   0.262   4.931
 7904TIP3    H123676   2.825   0.198   4.883
 7904TIP3    H223677   2.686   0.222   4.938
 7905TIP3   OH223678   5.828   2.478   5.492
 7905TIP3    H123679   5.882   2.558   5.492
 7905TIP3    H223680   5.854   2.432   5.571
 7906TIP3   OH223681   6.377   5.734   0.312
 7906TIP3    H123682   6.351   5.673   0.382
 7906TIP3    H223683   6.324   5.708   0.237
 7907TIP3   OH223684   5.465   1.779   3.432
 7907TIP3    H123685   5.492   1.696   3.392
 7907TIP3    H223686   5.525   1.844   3.395
 7908TIP3   OH223687   6.153   1.818   0.515
 7908TIP3    H123688   6.088   1.751   0.496
 7908TIP3    H223689   6.102   1.895   0.541
 7909TIP3   OH223690   3.187   1.717   1.916
 7909TIP3    H123691   3.233   1.684   1.839
 7909TIP3    H223692   3.224   1.804   1.930
 7910TIP3   OH223693   4.916   1.524   2.467
 7910TIP3    H123694   4.975   1.452   2.490
 7910TIP3    H223695   4.867   1.491   2.391
 7911TIP3   OH223696   6.080   2.808   0.621
 7911TIP3    H123697   6.063   2.896   0.588
 7911TIP3    H223698   6.172   2.810   0.649
 7912TIP3   OH223699   2.619   1.922   3.009
 7912TIP3    H123700   2.623   2.017   2.996
 7912TIP3    H223701   2.656   1.886   2.929
 7913TIP3   OH223702   6.447   2.057   2.359
 7913TIP3    H123703   6.538   2.076   2.335
 7913TIP3    H223704   6.449   2.046   2.454
 7914TIP3   OH223705   7.037   3.438   2.982
 7914TIP3    H123706   7.035   3.447   3.077
 7914TIP3    H223707   6.950   3.464   2.953
 7915TIP3   OH223708   1.124   2.466   5.016
 7915TIP3    H123709   1.110   2.559   5.032
 7915TIP3    H223710   1.212   2.460   4.980
 7916TIP3   OH223711   4.998   6.124   0.104
 7916TIP3    H123712   5.063   6.167   0.049
 7916TIP3    H223713   4.997   6.033   0.073
 7917TIP3   OH223714   3.593   5.512   5.816
 7917TIP3    H123715   3.540   5.582   5.854
 7917TIP3    H223716   3.572   5.514   5.723
 7918TIP3   OH223717   5.729   6.073   2.205
 7918TIP3    H123718   5.733   6.113   2.118
 7918TIP3    H223719   5.807   6.107   2.250
 7919TIP3   OH223720   1.251   0.506   3.397
 7919TIP3    H123721   1.235   0.538   3.308
 7919TIP3    H223722   1.313   0.434   3.385
 7920TIP3   OH223723   1.643   4.072   4.493
 7920TIP3    H123724   1.562   4.075   4.544
 7920TIP3    H223725   1.649   3.982   4.464
 7921TIP3   OH223726   3.205   2.878   4.848
 7921TIP3    H123727   3.133   2.869   4.911
 7921TIP3    H223728   3.270   2.932   4.894
 7922TIP3   OH223729   6.797   6.631   3.852
 7922TIP3    H123730   6.839   6.642   3.766
 7922TIP3    H223731   6.777   6.720   3.880
 7923TIP3   OH223732   1.850   2.397   1.372
 7923TIP3    H123733   1.852   2.311   1.415
 7923TIP3    H223734   1.790   2.449   1.426
 7924TIP3   OH223735   4.791   1.099   1.455
 7924TIP3    H123736   4.866   1.097   1.395
 7924TIP3    H223737   4.827   1.076   1.540
 7925TIP3   OH223738   5.455   6.053   3.860
 7925TIP3    H123739   5.489   6.007   3.783
 7925TIP3    H223740   5.511   6.022   3.932
 7926TIP3   OH223741   0.304   0.171   5.435
 7926TIP3    H123742   0.322   0.102   5.371
 7926TIP3    H223743   0.221   0.209   5.407
 7927TIP3   OH223744   6.988   5.661   4.198
 7927TIP3    H123745   7.079   5.635   4.212
 7927TIP3    H223746   6.937   5.592   4.240
 7928TIP3   OH223747   4.040   1.055   1.267
 7928TIP3    H123748   4.133   1.058   1.288
 7928TIP3    H223749   3.997   1.032   1.350
 7929TIP3   OH223750   4.183   4.570   0.321
 7929TIP3    H123751   4.232   4.611   0.250
 7929TIP3    H223752   4.147   4.491   0.283
 7930TIP3   OH223753   2.839   3.590   2.000
 7930TIP3    H123754   2.771   3.613   2.064
 7930TIP3    H223755   2.914   3.564   2.053
 7931TIP3   OH223756   2.063   5.828   3.747
 7931TIP3    H123757   2.081   5.920   3.727
 7931TIP3    H223758   2.104   5.814   3.832
 7932TIP3   OH223759   5.154   5.531   4.203
 7932TIP3    H123760   5.088   5.601   4.211
 7932TIP3    H223761   5.187   5.540   4.114
 7933TIP3   OH223762   1.582   0.455   3.735
 7933TIP3    H123763   1.665   0.408   3.728
 7933TIP3    H223764   1.559   0.449   3.827
 7934TIP3   OH223765   4.418   3.813   5.219
 7934TIP3    H123766   4.480   3.782   5.153
 7934TIP3    H223767   4.470   3.822   5.299
 7935TIP3   OH223768   2.400   3.752   0.052
 7935TIP3    H123769   2.342   3.800   0.110
 7935TIP3    H223770   2.462   3.818   0.021
 7936TIP3   OH223771   3.289   3.172   0.239
 7936TIP3    H123772   3.201   3.135   0.240
 7936TIP3    H223773   3.345   3.103   0.274
 7937TIP3   OH223774   5.569   5.137   5.678
 7937TIP3    H123775   5.547   5.068   5.616
 7937TIP3    H223776   5.524   5.113   5.759
 7938TIP3   OH223777   5.293   4.385   3.935
 7938TIP3    H123778   5.220   4.419   3.884
 7938TIP3    H223779   5.367   4.385   3.874
 7939TIP3   OH223780   3.727   4.057   2.632
 7939TIP3    H123781   3.795   3.995   2.605
 7939TIP3    H223782   3.756   4.142   2.598
 7940TIP3   OH223783   0.574   3.239   4.197
 7940TIP3    H123784   0.483   3.211   4.188
 7940TIP3    H223785   0.570   3.318   4.251
 7941TIP3   OH223786   0.979   3.027   3.825
 7941TIP3    H123787   1.023   2.984   3.898
 7941TIP3    H223788   1.026   3.110   3.813
 7942TIP3   OH223789   2.131   0.611   4.614
 7942TIP3    H123790   2.067   0.675   4.582
 7942TIP3    H223791   2.127   0.619   4.709
 7943TIP3   OH223792   2.986   4.980   4.139
 7943TIP3    H123793   3.031   5.007   4.059
 7943TIP3    H223794   2.915   5.043   4.149
 7944TIP3   OH223795   0.627   4.559   3.816
 7944TIP3    H123796   0.621   4.529   3.725
 7944TIP3    H223797   0.538   4.555   3.849
 7945TIP3   OH223798   2.885   1.259   0.047
 7945TIP3    H123799   2.975   1.232   0.064
 7945TIP3    H223800   2.832   1.183   0.074
 7946TIP3   OH223801   0.448   6.213   4.524
 7946TIP3    H123802   0.533   6.201   4.482
 7946TIP3    H223803   0.467   6.211   4.618
 7947TIP3   OH223804   1.234   5.673   4.331
 7947TIP3    H123805   1.206   5.666   4.423
 7947TIP3    H223806   1.156   5.649   4.281
 7948TIP3   OH223807   0.386   4.570   3.334
 7948TIP3    H123808   0.422   4.482   3.331
 7948TIP3    H223809   0.462   4.627   3.341
 7949TIP3   OH223810   3.368   0.286   1.723
 7949TIP3    H123811   3.331   0.224   1.660
 7949TIP3    H223812   3.333   0.259   1.808
 7950TIP3   OH223813   6.006   2.328   0.527
 7950TIP3    H123814   5.913   2.303   0.523
 7950TIP3    H223815   6.053   2.245   0.522
 7951TIP3   OH223816   3.033   1.259   1.948
 7951TIP3    H123817   3.002   1.306   1.871
 7951TIP3    H223818   3.093   1.321   1.991
 7952TIP3   OH223819   5.485   0.226   5.799
 7952TIP3    H123820   5.415   0.201   5.859
 7952TIP3    H223821   5.558   0.250   5.857
 7953TIP3   OH223822   2.997   0.637   0.990
 7953TIP3    H123823   2.992   0.614   0.897
 7953TIP3    H223824   3.091   0.632   1.011
 7954TIP3   OH223825   6.661   6.505   5.849
 7954TIP3    H123826   6.613   6.467   5.775
 7954TIP3    H223827   6.608   6.579   5.877
 7955TIP3   OH223828   5.556   2.018   1.224
 7955TIP3    H123829   5.640   2.029   1.181
 7955TIP3    H223830   5.577   1.983   1.310
 7956TIP3   OH223831   5.060   6.362   3.405
 7956TIP3    H123832   5.052   6.456   3.387
 7956TIP3    H223833   5.026   6.319   3.326
 7957TIP3   OH223834   6.028   5.776   5.137
 7957TIP3    H123835   6.069   5.859   5.113
 7957TIP3    H223836   6.100   5.721   5.168
 7958TIP3   OH223837   1.410   0.223   3.102
 7958TIP3    H123838   1.342   0.275   3.145
 7958TIP3    H223839   1.367   0.184   3.026
 7959TIP3   OH223840   5.543   6.748   5.812
 7959TIP3    H123841   5.614   6.707   5.861
 7959TIP3    H223842   5.584   6.778   5.731
 7960TIP3   OH223843   2.076   4.397   5.358
 7960TIP3    H123844   2.054   4.399   5.265
 7960TIP3    H223845   2.050   4.310   5.387
 7961TIP3   OH223846   5.669   3.266   5.065
 7961TIP3    H123847   5.738   3.331   5.051
 7961TIP3    H223848   5.650   3.233   4.977
 7962TIP3   OH223849   1.811   1.198   5.120
 7962TIP3    H123850   1.873   1.259   5.159
 7962TIP3    H223851   1.756   1.252   5.064
 7963TIP3   OH223852   6.353   4.922   3.945
 7963TIP3    H123853   6.359   4.826   3.941
 7963TIP3    H223854   6.259   4.939   3.955
 7964TIP3   OH223855   5.169   3.171   4.328
 7964TIP3    H123856   5.261   3.190   4.345
 7964TIP3    H223857   5.142   3.114   4.401
 7965TIP3   OH223858   4.693   6.499   1.128
 7965TIP3    H123859   4.703   6.567   1.061
 7965TIP3    H223860   4.749   6.528   1.200
 7966TIP3   OH223861   3.247   6.203   2.896
 7966TIP3    H123862   3.339   6.230   2.887
 7966TIP3    H223863   3.211   6.210   2.808
 7967TIP3   OH223864   1.641   1.419   4.329
 7967TIP3    H123865   1.587   1.439   4.406
 7967TIP3    H223866   1.580   1.423   4.255
 7968TIP3   OH223867   4.079   4.289   4.926
 7968TIP3    H123868   4.138   4.268   4.998
 7968TIP3    H223869   3.993   4.297   4.967
 7969TIP3   OH223870   2.416   5.602   0.388
 7969TIP3    H123871   2.433   5.695   0.406
 7969TIP3    H223872   2.422   5.595   0.293
 7970TIP3   OH223873   5.467   4.941   2.232
 7970TIP3    H123874   5.475   4.923   2.138
 7970TIP3    H223875   5.524   5.016   2.247
 7971TIP3   OH223876   0.696   4.015   3.350
 7971TIP3    H123877   0.605   4.014   3.378
 7971TIP3    H223878   0.714   4.106   3.327
 7972TIP3   OH223879   1.464   2.720   3.721
 7972TIP3    H123880   1.557   2.696   3.723
 7972TIP3    H223881   1.432   2.698   3.809
 7973TIP3   OH223882   6.179   2.431   3.701
 7973TIP3    H123883   6.149   2.487   3.630
 7973TIP3    H223884   6.242   2.371   3.660
 7974TIP3   OH223885   6.207   0.811   0.476
 7974TIP3    H123886   6.184   0.789   0.566
 7974TIP3    H223887   6.303   0.814   0.476
 7975TIP3   OH223888   6.267   4.336   3.196
 7975TIP3    H123889   6.283   4.254   3.150
 7975TIP3    H223890   6.349   4.355   3.242
 7976TIP3   OH223891   5.808   0.437   5.540
 7976TIP3    H123892   5.879   0.379   5.568
 7976TIP3    H223893   5.839   0.477   5.459
 7977TIP3   OH223894   2.081   0.898   3.937
 7977TIP3    H123895   2.044   0.833   3.877
 7977TIP3    H223896   2.175   0.884   3.931
 7978TIP3   OH223897   5.060   1.426   2.896
 7978TIP3    H123898   5.134   1.372   2.872
 7978TIP3    H223899   5.092   1.516   2.889
 7979TIP3   OH223900   5.823   6.110   3.450
 7979TIP3    H123901   5.753   6.062   3.406
 7979TIP3    H223902   5.881   6.137   3.379
 7980TIP3   OH223903   2.629   4.245   2.767
 7980TIP3    H123904   2.670   4.229   2.682
 7980TIP3    H223905   2.642   4.339   2.783
 7981TIP3   OH223906   4.694   6.526   4.806
 7981TIP3    H123907   4.758   6.534   4.735
 7981TIP3    H223908   4.635   6.600   4.793
 7982TIP3   OH223909   5.340   6.464   3.527
 7982TIP3    H123910   5.351   6.381   3.575
 7982TIP3    H223911   5.245   6.474   3.518
 7983TIP3   OH223912   5.063   2.009   3.352
 7983TIP3    H123913   5.154   2.037   3.359
 7983TIP3    H223914   5.014   2.071   3.407
 7984TIP3   OH223915   3.963   0.465   5.271
 7984TIP3    H123916   3.920   0.544   5.303
 7984TIP3    H223917   4.056   0.482   5.282
 7985TIP3   OH223918   4.599   2.232   4.040
 7985TIP3    H123919   4.660   2.173   3.996
 7985TIP3    H223920   4.527   2.175   4.068
 7986TIP3   OH223921   1.765   1.810   3.164
 7986TIP3    H123922   1.680   1.769   3.177
 7986TIP3    H223923   1.828   1.738   3.165
 7987TIP3   OH223924   2.863   6.099   0.762
 7987TIP3    H123925   2.910   6.043   0.824
 7987TIP3    H223926   2.870   6.054   0.678
 7988TIP3   OH223927   0.763   2.435   0.076
 7988TIP3    H123928   0.723   2.464  -0.005
 7988TIP3    H223929   0.734   2.344   0.085
 7989TIP3   OH223930   6.270   0.586   1.466
 7989TIP3    H123931   6.333   0.651   1.496
 7989TIP3    H223932   6.274   0.517   1.532
 7990TIP3   OH223933   2.706   1.730   2.496
 7990TIP3    H123934   2.748   1.644   2.497
 7990TIP3    H223935   2.763   1.784   2.441
 7991TIP3   OH223936   2.330   1.767   3.671
 7991TIP3    H123937   2.318   1.755   3.766
 7991TIP3    H223938   2.312   1.681   3.634
 7992TIP3   OH223939   4.868   3.653   2.239
 7992TIP3    H123940   4.830   3.687   2.320
 7992TIP3    H223941   4.901   3.565   2.263
 7993TIP3   OH223942   4.793   6.796   4.358
 7993TIP3    H123943   4.862   6.803   4.291
 7993TIP3    H223944   4.716   6.768   4.309
 7994TIP3   OH223945   0.485   1.375   1.922
 7994TIP3    H123946   0.506   1.431   1.997
 7994TIP3    H223947   0.503   1.286   1.952
 7995TIP3   OH223948   1.404   3.221   3.246
 7995TIP3    H123949   1.413   3.311   3.277
 7995TIP3    H223950   1.334   3.184   3.300
 7996TIP3   OH223951   6.382   2.974   2.806
 7996TIP3    H123952   6.475   2.970   2.784
 7996TIP3    H223953   6.337   2.974   2.722
 7997TIP3   OH223954   0.604   4.263   2.449
 7997TIP3    H123955   0.558   4.180   2.434
 7997TIP3    H223956   0.672   4.242   2.513
 7998TIP3   OH223957   3.634   0.311   3.079
 7998TIP3    H123958   3.658   0.264   3.158
 7998TIP3    H223959   3.542   0.289   3.065
 7999TIP3   OH223960   6.762   5.797   4.678
 7999TIP3    H123961   6.823   5.822   4.609
 7999TIP3    H223962   6.781   5.704   4.695
 8000TIP3   OH223963   2.476   2.064   0.733
 8000TIP3    H123964   2.397   2.010   0.734
 8000TIP3    H223965   2.530   2.030   0.804
 8001TIP3   OH223966   1.169   4.887   5.680
 8001TIP3    H123967   1.159   4.837   5.760
 8001TIP3    H223968   1.081   4.915   5.658
 8002TIP3   OH223969   1.973   1.678   4.022
 8002TIP3    H123970   1.896   1.625   4.037
 8002TIP3    H223971   1.987   1.674   3.927
 8003TIP3   OH223972   5.199   4.875   3.045
 8003TIP3    H123973   5.165   4.805   2.989
 8003TIP3    H223974   5.140   4.877   3.120
 8004TIP3   OH223975   4.279   4.909   4.183
 8004TIP3    H123976   4.249   4.853   4.255
 8004TIP3    H223977   4.372   4.925   4.203
 8005TIP3   OH223978   0.876   1.476   4.995
 8005TIP3    H123979   0.876   1.556   4.943
 8005TIP3    H223980   0.785   1.462   5.019
 8006TIP3   OH223981   1.504   5.833   3.811
 8006TIP3    H123982   1.509   5.843   3.716
 8006TIP3    H223983   1.443   5.902   3.838
 8007TIP3   OH223984   5.881   3.156   5.645
 8007TIP3    H123985   5.947   3.099   5.686
 8007TIP3    H223986   5.800   3.135   5.690
 8008TIP3   OH223987   2.203   2.026   2.851
 8008TIP3    H123988   2.232   1.980   2.930
 8008TIP3    H223989   2.174   1.957   2.792
 8009TIP3   OH223990   3.568   0.774   1.639
 8009TIP3    H123991   3.485   0.733   1.663
 8009TIP3    H223992   3.611   0.792   1.722
 8010TIP3   OH223993   5.028   6.224   4.408
 8010TIP3    H123994   4.950   6.258   4.452
 8010TIP3    H223995   5.101   6.259   4.458
 8011TIP3   OH223996   1.122   1.930   2.101
 8011TIP3    H123997   1.186   1.909   2.169
 8011TIP3    H223998   1.110   2.025   2.108
 8012TIP3   OH223999   2.603   5.198   1.034
 8012TIP3    H124000   2.592   5.127   1.097
 8012TIP3    H224001   2.629   5.273   1.088
 8013TIP3   OH224002   2.871   2.309   1.341
 8013TIP3    H124003   2.837   2.224   1.367
 8013TIP3    H224004   2.805   2.372   1.371
 8014TIP3   OH224005   1.220   5.719   5.075
 8014TIP3    H124006   1.242   5.631   5.045
 8014TIP3    H224007   1.304   5.764   5.082
 8015TIP3   OH224008   6.749   3.964   2.487
 8015TIP3    H124009   6.660   3.931   2.494
 8015TIP3    H224010   6.758   3.991   2.396
 8016TIP3   OH224011   6.388   4.550   4.252
 8016TIP3    H124012   6.355   4.535   4.164
 8016TIP3    H224013   6.471   4.502   4.256
 8017TIP3   OH224014   2.086   2.400   3.264
 8017TIP3    H124015   2.106   2.317   3.221
 8017TIP3    H224016   2.031   2.447   3.201
 8018TIP3   OH224017   4.033   6.305   2.922
 8018TIP3    H124018   4.035   6.271   3.011
 8018TIP3    H224019   4.124   6.325   2.901
 8019TIP3   OH224020   3.446   2.859   5.207
 8019TIP3    H124021   3.487   2.856   5.121
 8019TIP3    H224022   3.420   2.950   5.218
 8020TIP3   OH224023   0.379   0.658   3.234
 8020TIP3    H124024   0.316   0.588   3.218
 8020TIP3    H224025   0.329   0.739   3.228
 8021TIP3   OH224026   5.480   5.160   2.396
 8021TIP3    H124027   5.523   5.189   2.316
 8021TIP3    H224028   5.548   5.111   2.443
 8022TIP3   OH224029   0.570   3.251   4.625
 8022TIP3    H124030   0.650   3.299   4.604
 8022TIP3    H224031   0.522   3.310   4.684
 8023TIP3   OH224032   2.674   5.904   1.363
 8023TIP3    H124033   2.614   5.869   1.297
 8023TIP3    H224034   2.754   5.853   1.353
 8024TIP3   OH224035   4.638   5.473   5.644
 8024TIP3    H124036   4.704   5.533   5.679
 8024TIP3    H224037   4.687   5.393   5.624
 8025TIP3   OH224038   2.401   2.737   5.293
 8025TIP3    H124039   2.472   2.760   5.354
 8025TIP3    H224040   2.392   2.814   5.237
 8026TIP3   OH224041   4.359   1.991   3.826
 8026TIP3    H124042   4.296   1.944   3.772
 8026TIP3    H224043   4.335   1.968   3.916
 8027TIP3   OH224044   3.078   4.117   0.200
 8027TIP3    H124045   3.131   4.195   0.185
 8027TIP3    H224046   3.139   4.044   0.188
 8028TIP3   OH224047   5.864   4.845   2.722
 8028TIP3    H124048   5.881   4.835   2.816
 8028TIP3    H224049   5.769   4.858   2.716
 8029TIP3   OH224050   1.376   1.831   0.686
 8029TIP3    H124051   1.298   1.786   0.655
 8029TIP3    H224052   1.381   1.910   0.633
 8030TIP3   OH224053   3.400   3.796   0.372
 8030TIP3    H124054   3.479   3.768   0.419
 8030TIP3    H224055   3.327   3.762   0.424
 8031TIP3   OH224056   0.207   1.462   5.464
 8031TIP3    H124057   0.157   1.501   5.535
 8031TIP3    H224058   0.273   1.407   5.508
 8032TIP3   OH224059   6.936   5.805   1.658
 8032TIP3    H124060   6.879   5.870   1.617
 8032TIP3    H224061   6.921   5.816   1.752
 8033TIP3   OH224062   6.725   3.092   0.339
 8033TIP3    H124063   6.668   3.116   0.266
 8033TIP3    H224064   6.709   2.999   0.353
 8034TIP3   OH224065   3.372   0.605   3.435
 8034TIP3    H124066   3.437   0.619   3.504
 8034TIP3    H224067   3.424   0.597   3.355
 8035TIP3   OH224068   4.748   0.696   5.518
 8035TIP3    H124069   4.711   0.608   5.510
 8035TIP3    H224070   4.832   0.683   5.562
 8036TIP3   OH224071   7.050   4.220   1.049
 8036TIP3    H124072   7.034   4.140   0.999
 8036TIP3    H224073   6.987   4.217   1.121
 8037TIP3   OH224074   7.053   5.448   4.875
 8037TIP3    H124075   7.144   5.452   4.848
 8037TIP3    H224076   7.003   5.460   4.795
 8038TIP3   OH224077   0.949   4.830   0.651
 8038TIP3    H124078   0.875   4.792   0.700
 8038TIP3    H224079   0.959   4.918   0.688
 8039TIP3   OH224080   3.154   3.535   4.797
 8039TIP3    H124081   3.131   3.622   4.830
 8039TIP3    H224082   3.070   3.491   4.785
 8040TIP3   OH224083   7.131   3.740   5.685
 8040TIP3    H124084   7.131   3.835   5.698
 8040TIP3    H224085   7.073   3.726   5.610
 8041TIP3   OH224086   2.422   0.501   1.359
 8041TIP3    H124087   2.498   0.441   1.363
 8041TIP3    H224088   2.434   0.548   1.277
 8042TIP3   OH224089   6.171   4.042   1.747
 8042TIP3    H124090   6.131   3.955   1.758
 8042TIP3    H224091   6.122   4.081   1.674
 8043TIP3   OH224092   2.768   1.485   0.477
 8043TIP3    H124093   2.806   1.411   0.524
 8043TIP3    H224094   2.688   1.450   0.439
 8044TIP3   OH224095   3.053   0.968   1.997
 8044TIP3    H124096   3.108   0.965   2.075
 8044TIP3    H224097   2.996   1.044   2.010
 8045TIP3   OH224098   1.027   3.609   2.609
 8045TIP3    H124099   1.062   3.629   2.523
 8045TIP3    H224100   0.942   3.568   2.593
 8046TIP3   OH224101   0.827   5.713   1.837
 8046TIP3    H124102   0.896   5.779   1.832
 8046TIP3    H224103   0.760   5.752   1.894
 8047TIP3   OH224104   3.563   1.691   5.275
 8047TIP3    H124105   3.543   1.771   5.225
 8047TIP3    H224106   3.517   1.622   5.227
 8048TIP3   OH224107   0.991   3.477   5.545
 8048TIP3    H124108   1.060   3.440   5.491
 8048TIP3    H224109   0.954   3.547   5.491
 8049TIP3   OH224110   3.559   3.933   5.566
 8049TIP3    H124111   3.508   4.002   5.523
 8049TIP3    H224112   3.556   3.956   5.659
 8050TIP3   OH224113   4.918   1.461   5.028
 8050TIP3    H124114   4.913   1.493   5.118
 8050TIP3    H224115   4.960   1.375   5.035
 8051TIP3   OH224116   1.288   0.684   1.676
 8051TIP3    H124117   1.295   0.768   1.631
 8051TIP3    H224118   1.237   0.703   1.754
 8052TIP3   OH224119   7.012   5.991   0.743
 8052TIP3    H124120   6.991   6.085   0.749
 8052TIP3    H224121   7.108   5.988   0.743
 8053TIP3   OH224122   0.217   3.619   5.767
 8053TIP3    H124123   0.226   3.583   5.856
 8053TIP3    H224124   0.286   3.685   5.761
 8054TIP3   OH224125   0.643   5.309   5.332
 8054TIP3    H124126   0.650   5.272   5.243
 8054TIP3    H224127   0.733   5.321   5.360
 8055TIP3   OH224128   6.826   6.545   5.090
 8055TIP3    H124129   6.777   6.465   5.068
 8055TIP3    H224130   6.889   6.518   5.156
 8056TIP3   OH224131   1.265   0.514   5.669
 8056TIP3    H124132   1.273   0.513   5.765
 8056TIP3    H224133   1.316   0.590   5.641
 8057TIP3   OH224134   0.879   4.611   3.570
 8057TIP3    H124135   0.820   4.536   3.570
 8057TIP3    H224136   0.858   4.659   3.489
 8058TIP3   OH224137   6.800   0.162   3.444
 8058TIP3    H124138   6.826   0.075   3.475
 8058TIP3    H224139   6.883   0.209   3.432
 8059TIP3   OH224140   4.425   0.972   4.919
 8059TIP3    H124141   4.417   0.878   4.936
 8059TIP3    H224142   4.367   0.989   4.846
 8060TIP3   OH224143   1.421   0.980   5.815
 8060TIP3    H124144   1.340   0.998   5.766
 8060TIP3    H224145   1.395   0.916   5.881
 8061TIP3   OH224146   4.053   4.358   3.578
 8061TIP3    H124147   4.042   4.264   3.570
 8061TIP3    H224148   4.141   4.370   3.613
 8062TIP3   OH224149   1.212   5.956   2.308
 8062TIP3    H124150   1.123   5.956   2.344
 8062TIP3    H224151   1.262   5.900   2.367
 8063TIP3   OH224152   2.606   3.817   1.256
 8063TIP3    H124153   2.554   3.778   1.327
 8063TIP3    H224154   2.589   3.761   1.180
 8064TIP3   OH224155   0.497   5.268   4.655
 8064TIP3    H124156   0.413   5.278   4.701
 8064TIP3    H224157   0.530   5.183   4.683
 8065TIP3   OH224158   1.471   5.939   3.563
 8065TIP3    H124159   1.473   6.012   3.501
 8065TIP3    H224160   1.528   5.873   3.524
 8066TIP3   OH224161   5.890   4.700   0.063
 8066TIP3    H124162   5.916   4.609   0.080
 8066TIP3    H224163   5.840   4.696  -0.019
 8067TIP3   OH224164   0.600   0.861   4.742
 8067TIP3    H124165   0.570   0.788   4.688
 8067TIP3    H224166   0.599   0.827   4.832
 8068TIP3   OH224167   3.206   6.663   3.401
 8068TIP3    H124168   3.230   6.677   3.310
 8068TIP3    H224169   3.150   6.585   3.400
 8069TIP3   OH224170   7.224   1.440   5.750
 8069TIP3    H124171   7.163   1.500   5.707
 8069TIP3    H224172   7.194   1.353   5.722
 8070TIP3   OH224173   5.437   1.835   1.075
 8070TIP3    H124174   5.369   1.896   1.043
 8070TIP3    H224175   5.498   1.891   1.123
 8071TIP3   OH224176   6.784   1.135   2.334
 8071TIP3    H124177   6.871   1.167   2.356
 8071TIP3    H224178   6.778   1.050   2.376
 8072TIP3   OH224179   3.505   3.316   3.519
 8072TIP3    H124180   3.476   3.262   3.446
 8072TIP3    H224181   3.533   3.398   3.478
 8073TIP3   OH224182   1.867   2.509   4.579
 8073TIP3    H124183   1.778   2.518   4.612
 8073TIP3    H224184   1.910   2.449   4.640
 8074TIP3   OH224185   3.168   6.134   1.097
 8074TIP3    H124186   3.160   6.125   1.002
 8074TIP3    H224187   3.251   6.091   1.118
 8075TIP3   OH224188   4.831   2.976   4.189
 8075TIP3    H124189   4.740   2.992   4.214
 8075TIP3    H224190   4.844   2.883   4.204
 8076TIP3   OH224191   6.497   0.690   2.694
 8076TIP3    H124192   6.481   0.777   2.730
 8076TIP3    H224193   6.592   0.683   2.689
 8077TIP3   OH224194   4.486   4.793   3.165
 8077TIP3    H124195   4.565   4.749   3.195
 8077TIP3    H224196   4.518   4.866   3.111
 8078TIP3   OH224197   0.227   0.210   4.699
 8078TIP3    H124198   0.141   0.179   4.674
 8078TIP3    H224199   0.274   0.219   4.616
 8079TIP3   OH224200   2.353   6.180   4.227
 8079TIP3    H124201   2.365   6.087   4.210
 8079TIP3    H224202   2.324   6.216   4.143
 8080TIP3   OH224203   5.338   6.493   4.209
 8080TIP3    H124204   5.401   6.547   4.163
 8080TIP3    H224205   5.265   6.483   4.148
 8081TIP3   OH224206   2.231   2.796   1.048
 8081TIP3    H124207   2.274   2.808   1.132
 8081TIP3    H224208   2.172   2.871   1.040
 8082TIP3   OH224209   0.893   4.361   1.849
 8082TIP3    H124210   0.855   4.282   1.810
 8082TIP3    H224211   0.896   4.343   1.943
 8083TIP3   OH224212   0.766   5.257   3.227
 8083TIP3    H124213   0.788   5.318   3.156
 8083TIP3    H224214   0.679   5.283   3.256
 8084TIP3   OH224215   4.317   3.476   0.620
 8084TIP3    H124216   4.371   3.423   0.561
 8084TIP3    H224217   4.240   3.422   0.637
 8085TIP3   OH224218   3.104   4.462   5.070
 8085TIP3    H124219   3.170   4.443   5.003
 8085TIP3    H224220   3.129   4.406   5.144
 8086TIP3   OH224221   5.254   5.074   2.076
 8086TIP3    H124222   5.241   4.982   2.051
 8086TIP3    H224223   5.307   5.070   2.156
 8087TIP3   OH224224   1.635   4.134   5.345
 8087TIP3    H124225   1.636   4.222   5.384
 8087TIP3    H224226   1.550   4.098   5.371
 8088TIP3   OH224227   3.805   4.834   4.786
 8088TIP3    H124228   3.808   4.772   4.859
 8088TIP3    H224229   3.807   4.920   4.827
 8089TIP3   OH224230   5.640   4.032   4.099
 8089TIP3    H124231   5.712   4.084   4.135
 8089TIP3    H224232   5.565   4.052   4.157
 8090TIP3   OH224233   1.748   1.507   4.092
 8090TIP3    H124234   1.674   1.473   4.041
 8090TIP3    H224235   1.757   1.446   4.165
 8091TIP3   OH224236   0.634   3.264   1.503
 8091TIP3    H124237   0.727   3.280   1.516
 8091TIP3    H224238   0.622   3.172   1.523
 8092TIP3   OH224239   3.814   3.115   5.266
 8092TIP3    H124240   3.905   3.143   5.258
 8092TIP3    H224241   3.809   3.035   5.213
 8093TIP3   OH224242   6.091   0.297   2.036
 8093TIP3    H124243   6.133   0.342   1.964
 8093TIP3    H224244   6.024   0.358   2.067
 8094TIP3   OH224245   2.508   6.272   1.295
 8094TIP3    H124246   2.512   6.247   1.202
 8094TIP3    H224247   2.547   6.359   1.297
 8095TIP3   OH224248   3.680   0.218   3.915
 8095TIP3    H124249   3.725   0.271   3.981
 8095TIP3    H224250   3.670   0.277   3.840
 8096TIP3   OH224251   6.712   6.281   4.865
 8096TIP3    H124252   6.722   6.279   4.961
 8096TIP3    H224253   6.801   6.269   4.832
 8097TIP3   OH224254   2.969   5.475   0.266
 8097TIP3    H124255   3.000   5.559   0.297
 8097TIP3    H224256   3.022   5.456   0.188
 8098TIP3   OH224257   5.797   6.771   0.399
 8098TIP3    H124258   5.784   6.705   0.467
 8098TIP3    H224259   5.751   6.849   0.431
 8099TIP3   OH224260   5.150   3.062   5.452
 8099TIP3    H124261   5.106   2.993   5.402
 8099TIP3    H224262   5.183   3.017   5.530
 8100TIP3   OH224263   4.824   5.248   5.613
 8100TIP3    H124264   4.833   5.174   5.673
 8100TIP3    H224265   4.881   5.225   5.539
 8101TIP3   OH224266   4.476   5.041   4.758
 8101TIP3    H124267   4.462   5.068   4.667
 8101TIP3    H224268   4.417   4.967   4.770
 8102TIP3   OH224269   0.266   1.189   2.861
 8102TIP3    H124270   0.273   1.133   2.783
 8102TIP3    H224271   0.346   1.171   2.910
 8103TIP3   OH224272   5.380   1.140   3.656
 8103TIP3    H124273   5.294   1.171   3.685
 8103TIP3    H224274   5.415   1.094   3.732
 8104TIP3   OH224275   4.668   3.621   0.594
 8104TIP3    H124276   4.742   3.649   0.649
 8104TIP3    H224277   4.673   3.525   0.596
 8105TIP3   OH224278   1.938   1.876   4.189
 8105TIP3    H124279   1.855   1.908   4.153
 8105TIP3    H224280   1.959   1.799   4.137
 8106TIP3   OH224281   6.417   5.125   0.770
 8106TIP3    H124282   6.410   5.202   0.713
 8106TIP3    H224283   6.394   5.156   0.857
 8107TIP3   OH224284   6.836   0.516   1.527
 8107TIP3    H124285   6.744   0.521   1.502
 8107TIP3    H224286   6.872   0.444   1.474
 8108TIP3   OH224287   0.407   1.122   2.408
 8108TIP3    H124288   0.492   1.080   2.409
 8108TIP3    H224289   0.426   1.215   2.394
 8109TIP3   OH224290   4.618   2.458   1.895
 8109TIP3    H124291   4.678   2.497   1.959
 8109TIP3    H224292   4.657   2.480   1.810
 8110TIP3   OH224293   3.204   4.266   5.801
 8110TIP3    H124294   3.121   4.298   5.765
 8110TIP3    H224295   3.179   4.215   5.878
 8111TIP3   OH224296   2.859   0.452   0.283
 8111TIP3    H124297   2.792   0.492   0.339
 8111TIP3    H224298   2.858   0.360   0.307
 8112TIP3   OH224299   3.250   2.740   4.047
 8112TIP3    H124300   3.239   2.649   4.021
 8112TIP3    H224301   3.335   2.765   4.009
 8113TIP3   OH224302   7.191   3.954   2.046
 8113TIP3    H124303   7.231   4.000   2.121
 8113TIP3    H224304   7.099   3.978   2.050
 8114TIP3   OH224305   2.235   5.632   5.715
 8114TIP3    H124306   2.289   5.688   5.659
 8114TIP3    H224307   2.189   5.693   5.773
 8115TIP3   OH224308   3.618   4.444   0.985
 8115TIP3    H124309   3.650   4.444   1.075
 8115TIP3    H224310   3.627   4.535   0.957
 8116TIP3   OH224311   2.342   1.584   1.034
 8116TIP3    H124312   2.281   1.520   0.998
 8116TIP3    H224313   2.428   1.551   1.008
 8117TIP3   OH224314   2.400   2.392   5.669
 8117TIP3    H124315   2.433   2.449   5.738
 8117TIP3    H224316   2.479   2.354   5.630
 8118TIP3   OH224317   0.618   4.702   0.232
 8118TIP3    H124318   0.564   4.623   0.229
 8118TIP3    H224319   0.617   4.734   0.142
 8119TIP3   OH224320   1.556   2.035   4.316
 8119TIP3    H124321   1.520   2.080   4.240
 8119TIP3    H224322   1.578   1.948   4.284
 8120TIP3   OH224323   1.676   5.625   3.826
 8120TIP3    H124324   1.611   5.695   3.837
 8120TIP3    H224325   1.629   5.556   3.778
 8121TIP3   OH224326   3.830   5.469  -0.014
 8121TIP3    H124327   3.863   5.537   0.044
 8121TIP3    H224328   3.754   5.433   0.031
 8122TIP3   OH224329   1.360   4.430   5.730
 8122TIP3    H124330   1.275   4.411   5.691
 8122TIP3    H224331   1.394   4.345   5.757
 8123TIP3   OH224332   0.295   6.175   2.875
 8123TIP3    H124333   0.208   6.135   2.868
 8123TIP3    H224334   0.291   6.250   2.816
 8124TIP3   OH224335   5.948   4.164   1.605
 8124TIP3    H124336   5.979   4.253   1.587
 8124TIP3    H224337   5.878   4.176   1.670
 8125TIP3   OH224338   6.600   1.332   2.271
 8125TIP3    H124339   6.668   1.265   2.279
 8125TIP3    H224340   6.648   1.414   2.262
 8126TIP3   OH224341   0.990   3.637   3.837
 8126TIP3    H124342   0.968   3.639   3.744
 8126TIP3    H224343   1.063   3.575   3.842
 8127TIP3   OH224344   4.928   4.714   1.925
 8127TIP3    H124345   5.022   4.700   1.915
 8127TIP3    H224346   4.910   4.698   2.017
 8128TIP3   OH224347   3.925   1.911   2.714
 8128TIP3    H124348   3.934   1.974   2.642
 8128TIP3    H224349   3.834   1.920   2.743
 8129TIP3   OH224350   5.769   2.547   5.135
 8129TIP3    H124351   5.804   2.457   5.136
 8129TIP3    H224352   5.823   2.592   5.070
 8130TIP3   OH224353   1.328   1.598   2.822
 8130TIP3    H124354   1.344   1.588   2.916
 8130TIP3    H224355   1.337   1.692   2.807
 8131TIP3   OH224356   5.802   2.981   4.079
 8131TIP3    H124357   5.724   2.925   4.085
 8131TIP3    H224358   5.860   2.933   4.019
 8132TIP3   OH224359   7.172   5.082   2.707
 8132TIP3    H124360   7.116   5.158   2.692
 8132TIP3    H224361   7.195   5.086   2.799
 8133TIP3   OH224362   6.260   3.736   4.764
 8133TIP3    H124363   6.353   3.747   4.747
 8133TIP3    H224364   6.237   3.812   4.817
 8134TIP3   OH224365   4.553   5.671   3.752
 8134TIP3    H124366   4.473   5.688   3.802
 8134TIP3    H224367   4.612   5.629   3.815
 8135TIP3   OH224368   0.603   3.972   4.642
 8135TIP3    H124369   0.661   3.989   4.568
 8135TIP3    H224370   0.640   3.894   4.685
 8136TIP3   OH224371   2.851   0.973   3.033
 8136TIP3    H124372   2.904   0.986   2.954
 8136TIP3    H224373   2.905   0.916   3.088
 8137TIP3   OH224374   6.850   0.989   0.022
 8137TIP3    H124375   6.812   0.918  -0.029
 8137TIP3    H224376   6.796   0.994   0.101
 8138TIP3   OH224377   6.486   3.461   2.378
 8138TIP3    H124378   6.439   3.495   2.302
 8138TIP3    H224379   6.475   3.529   2.445
 8139TIP3   OH224380   5.463   0.107   2.311
 8139TIP3    H124381   5.444   0.104   2.404
 8139TIP3    H224382   5.378   0.097   2.268
 8140TIP3   OH224383   1.779   4.840   4.321
 8140TIP3    H124384   1.689   4.821   4.348
 8140TIP3    H224385   1.826   4.758   4.333
 8141TIP3   OH224386   3.744   3.067   3.841
 8141TIP3    H124387   3.726   3.062   3.747
 8141TIP3    H224388   3.839   3.070   3.848
 8142TIP3   OH224389   3.021   2.081   5.782
 8142TIP3    H124390   2.959   2.083   5.708
 8142TIP3    H224391   3.107   2.094   5.741
 8143TIP3   OH224392   6.862   4.574   3.325
 8143TIP3    H124393   6.807   4.530   3.390
 8143TIP3    H224394   6.832   4.665   3.327
 8144TIP3   OH224395   1.645   1.465   1.550
 8144TIP3    H124396   1.629   1.551   1.588
 8144TIP3    H224397   1.738   1.448   1.566
 8145TIP3   OH224398   0.614   0.270   4.349
 8145TIP3    H124399   0.542   0.333   4.360
 8145TIP3    H224400   0.646   0.255   4.438
 8146TIP3   OH224401   2.296   0.226   2.272
 8146TIP3    H124402   2.249   0.144   2.255
 8146TIP3    H224403   2.283   0.278   2.192
 8147TIP3   OH224404   5.264   6.447   0.851
 8147TIP3    H124405   5.200   6.433   0.920
 8147TIP3    H224406   5.343   6.403   0.882
 8148TIP3   OH224407   1.524   1.110   4.052
 8148TIP3    H124408   1.512   1.016   4.043
 8148TIP3    H224409   1.512   1.145   3.964
 8149TIP3   OH224410   2.821   1.835   0.669
 8149TIP3    H124411   2.895   1.778   0.646
 8149TIP3    H224412   2.835   1.856   0.761
 8150TIP3   OH224413   3.127   3.940   2.790
 8150TIP3    H124414   3.160   3.926   2.879
 8150TIP3    H224415   3.206   3.957   2.738
 8151TIP3   OH224416   4.058   6.217   3.634
 8151TIP3    H124417   3.976   6.217   3.584
 8151TIP3    H224418   4.050   6.292   3.693
 8152TIP3   OH224419   7.128   4.318   5.675
 8152TIP3    H124420   7.110   4.295   5.584
 8152TIP3    H224421   7.223   4.319   5.682
 8153TIP3   OH224422   4.508   4.135   5.471
 8153TIP3    H124423   4.526   4.175   5.386
 8153TIP3    H224424   4.593   4.129   5.514
 8154TIP3   OH224425   2.825   1.791   5.599
 8154TIP3    H124426   2.768   1.732   5.549
 8154TIP3    H224427   2.772   1.869   5.615
 8155TIP3   OH224428   3.760   3.353   2.540
 8155TIP3    H124429   3.791   3.263   2.530
 8155TIP3    H224430   3.733   3.358   2.631
 8156TIP3   OH224431   3.675   3.682   5.585
 8156TIP3    H124432   3.614   3.627   5.536
 8156TIP3    H224433   3.635   3.768   5.586
 8157TIP3   OH224434   3.122   2.537   0.056
 8157TIP3    H124435   3.140   2.593   0.131
 8157TIP3    H224436   3.077   2.461   0.093
 8158TIP3   OH224437   2.280   0.373   3.005
 8158TIP3    H124438   2.201   0.382   2.953
 8158TIP3    H224439   2.249   0.362   3.095
 8159TIP3   OH224440   5.829   6.329   5.576
 8159TIP3    H124441   5.770   6.322   5.651
 8159TIP3    H224442   5.815   6.249   5.526
 8160TIP3   OH224443   3.443   4.096   3.572
 8160TIP3    H124444   3.471   4.174   3.619
 8160TIP3    H224445   3.490   4.024   3.615
 8161TIP3   OH224446   7.098   3.749   3.643
 8161TIP3    H124447   7.133   3.660   3.646
 8161TIP3    H224448   7.153   3.798   3.704
 8162TIP3   OH224449   6.539   5.198   3.245
 8162TIP3    H124450   6.509   5.215   3.155
 8162TIP3    H224451   6.582   5.112   3.240
 8163TIP3   OH224452   1.530   5.688   1.512
 8163TIP3    H124453   1.597   5.753   1.535
 8163TIP3    H224454   1.512   5.705   1.419
 8164TIP3   OH224455   4.981   2.931   2.028
 8164TIP3    H124456   4.900   2.884   2.006
 8164TIP3    H224457   5.038   2.864   2.066
 8165TIP3   OH224458   1.296   5.733   0.477
 8165TIP3    H124459   1.352   5.686   0.539
 8165TIP3    H224460   1.254   5.664   0.425
 8166TIP3   OH224461   6.098   1.857   3.558
 8166TIP3    H124462   6.039   1.803   3.610
 8166TIP3    H224463   6.181   1.809   3.558
 8167TIP3   OH224464   2.764   6.530   1.073
 8167TIP3    H124465   2.672   6.505   1.068
 8167TIP3    H224466   2.812   6.449   1.051
 8168TIP3   OH224467   2.502   5.784   1.186
 8168TIP3    H124468   2.416   5.789   1.227
 8168TIP3    H224469   2.500   5.704   1.134
 8169TIP3   OH224470   2.895   0.800   0.581
 8169TIP3    H124471   2.983   0.826   0.608
 8169TIP3    H224472   2.884   0.712   0.618
 8170TIP3   OH224473   0.995   4.212   5.009
 8170TIP3    H124474   1.014   4.170   5.093
 8170TIP3    H224475   0.941   4.287   5.031
 8171TIP3   OH224476   0.840   4.030   4.475
 8171TIP3    H124477   0.898   4.084   4.528
 8171TIP3    H224478   0.817   4.085   4.400
 8172TIP3   OH224479   0.709   5.851   3.800
 8172TIP3    H124480   0.751   5.838   3.715
 8172TIP3    H224481   0.654   5.773   3.811
 8173TIP3   OH224482   3.428   3.452   2.937
 8173TIP3    H124483   3.392   3.413   3.017
 8173TIP3    H224484   3.516   3.416   2.930
 8174TIP3   OH224485   5.372   5.522   5.810
 8174TIP3    H124486   5.415   5.458   5.753
 8174TIP3    H224487   5.280   5.494   5.812
 8175TIP3   OH224488   5.619   1.589   1.477
 8175TIP3    H124489   5.582   1.509   1.439
 8175TIP3    H224490   5.693   1.611   1.421
 8176TIP3   OH224491   4.516   4.870   2.573
 8176TIP3    H124492   4.524   4.864   2.668
 8176TIP3    H224493   4.463   4.794   2.549
 8177TIP3   OH224494   1.330   3.291   5.103
 8177TIP3    H124495   1.256   3.283   5.043
 8177TIP3    H224496   1.383   3.213   5.087
 8178TIP3   OH224497   1.366   5.284   4.572
 8178TIP3    H124498   1.312   5.347   4.525
 8178TIP3    H224499   1.355   5.308   4.664
 8179TIP3   OH224500   5.099   1.660   4.985
 8179TIP3    H124501   5.134   1.661   4.896
 8179TIP3    H224502   5.046   1.581   4.989
 8180TIP3   OH224503   0.538   0.849   2.162
 8180TIP3    H124504   0.632   0.843   2.175
 8180TIP3    H224505   0.519   0.789   2.089
 8181TIP3   OH224506   5.973   5.556   4.591
 8181TIP3    H124507   5.893   5.509   4.615
 8181TIP3    H224508   5.976   5.552   4.495
 8182TIP3   OH224509   0.188   3.583   2.227
 8182TIP3    H124510   0.210   3.522   2.156
 8182TIP3    H224511   0.093   3.592   2.221
 8183TIP3   OH224512   1.461   0.107   0.264
 8183TIP3    H124513   1.545   0.146   0.240
 8183TIP3    H224514   1.429   0.066   0.184
 8184TIP3   OH224515   6.445   1.578   2.610
 8184TIP3    H124516   6.352   1.568   2.593
 8184TIP3    H224517   6.487   1.515   2.550
 8185TIP3   OH224518   6.250   5.998   2.577
 8185TIP3    H124519   6.336   5.990   2.536
 8185TIP3    H224520   6.198   6.047   2.513
 8186TIP3   OH224521   5.240   1.876   4.569
 8186TIP3    H124522   5.219   1.948   4.629
 8186TIP3    H224523   5.322   1.904   4.526
 8187TIP3   OH224524   2.702   5.634   3.652
 8187TIP3    H124525   2.673   5.601   3.567
 8187TIP3    H224526   2.726   5.556   3.702
 8188TIP3   OH224527   1.116   4.812   1.137
 8188TIP3    H124528   1.051   4.883   1.132
 8188TIP3    H224529   1.193   4.853   1.175
 8189TIP3   OH224530   1.320   3.238   0.406
 8189TIP3    H124531   1.263   3.273   0.476
 8189TIP3    H224532   1.398   3.293   0.410
 8190TIP3   OH224533   5.101   0.216   2.706
 8190TIP3    H124534   5.170   0.280   2.689
 8190TIP3    H224535   5.028   0.243   2.651
 8191TIP3   OH224536   0.507   4.986   3.959
 8191TIP3    H124537   0.469   5.023   4.039
 8191TIP3    H224538   0.586   4.941   3.989
 8192TIP3   OH224539   6.273   3.825   5.332
 8192TIP3    H124540   6.284   3.919   5.345
 8192TIP3    H224541   6.351   3.798   5.284
 8193TIP3   OH224542   2.161   0.269   0.449
 8193TIP3    H124543   2.088   0.272   0.387
 8193TIP3    H224544   2.218   0.200   0.416
 8194TIP3   OH224545   5.814   3.477   4.956
 8194TIP3    H124546   5.754   3.503   4.886
 8194TIP3    H224547   5.802   3.544   5.023
 8195TIP3   OH224548   5.319   0.216   5.557
 8195TIP3    H124549   5.356   0.284   5.500
 8195TIP3    H224550   5.380   0.210   5.630
 8196TIP3   OH224551   6.065   2.354   4.957
 8196TIP3    H124552   6.000   2.312   5.014
 8196TIP3    H224553   6.016   2.376   4.877
 8197TIP3   OH224554   2.786   4.115   4.243
 8197TIP3    H124555   2.794   4.201   4.201
 8197TIP3    H224556   2.750   4.134   4.330
 8198TIP3   OH224557   6.751   2.405   5.059
 8198TIP3    H124558   6.688   2.392   5.130
 8198TIP3    H224559   6.698   2.438   4.986
 8199TIP3   OH224560   5.833   1.425   3.933
 8199TIP3    H124561   5.851   1.464   3.847
 8199TIP3    H224562   5.919   1.416   3.974
 8200TIP3   OH224563   4.877   0.749   0.298
 8200TIP3    H124564   4.837   0.836   0.301
 8200TIP3    H224565   4.956   0.761   0.246
 8201TIP3   OH224566   1.323   1.016   2.032
 8201TIP3    H124567   1.356   1.084   2.091
 8201TIP3    H224568   1.375   1.028   1.952
 8202TIP3   OH224569   7.065   6.422   3.394
 8202TIP3    H124570   6.983   6.472   3.395
 8202TIP3    H224571   7.055   6.362   3.320
 8203TIP3   OH224572   7.019   1.744   0.747
 8203TIP3    H124573   7.103   1.762   0.704
 8203TIP3    H224574   7.028   1.656   0.783
 8204TIP3   OH224575   1.031   5.628   2.486
 8204TIP3    H124576   1.056   5.562   2.551
 8204TIP3    H224577   1.027   5.710   2.535
 8205TIP3   OH224578   3.795   3.970   4.469
 8205TIP3    H124579   3.827   3.894   4.419
 8205TIP3    H224580   3.865   4.034   4.463
 8206TIP3   OH224581   5.250   1.477   0.825
 8206TIP3    H124582   5.335   1.515   0.805
 8206TIP3    H224583   5.270   1.385   0.846
 8207TIP3   OH224584   4.203   4.657   5.570
 8207TIP3    H124585   4.111   4.676   5.588
 8207TIP3    H224586   4.242   4.640   5.656
 8208TIP3   OH224587   3.489   4.598   4.642
 8208TIP3    H124588   3.458   4.513   4.672
 8208TIP3    H224589   3.409   4.649   4.628
 8209TIP3   OH224590   3.723   3.047   0.231
 8209TIP3    H124591   3.747   2.974   0.174
 8209TIP3    H224592   3.704   3.120   0.171
 8210TIP3   OH224593   1.062   5.766   0.609
 8210TIP3    H124594   1.016   5.850   0.606
 8210TIP3    H224595   1.153   5.787   0.588
 8211TIP3   OH224596   3.011   2.075   0.692
 8211TIP3    H124597   2.961   2.047   0.616
 8211TIP3    H224598   3.096   2.101   0.656
 8212TIP3   OH224599   6.747   1.985   3.114
 8212TIP3    H124600   6.824   1.943   3.075
 8212TIP3    H224601   6.781   2.032   3.190
 8213TIP3   OH224602   0.499   6.322   5.114
 8213TIP3    H124603   0.472   6.296   5.202
 8213TIP3    H224604   0.454   6.260   5.056
 8214TIP3   OH224605   2.468   2.720   4.304
 8214TIP3    H124606   2.514   2.650   4.258
 8214TIP3    H224607   2.395   2.742   4.247
 8215TIP3   OH224608   4.819   2.504   3.971
 8215TIP3    H124609   4.796   2.468   3.885
 8215TIP3    H224610   4.913   2.525   3.963
 8216TIP3   OH224611   5.854   6.643   0.649
 8216TIP3    H124612   5.898   6.590   0.716
 8216TIP3    H224613   5.820   6.718   0.697
 8217TIP3   OH224614   0.653   1.620   1.098
 8217TIP3    H124615   0.616   1.687   1.040
 8217TIP3    H224616   0.654   1.661   1.184
 8218TIP3   OH224617   1.112   5.015   4.454
 8218TIP3    H124618   1.158   5.091   4.420
 8218TIP3    H224619   1.019   5.035   4.443
 8219TIP3   OH224620   0.926   5.967   3.922
 8219TIP3    H124621   0.944   6.058   3.897
 8219TIP3    H224622   0.840   5.949   3.884
 8220TIP3   OH224623   6.130   2.799   1.481
 8220TIP3    H124624   6.077   2.874   1.506
 8220TIP3    H224625   6.084   2.723   1.519
 8221TIP3   OH224626   0.800   3.105   5.323
 8221TIP3    H124627   0.749   3.032   5.289
 8221TIP3    H224628   0.760   3.125   5.408
 8222TIP3   OH224629   5.691   0.931   5.688
 8222TIP3    H124630   5.750   0.999   5.654
 8222TIP3    H224631   5.716   0.852   5.641
 8223TIP3   OH224632   3.287   0.049   4.357
 8223TIP3    H124633   3.326   0.075   4.440
 8223TIP3    H224634   3.202   0.093   4.355
 8224TIP3   OH224635   0.306   1.843   1.532
 8224TIP3    H124636   0.387   1.891   1.517
 8224TIP3    H224637   0.331   1.751   1.523
 8225TIP3   OH224638   3.050   0.197   4.395
 8225TIP3    H124639   3.010   0.281   4.414
 8225TIP3    H224640   3.015   0.173   4.309
 8226TIP3   OH224641   1.521   4.679   4.355
 8226TIP3    H124642   1.565   4.598   4.381
 8226TIP3    H224643   1.430   4.666   4.380
 8227TIP3   OH224644   2.993   1.524   1.510
 8227TIP3    H124645   2.943   1.548   1.432
 8227TIP3    H224646   3.080   1.504   1.477
 8228TIP3   OH224647   1.981   4.126   2.858
 8228TIP3    H124648   2.077   4.122   2.854
 8228TIP3    H224649   1.955   4.160   2.772
 8229TIP3   OH224650   0.551   6.612   2.898
 8229TIP3    H124651   0.518   6.701   2.887
 8229TIP3    H224652   0.645   6.619   2.884
 8230TIP3   OH224653   6.907   6.039   2.366
 8230TIP3    H124654   6.909   6.087   2.449
 8230TIP3    H224655   6.844   5.969   2.381
 8231TIP3   OH224656   1.591   1.363   2.220
 8231TIP3    H124657   1.662   1.370   2.156
 8231TIP3    H224658   1.532   1.435   2.200
 8232TIP3   OH224659   6.551   1.852   0.752
 8232TIP3    H124660   6.458   1.828   0.759
 8232TIP3    H224661   6.587   1.835   0.839
 8233TIP3   OH224662   3.884   5.948   5.106
 8233TIP3    H124663   3.952   6.004   5.069
 8233TIP3    H224664   3.819   5.941   5.036
 8234TIP3   OH224665   6.851   3.401   3.829
 8234TIP3    H124666   6.832   3.377   3.920
 8234TIP3    H224667   6.815   3.490   3.820
 8235TIP3   OH224668   6.914   3.875   0.000
 8235TIP3    H124669   6.880   3.863   0.089
 8235TIP3    H224670   7.009   3.881   0.011
 8236TIP3   OH224671   0.868   2.145   4.360
 8236TIP3    H124672   0.843   2.231   4.327
 8236TIP3    H224673   0.828   2.083   4.298
 8237TIP3   OH224674   0.720   1.933   1.958
 8237TIP3    H124675   0.713   1.838   1.949
 8237TIP3    H224676   0.712   1.949   2.052
 8238TIP3   OH224677   5.162   4.636   0.645
 8238TIP3    H124678   5.204   4.617   0.730
 8238TIP3    H224679   5.115   4.556   0.623
 8239TIP3   OH224680   1.133   0.202   5.113
 8239TIP3    H124681   1.065   0.147   5.074
 8239TIP3    H224682   1.179   0.240   5.037
 8240TIP3   OH224683   4.748   4.021   4.240
 8240TIP3    H124684   4.690   4.026   4.164
 8240TIP3    H224685   4.824   4.074   4.216
 8241TIP3   OH224686   4.590   4.211   5.212
 8241TIP3    H124687   4.507   4.227   5.168
 8241TIP3    H224688   4.631   4.298   5.219
 8242TIP3   OH224689   4.396   5.451   1.553
 8242TIP3    H124690   4.377   5.400   1.475
 8242TIP3    H224691   4.456   5.520   1.523
 8243TIP3   OH224692   2.339   6.203   2.240
 8243TIP3    H124693   2.358   6.149   2.163
 8243TIP3    H224694   2.298   6.282   2.205
 8244TIP3   OH224695   0.337   4.309   0.891
 8244TIP3    H124696   0.350   4.214   0.901
 8244TIP3    H224697   0.395   4.333   0.819
 8245TIP3   OH224698   5.418   3.785   3.720
 8245TIP3    H124699   5.506   3.824   3.721
 8245TIP3    H224700   5.430   3.700   3.677
 8246TIP3   OH224701   1.630   6.253   0.406
 8246TIP3    H124702   1.647   6.175   0.353
 8246TIP3    H224703   1.559   6.298   0.361
 8247TIP3   OH224704   7.133   2.362   2.134
 8247TIP3    H124705   7.087   2.299   2.079
 8247TIP3    H224706   7.064   2.420   2.168
 8248TIP3   OH224707   3.224   2.441   0.582
 8248TIP3    H124708   3.194   2.382   0.512
 8248TIP3    H224709   3.303   2.400   0.616
 8249TIP3   OH224710   0.070   0.277   3.694
 8249TIP3    H124711   0.159   0.273   3.660
 8249TIP3    H224712   0.034   0.190   3.678
 8250TIP3   OH224713   3.942   1.946   3.740
 8250TIP3    H124714   4.024   1.904   3.715
 8250TIP3    H224715   3.915   1.994   3.662
 8251TIP3   OH224716   5.826   0.729   2.863
 8251TIP3    H124717   5.886   0.759   2.932
 8251TIP3    H224718   5.829   0.633   2.869
 8252TIP3   OH224719   0.037   3.314   0.731
 8252TIP3    H124720   0.045   3.222   0.708
 8252TIP3    H224721   0.122   3.337   0.769
 8253TIP3   OH224722   5.645   4.455   1.239
 8253TIP3    H124723   5.733   4.485   1.216
 8253TIP3    H224724   5.659   4.374   1.287
 8254TIP3   OH224725   0.873   4.131   3.576
 8254TIP3    H124726   0.871   4.204   3.515
 8254TIP3    H224727   0.847   4.055   3.524
 8255TIP3   OH224728   5.116   4.379   5.799
 8255TIP3    H124729   5.204   4.341   5.802
 8255TIP3    H224730   5.066   4.328   5.863
 8256TIP3   OH224731   1.341   0.661   1.064
 8256TIP3    H124732   1.329   0.740   1.117
 8256TIP3    H224733   1.423   0.676   1.017
 8257TIP3   OH224734   1.942   2.367   4.807
 8257TIP3    H124735   2.034   2.361   4.834
 8257TIP3    H224736   1.923   2.283   4.766
 8258TIP3   OH224737   4.758   0.784   1.936
 8258TIP3    H124738   4.722   0.799   1.849
 8258TIP3    H224739   4.684   0.797   1.995
 8259TIP3   OH224740   4.098   3.902   3.034
 8259TIP3    H124741   4.008   3.922   3.059
 8259TIP3    H224742   4.096   3.897   2.938
 8260TIP3   OH224743   1.061   0.777   0.284
 8260TIP3    H124744   1.102   0.702   0.327
 8260TIP3    H224745   1.114   0.852   0.310
 8261TIP3   OH224746   5.173   4.579   1.461
 8261TIP3    H124747   5.266   4.563   1.478
 8261TIP3    H224748   5.129   4.557   1.543
 8262TIP3   OH224749   0.640   6.044   5.712
 8262TIP3    H124750   0.638   5.998   5.628
 8262TIP3    H224751   0.572   6.002   5.764
 8263TIP3   OH224752   1.689   6.172   4.549
 8263TIP3    H124753   1.689   6.142   4.458
 8263TIP3    H224754   1.596   6.175   4.573
 8264TIP3   OH224755   1.432   1.966   3.614
 8264TIP3    H124756   1.520   1.940   3.639
 8264TIP3    H224757   1.425   1.944   3.521
 8265TIP3   OH224758   6.851   1.243   5.566
 8265TIP3    H124759   6.798   1.324   5.568
 8265TIP3    H224760   6.807   1.184   5.627
 8266TIP3   OH224761   2.858   0.354   0.901
 8266TIP3    H124762   2.805   0.282   0.865
 8266TIP3    H224763   2.858   0.338   0.995
 8267TIP3   OH224764   2.111   5.314   2.906
 8267TIP3    H124765   2.200   5.291   2.933
 8267TIP3    H224766   2.061   5.313   2.987
 8268TIP3   OH224767   2.623   1.771   1.921
 8268TIP3    H124768   2.556   1.705   1.901
 8268TIP3    H224769   2.613   1.789   2.014
 8269TIP3   OH224770   2.073   6.731   2.804
 8269TIP3    H124771   2.109   6.672   2.738
 8269TIP3    H224772   2.130   6.808   2.800
 8270TIP3   OH224773   5.689   0.683   3.264
 8270TIP3    H124774   5.744   0.666   3.188
 8270TIP3    H224775   5.655   0.771   3.251
 8271TIP3   OH224776   1.790   2.518   2.948
 8271TIP3    H124777   1.880   2.486   2.949
 8271TIP3    H224778   1.737   2.441   2.966
 8272TIP3   OH224779   2.860   2.476   5.659
 8272TIP3    H124780   2.939   2.431   5.689
 8272TIP3    H224781   2.866   2.563   5.698
 8273TIP3   OH224782   5.414   4.415   0.460
 8273TIP3    H124783   5.343   4.406   0.395
 8273TIP3    H224784   5.494   4.399   0.410
 8274TIP3   OH224785   2.875   5.966   0.028
 8274TIP3    H124786   2.940   5.900   0.052
 8274TIP3    H224787   2.831   5.988   0.110
 8275TIP3   OH224788   4.774   4.052   1.386
 8275TIP3    H124789   4.775   3.960   1.359
 8275TIP3    H224790   4.758   4.050   1.480
 8276TIP3   OH224791   6.323   6.393   5.885
 8276TIP3    H124792   6.324   6.449   5.807
 8276TIP3    H224793   6.236   6.353   5.886
 8277TIP3   OH224794   4.705   5.635   5.019
 8277TIP3    H124795   4.663   5.584   5.088
 8277TIP3    H224796   4.769   5.690   5.065
 8278TIP3   OH224797   7.128   4.766   1.974
 8278TIP3    H124798   7.079   4.818   2.038
 8278TIP3    H224799   7.219   4.775   2.000
 8279TIP3   OH224800   1.621   2.409   2.656
 8279TIP3    H124801   1.689   2.445   2.598
 8279TIP3    H224802   1.666   2.340   2.705
 8280TIP3   OH224803   1.517   4.577   5.088
 8280TIP3    H124804   1.576   4.625   5.030
 8280TIP3    H224805   1.534   4.485   5.068
 8281TIP3   OH224806   0.298   0.200   5.122
 8281TIP3    H124807   0.368   0.201   5.057
 8281TIP3    H224808   0.278   0.108   5.135
 8282TIP3   OH224809   7.120   1.945   5.641
 8282TIP3    H124810   7.055   1.938   5.570
 8282TIP3    H224811   7.071   1.923   5.720
 8283TIP3   OH224812   5.060   2.283   3.476
 8283TIP3    H124813   4.968   2.293   3.451
 8283TIP3    H224814   5.101   2.364   3.447
 8284TIP3   OH224815   1.299   1.695   0.943
 8284TIP3    H124816   1.226   1.753   0.966
 8284TIP3    H224817   1.354   1.747   0.884
 8285TIP3   OH224818   2.296   0.433   2.062
 8285TIP3    H124819   2.341   0.451   1.979
 8285TIP3    H224820   2.250   0.515   2.081
 8286TIP3   OH224821   0.094   6.519   4.027
 8286TIP3    H124822   0.087   6.519   4.123
 8286TIP3    H224823   0.015   6.564   3.997
 8287TIP3   OH224824   3.992   4.709   3.882
 8287TIP3    H124825   3.946   4.649   3.940
 8287TIP3    H224826   4.084   4.696   3.902
 8288TIP3   OH224827   3.837   1.642   2.406
 8288TIP3    H124828   3.847   1.733   2.432
 8288TIP3    H224829   3.914   1.624   2.351
 8289TIP3   OH224830   2.250   6.308   0.992
 8289TIP3    H124831   2.196   6.256   0.933
 8289TIP3    H224832   2.333   6.261   0.996
 8290TIP3   OH224833   0.349   2.685   5.320
 8290TIP3    H124834   0.429   2.731   5.346
 8290TIP3    H224835   0.307   2.745   5.258
 8291TIP3   OH224836   1.212   2.999   1.668
 8291TIP3    H124837   1.134   3.008   1.612
 8291TIP3    H224838   1.277   2.956   1.612
 8292TIP3   OH224839   6.469   6.743   5.690
 8292TIP3    H124840   6.469   6.830   5.649
 8292TIP3    H224841   6.529   6.751   5.764
 8293TIP3   OH224842   2.439   3.103   3.633
 8293TIP3    H124843   2.367   3.166   3.638
 8293TIP3    H224844   2.472   3.098   3.723
 8294TIP3   OH224845   5.737   6.556   3.944
 8294TIP3    H124846   5.779   6.638   3.920
 8294TIP3    H224847   5.810   6.495   3.956
 8295TIP3   OH224848   3.687   6.283   4.480
 8295TIP3    H124849   3.600   6.255   4.450
 8295TIP3    H224850   3.684   6.379   4.475
 8296TIP3   OH224851   3.990   0.614   0.120
 8296TIP3    H124852   3.963   0.697   0.081
 8296TIP3    H224853   3.996   0.554   0.047
 8297TIP3   OH224854   5.197   5.462   5.492
 8297TIP3    H124855   5.118   5.473   5.438
 8297TIP3    H224856   5.218   5.550   5.522
 8298TIP3   OH224857   6.673   5.616   4.158
 8298TIP3    H124858   6.617   5.574   4.092
 8298TIP3    H224859   6.679   5.708   4.130
 8299TIP3   OH224860   6.633   4.965   4.786
 8299TIP3    H124861   6.659   5.052   4.755
 8299TIP3    H224862   6.695   4.906   4.744
 8300TIP3   OH224863   3.023   4.693   5.280
 8300TIP3    H124864   3.026   4.749   5.358
 8300TIP3    H224865   2.940   4.646   5.288
 8301TIP3   OH224866   0.930   6.417   4.494
 8301TIP3    H124867   0.889   6.503   4.482
 8301TIP3    H224868   0.978   6.424   4.576
 8302TIP3   OH224869   6.434   0.606   1.250
 8302TIP3    H124870   6.364   0.583   1.311
 8302TIP3    H224871   6.438   0.532   1.189
 8303TIP3   OH224872   0.378   4.435   5.450
 8303TIP3    H124873   0.417   4.516   5.418
 8303TIP3    H224874   0.445   4.397   5.508
 8304TIP3   OH224875   7.088   0.030   1.188
 8304TIP3    H124876   7.103   0.115   1.146
 8304TIP3    H224877   7.175   0.002   1.217
 8305TIP3   OH224878   1.042   2.500   1.185
 8305TIP3    H124879   0.978   2.511   1.115
 8305TIP3    H224880   1.001   2.540   1.262
 8306TIP3   OH224881   5.996   3.957   5.402
 8306TIP3    H124882   6.071   3.998   5.358
 8306TIP3    H224883   5.945   4.031   5.435
 8307TIP3   OH224884   3.931   5.257   3.469
 8307TIP3    H124885   3.937   5.162   3.481
 8307TIP3    H224886   3.855   5.269   3.412
 8308TIP3   OH224887   3.709   3.557   4.946
 8308TIP3    H124888   3.725   3.651   4.937
 8308TIP3    H224889   3.617   3.545   4.923
 8309TIP3   OH224890   4.971   6.430   1.455
 8309TIP3    H124891   4.934   6.354   1.501
 8309TIP3    H224892   5.065   6.416   1.458
 8310TIP3   OH224893   1.259   0.541   3.113
 8310TIP3    H124894   1.210   0.563   3.034
 8310TIP3    H224895   1.315   0.617   3.129
 8311TIP3   OH224896   4.377   2.908   1.508
 8311TIP3    H124897   4.307   2.964   1.541
 8311TIP3    H224898   4.383   2.836   1.571
 8312TIP3   OH224899   1.539   4.028   1.167
 8312TIP3    H124900   1.551   4.066   1.080
 8312TIP3    H224901   1.621   4.046   1.212
 8313TIP3   OH224902   3.865   2.094   0.929
 8313TIP3    H124903   3.811   2.015   0.921
 8313TIP3    H224904   3.922   2.091   0.853
 8314TIP3   OH224905   1.938   0.095   5.313
 8314TIP3    H124906   1.964   0.067   5.401
 8314TIP3    H224907   2.013   0.077   5.258
 8315TIP3   OH224908   3.503   6.446   4.084
 8315TIP3    H124909   3.520   6.510   4.153
 8315TIP3    H224910   3.549   6.481   4.007
 8316TIP3   OH224911   4.297   0.230   1.600
 8316TIP3    H124912   4.385   0.248   1.633
 8316TIP3    H224913   4.264   0.316   1.571
 8317TIP3   OH224914   0.411   4.945   2.617
 8317TIP3    H124915   0.402   5.007   2.688
 8317TIP3    H224916   0.345   4.877   2.635
 8318TIP3   OH224917   0.388   0.134   2.783
 8318TIP3    H124918   0.377   0.178   2.867
 8318TIP3    H224919   0.332   0.183   2.723
 8319TIP3   OH224920   6.935   6.180   3.557
 8319TIP3    H124921   7.004   6.222   3.507
 8319TIP3    H224922   6.978   6.108   3.603
 8320TIP3   OH224923   6.284   0.512   3.268
 8320TIP3    H124924   6.377   0.488   3.263
 8320TIP3    H224925   6.240   0.430   3.293
 8321TIP3   OH224926   4.520   1.150   2.178
 8321TIP3    H124927   4.482   1.064   2.163
 8321TIP3    H224928   4.478   1.206   2.112
 8322TIP3   OH224929   2.628   6.750   1.914
 8322TIP3    H124930   2.669   6.663   1.914
 8322TIP3    H224931   2.546   6.738   1.963
 8323TIP3   OH224932   1.451   0.007   0.855
 8323TIP3    H124933   1.413  -0.064   0.906
 8323TIP3    H224934   1.384   0.076   0.858
 8324TIP3   OH224935   0.999   2.289  -0.014
 8324TIP3    H124936   0.907   2.269   0.005
 8324TIP3    H224937   1.030   2.335   0.064
 8325TIP3   OH224938   3.437   2.386   4.260
 8325TIP3    H124939   3.520   2.344   4.283
 8325TIP3    H224940   3.370   2.326   4.294
 8326TIP3   OH224941   2.701   1.461   5.288
 8326TIP3    H124942   2.640   1.390   5.307
 8326TIP3    H224943   2.757   1.426   5.218
 8327TIP3   OH224944   4.086   4.078   1.437
 8327TIP3    H124945   4.081   4.173   1.446
 8327TIP3    H224946   4.032   4.044   1.508
 8328TIP3   OH224947   6.125   5.686   3.865
 8328TIP3    H124948   6.121   5.664   3.771
 8328TIP3    H224949   6.127   5.601   3.909
 8329TIP3   OH224950   0.708   0.069   0.736
 8329TIP3    H124951   0.631   0.061   0.792
 8329TIP3    H224952   0.750  -0.017   0.741
 8330TIP3   OH224953   1.485   2.946   5.240
 8330TIP3    H124954   1.506   3.003   5.166
 8330TIP3    H224955   1.491   2.858   5.204
 8331TIP3   OH224956   1.309   1.574   1.745
 8331TIP3    H124957   1.222   1.570   1.785
 8331TIP3    H224958   1.357   1.503   1.786
 8332TIP3   OH224959   0.189   4.584   4.084
 8332TIP3    H124960   0.154   4.672   4.100
 8332TIP3    H224961   0.193   4.544   4.171
 8333TIP3   OH224962   4.804   5.557   2.003
 8333TIP3    H124963   4.899   5.558   2.004
 8333TIP3    H224964   4.779   5.648   1.989
 8334TIP3   OH224965   1.858   4.952   1.744
 8334TIP3    H124966   1.910   4.946   1.824
 8334TIP3    H224967   1.842   4.861   1.719
 8335TIP3   OH224968   4.787   0.882   0.556
 8335TIP3    H124969   4.720   0.814   0.564
 8335TIP3    H224970   4.861   0.838   0.512
 8336TIP3   OH224971   6.479   0.034   4.116
 8336TIP3    H124972   6.469  -0.055   4.150
 8336TIP3    H224973   6.514   0.022   4.028
 8337TIP3   OH224974   4.055   6.561   2.617
 8337TIP3    H124975   3.969   6.519   2.619
 8337TIP3    H224976   4.113   6.500   2.663
 8338TIP3   OH224977   3.986   6.742   1.696
 8338TIP3    H124978   4.021   6.655   1.716
 8338TIP3    H224979   3.892   6.728   1.688
 8339TIP3   OH224980   3.473   4.201   4.347
 8339TIP3    H124981   3.470   4.288   4.387
 8339TIP3    H224982   3.382   4.173   4.344
 8340TIP3   OH224983   1.293   2.564   1.227
 8340TIP3    H124984   1.334   2.500   1.168
 8340TIP3    H224985   1.199   2.544   1.222
 8341TIP3   OH224986   5.055   2.778   4.438
 8341TIP3    H124987   5.049   2.872   4.453
 8341TIP3    H224988   4.978   2.741   4.482
 8342TIP3   OH224989   6.571   3.484   4.874
 8342TIP3    H124990   6.558   3.490   4.779
 8342TIP3    H224991   6.515   3.411   4.901
 8343TIP3   OH224992   2.920   3.097   4.708
 8343TIP3    H124993   2.882   3.179   4.677
 8343TIP3    H224994   2.993   3.080   4.648
 8344TIP3   OH224995   6.023   5.011   1.871
 8344TIP3    H124996   6.091   5.049   1.927
 8344TIP3    H224997   5.974   5.087   1.840
 8345TIP3   OH224998   4.660   1.337   0.477
 8345TIP3    H124999   4.665   1.242   0.472
 8345TIP3    H225000   4.570   1.358   0.451
 8346TIP3   OH225001   4.588   6.242   5.538
 8346TIP3    H125002   4.598   6.220   5.630
 8346TIP3    H225003   4.534   6.172   5.502
 8347TIP3   OH225004   4.756   2.397   5.616
 8347TIP3    H125005   4.753   2.304   5.637
 8347TIP3    H225006   4.787   2.439   5.696
 8348TIP3   OH225007   3.835   4.697   2.336
 8348TIP3    H125008   3.871   4.674   2.422
 8348TIP3    H225009   3.860   4.789   2.324
 8349TIP3   OH225010   0.885   2.082   5.502
 8349TIP3    H125011   0.860   2.167   5.537
 8349TIP3    H225012   0.848   2.080   5.414
 8350TIP3   OH225013   5.995   2.629   2.741
 8350TIP3    H125014   5.903   2.637   2.766
 8350TIP3    H225015   6.044   2.666   2.814
 8351TIP3   OH225016   4.269   1.153   1.813
 8351TIP3    H125017   4.230   1.102   1.884
 8351TIP3    H225018   4.326   1.216   1.858
 8352TIP3   OH225019   3.848   0.448   5.733
 8352TIP3    H125020   3.819   0.475   5.821
 8352TIP3    H225021   3.887   0.361   5.747
 8353TIP3   OH225022   2.867   4.320   2.575
 8353TIP3    H125023   2.840   4.234   2.545
 8353TIP3    H225024   2.839   4.380   2.506
 8354TIP3   OH225025   4.121   4.015   4.745
 8354TIP3    H125026   4.088   3.936   4.787
 8354TIP3    H225027   4.175   4.056   4.812
 8355TIP3   OH225028   1.502   1.282   3.130
 8355TIP3    H125029   1.533   1.249   3.214
 8355TIP3    H225030   1.580   1.317   3.087
 8356TIP3   OH225031   6.518   6.656   3.053
 8356TIP3    H125032   6.546   6.571   3.019
 8356TIP3    H225033   6.587   6.716   3.028
 8357TIP3   OH225034   4.605   6.333   2.790
 8357TIP3    H125035   4.653   6.387   2.727
 8357TIP3    H225036   4.651   6.249   2.790
 8358TIP3   OH225037   0.531   4.289   3.310
 8358TIP3    H125038   0.449   4.242   3.298
 8358TIP3    H225039   0.577   4.278   3.227
 8359TIP3   OH225040   2.477   6.526   2.627
 8359TIP3    H125041   2.510   6.502   2.714
 8359TIP3    H225042   2.512   6.613   2.611
 8360TIP3   OH225043   2.605   1.202   4.297
 8360TIP3    H125044   2.670   1.269   4.317
 8360TIP3    H225045   2.570   1.176   4.382
 8361TIP3   OH225046   5.860   0.621   0.616
 8361TIP3    H125047   5.900   0.701   0.582
 8361TIP3    H225048   5.924   0.587   0.679
 8362TIP3   OH225049   5.610   1.510   0.247
 8362TIP3    H125050   5.639   1.556   0.167
 8362TIP3    H225051   5.659   1.428   0.246
 8363TIP3   OH225052   4.457   6.157   1.882
 8363TIP3    H125053   4.532   6.205   1.848
 8363TIP3    H225054   4.441   6.088   1.817
 8364TIP3   OH225055   6.607   3.476   1.099
 8364TIP3    H125056   6.628   3.405   1.038
 8364TIP3    H225057   6.630   3.441   1.185
 8365TIP3   OH225058   4.592   0.445   2.007
 8365TIP3    H125059   4.557   0.362   2.038
 8365TIP3    H225060   4.517   0.490   1.968
 8366TIP3   OH225061   4.378   4.806   0.871
 8366TIP3    H125062   4.284   4.788   0.863
 8366TIP3    H225063   4.403   4.839   0.784
 8367TIP3   OH225064   0.406   5.614   3.127
 8367TIP3    H125065   0.317   5.579   3.128
 8367TIP3    H225066   0.429   5.622   3.220
 8368TIP3   OH225067   2.312   0.283   4.306
 8368TIP3    H125068   2.220   0.312   4.308
 8368TIP3    H225069   2.317   0.224   4.231
 8369TIP3   OH225070   5.225   0.552   4.394
 8369TIP3    H125071   5.318   0.553   4.368
 8369TIP3    H225072   5.198   0.461   4.383
 8370TIP3   OH225073   2.199   6.512   2.680
 8370TIP3    H125074   2.290   6.539   2.664
 8370TIP3    H225075   2.207   6.434   2.735
 8371TIP3   OH225076   2.995   5.027   1.610
 8371TIP3    H125077   3.013   5.072   1.692
 8371TIP3    H225078   2.959   4.942   1.637
 8372TIP3   OH225079   3.360   3.264   3.174
 8372TIP3    H125080   3.301   3.238   3.245
 8372TIP3    H225081   3.424   3.193   3.169
 8373TIP3   OH225082   1.129   4.577   1.583
 8373TIP3    H125083   1.086   4.621   1.510
 8373TIP3    H225084   1.091   4.489   1.584
 8374TIP3   OH225085   3.510   3.553   3.776
 8374TIP3    H125086   3.481   3.468   3.809
 8374TIP3    H225087   3.539   3.601   3.853
 8375TIP3   OH225088   6.912   2.236   4.455
 8375TIP3    H125089   6.835   2.183   4.475
 8375TIP3    H225090   6.967   2.179   4.401
 8376TIP3   OH225091   2.459   2.721   4.575
 8376TIP3    H125092   2.471   2.641   4.626
 8376TIP3    H225093   2.457   2.691   4.484
 8377TIP3   OH225094   1.382   4.452   1.060
 8377TIP3    H125095   1.475   4.477   1.059
 8377TIP3    H225096   1.339   4.518   1.005
 8378TIP3   OH225097   0.788   0.852   3.674
 8378TIP3    H125098   0.875   0.813   3.667
 8378TIP3    H225099   0.788   0.924   3.610
 8379TIP3   OH225100   3.405   6.254   4.411
 8379TIP3    H125101   3.331   6.226   4.357
 8379TIP3    H225102   3.371   6.324   4.465
 8380TIP3   OH225103   4.755   6.673   4.121
 8380TIP3    H125104   4.665   6.646   4.139
 8380TIP3    H225105   4.800   6.594   4.091
 8381TIP3   OH225106   1.266   2.138   5.652
 8381TIP3    H125107   1.307   2.135   5.566
 8381TIP3    H225108   1.337   2.123   5.713
 8382TIP3   OH225109   2.991   2.292   0.116
 8382TIP3    H125110   2.969   2.229   0.048
 8382TIP3    H225111   2.945   2.261   0.193
 8383TIP3   OH225112   5.598   4.340   4.591
 8383TIP3    H125113   5.505   4.354   4.573
 8383TIP3    H225114   5.638   4.426   4.577
 8384TIP3   OH225115   2.470   3.505   2.102
 8384TIP3    H125116   2.478   3.411   2.117
 8384TIP3    H225117   2.380   3.516   2.071
 8385TIP3   OH225118   3.024   3.006   4.983
 8385TIP3    H125119   3.088   3.077   4.984
 8385TIP3    H225120   2.964   3.029   4.912
 8386TIP3   OH225121   2.058   4.137   5.189
 8386TIP3    H125122   2.017   4.111   5.107
 8386TIP3    H225123   2.152   4.128   5.174
 8387TIP3   OH225124   2.746   3.704   2.279
 8387TIP3    H125125   2.809   3.772   2.256
 8387TIP3    H225126   2.675   3.750   2.324
 8388TIP3   OH225127   5.144   1.492   1.265
 8388TIP3    H125128   5.113   1.551   1.197
 8388TIP3    H225129   5.233   1.467   1.237
 8389TIP3   OH225130   6.334   6.115   1.748
 8389TIP3    H125131   6.387   6.035   1.752
 8389TIP3    H225132   6.396   6.186   1.764
 8390TIP3   OH225133   4.034   3.588   1.608
 8390TIP3    H125134   3.980   3.614   1.682
 8390TIP3    H225135   4.108   3.648   1.610
 8391TIP3   OH225136   0.276   4.794   4.828
 8391TIP3    H125137   0.291   4.861   4.761
 8391TIP3    H225138   0.191   4.818   4.866
 8392TIP3   OH225139   1.388   1.045   5.492
 8392TIP3    H125140   1.452   1.099   5.539
 8392TIP3    H225141   1.303   1.072   5.526
 8393TIP3   OH225142   3.198   5.925   0.281
 8393TIP3    H125143   3.123   5.877   0.246
 8393TIP3    H225144   3.161   5.983   0.347
 8394TIP3   OH225145   4.218   0.056   5.413
 8394TIP3    H125146   4.197   0.057   5.319
 8394TIP3    H225147   4.311   0.076   5.417
 8395TIP3   OH225148   1.848   6.396   4.110
 8395TIP3    H125149   1.923   6.370   4.164
 8395TIP3    H225150   1.843   6.491   4.120
 8396TIP3   OH225151   1.599   3.065   3.096
 8396TIP3    H125152   1.537   3.133   3.123
 8396TIP3    H225153   1.586   2.994   3.159
 8397TIP3   OH225154   3.527   2.598   5.644
 8397TIP3    H125155   3.497   2.635   5.561
 8397TIP3    H225156   3.448   2.565   5.685
 8398TIP3   OH225157   3.221   4.140   4.840
 8398TIP3    H125158   3.260   4.056   4.867
 8398TIP3    H225159   3.287   4.205   4.863
 8399TIP3   OH225160   4.119   6.488   5.358
 8399TIP3    H125161   4.193   6.439   5.322
 8399TIP3    H225162   4.132   6.485   5.453
 8400TIP3   OH225163   6.227   3.775   3.244
 8400TIP3    H125164   6.239   3.681   3.231
 8400TIP3    H225165   6.315   3.808   3.260
 8401TIP3   OH225166   3.976   2.978   0.668
 8401TIP3    H125167   4.054   3.034   0.662
 8401TIP3    H225168   3.926   2.998   0.589
 8402TIP3   OH225169   4.871   3.503   2.880
 8402TIP3    H125170   4.862   3.416   2.918
 8402TIP3    H225171   4.857   3.489   2.786
 8403TIP3   OH225172   4.793   2.605   1.638
 8403TIP3    H125173   4.737   2.682   1.649
 8403TIP3    H225174   4.850   2.606   1.715
 8404TIP3   OH225175   1.209   0.613   1.413
 8404TIP3    H125176   1.258   0.684   1.457
 8404TIP3    H225177   1.156   0.658   1.347
 8405TIP3   OH225178   3.128   6.759   5.700
 8405TIP3    H125179   3.106   6.815   5.774
 8405TIP3    H225180   3.211   6.718   5.724
 8406TIP3   OH225181   0.879   0.146   5.661
 8406TIP3    H125182   0.943   0.076   5.671
 8406TIP3    H225183   0.921   0.223   5.697
 8407TIP3   OH225184   0.081   3.741   4.108
 8407TIP3    H125185   0.167   3.740   4.065
 8407TIP3    H225186   0.058   3.834   4.113
 8408TIP3   OH225187   5.558   0.616   4.666
 8408TIP3    H125188   5.654   0.611   4.672
 8408TIP3    H225189   5.528   0.594   4.754
 8409TIP3   OH225190   0.637   4.651   0.642
 8409TIP3    H125191   0.648   4.604   0.725
 8409TIP3    H225192   0.548   4.684   0.645
 8410TIP3   OH225193   1.448   3.593   0.696
 8410TIP3    H125194   1.411   3.673   0.733
 8410TIP3    H225195   1.539   3.592   0.727
 8411TIP3   OH225196   1.593   3.157   2.742
 8411TIP3    H125197   1.643   3.190   2.816
 8411TIP3    H225198   1.655   3.104   2.692
 8412TIP3   OH225199   6.162   1.595   2.578
 8412TIP3    H125200   6.127   1.623   2.662
 8412TIP3    H225201   6.104   1.635   2.513
 8413TIP3   OH225202   0.618   3.810   0.219
 8413TIP3    H125203   0.643   3.763   0.298
 8413TIP3    H225204   0.652   3.756   0.147
 8414TIP3   OH225205   4.638   1.575   0.758
 8414TIP3    H125206   4.701   1.503   0.765
 8414TIP3    H225207   4.605   1.585   0.848
 8415TIP3   OH225208   5.988   5.997   5.380
 8415TIP3    H125209   6.070   6.016   5.334
 8415TIP3    H225210   5.971   5.904   5.361
 8416TIP3   OH225211   0.199   0.748   5.628
 8416TIP3    H125212   0.228   0.803   5.701
 8416TIP3    H225213   0.274   0.691   5.610
 8417TIP3   OH225214   2.212   6.003   2.902
 8417TIP3    H125215   2.181   5.916   2.879
 8417TIP3    H225216   2.292   5.988   2.952
 8418TIP3   OH225217   1.207   4.057   0.161
 8418TIP3    H125218   1.138   4.118   0.187
 8418TIP3    H225219   1.269   4.059   0.233
 8419TIP3   OH225220   5.834   1.433   2.258
 8419TIP3    H125221   5.903   1.397   2.315
 8419TIP3    H225222   5.841   1.527   2.269
 8420TIP3   OH225223   5.427   3.288   1.859
 8420TIP3    H125224   5.416   3.260   1.768
 8420TIP3    H225225   5.449   3.381   1.853
 8421TIP3   OH225226   4.217   6.711   3.206
 8421TIP3    H125227   4.248   6.772   3.274
 8421TIP3    H225228   4.211   6.627   3.251
 8422TIP3   OH225229   1.465   6.216   1.202
 8422TIP3    H125230   1.552   6.255   1.209
 8422TIP3    H225231   1.480   6.130   1.161
 8423TIP3   OH225232   4.276   6.571   0.914
 8423TIP3    H125233   4.366   6.539   0.921
 8423TIP3    H225234   4.283   6.666   0.926
 8424TIP3   OH225235   3.172   4.044   3.659
 8424TIP3    H125236   3.257   4.064   3.620
 8424TIP3    H225237   3.140   3.968   3.611
 8425TIP3   OH225238   4.337   1.922   2.636
 8425TIP3    H125239   4.274   1.887   2.572
 8425TIP3    H225240   4.408   1.958   2.583
 8426TIP3   OH225241   0.397   6.223   1.152
 8426TIP3    H125242   0.356   6.150   1.106
 8426TIP3    H225243   0.327   6.261   1.204
 8427TIP3   OH225244   6.326   0.378   0.394
 8427TIP3    H125245   6.326   0.451   0.332
 8427TIP3    H225246   6.240   0.337   0.384
 8428TIP3   OH225247   4.169   0.230   4.645
 8428TIP3    H125248   4.244   0.279   4.612
 8428TIP3    H225249   4.176   0.237   4.740
 8429TIP3   OH225250   2.590   0.189   0.636
 8429TIP3    H125251   2.553   0.277   0.632
 8429TIP3    H225252   2.626   0.174   0.549
 8430TIP3   OH225253   6.463   0.727   1.914
 8430TIP3    H125254   6.509   0.722   1.998
 8430TIP3    H225255   6.523   0.685   1.852
 8431TIP3   OH225256   3.501   1.672   1.056
 8431TIP3    H125257   3.427   1.710   1.009
 8431TIP3    H225258   3.539   1.745   1.105
 8432TIP3   OH225259   0.032   2.488   4.695
 8432TIP3    H125260   0.045   2.497   4.790
 8432TIP3    H225261  -0.049   2.438   4.686
 8433TIP3   OH225262   2.130   0.430   0.137
 8433TIP3    H125263   2.093   0.348   0.106
 8433TIP3    H225264   2.219   0.432   0.101
 8434TIP3   OH225265   6.675   2.093   4.541
 8434TIP3    H125266   6.648   2.047   4.461
 8434TIP3    H225267   6.663   2.028   4.610
 8435TIP3   OH225268   5.061   1.976   5.676
 8435TIP3    H125269   5.113   1.927   5.612
 8435TIP3    H225270   4.971   1.968   5.646
 8436TIP3   OH225271   2.316   6.460   4.640
 8436TIP3    H125272   2.351   6.380   4.600
 8436TIP3    H225273   2.223   6.458   4.619
 8437TIP3   OH225274   0.651   0.834   5.439
 8437TIP3    H125275   0.720   0.791   5.389
 8437TIP3    H225276   0.606   0.889   5.375
 8438TIP3   OH225277   5.198   6.294   4.782
 8438TIP3    H125278   5.260   6.360   4.813
 8438TIP3    H225279   5.176   6.322   4.693
 8439TIP3   OH225280   6.704   2.324   2.183
 8439TIP3    H125281   6.726   2.375   2.261
 8439TIP3    H225282   6.772   2.345   2.120
 8440TIP3   OH225283   0.246   4.185   0.191
 8440TIP3    H125284   0.288   4.219   0.270
 8440TIP3    H225285   0.153   4.207   0.201
 8441TIP3   OH225286   6.818   1.396   2.636
 8441TIP3    H125287   6.766   1.466   2.676
 8441TIP3    H225288   6.868   1.359   2.708
 8442TIP3   OH225289   4.579   5.086   3.781
 8442TIP3    H125290   4.574   5.015   3.717
 8442TIP3    H225291   4.604   5.044   3.863
 8443TIP3   OH225292   4.721   2.057   4.831
 8443TIP3    H125293   4.763   2.141   4.849
 8443TIP3    H225294   4.785   1.991   4.859
 8444TIP3   OH225295   7.083   0.426   1.218
 8444TIP3    H125296   7.078   0.368   1.142
 8444TIP3    H225297   7.144   0.495   1.192
 8445TIP3   OH225298   7.129   1.177   4.973
 8445TIP3    H125299   7.142   1.250   4.912
 8445TIP3    H225300   7.160   1.210   5.057
 8446TIP3   OH225301   2.632   1.627   0.668
 8446TIP3    H125302   2.711   1.611   0.617
 8446TIP3    H225303   2.623   1.723   0.668
 8447TIP3   OH225304   6.399   4.288   4.735
 8447TIP3    H125305   6.470   4.232   4.703
 8447TIP3    H225306   6.356   4.319   4.655
 8448TIP3   OH225307   5.840   2.469   3.789
 8448TIP3    H125308   5.777   2.489   3.859
 8448TIP3    H225309   5.865   2.555   3.754
 8449TIP3   OH225310   5.438   2.778   4.868
 8449TIP3    H125311   5.353   2.735   4.883
 8449TIP3    H225312   5.468   2.741   4.784
 8450TIP3   OH225313   2.532   1.854   3.520
 8450TIP3    H125314   2.460   1.844   3.582
 8450TIP3    H225315   2.514   1.936   3.475
 8451TIP3   OH225316   5.608   1.934   1.484
 8451TIP3    H125317   5.680   1.887   1.528
 8451TIP3    H225318   5.532   1.916   1.539
 8452TIP3   OH225319   1.516   3.803   2.289
 8452TIP3    H125320   1.458   3.727   2.294
 8452TIP3    H225321   1.511   3.843   2.375
 8453TIP3   OH225322   4.140   0.598   0.761
 8453TIP3    H125323   4.191   0.660   0.710
 8453TIP3    H225324   4.191   0.586   0.842
 8454TIP3   OH225325   3.332   3.087   4.963
 8454TIP3    H125326   3.271   3.161   4.972
 8454TIP3    H225327   3.418   3.124   4.984
 8455TIP3   OH225328   3.468   4.534   5.400
 8455TIP3    H125329   3.385   4.576   5.379
 8455TIP3    H225330   3.448   4.475   5.473
 8456TIP3   OH225331   2.091   6.381   4.312
 8456TIP3    H125332   2.119   6.411   4.399
 8456TIP3    H225333   2.160   6.413   4.253
 8457TIP3   OH225334   5.930   3.644   4.685
 8457TIP3    H125335   5.978   3.670   4.606
 8457TIP3    H225336   5.856   3.705   4.689
 8458TIP3   OH225337   5.173   3.858   2.420
 8458TIP3    H125338   5.112   3.898   2.482
 8458TIP3    H225339   5.260   3.883   2.453
 8459TIP3   OH225340   4.706   3.937   0.386
 8459TIP3    H125341   4.757   3.987   0.451
 8459TIP3    H225342   4.749   3.955   0.303
 8460TIP3   OH225343   4.465   1.728   5.676
 8460TIP3    H125344   4.538   1.666   5.687
 8460TIP3    H225345   4.417   1.695   5.600
 8461TIP3   OH225346   6.423   6.392   4.124
 8461TIP3    H125347   6.447   6.400   4.217
 8461TIP3    H225348   6.497   6.430   4.077
 8462TIP3   OH225349   6.793   2.417   0.586
 8462TIP3    H125350   6.771   2.461   0.668
 8462TIP3    H225351   6.803   2.325   0.611
 8463TIP3   OH225352   4.054   6.667   1.345
 8463TIP3    H125353   4.064   6.704   1.433
 8463TIP3    H225354   4.128   6.607   1.336
 8464TIP3   OH225355   4.232   0.002   4.494
 8464TIP3    H125356   4.263  -0.029   4.579
 8464TIP3    H225357   4.206   0.093   4.510
 8465TIP3   OH225358   3.397   1.258   2.535
 8465TIP3    H125359   3.488   1.264   2.565
 8465TIP3    H225360   3.399   1.193   2.465
 8466TIP3   OH225361   3.421   1.469   5.408
 8466TIP3    H125362   3.436   1.563   5.415
 8466TIP3    H225363   3.487   1.439   5.347
 8467TIP3   OH225364   7.148   3.516   2.078
 8467TIP3    H125365   7.107   3.538   1.994
 8467TIP3    H225366   7.206   3.443   2.058
 8468TIP3   OH225367   5.916   3.306   5.299
 8468TIP3    H125368   5.961   3.301   5.215
 8468TIP3    H225369   5.915   3.216   5.332
 8469TIP3   OH225370   2.720   3.881   4.771
 8469TIP3    H125371   2.678   3.960   4.806
 8469TIP3    H225372   2.685   3.809   4.823
 8470TIP3   OH225373   3.256   3.952   3.046
 8470TIP3    H125374   3.296   4.036   3.066
 8470TIP3    H225375   3.327   3.899   3.010
 8471TIP3   OH225376   2.897   1.161   4.557
 8471TIP3    H125377   2.861   1.104   4.490
 8471TIP3    H225378   2.831   1.229   4.568
 8472TIP3   OH225379   0.342   6.477   3.009
 8472TIP3    H125380   0.414   6.506   2.954
 8472TIP3    H225381   0.267   6.474   2.949
 8473TIP3   OH225382   5.059   2.983   0.469
 8473TIP3    H125383   4.985   2.927   0.444
 8473TIP3    H225384   5.062   3.050   0.402
 8474TIP3   OH225385   6.739   5.582   1.222
 8474TIP3    H125386   6.701   5.667   1.240
 8474TIP3    H225387   6.685   5.545   1.152
 8475TIP3   OH225388   4.927   2.386   2.053
 8475TIP3    H125389   4.913   2.386   1.958
 8475TIP3    H225390   4.983   2.462   2.070
 8476TIP3   OH225391   2.934   6.568   4.871
 8476TIP3    H125392   2.881   6.647   4.857
 8476TIP3    H225393   3.013   6.582   4.819
 8477TIP3   OH225394   4.725   6.536   5.800
 8477TIP3    H125395   4.734   6.622   5.760
 8477TIP3    H225396   4.769   6.477   5.739
 8478TIP3   OH225397   0.075   5.930   0.698
 8478TIP3    H125398   0.118   5.937   0.613
 8478TIP3    H225399   0.043   5.840   0.702
 8479TIP3   OH225400   3.879   3.051   5.580
 8479TIP3    H125401   3.862   3.058   5.486
 8479TIP3    H225402   3.793   3.045   5.620
 8480TIP3   OH225403   6.657   4.790   1.485
 8480TIP3    H125404   6.728   4.849   1.509
 8480TIP3    H225405   6.582   4.847   1.471
 8481TIP3   OH225406   5.951   4.299   5.202
 8481TIP3    H125407   5.921   4.234   5.138
 8481TIP3    H225408   6.022   4.345   5.159
 8482TIP3   OH225409   1.324   4.181   2.401
 8482TIP3    H125410   1.377   4.170   2.321
 8482TIP3    H225411   1.387   4.174   2.472
 8483TIP3   OH225412   1.908   1.031   4.852
 8483TIP3    H125413   1.927   0.937   4.851
 8483TIP3    H225414   1.859   1.044   4.933
 8484TIP3   OH225415   6.668   5.271   4.170
 8484TIP3    H125416   6.644   5.314   4.088
 8484TIP3    H225417   6.587   5.229   4.200
 8485TIP3   OH225418   1.008   4.630   1.944
 8485TIP3    H125419   1.007   4.535   1.933
 8485TIP3    H225420   0.967   4.664   1.864
 8486TIP3   OH225421   4.742   2.681   1.353
 8486TIP3    H125422   4.824   2.717   1.385
 8486TIP3    H225423   4.767   2.620   1.284
 8487TIP3   OH225424   1.898   6.637   0.599
 8487TIP3    H125425   1.906   6.727   0.568
 8487TIP3    H225426   1.913   6.643   0.694
 8488TIP3   OH225427   1.180   6.293   1.674
 8488TIP3    H125428   1.189   6.256   1.762
 8488TIP3    H225429   1.173   6.387   1.688
 8489TIP3   OH225430   2.472   1.169   1.697
 8489TIP3    H125431   2.454   1.095   1.638
 8489TIP3    H225432   2.523   1.230   1.644
 8490TIP3   OH225433   2.458   0.978   0.129
 8490TIP3    H125434   2.464   0.892   0.088
 8490TIP3    H225435   2.432   0.960   0.219
 8491TIP3   OH225436   5.814   2.942   1.889
 8491TIP3    H125437   5.840   2.854   1.917
 8491TIP3    H225438   5.807   2.992   1.971
 8492TIP3   OH225439   3.925   0.971   3.585
 8492TIP3    H125440   3.830   0.974   3.597
 8492TIP3    H225441   3.952   1.063   3.588
 8493TIP3   OH225442   6.742   2.477   0.877
 8493TIP3    H125443   6.669   2.536   0.859
 8493TIP3    H225444   6.804   2.530   0.928
 8494TIP3   OH225445   4.213   3.705   3.759
 8494TIP3    H125446   4.239   3.662   3.841
 8494TIP3    H225447   4.149   3.646   3.720
 8495TIP3   OH225448   7.152   0.600   4.950
 8495TIP3    H125449   7.107   0.553   4.880
 8495TIP3    H225450   7.244   0.595   4.927
 8496TIP3   OH225451   2.806   3.193   5.168
 8496TIP3    H125452   2.794   3.173   5.076
 8496TIP3    H225453   2.830   3.109   5.208
 8497TIP3   OH225454   5.891   1.698   2.280
 8497TIP3    H125455   5.828   1.717   2.349
 8497TIP3    H225456   5.958   1.765   2.290
 8498TIP3   OH225457   5.604   3.726   1.095
 8498TIP3    H125458   5.550   3.732   1.173
 8498TIP3    H225459   5.635   3.816   1.080
 8499TIP3   OH225460   0.996   3.427   5.817
 8499TIP3    H125461   0.964   3.421   5.727
 8499TIP3    H225462   1.020   3.338   5.841
 8500TIP3   OH225463   5.424   3.170   4.092
 8500TIP3    H125464   5.417   3.078   4.066
 8500TIP3    H225465   5.434   3.167   4.188
 8501TIP3   OH225466   1.304   3.582   4.236
 8501TIP3    H125467   1.252   3.501   4.231
 8501TIP3    H225468   1.395   3.551   4.245
 8502TIP3   OH225469   3.890   5.211   0.624
 8502TIP3    H125470   3.857   5.277   0.563
 8502TIP3    H225471   3.950   5.259   0.681
 8503TIP3   OH225472   3.147   5.940   1.926
 8503TIP3    H125473   3.116   5.929   1.836
 8503TIP3    H225474   3.084   5.999   1.967
 8504TIP3   OH225475   6.085   1.000   4.343
 8504TIP3    H125476   6.165   0.971   4.388
 8504TIP3    H225477   6.016   0.990   4.409
 8505TIP3   OH225478   7.060   0.867   5.442
 8505TIP3    H125479   7.025   0.954   5.458
 8505TIP3    H225480   7.121   0.879   5.369
 8506TIP3   OH225481   4.144   4.268   4.097
 8506TIP3    H125482   4.177   4.316   4.173
 8506TIP3    H225483   4.145   4.332   4.026
 8507TIP3   OH225484   4.086   2.107   1.147
 8507TIP3    H125485   3.997   2.116   1.113
 8507TIP3    H225486   4.098   2.182   1.205
 8508TIP3   OH225487   3.115   2.227   3.053
 8508TIP3    H125488   3.077   2.228   3.140
 8508TIP3    H225489   3.051   2.179   2.999
 8509TIP3   OH225490   4.096   3.321   0.510
 8509TIP3    H125491   4.027   3.255   0.509
 8509TIP3    H225492   4.076   3.379   0.437
 8510TIP3   OH225493   0.242   3.861   0.382
 8510TIP3    H125494   0.250   3.900   0.294
 8510TIP3    H225495   0.149   3.845   0.393
 8511TIP3   OH225496   6.249   6.738   3.061
 8511TIP3    H125497   6.334   6.694   3.064
 8511TIP3    H225498   6.264   6.824   3.101
 8512TIP3   OH225499   0.513   3.141   5.382
 8512TIP3    H125500   0.424   3.168   5.363
 8512TIP3    H225501   0.513   3.046   5.369
 8513TIP3   OH225502   1.486   5.844   5.092
 8513TIP3    H125503   1.528   5.892   5.164
 8513TIP3    H225504   1.557   5.795   5.051
 8514TIP3   OH225505   6.425   3.486   1.869
 8514TIP3    H125506   6.494   3.439   1.823
 8514TIP3    H225507   6.375   3.529   1.800
 8515TIP3   OH225508   5.710   1.036   0.896
 8515TIP3    H125509   5.755   1.120   0.889
 8515TIP3    H225510   5.781   0.972   0.901
 8516TIP3   OH225511   5.639   3.921   3.599
 8516TIP3    H125512   5.715   3.916   3.541
 8516TIP3    H225513   5.565   3.899   3.543
 8517TIP3   OH225514   6.026   6.682   1.890
 8517TIP3    H125515   6.063   6.663   1.977
 8517TIP3    H225516   6.103   6.700   1.835
 8518TIP3   OH225517   3.611   2.597   1.540
 8518TIP3    H125518   3.620   2.588   1.445
 8518TIP3    H225519   3.657   2.521   1.576
 8519TIP3   OH225520   6.109   0.610   4.493
 8519TIP3    H125521   6.041   0.623   4.559
 8519TIP3    H225522   6.188   0.591   4.543
 8520TIP3   OH225523   3.261   1.630   5.607
 8520TIP3    H125524   3.204   1.696   5.569
 8520TIP3    H225525   3.205   1.580   5.666
 8521TIP3   OH225526   7.080   5.666   2.125
 8521TIP3    H125527   7.080   5.760   2.109
 8521TIP3    H225528   7.008   5.632   2.071
 8522TIP3   OH225529   1.163   2.686   3.078
 8522TIP3    H125530   1.213   2.625   3.132
 8522TIP3    H225531   1.206   2.771   3.091
 8523TIP3   OH225532   0.585   3.026   3.040
 8523TIP3    H125533   0.554   3.106   3.083
 8523TIP3    H225534   0.599   3.052   2.949
 8524TIP3   OH225535   4.190   2.734   4.483
 8524TIP3    H125536   4.116   2.786   4.514
 8524TIP3    H225537   4.182   2.651   4.529
 8525TIP3   OH225538   1.510   1.390   4.054
 8525TIP3    H125539   1.494   1.300   4.083
 8525TIP3    H225540   1.430   1.437   4.076
 8526TIP3   OH225541   1.402   5.047   2.148
 8526TIP3    H125542   1.326   5.084   2.192
 8526TIP3    H225543   1.379   4.956   2.130
 8527TIP3   OH225544   3.935   1.102   2.213
 8527TIP3    H125545   4.023   1.071   2.237
 8527TIP3    H225546   3.897   1.133   2.295
 8528TIP3   OH225547   2.210   5.025   2.737
 8528TIP3    H125548   2.260   4.953   2.774
 8528TIP3    H225549   2.230   5.100   2.793
 8529TIP3   OH225550   0.462   6.066   3.730
 8529TIP3    H125551   0.499   6.042   3.815
 8529TIP3    H225552   0.510   6.144   3.704
 8530TIP3   OH225553   3.645   5.636   1.665
 8530TIP3    H125554   3.576   5.703   1.666
 8530TIP3    H225555   3.644   5.600   1.754
 8531TIP3   OH225556   6.574   6.497   4.841
 8531TIP3    H125557   6.529   6.518   4.923
 8531TIP3    H225558   6.629   6.422   4.863
 8532TIP3   OH225559   0.864   3.036   0.077
 8532TIP3    H125560   0.935   3.004   0.021
 8532TIP3    H225561   0.900   3.032   0.165
 8533TIP3   OH225562   5.404   3.821   5.384
 8533TIP3    H125563   5.344   3.750   5.364
 8533TIP3    H225564   5.476   3.779   5.431
 8534TIP3   OH225565   6.182   0.084   4.451
 8534TIP3    H125566   6.096   0.046   4.469
 8534TIP3    H225567   6.201   0.059   4.360
 8535TIP3   OH225568   2.073   2.937   3.052
 8535TIP3    H125569   2.117   2.878   2.990
 8535TIP3    H225570   1.984   2.947   3.017
 8536TIP3   OH225571   3.920   4.435   1.232
 8536TIP3    H125572   3.859   4.506   1.213
 8536TIP3    H225573   4.004   4.478   1.245
 8537TIP3   OH225574   0.334   3.789   3.994
 8537TIP3    H125575   0.400   3.749   4.051
 8537TIP3    H225576   0.381   3.860   3.950
 8538TIP3   OH225577   2.586   1.210   0.900
 8538TIP3    H125578   2.546   1.295   0.887
 8538TIP3    H225579   2.646   1.223   0.974
 8539TIP3   OH225580   3.181   4.409   2.858
 8539TIP3    H125581   3.166   4.404   2.952
 8539TIP3    H225582   3.106   4.363   2.819
 8540TIP3   OH225583   2.005   0.285   3.473
 8540TIP3    H125584   2.091   0.297   3.513
 8540TIP3    H225585   1.969   0.206   3.514
 8541TIP3   OH225586   3.396   1.553   5.099
 8541TIP3    H125587   3.326   1.617   5.090
 8541TIP3    H225588   3.434   1.546   5.012
 8542TIP3   OH225589   6.030   5.725   4.132
 8542TIP3    H125590   6.047   5.702   4.041
 8542TIP3    H225591   6.024   5.821   4.132
 8543TIP3   OH225592   4.131   0.076   4.072
 8543TIP3    H125593   4.092   0.150   4.118
 8543TIP3    H225594   4.190   0.116   4.008
 8544TIP3   OH225595   7.100   2.023   2.495
 8544TIP3    H125596   7.146   1.999   2.576
 8544TIP3    H225597   7.020   2.065   2.526
 8545TIP3   OH225598   4.064   2.604   3.176
 8545TIP3    H125599   4.144   2.645   3.207
 8545TIP3    H225600   4.007   2.602   3.253
 8546TIP3   OH225601   1.092   3.215   1.107
 8546TIP3    H125602   1.131   3.301   1.092
 8546TIP3    H225603   1.057   3.219   1.196
 8547TIP3   OH225604   7.045   1.301   3.848
 8547TIP3    H125605   6.964   1.252   3.861
 8547TIP3    H225606   7.040   1.330   3.757
 8548TIP3   OH225607   4.315   0.778   0.636
 8548TIP3    H125608   4.389   0.759   0.578
 8548TIP3    H225609   4.290   0.868   0.614
 8549TIP3   OH225610   2.074   4.958   1.536
 8549TIP3    H125611   2.052   5.009   1.614
 8549TIP3    H225612   2.102   5.024   1.472
 8550TIP3   OH225613   6.395   4.359   0.308
 8550TIP3    H125614   6.332   4.405   0.252
 8550TIP3    H225615   6.417   4.422   0.376
 8551TIP3   OH225616   3.167   4.326   2.197
 8551TIP3    H125617   3.141   4.357   2.284
 8551TIP3    H225618   3.239   4.265   2.213
 8552TIP3   OH225619   0.107   6.691   2.723
 8552TIP3    H125620   0.019   6.683   2.758
 8552TIP3    H225621   0.128   6.784   2.732
 8553TIP3   OH225622   0.392   5.721   2.810
 8553TIP3    H125623   0.307   5.721   2.855
 8553TIP3    H225624   0.370   5.707   2.718
 8554TIP3   OH225625   3.557   5.711   3.232
 8554TIP3    H125626   3.586   5.643   3.291
 8554TIP3    H225627   3.631   5.725   3.172
 8555TIP3   OH225628   4.889   5.573   3.422
 8555TIP3    H125629   4.824   5.503   3.417
 8555TIP3    H225630   4.860   5.627   3.496
 8556TIP3   OH225631   4.404   3.670   1.886
 8556TIP3    H125632   4.481   3.613   1.888
 8556TIP3    H225633   4.344   3.631   1.949
 8557TIP3   OH225634   5.580   4.234   5.512
 8557TIP3    H125635   5.638   4.166   5.478
 8557TIP3    H225636   5.491   4.203   5.492
 8558TIP3   OH225637   5.219   3.372   1.991
 8558TIP3    H125638   5.130   3.341   1.975
 8558TIP3    H225639   5.275   3.310   1.946
 8559TIP3   OH225640   2.472   0.899   3.693
 8559TIP3    H125641   2.480   0.823   3.751
 8559TIP3    H225642   2.379   0.903   3.672
 8560TIP3   OH225643   0.572   2.719   0.830
 8560TIP3    H125644   0.531   2.735   0.744
 8560TIP3    H225645   0.655   2.677   0.809
 8561TIP3   OH225646   3.553   5.721   3.787
 8561TIP3    H125647   3.633   5.669   3.777
 8561TIP3    H225648   3.559   5.788   3.720
 8562TIP3   OH225649   4.433   4.560   2.039
 8562TIP3    H125650   4.376   4.513   2.099
 8562TIP3    H225651   4.485   4.617   2.096
 8563TIP3   OH225652   5.456   4.919   0.173
 8563TIP3    H125653   5.439   4.980   0.245
 8563TIP3    H225654   5.510   4.850   0.212
 8564TIP3   OH225655   3.824   3.742   2.070
 8564TIP3    H125656   3.763   3.764   2.000
 8564TIP3    H225657   3.781   3.771   2.150
 8565TIP3   OH225658   3.497   5.840   3.545
 8565TIP3    H125659   3.496   5.848   3.450
 8565TIP3    H225660   3.407   5.860   3.572
 8566TIP3   OH225661   1.916   5.414   0.664
 8566TIP3    H125662   1.965   5.493   0.642
 8566TIP3    H225663   1.974   5.366   0.724
 8567TIP3   OH225664   0.459   3.432   4.804
 8567TIP3    H125665   0.469   3.394   4.892
 8567TIP3    H225666   0.488   3.523   4.814
 8568TIP3   OH225667   0.813   1.099   4.120
 8568TIP3    H125668   0.850   1.030   4.064
 8568TIP3    H225669   0.773   1.051   4.193
 8569TIP3   OH225670   4.481   2.460   4.166
 8569TIP3    H125671   4.481   2.518   4.089
 8569TIP3    H225672   4.498   2.373   4.129
 8570TIP3   OH225673   1.864   5.669   1.973
 8570TIP3    H125674   1.802   5.599   1.952
 8570TIP3    H225675   1.813   5.749   1.960
 8571TIP3   OH225676   4.949   0.757   5.761
 8571TIP3    H125677   5.008   0.827   5.787
 8571TIP3    H225678   4.980   0.729   5.675
 8572TIP3   OH225679   0.251   1.423   5.866
 8572TIP3    H125680   0.158   1.433   5.847
 8572TIP3    H225681   0.268   1.486   5.937
 8573TIP3   OH225682   4.015   5.514   4.063
 8573TIP3    H125683   4.032   5.588   4.121
 8573TIP3    H225684   3.993   5.554   3.979
 8574TIP3   OH225685   4.762   3.753   4.300
 8574TIP3    H125686   4.766   3.847   4.286
 8574TIP3    H225687   4.834   3.718   4.247
 8575TIP3   OH225688   2.629   0.830   4.686
 8575TIP3    H125689   2.675   0.782   4.618
 8575TIP3    H225690   2.541   0.793   4.687
 8576TIP3   OH225691   0.746   2.143   3.694
 8576TIP3    H125692   0.659   2.181   3.681
 8576TIP3    H225693   0.783   2.138   3.606
 8577TIP3   OH225694   4.908   1.595   1.741
 8577TIP3    H125695   5.000   1.588   1.765
 8577TIP3    H225696   4.889   1.689   1.747
 8578TIP3   OH225697   6.077   0.261   0.353
 8578TIP3    H125698   6.083   0.224   0.265
 8578TIP3    H225699   6.007   0.326   0.347
 8579TIP3   OH225700   4.125   6.800   5.317
 8579TIP3    H125701   4.138   6.706   5.327
 8579TIP3    H225702   4.212   6.839   5.329
 8580TIP3   OH225703   0.461   3.757   5.718
 8580TIP3    H125704   0.549   3.721   5.729
 8580TIP3    H225705   0.452   3.821   5.789
 8581TIP3   OH225706   2.147   6.430   3.060
 8581TIP3    H125707   2.056   6.450   3.039
 8581TIP3    H225708   2.182   6.390   2.980
 8582TIP3   OH225709   3.348   3.738   4.052
 8582TIP3    H125710   3.384   3.826   4.064
 8582TIP3    H225711   3.326   3.733   3.959
 8583TIP3   OH225712   1.967   5.621   0.180
 8583TIP3    H125713   1.878   5.656   0.170
 8583TIP3    H225714   2.018   5.693   0.216
 8584TIP3   OH225715   0.637   5.502   2.568
 8584TIP3    H125716   0.603   5.488   2.656
 8584TIP3    H225717   0.674   5.418   2.542
 8585TIP3   OH225718   6.303   6.466   2.503
 8585TIP3    H125719   6.345   6.552   2.506
 8585TIP3    H225720   6.220   6.481   2.457
 8586TIP3   OH225721   5.629   4.100   2.125
 8586TIP3    H125722   5.607   4.100   2.218
 8586TIP3    H225723   5.547   4.080   2.080
 8587TIP3   OH225724   3.468   2.367   2.112
 8587TIP3    H125725   3.503   2.383   2.024
 8587TIP3    H225726   3.398   2.431   2.122
 8588TIP3   OH225727   1.879   5.509   2.486
 8588TIP3    H125728   1.902   5.596   2.520
 8588TIP3    H225729   1.868   5.456   2.565
 8589TIP3   OH225730   6.934   6.101   5.166
 8589TIP3    H125731   6.990   6.081   5.091
 8589TIP3    H225732   6.971   6.050   5.238
 8590TIP3   OH225733   0.988   6.206   3.767
 8590TIP3    H125734   0.972   6.300   3.775
 8590TIP3    H225735   1.081   6.198   3.745
 8591TIP3   OH225736   0.173   0.407   4.328
 8591TIP3    H125737   0.149   0.326   4.284
 8591TIP3    H225738   0.219   0.459   4.262
 8592TIP3   OH225739   4.643   3.966   2.142
 8592TIP3    H125740   4.695   4.046   2.156
 8592TIP3    H225741   4.708   3.898   2.124
 8593TIP3   OH225742   0.313   5.310   3.208
 8593TIP3    H125743   0.249   5.265   3.262
 8593TIP3    H225744   0.312   5.263   3.125
 8594TIP3   OH225745   2.679   1.774   1.243
 8594TIP3    H125746   2.595   1.819   1.252
 8594TIP3    H225747   2.656   1.684   1.221
 8595TIP3   OH225748   3.844   4.769   2.834
 8595TIP3    H125749   3.938   4.770   2.856
 8595TIP3    H225750   3.837   4.707   2.762
 8596TIP3   OH225751   2.725   0.826   5.374
 8596TIP3    H125752   2.819   0.809   5.380
 8596TIP3    H225753   2.684   0.740   5.373
 8597TIP3   OH225754   1.149   5.366   1.012
 8597TIP3    H125755   1.239   5.380   0.982
 8597TIP3    H225756   1.095   5.392   0.937
 8598TIP3   OH225757   5.892   4.402   1.975
 8598TIP3    H125758   5.982   4.424   1.949
 8598TIP3    H225759   5.900   4.372   2.065
 8599TIP3   OH225760   4.729   4.695   3.451
 8599TIP3    H125761   4.775   4.687   3.534
 8599TIP3    H225762   4.688   4.609   3.439
 8600TIP3   OH225763   6.833   4.336   0.591
 8600TIP3    H125764   6.757   4.394   0.579
 8600TIP3    H225765   6.873   4.331   0.504
 8601TIP3   OH225766   1.280   0.351   1.313
 8601TIP3    H125767   1.331   0.288   1.263
 8601TIP3    H225768   1.332   0.366   1.392
 8602TIP3   OH225769   6.577   5.442   1.019
 8602TIP3    H125770   6.584   5.348   1.001
 8602TIP3    H225771   6.495   5.451   1.068
 8603TIP3   OH225772   2.201   4.924   1.827
 8603TIP3    H125773   2.149   4.905   1.905
 8603TIP3    H225774   2.186   4.849   1.770
 8604TIP3   OH225775   1.764   1.817   4.991
 8604TIP3    H125776   1.822   1.880   5.034
 8604TIP3    H225777   1.807   1.732   5.003
 8605TIP3   OH225778   7.037   0.199   1.672
 8605TIP3    H125779   6.969   0.142   1.707
 8605TIP3    H225780   7.076   0.149   1.601
 8606TIP3   OH225781   4.529   0.168   5.897
 8606TIP3    H125782   4.581   0.087   5.899
 8606TIP3    H225783   4.586   0.233   5.856
 8607TIP3   OH225784   0.702   3.794   1.098
 8607TIP3    H125785   0.721   3.706   1.067
 8607TIP3    H225786   0.610   3.808   1.077
 8608TIP3   OH225787   3.724   3.874   2.299
 8608TIP3    H125788   3.694   3.964   2.292
 8608TIP3    H225789   3.789   3.876   2.370
 8609TIP3   OH225790   0.473   0.811   3.704
 8609TIP3    H125791   0.564   0.831   3.684
 8609TIP3    H225792   0.427   0.824   3.621
 8610TIP3   OH225793   0.483   1.276   5.353
 8610TIP3    H125794   0.475   1.283   5.448
 8610TIP3    H225795   0.576   1.260   5.338
 8611TIP3   OH225796   4.867   1.787   3.301
 8611TIP3    H125797   4.831   1.702   3.325
 8611TIP3    H225798   4.941   1.799   3.361
 8612TIP3   OH225799   2.898   1.416   1.735
 8612TIP3    H125800   2.812   1.434   1.698
 8612TIP3    H225801   2.960   1.448   1.670
 8613TIP3   OH225802   4.351   5.004   0.632
 8613TIP3    H125803   4.371   5.091   0.668
 8613TIP3    H225804   4.261   5.011   0.602
 8614TIP3   OH225805   6.073   1.885   3.008
 8614TIP3    H125806   6.088   1.949   2.938
 8614TIP3    H225807   5.988   1.846   2.988
 8615TIP3   OH225808   4.381   0.118   0.544
 8615TIP3    H125809   4.291   0.128   0.575
 8615TIP3    H225810   4.394   0.194   0.487
 8616TIP3   OH225811   1.437   0.444   0.371
 8616TIP3    H125812   1.395   0.373   0.420
 8616TIP3    H225813   1.525   0.451   0.409
 8617TIP3   OH225814   6.562   1.149   4.789
 8617TIP3    H125815   6.489   1.210   4.793
 8617TIP3    H225816   6.529   1.074   4.741
 8618TIP3   OH225817   3.102   6.122   1.362
 8618TIP3    H125818   3.014   6.134   1.397
 8618TIP3    H225819   3.090   6.116   1.267
 8619TIP3   OH225820   4.780   0.020   2.051
 8619TIP3    H125821   4.771  -0.069   2.018
 8619TIP3    H225822   4.721   0.073   1.996
 8620TIP3   OH225823   3.816   2.066   4.683
 8620TIP3    H125824   3.864   2.036   4.761
 8620TIP3    H225825   3.747   2.000   4.671
 8621TIP3   OH225826   3.397   3.716   2.822
 8621TIP3    H125827   3.392   3.629   2.863
 8621TIP3    H225828   3.486   3.746   2.838
 8622TIP3   OH225829   6.146   2.786   4.417
 8622TIP3    H125830   6.177   2.869   4.380
 8622TIP3    H225831   6.163   2.721   4.349
 8623TIP3   OH225832   3.586   6.674   4.210
 8623TIP3    H125833   3.552   6.762   4.227
 8623TIP3    H225834   3.670   6.689   4.168
 8624TIP3   OH225835   5.472   6.137   3.045
 8624TIP3    H125836   5.481   6.232   3.037
 8624TIP3    H225837   5.421   6.112   2.968
 8625TIP3   OH225838   1.513   2.687   5.182
 8625TIP3    H125839   1.600   2.714   5.209
 8625TIP3    H225840   1.500   2.602   5.223
 8626TIP3   OH225841   1.068   3.526   0.772
 8626TIP3    H125842   1.146   3.510   0.719
 8626TIP3    H225843   1.099   3.519   0.862
 8627TIP3   OH225844   0.252   5.496   4.538
 8627TIP3    H125845   0.347   5.491   4.544
 8627TIP3    H225846   0.234   5.589   4.522
 8628TIP3   OH225847   3.741   5.745   2.241
 8628TIP3    H125848   3.648   5.748   2.264
 8628TIP3    H225849   3.774   5.667   2.285
 8629TIP3   OH225850   2.166   3.713   2.483
 8629TIP3    H125851   2.090   3.656   2.478
 8629TIP3    H225852   2.238   3.661   2.446
 8630TIP3   OH225853   6.325   4.192   5.130
 8630TIP3    H125854   6.337   4.270   5.075
 8630TIP3    H225855   6.330   4.225   5.219
 8631TIP3   OH225856   5.873   5.286   0.166
 8631TIP3    H125857   5.817   5.285   0.243
 8631TIP3    H225858   5.827   5.233   0.101
 8632TIP3   OH225859   2.823   5.272   3.522
 8632TIP3    H125860   2.917   5.262   3.506
 8632TIP3    H225861   2.817   5.324   3.602
 8633TIP3   OH225862   2.449   3.324   4.300
 8633TIP3    H125863   2.465   3.235   4.268
 8633TIP3    H225864   2.438   3.376   4.221
 8634TIP3   OH225865   3.009   5.190   5.122
 8634TIP3    H125866   3.001   5.108   5.170
 8634TIP3    H225867   3.038   5.164   5.034
 8635TIP3   OH225868   6.329   5.757   3.433
 8635TIP3    H125869   6.336   5.742   3.527
 8635TIP3    H225870   6.248   5.807   3.423
 8636TIP3   OH225871   0.653   2.646   3.875
 8636TIP3    H125872   0.669   2.735   3.845
 8636TIP3    H225873   0.637   2.654   3.969
 8637TIP3   OH225874   3.108   3.210   1.016
 8637TIP3    H125875   3.152   3.192   0.932
 8637TIP3    H225876   3.020   3.174   1.005
 8638TIP3   OH225877   6.339   1.563   3.102
 8638TIP3    H125878   6.334   1.508   3.180
 8638TIP3    H225879   6.338   1.652   3.136
 8639TIP3   OH225880   5.935   6.000   2.464
 8639TIP3    H125881   5.943   6.095   2.460
 8639TIP3    H225882   5.896   5.983   2.549
 8640TIP3   OH225883   6.927   3.793   4.531
 8640TIP3    H125884   6.844   3.754   4.557
 8640TIP3    H225885   6.989   3.720   4.529
 8641TIP3   OH225886   2.162   5.285  -0.010
 8641TIP3    H125887   2.132   5.318   0.074
 8641TIP3    H225888   2.103   5.212  -0.030
 8642TIP3   OH225889   2.836   0.795   1.530
 8642TIP3    H125890   2.811   0.835   1.614
 8642TIP3    H225891   2.793   0.849   1.464
 8643TIP3   OH225892   4.304   1.961   5.490
 8643TIP3    H125893   4.284   1.990   5.401
 8643TIP3    H225894   4.358   1.882   5.477
 8644TIP3   OH225895   2.846   2.928   4.434
 8644TIP3    H125896   2.757   2.915   4.401
 8644TIP3    H225897   2.860   3.023   4.427
 8645TIP3   OH225898   5.499   0.749   2.976
 8645TIP3    H125899   5.435   0.795   3.031
 8645TIP3    H225900   5.535   0.818   2.920
 8646TIP3   OH225901   6.162   4.761   0.678
 8646TIP3    H125902   6.179   4.852   0.701
 8646TIP3    H225903   6.069   4.748   0.698
 8647TIP3   OH225904   4.835   3.283   1.475
 8647TIP3    H125905   4.780   3.355   1.443
 8647TIP3    H225906   4.901   3.327   1.530
 8648TIP3   OH225907   1.122   2.313   5.791
 8648TIP3    H125908   1.123   2.273   5.878
 8648TIP3    H225909   1.161   2.247   5.734
 8649TIP3   OH225910   0.356   3.735   1.298
 8649TIP3    H125911   0.263   3.722   1.278
 8649TIP3    H225912   0.397   3.650   1.282
 8650TIP3   OH225913   6.774   2.623   5.502
 8650TIP3    H125914   6.817   2.628   5.417
 8650TIP3    H225915   6.721   2.544   5.499
 8651TIP3   OH225916   1.450   1.021   0.529
 8651TIP3    H125917   1.516   1.030   0.461
 8651TIP3    H225918   1.474   0.940   0.575
 8652TIP3   OH225919   6.021   1.953   2.084
 8652TIP3    H125920   6.080   2.016   2.126
 8652TIP3    H225921   5.937   1.997   2.081
 8653TIP3   OH225922   3.653   6.014   4.584
 8653TIP3    H125923   3.733   6.005   4.532
 8653TIP3    H225924   3.582   6.012   4.519
 8654TIP3   OH225925   0.203   3.018   3.992
 8654TIP3    H125926   0.258   3.011   4.070
 8654TIP3    H225927   0.114   3.022   4.026
 8655TIP3   OH225928   1.813   3.070   4.851
 8655TIP3    H125929   1.812   3.122   4.931
 8655TIP3    H225930   1.824   2.979   4.881
 8656TIP3   OH225931   1.370   2.167   5.394
 8656TIP3    H125932   1.423   2.239   5.429
 8656TIP3    H225933   1.336   2.201   5.311
 8657TIP3   OH225934   5.850   5.474   5.119
 8657TIP3    H125935   5.871   5.536   5.049
 8657TIP3    H225936   5.909   5.497   5.190
 8658TIP3   OH225937   3.147   2.665   0.306
 8658TIP3    H125938   3.104   2.606   0.368
 8658TIP3    H225939   3.082   2.733   0.289
 8659TIP3   OH225940   4.028   5.920   2.296
 8659TIP3    H125941   4.049   5.861   2.224
 8659TIP3    H225942   4.044   6.007   2.261
 8660TIP3   OH225943   2.338   4.705   3.230
 8660TIP3    H125944   2.292   4.644   3.288
 8660TIP3    H225945   2.420   4.723   3.275
 8661TIP3   OH225946   5.648   1.376   2.735
 8661TIP3    H125947   5.739   1.350   2.740
 8661TIP3    H225948   5.635   1.433   2.812
 8662TIP3   OH225949   6.488   4.427   3.357
 8662TIP3    H125950   6.514   4.518   3.364
 8662TIP3    H225951   6.539   4.393   3.283
 8663TIP3   OH225952   4.563   0.822   2.130
 8663TIP3    H125953   4.488   0.796   2.076
 8663TIP3    H225954   4.559   0.765   2.207
 8664TIP3   OH225955   6.797   1.177   0.292
 8664TIP3    H125956   6.883   1.169   0.334
 8664TIP3    H225957   6.767   1.087   0.281
 8665TIP3   OH225958   5.268   1.037   0.287
 8665TIP3    H125959   5.186   1.086   0.289
 8665TIP3    H225960   5.276   1.001   0.375
 8666TIP3   OH225961   5.453   2.234   0.222
 8666TIP3    H125962   5.398   2.226   0.144
 8666TIP3    H225963   5.391   2.231   0.295
 8667TIP3   OH225964   4.662   1.927   3.438
 8667TIP3    H125965   4.649   1.996   3.504
 8667TIP3    H225966   4.749   1.944   3.403
 8668TIP3   OH225967   5.742   1.538   1.137
 8668TIP3    H125968   5.710   1.453   1.170
 8668TIP3    H225969   5.775   1.519   1.050
 8669TIP3   OH225970   6.028   5.022   4.995
 8669TIP3    H125971   6.034   4.927   4.994
 8669TIP3    H225972   5.950   5.042   4.944
 8670TIP3   OH225973   0.813   5.962   4.585
 8670TIP3    H125974   0.869   5.954   4.661
 8670TIP3    H225975   0.812   5.875   4.545
 8671TIP3   OH225976   6.868   3.224   2.713
 8671TIP3    H125977   6.799   3.253   2.653
 8671TIP3    H225978   6.926   3.300   2.721
 8672TIP3   OH225979   4.976   5.051   1.220
 8672TIP3    H125980   5.047   5.017   1.166
 8672TIP3    H225981   4.998   5.024   1.309
 8673TIP3   OH225982   6.419   6.005   3.373
 8673TIP3    H125983   6.439   6.032   3.463
 8673TIP3    H225984   6.422   5.909   3.376
 8674TIP3   OH225985   4.092   2.037   1.481
 8674TIP3    H125986   4.016   2.094   1.471
 8674TIP3    H225987   4.166   2.097   1.492
 8675TIP3   OH225988   0.202   0.535   4.084
 8675TIP3    H125989   0.121   0.504   4.045
 8675TIP3    H225990   0.218   0.620   4.043
 8676TIP3   OH225991   7.134   0.201   0.985
 8676TIP3    H125992   7.125   0.180   0.892
 8676TIP3    H225993   7.228   0.206   0.999
 8677TIP3   OH225994   4.594   5.998   0.076
 8677TIP3    H125995   4.614   6.060   0.146
 8677TIP3    H225996   4.613   5.912   0.114
 8678TIP3   OH225997   5.130   0.574   2.992
 8678TIP3    H125998   5.051   0.619   2.961
 8678TIP3    H225999   5.169   0.635   3.055
 8679TIP3   OH226000   4.909   0.499   5.067
 8679TIP3    H126001   4.982   0.445   5.037
 8679TIP3    H226002   4.877   0.455   5.145
 8680TIP3   OH226003   4.997   2.435   0.824
 8680TIP3    H126004   5.005   2.392   0.738
 8680TIP3    H226005   4.973   2.364   0.884
 8681TIP3   OH226006   5.647   4.017   0.972
 8681TIP3    H126007   5.578   4.012   0.905
 8681TIP3    H226008   5.682   4.106   0.964
 8682TIP3   OH226009   0.144   4.099   2.221
 8682TIP3    H126010   0.202   4.102   2.144
 8682TIP3    H226011   0.143   4.189   2.254
 8683TIP3   OH226012   5.860   0.781   0.176
 8683TIP3    H126013   5.830   0.747   0.092
 8683TIP3    H226014   5.949   0.747   0.186
 8684TIP3   OH226015   3.754   4.099   1.915
 8684TIP3    H126016   3.729   4.007   1.901
 8684TIP3    H226017   3.824   4.094   1.980
 8685TIP3   OH226018   6.580   4.751   2.371
 8685TIP3    H126019   6.651   4.704   2.327
 8685TIP3    H226020   6.584   4.721   2.462
 8686TIP3   OH226021   1.392   6.526   2.672
 8686TIP3    H126022   1.354   6.438   2.665
 8686TIP3    H226023   1.487   6.511   2.678
 8687TIP3   OH226024   3.645   3.199   0.774
 8687TIP3    H126025   3.701   3.158   0.708
 8687TIP3    H226026   3.704   3.215   0.848
 8688TIP3   OH226027   3.435   0.088   3.877
 8688TIP3    H126028   3.512   0.125   3.919
 8688TIP3    H226029   3.468   0.015   3.825
 8689TIP3   OH226030   6.535   2.514   4.877
 8689TIP3    H126031   6.497   2.552   4.798
 8689TIP3    H226032   6.468   2.454   4.909
 8690TIP3   OH226033   0.017   5.767   4.551
 8690TIP3    H126034   0.028   5.793   4.460
 8690TIP3    H226035  -0.030   5.840   4.592
 8691TIP3   OH226036   2.226   1.526   2.449
 8691TIP3    H126037   2.266   1.453   2.498
 8691TIP3    H226038   2.203   1.488   2.365
 8692TIP3   OH226039   6.577   2.672   0.744
 8692TIP3    H126040   6.597   2.765   0.757
 8692TIP3    H226041   6.575   2.661   0.649
 8693TIP3   OH226042   1.450   6.542   1.480
 8693TIP3    H126043   1.531   6.586   1.506
 8693TIP3    H226044   1.382   6.608   1.493
 8694TIP3   OH226045   2.998   1.563   0.619
 8694TIP3    H126046   3.069   1.499   0.619
 8694TIP3    H226047   2.940   1.535   0.548
 8695TIP3   OH226048   5.806   2.106   1.011
 8695TIP3    H126049   5.792   2.083   0.919
 8695TIP3    H226050   5.866   2.180   1.008
 8696TIP3   OH226051   6.022   0.142   0.079
 8696TIP3    H126052   5.992   0.123  -0.010
 8696TIP3    H226053   5.954   0.198   0.116
 8697TIP3   OH226054   4.550   5.869   4.956
 8697TIP3    H126055   4.593   5.784   4.948
 8697TIP3    H226056   4.622   5.932   4.961
 8698TIP3   OH226057   0.930   2.804   2.998
 8698TIP3    H126058   0.926   2.805   2.903
 8698TIP3    H226059   1.016   2.767   3.018
 8699TIP3   OH226060   5.858   4.131   3.232
 8699TIP3    H126061   5.856   4.159   3.324
 8699TIP3    H226062   5.854   4.035   3.236
 8700TIP3   OH226063   3.361   5.024   1.560
 8700TIP3    H126064   3.339   4.982   1.643
 8700TIP3    H226065   3.323   4.968   1.493
 8701TIP3   OH226066   2.175   6.494   5.696
 8701TIP3    H126067   2.241   6.552   5.657
 8701TIP3    H226068   2.116   6.474   5.623
 8702TIP3   OH226069   5.459   6.087   0.233
 8702TIP3    H126070   5.409   6.130   0.164
 8702TIP3    H226071   5.437   6.135   0.313
 8703TIP3   OH226072   2.908   5.260   1.118
 8703TIP3    H126073   2.900   5.187   1.180
 8703TIP3    H226074   2.906   5.219   1.032
 8704TIP3   OH226075   4.750   5.378   1.537
 8704TIP3    H126076   4.778   5.401   1.626
 8704TIP3    H226077   4.682   5.442   1.516
 8705TIP3   OH226078   2.062   2.966   2.598
 8705TIP3    H126079   2.001   3.040   2.605
 8705TIP3    H226080   2.148   3.004   2.617
 8706TIP3   OH226081   0.866   3.979   0.290
 8706TIP3    H126082   0.845   4.043   0.358
 8706TIP3    H226083   0.789   3.922   0.287
 8707TIP3   OH226084   6.897   0.833   1.464
 8707TIP3    H126085   6.896   0.823   1.559
 8707TIP3    H226086   6.969   0.777   1.435
 8708TIP3   OH226087   6.161   4.569   1.334
 8708TIP3    H126088   6.185   4.595   1.245
 8708TIP3    H226089   6.075   4.607   1.348
 8709TIP3   OH226090   3.328   4.843   3.661
 8709TIP3    H126091   3.396   4.777   3.649
 8709TIP3    H226092   3.368   4.910   3.716
 8710TIP3   OH226093   5.773   0.247   2.791
 8710TIP3    H126094   5.767   0.314   2.859
 8710TIP3    H226095   5.818   0.291   2.719
 8711TIP3   OH226096   6.813   4.761   4.692
 8711TIP3    H126097   6.870   4.690   4.720
 8711TIP3    H226098   6.780   4.733   4.607
 8712TIP3   OH226099   2.809   3.780   0.952
 8712TIP3    H126100   2.870   3.730   0.898
 8712TIP3    H226101   2.732   3.793   0.896
 8713TIP3   OH226102   5.840   3.731   5.489
 8713TIP3    H126103   5.909   3.791   5.459
 8713TIP3    H226104   5.798   3.779   5.560
 8714TIP3   OH226105   0.485   3.577   0.882
 8714TIP3    H126106   0.480   3.545   0.972
 8714TIP3    H226107   0.398   3.614   0.865
 8715TIP3   OH226108   6.155   4.496   5.846
 8715TIP3    H126109   6.108   4.417   5.820
 8715TIP3    H226110   6.115   4.566   5.795
 8716TIP3   OH226111   3.898   2.535   4.785
 8716TIP3    H126112   3.867   2.453   4.823
 8716TIP3    H226113   3.847   2.545   4.704
 8717TIP3   OH226114   2.236   0.586   2.543
 8717TIP3    H126115   2.165   0.589   2.607
 8717TIP3    H226116   2.212   0.515   2.484
 8718TIP3   OH226117   4.201   0.491   1.615
 8718TIP3    H126118   4.232   0.581   1.627
 8718TIP3    H226119   4.187   0.484   1.521
 8719TIP3   OH226120   4.826   1.841   2.692
 8719TIP3    H126121   4.880   1.897   2.748
 8719TIP3    H226122   4.745   1.891   2.681
 8720TIP3   OH226123   4.812   0.698   2.185
 8720TIP3    H126124   4.900   0.701   2.224
 8720TIP3    H226125   4.824   0.730   2.096
 8721TIP3   OH226126   6.162   6.698   0.087
 8721TIP3    H126127   6.067   6.713   0.092
 8721TIP3    H226128   6.175   6.614   0.130
 8722TIP3   OH226129   4.855   1.138   3.302
 8722TIP3    H126130   4.774   1.177   3.269
 8722TIP3    H226131   4.922   1.164   3.238
 8723TIP3   OH226132   6.122   5.784   2.675
 8723TIP3    H126133   6.176   5.857   2.644
 8723TIP3    H226134   6.103   5.733   2.596
 8724TIP3   OH226135   2.289   2.019   3.584
 8724TIP3    H126136   2.306   2.089   3.647
 8724TIP3    H226137   2.300   1.938   3.633
 8725TIP3   OH226138   7.111   0.822   4.751
 8725TIP3    H126139   7.130   0.788   4.838
 8725TIP3    H226140   7.034   0.878   4.763
 8726TIP3   OH226141   3.069   0.755   5.813
 8726TIP3    H126142   3.124   0.724   5.741
 8726TIP3    H226143   3.094   0.846   5.824
 8727TIP3   OH226144   4.512   0.350   0.803
 8727TIP3    H126145   4.577   0.397   0.750
 8727TIP3    H226146   4.436   0.409   0.805
 8728TIP3   OH226147   6.857   6.360   3.882
 8728TIP3    H126148   6.869   6.265   3.878
 8728TIP3    H226149   6.904   6.393   3.805
 8729TIP3   OH226150   0.454   3.911   5.027
 8729TIP3    H126151   0.523   3.928   5.091
 8729TIP3    H226152   0.463   3.981   4.962
 8730TIP3   OH226153   4.301   3.042   4.742
 8730TIP3    H126154   4.386   3.044   4.786
 8730TIP3    H226155   4.251   2.975   4.788
 8731TIP3   OH226156   1.027   2.569   3.682
 8731TIP3    H126157   0.945   2.527   3.706
 8731TIP3    H226158   1.081   2.497   3.649
 8732TIP3   OH226159   2.943   5.375   3.277
 8732TIP3    H126160   3.039   5.374   3.273
 8732TIP3    H226161   2.919   5.286   3.300
 8733TIP3   OH226162   4.085   3.739   0.000
 8733TIP3    H126163   4.155   3.804   0.001
 8733TIP3    H226164   4.130   3.655   0.009
 8734TIP3   OH226165   4.454   0.210   2.070
 8734TIP3    H126166   4.362   0.221   2.091
 8734TIP3    H226167   4.475   0.121   2.099
 8735TIP3   OH226168   0.219   1.753   3.615
 8735TIP3    H126169   0.217   1.849   3.611
 8735TIP3    H226170   0.181   1.725   3.532
 8736TIP3   OH226171   3.776   2.036   5.819
 8736TIP3    H126172   3.812   1.961   5.867
 8736TIP3    H226173   3.808   2.025   5.730
 8737TIP3   OH226174   1.236   5.583   3.780
 8737TIP3    H126175   1.143   5.564   3.769
 8737TIP3    H226176   1.239   5.648   3.851
 8738TIP3   OH226177   4.949   3.768   3.491
 8738TIP3    H126178   5.019   3.807   3.439
 8738TIP3    H226179   4.984   3.766   3.580
 8739TIP3   OH226180   2.649   3.148   3.178
 8739TIP3    H126181   2.593   3.111   3.246
 8739TIP3    H226182   2.696   3.073   3.141
 8740TIP3   OH226183   4.595   0.935   1.262
 8740TIP3    H126184   4.661   0.997   1.294
 8740TIP3    H226185   4.515   0.960   1.307
 8741TIP3   OH226186   4.991   3.106   2.264
 8741TIP3    H126187   4.982   3.052   2.186
 8741TIP3    H226188   5.058   3.061   2.316
 8742TIP3   OH226189   6.323   3.693   2.816
 8742TIP3    H126190   6.384   3.701   2.889
 8742TIP3    H226191   6.256   3.633   2.848
 8743TIP3   OH226192   5.629   3.362   3.362
 8743TIP3    H126193   5.574   3.286   3.382
 8743TIP3    H226194   5.628   3.368   3.267
 8744TIP3   OH226195   2.676   3.163   4.925
 8744TIP3    H126196   2.698   3.100   4.857
 8744TIP3    H226197   2.581   3.166   4.925
 8745TIP3   OH226198   4.858   4.558   0.388
 8745TIP3    H126199   4.824   4.530   0.473
 8745TIP3    H226200   4.859   4.653   0.392
 8746TIP3   OH226201   0.223   4.556   1.764
 8746TIP3    H126202   0.219   4.642   1.806
 8746TIP3    H226203   0.248   4.575   1.674
 8747TIP3   OH226204   5.966   1.417   3.140
 8747TIP3    H126205   5.971   1.456   3.228
 8747TIP3    H226206   6.029   1.465   3.088
 8748TIP3   OH226207   2.614   0.859   0.685
 8748TIP3    H126208   2.653   0.817   0.762
 8748TIP3    H226209   2.647   0.949   0.689
 8749TIP3   OH226210   5.845   1.869   3.798
 8749TIP3    H126211   5.927   1.878   3.847
 8749TIP3    H226212   5.862   1.800   3.735
 8750TIP3   OH226213   4.461   1.611   2.046
 8750TIP3    H126214   4.457   1.515   2.048
 8750TIP3    H226215   4.541   1.633   2.093
 8751TIP3   OH226216   1.784   0.151   1.239
 8751TIP3    H126217   1.730   0.138   1.317
 8751TIP3    H226218   1.744   0.096   1.172
 8752TIP3   OH226219   2.757   6.569   0.646
 8752TIP3    H126220   2.662   6.571   0.658
 8752TIP3    H226221   2.789   6.646   0.694
 8753TIP3   OH226222   1.582   5.936   1.322
 8753TIP3    H126223   1.518   5.978   1.380
 8753TIP3    H226224   1.659   5.923   1.378
 8754TIP3   OH226225   2.146   1.152   4.784
 8754TIP3    H126226   2.067   1.104   4.809
 8754TIP3    H226227   2.210   1.129   4.852
 8755TIP3   OH226228   4.246   1.556   1.033
 8755TIP3    H126229   4.336   1.564   1.002
 8755TIP3    H226230   4.229   1.637   1.081
 8756TIP3   OH226231   4.118   2.037   2.914
 8756TIP3    H126232   4.042   1.982   2.899
 8756TIP3    H226233   4.129   2.086   2.832
 8757TIP3   OH226234   4.995   6.209   1.644
 8757TIP3    H126235   5.067   6.163   1.602
 8757TIP3    H226236   4.918   6.153   1.628
 8758TIP3   OH226237   3.622   5.330   4.355
 8758TIP3    H126238   3.691   5.263   4.358
 8758TIP3    H226239   3.648   5.387   4.283
 8759TIP3   OH226240   4.145   2.443   1.655
 8759TIP3    H126241   4.235   2.440   1.621
 8759TIP3    H226242   4.138   2.530   1.694
 8760TIP3   OH226243   6.886   1.105   4.177
 8760TIP3    H126244   6.906   1.063   4.261
 8760TIP3    H226245   6.908   1.038   4.112
 8761TIP3   OH226246   1.811   4.931   4.719
 8761TIP3    H126247   1.828   4.965   4.807
 8761TIP3    H226248   1.719   4.951   4.703
 8762TIP3   OH226249   6.200   3.370   0.911
 8762TIP3    H126250   6.288   3.359   0.875
 8762TIP3    H226251   6.159   3.284   0.901
 8763TIP3   OH226252   3.317   0.484   4.785
 8763TIP3    H126253   3.228   0.469   4.818
 8763TIP3    H226254   3.325   0.424   4.711
 8764TIP3   OH226255   1.090   2.928   4.427
 8764TIP3    H126256   0.996   2.917   4.433
 8764TIP3    H226257   1.115   2.886   4.344
 8765TIP3   OH226258   0.427   2.422   5.340
 8765TIP3    H126259   0.393   2.511   5.340
 8765TIP3    H226260   0.350   2.367   5.352
 8766TIP3   OH226261   3.801   1.302   5.552
 8766TIP3    H126262   3.796   1.206   5.551
 8766TIP3    H226263   3.713   1.331   5.575
 8767TIP3   OH226264   3.109   6.369   1.889
 8767TIP3    H126265   3.107   6.451   1.840
 8767TIP3    H226266   3.081   6.302   1.827
 8768TIP3   OH226267   0.992   3.242   2.363
 8768TIP3    H126268   1.061   3.185   2.396
 8768TIP3    H226269   1.023   3.269   2.276
 8769TIP3   OH226270   1.707   1.586   0.811
 8769TIP3    H126271   1.696   1.677   0.783
 8769TIP3    H226272   1.749   1.543   0.736
 8770TIP3   OH226273   6.295   1.404   4.147
 8770TIP3    H126274   6.368   1.343   4.158
 8770TIP3    H226275   6.260   1.385   4.060
 8771TIP3   OH226276   3.847   4.706   5.041
 8771TIP3    H126277   3.898   4.626   5.055
 8771TIP3    H226278   3.851   4.752   5.125
 8772TIP3   OH226279   0.255   5.720   2.547
 8772TIP3    H126280   0.299   5.697   2.465
 8772TIP3    H226281   0.237   5.814   2.538
 8773TIP3   OH226282   6.070   6.498   5.113
 8773TIP3    H126283   6.130   6.438   5.158
 8773TIP3    H226284   6.000   6.514   5.176
 8774TIP3   OH226285   2.990   4.227   3.647
 8774TIP3    H126286   2.977   4.222   3.552
 8774TIP3    H226287   3.057   4.160   3.665
 8775TIP3   OH226288   5.825   1.880   1.163
 8775TIP3    H126289   5.826   1.811   1.097
 8775TIP3    H226290   5.826   1.961   1.112
 8776TIP3   OH226291   4.724   2.759   1.937
 8776TIP3    H126292   4.668   2.832   1.909
 8776TIP3    H226293   4.686   2.731   2.020
 8777TIP3   OH226294   0.511   4.484   2.570
 8777TIP3    H126295   0.533   4.408   2.516
 8777TIP3    H226296   0.539   4.559   2.517
 8778TIP3   OH226297   2.507   4.174   2.996
 8778TIP3    H126298   2.542   4.203   2.912
 8778TIP3    H226299   2.499   4.254   3.047
 8779TIP3   OH226300   5.761   2.468   3.212
 8779TIP3    H126301   5.851   2.452   3.240
 8779TIP3    H226302   5.768   2.498   3.122
 8780TIP3   OH226303   1.622   4.427   4.795
 8780TIP3    H126304   1.669   4.500   4.836
 8780TIP3    H226305   1.687   4.389   4.735
 8781TIP3   OH226306   1.273   4.695   0.953
 8781TIP3    H126307   1.346   4.754   0.974
 8781TIP3    H226308   1.204   4.720   1.015
 8782TIP3   OH226309   3.992   1.225   4.029
 8782TIP3    H126310   4.009   1.266   4.113
 8782TIP3    H226311   4.079   1.200   3.996
 8783TIP3   OH226312   6.756   5.573   5.319
 8783TIP3    H126313   6.816   5.545   5.250
 8783TIP3    H226314   6.812   5.592   5.394
 8784TIP3   OH226315   2.443   6.718   0.531
 8784TIP3    H126316   2.354   6.703   0.499
 8784TIP3    H226317   2.472   6.632   0.562
 8785TIP3   OH226318   7.083   5.670   2.409
 8785TIP3    H126319   7.034   5.662   2.328
 8785TIP3    H226320   7.173   5.647   2.386
 8786TIP3   OH226321   4.645   3.722   1.130
 8786TIP3    H126322   4.570   3.722   1.070
 8786TIP3    H226323   4.695   3.644   1.106
 8787TIP3   OH226324   3.251   4.839   1.376
 8787TIP3    H126325   3.289   4.807   1.294
 8787TIP3    H226326   3.190   4.770   1.403
 8788TIP3   OH226327   4.765   1.047   5.237
 8788TIP3    H126328   4.682   1.021   5.275
 8788TIP3    H226329   4.799   0.968   5.195
 8789TIP3   OH226330   6.739   0.589   2.025
 8789TIP3    H126331   6.701   0.510   2.064
 8789TIP3    H226332   6.810   0.556   1.969
 8790TIP3   OH226333   5.846   6.533   5.802
 8790TIP3    H126334   5.810   6.446   5.819
 8790TIP3    H226335   5.922   6.540   5.861
 8791TIP3   OH226336   0.925   3.296   3.215
 8791TIP3    H126337   1.017   3.321   3.202
 8791TIP3    H226338   0.928   3.226   3.279
 8792TIP3   OH226339   7.188   1.598   3.769
 8792TIP3    H126340   7.112   1.541   3.756
 8792TIP3    H226341   7.263   1.538   3.765
 8793TIP3   OH226342   4.552   2.290   3.398
 8793TIP3    H126343   4.494   2.333   3.461
 8793TIP3    H226344   4.568   2.356   3.331
 8794TIP3   OH226345   0.116   2.906   5.220
 8794TIP3    H126346   0.120   2.964   5.296
 8794TIP3    H226347   0.182   2.941   5.160
 8795TIP3   OH226348   1.770   1.108   4.624
 8795TIP3    H126349   1.684   1.115   4.665
 8795TIP3    H226350   1.829   1.083   4.695
 8796TIP3   OH226351   4.442   5.658   4.190
 8796TIP3    H126352   4.406   5.634   4.275
 8796TIP3    H226353   4.486   5.742   4.205
 8797TIP3   OH226354   1.312   4.048   3.721
 8797TIP3    H126355   1.265   4.106   3.782
 8797TIP3    H226356   1.361   4.108   3.665
 8798TIP3   OH226357   1.013   4.443   5.846
 8798TIP3    H126358   0.952   4.512   5.871
 8798TIP3    H226359   1.090   4.458   5.902
 8799TIP3   OH226360   6.529   6.675   5.429
 8799TIP3    H126361   6.514   6.726   5.348
 8799TIP3    H226362   6.476   6.720   5.495
 8800TIP3   OH226363   0.441   5.526   1.688
 8800TIP3    H126364   0.515   5.530   1.626
 8800TIP3    H226365   0.434   5.616   1.721
 8801TIP3   OH226366   3.064   1.690   2.712
 8801TIP3    H126367   3.065   1.682   2.807
 8801TIP3    H226368   3.156   1.694   2.688
 8802TIP3   OH226369   3.764   0.599   2.323
 8802TIP3    H126370   3.783   0.512   2.287
 8802TIP3    H226371   3.821   0.606   2.400
 8803TIP3   OH226372   1.103   0.456   4.649
 8803TIP3    H126373   1.148   0.375   4.627
 8803TIP3    H226374   1.109   0.510   4.570
 8804TIP3   OH226375   0.496   3.880   2.182
 8804TIP3    H126376   0.531   3.806   2.133
 8804TIP3    H226377   0.431   3.919   2.124
 8805TIP3   OH226378   3.812   2.491   0.314
 8805TIP3    H126379   3.769   2.455   0.236
 8805TIP3    H226380   3.832   2.582   0.289
 8806TIP3   OH226381   3.416   0.626   1.826
 8806TIP3    H126382   3.466   0.603   1.904
 8806TIP3    H226383   3.331   0.655   1.859
 8807TIP3   OH226384   1.349   3.643   3.459
 8807TIP3    H126385   1.433   3.689   3.459
 8807TIP3    H226386   1.290   3.700   3.508
 8808TIP3   OH226387   4.564   0.435   3.281
 8808TIP3    H126388   4.526   0.405   3.199
 8808TIP3    H226389   4.653   0.400   3.280
 8809TIP3   OH226390   4.231   6.385   0.457
 8809TIP3    H126391   4.293   6.352   0.522
 8809TIP3    H226392   4.223   6.313   0.394
 8810TIP3   OH226393   1.708   6.093   3.452
 8810TIP3    H126394   1.760   6.022   3.417
 8810TIP3    H226395   1.656   6.124   3.377
 8811TIP3   OH226396   5.899   1.567   1.372
 8811TIP3    H126397   5.865   1.558   1.283
 8811TIP3    H226398   5.902   1.661   1.388
 8812TIP3   OH226399   3.485   3.198   2.713
 8812TIP3    H126400   3.440   3.273   2.675
 8812TIP3    H226401   3.567   3.233   2.748
 8813TIP3   OH226402   0.978   2.515   1.456
 8813TIP3    H126403   1.048   2.459   1.490
 8813TIP3    H226404   0.898   2.464   1.467
 8814TIP3   OH226405   6.627   2.744   4.574
 8814TIP3    H126406   6.596   2.816   4.519
 8814TIP3    H226407   6.575   2.669   4.546
 8815TIP3   OH226408   2.263   5.714   4.565
 8815TIP3    H126409   2.185   5.739   4.515
 8815TIP3    H226410   2.322   5.789   4.557
 8816TIP3   OH226411   2.575   1.641   3.687
 8816TIP3    H126412   2.608   1.708   3.626
 8816TIP3    H226413   2.493   1.611   3.648
 8817TIP3   OH226414   3.399   0.288   0.706
 8817TIP3    H126415   3.321   0.308   0.759
 8817TIP3    H226416   3.472   0.301   0.766
 8818TIP3   OH226417   0.773   6.047   1.187
 8818TIP3    H126418   0.793   6.074   1.097
 8818TIP3    H226419   0.761   5.952   1.182
 8819TIP3   OH226420   6.470   5.758   1.615
 8819TIP3    H126421   6.406   5.771   1.545
 8819TIP3    H226422   6.488   5.664   1.614
 8820TIP3   OH226423   5.596   5.905   4.496
 8820TIP3    H126424   5.569   5.815   4.478
 8820TIP3    H226425   5.690   5.906   4.480
 8821TIP3   OH226426   1.147   0.291   2.240
 8821TIP3    H126427   1.224   0.275   2.295
 8821TIP3    H226428   1.079   0.234   2.277
 8822TIP3   OH226429   5.244   1.175   2.390
 8822TIP3    H126430   5.307   1.247   2.401
 8822TIP3    H226431   5.297   1.096   2.400
 8823TIP3   OH226432   1.880   3.222   4.000
 8823TIP3    H126433   1.858   3.206   4.092
 8823TIP3    H226434   1.856   3.314   3.986
 8824TIP3   OH226435   2.976   5.776   5.520
 8824TIP3    H126436   3.070   5.781   5.532
 8824TIP3    H226437   2.963   5.705   5.457
 8825TIP3   OH226438   6.942   2.287   0.096
 8825TIP3    H126439   6.936   2.277   0.191
 8825TIP3    H226440   6.851   2.288   0.066
 8826TIP3   OH226441   0.030   5.357   0.556
 8826TIP3    H126442   0.000   5.446   0.573
 8826TIP3    H226443   0.081   5.334   0.634
 8827TIP3   OH226444   3.181   2.612   1.838
 8827TIP3    H126445   3.123   2.544   1.803
 8827TIP3    H226446   3.221   2.651   1.761
 8828TIP3   OH226447   0.092   2.282   5.001
 8828TIP3    H126448   0.077   2.374   4.981
 8828TIP3    H226449   0.023   2.259   5.064
 8829TIP3   OH226450   2.697   0.456   5.094
 8829TIP3    H126451   2.731   0.384   5.040
 8829TIP3    H226452   2.656   0.515   5.032
 8830TIP3   OH226453   6.601   5.491   1.878
 8830TIP3    H126454   6.583   5.488   1.784
 8830TIP3    H226455   6.524   5.450   1.918
 8831TIP3   OH226456   5.046   0.220   3.388
 8831TIP3    H126457   5.062   0.279   3.315
 8831TIP3    H226458   5.120   0.159   3.386
 8832TIP3   OH226459   0.148   3.679   5.488
 8832TIP3    H126460   0.179   3.661   5.400
 8832TIP3    H226461   0.175   3.770   5.504
 8833TIP3   OH226462   7.102   3.845   3.375
 8833TIP3    H126463   7.074   3.936   3.388
 8833TIP3    H226464   7.128   3.816   3.462
 8834TIP3   OH226465   2.185   5.814   4.850
 8834TIP3    H126466   2.241   5.786   4.923
 8834TIP3    H226467   2.218   5.767   4.774
 8835TIP3   OH226468   4.125   4.866   1.398
 8835TIP3    H126469   4.060   4.933   1.417
 8835TIP3    H226470   4.209   4.913   1.395
 8836TIP3   OH226471   6.127   4.077   5.685
 8836TIP3    H126472   6.130   4.026   5.603
 8836TIP3    H226473   6.045   4.050   5.726
 8837TIP3   OH226474   1.132   1.747   0.231
 8837TIP3    H126475   1.225   1.732   0.251
 8837TIP3    H226476   1.133   1.815   0.165
 8838TIP3   OH226477   2.495   5.059   3.961
 8838TIP3    H126478   2.542   5.141   3.974
 8838TIP3    H226479   2.466   5.034   4.048
 8839TIP3   OH226480   5.426   2.003   5.690
 8839TIP3    H126481   5.338   2.027   5.716
 8839TIP3    H226482   5.430   1.908   5.701
 8840TIP3   OH226483   3.453   0.822   4.163
 8840TIP3    H126484   3.443   0.896   4.103
 8840TIP3    H226485   3.400   0.753   4.124
 8841TIP3   OH226486   4.090   0.204   0.108
 8841TIP3    H126487   4.140   0.159   0.176
 8841TIP3    H226488   4.014   0.241   0.154
 8842TIP3   OH226489   6.191   0.952   3.650
 8842TIP3    H126490   6.209   0.894   3.576
 8842TIP3    H226491   6.139   0.898   3.710
 8843TIP3   OH226492   4.836   5.649   5.782
 8843TIP3    H126493   4.853   5.703   5.705
 8843TIP3    H226494   4.845   5.708   5.856
 8844TIP3   OH226495   5.461   2.025   2.860
 8844TIP3    H126496   5.496   2.003   2.946
 8844TIP3    H226497   5.413   1.946   2.833
 8845TIP3   OH226498   1.736   0.430   4.946
 8845TIP3    H126499   1.794   0.446   5.020
 8845TIP3    H226500   1.763   0.345   4.913
 8846TIP3   OH226501   0.128   3.438   1.679
 8846TIP3    H126502   0.042   3.462   1.712
 8846TIP3    H226503   0.189   3.488   1.733
 8847TIP3   OH226504   4.973   4.576   2.399
 8847TIP3    H126505   4.879   4.596   2.396
 8847TIP3    H226506   5.014   4.646   2.348
 8848TIP3   OH226507   4.195   2.881   3.860
 8848TIP3    H126508   4.228   2.840   3.780
 8848TIP3    H226509   4.195   2.810   3.924
 8849TIP3   OH226510   3.858   1.566   5.171
 8849TIP3    H126511   3.865   1.637   5.234
 8849TIP3    H226512   3.778   1.520   5.195
 8850TIP3   OH226513   3.507   0.944   5.379
 8850TIP3    H126514   3.444   1.014   5.393
 8850TIP3    H226515   3.469   0.891   5.308
 8851TIP3   OH226516   0.834   3.357   5.226
 8851TIP3    H126517   0.744   3.387   5.217
 8851TIP3    H226518   0.827   3.263   5.241
 8852TIP3   OH226519   6.481   2.703   3.755
 8852TIP3    H126520   6.425   2.646   3.807
 8852TIP3    H226521   6.493   2.781   3.810
 8853TIP3   OH226522   2.069   0.303   2.826
 8853TIP3    H126523   2.014   0.226   2.818
 8853TIP3    H226524   2.147   0.282   2.774
 8854TIP3   OH226525   2.285   4.319   1.657
 8854TIP3    H126526   2.271   4.225   1.664
 8854TIP3    H226527   2.318   4.345   1.743
 8855TIP3   OH226528   4.794   2.117   4.275
 8855TIP3    H126529   4.855   2.167   4.220
 8855TIP3    H226530   4.735   2.183   4.312
 8856TIP3   OH226531   6.895   3.779   5.197
 8856TIP3    H126532   6.892   3.821   5.283
 8856TIP3    H226533   6.988   3.770   5.177
 8857TIP3   OH226534   5.321   3.605   1.045
 8857TIP3    H126535   5.323   3.599   1.141
 8857TIP3    H226536   5.262   3.678   1.027
 8858TIP3   OH226537   3.029   3.755   2.463
 8858TIP3    H126538   3.079   3.798   2.394
 8858TIP3    H226539   3.092   3.744   2.534
 8859TIP3   OH226540   3.580   2.908   3.974
 8859TIP3    H126541   3.517   2.966   4.016
 8859TIP3    H226542   3.645   2.967   3.936
 8860TIP3   OH226543   3.750   1.587   2.717
 8860TIP3    H126544   3.697   1.640   2.658
 8860TIP3    H226545   3.700   1.507   2.729
 8861TIP3   OH226546   1.512   0.553   4.286
 8861TIP3    H126547   1.577   0.600   4.339
 8861TIP3    H226548   1.489   0.476   4.338
 8862TIP3   OH226549   2.714   2.756   2.647
 8862TIP3    H126550   2.654   2.682   2.655
 8862TIP3    H226551   2.674   2.813   2.582
 8863TIP3   OH226552   7.078   3.065   3.962
 8863TIP3    H126553   7.060   3.009   3.887
 8863TIP3    H226554   7.114   3.005   4.028
 8864TIP3   OH226555   6.487   5.224   4.977
 8864TIP3    H126556   6.526   5.263   4.898
 8864TIP3    H226557   6.412   5.174   4.944
 8865TIP3   OH226558   0.325   6.093   2.123
 8865TIP3    H126559   0.394   6.147   2.162
 8865TIP3    H226560   0.368   6.010   2.104
 8866TIP3   OH226561   3.991   5.478   4.392
 8866TIP3    H126562   3.915   5.475   4.450
 8866TIP3    H226563   4.001   5.387   4.361
 8867TIP3   OH226564   4.334   0.572   4.340
 8867TIP3    H126565   4.367   0.571   4.250
 8867TIP3    H226566   4.327   0.664   4.363
 8868TIP3   OH226567   2.223   2.914   4.443
 8868TIP3    H126568   2.220   2.899   4.537
 8868TIP3    H226569   2.194   2.831   4.404
 8869TIP3   OH226570   4.418   1.240   4.327
 8869TIP3    H126571   4.387   1.324   4.361
 8869TIP3    H226572   4.455   1.195   4.403
 8870TIP3   OH226573   5.403   5.499   1.800
 8870TIP3    H126574   5.444   5.555   1.866
 8870TIP3    H226575   5.447   5.414   1.810
 8871TIP3   OH226576   3.617   2.715   2.059
 8871TIP3    H126577   3.527   2.684   2.053
 8871TIP3    H226578   3.639   2.741   1.969
 8872TIP3   OH226579   6.475   4.675   3.538
 8872TIP3    H126580   6.387   4.701   3.566
 8872TIP3    H226581   6.524   4.757   3.532
 8873TIP3   OH226582   0.923   1.536   4.063
 8873TIP3    H126583   0.836   1.507   4.036
 8873TIP3    H226584   0.983   1.480   4.013
 8874TIP3   OH226585   4.577   1.932   2.799
 8874TIP3    H126586   4.497   1.894   2.763
 8874TIP3    H226587   4.589   1.888   2.883
 8875TIP3   OH226588   1.507   0.297   5.074
 8875TIP3    H126589   1.595   0.313   5.040
 8875TIP3    H226590   1.500   0.355   5.151
 8876TIP3   OH226591   2.225   4.207   2.570
 8876TIP3    H126592   2.210   4.283   2.625
 8876TIP3    H226593   2.139   4.187   2.533
 8877TIP3   OH226594   6.855   2.684   5.247
 8877TIP3    H126595   6.793   2.704   5.177
 8877TIP3    H226596   6.932   2.735   5.226
 8878TIP3   OH226597   4.968   5.431   0.763
 8878TIP3    H126598   4.925   5.512   0.736
 8878TIP3    H226599   5.061   5.454   0.769
 8879TIP3   OH226600   3.745   6.078   0.258
 8879TIP3    H126601   3.796   6.086   0.177
 8879TIP3    H226602   3.657   6.054   0.228
 8880TIP3   OH226603   4.235   2.252   3.867
 8880TIP3    H126604   4.152   2.277   3.828
 8880TIP3    H226605   4.252   2.163   3.835
 8881TIP3   OH226606   6.193   4.586   3.578
 8881TIP3    H126607   6.141   4.591   3.498
 8881TIP3    H226608   6.198   4.492   3.598
 8882TIP3   OH226609   3.516   1.238   3.907
 8882TIP3    H126610   3.608   1.225   3.928
 8882TIP3    H226611   3.469   1.191   3.975
 8883TIP3   OH226612   6.403   5.367   2.292
 8883TIP3    H126613   6.417   5.284   2.336
 8883TIP3    H226614   6.322   5.401   2.329
 8884TIP3   OH226615   6.291   6.754   1.836
 8884TIP3    H126616   6.331   6.841   1.846
 8884TIP3    H226617   6.347   6.696   1.888
 8885TIP3   OH226618   6.461   6.746   2.042
 8885TIP3    H126619   6.414   6.804   2.102
 8885TIP3    H226620   6.512   6.688   2.100
 8886TIP3   OH226621   2.321   6.103   5.224
 8886TIP3    H126622   2.365   6.075   5.144
 8886TIP3    H226623   2.254   6.037   5.239
 8887TIP3   OH226624   6.091   1.621   4.786
 8887TIP3    H126625   6.021   1.578   4.737
 8887TIP3    H226626   6.153   1.649   4.718
 8888TIP3   OH226627   3.087   2.437   2.423
 8888TIP3    H126628   3.139   2.505   2.379
 8888TIP3    H226629   3.101   2.454   2.516
 8889TIP3   OH226630   2.485   5.208   3.628
 8889TIP3    H126631   2.530   5.292   3.629
 8889TIP3    H226632   2.555   5.143   3.637
 8890TIP3   OH226633   3.619   4.556   3.902
 8890TIP3    H126634   3.691   4.570   3.964
 8890TIP3    H226635   3.569   4.484   3.940
 8891TIP3   OH226636   5.689   4.213   1.343
 8891TIP3    H126637   5.658   4.126   1.320
 8891TIP3    H226638   5.762   4.229   1.284
 8892TIP3   OH226639   5.783   5.034   5.843
 8892TIP3    H126640   5.860   5.090   5.828
 8892TIP3    H226641   5.719   5.064   5.780
 8893TIP3   OH226642   3.273   1.258   0.283
 8893TIP3    H126643   3.182   1.228   0.286
 8893TIP3    H226644   3.324   1.177   0.278
 8894TIP3   OH226645   1.779   4.478   2.290
 8894TIP3    H126646   1.803   4.565   2.259
 8894TIP3    H226647   1.717   4.446   2.224
 8895TIP3   OH226648   3.987   0.287   1.722
 8895TIP3    H126649   4.073   0.301   1.682
 8895TIP3    H226650   3.950   0.375   1.730
 8896TIP3   OH226651   6.388   5.688   3.021
 8896TIP3    H126652   6.373   5.637   3.101
 8896TIP3    H226653   6.304   5.687   2.976
 8897TIP3   OH226654   6.916   1.957   2.764
 8897TIP3    H126655   6.929   1.911   2.847
 8897TIP3    H226656   6.988   2.020   2.760
 8898TIP3   OH226657   3.562   4.849   5.122
 8898TIP3    H126658   3.633   4.852   5.058
 8898TIP3    H226659   3.594   4.789   5.190
 8899TIP3   OH226660   1.634   4.526   1.023
 8899TIP3    H126661   1.629   4.618   0.996
 8899TIP3    H226662   1.686   4.484   0.955
 8900TIP3   OH226663   0.123   6.112   4.282
 8900TIP3    H126664   0.111   6.105   4.377
 8900TIP3    H226665   0.212   6.081   4.267
 8901TIP3   OH226666   3.659   6.418   0.002
 8901TIP3    H126667   3.664   6.443   0.094
 8901TIP3    H226668   3.749   6.428  -0.030
 8902TIP3   OH226669   3.859   5.283   1.680
 8902TIP3    H126670   3.796   5.248   1.744
 8902TIP3    H226671   3.908   5.349   1.728
 8903TIP3   OH226672   1.947   2.562   1.005
 8903TIP3    H126673   1.942   2.469   1.028
 8903TIP3    H226674   1.946   2.562   0.909
 8904TIP3   OH226675   4.990   1.233   4.781
 8904TIP3    H126676   5.000   1.255   4.874
 8904TIP3    H226677   5.053   1.290   4.737
 8905TIP3   OH226678   5.734   6.121   0.070
 8905TIP3    H126679   5.697   6.076  -0.006
 8905TIP3    H226680   5.666   6.116   0.136
 8906TIP3   OH226681   6.726   1.967   2.296
 8906TIP3    H126682   6.726   1.897   2.362
 8906TIP3    H226683   6.805   1.950   2.245
 8907TIP3   OH226684   3.914   1.849   3.358
 8907TIP3    H126685   3.865   1.931   3.359
 8907TIP3    H226686   3.934   1.835   3.266
 8908TIP3   OH226687   4.956   6.459   0.312
 8908TIP3    H126688   4.963   6.543   0.357
 8908TIP3    H226689   4.914   6.480   0.228
 8909TIP3   OH226690   3.740   6.489   2.971
 8909TIP3    H126691   3.766   6.548   2.900
 8909TIP3    H226692   3.805   6.505   3.040
 8910TIP3   OH226693   2.756   1.490   1.108
 8910TIP3    H126694   2.764   1.417   1.170
 8910TIP3    H226695   2.834   1.485   1.054
 8911TIP3   OH226696   1.477   1.421   3.778
 8911TIP3    H126697   1.476   1.414   3.873
 8911TIP3    H226698   1.529   1.500   3.760
 8912TIP3   OH226699   3.586   6.196   2.613
 8912TIP3    H126700   3.553   6.221   2.699
 8912TIP3    H226701   3.526   6.239   2.551
 8913TIP3   OH226702   1.976   6.401   5.527
 8913TIP3    H126703   1.917   6.331   5.555
 8913TIP3    H226704   2.002   6.376   5.438
 8914TIP3   OH226705   5.306   1.233   4.700
 8914TIP3    H126706   5.257   1.152   4.690
 8914TIP3    H226707   5.249   1.300   4.662
 8915TIP3   OH226708   6.595   5.340   5.763
 8915TIP3    H126709   6.565   5.431   5.773
 8915TIP3    H226710   6.631   5.337   5.675
 8916TIP3   OH226711   0.057   4.413   4.593
 8916TIP3    H126712   0.140   4.459   4.604
 8916TIP3    H226713   0.065   4.370   4.508
 8917TIP3   OH226714   0.769   2.331   2.499
 8917TIP3    H126715   0.702   2.279   2.454
 8917TIP3    H226716   0.722   2.406   2.535
 8918TIP3   OH226717   4.993   5.162   2.004
 8918TIP3    H126718   4.964   5.212   2.081
 8918TIP3    H226719   5.087   5.150   2.018
 8919TIP3   OH226720   5.882   6.254   2.690
 8919TIP3    H126721   5.787   6.251   2.682
 8919TIP3    H226722   5.898   6.270   2.783
 8920TIP3   OH226723   6.380   5.379   1.982
 8920TIP3    H126724   6.290   5.399   2.007
 8920TIP3    H226725   6.431   5.391   2.062
 8921TIP3   OH226726   5.059   5.312   1.098
 8921TIP3    H126727   5.073   5.288   1.190
 8921TIP3    H226728   5.052   5.229   1.052
 8922TIP3   OH226729   0.410   3.244   0.853
 8922TIP3    H126730   0.358   3.182   0.802
 8922TIP3    H226731   0.345   3.302   0.893
 8923TIP3   OH226732   3.484   3.705   2.250
 8923TIP3    H126733   3.573   3.727   2.224
 8923TIP3    H226734   3.493   3.625   2.300
 8924TIP3   OH226735   4.391   6.046   4.418
 8924TIP3    H126736   4.363   6.015   4.503
 8924TIP3    H226737   4.312   6.045   4.364
 8925TIP3   OH226738   2.886   3.816   1.315
 8925TIP3    H126739   2.796   3.832   1.286
 8925TIP3    H226740   2.928   3.772   1.241
 8926TIP3   OH226741   6.364   1.159   1.643
 8926TIP3    H126742   6.336   1.222   1.576
 8926TIP3    H226743   6.289   1.153   1.703
 8927TIP3   OH226744   4.300   2.483   5.393
 8927TIP3    H126745   4.335   2.480   5.304
 8927TIP3    H226746   4.206   2.500   5.381
 8928TIP3   OH226747   5.996   3.303   0.373
 8928TIP3    H126748   5.954   3.351   0.301
 8928TIP3    H226749   6.037   3.227   0.331
 8929TIP3   OH226750   1.180   3.826   3.638
 8929TIP3    H126751   1.199   3.866   3.723
 8929TIP3    H226752   1.154   3.900   3.582
 8930TIP3   OH226753   3.328   2.721   0.583
 8930TIP3    H126754   3.273   2.644   0.600
 8930TIP3    H226755   3.417   2.691   0.601
 8931TIP3   OH226756   6.186   3.054   2.091
 8931TIP3    H126757   6.222   2.973   2.056
 8931TIP3    H226758   6.208   3.121   2.026
 8932TIP3   OH226759   6.465   1.324   3.563
 8932TIP3    H126760   6.469   1.250   3.623
 8932TIP3    H226761   6.545   1.316   3.510
 8933TIP3   OH226762   5.600   4.918   4.648
 8933TIP3    H126763   5.550   4.837   4.654
 8933TIP3    H226764   5.678   4.894   4.597
 8934TIP3   OH226765   4.721   5.356   0.030
 8934TIP3    H126766   4.737   5.354  -0.065
 8934TIP3    H226767   4.632   5.391   0.038
 8935TIP3   OH226768   0.177   0.915   3.467
 8935TIP3    H126769   0.223   0.969   3.402
 8935TIP3    H226770   0.164   0.974   3.541
 8936TIP3   OH226771   4.080   5.850   0.043
 8936TIP3    H126772   4.090   5.916  -0.026
 8936TIP3    H226773   3.985   5.841   0.054
 8937TIP3   OH226774   0.936   0.583   0.117
 8937TIP3    H126775   0.964   0.665   0.159
 8937TIP3    H226776   0.917   0.524   0.190
 8938TIP3   OH226777   3.721   3.833   4.203
 8938TIP3    H126778   3.781   3.759   4.216
 8938TIP3    H226779   3.777   3.906   4.177
 8939TIP3   OH226780   0.172   6.138   4.568
 8939TIP3    H126781   0.265   6.131   4.545
 8939TIP3    H226782   0.157   6.233   4.573
 8940TIP3   OH226783   4.353   6.691   0.626
 8940TIP3    H126784   4.439   6.701   0.666
 8940TIP3    H226785   4.303   6.639   0.689
 8941TIP3   OH226786   2.961   2.197   2.295
 8941TIP3    H126787   3.009   2.277   2.316
 8941TIP3    H226788   2.887   2.196   2.356
 8942TIP3   OH226789   7.084   5.085   0.113
 8942TIP3    H126790   7.170   5.054   0.141
 8942TIP3    H226791   7.024   5.051   0.178
 8943TIP3   OH226792   3.350   3.336   5.215
 8943TIP3    H126793   3.321   3.408   5.270
 8943TIP3    H226794   3.432   3.307   5.254
 8944TIP3   OH226795   0.327   4.451   2.186
 8944TIP3    H126796   0.265   4.401   2.240
 8944TIP3    H226797   0.408   4.452   2.237
 8945TIP3   OH226798   4.139   4.095   2.562
 8945TIP3    H126799   4.066   4.156   2.556
 8945TIP3    H226800   4.206   4.132   2.504
 8946TIP3   OH226801   1.789   2.718   5.206
 8946TIP3    H126802   1.848   2.643   5.199
 8946TIP3    H226803   1.815   2.761   5.288
 8947TIP3   OH226804   6.309   2.621   0.836
 8947TIP3    H126805   6.269   2.585   0.757
 8947TIP3    H226806   6.400   2.638   0.812
 8948TIP3   OH226807   4.124   5.364   2.130
 8948TIP3    H126808   4.066   5.391   2.201
 8948TIP3    H226809   4.097   5.418   2.056
 8949TIP3   OH226810   3.872   5.196   4.386
 8949TIP3    H126811   3.823   5.118   4.409
 8949TIP3    H226812   3.937   5.166   4.323
 8950TIP3   OH226813   2.645   3.340   0.720
 8950TIP3    H126814   2.739   3.360   0.724
 8950TIP3    H226815   2.630   3.318   0.628
 8951TIP3   OH226816   0.874   3.684   0.633
 8951TIP3    H126817   0.929   3.755   0.600
 8951TIP3    H226818   0.932   3.633   0.690
 8952TIP3   OH226819   6.113   5.533   3.613
 8952TIP3    H126820   6.019   5.515   3.626
 8952TIP3    H226821   6.137   5.481   3.536
 8953TIP3   OH226822   5.927   2.532   0.055
 8953TIP3    H126823   5.940   2.476   0.132
 8953TIP3    H226824   5.837   2.563   0.063
 8954TIP3   OH226825   2.640   3.628   3.524
 8954TIP3    H126826   2.676   3.585   3.447
 8954TIP3    H226827   2.646   3.562   3.593
 8955TIP3   OH226828   2.115   1.816   1.217
 8955TIP3    H126829   2.198   1.775   1.193
 8955TIP3    H226830   2.070   1.829   1.133
 8956TIP3   OH226831   5.372   6.730   3.199
 8956TIP3    H126832   5.442   6.701   3.257
 8956TIP3    H226833   5.376   6.826   3.202
 8957TIP3   OH226834   5.441   0.994   1.705
 8957TIP3    H126835   5.421   0.902   1.689
 8957TIP3    H226836   5.535   1.001   1.690
 8958TIP3   OH226837   0.209   1.725   0.017
 8958TIP3    H126838   0.235   1.638   0.047
 8958TIP3    H226839   0.129   1.711  -0.033
 8959TIP3   OH226840   3.265   5.920   2.963
 8959TIP3    H126841   3.354   5.948   2.942
 8959TIP3    H226842   3.212   5.999   2.952
 8960TIP3   OH226843   6.666   3.699   4.565
 8960TIP3    H126844   6.628   3.739   4.487
 8960TIP3    H226845   6.610   3.623   4.583
 8961TIP3   OH226846   1.143   6.696   4.128
 8961TIP3    H126847   1.052   6.689   4.158
 8961TIP3    H226848   1.184   6.615   4.157
 8962TIP3   OH226849   4.831   2.972   3.879
 8962TIP3    H126850   4.820   2.973   3.974
 8962TIP3    H226851   4.814   3.062   3.851
 8963TIP3   OH226852   2.766   5.676   1.960
 8963TIP3    H126853   2.827   5.603   1.971
 8963TIP3    H226854   2.750   5.680   1.866
 8964TIP3   OH226855   4.719   0.816   2.932
 8964TIP3    H126856   4.789   0.777   2.880
 8964TIP3    H226857   4.743   0.909   2.940
 8965TIP3   OH226858   0.588   2.989   0.033
 8965TIP3    H126859   0.551   3.077   0.032
 8965TIP3    H226860   0.680   3.001   0.056
 8966TIP3   OH226861   5.090   2.340   3.193
 8966TIP3    H126862   5.040   2.265   3.160
 8966TIP3    H226863   5.119   2.386   3.114
 8967TIP3   OH226864   6.264   5.206   1.276
 8967TIP3    H126865   6.229   5.117   1.281
 8967TIP3    H226866   6.296   5.224   1.365
 8968TIP3   OH226867   6.595   2.556   2.793
 8968TIP3    H126868   6.629   2.624   2.852
 8968TIP3    H226869   6.673   2.514   2.758
 8969TIP3   OH226870   2.774   5.231   1.463
 8969TIP3    H126871   2.867   5.242   1.449
 8969TIP3    H226872   2.733   5.299   1.410
 8970TIP3   OH226873   4.717   3.001   3.520
 8970TIP3    H126874   4.708   3.074   3.582
 8970TIP3    H226875   4.775   2.939   3.563
 8971TIP3   OH226876   1.163   3.928   5.741
 8971TIP3    H126877   1.094   3.983   5.777
 8971TIP3    H226878   1.124   3.841   5.736
 8972TIP3   OH226879   2.994   6.525   4.226
 8972TIP3    H126880   2.942   6.493   4.300
 8972TIP3    H226881   2.950   6.606   4.200
 8973TIP3   OH226882   5.660   4.452   5.052
 8973TIP3    H126883   5.720   4.441   5.126
 8973TIP3    H226884   5.626   4.542   5.062
 8974TIP3   OH226885   2.528   3.220   5.303
 8974TIP3    H126886   2.482   3.250   5.225
 8974TIP3    H226887   2.620   3.218   5.277
 8975TIP3   OH226888   6.641   5.512   5.013
 8975TIP3    H126889   6.607   5.461   5.087
 8975TIP3    H226890   6.575   5.579   4.998
 8976TIP3   OH226891   6.193   0.223   4.932
 8976TIP3    H126892   6.239   0.219   4.848
 8976TIP3    H226893   6.251   0.176   4.993
 8977TIP3   OH226894   3.298   1.195   4.251
 8977TIP3    H126895   3.390   1.170   4.244
 8977TIP3    H226896   3.286   1.217   4.343
 8978TIP3   OH226897   5.648   4.545   3.129
 8978TIP3    H126898   5.714   4.614   3.134
 8978TIP3    H226899   5.565   4.590   3.144
 8979TIP3   OH226900   2.868   4.043   1.094
 8979TIP3    H126901   2.797   4.091   1.051
 8979TIP3    H226902   2.848   3.951   1.077
 8980TIP3   OH226903   1.255   1.765   5.017
 8980TIP3    H126904   1.241   1.730   4.929
 8980TIP3    H226905   1.262   1.687   5.073
 8981TIP3   OH226906   5.506   4.296   2.805
 8981TIP3    H126907   5.434   4.292   2.868
 8981TIP3    H226908   5.583   4.319   2.857
 8982TIP3   OH226909   6.075   2.101   3.702
 8982TIP3    H126910   6.013   2.173   3.688
 8982TIP3    H226911   6.050   2.035   3.638
 8983TIP3   OH226912   7.010   3.046   0.447
 8983TIP3    H126913   7.053   3.031   0.363
 8983TIP3    H226914   6.932   3.097   0.425
 8984TIP3   OH226915   2.278   3.626   5.783
 8984TIP3    H126916   2.211   3.563   5.810
 8984TIP3    H226917   2.239   3.672   5.709
 8985TIP3   OH226918   0.133   4.115   1.165
 8985TIP3    H126919   0.079   4.038   1.148
 8985TIP3    H226920   0.092   4.156   1.242
 8986TIP3   OH226921   1.880   3.305   2.372
 8986TIP3    H126922   1.791   3.325   2.343
 8986TIP3    H226923   1.893   3.213   2.349
 8987TIP3   OH226924   0.610   0.807   4.072
 8987TIP3    H126925   0.671   0.789   4.143
 8987TIP3    H226926   0.569   0.891   4.096
 8988TIP3   OH226927   7.155   3.257   2.422
 8988TIP3    H126928   7.071   3.287   2.387
 8988TIP3    H226929   7.191   3.333   2.467
 8989TIP3   OH226930   4.369   1.336   4.050
 8989TIP3    H126931   4.307   1.274   4.012
 8989TIP3    H226932   4.410   1.287   4.122
 8990TIP3   OH226933   5.804   4.952   4.473
 8990TIP3    H126934   5.831   5.036   4.436
 8990TIP3    H226935   5.881   4.896   4.463
 8991TIP3   OH226936   6.932   4.101   4.845
 8991TIP3    H126937   6.967   4.017   4.814
 8991TIP3    H226938   6.844   4.081   4.875
 8992TIP3   OH226939   4.079   4.369   2.722
 8992TIP3    H126940   4.028   4.393   2.799
 8992TIP3    H226941   4.014   4.340   2.658
 8993TIP3   OH226942   1.717   1.074   0.417
 8993TIP3    H126943   1.721   1.166   0.440
 8993TIP3    H226944   1.773   1.030   0.481
 8994TIP3   OH226945   2.588   2.933   2.030
 8994TIP3    H126946   2.545   3.015   2.054
 8994TIP3    H226947   2.621   2.897   2.112
 8995TIP3   OH226948   2.389   2.953   2.581
 8995TIP3    H126949   2.438   2.906   2.513
 8995TIP3    H226950   2.367   3.037   2.541
 8996TIP3   OH226951   4.438   2.688   4.002
 8996TIP3    H126952   4.355   2.711   4.044
 8996TIP3    H226953   4.413   2.649   3.918
 8997TIP3   OH226954   2.975   1.346   4.051
 8997TIP3    H126955   3.021   1.380   3.974
 8997TIP3    H226956   2.956   1.255   4.030
 8998TIP3   OH226957   0.633   3.994   2.875
 8998TIP3    H126958   0.719   3.970   2.911
 8998TIP3    H226959   0.574   3.927   2.910
 8999TIP3   OH226960   1.908   3.436   5.351
 8999TIP3    H126961   1.875   3.523   5.373
 8999TIP3    H226962   1.990   3.452   5.304
 9000TIP3   OH226963   2.519   2.798   0.566
 9000TIP3    H126964   2.587   2.786   0.501
 9000TIP3    H226965   2.530   2.724   0.626
 9001TIP3   OH226966   4.674   5.353   3.786
 9001TIP3    H126967   4.624   5.390   3.859
 9001TIP3    H226968   4.670   5.258   3.800
 9002TIP3   OH226969   4.908   0.484   4.207
 9002TIP3    H126970   4.884   0.446   4.292
 9002TIP3    H226971   4.901   0.579   4.220
 9003TIP3   OH226972   0.353   0.095   5.695
 9003TIP3    H126973   0.445   0.117   5.705
 9003TIP3    H226974   0.329   0.130   5.609
 9004TIP3   OH226975   2.511   4.308   4.253
 9004TIP3    H126976   2.556   4.270   4.178
 9004TIP3    H226977   2.544   4.260   4.329
 9005TIP3   OH226978   3.099   0.480   0.151
 9005TIP3    H126979   3.102   0.389   0.119
 9005TIP3    H226980   3.015   0.486   0.197
 9006TIP3   OH226981   0.478   2.531   1.190
 9006TIP3    H126982   0.546   2.598   1.186
 9006TIP3    H226983   0.523   2.449   1.170
 9007TIP3   OH226984   0.443   1.142   3.976
 9007TIP3    H126985   0.410   1.075   4.036
 9007TIP3    H226986   0.438   1.224   4.026
 9008TIP3   OH226987   1.844   0.223   0.299
 9008TIP3    H126988   1.806   0.250   0.215
 9008TIP3    H226989   1.835   0.300   0.355
 9009TIP3   OH226990   5.409   1.027   2.142
 9009TIP3    H126991   5.362   1.108   2.123
 9009TIP3    H226992   5.417   1.025   2.237
 9010TIP3   OH226993   3.426   0.649   0.002
 9010TIP3    H126994   3.422   0.602   0.085
 9010TIP3    H226995   3.464   0.586  -0.060
 9011TIP3   OH226996   4.017   1.128   0.156
 9011TIP3    H126997   4.066   1.093   0.082
 9011TIP3    H226998   4.081   1.179   0.206
 9012TIP3   OH226999   3.889   0.623   4.135
 9012TIP3    H127000   3.965   0.575   4.169
 9012TIP3    H227001   3.846   0.561   4.076
 9013TIP3   OH227002   6.040   1.625   5.598
 9013TIP3    H127003   5.945   1.636   5.603
 9013TIP3    H227004   6.061   1.639   5.506
 9014TIP3   OH227005   1.523   0.421   5.340
 9014TIP3    H127006   1.519   0.447   5.432
 9014TIP3    H227007   1.453   0.471   5.298
 9015TIP3   OH227008   2.790   0.520   2.133
 9015TIP3    H127009   2.768   0.537   2.225
 9015TIP3    H227010   2.715   0.470   2.099
 9016TIP3   OH227011   3.099   4.669   1.860
 9016TIP3    H127012   3.076   4.594   1.916
 9016TIP3    H227013   3.029   4.672   1.794
 9017TIP3   OH227014   0.222   1.031   2.609
 9017TIP3    H127015   0.292   1.051   2.548
 9017TIP3    H227016   0.154   1.095   2.588
 9018TIP3   OH227017   3.129   3.809   4.353
 9018TIP3    H127018   3.182   3.749   4.300
 9018TIP3    H227019   3.092   3.870   4.289
 9019TIP3   OH227020   5.757   3.273   4.713
 9019TIP3    H127021   5.697   3.199   4.715
 9019TIP3    H227022   5.713   3.342   4.764
 9020TIP3   OH227023   5.114   6.072   0.531
 9020TIP3    H127024   5.128   6.097   0.622
 9020TIP3    H227025   5.125   6.153   0.481
 9021TIP3   OH227026   2.043   5.700   2.214
 9021TIP3    H127027   1.964   5.687   2.162
 9021TIP3    H227028   2.089   5.617   2.211
 9022TIP3   OH227029   1.362   3.994   1.961
 9022TIP3    H127030   1.412   4.054   1.907
 9022TIP3    H227031   1.303   4.050   2.012
 9023TIP3   OH227032   0.932   5.739   2.734
 9023TIP3    H127033   0.932   5.830   2.764
 9023TIP3    H227034   0.839   5.720   2.718
 9024TIP3   OH227035   3.870   2.077   3.993
 9024TIP3    H127036   3.882   2.020   4.068
 9024TIP3    H227037   3.882   2.020   3.917
 9025TIP3   OH227038   2.054   0.744   5.168
 9025TIP3    H127039   1.968   0.781   5.149
 9025TIP3    H227040   2.050   0.721   5.261
 9026TIP3   OH227041   1.949   1.415   0.144
 9026TIP3    H127042   1.920   1.492   0.095
 9026TIP3    H227043   2.012   1.449   0.207
 9027TIP3   OH227044   3.586   2.798   5.833
 9027TIP3    H127045   3.579   2.709   5.797
 9027TIP3    H227046   3.627   2.849   5.763
 9028TIP3   OH227047   5.794   6.725   4.751
 9028TIP3    H127048   5.801   6.676   4.833
 9028TIP3    H227049   5.874   6.777   4.746
 9029TIP3   OH227050   3.490   2.434   1.845
 9029TIP3    H127051   3.440   2.515   1.842
 9029TIP3    H227052   3.562   2.447   1.784
 9030TIP3   OH227053   6.318   5.225   0.999
 9030TIP3    H127054   6.339   5.187   1.084
 9030TIP3    H227055   6.238   5.274   1.013
 9031TIP3   OH227056   0.249   3.387   1.399
 9031TIP3    H127057   0.307   3.347   1.334
 9031TIP3    H227058   0.168   3.406   1.351
 9032TIP3   OH227059   0.253   6.122   3.559
 9032TIP3    H127060   0.326   6.109   3.620
 9032TIP3    H227061   0.278   6.198   3.508
 9033TIP3   OH227062   3.448   1.735   3.664
 9033TIP3    H127063   3.428   1.827   3.679
 9033TIP3    H227064   3.528   1.735   3.612
 9034TIP3   OH227065   3.056   5.264   5.484
 9034TIP3    H127066   3.024   5.322   5.553
 9034TIP3    H227067   3.100   5.193   5.530
 9035TIP3   OH227068   1.309   2.909   4.627
 9035TIP3    H127069   1.357   2.861   4.560
 9035TIP3    H227070   1.219   2.914   4.593
 9036TIP3   OH227071   1.686   5.778   4.144
 9036TIP3    H127072   1.604   5.796   4.189
 9036TIP3    H227073   1.709   5.862   4.103
 9037TIP3   OH227074   1.967   1.032   1.587
 9037TIP3    H127075   2.057   1.016   1.615
 9037TIP3    H227076   1.934   0.946   1.561
 9038TIP3   OH227077   3.566   2.079   1.135
 9038TIP3    H127078   3.594   2.021   1.064
 9038TIP3    H227079   3.482   2.043   1.163
 9039TIP3   OH227080   0.252   4.285   5.706
 9039TIP3    H127081   0.273   4.378   5.705
 9039TIP3    H227082   0.337   4.241   5.702
 9040TIP3   OH227083   4.578   3.409   5.298
 9040TIP3    H127084   4.559   3.353   5.374
 9040TIP3    H227085   4.649   3.466   5.328
 9041TIP3   OH227086   4.794   1.531   4.790
 9041TIP3    H127087   4.784   1.447   4.746
 9041TIP3    H227088   4.819   1.508   4.880
 9042TIP3   OH227089   3.758   0.130   5.786
 9042TIP3    H127090   3.818   0.142   5.859
 9042TIP3    H227091   3.815   0.131   5.708
 9043TIP3   OH227092   1.954   1.375   4.689
 9043TIP3    H127093   1.926   1.457   4.648
 9043TIP3    H227094   1.973   1.317   4.616
 9044TIP3   OH227095   4.387   6.651   5.864
 9044TIP3    H127096   4.386   6.582   5.799
 9044TIP3    H227097   4.295   6.666   5.885
 9045TIP3   OH227098   5.541   3.559   1.840
 9045TIP3    H127099   5.556   3.653   1.853
 9045TIP3    H227100   5.626   3.519   1.860
 9046TIP3   OH227101   1.225   2.014   2.902
 9046TIP3    H127102   1.293   1.976   2.958
 9046TIP3    H227103   1.154   1.950   2.904
 9047TIP3   OH227104   1.243   2.836   0.194
 9047TIP3    H127105   1.329   2.795   0.190
 9047TIP3    H227106   1.249   2.896   0.269
 9048TIP3   OH227107   3.338   2.473   3.194
 9048TIP3    H127108   3.285   2.435   3.124
 9048TIP3    H227109   3.390   2.541   3.150
 9049TIP3   OH227110   1.847   6.267   1.676
 9049TIP3    H127111   1.839   6.350   1.630
 9049TIP3    H227112   1.765   6.221   1.658
 9050TIP3   OH227113   6.552   3.426   3.857
 9050TIP3    H127114   6.636   3.462   3.828
 9050TIP3    H227115   6.571   3.334   3.878
 9051TIP3   OH227116   6.912   3.241   0.040
 9051TIP3    H127117   6.932   3.202  -0.046
 9051TIP3    H227118   6.887   3.166   0.095
 9052TIP3   OH227119   5.078   3.514   5.192
 9052TIP3    H127120   5.015   3.585   5.207
 9052TIP3    H227121   5.027   3.434   5.204
 9053TIP3   OH227122   0.766   3.810   3.621
 9053TIP3    H127123   0.727   3.843   3.540
 9053TIP3    H227124   0.826   3.741   3.591
 9054TIP3   OH227125   5.785   5.806   5.834
 9054TIP3    H127126   5.716   5.869   5.858
 9054TIP3    H227127   5.786   5.743   5.906
 9055TIP3   OH227128   0.716   0.260   4.600
 9055TIP3    H127129   0.749   0.193   4.661
 9055TIP3    H227130   0.679   0.328   4.657
 9056TIP3   OH227131   4.309   5.631   2.935
 9056TIP3    H127132   4.312   5.682   2.854
 9056TIP3    H227133   4.306   5.540   2.906
 9057TIP3   OH227134   4.118   0.294   2.468
 9057TIP3    H127135   4.124   0.370   2.526
 9057TIP3    H227136   4.025   0.283   2.452
 9058TIP3   OH227137   0.408   2.265   0.690
 9058TIP3    H127138   0.417   2.357   0.666
 9058TIP3    H227139   0.376   2.266   0.780
 9059TIP3   OH227140   3.085   2.659   3.039
 9059TIP3    H127141   3.038   2.688   2.961
 9059TIP3    H227142   3.029   2.590   3.075
 9060TIP3   OH227143   3.611   3.607   0.789
 9060TIP3    H127144   3.530   3.653   0.770
 9060TIP3    H227145   3.586   3.539   0.851
 9061TIP3   OH227146   4.808   5.546   0.500
 9061TIP3    H127147   4.898   5.519   0.482
 9061TIP3    H227148   4.800   5.633   0.461
 9062TIP3   OH227149   3.027   4.150   3.364
 9062TIP3    H127150   3.005   4.128   3.274
 9062TIP3    H227151   3.118   4.181   3.360
 9063TIP3   OH227152   0.541   2.192   3.419
 9063TIP3    H127153   0.500   2.115   3.380
 9063TIP3    H227154   0.505   2.196   3.507
 9064TIP3   OH227155   3.916   2.312   5.664
 9064TIP3    H127156   3.943   2.229   5.625
 9064TIP3    H227157   3.998   2.351   5.696
 9065TIP3   OH227158   0.308   3.871   4.340
 9065TIP3    H127159   0.310   3.963   4.314
 9065TIP3    H227160   0.394   3.837   4.315
 9066TIP3   OH227161   3.633   5.246   5.890
 9066TIP3    H127162   3.720   5.227   5.856
 9066TIP3    H227163   3.615   5.336   5.862
 9067TIP3   OH227164   5.712   3.151   0.439
 9067TIP3    H127165   5.719   3.086   0.508
 9067TIP3    H227166   5.734   3.234   0.481
 9068TIP3   OH227167   5.844   5.846   4.884
 9068TIP3    H127168   5.823   5.905   4.956
 9068TIP3    H227169   5.874   5.766   4.926
 9069TIP3   OH227170   2.645   2.324   4.033
 9069TIP3    H127171   2.586   2.346   3.960
 9069TIP3    H227172   2.689   2.244   4.004
 9070TIP3   OH227173   0.788   0.830   1.229
 9070TIP3    H127174   0.780   0.924   1.212
 9070TIP3    H227175   0.810   0.823   1.321
 9071TIP3   OH227176   6.879   4.756   1.722
 9071TIP3    H127177   6.813   4.686   1.723
 9071TIP3    H227178   6.882   4.787   1.812
 9072TIP3   OH227179   7.023   6.432   0.213
 9072TIP3    H127180   7.007   6.523   0.185
 9072TIP3    H227181   6.938   6.402   0.246
 9073TIP3   OH227182   0.712   3.384   0.497
 9073TIP3    H127183   0.691   3.383   0.590
 9073TIP3    H227184   0.791   3.330   0.489
 9074TIP3   OH227185   5.206   3.673   2.228
 9074TIP3    H127186   5.197   3.751   2.283
 9074TIP3    H227187   5.166   3.603   2.280
 9075TIP3   OH227188   4.606   1.150   0.986
 9075TIP3    H127189   4.698   1.123   0.990
 9075TIP3    H227190   4.608   1.236   0.944
 9076TIP3   OH227191   0.721   5.595   4.140
 9076TIP3    H127192   0.767   5.590   4.056
 9076TIP3    H227193   0.734   5.508   4.179
 9077TIP3   OH227194   0.844   4.929   1.576
 9077TIP3    H127195   0.793   4.878   1.513
 9077TIP3    H227196   0.920   4.960   1.526
 9078TIP3   OH227197   3.331   5.204   0.699
 9078TIP3    H127198   3.251   5.250   0.672
 9078TIP3    H227199   3.328   5.121   0.650
 9079TIP3   OH227200   1.392   2.512   5.744
 9079TIP3    H127201   1.350   2.582   5.794
 9079TIP3    H227202   1.472   2.551   5.710
 9080TIP3   OH227203   0.536   1.528   0.298
 9080TIP3    H127204   0.587   1.518   0.379
 9080TIP3    H227205   0.475   1.454   0.300
 9081TIP3   OH227206   4.578   2.823   4.928
 9081TIP3    H127207   4.631   2.747   4.955
 9081TIP3    H227208   4.546   2.800   4.841
 9082TIP3   OH227209   5.859   2.120   2.706
 9082TIP3    H127210   5.852   2.211   2.674
 9082TIP3    H227211   5.835   2.126   2.798
 9083TIP3   OH227212   5.598   3.035   4.712
 9083TIP3    H127213   5.522   3.064   4.763
 9083TIP3    H227214   5.576   2.947   4.684
 9084TIP3   OH227215   3.260   4.334   0.193
 9084TIP3    H127216   3.335   4.366   0.243
 9084TIP3    H227217   3.203   4.410   0.183
 9085TIP3   OH227218   1.387   2.006   1.329
 9085TIP3    H127219   1.300   2.045   1.336
 9085TIP3    H227220   1.395   1.949   1.406
 9086TIP3   OH227221   5.212   1.683   3.399
 9086TIP3    H127222   5.297   1.721   3.422
 9086TIP3    H227223   5.155   1.704   3.473
 9087TIP3   OH227224   2.210   3.480   4.913
 9087TIP3    H127225   2.259   3.422   4.855
 9087TIP3    H227226   2.124   3.488   4.872
 9088TIP3   OH227227   4.614   2.110   2.227
 9088TIP3    H127228   4.530   2.157   2.228
 9088TIP3    H227229   4.593   2.022   2.258
 9089TIP3   OH227230   4.559   2.334   5.168
 9089TIP3    H127231   4.540   2.262   5.107
 9089TIP3    H227232   4.560   2.292   5.254
 9090TIP3   OH227233   4.220   5.593   1.312
 9090TIP3    H127234   4.191   5.527   1.249
 9090TIP3    H227235   4.167   5.578   1.390
 9091TIP3   OH227236   1.205   4.539   0.388
 9091TIP3    H127237   1.294   4.557   0.417
 9091TIP3    H227238   1.203   4.566   0.296
 9092TIP3   OH227239   3.570   0.044   1.229
 9092TIP3    H127240   3.646   0.078   1.276
 9092TIP3    H227241   3.550  -0.038   1.273
 9093TIP3   OH227242   0.385   2.786   0.537
 9093TIP3    H127243   0.319   2.855   0.527
 9093TIP3    H227244   0.431   2.785   0.453
 9094TIP3   OH227245   3.235   6.211   0.425
 9094TIP3    H127246   3.307   6.254   0.379
 9094TIP3    H227247   3.275   6.174   0.503
 9095TIP3   OH227248   1.537   0.697   2.513
 9095TIP3    H127249   1.558   0.622   2.569
 9095TIP3    H227250   1.513   0.658   2.429
 9096TIP3   OH227251   3.682   5.145   5.322
 9096TIP3    H127252   3.607   5.152   5.263
 9096TIP3    H227253   3.731   5.225   5.308
 9097TIP3   OH227254   4.644   1.431   5.850
 9097TIP3    H127255   4.675   1.521   5.858
 9097TIP3    H227256   4.719   1.377   5.875
 9098TIP3   OH227257   7.174   6.730   1.627
 9098TIP3    H127258   7.216   6.675   1.561
 9098TIP3    H227259   7.210   6.817   1.613
 9099TIP3   OH227260   6.894   0.238   0.594
 9099TIP3    H127261   6.804   0.237   0.627
 9099TIP3    H227262   6.889   0.283   0.509
 9100TIP3   OH227263   4.836   1.779   3.828
 9100TIP3    H127264   4.872   1.694   3.853
 9100TIP3    H227265   4.863   1.791   3.737
 9101TIP3   OH227266   4.300   5.618   3.326
 9101TIP3    H127267   4.359   5.569   3.383
 9101TIP3    H227268   4.220   5.566   3.324
 9102TIP3   OH227269   4.884   2.066   3.144
 9102TIP3    H127270   4.809   2.008   3.137
 9102TIP3    H227271   4.955   2.010   3.177
 9103TIP3   OH227272   4.320   3.557   5.328
 9103TIP3    H127273   4.310   3.648   5.303
 9103TIP3    H227274   4.410   3.534   5.305
 9104TIP3   OH227275   1.255   3.766   2.108
 9104TIP3    H127276   1.322   3.703   2.082
 9104TIP3    H227277   1.271   3.842   2.052
 9105TIP3   OH227278   4.410   1.809   1.392
 9105TIP3    H127279   4.455   1.891   1.412
 9105TIP3    H227280   4.422   1.797   1.298
 9106TIP3   OH227281   6.523   1.481   0.937
 9106TIP3    H127282   6.510   1.505   0.845
 9106TIP3    H227283   6.451   1.524   0.983
 9107TIP3   OH227284   6.527   3.193   5.192
 9107TIP3    H127285   6.587   3.119   5.184
 9107TIP3    H227286   6.584   3.270   5.198
 9108TIP3   OH227287   0.701   0.264   1.331
 9108TIP3    H127288   0.657   0.304   1.406
 9108TIP3    H227289   0.706   0.335   1.266
 9109TIP3   OH227290   0.424   2.373   2.440
 9109TIP3    H127291   0.378   2.428   2.377
 9109TIP3    H227292   0.438   2.430   2.516
 9110TIP3   OH227293   2.160   5.578   1.377
 9110TIP3    H127294   2.169   5.541   1.289
 9110TIP3    H227295   2.175   5.504   1.435
 9111TIP3   OH227296   1.418   0.230   3.673
 9111TIP3    H127297   1.433   0.210   3.581
 9111TIP3    H227298   1.425   0.325   3.679
 9112TIP3   OH227299   4.370   4.556   3.692
 9112TIP3    H127300   4.345   4.599   3.610
 9112TIP3    H227301   4.420   4.623   3.739
 9113TIP3   OH227302   5.363   5.123   2.780
 9113TIP3    H127303   5.300   5.188   2.810
 9113TIP3    H227304   5.419   5.171   2.719
 9114TIP3   OH227305   0.638   2.690   1.695
 9114TIP3    H127306   0.589   2.608   1.707
 9114TIP3    H227307   0.580   2.746   1.646
 9115TIP3   OH227308   5.049   0.515   4.764
 9115TIP3    H127309   5.000   0.464   4.700
 9115TIP3    H227310   5.065   0.455   4.836
 9116TIP3   OH227311   4.913   5.108   5.107
 9116TIP3    H127312   4.941   5.045   5.041
 9116TIP3    H227313   4.822   5.129   5.082
 9117TIP3   OH227314   7.038   6.265   4.455
 9117TIP3    H127315   7.074   6.334   4.510
 9117TIP3    H227316   7.023   6.192   4.515
 9118TIP3   OH227317   5.776   6.153   3.834
 9118TIP3    H127318   5.737   6.156   3.921
 9118TIP3    H227319   5.811   6.065   3.826
 9119TIP3   OH227320   1.012   4.206   0.245
 9119TIP3    H127321   0.958   4.280   0.273
 9119TIP3    H227322   0.954   4.131   0.247
 9120TIP3   OH227323   3.379   0.269   2.975
 9120TIP3    H127324   3.399   0.211   2.901
 9120TIP3    H227325   3.304   0.228   3.017
 9121TIP3   OH227326   2.222   5.482   3.381
 9121TIP3    H127327   2.217   5.517   3.471
 9121TIP3    H227328   2.180   5.549   3.327
 9122TIP3   OH227329   0.170   5.339   5.035
 9122TIP3    H127330   0.263   5.354   5.052
 9122TIP3    H227331   0.126   5.370   5.114
 9123TIP3   OH227332   4.448   5.560   0.059
 9123TIP3    H127333   4.373   5.510   0.091
 9123TIP3    H227334   4.441   5.556  -0.036
 9124TIP3   OH227335   0.769   6.398   2.468
 9124TIP3    H127336   0.754   6.347   2.548
 9124TIP3    H227337   0.816   6.338   2.410
 9125TIP3   OH227338   5.960   1.188   2.144
 9125TIP3    H127339   5.904   1.254   2.185
 9125TIP3    H227340   5.964   1.214   2.052
 9126TIP3   OH227341   4.855   5.842   3.146
 9126TIP3    H127342   4.764   5.856   3.172
 9126TIP3    H227343   4.861   5.747   3.132
 9127TIP3   OH227344   3.296   2.375   2.911
 9127TIP3    H127345   3.226   2.315   2.938
 9127TIP3    H227346   3.266   2.409   2.826
 9128TIP3   OH227347   2.046   1.161   2.940
 9128TIP3    H127348   2.063   1.068   2.925
 9128TIP3    H227349   2.013   1.167   3.029
 9129TIP3   OH227350   0.551   5.881   2.322
 9129TIP3    H127351   0.616   5.858   2.389
 9129TIP3    H227352   0.475   5.911   2.372
 9130TIP3   OH227353   2.357   6.227   3.485
 9130TIP3    H127354   2.415   6.151   3.479
 9130TIP3    H227355   2.283   6.204   3.429
 9131TIP3   OH227356   2.704   4.866   0.300
 9131TIP3    H127357   2.769   4.921   0.256
 9131TIP3    H227358   2.623   4.916   0.292
 9132TIP3   OH227359   6.236   0.401   3.930
 9132TIP3    H127360   6.266   0.484   3.966
 9132TIP3    H227361   6.246   0.411   3.835
 9133TIP3   OH227362   2.359   4.982   1.265
 9133TIP3    H127363   2.406   4.939   1.193
 9133TIP3    H227364   2.426   5.002   1.330
 9134TIP3   OH227365   3.862   2.894   3.079
 9134TIP3    H127366   3.828   2.822   3.132
 9134TIP3    H227367   3.798   2.964   3.090
 9135TIP3   OH227368   4.617   6.431   3.497
 9135TIP3    H127369   4.689   6.380   3.532
 9135TIP3    H227370   4.549   6.427   3.564
 9136TIP3   OH227371   0.411   5.917   4.646
 9136TIP3    H127372   0.466   5.857   4.695
 9136TIP3    H227373   0.472   5.972   4.597
 9137TIP3   OH227374   2.645   6.065   4.554
 9137TIP3    H127375   2.674   6.146   4.596
 9137TIP3    H227376   2.722   6.036   4.504
 9138TIP3   OH227377   2.888   0.790   5.014
 9138TIP3    H127378   2.923   0.793   4.925
 9138TIP3    H227379   2.795   0.771   5.002
 9139TIP3   OH227380   2.090   0.560   5.775
 9139TIP3    H127381   2.155   0.491   5.759
 9139TIP3    H227382   2.134   0.641   5.751
 9140TIP3   OH227383   4.271   6.243   5.623
 9140TIP3    H127384   4.277   6.268   5.715
 9140TIP3    H227385   4.291   6.149   5.622
 9141TIP3   OH227386   3.139   2.852   2.106
 9141TIP3    H127387   3.076   2.916   2.071
 9141TIP3    H227388   3.141   2.870   2.200
 9142TIP3   OH227389   3.149   2.935   1.177
 9142TIP3    H127390   3.167   2.910   1.268
 9142TIP3    H227391   3.138   3.030   1.181
 9143TIP3   OH227392   1.879   5.623   3.161
 9143TIP3    H127393   1.888   5.637   3.255
 9143TIP3    H227394   1.792   5.657   3.141
 9144TIP3   OH227395   4.390   5.320   2.184
 9144TIP3    H127396   4.304   5.344   2.148
 9144TIP3    H227397   4.373   5.297   2.275
 9145TIP3   OH227398   0.162   3.675   3.762
 9145TIP3    H127399   0.210   3.757   3.772
 9145TIP3    H227400   0.224   3.607   3.788
 9146TIP3   OH227401   1.921   3.633   5.101
 9146TIP3    H127402   1.914   3.621   5.006
 9146TIP3    H227403   1.889   3.550   5.138
 9147TIP3   OH227404   2.874   1.100   3.382
 9147TIP3    H127405   2.934   1.078   3.311
 9147TIP3    H227406   2.805   1.034   3.376
 9148TIP3   OH227407   3.536   5.629   4.373
 9148TIP3    H127408   3.615   5.630   4.427
 9148TIP3    H227409   3.559   5.575   4.298
 9149TIP3   OH227410   4.507   4.889   3.612
 9149TIP3    H127411   4.415   4.866   3.619
 9149TIP3    H227412   4.539   4.840   3.537
 9150TIP3   OH227413   0.479   6.619   1.163
 9150TIP3    H127414   0.557   6.636   1.110
 9150TIP3    H227415   0.413   6.591   1.099
 9151TIP3   OH227416   0.700   5.870   0.470
 9151TIP3    H127417   0.763   5.916   0.525
 9151TIP3    H227418   0.712   5.778   0.490
 9152TIP3   OH227419   1.569   0.530   3.238
 9152TIP3    H127420   1.510   0.462   3.206
 9152TIP3    H227421   1.576   0.592   3.165
 9153TIP3   OH227422   2.102   2.638   3.729
 9153TIP3    H127423   2.126   2.552   3.763
 9153TIP3    H227424   2.028   2.666   3.783
 9154TIP3   OH227425   3.295   1.995   1.172
 9154TIP3    H127426   3.210   2.032   1.149
 9154TIP3    H227427   3.274   1.921   1.230
 9155TIP3   OH227428   3.233   0.076   4.083
 9155TIP3    H127429   3.311   0.064   4.029
 9155TIP3    H227430   3.262   0.055   4.172
 9156TIP3   OH227431   0.639   4.441   3.539
 9156TIP3    H127432   0.585   4.388   3.481
 9156TIP3    H227433   0.638   4.528   3.499
 9157TIP3   OH227434   4.294   1.776   5.130
 9157TIP3    H127435   4.344   1.720   5.189
 9157TIP3    H227436   4.229   1.717   5.091
 9158TIP3   OH227437   4.505   6.464   5.406
 9158TIP3    H127438   4.525   6.395   5.469
 9158TIP3    H227439   4.590   6.499   5.380
 9159TIP3   OH227440   4.956   1.776   0.176
 9159TIP3    H127441   4.999   1.712   0.233
 9159TIP3    H227442   4.963   1.859   0.224
 9160TIP3   OH227443   3.866   6.437   5.756
 9160TIP3    H127444   3.819   6.439   5.673
 9160TIP3    H227445   3.908   6.351   5.759
 9161TIP3   OH227446   6.034   3.801   4.320
 9161TIP3    H127447   6.052   3.831   4.409
 9161TIP3    H227448   6.034   3.706   4.326
 9162TIP3   OH227449   6.820   1.775   4.379
 9162TIP3    H127450   6.761   1.850   4.383
 9162TIP3    H227451   6.785   1.720   4.309
 9163TIP3   OH227452   4.246   0.306   4.940
 9163TIP3    H127453   4.319   0.361   4.909
 9163TIP3    H227454   4.178   0.369   4.964
 9164TIP3   OH227455   0.614   0.027   1.416
 9164TIP3    H127456   0.600   0.108   1.367
 9164TIP3    H227457   0.654   0.056   1.498
 9165TIP3   OH227458   2.492   0.191   2.520
 9165TIP3    H127459   2.442   0.176   2.439
 9165TIP3    H227460   2.544   0.269   2.502
 9166TIP3   OH227461   6.223   5.235   5.643
 9166TIP3    H127462   6.235   5.297   5.570
 9166TIP3    H227463   6.254   5.283   5.720
 9167TIP3   OH227464   6.904   2.138   3.261
 9167TIP3    H127465   6.875   2.229   3.270
 9167TIP3    H227466   6.943   2.117   3.346
 9168TIP3   OH227467   2.581   6.178   5.440
 9168TIP3    H127468   2.584   6.109   5.374
 9168TIP3    H227469   2.488   6.185   5.463
 9169TIP3   OH227470   5.129   3.741   4.999
 9169TIP3    H127471   5.114   3.698   5.084
 9169TIP3    H227472   5.052   3.717   4.947
 9170TIP3   OH227473   2.871   1.378   3.442
 9170TIP3    H127474   2.954   1.425   3.438
 9170TIP3    H227475   2.892   1.290   3.410
 9171TIP3   OH227476   0.114   3.461   3.972
 9171TIP3    H127477   0.077   3.547   3.955
 9171TIP3    H227478   0.038   3.406   3.992
 9172TIP3   OH227479   0.762   3.323   1.073
 9172TIP3    H127480   0.808   3.381   1.013
 9172TIP3    H227481   0.709   3.267   1.017
 9173TIP3   OH227482   5.410   5.920   4.676
 9173TIP3    H127483   5.464   5.931   4.597
 9173TIP3    H227484   5.467   5.875   4.738
 9174TIP3   OH227485   7.063   1.226   1.093
 9174TIP3    H127486   7.000   1.155   1.106
 9174TIP3    H227487   7.148   1.186   1.113
 9175TIP3   OH227488   6.468   6.215   0.151
 9175TIP3    H127489   6.461   6.247   0.061
 9175TIP3    H227490   6.502   6.289   0.201
 9176TIP3   OH227491   3.891   4.947   1.815
 9176TIP3    H127492   3.983   4.973   1.808
 9176TIP3    H227493   3.889   4.856   1.787
 9177TIP3   OH227494   0.584   4.719   3.449
 9177TIP3    H127495   0.639   4.780   3.401
 9177TIP3    H227496   0.566   4.762   3.532
 9178TIP3   OH227497   2.291   4.982   4.158
 9178TIP3    H127498   2.288   4.893   4.194
 9178TIP3    H227499   2.252   5.036   4.227
 9179TIP3   OH227500   6.933   6.181   2.599
 9179TIP3    H127501   6.915   6.275   2.605
 9179TIP3    H227502   6.937   6.152   2.690
 9180TIP3   OH227503   3.758   2.351   2.730
 9180TIP3    H127504   3.832   2.372   2.787
 9180TIP3    H227505   3.713   2.434   2.717
 9181TIP3   OH227506   0.962   1.837   1.872
 9181TIP3    H127507   1.014   1.819   1.951
 9181TIP3    H227508   0.887   1.887   1.903
 9182TIP3   OH227509   6.188   6.358   4.870
 9182TIP3    H127510   6.178   6.445   4.908
 9182TIP3    H227511   6.128   6.303   4.919
 9183TIP3   OH227512   3.589   4.046   5.824
 9183TIP3    H127513   3.665   4.003   5.862
 9183TIP3    H227514   3.516   4.018   5.879
 9184TIP3   OH227515   2.434   3.845   2.582
 9184TIP3    H127516   2.479   3.832   2.665
 9184TIP3    H227517   2.345   3.871   2.607
 9185TIP3   OH227518   2.541   2.744   1.306
 9185TIP3    H127519   2.624   2.786   1.330
 9185TIP3    H227520   2.474   2.794   1.354
 9186TIP3   OH227521   2.001   3.983   3.606
 9186TIP3    H127522   1.908   4.003   3.597
 9186TIP3    H227523   2.012   3.966   3.700
 9187TIP3   OH227524   0.927   0.592   1.535
 9187TIP3    H127525   0.995   0.570   1.471
 9187TIP3    H227526   0.934   0.686   1.546
 9188TIP3   OH227527   1.437   2.306   1.325
 9188TIP3    H127528   1.409   2.383   1.375
 9188TIP3    H227529   1.355   2.259   1.307
 9189TIP3   OH227530   1.514   3.083   3.534
 9189TIP3    H127531   1.596   3.107   3.492
 9189TIP3    H227532   1.458   3.053   3.462
 9190TIP3   OH227533   3.087   2.553   5.166
 9190TIP3    H127534   3.159   2.616   5.155
 9190TIP3    H227535   3.039   2.557   5.084
 9191TIP3   OH227536   1.514   6.785   5.094
 9191TIP3    H127537   1.491   6.825   5.010
 9191TIP3    H227538   1.599   6.743   5.078
 9192TIP3   OH227539   4.145   5.022   3.694
 9192TIP3    H127540   4.177   5.092   3.751
 9192TIP3    H227541   4.079   4.976   3.747
 9193TIP3   OH227542   2.205   5.614   3.647
 9193TIP3    H127543   2.156   5.692   3.673
 9193TIP3    H227544   2.294   5.630   3.679
 9194TIP3   OH227545   0.541   6.192   2.279
 9194TIP3    H127546   0.627   6.151   2.289
 9194TIP3    H227547   0.556   6.266   2.221
 9195TIP3   OH227548   6.721   0.466   0.936
 9195TIP3    H127549   6.729   0.476   1.031
 9195TIP3    H227550   6.705   0.373   0.923
 9196TIP3   OH227551   5.695   5.533   3.450
 9196TIP3    H127552   5.772   5.478   3.466
 9196TIP3    H227553   5.653   5.541   3.536
 9197TIP3   OH227554   4.654   1.455   2.360
 9197TIP3    H127555   4.602   1.532   2.381
 9197TIP3    H227556   4.627   1.389   2.423
 9198TIP3   OH227557   0.116   4.480   5.434
 9198TIP3    H127558   0.202   4.442   5.449
 9198TIP3    H227559   0.107   4.484   5.339
 9199TIP3   OH227560   2.131   5.886   5.271
 9199TIP3    H127561   2.062   5.933   5.318
 9199TIP3    H227562   2.087   5.845   5.197
 9200TIP3   OH227563   4.790   4.080   0.592
 9200TIP3    H127564   4.867   4.099   0.537
 9200TIP3    H227565   4.789   4.150   0.656
 9201TIP3   OH227566   2.249   0.295   3.634
 9201TIP3    H127567   2.283   0.384   3.637
 9201TIP3    H227568   2.200   0.284   3.716
 9202TIP3   OH227569   6.273   6.384   2.786
 9202TIP3    H127570   6.299   6.388   2.694
 9202TIP3    H227571   6.344   6.337   2.829
 9203TIP3   OH227572   4.785   4.868   2.556
 9203TIP3    H127573   4.690   4.861   2.569
 9203TIP3    H227574   4.817   4.911   2.636
 9204TIP3   OH227575   6.378   1.296   0.447
 9204TIP3    H127576   6.296   1.309   0.495
 9204TIP3    H227577   6.446   1.306   0.514
 9205TIP3   OH227578   3.534   5.262   3.562
 9205TIP3    H127579   3.572   5.177   3.540
 9205TIP3    H227580   3.597   5.302   3.622
 9206TIP3   OH227581   2.248   3.093   3.274
 9206TIP3    H127582   2.189   3.133   3.338
 9206TIP3    H227583   2.227   2.999   3.278
 9207TIP3   OH227584   1.788   3.026   5.510
 9207TIP3    H127585   1.807   2.975   5.432
 9207TIP3    H227586   1.710   2.985   5.548
 9208TIP3   OH227587   6.297   4.688   4.875
 9208TIP3    H127588   6.357   4.748   4.919
 9208TIP3    H227589   6.210   4.722   4.895
 9209TIP3   OH227590   0.589   4.672   4.572
 9209TIP3    H127591   0.607   4.584   4.539
 9209TIP3    H227592   0.651   4.685   4.643
 9210TIP3   OH227593   2.387   0.410   0.616
 9210TIP3    H127594   2.382   0.499   0.650
 9210TIP3    H227595   2.328   0.409   0.540
 9211TIP3   OH227596   3.896   3.623   4.177
 9211TIP3    H127597   3.924   3.586   4.093
 9211TIP3    H227598   3.905   3.551   4.239
 9212TIP3   OH227599   5.739   6.095   5.435
 9212TIP3    H127600   5.691   6.023   5.474
 9212TIP3    H227601   5.829   6.064   5.428
 9213TIP3   OH227602   0.425   3.073   2.518
 9213TIP3    H127603   0.336   3.095   2.544
 9213TIP3    H227604   0.478   3.147   2.547
 9214TIP3   OH227605   1.797   3.005   3.871
 9214TIP3    H127606   1.836   3.019   3.784
 9214TIP3    H227607   1.831   3.078   3.923
 9215TIP3   OH227608   3.618   5.361   0.105
 9215TIP3    H127609   3.534   5.395   0.074
 9215TIP3    H227610   3.598   5.324   0.191
 9216TIP3   OH227611   0.223   3.431   0.929
 9216TIP3    H127612   0.186   3.519   0.938
 9216TIP3    H227613   0.186   3.382   1.002
 9217TIP3   OH227614   4.846   6.078   1.937
 9217TIP3    H127615   4.807   6.145   1.881
 9217TIP3    H227616   4.936   6.069   1.905
 9218TIP3   OH227617   4.550   0.848   1.763
 9218TIP3    H127618   4.485   0.810   1.822
 9218TIP3    H227619   4.502   0.912   1.710
 9219TIP3   OH227620   1.738   4.981   3.182
 9219TIP3    H127621   1.691   5.049   3.230
 9219TIP3    H227622   1.762   5.023   3.099
 9220TIP3   OH227623   6.415   6.193   2.922
 9220TIP3    H127624   6.475   6.130   2.882
 9220TIP3    H227625   6.453   6.213   3.007
 9221TIP3   OH227626   2.363   2.384   3.435
 9221TIP3    H127627   2.372   2.454   3.499
 9221TIP3    H227628   2.355   2.429   3.351
 9222TIP3   OH227629   4.991   2.841   2.360
 9222TIP3    H127630   5.040   2.791   2.295
 9222TIP3    H227631   5.059   2.881   2.415
 9223TIP3   OH227632   3.533   2.545   2.765
 9223TIP3    H127633   3.495   2.462   2.794
 9223TIP3    H227634   3.547   2.594   2.846
 9224TIP3   OH227635   2.514   5.469   3.447
 9224TIP3    H127636   2.530   5.564   3.456
 9224TIP3    H227637   2.420   5.462   3.434
 9225TIP3   OH227638   1.479   2.180   0.833
 9225TIP3    H127639   1.520   2.100   0.866
 9225TIP3    H227640   1.547   2.247   0.844
 9226TIP3   OH227641   1.012   0.119   4.196
 9226TIP3    H127642   0.993   0.171   4.274
 9226TIP3    H227643   1.009   0.028   4.226
 9227TIP3   OH227644   3.239   4.900   4.892
 9227TIP3    H127645   3.150   4.873   4.916
 9227TIP3    H227646   3.246   4.990   4.923
 9228TIP3   OH227647   5.418   1.596   0.599
 9228TIP3    H127648   5.443   1.688   0.589
 9228TIP3    H227649   5.499   1.547   0.584
 9229TIP3   OH227650   5.989   5.640   2.423
 9229TIP3    H127651   5.992   5.545   2.408
 9229TIP3    H227652   5.915   5.653   2.481
 9230TIP3   OH227653   3.814   0.953   2.953
 9230TIP3    H127654   3.903   0.919   2.943
 9230TIP3    H227655   3.758   0.876   2.941
 9231TIP3   OH227656   5.724   2.546   2.371
 9231TIP3    H127657   5.765   2.581   2.293
 9231TIP3    H227658   5.728   2.617   2.435
 9232TIP3   OH227659   3.448   1.090   2.809
 9232TIP3    H127660   3.435   1.005   2.767
 9232TIP3    H227661   3.473   1.069   2.899
 9233TIP3   OH227662   5.596   4.850   2.727
 9233TIP3    H127663   5.564   4.785   2.789
 9233TIP3    H227664   5.543   4.836   2.648
 9234TIP3   OH227665   3.817   5.914   4.304
 9234TIP3    H127666   3.782   5.943   4.220
 9234TIP3    H227667   3.854   5.993   4.343
 9235TIP3   OH227668   5.911   0.854   0.927
 9235TIP3    H127669   5.964   0.817   0.857
 9235TIP3    H227670   5.955   0.825   1.008
 9236TIP3   OH227671   3.225   2.509   0.922
 9236TIP3    H127672   3.202   2.564   0.997
 9236TIP3    H227673   3.274   2.436   0.960
 9237TIP3   OH227674   0.842   3.842   2.966
 9237TIP3    H127675   0.850   3.780   3.038
 9237TIP3    H227676   0.912   3.818   2.905
 9238TIP3   OH227677   0.339   0.567   2.893
 9238TIP3    H127678   0.251   0.569   2.856
 9238TIP3    H227679   0.380   0.648   2.863
 9239TIP3   OH227680   6.309   1.951   1.689
 9239TIP3    H127681   6.301   2.042   1.716
 9239TIP3    H227682   6.402   1.931   1.697
 9240TIP3   OH227683   6.116   2.054   1.305
 9240TIP3    H127684   6.198   2.094   1.334
 9240TIP3    H227685   6.078   2.119   1.246
 9241TIP3   OH227686   3.517   1.559   4.601
 9241TIP3    H127687   3.589   1.616   4.574
 9241TIP3    H227688   3.443   1.586   4.545
 9242TIP3   OH227689   7.116   6.522   0.559
 9242TIP3    H127690   7.044   6.475   0.519
 9242TIP3    H227691   7.193   6.495   0.509
 9243TIP3   OH227692   4.565   3.898   0.639
 9243TIP3    H127693   4.577   3.805   0.620
 9243TIP3    H227694   4.623   3.943   0.578
 9244TIP3   OH227695   1.539   1.918   5.111
 9244TIP3    H127696   1.486   1.841   5.131
 9244TIP3    H227697   1.609   1.885   5.055
 9245TIP3   OH227698   3.852   3.686   5.816
 9245TIP3    H127699   3.875   3.685   5.722
 9245TIP3    H227700   3.785   3.619   5.825
 9246TIP3   OH227701   0.163   2.940   4.420
 9246TIP3    H127702   0.162   2.856   4.467
 9246TIP3    H227703   0.154   3.006   4.489
 9247TIP3   OH227704   6.561   4.609   0.072
 9247TIP3    H127705   6.486   4.661   0.103
 9247TIP3    H227706   6.544   4.599  -0.022
 9248TIP3   OH227707   0.912   4.213   0.933
 9248TIP3    H127708   0.967   4.150   0.887
 9248TIP3    H227709   0.825   4.203   0.894
 9249TIP3   OH227710   6.732   3.695   5.538
 9249TIP3    H127711   6.802   3.732   5.483
 9249TIP3    H227712   6.674   3.770   5.556
 9250TIP3   OH227713   2.956   1.372   5.147
 9250TIP3    H127714   2.951   1.372   5.051
 9250TIP3    H227715   3.031   1.429   5.167
 9251TIP3   OH227716   2.651   3.654   4.032
 9251TIP3    H127717   2.725   3.697   4.076
 9251TIP3    H227718   2.592   3.629   4.104
 9252TIP3   OH227719   1.982   1.725   0.705
 9252TIP3    H127720   1.983   1.771   0.789
 9252TIP3    H227721   1.914   1.769   0.654
 9253TIP3   OH227722   0.712   2.651   1.065
 9253TIP3    H127723   0.669   2.699   0.994
 9253TIP3    H227724   0.769   2.715   1.107
 9254TIP3   OH227725   1.394   2.261   0.231
 9254TIP3    H127726   1.451   2.292   0.302
 9254TIP3    H227727   1.313   2.310   0.242
 9255TIP3   OH227728   1.010   6.626   0.404
 9255TIP3    H127729   1.054   6.684   0.466
 9255TIP3    H227730   1.071   6.553   0.393
 9256TIP3   OH227731   3.970   5.482   2.341
 9256TIP3    H127732   3.881   5.448   2.338
 9256TIP3    H227733   3.988   5.495   2.434
 9257TIP3   OH227734   1.960   4.812   4.050
 9257TIP3    H127735   1.998   4.786   4.134
 9257TIP3    H227736   1.899   4.741   4.028
 9258TIP3   OH227737   6.963   3.103   4.389
 9258TIP3    H127738   6.970   3.193   4.420
 9258TIP3    H227739   6.906   3.060   4.453
 9259TIP3   OH227740   3.875   0.164   5.545
 9259TIP3    H127741   3.860   0.162   5.450
 9259TIP3    H227742   3.949   0.104   5.558
 9260TIP3   OH227743   2.561   6.555   3.792
 9260TIP3    H127744   2.633   6.617   3.780
 9260TIP3    H227745   2.577   6.488   3.726
 9261TIP3   OH227746   5.170   3.261   0.023
 9261TIP3    H127747   5.247   3.296   0.067
 9261TIP3    H227748   5.204   3.199  -0.041
 9262TIP3   OH227749   5.375   6.539   0.209
 9262TIP3    H127750   5.407   6.547   0.299
 9262TIP3    H227751   5.440   6.587   0.156
 9263TIP3   OH227752   0.221   4.538   2.890
 9263TIP3    H127753   0.247   4.480   2.819
 9263TIP3    H227754   0.134   4.507   2.916
 9264TIP3   OH227755   4.033   5.728   4.254
 9264TIP3    H127756   3.953   5.774   4.278
 9264TIP3    H227757   4.032   5.648   4.307
 9265TIP3   OH227758   1.961   6.143   0.887
 9265TIP3    H127759   2.044   6.099   0.868
 9265TIP3    H227760   1.900   6.072   0.908
 9266TIP3   OH227761   3.548   0.676   3.630
 9266TIP3    H127762   3.550   0.722   3.713
 9266TIP3    H227763   3.594   0.734   3.569
 9267TIP3   OH227764   6.861   2.313   5.692
 9267TIP3    H127765   6.825   2.225   5.687
 9267TIP3    H227766   6.867   2.342   5.601
 9268TIP3   OH227767   3.262   1.726   0.934
 9268TIP3    H127768   3.226   1.801   0.981
 9268TIP3    H227769   3.244   1.745   0.842
 9269TIP3   OH227770   4.604   4.005   3.964
 9269TIP3    H127771   4.636   3.930   3.913
 9269TIP3    H227772   4.607   4.078   3.903
 9270TIP3   OH227773   1.436   2.602   2.258
 9270TIP3    H127774   1.353   2.564   2.284
 9270TIP3    H227775   1.466   2.547   2.186
 9271TIP3   OH227776   4.891   4.107   5.717
 9271TIP3    H127777   4.984   4.099   5.735
 9271TIP3    H227778   4.883   4.188   5.667
 9272TIP3   OH227779   0.696   1.102   0.520
 9272TIP3    H127780   0.763   1.143   0.575
 9272TIP3    H227781   0.614   1.126   0.562
 9273TIP3   OH227782   3.894   1.098   4.360
 9273TIP3    H127783   3.873   1.058   4.444
 9273TIP3    H227784   3.886   1.027   4.296
 9274TIP3   OH227785   0.356   5.591   5.044
 9274TIP3    H127786   0.356   5.535   5.122
 9274TIP3    H227787   0.447   5.619   5.035
 9275TIP3   OH227788   1.001   2.385   5.286
 9275TIP3    H127789   1.003   2.341   5.371
 9275TIP3    H227790   0.933   2.339   5.236
 9276TIP3   OH227791   5.747   3.737   4.065
 9276TIP3    H127792   5.707   3.682   4.133
 9276TIP3    H227793   5.718   3.826   4.086
 9277TIP3   OH227794   5.664   0.410   2.475
 9277TIP3    H127795   5.595   0.391   2.412
 9277TIP3    H227796   5.618   0.436   2.555
 9278TIP3   OH227797   5.012   3.878   4.012
 9278TIP3    H127798   5.106   3.884   3.994
 9278TIP3    H227799   5.004   3.807   4.075
 9279TIP3   OH227800   6.121   0.442   3.035
 9279TIP3    H127801   6.206   0.417   3.071
 9279TIP3    H227802   6.141   0.504   2.966
 9280TIP3   OH227803   4.539   5.903   4.228
 9280TIP3    H127804   4.487   5.980   4.254
 9280TIP3    H227805   4.629   5.934   4.230
 9281TIP3   OH227806   4.810   0.052   4.939
 9281TIP3    H127807   4.851  -0.013   4.997
 9281TIP3    H227808   4.803   0.007   4.855
 9282TIP3   OH227809   3.544   4.604   1.247
 9282TIP3    H127810   3.597   4.588   1.326
 9282TIP3    H227811   3.602   4.652   1.189
 9283TIP3   OH227812   6.892   0.519   5.195
 9283TIP3    H127813   6.964   0.582   5.203
 9283TIP3    H227814   6.850   0.541   5.112
 9284TIP3   OH227815   1.953   4.575   5.537
 9284TIP3    H127816   2.031   4.551   5.587
 9284TIP3    H227817   1.963   4.529   5.453
 9285TIP3   OH227818   6.924   1.446   2.927
 9285TIP3    H127819   6.973   1.446   3.009
 9285TIP3    H227820   6.991   1.447   2.859
 9286TIP3   OH227821   3.025   6.795   2.869
 9286TIP3    H127822   3.067   6.843   2.798
 9286TIP3    H227823   3.071   6.711   2.871
 9287TIP3   OH227824   0.383   6.526   4.546
 9287TIP3    H127825   0.416   6.446   4.585
 9287TIP3    H227826   0.328   6.497   4.473
 9288TIP3   OH227827   5.966   3.284   3.655
 9288TIP3    H127828   6.005   3.345   3.717
 9288TIP3    H227829   5.881   3.262   3.694
 9289TIP3   OH227830   0.678   1.984   4.834
 9289TIP3    H127831   0.592   1.961   4.799
 9289TIP3    H227832   0.737   1.979   4.759
 9290TIP3   OH227833   5.498   5.757   3.946
 9290TIP3    H127834   5.570   5.708   3.986
 9290TIP3    H227835   5.454   5.799   4.020
 9291TIP3   OH227836   1.837   3.504   4.384
 9291TIP3    H127837   1.780   3.499   4.462
 9291TIP3    H227838   1.786   3.554   4.321
 9292TIP3   OH227839   4.077   1.450   2.896
 9292TIP3    H127840   3.999   1.445   2.952
 9292TIP3    H227841   4.076   1.538   2.860
 9293TIP3   OH227842   5.910   0.988   3.726
 9293TIP3    H127843   5.889   0.919   3.663
 9293TIP3    H227844   5.853   1.061   3.702
 9294TIP3   OH227845   6.235   1.774   4.628
 9294TIP3    H127846   6.239   1.783   4.533
 9294TIP3    H227847   6.325   1.791   4.657
 9295TIP3   OH227848   4.713   3.584   3.099
 9295TIP3    H127849   4.777   3.573   3.029
 9295TIP3    H227850   4.767   3.600   3.177
 9296TIP3   OH227851   2.237   1.825   2.092
 9296TIP3    H127852   2.170   1.757   2.080
 9296TIP3    H227853   2.260   1.821   2.185
 9297TIP3   OH227854   2.188   4.123   0.185
 9297TIP3    H127855   2.232   4.092   0.106
 9297TIP3    H227856   2.105   4.076   0.187
 9298TIP3   OH227857   2.130   6.759   0.733
 9298TIP3    H127858   2.180   6.724   0.659
 9298TIP3    H227859   2.084   6.835   0.697
 9299TIP3   OH227860   0.950   0.034   3.949
 9299TIP3    H127861   0.856   0.045   3.938
 9299TIP3    H227862   0.968   0.070   4.036
 9300TIP3   OH227863   6.062   1.212   3.678
 9300TIP3    H127864   6.102   1.125   3.674
 9300TIP3    H227865   5.969   1.196   3.690
 9301TIP3   OH227866   1.102   1.535   0.570
 9301TIP3    H127867   1.136   1.493   0.491
 9301TIP3    H227868   1.017   1.570   0.543
 9302TIP3   OH227869   1.675   5.070   2.009
 9302TIP3    H127870   1.601   5.094   2.064
 9302TIP3    H227871   1.639   5.005   1.948
 9303TIP3   OH227872   5.614   4.043   4.946
 9303TIP3    H127873   5.585   4.095   5.021
 9303TIP3    H227874   5.587   3.954   4.968
 9304TIP3   OH227875   0.083   5.492   2.254
 9304TIP3    H127876   0.120   5.408   2.228
 9304TIP3    H227877   0.026   5.516   2.181
 9305TIP3   OH227878   3.569   1.334   2.742
 9305TIP3    H127879   3.508   1.405   2.763
 9305TIP3    H227880   3.520   1.254   2.760
 9306TIP3   OH227881   6.321   4.048   1.345
 9306TIP3    H127882   6.358   4.070   1.430
 9306TIP3    H227883   6.245   3.993   1.365
 9307TIP3   OH227884   4.149   3.242   4.897
 9307TIP3    H127885   4.224   3.299   4.915
 9307TIP3    H227886   4.181   3.182   4.830
 9308TIP3   OH227887   6.908   2.585   4.563
 9308TIP3    H127888   6.815   2.609   4.560
 9308TIP3    H227889   6.933   2.598   4.654
 9309TIP3   OH227890   6.116   2.939   5.260
 9309TIP3    H127891   6.187   2.990   5.299
 9309TIP3    H227892   6.036   2.974   5.300
 9310TIP3   OH227893   1.180   1.929   1.672
 9310TIP3    H127894   1.133   1.898   1.750
 9310TIP3    H227895   1.235   2.000   1.704
 9311TIP3   OH227896   6.188   2.879   5.555
 9311TIP3    H127897   6.233   2.928   5.487
 9311TIP3    H227898   6.211   2.788   5.540
 9312TIP3   OH227899   0.443   5.942   0.421
 9312TIP3    H127900   0.538   5.929   0.424
 9312TIP3    H227901   0.431   6.037   0.427
 9313TIP3   OH227902   3.918   3.412   4.369
 9313TIP3    H127903   3.948   3.442   4.455
 9313TIP3    H227904   3.940   3.319   4.367
 9314TIP3   OH227905   5.921   4.732   5.306
 9314TIP3    H127906   5.879   4.658   5.349
 9314TIP3    H227907   5.928   4.798   5.375
 9315TIP3   OH227908   4.417   6.047   3.070
 9315TIP3    H127909   4.403   6.021   2.979
 9315TIP3    H227910   4.426   6.143   3.066
 9316TIP3   OH227911   5.677   4.929   0.751
 9316TIP3    H127912   5.651   5.010   0.796
 9316TIP3    H227913   5.597   4.900   0.707
 9317TIP3   OH227914   3.541   6.790   4.581
 9317TIP3    H127915   3.532   6.772   4.675
 9317TIP3    H227916   3.453   6.812   4.552
 9318TIP3   OH227917   2.923   4.662   3.540
 9318TIP3    H127918   2.873   4.694   3.614
 9318TIP3    H227919   2.950   4.574   3.565
 9319TIP3   OH227920   1.140   2.850   4.952
 9319TIP3    H127921   1.164   2.809   5.035
 9319TIP3    H227922   1.221   2.855   4.902
 9320TIP3   OH227923   6.269   0.841   2.384
 9320TIP3    H127924   6.346   0.873   2.337
 9320TIP3    H227925   6.196   0.890   2.345
 9321TIP3   OH227926   6.603   2.053   2.618
 9321TIP3    H127927   6.610   2.099   2.702
 9321TIP3    H227928   6.578   1.964   2.641
 9322TIP3   OH227929   3.318   6.320   2.184
 9322TIP3    H127930   3.315   6.291   2.275
 9322TIP3    H227931   3.227   6.339   2.161
 9323TIP3   OH227932   3.407   3.688   1.524
 9323TIP3    H127933   3.493   3.675   1.563
 9323TIP3    H227934   3.358   3.609   1.547
 9324TIP3   OH227935   7.146   5.840   5.536
 9324TIP3    H127936   7.203   5.897   5.586
 9324TIP3    H227937   7.114   5.895   5.464
 9325TIP3   OH227938   6.255   2.770   1.802
 9325TIP3    H127939   6.300   2.811   1.875
 9325TIP3    H227940   6.295   2.808   1.724
 9326TIP3   OH227941   4.431   4.063   0.420
 9326TIP3    H127942   4.376   4.102   0.488
 9326TIP3    H227943   4.485   3.999   0.467
 9327TIP3   OH227944   0.753   2.256   4.924
 9327TIP3    H127945   0.768   2.170   4.964
 9327TIP3    H227946   0.706   2.305   4.991
 9328TIP3   OH227947   4.528   2.205   5.814
 9328TIP3    H127948   4.588   2.175   5.745
 9328TIP3    H227949   4.444   2.215   5.770
 9329TIP3   OH227950   1.718   5.082   0.237
 9329TIP3    H127951   1.687   5.104   0.149
 9329TIP3    H227952   1.730   5.166   0.280
 9330TIP3   OH227953   5.790   5.253   5.505
 9330TIP3    H127954   5.770   5.274   5.414
 9330TIP3    H227955   5.731   5.181   5.527
 9331TIP3   OH227956   3.998   5.394   0.779
 9331TIP3    H127957   4.019   5.488   0.778
 9331TIP3    H227958   4.038   5.362   0.860
 9332TIP3   OH227959   1.446   4.865   4.638
 9332TIP3    H127960   1.461   4.923   4.563
 9332TIP3    H227961   1.510   4.795   4.628
 9333TIP3   OH227962   3.816   5.725   1.213
 9333TIP3    H127963   3.908   5.749   1.201
 9333TIP3    H227964   3.815   5.629   1.207
 9334TIP3   OH227965   2.468   0.318   3.963
 9334TIP3    H127966   2.538   0.276   4.013
 9334TIP3    H227967   2.462   0.406   4.000
 9335TIP3   OH227968   0.241   6.537   5.349
 9335TIP3    H127969   0.255   6.465   5.288
 9335TIP3    H227970   0.278   6.614   5.305
 9336TIP3   OH227971   5.748   1.392   5.305
 9336TIP3    H127972   5.686   1.451   5.261
 9336TIP3    H227973   5.693   1.321   5.338
 9337TIP3   OH227974   4.450   4.597   1.545
 9337TIP3    H127975   4.426   4.521   1.493
 9337TIP3    H227976   4.516   4.642   1.493
 9338TIP3   OH227977   0.804   6.608   2.822
 9338TIP3    H127978   0.872   6.567   2.876
 9338TIP3    H227979   0.852   6.658   2.756
 9339TIP3   OH227980   6.444   5.262   4.461
 9339TIP3    H127981   6.424   5.355   4.475
 9339TIP3    H227982   6.374   5.231   4.402
 9340TIP3   OH227983   4.557   1.478   5.388
 9340TIP3    H127984   4.478   1.426   5.405
 9340TIP3    H227985   4.611   1.421   5.333
 9341TIP3   OH227986   2.264   2.444   2.973
 9341TIP3    H127987   2.231   2.534   2.964
 9341TIP3    H227988   2.329   2.450   3.043
 9342TIP3   OH227989   6.640   1.177   0.602
 9342TIP3    H127990   6.688   1.207   0.525
 9342TIP3    H227991   6.667   1.086   0.615
 9343TIP3   OH227992   2.822   0.206   2.895
 9343TIP3    H127993   2.794   0.245   2.812
 9343TIP3    H227994   2.915   0.228   2.901
 9344TIP3   OH227995   5.768   2.302   4.307
 9344TIP3    H127996   5.862   2.320   4.301
 9344TIP3    H227997   5.761   2.234   4.374
 9345TIP3   OH227998   6.129   0.870   1.094
 9345TIP3    H127999   6.217   0.889   1.126
 9345TIP3    H228000   6.094   0.956   1.070
 9346TIP3   OH228001   1.954   4.469   3.707
 9346TIP3    H128002   1.928   4.502   3.793
 9346TIP3    H228003   1.980   4.547   3.658
 9347TIP3   OH228004   2.159   4.251   4.118
 9347TIP3    H128005   2.181   4.332   4.072
 9347TIP3    H228006   2.124   4.279   4.202
 9348TIP3   OH228007   0.585   5.474   3.316
 9348TIP3    H128008   0.557   5.565   3.312
 9348TIP3    H228009   0.515   5.425   3.272
 9349TIP3   OH228010   2.112   5.146   1.324
 9349TIP3    H128011   2.079   5.147   1.233
 9349TIP3    H228012   2.188   5.089   1.321
 9350TIP3   OH228013   2.219   1.172   3.645
 9350TIP3    H128014   2.145   1.210   3.694
 9350TIP3    H228015   2.297   1.203   3.691
 9351TIP3   OH228016   3.300   3.612   2.071
 9351TIP3    H128017   3.375   3.629   2.128
 9351TIP3    H228018   3.310   3.675   2.000
 9352TIP3   OH228019   3.765   6.068   1.631
 9352TIP3    H128020   3.687   6.119   1.655
 9352TIP3    H228021   3.777   6.085   1.537
 9353TIP3   OH228022   1.678   5.092   3.799
 9353TIP3    H128023   1.699   5.183   3.779
 9353TIP3    H228024   1.695   5.083   3.892
 9354TIP3   OH228025   6.940   0.076   5.791
 9354TIP3    H128026   6.912  -0.015   5.792
 9354TIP3    H228027   7.020   0.077   5.843
 9355TIP3   OH228028   6.102   3.330   1.688
 9355TIP3    H128029   6.099   3.379   1.605
 9355TIP3    H228030   6.034   3.263   1.679
 9356TIP3   OH228031   5.556   1.007   3.850
 9356TIP3    H128032   5.527   0.984   3.938
 9356TIP3    H228033   5.593   1.095   3.859
 9357TIP3   OH228034   6.242   2.409   4.628
 9357TIP3    H128035   6.147   2.415   4.619
 9357TIP3    H228036   6.262   2.316   4.619
 9358TIP3   OH228037   1.405   3.604   1.028
 9358TIP3    H128038   1.434   3.679   0.976
 9358TIP3    H228039   1.446   3.618   1.114
 9359TIP3   OH228040   2.790   3.570   4.553
 9359TIP3    H128041   2.791   3.512   4.477
 9359TIP3    H228042   2.774   3.657   4.516
 9360TIP3   OH228043   3.989   1.970   4.881
 9360TIP3    H128044   4.024   1.894   4.834
 9360TIP3    H228045   4.066   2.021   4.907
 9361TIP3   OH228046   5.929   5.331   4.122
 9361TIP3    H128047   5.974   5.354   4.204
 9361TIP3    H228048   5.880   5.252   4.144
 9362TIP3   OH228049   4.751   3.126   3.257
 9362TIP3    H128050   4.729   3.088   3.342
 9362TIP3    H228051   4.826   3.184   3.275
 9363TIP3   OH228052   6.504   1.614   1.622
 9363TIP3    H128053   6.477   1.704   1.640
 9363TIP3    H228054   6.560   1.591   1.697
 9364TIP3   OH228055   3.132   3.306   3.972
 9364TIP3    H128056   3.126   3.385   3.918
 9364TIP3    H228057   3.173   3.241   3.915
 9365TIP3   OH228058   5.251   6.602   1.485
 9365TIP3    H128059   5.197   6.655   1.545
 9365TIP3    H228060   5.310   6.665   1.444
 9366TIP3   OH228061   3.496   0.796   0.905
 9366TIP3    H128062   3.469   0.715   0.949
 9366TIP3    H228063   3.531   0.851   0.975
 9367TIP3   OH228064   3.881   3.615   0.967
 9367TIP3    H128065   3.866   3.529   1.006
 9367TIP3    H228066   3.838   3.610   0.881
 9368TIP3   OH228067   5.528   5.164   1.399
 9368TIP3    H128068   5.434   5.151   1.398
 9368TIP3    H228069   5.539   5.260   1.401
 9369TIP3   OH228070   1.169   6.088   1.918
 9369TIP3    H128071   1.252   6.040   1.923
 9369TIP3    H228072   1.103   6.021   1.900
 9370TIP3   OH228073   4.630   0.443   5.518
 9370TIP3    H128074   4.662   0.354   5.533
 9370TIP3    H228075   4.546   0.447   5.564
 9371TIP3   OH228076   1.117   6.216   4.139
 9371TIP3    H128077   1.159   6.210   4.225
 9371TIP3    H228078   1.162   6.289   4.096
 9372TIP3   OH228079   4.447   1.735   5.386
 9372TIP3    H128080   4.508   1.782   5.330
 9372TIP3    H228081   4.478   1.644   5.385
 9373TIP3   OH228082   2.855   3.393   4.375
 9373TIP3    H128083   2.854   3.402   4.280
 9373TIP3    H228084   2.948   3.383   4.397
 9374TIP3   OH228085   3.045   0.872   4.805
 9374TIP3    H128086   3.084   0.895   4.720
 9374TIP3    H228087   3.107   0.908   4.869
 9375TIP3   OH228088   0.588   4.201   3.712
 9375TIP3    H128089   0.602   4.295   3.697
 9375TIP3    H228090   0.674   4.162   3.701
 9376TIP3   OH228091   0.405   4.025   1.736
 9376TIP3    H128092   0.410   4.119   1.719
 9376TIP3    H228093   0.348   3.991   1.667
 9377TIP3   OH228094   5.291   5.906   2.366
 9377TIP3    H128095   5.258   5.827   2.408
 9377TIP3    H228096   5.240   5.977   2.406
 9378TIP3   OH228097   1.181   2.089   4.366
 9378TIP3    H128098   1.086   2.089   4.383
 9378TIP3    H228099   1.220   2.112   4.450
 9379TIP3   OH228100   0.272   4.616   3.670
 9379TIP3    H128101   0.314   4.671   3.736
 9379TIP3    H228102   0.331   4.541   3.660
 9380TIP3   OH228103   6.806   5.892   0.554
 9380TIP3    H128104   6.860   5.944   0.614
 9380TIP3    H228105   6.730   5.866   0.607
 9381TIP3   OH228106   5.008   6.795   0.278
 9381TIP3    H128107   5.056   6.749   0.209
 9381TIP3    H228108   4.944   6.849   0.232
 9382TIP3   OH228109   0.897   6.519   3.431
 9382TIP3    H128110   0.900   6.615   3.435
 9382TIP3    H228111   0.975   6.491   3.477
 9383TIP3   OH228112   7.168   1.654   5.908
 9383TIP3    H128113   7.110   1.719   5.867
 9383TIP3    H228114   7.195   1.598   5.836
 9384TIP3   OH228115   4.710   0.667   3.631
 9384TIP3    H128116   4.691   0.674   3.537
 9384TIP3    H228117   4.789   0.613   3.635
 9385TIP3   OH228118   3.244   5.285   5.827
 9385TIP3    H128119   3.263   5.378   5.820
 9385TIP3    H228120   3.174   5.280   5.892
 9386TIP3   OH228121   1.800   2.260   0.141
 9386TIP3    H128122   1.865   2.208   0.095
 9386TIP3    H228123   1.739   2.288   0.073
 9387TIP3   OH228124   2.170   4.361   2.780
 9387TIP3    H128125   2.139   4.447   2.751
 9387TIP3    H228126   2.254   4.379   2.822
 9388TIP3   OH228127   2.561   2.095   0.255
 9388TIP3    H128128   2.553   2.047   0.338
 9388TIP3    H228129   2.480   2.144   0.247
 9389TIP3   OH228130   3.166   4.991   5.669
 9389TIP3    H128131   3.252   5.031   5.686
 9389TIP3    H228132   3.183   4.897   5.667
 9390TIP3   OH228133   4.604   3.007   1.354
 9390TIP3    H128134   4.676   2.955   1.319
 9390TIP3    H228135   4.551   2.944   1.403
 9391TIP3   OH228136   5.389   6.444   5.573
 9391TIP3    H128137   5.433   6.359   5.564
 9391TIP3    H228138   5.310   6.425   5.623
 9392TIP3   OH228139   6.482   3.718   3.058
 9392TIP3    H128140   6.533   3.638   3.070
 9392TIP3    H228141   6.485   3.761   3.144
 9393TIP3   OH228142   0.529   4.942   0.328
 9393TIP3    H128143   0.596   4.966   0.391
 9393TIP3    H228144   0.539   4.847   0.317
 9394TIP3   OH228145   6.983   2.524   1.293
 9394TIP3    H128146   6.929   2.603   1.291
 9394TIP3    H228147   7.047   2.541   1.362
 9395TIP3   OH228148   3.658   2.914   2.293
 9395TIP3    H128149   3.623   2.929   2.380
 9395TIP3    H228150   3.624   2.986   2.240
 9396TIP3   OH228151   3.712   3.245   0.036
 9396TIP3    H128152   3.769   3.218  -0.035
 9396TIP3    H228153   3.715   3.341   0.034
 9397TIP3   OH228154   6.641   1.206   0.056
 9397TIP3    H128155   6.692   1.209   0.137
 9397TIP3    H228156   6.559   1.248   0.078
 9398TIP3   OH228157   2.275   3.913   1.040
 9398TIP3    H128158   2.258   3.931   0.948
 9398TIP3    H228159   2.333   3.983   1.068
 9399TIP3   OH228160   5.899   6.394   4.181
 9399TIP3    H128161   5.931   6.389   4.091
 9399TIP3    H228162   5.923   6.309   4.219
 9400TIP3   OH228163   3.827   4.114   4.843
 9400TIP3    H128164   3.762   4.053   4.807
 9400TIP3    H228165   3.907   4.096   4.794
 9401TIP3   OH228166   3.402   6.811   2.584
 9401TIP3    H128167   3.346   6.796   2.660
 9401TIP3    H228168   3.429   6.724   2.557
 9402TIP3   OH228169   0.331   4.081   2.029
 9402TIP3    H128170   0.303   4.048   1.944
 9402TIP3    H228171   0.424   4.101   2.017
 9403TIP3   OH228172   0.462   0.468   2.190
 9403TIP3    H128173   0.387   0.527   2.190
 9403TIP3    H228174   0.472   0.441   2.099
 9404TIP3   OH228175   0.608   0.920   1.710
 9404TIP3    H128176   0.578   0.834   1.741
 9404TIP3    H228177   0.703   0.916   1.716
 9405TIP3   OH228178   2.499   2.581   2.563
 9405TIP3    H128179   2.439   2.632   2.618
 9405TIP3    H228180   2.490   2.619   2.476
 9406TIP3   OH228181   4.505   5.589   1.906
 9406TIP3    H128182   4.568   5.623   1.842
 9406TIP3    H228183   4.506   5.653   1.977
 9407TIP3   OH228184   1.796   6.609   3.845
 9407TIP3    H128185   1.726   6.606   3.910
 9407TIP3    H228186   1.814   6.517   3.825
 9408TIP3   OH228187   0.711   4.772   4.202
 9408TIP3    H128188   0.621   4.747   4.221
 9408TIP3    H228189   0.721   4.757   4.108
 9409TIP3   OH228190   5.264   0.985   5.376
 9409TIP3    H128191   5.258   1.075   5.346
 9409TIP3    H228192   5.356   0.962   5.365
 9410TIP3   OH228193   4.555   0.622   2.971
 9410TIP3    H128194   4.596   0.564   2.906
 9410TIP3    H228195   4.601   0.705   2.961
 9411TIP3   OH228196   4.545   3.589   2.303
 9411TIP3    H128197   4.550   3.573   2.397
 9411TIP3    H228198   4.625   3.638   2.283
 9412TIP3   OH228199   6.621   4.414   4.305
 9412TIP3    H128200   6.626   4.327   4.344
 9412TIP3    H228201   6.646   4.473   4.376
 9413TIP3   OH228202   5.299   5.369   0.111
 9413TIP3    H128203   5.310   5.409   0.025
 9413TIP3    H228204   5.388   5.347   0.139
 9414TIP3   OH228205   0.920   4.140   0.570
 9414TIP3    H128206   0.834   4.148   0.529
 9414TIP3    H228207   0.957   4.228   0.566
 9415TIP3   OH228208   5.919   3.270   2.309
 9415TIP3    H128209   5.916   3.186   2.355
 9415TIP3    H228210   5.853   3.323   2.353
 9416TIP3   OH228211   2.457   0.864   5.457
 9416TIP3    H128212   2.419   0.783   5.491
 9416TIP3    H228213   2.550   0.843   5.446
 9417TIP3   OH228214   3.652   2.163   2.094
 9417TIP3    H128215   3.584   2.226   2.119
 9417TIP3    H228216   3.635   2.086   2.149
 9418TIP3   OH228217   2.715   3.557   1.430
 9418TIP3    H128218   2.801   3.521   1.450
 9418TIP3    H228219   2.715   3.569   1.335
 9419TIP3   OH228220   6.650   0.821   0.530
 9419TIP3    H128221   6.574   0.815   0.588
 9419TIP3    H228222   6.694   0.736   0.539
 9420TIP3   OH228223   6.516   6.723   0.617
 9420TIP3    H128224   6.424   6.748   0.615
 9420TIP3    H228225   6.555   6.779   0.684
 9421TIP3   OH228226   6.543   0.204   4.663
 9421TIP3    H128227   6.447   0.202   4.668
 9421TIP3    H228228   6.565   0.295   4.684
 9422TIP3   OH228229   1.604   1.258   0.883
 9422TIP3    H128230   1.685   1.308   0.877
 9422TIP3    H228231   1.560   1.294   0.961
 9423TIP3   OH228232   5.873   3.259   3.389
 9423TIP3    H128233   5.898   3.324   3.454
 9423TIP3    H228234   5.778   3.261   3.387
 9424TIP3   OH228235   5.173   1.676   2.922
 9424TIP3    H128236   5.187   1.755   2.975
 9424TIP3    H228237   5.230   1.610   2.961
 9425TIP3   OH228238   0.109   2.360   1.671
 9425TIP3    H128239   0.125   2.273   1.706
 9425TIP3    H228240   0.158   2.419   1.729
 9426TIP3   OH228241   1.389   1.767   1.536
 9426TIP3    H128242   1.299   1.778   1.563
 9426TIP3    H228243   1.432   1.724   1.610
 9427TIP3   OH228244   5.610   3.914   1.536
 9427TIP3    H128245   5.700   3.883   1.546
 9427TIP3    H228246   5.556   3.836   1.547
 9428TIP3   OH228247   0.975   3.150   4.720
 9428TIP3    H128248   1.057   3.179   4.761
 9428TIP3    H228249   0.910   3.213   4.750
 9429TIP3   OH228250   3.975   6.110   0.423
 9429TIP3    H128251   3.926   6.143   0.348
 9429TIP3    H228252   3.961   6.176   0.491
 9430TIP3   OH228253   6.445   1.569   4.281
 9430TIP3    H128254   6.384   1.521   4.224
 9430TIP3    H228255   6.469   1.646   4.229
 9431TIP3   OH228256   1.726   0.011   5.163
 9431TIP3    H128257   1.784   0.073   5.208
 9431TIP3    H228258   1.638   0.040   5.188
 9432TIP3   OH228259   6.904   6.050   5.540
 9432TIP3    H128260   6.953   6.070   5.620
 9432TIP3    H228261   6.971   6.036   5.473
 9433TIP3   OH228262   4.570   6.181   5.837
 9433TIP3    H128263   4.627   6.197   5.913
 9433TIP3    H228264   4.491   6.231   5.856
 9434TIP3   OH228265   4.890   4.451   5.023
 9434TIP3    H128266   4.935   4.370   5.045
 9434TIP3    H228267   4.954   4.502   4.973
 9435TIP3   OH228268   1.888   1.213   3.152
 9435TIP3    H128269   1.890   1.241   3.243
 9435TIP3    H228270   1.841   1.283   3.106
 9436TIP3   OH228271   0.911   6.512   4.181
 9436TIP3    H128272   0.884   6.426   4.148
 9436TIP3    H228273   0.986   6.492   4.237
 9437TIP3   OH228274   4.832   5.030   3.620
 9437TIP3    H128275   4.779   5.058   3.694
 9437TIP3    H228276   4.770   5.021   3.547
 9438TIP3   OH228277   7.195   0.594   2.808
 9438TIP3    H128278   7.164   0.590   2.899
 9438TIP3    H228279   7.205   0.687   2.790
 9439TIP3   OH228280   4.079   1.191   3.381
 9439TIP3    H128281   4.100   1.189   3.287
 9439TIP3    H228282   3.984   1.202   3.385
 9440TIP3   OH228283   3.203   5.021   0.041
 9440TIP3    H128284   3.156   4.975  -0.028
 9440TIP3    H228285   3.253   5.089  -0.005
 9441TIP3   OH228286   4.045   1.285   1.684
 9441TIP3    H128287   4.140   1.273   1.687
 9441TIP3    H228288   4.012   1.207   1.639
 9442TIP3   OH228289   1.694   5.764   4.908
 9442TIP3    H128290   1.685   5.809   4.824
 9442TIP3    H228291   1.772   5.709   4.897
 9443TIP3   OH228292   3.926   6.314   1.535
 9443TIP3    H128293   3.885   6.249   1.476
 9443TIP3    H228294   3.854   6.373   1.558
 9444TIP3   OH228295   4.175   2.330   5.148
 9444TIP3    H128296   4.210   2.382   5.076
 9444TIP3    H228297   4.081   2.322   5.128
 9445TIP3   OH228298   4.139   2.366   3.483
 9445TIP3    H128299   4.225   2.402   3.505
 9445TIP3    H228300   4.093   2.438   3.440
 9446TIP3   OH228301   5.449   4.222   1.094
 9446TIP3    H128302   5.394   4.283   1.144
 9446TIP3    H228303   5.449   4.142   1.147
 9447TIP3   OH228304   6.378   5.827   3.702
 9447TIP3    H128305   6.470   5.838   3.723
 9447TIP3    H228306   6.332   5.870   3.775
 9448TIP3   OH228307   1.859   4.621   3.189
 9448TIP3    H128308   1.801   4.641   3.115
 9448TIP3    H228309   1.891   4.707   3.218
 9449TIP3   OH228310   4.393   2.743   3.609
 9449TIP3    H128311   4.475   2.788   3.589
 9449TIP3    H228312   4.325   2.798   3.571
 9450TIP3   OH228313   7.066   1.675   4.411
 9450TIP3    H128314   7.071   1.593   4.362
 9450TIP3    H228315   6.974   1.700   4.407
 9451TIP3   OH228316   4.603   2.722   3.093
 9451TIP3    H128317   4.532   2.785   3.081
 9451TIP3    H228318   4.683   2.775   3.086
 9452TIP3   OH228319   3.115   2.799   3.756
 9452TIP3    H128320   3.149   2.833   3.839
 9452TIP3    H228321   3.140   2.706   3.757
 9453TIP3   OH228322   6.122   2.672   3.142
 9453TIP3    H128323   6.126   2.714   3.228
 9453TIP3    H228324   6.193   2.713   3.092
 9454TIP3   OH228325   0.722   3.709   5.136
 9454TIP3    H128326   0.687   3.647   5.200
 9454TIP3    H228327   0.747   3.655   5.062
 9455TIP3   OH228328   0.870   4.502   2.252
 9455TIP3    H128329   0.776   4.519   2.250
 9455TIP3    H228330   0.902   4.559   2.323
 9456TIP3   OH228331   1.733   0.872   2.177
 9456TIP3    H128332   1.778   0.798   2.218
 9456TIP3    H228333   1.641   0.859   2.201
 9457TIP3   OH228334   6.644   2.943   0.686
 9457TIP3    H128335   6.659   3.036   0.702
 9457TIP3    H228336   6.729   2.910   0.656
 9458TIP3   OH228337   3.373   1.755   3.241
 9458TIP3    H128338   3.348   1.748   3.333
 9458TIP3    H228339   3.432   1.830   3.237
 9459TIP3   OH228340   2.849   5.989   4.928
 9459TIP3    H128341   2.880   6.030   5.008
 9459TIP3    H228342   2.770   6.040   4.905
 9460TIP3   OH228343   1.323   1.012   0.060
 9460TIP3    H128344   1.352   1.102   0.077
 9460TIP3    H228345   1.288   0.981   0.143
 9461TIP3   OH228346   5.428   3.960   1.192
 9461TIP3    H128347   5.339   3.960   1.226
 9461TIP3    H228348   5.473   3.893   1.244
 9462TIP3   OH228349   3.064   3.463   2.435
 9462TIP3    H128350   3.072   3.424   2.522
 9462TIP3    H228351   3.035   3.553   2.451
 9463TIP3   OH228352   6.241   6.341   0.825
 9463TIP3    H128353   6.262   6.281   0.753
 9463TIP3    H228354   6.294   6.309   0.898
 9464TIP3   OH228355   3.471   2.249   4.896
 9464TIP3    H128356   3.403   2.308   4.862
 9464TIP3    H228357   3.429   2.202   4.968
 9465TIP3   OH228358   0.574   0.365   1.565
 9465TIP3    H128359   0.516   0.300   1.605
 9465TIP3    H228360   0.601   0.421   1.637
 9466TIP3   OH228361   0.909   5.147   4.650
 9466TIP3    H128362   0.927   5.229   4.605
 9466TIP3    H228363   0.983   5.137   4.711
 9467TIP3   OH228364   2.360   3.876   4.119
 9467TIP3    H128365   2.388   3.870   4.028
 9467TIP3    H228366   2.438   3.907   4.166
 9468TIP3   OH228367   2.218   5.389   5.131
 9468TIP3    H128368   2.135   5.408   5.087
 9468TIP3    H228369   2.229   5.461   5.193
 9469TIP3   OH228370   6.490   6.032   1.521
 9469TIP3    H128371   6.446   6.112   1.550
 9469TIP3    H228372   6.419   5.973   1.495
 9470TIP3   OH228373   0.899   2.450   0.584
 9470TIP3    H128374   0.989   2.481   0.594
 9470TIP3    H228375   0.871   2.484   0.499
 9471TIP3   OH228376   0.289   0.257   3.007
 9471TIP3    H128377   0.329   0.244   3.093
 9471TIP3    H228378   0.315   0.346   2.981
 9472TIP3   OH228379   5.074   0.184   0.143
 9472TIP3    H128380   5.060   0.252   0.209
 9472TIP3    H228381   5.078   0.103   0.193
 9473TIP3   OH228382   0.643   3.204   2.838
 9473TIP3    H128383   0.712   3.223   2.774
 9473TIP3    H228384   0.562   3.213   2.790
 9474TIP3   OH228385   4.147   1.383   3.639
 9474TIP3    H128386   4.208   1.411   3.707
 9474TIP3    H228387   4.115   1.464   3.601
 9475TIP3   OH228388   1.176   3.182   3.631
 9475TIP3    H128389   1.215   3.103   3.668
 9475TIP3    H228390   1.251   3.239   3.614
 9476TIP3   OH228391   4.074   5.220   0.407
 9476TIP3    H128392   4.034   5.157   0.467
 9476TIP3    H228393   4.012   5.226   0.334
 9477TIP3   OH228394   1.824   3.664   5.471
 9477TIP3    H128395   1.765   3.624   5.535
 9477TIP3    H228396   1.775   3.740   5.438
 9478TIP3   OH228397   4.328  -0.003   0.975
 9478TIP3    H128398   4.254   0.036   0.927
 9478TIP3    H228399   4.395   0.065   0.975
 9479TIP3   OH228400   3.777   0.548   1.705
 9479TIP3    H128401   3.716   0.555   1.631
 9479TIP3    H228402   3.731   0.491   1.768
 9480TIP3   OH228403   3.305   4.814   4.600
 9480TIP3    H128404   3.301   4.903   4.635
 9480TIP3    H228405   3.215   4.794   4.574
 9481TIP3   OH228406   6.434   4.775   5.748
 9481TIP3    H128407   6.442   4.680   5.739
 9481TIP3    H228408   6.372   4.800   5.680
 9482TIP3   OH228409   6.173   0.026   2.435
 9482TIP3    H128410   6.158   0.104   2.382
 9482TIP3    H228411   6.133  -0.046   2.385
 9483TIP3   OH228412   2.255   5.597   2.671
 9483TIP3    H128413   2.214   5.515   2.644
 9483TIP3    H228414   2.210   5.664   2.619
 9484TIP3   OH228415   0.897   2.947   1.706
 9484TIP3    H128416   0.944   2.864   1.717
 9484TIP3    H228417   0.953   3.012   1.748
 9485TIP3   OH228418   0.140   1.168   5.483
 9485TIP3    H128419   0.142   1.156   5.578
 9485TIP3    H228420   0.075   1.237   5.468
 9486TIP3   OH228421   5.272   4.848   3.974
 9486TIP3    H128422   5.275   4.756   3.949
 9486TIP3    H228423   5.187   4.880   3.943
 9487TIP3   OH228424   0.127   2.963   2.586
 9487TIP3    H128425   0.104   2.912   2.664
 9487TIP3    H228426   0.147   3.050   2.620
 9488TIP3   OH228427   4.148   6.351   1.101
 9488TIP3    H128428   4.187   6.411   1.164
 9488TIP3    H228429   4.159   6.396   1.016
 9489TIP3   OH228430   3.975   5.828   5.322
 9489TIP3    H128431   3.920   5.749   5.316
 9489TIP3    H228432   3.937   5.888   5.259
 9490TIP3   OH228433   5.934   3.545   0.857
 9490TIP3    H128434   5.891   3.535   0.942
 9490TIP3    H228435   5.916   3.636   0.832
 9491TIP3   OH228436   3.149   6.661   5.167
 9491TIP3    H128437   3.183   6.747   5.144
 9491TIP3    H228438   3.151   6.659   5.263
 9492TIP3   OH228439   5.552   6.543   1.720
 9492TIP3    H128440   5.479   6.604   1.732
 9492TIP3    H228441   5.598   6.544   1.804
 9493TIP3   OH228442   3.693   1.515   0.530
 9493TIP3    H128443   3.630   1.564   0.582
 9493TIP3    H228444   3.764   1.494   0.591
 9494TIP3   OH228445   3.182   3.005   3.953
 9494TIP3    H128446   3.262   3.053   3.975
 9494TIP3    H228447   3.127   3.015   4.030
 9495TIP3   OH228448   6.408   2.844   0.378
 9495TIP3    H128449   6.468   2.772   0.402
 9495TIP3    H228450   6.333   2.800   0.339
 9496TIP3   OH228451   4.322   5.255   0.759
 9496TIP3    H128452   4.370   5.330   0.794
 9496TIP3    H228453   4.269   5.292   0.688
 9497TIP3   OH228454   6.419   2.074   1.201
 9497TIP3    H128455   6.476   2.090   1.127
 9497TIP3    H228456   6.377   2.158   1.219
 9498TIP3   OH228457   5.649   4.327   0.878
 9498TIP3    H128458   5.580   4.309   0.814
 9498TIP3    H228459   5.602   4.367   0.952
 9499TIP3   OH228460   6.533   5.706   5.427
 9499TIP3    H128461   6.591   5.765   5.475
 9499TIP3    H228462   6.591   5.661   5.364
 9500TIP3   OH228463   1.586   6.606   4.050
 9500TIP3    H128464   1.651   6.607   4.120
 9500TIP3    H228465   1.546   6.693   4.054
 9501TIP3   OH228466   0.779   2.143   5.265
 9501TIP3    H128467   0.745   2.226   5.300
 9501TIP3    H228468   0.704   2.103   5.221
 9502TIP3   OH228469   3.237   1.758   5.055
 9502TIP3    H128470   3.175   1.758   4.981
 9502TIP3    H228471   3.198   1.817   5.119
 9503TIP3   OH228472   4.060   0.860   0.487
 9503TIP3    H128473   4.049   0.787   0.426
 9503TIP3    H228474   3.980   0.861   0.539
 9504TIP3   OH228475   2.955   3.686   0.578
 9504TIP3    H128476   2.940   3.770   0.535
 9504TIP3    H228477   2.868   3.659   0.608
 9505TIP3   OH228478   1.573   5.992   2.853
 9505TIP3    H128479   1.540   6.081   2.844
 9505TIP3    H228480   1.611   5.971   2.768
 9506TIP3   OH228481   1.509   1.538   5.002
 9506TIP3    H128482   1.466   1.522   4.918
 9506TIP3    H228483   1.598   1.504   4.990
 9507TIP3   OH228484   6.708   5.838   5.584
 9507TIP3    H128485   6.734   5.928   5.561
 9507TIP3    H228486   6.783   5.804   5.632
 9508TIP3   OH228487   0.956   1.262   5.241
 9508TIP3    H128488   1.047   1.233   5.237
 9508TIP3    H228489   0.945   1.318   5.164
 9509TIP3   OH228490   0.151   1.408   1.852
 9509TIP3    H128491   0.170   1.318   1.878
 9509TIP3    H228492   0.076   1.432   1.906
 9510TIP3   OH228493   1.790   1.472   3.580
 9510TIP3    H128494   1.754   1.540   3.637
 9510TIP3    H228495   1.715   1.441   3.529
 9511TIP3   OH228496   5.022   5.259   3.928
 9511TIP3    H128497   4.950   5.238   3.988
 9511TIP3    H228498   5.101   5.242   3.979
 9512TIP3   OH228499   4.225   1.608   2.565
 9512TIP3    H128500   4.219   1.513   2.572
 9512TIP3    H228501   4.152   1.640   2.619
 9513TIP3   OH228502   6.030   4.127   2.825
 9513TIP3    H128503   5.938   4.100   2.832
 9513TIP3    H228504   6.077   4.065   2.880
 9514TIP3   OH228505   1.449   2.850   1.583
 9514TIP3    H128506   1.490   2.869   1.667
 9514TIP3    H228507   1.521   2.847   1.520
 9515TIP3   OH228508   6.613   1.208   1.067
 9515TIP3    H128509   6.632   1.126   1.020
 9515TIP3    H228510   6.553   1.182   1.136
 9516TIP3   OH228511   5.061   0.942   3.478
 9516TIP3    H128512   4.989   0.908   3.424
 9516TIP3    H228513   5.058   1.036   3.465
 9517TIP3   OH228514   5.263   5.666   2.136
 9517TIP3    H128515   5.211   5.746   2.133
 9517TIP3    H228516   5.343   5.687   2.088
 9518TIP3   OH228517   4.904   6.417   2.888
 9518TIP3    H128518   4.950   6.468   2.954
 9518TIP3    H228519   4.889   6.332   2.928
 9519TIP3   OH228520   6.023   4.151   0.707
 9519TIP3    H128521   5.940   4.127   0.667
 9519TIP3    H228522   6.083   4.080   0.683
 9520TIP3   OH228523   4.852   6.363   5.594
 9520TIP3    H128524   4.920   6.384   5.530
 9520TIP3    H228525   4.777   6.336   5.541
 9521TIP3   OH228526   6.800   4.653   2.249
 9521TIP3    H128527   6.887   4.684   2.225
 9521TIP3    H228528   6.806   4.557   2.245
 9522TIP3   OH228529   3.840   5.459   1.154
 9522TIP3    H128530   3.896   5.396   1.200
 9522TIP3    H228531   3.752   5.422   1.160
 9523TIP3   OH228532   2.414   0.488   2.797
 9523TIP3    H128533   2.355   0.539   2.741
 9523TIP3    H228534   2.357   0.455   2.866
 9524TIP3   OH228535   4.816   4.509   1.300
 9524TIP3    H128536   4.834   4.510   1.206
 9524TIP3    H228537   4.843   4.595   1.331
 9525TIP3   OH228538   3.256   5.810   1.559
 9525TIP3    H128539   3.341   5.811   1.603
 9525TIP3    H228540   3.275   5.778   1.470
 9526TIP3   OH228541   5.285   6.426   5.898
 9526TIP3    H128542   5.315   6.517   5.909
 9526TIP3    H228543   5.202   6.434   5.852
 9527TIP3   OH228544   4.059   3.368   5.841
 9527TIP3    H128545   4.049   3.410   5.755
 9527TIP3    H228546   3.978   3.388   5.888
 9528TIP3   OH228547   4.670   2.970   2.819
 9528TIP3    H128548   4.715   2.953   2.902
 9528TIP3    H228549   4.722   2.922   2.754
 9529TIP3   OH228550   6.567   0.711   1.049
 9529TIP3    H128551   6.513   0.701   1.127
 9529TIP3    H228552   6.517   0.668   0.979
 9530TIP3   OH228553   0.137   5.072   3.759
 9530TIP3    H128554   0.063   5.110   3.712
 9530TIP3    H228555   0.186   5.024   3.693
 9531TIP3   OH228556   1.136   5.577   3.378
 9531TIP3    H128557   1.212   5.634   3.378
 9531TIP3    H228558   1.078   5.613   3.446
 9532TIP3   OH228559   3.749   2.645   5.445
 9532TIP3    H128560   3.771   2.625   5.536
 9532TIP3    H228561   3.660   2.611   5.434
 9533TIP3   OH228562   6.971   0.728   4.503
 9533TIP3    H128563   6.938   0.644   4.472
 9533TIP3    H228564   7.001   0.709   4.592
 9534TIP3   OH228565   3.145   5.275   1.754
 9534TIP3    H128566   3.056   5.308   1.765
 9534TIP3    H228567   3.201   5.349   1.780
 9535TIP3   OH228568   3.260   2.872   4.304
 9535TIP3    H128569   3.243   2.855   4.211
 9535TIP3    H228570   3.312   2.952   4.305
 9536TIP3   OH228571   5.372   2.298   4.423
 9536TIP3    H128572   5.413   2.338   4.500
 9536TIP3    H228573   5.285   2.273   4.453
 9537TIP3   OH228574   0.722   4.079   5.065
 9537TIP3    H128575   0.735   4.104   4.973
 9537TIP3    H228576   0.694   4.160   5.108
 9538TIP3   OH228577   4.836   2.839   0.367
 9538TIP3    H128578   4.810   2.843   0.275
 9538TIP3    H228579   4.773   2.779   0.406
 9539TIP3   OH228580   5.565   5.445   3.227
 9539TIP3    H128581   5.611   5.478   3.305
 9539TIP3    H228582   5.585   5.510   3.159
 9540TIP3   OH228583   3.483   0.121   2.762
 9540TIP3    H128584   3.432   0.157   2.690
 9540TIP3    H228585   3.490   0.027   2.741
 9541TIP3   OH228586   2.698   2.172   1.615
 9541TIP3    H128587   2.605   2.159   1.598
 9541TIP3    H228588   2.703   2.201   1.706
 9542TIP3   OH228589   0.687   0.084   3.608
 9542TIP3    H128590   0.716   0.121   3.691
 9542TIP3    H228591   0.605   0.040   3.629
 9543TIP3   OH228592   2.339   4.567   3.705
 9543TIP3    H128593   2.302   4.655   3.708
 9543TIP3    H228594   2.302   4.528   3.626
 9544TIP3   OH228595   1.781   3.941   5.549
 9544TIP3    H128596   1.741   4.015   5.595
 9544TIP3    H228597   1.826   3.980   5.474
 9545TIP3   OH228598   2.989   6.238   4.386
 9545TIP3    H128599   2.987   6.193   4.470
 9545TIP3    H228600   2.931   6.314   4.398
 9546TIP3   OH228601   5.715   2.290   4.948
 9546TIP3    H128602   5.772   2.291   4.871
 9546TIP3    H228603   5.651   2.359   4.931
 9547TIP3   OH228604   1.115   6.469   0.760
 9547TIP3    H128605   1.062   6.538   0.799
 9547TIP3    H228606   1.206   6.499   0.770
 9548TIP3   OH228607   3.471   5.346   5.435
 9548TIP3    H128608   3.544   5.369   5.492
 9548TIP3    H228609   3.443   5.430   5.398
 9549TIP3   OH228610   6.094   5.362   2.925
 9549TIP3    H128611   6.075   5.405   2.841
 9549TIP3    H228612   6.144   5.428   2.974
 9550TIP3   OH228613   3.038   0.724   4.214
 9550TIP3    H128614   3.067   0.684   4.296
 9550TIP3    H228615   3.036   0.818   4.232
 9551TIP3   OH228616   2.919   1.842   4.217
 9551TIP3    H128617   2.838   1.892   4.209
 9551TIP3    H228618   2.908   1.769   4.156
 9552TIP3   OH228619   1.270   1.845   4.215
 9552TIP3    H128620   1.278   1.892   4.132
 9552TIP3    H228621   1.251   1.913   4.280
 9553TIP3   OH228622   0.034   1.549   0.285
 9553TIP3    H128623   0.129   1.540   0.277
 9553TIP3    H228624   0.019   1.643   0.286
 9554TIP3   OH228625   4.665   6.576   2.997
 9554TIP3    H128626   4.719   6.551   2.922
 9554TIP3    H228627   4.719   6.552   3.073
 9555TIP3   OH228628   4.126   4.708   2.781
 9555TIP3    H128629   4.160   4.795   2.802
 9555TIP3    H228630   4.154   4.654   2.854
 9556TIP3   OH228631   5.961   2.201   1.583
 9556TIP3    H128632   5.897   2.211   1.653
 9556TIP3    H228633   5.948   2.111   1.552
 9557TIP3   OH228634   6.444   3.919   1.912
 9557TIP3    H128635   6.428   4.004   1.953
 9557TIP3    H228636   6.536   3.923   1.884
 9558TIP3   OH228637   4.220   1.770   0.577
 9558TIP3    H128638   4.296   1.726   0.614
 9558TIP3    H228639   4.164   1.699   0.545
 9559TIP3   OH228640   2.642   6.543   1.593
 9559TIP3    H128641   2.569   6.523   1.534
 9559TIP3    H228642   2.721   6.520   1.543
 9560TIP3   OH228643   4.690   1.273   1.800
 9560TIP3    H128644   4.641   1.241   1.725
 9560TIP3    H228645   4.776   1.233   1.792
 9561TIP3   OH228646   0.345   5.910   4.325
 9561TIP3    H128647   0.430   5.918   4.283
 9561TIP3    H228648   0.363   5.922   4.419
 9562TIP3   OH228649   6.446   4.473   5.734
 9562TIP3    H128650   6.541   4.473   5.739
 9562TIP3    H228651   6.419   4.390   5.772
 9563TIP3   OH228652   4.814   4.329   4.382
 9563TIP3    H128653   4.884   4.390   4.405
 9563TIP3    H228654   4.840   4.294   4.297
 9564TIP3   OH228655   0.835   5.638   1.570
 9564TIP3    H128656   0.879   5.718   1.541
 9564TIP3    H228657   0.834   5.645   1.666
 9565TIP3   OH228658   4.335   0.474   3.432
 9565TIP3    H128659   4.311   0.562   3.404
 9565TIP3    H228660   4.418   0.457   3.388
 9566TIP3   OH228661   1.658   3.541   5.688
 9566TIP3    H128662   1.624   3.580   5.769
 9566TIP3    H228663   1.591   3.477   5.663
 9567TIP3   OH228664   6.284   5.980   5.432
 9567TIP3    H128665   6.264   6.015   5.519
 9567TIP3    H228666   6.351   6.039   5.398
 9568TIP3   OH228667   2.363   5.279   0.297
 9568TIP3    H128668   2.401   5.366   0.307
 9568TIP3    H228669   2.301   5.287   0.225
 9569TIP3   OH228670   7.115   3.098   2.136
 9569TIP3    H128671   7.161   3.085   2.219
 9569TIP3    H228672   7.043   3.158   2.159
 9570TIP3   OH228673   1.441   4.610   3.156
 9570TIP3    H128674   1.520   4.565   3.186
 9570TIP3    H228675   1.418   4.565   3.074
 9571TIP3   OH228676   0.231   3.772   3.447
 9571TIP3    H128677   0.251   3.707   3.379
 9571TIP3    H228678   0.206   3.720   3.523
 9572TIP3   OH228679   4.323   5.343   2.921
 9572TIP3    H128680   4.262   5.302   2.982
 9572TIP3    H228681   4.409   5.322   2.956
 9573TIP3   OH228682   4.018   3.889   1.683
 9573TIP3    H128683   4.002   3.980   1.705
 9573TIP3    H228684   3.935   3.858   1.646
 9574TIP3   OH228685   6.210   0.708   1.772
 9574TIP3    H128686   6.279   0.750   1.824
 9574TIP3    H228687   6.232   0.731   1.681
 9575TIP3   OH228688   1.735   3.351  -0.015
 9575TIP3    H128689   1.774   3.419   0.039
 9575TIP3    H228690   1.678   3.303   0.045
 9576TIP3   OH228691   3.870   6.634   0.985
 9576TIP3    H128692   3.880   6.622   0.890
 9576TIP3    H228693   3.829   6.553   1.015
 9577TIP3   OH228694   1.586   4.663   2.722
 9577TIP3    H128695   1.533   4.742   2.708
 9577TIP3    H228696   1.525   4.598   2.755
 9578TIP3   OH228697   6.495   0.214   1.655
 9578TIP3    H128698   6.446   0.137   1.684
 9578TIP3    H228699   6.585   0.196   1.682
 9579TIP3   OH228700   1.208   5.300   3.440
 9579TIP3    H128701   1.238   5.264   3.357
 9579TIP3    H228702   1.165   5.383   3.417
 9580TIP3   OH228703   5.020   4.425   0.684
 9580TIP3    H128704   5.074   4.354   0.718
 9580TIP3    H228705   4.943   4.381   0.648
 9581TIP3   OH228706   3.756   4.302   4.411
 9581TIP3    H128707   3.683   4.258   4.367
 9581TIP3    H228708   3.832   4.247   4.391
 9582TIP3   OH228709   0.046  -0.001   0.502
 9582TIP3    H128710   0.098   0.028   0.427
 9582TIP3    H228711  -0.040  -0.021   0.465
 9583TIP3   OH228712   2.742   0.911   3.706
 9583TIP3    H128713   2.650   0.932   3.691
 9583TIP3    H228714   2.743   0.870   3.793
 9584TIP3   OH228715   0.850   2.526   5.053
 9584TIP3    H128716   0.858   2.585   4.978
 9584TIP3    H228717   0.925   2.468   5.047
 9585TIP3   OH228718   4.539   3.760   2.829
 9585TIP3    H128719   4.491   3.814   2.891
 9585TIP3    H228720   4.595   3.705   2.884
 9586TIP3   OH228721   3.921   0.705   4.505
 9586TIP3    H128722   3.871   0.680   4.583
 9586TIP3    H228723   3.857   0.703   4.434
 9587TIP3   OH228724   3.059   0.294   5.544
 9587TIP3    H128725   3.080   0.327   5.456
 9587TIP3    H228726   3.094   0.205   5.545
 9588TIP3   OH228727   4.310   4.642   5.830
 9588TIP3    H128728   4.270   4.594   5.902
 9588TIP3    H228729   4.357   4.714   5.872
 9589TIP3   OH228730   0.179   4.943   4.464
 9589TIP3    H128731   0.274   4.942   4.473
 9589TIP3    H228732   0.146   4.954   4.553
 9590TIP3   OH228733   4.544   4.329   3.691
 9590TIP3    H128734   4.479   4.398   3.679
 9590TIP3    H228735   4.499   4.263   3.743
 9591TIP3   OH228736   5.368   3.691   1.326
 9591TIP3    H128737   5.409   3.692   1.413
 9591TIP3    H228738   5.274   3.692   1.343
 9592TIP3   OH228739   1.956   2.297   4.393
 9592TIP3    H128740   2.018   2.287   4.465
 9592TIP3    H228741   1.885   2.350   4.430
 9593TIP3   OH228742   2.150   2.846   3.318
 9593TIP3    H128743   2.077   2.824   3.376
 9593TIP3    H228744   2.121   2.816   3.231
 9594TIP3   OH228745   3.096   4.483   3.669
 9594TIP3    H128746   3.103   4.535   3.749
 9594TIP3    H228747   3.095   4.392   3.699
 9595TIP3   OH228748   2.215   5.163   1.047
 9595TIP3    H128749   2.217   5.075   1.009
 9595TIP3    H228750   2.300   5.173   1.089
 9596TIP3   OH228751   2.472   4.567   1.528
 9596TIP3    H128752   2.431   4.642   1.485
 9596TIP3    H228753   2.403   4.500   1.531
 9597TIP3   OH228754   2.659   4.171   0.969
 9597TIP3    H128755   2.689   4.225   0.897
 9597TIP3    H228756   2.596   4.226   1.016
 9598TIP3   OH228757   0.144   0.636   3.524
 9598TIP3    H128758   0.160   0.724   3.489
 9598TIP3    H228759   0.190   0.636   3.609
 9599TIP3   OH228760   4.537   2.917   4.142
 9599TIP3    H128761   4.544   2.844   4.080
 9599TIP3    H228762   4.466   2.892   4.201
 9600TIP3   OH228763   6.762   2.945   2.030
 9600TIP3    H128764   6.755   3.040   2.022
 9600TIP3    H228765   6.819   2.919   1.957
 9601TIP3   OH228766   2.913   1.271   0.564
 9601TIP3    H128767   2.990   1.254   0.617
 9601TIP3    H228768   2.848   1.207   0.594
 9602TIP3   OH228769   2.332   0.160   4.799
 9602TIP3    H128770   2.323   0.244   4.754
 9602TIP3    H228771   2.394   0.177   4.870
 9603TIP3   OH228772   2.178   1.677   1.669
 9603TIP3    H128773   2.209   1.587   1.661
 9603TIP3    H228774   2.143   1.698   1.582
 9604TIP3   OH228775   4.512   4.666   3.895
 9604TIP3    H128776   4.556   4.748   3.914
 9604TIP3    H228777   4.558   4.601   3.948
 9605TIP3   OH228778   3.999   2.247   1.790
 9605TIP3    H128779   3.910   2.268   1.762
 9605TIP3    H228780   4.055   2.302   1.735
 9606TIP3   OH228781   4.479   5.854   2.435
 9606TIP3    H128782   4.396   5.815   2.406
 9606TIP3    H228783   4.491   5.929   2.377
 9607TIP3   OH228784   5.776   0.793   1.328
 9607TIP3    H128785   5.868   0.771   1.340
 9607TIP3    H228786   5.746   0.733   1.259
 9608TIP3   OH228787   5.763   4.933   0.175
 9608TIP3    H128788   5.765   4.905   0.266
 9608TIP3    H228789   5.756   4.852   0.125
 9609TIP3   OH228790   5.216   4.307   0.308
 9609TIP3    H128791   5.237   4.322   0.216
 9609TIP3    H228792   5.121   4.296   0.310
 9610TIP3   OH228793   2.066   2.222   1.293
 9610TIP3    H128794   2.033   2.139   1.328
 9610TIP3    H228795   1.987   2.272   1.270
 9611TIP3   OH228796   0.413   3.982   5.862
 9611TIP3    H128797   0.393   4.043   5.791
 9611TIP3    H228798   0.366   4.017   5.938
 9612TIP3   OH228799   4.445   1.220   3.209
 9612TIP3    H128800   4.441   1.293   3.272
 9612TIP3    H228801   4.398   1.253   3.132
 9613TIP3   OH228802   5.657   4.715   4.343
 9613TIP3    H128803   5.666   4.805   4.374
 9613TIP3    H228804   5.565   4.706   4.319
 9614TIP3   OH228805   0.175   1.427   3.827
 9614TIP3    H128806   0.243   1.494   3.835
 9614TIP3    H228807   0.198   1.379   3.747
 9615TIP3   OH228808   7.013   4.831   3.121
 9615TIP3    H128809   6.972   4.880   3.049
 9615TIP3    H228810   6.985   4.740   3.107
 9616TIP3   OH228811   4.864   5.475   2.824
 9616TIP3    H128812   4.876   5.498   2.732
 9616TIP3    H228813   4.944   5.428   2.848
 9617TIP3   OH228814   2.704   6.380   4.225
 9617TIP3    H128815   2.766   6.330   4.172
 9617TIP3    H228816   2.639   6.411   4.162
 9618TIP3   OH228817   1.623   3.650   4.946
 9618TIP3    H128818   1.585   3.718   5.001
 9618TIP3    H228819   1.627   3.573   5.003
 9619TIP3   OH228820   0.408   5.580   5.484
 9619TIP3    H128821   0.410   5.502   5.539
 9619TIP3    H228822   0.318   5.585   5.453
 9620TIP3   OH228823   1.213   3.948   5.254
 9620TIP3    H128824   1.122   3.975   5.240
 9620TIP3    H228825   1.248   3.935   5.166
 9621TIP3   OH228826   3.977   6.161   5.754
 9621TIP3    H128827   3.966   6.101   5.680
 9621TIP3    H228828   4.063   6.140   5.789
 9622TIP3   OH228829   2.107   2.362   0.080
 9622TIP3    H128830   2.055   2.428   0.126
 9622TIP3    H228831   2.043   2.306   0.037
 9623TIP3   OH228832   5.943   1.379   5.095
 9623TIP3    H128833   5.908   1.315   5.157
 9623TIP3    H228834   5.897   1.460   5.115
 9624TIP3   OH228835   5.453   3.149   3.325
 9624TIP3    H128836   5.466   3.150   3.230
 9624TIP3    H228837   5.363   3.119   3.337
 9625TIP3   OH228838   3.072   6.717   0.703
 9625TIP3    H128839   3.097   6.807   0.723
 9625TIP3    H228840   3.099   6.705   0.612
 9626TIP3   OH228841   4.149   2.482   4.571
 9626TIP3    H128842   4.159   2.390   4.593
 9626TIP3    H228843   4.073   2.511   4.622
 9627TIP3   OH228844   4.795   6.654   1.608
 9627TIP3    H128845   4.818   6.571   1.565
 9627TIP3    H228846   4.718   6.685   1.560
 9628TIP3   OH228847   0.328   3.132   5.038
 9628TIP3    H128848   0.413   3.169   5.016
 9628TIP3    H228849   0.347   3.046   5.075
 9629TIP3   OH228850   3.236   2.972   0.498
 9629TIP3    H128851   3.239   2.877   0.514
 9629TIP3    H228852   3.327   2.996   0.479
 9630TIP3   OH228853   4.135   4.337   0.166
 9630TIP3    H128854   4.174   4.265   0.217
 9630TIP3    H228855   4.203   4.359   0.101
 9631TIP3   OH228856   2.224   0.095   1.311
 9631TIP3    H128857   2.227   0.187   1.339
 9631TIP3    H228858   2.315   0.073   1.291
 9632TIP3   OH228859   5.886   4.597   1.091
 9632TIP3    H128860   5.904   4.663   1.158
 9632TIP3    H228861   5.842   4.644   1.021
 9633TIP3   OH228862   0.352   1.403   1.689
 9633TIP3    H128863   0.286   1.443   1.746
 9633TIP3    H228864   0.427   1.387   1.746
 9634TIP3   OH228865   6.899   5.910   1.902
 9634TIP3    H128866   6.936   5.958   1.975
 9634TIP3    H228867   6.846   5.842   1.943
 9635TIP3   OH228868   6.259   3.684   4.127
 9635TIP3    H128869   6.169   3.662   4.100
 9635TIP3    H228870   6.313   3.655   4.054
 9636TIP3   OH228871   6.512   3.698   0.782
 9636TIP3    H128872   6.445   3.644   0.741
 9636TIP3    H228873   6.475   3.724   0.866
 9637TIP3   OH228874   5.863   5.067   5.227
 9637TIP3    H128875   5.793   5.128   5.205
 9637TIP3    H228876   5.927   5.078   5.156
 9638TIP3   OH228877   6.342   5.516   3.275
 9638TIP3    H128878   6.289   5.463   3.335
 9638TIP3    H228879   6.358   5.598   3.323
 9639TIP3   OH228880   1.371   5.387   1.951
 9639TIP3    H128881   1.324   5.447   1.893
 9639TIP3    H228882   1.417   5.327   1.892
 9640TIP3   OH228883   1.148   1.585   5.228
 9640TIP3    H128884   1.079   1.651   5.227
 9640TIP3    H228885   1.107   1.507   5.189
 9641TIP3   OH228886   6.715   6.705   0.876
 9641TIP3    H128887   6.759   6.728   0.795
 9641TIP3    H228888   6.785   6.678   0.935
 9642TIP3   OH228889   1.820   4.285   2.682
 9642TIP3    H128890   1.743   4.267   2.628
 9642TIP3    H228891   1.854   4.368   2.649
 9643TIP3   OH228892   4.197   3.749   5.046
 9643TIP3    H128893   4.253   3.786   5.115
 9643TIP3    H228894   4.209   3.654   5.054
 9644TIP3   OH228895   0.208   0.045   3.461
 9644TIP3    H128896   0.219   0.139   3.476
 9644TIP3    H228897   0.132   0.021   3.515
 9645TIP3   OH228898   2.781   2.740  -0.004
 9645TIP3    H128899   2.712   2.705   0.052
 9645TIP3    H228900   2.797   2.828   0.029
 9646TIP3   OH228901   2.632   4.783   5.100
 9646TIP3    H128902   2.646   4.826   5.184
 9646TIP3    H228903   2.655   4.850   5.035
 9647TIP3   OH228904   5.502   6.164   4.539
 9647TIP3    H128905   5.495   6.097   4.608
 9647TIP3    H228906   5.551   6.235   4.580
 9648TIP3   OH228907   3.614   3.022   1.146
 9648TIP3    H128908   3.659   2.959   1.202
 9648TIP3    H228909   3.615   3.103   1.196
 9649TIP3   OH228910   2.093   2.327   3.560
 9649TIP3    H128911   2.102   2.322   3.465
 9649TIP3    H228912   2.181   2.350   3.591
 9650TIP3   OH228913   0.726   1.205   5.734
 9650TIP3    H128914   0.765   1.137   5.679
 9650TIP3    H228915   0.632   1.189   5.728
 9651TIP3   OH228916   2.679   3.791   5.692
 9651TIP3    H128917   2.642   3.861   5.747
 9651TIP3    H228918   2.647   3.710   5.732
 9652TIP3   OH228919   6.973   0.036   2.693
 9652TIP3    H128920   6.886  -0.003   2.701
 9652TIP3    H228921   6.979   0.066   2.603
 9653TIP3   OH228922   2.593   6.252   3.780
 9653TIP3    H128923   2.552   6.298   3.707
 9653TIP3    H228924   2.672   6.213   3.742
 9654TIP3   OH228925   2.137   4.889   5.584
 9654TIP3    H128926   2.223   4.893   5.542
 9654TIP3    H228927   2.156   4.887   5.677
 9655TIP3   OH228928   2.912   4.639   3.229
 9655TIP3    H128929   2.872   4.561   3.267
 9655TIP3    H228930   2.915   4.702   3.301
 9656TIP3   OH228931   6.446   6.639   4.632
 9656TIP3    H128932   6.414   6.702   4.696
 9656TIP3    H228933   6.528   6.606   4.669
 9657TIP3   OH228934   5.400   6.741   1.014
 9657TIP3    H128935   5.378   6.832   0.995
 9657TIP3    H228936   5.492   6.734   0.990
 9658TIP3   OH228937   3.628   5.808   1.031
 9658TIP3    H128938   3.706   5.789   1.082
 9658TIP3    H228939   3.572   5.731   1.043
 9659TIP3   OH228940   5.956   0.753   5.043
 9659TIP3    H128941   5.921   0.818   4.982
 9659TIP3    H228942   5.988   0.682   4.987
 9660TIP3   OH228943   3.294   1.954   1.940
 9660TIP3    H128944   3.326   1.980   1.854
 9660TIP3    H228945   3.234   2.025   1.966
 9661TIP3   OH228946   2.109   6.398   0.322
 9661TIP3    H128947   2.102   6.374   0.230
 9661TIP3    H228948   2.019   6.397   0.354
 9662TIP3   OH228949   3.696   0.963   2.581
 9662TIP3    H128950   3.755   1.024   2.538
 9662TIP3    H228951   3.679   1.002   2.667
 9663TIP3   OH228952   3.494   0.565   1.356
 9663TIP3    H128953   3.424   0.586   1.294
 9663TIP3    H228954   3.448   0.529   1.432
 9664TIP3   OH228955   3.586   1.524   2.007
 9664TIP3    H128956   3.605   1.541   2.100
 9664TIP3    H228957   3.526   1.449   2.009
 9665TIP3   OH228958   4.302   6.276   5.265
 9665TIP3    H128959   4.325   6.236   5.181
 9665TIP3    H228960   4.386   6.285   5.311
 9666TIP3   OH228961   5.916   1.721   2.022
 9666TIP3    H128962   5.879   1.705   2.109
 9666TIP3    H228963   5.972   1.798   2.034
 9667TIP3   OH228964   6.522   1.712   4.553
 9667TIP3    H128965   6.469   1.714   4.473
 9667TIP3    H228966   6.592   1.775   4.536
 9668TIP3   OH228967   5.824   3.776   0.797
 9668TIP3    H128968   5.803   3.852   0.744
 9668TIP3    H228969   5.740   3.731   0.809
 9669TIP3   OH228970   1.188   1.637   2.315
 9669TIP3    H128971   1.207   1.729   2.299
 9669TIP3    H228972   1.254   1.609   2.377
 9670TIP3   OH228973   3.685   0.418   4.613
 9670TIP3    H128974   3.780   0.407   4.615
 9670TIP3    H228975   3.651   0.329   4.611
 9671TIP3   OH228976   1.599   4.510   1.626
 9671TIP3    H128977   1.529   4.456   1.663
 9671TIP3    H228978   1.554   4.586   1.589
 9672TIP3   OH228979   4.118   4.922   3.141
 9672TIP3    H128980   4.069   4.942   3.061
 9672TIP3    H228981   4.053   4.920   3.210
 9673TIP3   OH228982   3.010   4.165   2.012
 9673TIP3    H128983   3.043   4.200   2.095
 9673TIP3    H228984   3.083   4.175   1.951
 9674TIP3   OH228985   2.872   2.864   4.085
 9674TIP3    H128986   2.877   2.798   4.154
 9674TIP3    H228987   2.903   2.944   4.126
 9675TIP3   OH228988   5.946   5.598   4.868
 9675TIP3    H128989   5.958   5.605   4.774
 9675TIP3    H228990   6.026   5.557   4.900
 9676TIP3   OH228991   6.363   5.914   0.801
 9676TIP3    H128992   6.382   5.857   0.876
 9676TIP3    H228993   6.269   5.905   0.787
 9677TIP3   OH228994   5.803   3.549   2.985
 9677TIP3    H128995   5.722   3.514   3.023
 9677TIP3    H228996   5.795   3.644   2.995
 9678TIP3   OH228997   2.022   4.061   0.899
 9678TIP3    H128998   2.065   3.986   0.859
 9678TIP3    H228999   1.957   4.089   0.835
 9679TIP3   OH229000   2.082   2.277   1.861
 9679TIP3    H129001   2.101   2.245   1.773
 9679TIP3    H229002   2.099   2.202   1.919
 9680TIP3   OH229003   5.649   1.718   3.922
 9680TIP3    H129004   5.723   1.770   3.891
 9680TIP3    H229005   5.617   1.673   3.844
 9681TIP3   OH229006   7.102   3.922   0.590
 9681TIP3    H129007   7.124   3.990   0.654
 9681TIP3    H229008   7.054   3.968   0.522
 9682TIP3   OH229009   7.083   6.452   3.732
 9682TIP3    H129010   7.065   6.431   3.640
 9682TIP3    H229011   7.173   6.485   3.731
 9683TIP3   OH229012   0.237   1.344   0.364
 9683TIP3    H129013   0.237   1.310   0.454
 9683TIP3    H229014   0.277   1.273   0.313
 9684TIP3   OH229015   0.182   2.006   1.719
 9684TIP3    H129016   0.225   1.938   1.667
 9684TIP3    H229017   0.253   2.050   1.765
 9685TIP3   OH229018   6.783   5.267   1.931
 9685TIP3    H129019   6.873   5.278   1.900
 9685TIP3    H229020   6.746   5.355   1.929
 9686TIP3   OH229021   4.687   2.643   2.167
 9686TIP3    H129022   4.699   2.702   2.242
 9686TIP3    H229023   4.725   2.560   2.195
 9687TIP3   OH229024   4.409   2.228   4.775
 9687TIP3    H129025   4.485   2.282   4.756
 9687TIP3    H229026   4.352   2.239   4.699
 9688TIP3   OH229027   2.437   5.346   0.848
 9688TIP3    H129028   2.512   5.308   0.895
 9688TIP3    H229029   2.431   5.293   0.768
 9689TIP3   OH229030   1.646   5.626   2.764
 9689TIP3    H129031   1.708   5.567   2.722
 9689TIP3    H229032   1.674   5.713   2.739
 9690TIP3   OH229033   6.447   1.124   5.189
 9690TIP3    H129034   6.403   1.205   5.214
 9690TIP3    H229035   6.406   1.057   5.244
 9691TIP3   OH229036   4.475   0.581   4.084
 9691TIP3    H129037   4.541   0.534   4.135
 9691TIP3    H229038   4.525   0.635   4.023
 9692TIP3   OH229039   3.166   0.815   0.424
 9692TIP3    H129040   3.088   0.823   0.369
 9692TIP3    H229041   3.172   0.722   0.445
 9693TIP3   OH229042   3.865   2.001   0.263
 9693TIP3    H129043   3.846   2.077   0.319
 9693TIP3    H229044   3.784   1.950   0.262
 9694TIP3   OH229045   2.912   2.679   2.097
 9694TIP3    H129046   2.996   2.719   2.119
 9694TIP3    H229047   2.846   2.743   2.126
 9695TIP3   OH229048   3.709   1.885   0.676
 9695TIP3    H129049   3.694   1.921   0.589
 9695TIP3    H229050   3.798   1.852   0.673
 9696TIP3   OH229051   6.247   4.352   4.448
 9696TIP3    H129052   6.166   4.341   4.398
 9696TIP3    H229053   6.297   4.272   4.431
 9697TIP3   OH229054   5.943   5.533   1.849
 9697TIP3    H129055   5.916   5.507   1.937
 9697TIP3    H229056   5.861   5.533   1.798
 9698TIP3   OH229057   3.250   1.151   1.836
 9698TIP3    H129058   3.218   1.128   1.748
 9698TIP3    H229059   3.170   1.172   1.885
 9699TIP3   OH229060   2.272   0.071   3.478
 9699TIP3    H129061   2.362   0.049   3.499
 9699TIP3    H229062   2.253   0.147   3.532
 9700TIP3   OH229063   4.435   1.914   0.032
 9700TIP3    H129064   4.448   1.822   0.007
 9700TIP3    H229065   4.341   1.928   0.021
 9701TIP3   OH229066   0.133   2.122   3.483
 9701TIP3    H129067   0.177   2.069   3.549
 9701TIP3    H229068   0.177   2.100   3.401
 9702TIP3   OH229069   0.190   0.143   4.166
 9702TIP3    H129070   0.253   0.118   4.098
 9702TIP3    H229071   0.115   0.175   4.117
 9703TIP3   OH229072   5.837   5.335   1.198
 9703TIP3    H129073   5.847   5.297   1.111
 9703TIP3    H229074   5.806   5.424   1.182
 9704TIP3   OH229075   6.890   3.527   1.618
 9704TIP3    H129076   6.877   3.432   1.617
 9704TIP3    H229077   6.810   3.563   1.579
 9705TIP3   OH229078   0.866   3.007   1.382
 9705TIP3    H129079   0.938   2.946   1.398
 9705TIP3    H229080   0.821   3.015   1.466
 9706TIP3   OH229081   1.955   4.148   1.464
 9706TIP3    H129082   1.969   4.230   1.416
 9706TIP3    H229083   1.914   4.090   1.400
 9707TIP3   OH229084   2.497   3.393   3.013
 9707TIP3    H129085   2.520   3.357   3.099
 9707TIP3    H229086   2.501   3.488   3.026
 9708TIP3   OH229087   6.647   6.463   4.001
 9708TIP3    H129088   6.717   6.400   3.989
 9708TIP3    H229089   6.673   6.540   3.950
 9709TIP3   OH229090   0.789   1.508   1.723
 9709TIP3    H129091   0.854   1.543   1.662
 9709TIP3    H229092   0.798   1.563   1.802
 9710TIP3   OH229093   3.638   3.722   0.505
 9710TIP3    H129094   3.675   3.665   0.438
 9710TIP3    H229095   3.675   3.690   0.587
 9711TIP3   OH229096   1.545   4.932   5.094
 9711TIP3    H129097   1.589   4.963   5.173
 9711TIP3    H229098   1.578   4.843   5.082
 9712TIP3   OH229099   6.001   3.402   5.545
 9712TIP3    H129100   5.943   3.329   5.570
 9712TIP3    H229101   5.991   3.409   5.450
 9713TIP3   OH229102   2.022   2.745   0.426
 9713TIP3    H129103   2.061   2.659   0.444
 9713TIP3    H229104   1.928   2.732   0.438
 9714TIP3   OH229105   7.133   3.734   0.888
 9714TIP3    H129106   7.064   3.671   0.907
 9714TIP3    H229107   7.203   3.711   0.949
 9715TIP3   OH229108   0.603   0.646   1.911
 9715TIP3    H129109   0.651   0.575   1.869
 9715TIP3    H229110   0.516   0.643   1.873
 9716TIP3   OH229111   5.606   5.474   0.841
 9716TIP3    H129112   5.559   5.557   0.846
 9716TIP3    H229113   5.695   5.495   0.870
 9717TIP3   OH229114   6.658   3.171   2.943
 9717TIP3    H129115   6.615   3.244   2.900
 9717TIP3    H229116   6.700   3.123   2.871
 9718TIP3   OH229117   4.746   0.453   2.825
 9718TIP3    H129118   4.750   0.531   2.770
 9718TIP3    H229119   4.719   0.383   2.766
 9719TIP3   OH229120   3.071   1.681   0.037
 9719TIP3    H129121   3.012   1.609   0.015
 9719TIP3    H229122   3.135   1.641   0.097
 9720TIP3   OH229123   5.360   3.455   2.247
 9720TIP3    H129124   5.352   3.416   2.160
 9720TIP3    H229125   5.321   3.542   2.239
 9721TIP3   OH229126   6.597   3.345   4.302
 9721TIP3    H129127   6.505   3.326   4.320
 9721TIP3    H229128   6.643   3.316   4.381
 9722TIP3   OH229129   6.559   5.375   3.478
 9722TIP3    H129130   6.597   5.461   3.462
 9722TIP3    H229131   6.566   5.330   3.393
 9723TIP3   OH229132   0.363   4.971   3.239
 9723TIP3    H129133   0.327   4.883   3.226
 9723TIP3    H229134   0.394   4.971   3.330
 9724TIP3   OH229135   3.587   5.022   1.754
 9724TIP3    H129136   3.510   4.972   1.783
 9724TIP3    H229137   3.659   4.959   1.756
 9725TIP3   OH229138   6.758   2.784   2.872
 9725TIP3    H129139   6.718   2.811   2.789
 9725TIP3    H229140   6.825   2.850   2.889
 9726TIP3   OH229141   4.338   4.133   0.183
 9726TIP3    H129142   4.394   4.201   0.145
 9726TIP3    H229143   4.380   4.112   0.266
 9727TIP3   OH229144   3.350   4.732   2.118
 9727TIP3    H129145   3.274   4.716   2.175
 9727TIP3    H229146   3.366   4.826   2.127
 9728TIP3   OH229147   6.826   6.080   3.904
 9728TIP3    H129148   6.764   6.017   3.940
 9728TIP3    H229149   6.911   6.035   3.907
 9729TIP3   OH229150   3.848   0.021   4.845
 9729TIP3    H129151   3.775   0.054   4.792
 9729TIP3    H229152   3.911  -0.012   4.782
 9730TIP3   OH229153   5.068   2.699   3.643
 9730TIP3    H129154   5.115   2.695   3.560
 9730TIP3    H229155   4.997   2.636   3.634
 9731TIP3   OH229156   6.550   0.854   4.738
 9731TIP3    H129157   6.552   0.830   4.646
 9731TIP3    H229158   6.639   0.838   4.769
 9732TIP3   OH229159   0.198   4.748   3.303
 9732TIP3    H129160   0.271   4.688   3.317
 9732TIP3    H229161   0.122   4.691   3.290
 9733TIP3   OH229162   6.660   4.985   2.747
 9733TIP3    H129163   6.718   4.909   2.743
 9733TIP3    H229164   6.660   5.019   2.658
 9734TIP3   OH229165   5.742   2.653   2.114
 9734TIP3    H129166   5.662   2.697   2.085
 9734TIP3    H229167   5.796   2.723   2.151
 9735TIP3   OH229168   1.687   0.839   4.021
 9735TIP3    H129169   1.735   0.883   4.092
 9735TIP3    H229170   1.686   0.747   4.046
 9736TIP3   OH229171   0.395   4.973   4.247
 9736TIP3    H129172   0.309   4.993   4.212
 9736TIP3    H229173   0.412   4.883   4.221
 9737TIP3   OH229174   0.810   3.755   4.348
 9737TIP3    H129175   0.754   3.712   4.413
 9737TIP3    H229176   0.862   3.818   4.399
 9738TIP3   OH229177   0.741   3.715   1.389
 9738TIP3    H129178   0.676   3.647   1.407
 9738TIP3    H229179   0.705   3.763   1.314
 9739TIP3   OH229180   6.012   4.786   4.461
 9739TIP3    H129181   6.108   4.795   4.464
 9739TIP3    H229182   5.997   4.695   4.436
 9740TIP3   OH229183   0.962   5.360   2.296
 9740TIP3    H129184   0.931   5.304   2.225
 9740TIP3    H229185   1.051   5.383   2.272
 9741TIP3   OH229186   1.624   1.669   1.703
 9741TIP3    H129187   1.614   1.760   1.732
 9741TIP3    H229188   1.713   1.646   1.728
 9742TIP3   OH229189   2.061   2.640   1.756
 9742TIP3    H129190   2.008   2.595   1.821
 9742TIP3    H229191   1.997   2.682   1.698
 9743TIP3   OH229192   1.000   0.399   0.645
 9743TIP3    H129193   1.028   0.363   0.729
 9743TIP3    H229194   1.050   0.481   0.637
 9744TIP3   OH229195   4.149   6.125   4.296
 9744TIP3    H129196   4.055   6.141   4.289
 9744TIP3    H229197   4.183   6.201   4.344
 9745TIP3   OH229198   5.123   1.303   1.505
 9745TIP3    H129199   5.155   1.383   1.463
 9745TIP3    H229200   5.200   1.267   1.550
 9746TIP3   OH229201   6.561   1.878   1.671
 9746TIP3    H129202   6.622   1.944   1.640
 9746TIP3    H229203   6.598   1.846   1.753
 9747TIP3   OH229204   5.728   0.135   0.373
 9747TIP3    H129205   5.694   0.213   0.416
 9747TIP3    H229206   5.783   0.170   0.302
 9748TIP3   OH229207   4.584   1.075   0.528
 9748TIP3    H129208   4.516   1.012   0.504
 9748TIP3    H229209   4.665   1.038   0.493
 9749TIP3   OH229210   4.913   4.834   0.463
 9749TIP3    H129211   4.967   4.876   0.530
 9749TIP3    H229212   4.824   4.837   0.498
   7.21236   6.79988   5.88886   0.00000   0.00000  -2.40412   0.00000  -2.40412  -3.39994
