Title t= 341.00000 step= 170500
44463
    1GLY      N    1   2.793   3.060   3.563
    1GLY    HT1    2   2.848   2.984   3.519
    1GLY    HT2    3   2.846   3.107   3.640
    1GLY    HT3    4   2.766   3.136   3.498
    1GLY     CA    5   2.670   2.994   3.610
    1GLY    HA1    6   2.632   2.946   3.522
    1GLY    HA2    7   2.606   3.075   3.642
    1GLY      C    8   2.692   2.900   3.721
    1GLY      O    9   2.794   2.912   3.789
    2PRO      N   10   2.601   2.814   3.752
    2PRO     CD   11   2.462   2.812   3.705
    2PRO    HD1   12   2.459   2.779   3.599
    2PRO    HD2   13   2.418   2.913   3.719
    2PRO     CA   14   2.630   2.708   3.853
    2PRO     HA   15   2.632   2.763   3.946
    2PRO     CB   16   2.509   2.615   3.840
    2PRO    HB1   17   2.496   2.562   3.937
    2PRO    HB2   18   2.521   2.542   3.757
    2PRO     CG   19   2.395   2.710   3.798
    2PRO    HG1   20   2.297   2.666   3.766
    2PRO    HG2   21   2.366   2.778   3.880
    2PRO      C   22   2.758   2.633   3.864
    2PRO      O   23   2.826   2.612   3.763
    3GLY      N   24   2.798   2.600   3.986
    3GLY     HN   25   2.748   2.639   4.062
    3GLY     CA   26   2.918   2.520   4.012
    3GLY    HA1   27   2.923   2.511   4.119
    3GLY    HA2   28   3.001   2.569   3.963
    3GLY      C   29   2.901   2.382   3.963
    3GLY      O   30   2.795   2.319   3.956
    4ASP      N   31   3.013   2.319   3.922
    4ASP     HN   32   3.103   2.359   3.930
    4ASP     CA   33   3.002   2.191   3.859
    4ASP     HA   34   2.903   2.191   3.815
    4ASP     CB   35   3.110   2.163   3.754
    4ASP    HB1   36   3.115   2.061   3.711
    4ASP    HB2   37   3.201   2.204   3.804
    4ASP     CG   38   3.091   2.263   3.643
    4ASP    OD1   39   3.160   2.368   3.637
    4ASP    OD2   40   3.006   2.227   3.555
    4ASP      C   41   2.990   2.075   3.952
    4ASP      O   42   3.022   2.086   4.069
    5PRO      N   43   2.934   1.957   3.911
    5PRO     CD   44   2.854   1.936   3.783
    5PRO    HD1   45   2.925   1.930   3.697
    5PRO    HD2   46   2.779   2.013   3.758
    5PRO     CA   47   2.946   1.834   3.991
    5PRO     HA   48   2.885   1.832   4.079
    5PRO     CB   49   2.912   1.729   3.883
    5PRO    HB1   50   2.864   1.638   3.926
    5PRO    HB2   51   3.002   1.699   3.824
    5PRO     CG   52   2.801   1.793   3.792
    5PRO    HG1   53   2.796   1.751   3.690
    5PRO    HG2   54   2.705   1.774   3.846
    5PRO      C   55   3.085   1.807   4.046
    5PRO      O   56   3.176   1.778   3.972
    6GLY      N   57   3.100   1.814   4.179
    6GLY     HN   58   3.018   1.824   4.236
    6GLY     CA   59   3.228   1.778   4.248
    6GLY    HA1   60   3.211   1.836   4.337
    6GLY    HA2   61   3.316   1.817   4.198
    6GLY      C   62   3.260   1.638   4.265
    6GLY      O   63   3.225   1.565   4.174
    7PRO      N   64   3.319   1.597   4.373
    7PRO     CD   65   3.377   1.690   4.473
    7PRO    HD1   66   3.297   1.718   4.545
    7PRO    HD2   67   3.433   1.777   4.432
    7PRO     CA   68   3.342   1.461   4.413
    7PRO     HA   69   3.412   1.424   4.339
    7PRO     CB   70   3.405   1.471   4.551
    7PRO    HB1   71   3.474   1.385   4.563
    7PRO    HB2   72   3.332   1.480   4.634
    7PRO     CG   73   3.480   1.595   4.537
    7PRO    HG1   74   3.511   1.638   4.635
    7PRO    HG2   75   3.568   1.585   4.469
    7PRO      C   76   3.233   1.360   4.401
    7PRO      O   77   3.117   1.389   4.428
    8GLY      N   78   3.276   1.237   4.375
    8GLY     HN   79   3.371   1.214   4.391
    8GLY     CA   80   3.185   1.128   4.337
    8GLY    HA1   81   3.109   1.114   4.413
    8GLY    HA2   82   3.248   1.040   4.332
    8GLY      C   83   3.113   1.134   4.208
    8GLY      O   84   3.131   1.221   4.123
    9ASP      N   85   3.023   1.035   4.183
    9ASP     HN   86   3.011   0.960   4.248
    9ASP     CA   87   2.949   1.036   4.059
    9ASP     HA   88   3.027   1.019   3.986
    9ASP     CB   89   2.845   0.924   4.074
    9ASP    HB1   90   2.809   0.907   3.970
    9ASP    HB2   91   2.769   0.961   4.146
    9ASP     CG   92   2.911   0.794   4.127
    9ASP    OD1   93   2.989   0.735   4.049
    9ASP    OD2   94   2.879   0.755   4.241
    9ASP      C   95   2.870   1.173   4.027
    9ASP      O   96   2.828   1.242   4.122
   10PRO      N   97   2.858   1.218   3.899
   10PRO     CD   98   2.921   1.149   3.787
   10PRO    HD1   99   2.901   1.040   3.789
   10PRO    HD2  100   3.030   1.166   3.781
   10PRO     CA  101   2.765   1.324   3.866
   10PRO     HA  102   2.789   1.405   3.934
   10PRO     CB  103   2.790   1.342   3.715
   10PRO    HB1  104   2.878   1.410   3.703
   10PRO    HB2  105   2.697   1.378   3.667
   10PRO     CG  106   2.840   1.205   3.671
   10PRO    HG1  107   2.747   1.146   3.653
   10PRO    HG2  108   2.901   1.215   3.578
   10PRO      C  109   2.622   1.288   3.908
   10PRO      O  110   2.591   1.163   3.920
   11GLY      N  111   2.544   1.396   3.927
   11GLY     HN  112   2.577   1.487   3.903
   11GLY     CA  113   2.407   1.409   3.977
   11GLY    HA1  114   2.357   1.322   3.938
   11GLY    HA2  115   2.379   1.511   3.958
   11GLY      C  116   2.398   1.387   4.126
   11GLY      O  117   2.497   1.357   4.195
   12PRO      N  118   2.284   1.405   4.185
   12PRO     CD  119   2.167   1.453   4.111
   12PRO    HD1  120   2.115   1.373   4.055
   12PRO    HD2  121   2.194   1.543   4.051
   12PRO     CA  122   2.252   1.388   4.327
   12PRO     HA  123   2.316   1.462   4.373
   12PRO     CB  124   2.101   1.410   4.342
   12PRO    HB1  125   2.063   1.446   4.440
   12PRO    HB2  126   2.058   1.316   4.301
   12PRO     CG  127   2.074   1.502   4.228
   12PRO    HG1  128   1.968   1.509   4.195
   12PRO    HG2  129   2.115   1.598   4.267
   12PRO      C  130   2.296   1.257   4.386
   12PRO      O  131   2.301   1.153   4.319
   13GLY      N  132   2.334   1.256   4.514
   13GLY     HN  133   2.326   1.335   4.574
   13GLY     CA  134   2.371   1.135   4.591
   13GLY    HA1  135   2.415   1.165   4.684
   13GLY    HA2  136   2.439   1.075   4.533
   13GLY      C  137   2.262   1.038   4.628
   13GLY      O  138   2.153   1.046   4.567
   14ASP      N  139   2.287   0.935   4.716
   14ASP     HN  140   2.380   0.932   4.752
   14ASP     CA  141   2.186   0.849   4.777
   14ASP     HA  142   2.151   0.781   4.700
   14ASP     CB  143   2.256   0.763   4.879
   14ASP    HB1  144   2.185   0.698   4.934
   14ASP    HB2  145   2.322   0.824   4.945
   14ASP     CG  146   2.348   0.658   4.816
   14ASP    OD1  147   2.355   0.639   4.693
   14ASP    OD2  148   2.437   0.602   4.888
   14ASP      C  149   2.067   0.930   4.848
   14ASP      O  150   2.099   1.032   4.910
   15PRO      N  151   1.938   0.894   4.842
   15PRO     CD  152   1.886   0.781   4.770
   15PRO    HD1  153   1.927   0.693   4.823
   15PRO    HD2  154   1.922   0.778   4.665
   15PRO     CA  155   1.831   0.972   4.906
   15PRO     HA  156   1.847   1.073   4.871
   15PRO     CB  157   1.699   0.920   4.836
   15PRO    HB1  158   1.690   0.982   4.744
   15PRO    HB2  159   1.611   0.924   4.902
   15PRO     CG  160   1.734   0.781   4.782
   15PRO    HG1  161   1.694   0.710   4.857
   15PRO    HG2  162   1.685   0.759   4.685
   15PRO      C  163   1.815   0.976   5.060
   15PRO    OT1  164   1.829   0.869   5.124
   15PRO    OT2  165   1.791   1.081   5.117
   16LIT    LIT  166   1.728   0.970   5.265
   17LIT    LIT  167   2.445   2.075   5.782
   18LIT    LIT  168   3.004   6.507   1.590
   19LIT    LIT  169   5.392   5.285   2.624
   20LIT    LIT  170   2.337   7.022   3.752
   21LIT    LIT  171   0.435   2.976   3.253
   22LIT    LIT  172   1.294   1.427   3.812
   23LIT    LIT  173   1.621   3.578   2.394
   24LIT    LIT  174   0.450   2.347   6.502
   25LIT    LIT  175   5.892   0.493   3.362
   26LIT    LIT  176   7.542   2.838   2.941
   27LIT    LIT  177   2.131   4.369   6.170
   28LIT    LIT  178   3.965   1.434   5.035
   29LIT    LIT  179   2.327   6.123   0.599
   30LIT    LIT  180   4.374   4.016   0.084
   31LIT    LIT  181   7.085   5.439   6.558
   32LIT    LIT  182   4.730   4.094   0.778
   33LIT    LIT  183   7.321   2.595   0.677
   34LIT    LIT  184   3.854   6.784   2.871
   35LIT    LIT  185   3.791   7.362   6.312
   36LIT    LIT  186   1.411   7.782   3.745
   37LIT    LIT  187   1.628   6.720   0.131
   38LIT    LIT  188   4.742   7.582   5.009
   39LIT    LIT  189   0.128   7.286   3.517
   40LIT    LIT  190   0.733   1.023   3.188
   41LIT    LIT  191   4.311   0.632   4.555
   42LIT    LIT  192   6.477   1.445   0.233
   43LIT    LIT  193   3.902   2.467   1.191
   44LIT    LIT  194   6.954   1.142   5.685
   45LIT    LIT  195   7.324   6.408   2.656
   46LIT    LIT  196   7.900   5.167   1.608
   47LIT    LIT  197   1.703   5.009   2.699
   48LIT    LIT  198   6.547   1.827   3.609
   49LIT    LIT  199   0.959   0.025   6.491
   50LIT    LIT  200   7.739   1.306   4.545
   51LIT    LIT  201   2.318   0.055   3.764
   52LIT    LIT  202   4.355   1.883   6.519
   53LIT    LIT  203   0.348   4.082   1.256
   54LIT    LIT  204   0.508   3.401   2.180
   55LIT    LIT  205   8.168   0.003   3.512
   56LIT    LIT  206   7.561   1.076   2.278
   57LIT    LIT  207   6.260   5.095   0.746
   58LIT    LIT  208   2.516   0.542   4.717
   59LIT    LIT  209   0.719   5.686   4.532
   60LIT    LIT  210   2.276   4.580   4.194
   61CLA    CLA  211   0.238   6.507   2.254
   62CLA    CLA  212   1.787   4.518   4.650
   63CLA    CLA  213   0.589   1.883   4.364
   64CLA    CLA  214   5.997   3.509   0.502
   65CLA    CLA  215   7.995   1.241   2.115
   66CLA    CLA  216   0.940   1.109   3.915
   67CLA    CLA  217   6.923   7.620   6.037
   68CLA    CLA  218   6.255   0.551   3.780
   69CLA    CLA  219   1.702   1.415   5.376
   70CLA    CLA  220   4.402   4.588   5.322
   71CLA    CLA  221   0.288   5.014   6.743
   72CLA    CLA  222   3.483   5.553   1.545
   73CLA    CLA  223   0.933   3.385   2.367
   74CLA    CLA  224   0.192   5.851   4.263
   75CLA    CLA  225   5.917   0.339   5.500
   76CLA    CLA  226   4.137   2.080   1.503
   77CLA    CLA  227   2.737   4.620   4.739
   78CLA    CLA  228   4.821   5.803   1.354
   79CLA    CLA  229   5.132   1.877   5.152
   80CLA    CLA  230   8.042   4.560   1.841
   81CLA    CLA  231   4.694   6.319   5.595
   82CLA    CLA  232   0.508   0.649   5.938
   83CLA    CLA  233   3.473   4.571   0.757
   84CLA    CLA  234   0.860   0.840   1.011
   85CLA    CLA  235   3.478   5.906   5.139
   86CLA    CLA  236   7.429   4.824   3.349
   87CLA    CLA  237   3.034   6.691   1.991
   88CLA    CLA  238   4.998   5.344   1.003
   89CLA    CLA  239   6.211   3.503   5.683
   90CLA    CLA  240   6.638   1.842   0.258
   91CLA    CLA  241   3.644   4.072   2.862
   92CLA    CLA  242   5.784   7.184   6.453
   93CLA    CLA  243   4.318   1.360   4.564
   94CLA    CLA  244   2.236   2.406   6.720
   95CLA    CLA  245   2.025   6.716   3.775
   96CLA    CLA  246   0.315   1.700   2.416
   97CLA    CLA  247   7.674   1.902   3.706
   98CLA    CLA  248   1.498   5.765   5.566
   99CLA    CLA  249   7.471   2.675   0.839
  100CLA    CLA  250   2.938   3.289   3.759
  101CLA    CLA  251   0.628   2.876   3.364
  102CLA    CLA  252   1.499   0.453   4.832
  103TIP3   OH2  253   3.147   6.731   3.251
  103TIP3    H1  254   3.145   6.656   3.312
  103TIP3    H2  255   3.169   6.806   3.306
  104TIP3   OH2  256   4.637   5.602   5.926
  104TIP3    H1  257   4.706   5.638   5.871
  104TIP3    H2  258   4.593   5.679   5.963
  105TIP3   OH2  259   7.558   1.349   3.671
  105TIP3    H1  260   7.641   1.397   3.671
  105TIP3    H2  261   7.557   1.304   3.586
  106TIP3   OH2  262   6.942   5.583   1.103
  106TIP3    H1  263   6.940   5.677   1.086
  106TIP3    H2  264   7.033   5.564   1.124
  107TIP3   OH2  265   2.317   3.740   1.535
  107TIP3    H1  266   2.264   3.719   1.612
  107TIP3    H2  267   2.380   3.805   1.566
  108TIP3   OH2  268   0.926   6.244   0.128
  108TIP3    H1  269   0.886   6.206   0.049
  108TIP3    H2  270   1.002   6.292   0.095
  109TIP3   OH2  271   6.344   6.601   2.492
  109TIP3    H1  272   6.399   6.610   2.414
  109TIP3    H2  273   6.276   6.539   2.466
  110TIP3   OH2  274   4.277   6.736   5.028
  110TIP3    H1  275   4.214   6.683   5.077
  110TIP3    H2  276   4.276   6.699   4.940
  111TIP3   OH2  277   7.389   4.665   5.446
  111TIP3    H1  278   7.341   4.633   5.369
  111TIP3    H2  279   7.350   4.618   5.520
  112TIP3   OH2  280   3.623   3.231   6.010
  112TIP3    H1  281   3.665   3.197   6.089
  112TIP3    H2  282   3.677   3.306   5.985
  113TIP3   OH2  283   8.035   3.663   6.375
  113TIP3    H1  284   8.013   3.570   6.377
  113TIP3    H2  285   8.126   3.666   6.346
  114TIP3   OH2  286   6.703   6.171   0.806
  114TIP3    H1  287   6.751   6.251   0.785
  114TIP3    H2  288   6.615   6.202   0.827
  115TIP3   OH2  289   5.751   7.661   4.414
  115TIP3    H1  290   5.683   7.626   4.357
  115TIP3    H2  291   5.762   7.752   4.386
  116TIP3   OH2  292   3.382   2.721   4.469
  116TIP3    H1  293   3.359   2.706   4.561
  116TIP3    H2  294   3.389   2.816   4.461
  117TIP3   OH2  295   6.116   4.368   4.013
  117TIP3    H1  296   6.034   4.403   3.977
  117TIP3    H2  297   6.174   4.444   4.020
  118TIP3   OH2  298   2.827   5.229   6.507
  118TIP3    H1  299   2.748   5.208   6.556
  118TIP3    H2  300   2.803   5.304   6.453
  119TIP3   OH2  301   1.208   7.671   2.532
  119TIP3    H1  302   1.275   7.736   2.510
  119TIP3    H2  303   1.192   7.624   2.450
  120TIP3   OH2  304   2.991   4.630   0.027
  120TIP3    H1  305   2.937   4.708   0.018
  120TIP3    H2  306   2.939   4.570   0.080
  121TIP3   OH2  307   0.699   0.982   6.745
  121TIP3    H1  308   0.697   0.994   6.650
  121TIP3    H2  309   0.674   1.068   6.780
  122TIP3   OH2  310   7.027   7.721   5.263
  122TIP3    H1  311   6.973   7.644   5.283
  122TIP3    H2  312   7.110   7.684   5.233
  123TIP3   OH2  313   4.834   5.212   1.956
  123TIP3    H1  314   4.829   5.166   2.039
  123TIP3    H2  315   4.750   5.193   1.913
  124TIP3   OH2  316   8.018   6.428   3.242
  124TIP3    H1  317   7.935   6.411   3.285
  124TIP3    H2  318   8.072   6.352   3.263
  125TIP3   OH2  319   0.248   3.957   4.173
  125TIP3    H1  320   0.204   3.880   4.136
  125TIP3    H2  321   0.180   4.025   4.174
  126TIP3   OH2  322   0.903   2.217   0.610
  126TIP3    H1  323   0.906   2.193   0.702
  126TIP3    H2  324   0.842   2.292   0.606
  127TIP3   OH2  325   3.913   7.284   0.235
  127TIP3    H1  326   3.909   7.241   0.149
  127TIP3    H2  327   3.951   7.370   0.217
  128TIP3   OH2  328   1.909   1.594   1.115
  128TIP3    H1  329   1.888   1.568   1.204
  128TIP3    H2  330   2.004   1.605   1.115
  129TIP3   OH2  331   4.004   3.803   6.595
  129TIP3    H1  332   3.947   3.748   6.540
  129TIP3    H2  333   3.954   3.818   6.675
  130TIP3   OH2  334   6.779   3.394   2.949
  130TIP3    H1  335   6.736   3.461   3.002
  130TIP3    H2  336   6.717   3.322   2.945
  131TIP3   OH2  337   2.638   3.097   0.958
  131TIP3    H1  338   2.621   3.172   0.901
  131TIP3    H2  339   2.558   3.044   0.953
  132TIP3   OH2  340   4.151   3.579   3.895
  132TIP3    H1  341   4.242   3.570   3.923
  132TIP3    H2  342   4.152   3.549   3.804
  133TIP3   OH2  343   2.345   6.924   5.584
  133TIP3    H1  344   2.266   6.871   5.581
  133TIP3    H2  345   2.409   6.868   5.627
  134TIP3   OH2  346   2.087   0.148   4.286
  134TIP3    H1  347   2.100   0.078   4.222
  134TIP3    H2  348   2.008   0.121   4.334
  135TIP3   OH2  349   6.432   7.200   6.362
  135TIP3    H1  350   6.436   7.117   6.314
  135TIP3    H2  351   6.347   7.238   6.337
  136TIP3   OH2  352   0.526   3.584   2.211
  136TIP3    H1  353   0.472   3.653   2.173
  136TIP3    H2  354   0.569   3.625   2.286
  137TIP3   OH2  355   3.719   4.402   0.485
  137TIP3    H1  356   3.791   4.444   0.532
  137TIP3    H2  357   3.677   4.347   0.551
  138TIP3   OH2  358   2.332   3.767   5.565
  138TIP3    H1  359   2.317   3.695   5.503
  138TIP3    H2  360   2.330   3.726   5.651
  139TIP3   OH2  361   0.070   4.739   0.470
  139TIP3    H1  362   0.113   4.735   0.384
  139TIP3    H2  363   0.137   4.708   0.531
  140TIP3   OH2  364   1.470   7.435   1.745
  140TIP3    H1  365   1.501   7.398   1.828
  140TIP3    H2  366   1.464   7.529   1.762
  141TIP3   OH2  367   3.767   4.770   1.359
  141TIP3    H1  368   3.804   4.829   1.293
  141TIP3    H2  369   3.813   4.687   1.345
  142TIP3   OH2  370   4.361   5.430   2.686
  142TIP3    H1  371   4.377   5.523   2.666
  142TIP3    H2  372   4.430   5.384   2.639
  143TIP3   OH2  373   5.512   2.557   6.257
  143TIP3    H1  374   5.442   2.493   6.269
  143TIP3    H2  375   5.534   2.553   6.164
  144TIP3   OH2  376   0.175   5.988   3.086
  144TIP3    H1  377   0.260   6.028   3.066
  144TIP3    H2  378   0.178   5.902   3.044
  145TIP3   OH2  379   8.104   4.634   5.618
  145TIP3    H1  380   8.172   4.672   5.673
  145TIP3    H2  381   8.081   4.552   5.662
  146TIP3   OH2  382   6.610   5.022   1.730
  146TIP3    H1  383   6.615   4.931   1.760
  146TIP3    H2  384   6.638   5.018   1.639
  147TIP3   OH2  385   1.184   3.787   3.840
  147TIP3    H1  386   1.195   3.816   3.749
  147TIP3    H2  387   1.163   3.868   3.888
  148TIP3   OH2  388   8.134   4.314   0.665
  148TIP3    H1  389   8.083   4.391   0.637
  148TIP3    H2  390   8.069   4.255   0.702
  149TIP3   OH2  391   8.175   0.753   6.419
  149TIP3    H1  392   8.136   0.835   6.390
  149TIP3    H2  393   8.251   0.779   6.470
  150TIP3   OH2  394   5.360   7.283   3.482
  150TIP3    H1  395   5.398   7.304   3.567
  150TIP3    H2  396   5.429   7.304   3.419
  151TIP3   OH2  397   2.023   2.981   4.996
  151TIP3    H1  398   1.936   2.966   5.033
  151TIP3    H2  399   2.073   2.903   5.019
  152TIP3   OH2  400   7.077   4.610   6.310
  152TIP3    H1  401   7.159   4.569   6.336
  152TIP3    H2  402   7.102   4.675   6.245
  153TIP3   OH2  403   7.433   6.267   2.026
  153TIP3    H1  404   7.499   6.290   2.092
  153TIP3    H2  405   7.449   6.175   2.007
  154TIP3   OH2  406   0.728   0.721   4.575
  154TIP3    H1  407   0.789   0.689   4.641
  154TIP3    H2  408   0.710   0.811   4.600
  155TIP3   OH2  409   5.497   5.291   0.618
  155TIP3    H1  410   5.528   5.269   0.530
  155TIP3    H2  411   5.551   5.238   0.676
  156TIP3   OH2  412   8.271   3.461   4.697
  156TIP3    H1  413   8.254   3.376   4.658
  156TIP3    H2  414   8.187   3.488   4.734
  157TIP3   OH2  415   0.243   2.282   0.521
  157TIP3    H1  416   0.271   2.320   0.438
  157TIP3    H2  417   0.254   2.188   0.509
  158TIP3   OH2  418   0.827   3.017   1.037
  158TIP3    H1  419   0.869   3.093   0.998
  158TIP3    H2  420   0.763   2.989   0.973
  159TIP3   OH2  421   6.327   7.381   1.277
  159TIP3    H1  422   6.393   7.421   1.334
  159TIP3    H2  423   6.356   7.402   1.189
  160TIP3   OH2  424   3.516   4.038   2.247
  160TIP3    H1  425   3.567   4.117   2.229
  160TIP3    H2  426   3.530   4.022   2.340
  161TIP3   OH2  427   7.728   6.474   5.470
  161TIP3    H1  428   7.733   6.497   5.377
  161TIP3    H2  429   7.801   6.413   5.483
  162TIP3   OH2  430   2.472   6.281   6.290
  162TIP3    H1  431   2.423   6.199   6.281
  162TIP3    H2  432   2.446   6.315   6.376
  163TIP3   OH2  433   7.282   2.975   2.517
  163TIP3    H1  434   7.202   2.988   2.467
  163TIP3    H2  435   7.310   2.887   2.496
  164TIP3   OH2  436   5.272   2.634   5.229
  164TIP3    H1  437   5.358   2.602   5.199
  164TIP3    H2  438   5.279   2.730   5.221
  165TIP3   OH2  439   4.633   3.868   2.807
  165TIP3    H1  440   4.645   3.937   2.742
  165TIP3    H2  441   4.708   3.810   2.793
  166TIP3   OH2  442   1.188   3.579   6.689
  166TIP3    H1  443   1.233   3.506   6.647
  166TIP3    H2  444   1.258   3.638   6.717
  167TIP3   OH2  445   6.251   2.074   5.987
  167TIP3    H1  446   6.178   2.049   5.931
  167TIP3    H2  447   6.213   2.085   6.074
  168TIP3   OH2  448   8.250   6.916   1.611
  168TIP3    H1  449   8.171   6.963   1.639
  168TIP3    H2  450   8.218   6.851   1.549
  169TIP3   OH2  451   6.416   2.853   4.625
  169TIP3    H1  452   6.477   2.784   4.649
  169TIP3    H2  453   6.366   2.871   4.705
  170TIP3   OH2  454   4.782   1.106   0.373
  170TIP3    H1  455   4.850   1.041   0.386
  170TIP3    H2  456   4.761   1.139   0.460
  171TIP3   OH2  457   3.801   2.640   6.689
  171TIP3    H1  458   3.896   2.641   6.681
  171TIP3    H2  459   3.777   2.731   6.706
  172TIP3   OH2  460   3.336   0.220   2.415
  172TIP3    H1  461   3.305   0.207   2.325
  172TIP3    H2  462   3.414   0.165   2.421
  173TIP3   OH2  463   3.375   3.987   5.591
  173TIP3    H1  464   3.393   3.894   5.602
  173TIP3    H2  465   3.280   3.991   5.578
  174TIP3   OH2  466   8.279   4.825   2.860
  174TIP3    H1  467   8.222   4.773   2.916
  174TIP3    H2  468   8.314   4.893   2.917
  175TIP3   OH2  469   2.702   6.393   4.400
  175TIP3    H1  470   2.624   6.354   4.362
  175TIP3    H2  471   2.763   6.320   4.412
  176TIP3   OH2  472   3.446   3.757   4.070
  176TIP3    H1  473   3.435   3.708   4.151
  176TIP3    H2  474   3.481   3.693   4.008
  177TIP3   OH2  475   2.474   6.752   4.029
  177TIP3    H1  476   2.510   6.840   4.033
  177TIP3    H2  477   2.518   6.704   4.100
  178TIP3   OH2  478   5.825   6.850   2.097
  178TIP3    H1  479   5.765   6.779   2.073
  178TIP3    H2  480   5.839   6.898   2.016
  179TIP3   OH2  481   8.064   4.368   4.460
  179TIP3    H1  482   8.107   4.361   4.546
  179TIP3    H2  483   8.009   4.445   4.467
  180TIP3   OH2  484   1.772   0.150   5.195
  180TIP3    H1  485   1.682   0.173   5.217
  180TIP3    H2  486   1.789   0.197   5.113
  181TIP3   OH2  487   2.171   1.014   1.785
  181TIP3    H1  488   2.244   1.012   1.848
  181TIP3    H2  489   2.113   1.082   1.818
  182TIP3   OH2  490   1.241   5.421   1.755
  182TIP3    H1  491   1.230   5.507   1.797
  182TIP3    H2  492   1.190   5.427   1.674
  183TIP3   OH2  493   6.677   1.402   0.295
  183TIP3    H1  494   6.701   1.310   0.290
  183TIP3    H2  495   6.760   1.448   0.309
  184TIP3   OH2  496   7.688   6.846   2.580
  184TIP3    H1  497   7.768   6.808   2.544
  184TIP3    H2  498   7.719   6.913   2.641
  185TIP3   OH2  499   5.043   2.992   0.317
  185TIP3    H1  500   5.021   3.042   0.238
  185TIP3    H2  501   4.992   2.912   0.310
  186TIP3   OH2  502   5.956   0.332   6.261
  186TIP3    H1  503   6.049   0.337   6.284
  186TIP3    H2  504   5.922   0.262   6.318
  187TIP3   OH2  505   1.944   4.906   5.212
  187TIP3    H1  506   2.015   4.969   5.222
  187TIP3    H2  507   1.915   4.888   5.301
  188TIP3   OH2  508   3.958   0.713   5.290
  188TIP3    H1  509   3.938   0.779   5.223
  188TIP3    H2  510   4.034   0.748   5.336
  189TIP3   OH2  511   6.065   0.947   0.123
  189TIP3    H1  512   6.009   1.018   0.090
  189TIP3    H2  513   6.066   0.882   0.053
  190TIP3   OH2  514   5.456   7.708   1.455
  190TIP3    H1  515   5.414   7.782   1.499
  190TIP3    H2  516   5.469   7.643   1.525
  191TIP3   OH2  517   7.172   7.042   1.468
  191TIP3    H1  518   7.167   6.972   1.533
  191TIP3    H2  519   7.151   7.000   1.385
  192TIP3   OH2  520   4.329   4.723   5.872
  192TIP3    H1  521   4.237   4.751   5.871
  192TIP3    H2  522   4.356   4.733   5.963
  193TIP3   OH2  523   8.001   7.245   1.562
  193TIP3    H1  524   7.963   7.175   1.509
  193TIP3    H2  525   8.035   7.308   1.497
  194TIP3   OH2  526   6.248   2.441   3.171
  194TIP3    H1  527   6.282   2.523   3.205
  194TIP3    H2  528   6.256   2.379   3.244
  195TIP3   OH2  529   0.912   1.876   0.936
  195TIP3    H1  530   0.936   1.856   0.846
  195TIP3    H2  531   0.835   1.820   0.953
  196TIP3   OH2  532   0.760   2.855   1.432
  196TIP3    H1  533   0.791   2.890   1.516
  196TIP3    H2  534   0.726   2.931   1.386
  197TIP3   OH2  535   7.636   1.798   2.234
  197TIP3    H1  536   7.650   1.840   2.149
  197TIP3    H2  537   7.544   1.773   2.234
  198TIP3   OH2  538   6.270   5.459   1.360
  198TIP3    H1  539   6.348   5.513   1.349
  198TIP3    H2  540   6.200   5.522   1.378
  199TIP3   OH2  541   5.415   4.882   6.470
  199TIP3    H1  542   5.366   4.827   6.409
  199TIP3    H2  543   5.495   4.904   6.423
  200TIP3   OH2  544   4.343   4.143   3.879
  200TIP3    H1  545   4.430   4.139   3.841
  200TIP3    H2  546   4.301   4.216   3.834
  201TIP3   OH2  547   6.339   5.624   5.853
  201TIP3    H1  548   6.355   5.688   5.922
  201TIP3    H2  549   6.252   5.589   5.872
  202TIP3   OH2  550   7.062   5.436   5.502
  202TIP3    H1  551   7.120   5.434   5.578
  202TIP3    H2  552   7.067   5.526   5.470
  203TIP3   OH2  553   5.639   3.247   6.032
  203TIP3    H1  554   5.592   3.323   6.067
  203TIP3    H2  555   5.570   3.189   5.999
  204TIP3   OH2  556   4.646   2.573   2.192
  204TIP3    H1  557   4.635   2.659   2.233
  204TIP3    H2  558   4.741   2.557   2.196
  205TIP3   OH2  559   0.529   5.078   5.069
  205TIP3    H1  560   0.445   5.124   5.063
  205TIP3    H2  561   0.530   5.042   5.158
  206TIP3   OH2  562   7.168   7.261   0.397
  206TIP3    H1  563   7.106   7.295   0.332
  206TIP3    H2  564   7.247   7.314   0.385
  207TIP3   OH2  565   4.005   7.154   3.627
  207TIP3    H1  566   4.069   7.176   3.694
  207TIP3    H2  567   3.920   7.158   3.672
  208TIP3   OH2  568   5.802   1.149   2.632
  208TIP3    H1  569   5.825   1.056   2.638
  208TIP3    H2  570   5.852   1.181   2.557
  209TIP3   OH2  571   3.832   4.911   1.138
  209TIP3    H1  572   3.844   5.006   1.143
  209TIP3    H2  573   3.738   4.898   1.126
  210TIP3   OH2  574   7.468   1.733   5.965
  210TIP3    H1  575   7.520   1.700   6.038
  210TIP3    H2  576   7.463   1.827   5.980
  211TIP3   OH2  577   5.129   1.290   5.146
  211TIP3    H1  578   5.083   1.269   5.227
  211TIP3    H2  579   5.135   1.386   5.145
  212TIP3   OH2  580   1.487   5.549   0.277
  212TIP3    H1  581   1.402   5.553   0.321
  212TIP3    H2  582   1.530   5.472   0.314
  213TIP3   OH2  583   7.391   0.240   1.331
  213TIP3    H1  584   7.414   0.186   1.406
  213TIP3    H2  585   7.371   0.326   1.369
  214TIP3   OH2  586   2.057   5.796   1.408
  214TIP3    H1  587   1.962   5.796   1.395
  214TIP3    H2  588   2.087   5.879   1.370
  215TIP3   OH2  589   0.205   4.847   1.274
  215TIP3    H1  590   0.221   4.754   1.259
  215TIP3    H2  591   0.271   4.891   1.221
  216TIP3   OH2  592   1.378   4.244   4.692
  216TIP3    H1  593   1.388   4.338   4.681
  216TIP3    H2  594   1.468   4.211   4.701
  217TIP3   OH2  595   2.614   4.464   5.179
  217TIP3    H1  596   2.584   4.392   5.234
  217TIP3    H2  597   2.647   4.529   5.241
  218TIP3   OH2  598   0.433   3.549   3.530
  218TIP3    H1  599   0.349   3.592   3.514
  218TIP3    H2  600   0.478   3.552   3.446
  219TIP3   OH2  601   4.414   5.979   3.008
  219TIP3    H1  602   4.444   6.040   2.940
  219TIP3    H2  603   4.383   5.903   2.959
  220TIP3   OH2  604   1.272   2.212   1.983
  220TIP3    H1  605   1.260   2.273   1.910
  220TIP3    H2  606   1.244   2.262   2.060
  221TIP3   OH2  607   4.768   1.439   1.998
  221TIP3    H1  608   4.787   1.416   1.908
  221TIP3    H2  609   4.803   1.528   2.009
  222TIP3   OH2  610   7.128   6.808   4.012
  222TIP3    H1  611   7.183   6.847   4.080
  222TIP3    H2  612   7.039   6.818   4.045
  223TIP3   OH2  613   1.597   1.277   5.077
  223TIP3    H1  614   1.660   1.206   5.085
  223TIP3    H2  615   1.621   1.338   5.147
  224TIP3   OH2  616   1.489   2.548   6.226
  224TIP3    H1  617   1.477   2.641   6.245
  224TIP3    H2  618   1.582   2.540   6.205
  225TIP3   OH2  619   4.835   5.217   1.558
  225TIP3    H1  620   4.853   5.264   1.477
  225TIP3    H2  621   4.795   5.135   1.530
  226TIP3   OH2  622   1.135   7.098   4.374
  226TIP3    H1  623   1.144   7.192   4.359
  226TIP3    H2  624   1.125   7.089   4.469
  227TIP3   OH2  625   4.648   7.058   6.517
  227TIP3    H1  626   4.739   7.080   6.538
  227TIP3    H2  627   4.642   7.068   6.422
  228TIP3   OH2  628   0.663   6.987   3.597
  228TIP3    H1  629   0.582   6.974   3.646
  228TIP3    H2  630   0.728   6.934   3.644
  229TIP3   OH2  631   8.252   1.931   4.588
  229TIP3    H1  632   8.216   1.845   4.568
  229TIP3    H2  633   8.319   1.914   4.654
  230TIP3   OH2  634   6.425   2.317   2.730
  230TIP3    H1  635   6.392   2.388   2.786
  230TIP3    H2  636   6.493   2.358   2.677
  231TIP3   OH2  637   3.841   4.719   3.837
  231TIP3    H1  638   3.810   4.802   3.873
  231TIP3    H2  639   3.908   4.744   3.774
  232TIP3   OH2  640   3.921   2.811   2.241
  232TIP3    H1  641   3.943   2.845   2.328
  232TIP3    H2  642   3.945   2.882   2.181
  233TIP3   OH2  643   1.550   2.174   5.560
  233TIP3    H1  644   1.580   2.264   5.571
  233TIP3    H2  645   1.618   2.132   5.507
  234TIP3   OH2  646   4.335   0.301   3.950
  234TIP3    H1  647   4.256   0.345   3.980
  234TIP3    H2  648   4.351   0.338   3.863
  235TIP3   OH2  649   2.848   0.967   0.788
  235TIP3    H1  650   2.784   0.964   0.859
  235TIP3    H2  651   2.795   0.977   0.709
  236TIP3   OH2  652   4.148   1.457   3.136
  236TIP3    H1  653   4.177   1.537   3.092
  236TIP3    H2  654   4.065   1.480   3.178
  237TIP3   OH2  655   4.219   6.305   4.241
  237TIP3    H1  656   4.130   6.336   4.261
  237TIP3    H2  657   4.267   6.384   4.217
  238TIP3   OH2  658   2.199   4.827   3.841
  238TIP3    H1  659   2.289   4.835   3.871
  238TIP3    H2  660   2.155   4.776   3.910
  239TIP3   OH2  661   4.971   7.260   5.259
  239TIP3    H1  662   5.052   7.272   5.308
  239TIP3    H2  663   4.998   7.216   5.179
  240TIP3   OH2  664   2.316   3.081   5.885
  240TIP3    H1  665   2.268   3.130   5.952
  240TIP3    H2  666   2.383   3.034   5.933
  241TIP3   OH2  667   5.610   0.456   6.033
  241TIP3    H1  668   5.693   0.472   5.989
  241TIP3    H2  669   5.587   0.366   6.009
  242TIP3   OH2  670   3.443   5.217   4.449
  242TIP3    H1  671   3.493   5.160   4.390
  242TIP3    H2  672   3.457   5.179   4.536
  243TIP3   OH2  673   6.919   0.692   1.810
  243TIP3    H1  674   6.941   0.682   1.903
  243TIP3    H2  675   6.958   0.775   1.785
  244TIP3   OH2  676   2.211   3.227   2.923
  244TIP3    H1  677   2.185   3.144   2.882
  244TIP3    H2  678   2.165   3.294   2.873
  245TIP3   OH2  679   1.993   0.282   5.816
  245TIP3    H1  680   1.913   0.270   5.765
  245TIP3    H2  681   2.063   0.247   5.761
  246TIP3   OH2  682   6.202   6.896   4.268
  246TIP3    H1  683   6.167   6.809   4.284
  246TIP3    H2  684   6.240   6.891   4.180
  247TIP3   OH2  685   2.170   6.213   6.435
  247TIP3    H1  686   2.187   6.142   6.373
  247TIP3    H2  687   2.157   6.169   6.519
  248TIP3   OH2  688   3.402   1.375   4.043
  248TIP3    H1  689   3.344   1.436   4.088
  248TIP3    H2  690   3.489   1.414   4.053
  249TIP3   OH2  691   3.773   1.594   6.252
  249TIP3    H1  692   3.847   1.580   6.193
  249TIP3    H2  693   3.720   1.661   6.209
  250TIP3   OH2  694   1.983   7.727   6.750
  250TIP3    H1  695   2.060   7.783   6.746
  250TIP3    H2  696   1.925   7.761   6.682
  251TIP3   OH2  697   2.943   4.382   4.721
  251TIP3    H1  698   2.870   4.444   4.724
  251TIP3    H2  699   2.907   4.304   4.678
  252TIP3   OH2  700   0.432   4.035   3.258
  252TIP3    H1  701   0.364   4.078   3.205
  252TIP3    H2  702   0.503   4.100   3.263
  253TIP3   OH2  703   1.638   2.851   1.220
  253TIP3    H1  704   1.733   2.856   1.234
  253TIP3    H2  705   1.629   2.825   1.128
  254TIP3   OH2  706   3.174   5.650   4.430
  254TIP3    H1  707   3.227   5.618   4.503
  254TIP3    H2  708   3.206   5.603   4.353
  255TIP3   OH2  709   6.159   3.013   2.532
  255TIP3    H1  710   6.202   3.088   2.574
  255TIP3    H2  711   6.201   2.937   2.572
  256TIP3   OH2  712   6.523   3.674   3.717
  256TIP3    H1  713   6.464   3.714   3.653
  256TIP3    H2  714   6.535   3.741   3.784
  257TIP3   OH2  715   0.423   2.673   0.219
  257TIP3    H1  716   0.428   2.696   0.311
  257TIP3    H2  717   0.478   2.596   0.210
  258TIP3   OH2  718   1.492   0.505   6.361
  258TIP3    H1  719   1.511   0.572   6.296
  258TIP3    H2  720   1.569   0.503   6.417
  259TIP3   OH2  721   6.781   0.585   4.546
  259TIP3    H1  722   6.779   0.491   4.565
  259TIP3    H2  723   6.768   0.591   4.451
  260TIP3   OH2  724   2.998   1.555   6.447
  260TIP3    H1  725   3.027   1.646   6.450
  260TIP3    H2  726   2.996   1.533   6.354
  261TIP3   OH2  727   7.697   6.338   2.821
  261TIP3    H1  728   7.614   6.300   2.851
  261TIP3    H2  729   7.764   6.286   2.865
  262TIP3   OH2  730   7.042   5.892   1.178
  262TIP3    H1  731   6.987   5.950   1.230
  262TIP3    H2  732   7.099   5.848   1.241
  263TIP3   OH2  733   2.216   6.408   2.789
  263TIP3    H1  734   2.172   6.474   2.736
  263TIP3    H2  735   2.304   6.445   2.803
  264TIP3   OH2  736   7.337   4.132   3.293
  264TIP3    H1  737   7.247   4.150   3.264
  264TIP3    H2  738   7.344   4.177   3.377
  265TIP3   OH2  739   8.246   4.920   1.353
  265TIP3    H1  740   8.329   4.882   1.325
  265TIP3    H2  741   8.181   4.882   1.294
  266TIP3   OH2  742   5.434   5.814   2.280
  266TIP3    H1  743   5.341   5.807   2.258
  266TIP3    H2  744   5.474   5.851   2.201
  267TIP3   OH2  745   6.358   7.226   3.597
  267TIP3    H1  746   6.418   7.157   3.569
  267TIP3    H2  747   6.413   7.303   3.609
  268TIP3   OH2  748   7.275   2.862   6.580
  268TIP3    H1  749   7.331   2.784   6.589
  268TIP3    H2  750   7.337   2.935   6.582
  269TIP3   OH2  751   0.314   1.280   4.362
  269TIP3    H1  752   0.281   1.196   4.394
  269TIP3    H2  753   0.311   1.272   4.267
  270TIP3   OH2  754   7.333   2.845   4.302
  270TIP3    H1  755   7.358   2.773   4.244
  270TIP3    H2  756   7.394   2.838   4.376
  271TIP3   OH2  757   1.604   6.488   5.510
  271TIP3    H1  758   1.682   6.542   5.523
  271TIP3    H2  759   1.558   6.491   5.594
  272TIP3   OH2  760   6.522   3.745   0.292
  272TIP3    H1  761   6.520   3.700   0.376
  272TIP3    H2  762   6.430   3.764   0.273
  273TIP3   OH2  763   2.040   5.015   3.765
  273TIP3    H1  764   2.027   5.055   3.851
  273TIP3    H2  765   2.096   4.939   3.783
  274TIP3   OH2  766   0.345   1.559   5.971
  274TIP3    H1  767   0.251   1.569   5.989
  274TIP3    H2  768   0.375   1.500   6.040
  275TIP3   OH2  769   5.577   7.242   4.143
  275TIP3    H1  770   5.483   7.242   4.161
  275TIP3    H2  771   5.615   7.189   4.214
  276TIP3   OH2  772   6.684   0.361   2.617
  276TIP3    H1  773   6.611   0.346   2.676
  276TIP3    H2  774   6.643   0.395   2.537
  277TIP3   OH2  775   4.717   0.915   5.152
  277TIP3    H1  776   4.641   0.870   5.189
  277TIP3    H2  777   4.778   0.922   5.225
  278TIP3   OH2  778   0.461   6.904   2.831
  278TIP3    H1  779   0.392   6.966   2.808
  278TIP3    H2  780   0.432   6.866   2.914
  279TIP3   OH2  781   7.882   5.526   5.243
  279TIP3    H1  782   7.971   5.561   5.243
  279TIP3    H2  783   7.829   5.594   5.285
  280TIP3   OH2  784   2.556   4.487   3.796
  280TIP3    H1  785   2.630   4.485   3.735
  280TIP3    H2  786   2.594   4.511   3.880
  281TIP3   OH2  787   4.202   1.713   3.870
  281TIP3    H1  788   4.194   1.716   3.965
  281TIP3    H2  789   4.169   1.626   3.846
  282TIP3   OH2  790   2.859   1.695   1.647
  282TIP3    H1  791   2.879   1.656   1.562
  282TIP3    H2  792   2.927   1.761   1.659
  283TIP3   OH2  793   4.271   4.009   3.479
  283TIP3    H1  794   4.204   4.038   3.417
  283TIP3    H2  795   4.348   4.062   3.460
  284TIP3   OH2  796   6.075   5.770   0.375
  284TIP3    H1  797   6.138   5.760   0.304
  284TIP3    H2  798   6.128   5.768   0.455
  285TIP3   OH2  799   3.432   7.706   3.605
  285TIP3    H1  800   3.360   7.731   3.547
  285TIP3    H2  801   3.425   7.611   3.613
  286TIP3   OH2  802   2.709   2.020   4.497
  286TIP3    H1  803   2.713   1.993   4.589
  286TIP3    H2  804   2.620   2.051   4.484
  287TIP3   OH2  805   0.112   6.996   4.981
  287TIP3    H1  806   0.109   7.078   4.931
  287TIP3    H2  807   0.079   7.020   5.068
  288TIP3   OH2  808   5.118   5.208   2.807
  288TIP3    H1  809   5.089   5.146   2.741
  288TIP3    H2  810   5.138   5.154   2.884
  289TIP3   OH2  811   3.365   5.573   4.221
  289TIP3    H1  812   3.446   5.568   4.273
  289TIP3    H2  813   3.385   5.637   4.153
  290TIP3   OH2  814   7.771   4.116   3.384
  290TIP3    H1  815   7.769   4.021   3.381
  290TIP3    H2  816   7.721   4.143   3.307
  291TIP3   OH2  817   0.736   5.270   5.024
  291TIP3    H1  818   0.708   5.352   5.064
  291TIP3    H2  819   0.669   5.206   5.049
  292TIP3   OH2  820   0.545   1.022   0.269
  292TIP3    H1  821   0.544   0.927   0.258
  292TIP3    H2  822   0.561   1.056   0.181
  293TIP3   OH2  823   0.299   1.490   5.425
  293TIP3    H1  824   0.249   1.415   5.456
  293TIP3    H2  825   0.391   1.465   5.438
  294TIP3   OH2  826   2.392   7.747   5.308
  294TIP3    H1  827   2.334   7.818   5.336
  294TIP3    H2  828   2.480   7.781   5.323
  295TIP3   OH2  829   3.050   4.773   3.341
  295TIP3    H1  830   3.107   4.696   3.337
  295TIP3    H2  831   2.962   4.739   3.325
  296TIP3   OH2  832   3.640   2.844   2.065
  296TIP3    H1  833   3.663   2.814   2.152
  296TIP3    H2  834   3.606   2.933   2.078
  297TIP3   OH2  835   1.357   7.494   2.082
  297TIP3    H1  836   1.383   7.553   2.011
  297TIP3    H2  837   1.277   7.533   2.118
  298TIP3   OH2  838   7.733   3.176   1.664
  298TIP3    H1  839   7.787   3.121   1.720
  298TIP3    H2  840   7.754   3.266   1.692
  299TIP3   OH2  841   7.110   5.511   5.080
  299TIP3    H1  842   7.060   5.593   5.076
  299TIP3    H2  843   7.045   5.442   5.065
  300TIP3   OH2  844   0.548   1.274   6.652
  300TIP3    H1  845   0.526   1.200   6.595
  300TIP3    H2  846   0.592   1.336   6.595
  301TIP3   OH2  847   6.508   0.135   0.471
  301TIP3    H1  848   6.455   0.109   0.395
  301TIP3    H2  849   6.574   0.066   0.477
  302TIP3   OH2  850   7.761   5.337   2.890
  302TIP3    H1  851   7.852   5.327   2.860
  302TIP3    H2  852   7.723   5.250   2.881
  303TIP3   OH2  853   4.472   4.261   2.588
  303TIP3    H1  854   4.419   4.181   2.589
  303TIP3    H2  855   4.562   4.230   2.590
  304TIP3   OH2  856   6.233   6.331   5.728
  304TIP3    H1  857   6.283   6.288   5.658
  304TIP3    H2  858   6.218   6.261   5.792
  305TIP3   OH2  859   0.830   2.177   3.885
  305TIP3    H1  860   0.878   2.252   3.849
  305TIP3    H2  861   0.807   2.204   3.974
  306TIP3   OH2  862   4.340   3.469   5.750
  306TIP3    H1  863   4.252   3.431   5.752
  306TIP3    H2  864   4.366   3.464   5.658
  307TIP3   OH2  865   7.930   0.534   3.674
  307TIP3    H1  866   7.978   0.576   3.602
  307TIP3    H2  867   7.900   0.607   3.728
  308TIP3   OH2  868   5.220   6.728   6.313
  308TIP3    H1  869   5.237   6.634   6.303
  308TIP3    H2  870   5.137   6.732   6.360
  309TIP3   OH2  871   0.979   3.828   6.393
  309TIP3    H1  872   1.075   3.834   6.388
  309TIP3    H2  873   0.950   3.918   6.402
  310TIP3   OH2  874   1.973   7.249   2.161
  310TIP3    H1  875   1.996   7.158   2.177
  310TIP3    H2  876   2.010   7.296   2.236
  311TIP3   OH2  877   1.055   2.602   1.359
  311TIP3    H1  878   1.028   2.685   1.321
  311TIP3    H2  879   0.984   2.542   1.338
  312TIP3   OH2  880   7.459   4.094   2.419
  312TIP3    H1  881   7.478   4.007   2.385
  312TIP3    H2  882   7.411   4.137   2.348
  313TIP3   OH2  883   0.875   7.716   4.797
  313TIP3    H1  884   0.927   7.706   4.717
  313TIP3    H2  885   0.785   7.701   4.768
  314TIP3   OH2  886   1.675   6.553   0.048
  314TIP3    H1  887   1.742   6.492   0.016
  314TIP3    H2  888   1.597   6.498   0.061
  315TIP3   OH2  889   7.268   5.385   6.527
  315TIP3    H1  890   7.287   5.297   6.494
  315TIP3    H2  891   7.349   5.434   6.514
  316TIP3   OH2  892   5.927   4.443   5.902
  316TIP3    H1  893   5.929   4.393   5.984
  316TIP3    H2  894   6.006   4.416   5.856
  317TIP3   OH2  895   0.870   5.124   5.276
  317TIP3    H1  896   0.795   5.070   5.253
  317TIP3    H2  897   0.903   5.156   5.192
  318TIP3   OH2  898   1.839   3.619   5.246
  318TIP3    H1  899   1.772   3.664   5.195
  318TIP3    H2  900   1.792   3.553   5.296
  319TIP3   OH2  901   4.222   7.178   4.534
  319TIP3    H1  902   4.135   7.142   4.518
  319TIP3    H2  903   4.270   7.107   4.577
  320TIP3   OH2  904   6.894   4.497   6.472
  320TIP3    H1  905   6.946   4.549   6.411
  320TIP3    H2  906   6.956   4.468   6.539
  321TIP3   OH2  907   3.973   0.027   3.162
  321TIP3    H1  908   3.960   0.107   3.213
  321TIP3    H2  909   3.902   0.028   3.098
  322TIP3   OH2  910   4.949   0.536   1.269
  322TIP3    H1  911   4.946   0.498   1.181
  322TIP3    H2  912   4.869   0.505   1.311
  323TIP3   OH2  913   4.803   3.013   2.076
  323TIP3    H1  914   4.824   3.086   2.135
  323TIP3    H2  915   4.709   3.000   2.087
  324TIP3   OH2  916   4.598   2.370   0.610
  324TIP3    H1  917   4.665   2.391   0.676
  324TIP3    H2  918   4.605   2.275   0.598
  325TIP3   OH2  919   8.173   4.145   0.280
  325TIP3    H1  920   8.170   4.240   0.289
  325TIP3    H2  921   8.096   4.124   0.227
  326TIP3   OH2  922   5.125   0.856   1.032
  326TIP3    H1  923   5.061   0.841   0.963
  326TIP3    H2  924   5.074   0.890   1.106
  327TIP3   OH2  925   3.456   3.250   4.105
  327TIP3    H1  926   3.414   3.290   4.180
  327TIP3    H2  927   3.528   3.198   4.142
  328TIP3   OH2  928   3.362   1.439   3.755
  328TIP3    H1  929   3.358   1.427   3.850
  328TIP3    H2  930   3.419   1.369   3.724
  329TIP3   OH2  931   7.708   7.251   5.891
  329TIP3    H1  932   7.801   7.252   5.869
  329TIP3    H2  933   7.702   7.292   5.977
  330TIP3   OH2  934   1.169   2.406   1.812
  330TIP3    H1  935   1.159   2.458   1.732
  330TIP3    H2  936   1.115   2.451   1.877
  331TIP3   OH2  937   8.171   4.316   3.653
  331TIP3    H1  938   8.184   4.359   3.569
  331TIP3    H2  939   8.077   4.323   3.670
  332TIP3   OH2  940   3.442   2.113   2.442
  332TIP3    H1  941   3.363   2.107   2.388
  332TIP3    H2  942   3.450   2.206   2.461
  333TIP3   OH2  943   4.328   1.118   4.742
  333TIP3    H1  944   4.334   1.191   4.681
  333TIP3    H2  945   4.402   1.062   4.720
  334TIP3   OH2  946   4.058   3.251   0.356
  334TIP3    H1  947   4.069   3.242   0.451
  334TIP3    H2  948   4.022   3.167   0.329
  335TIP3   OH2  949   1.759   5.060   4.744
  335TIP3    H1  950   1.712   4.987   4.783
  335TIP3    H2  951   1.794   5.109   4.818
  336TIP3   OH2  952   1.822   6.816   0.857
  336TIP3    H1  953   1.769   6.741   0.830
  336TIP3    H2  954   1.763   6.868   0.912
  337TIP3   OH2  955   2.017   6.982   2.293
  337TIP3    H1  956   2.056   6.952   2.210
  337TIP3    H2  957   2.018   6.905   2.349
  338TIP3   OH2  958   6.036   6.651   6.670
  338TIP3    H1  959   5.970   6.648   6.600
  338TIP3    H2  960   6.029   6.566   6.713
  339TIP3   OH2  961   6.834   3.367   5.180
  339TIP3    H1  962   6.818   3.291   5.236
  339TIP3    H2  963   6.784   3.438   5.220
  340TIP3   OH2  964   5.373   3.393   3.335
  340TIP3    H1  965   5.356   3.470   3.281
  340TIP3    H2  966   5.287   3.352   3.347
  341TIP3   OH2  967   4.664   4.760   1.863
  341TIP3    H1  968   4.706   4.674   1.855
  341TIP3    H2  969   4.736   4.822   1.864
  342TIP3   OH2  970   0.350   0.063   0.899
  342TIP3    H1  971   0.337   0.034   0.989
  342TIP3    H2  972   0.445   0.071   0.891
  343TIP3   OH2  973   5.889   3.997   6.718
  343TIP3    H1  974   5.844   3.926   6.765
  343TIP3    H2  975   5.969   3.956   6.685
  344TIP3   OH2  976   8.057   6.123   1.655
  344TIP3    H1  977   8.023   6.088   1.737
  344TIP3    H2  978   8.042   6.217   1.660
  345TIP3   OH2  979   0.735   5.900   6.261
  345TIP3    H1  980   0.768   5.812   6.239
  345TIP3    H2  981   0.793   5.930   6.331
  346TIP3   OH2  982   8.109   6.796   5.733
  346TIP3    H1  983   8.086   6.836   5.817
  346TIP3    H2  984   8.028   6.798   5.682
  347TIP3   OH2  985   2.379   4.753   4.195
  347TIP3    H1  986   2.329   4.831   4.169
  347TIP3    H2  987   2.461   4.788   4.230
  348TIP3   OH2  988   2.223   6.611   3.085
  348TIP3    H1  989   2.210   6.518   3.105
  348TIP3    H2  990   2.149   6.634   3.029
  349TIP3   OH2  991   6.823   2.203   3.456
  349TIP3    H1  992   6.863   2.167   3.535
  349TIP3    H2  993   6.870   2.160   3.384
  350TIP3   OH2  994   6.502   1.019   2.481
  350TIP3    H1  995   6.444   1.094   2.491
  350TIP3    H2  996   6.590   1.055   2.492
  351TIP3   OH2  997   5.599   7.419   2.804
  351TIP3    H1  998   5.547   7.384   2.876
  351TIP3    H2  999   5.538   7.423   2.730
  352TIP3   OH2 1000   1.476   5.036   3.237
  352TIP3    H1 1001   1.401   5.022   3.178
  352TIP3    H2 1002   1.506   4.948   3.259
  353TIP3   OH2 1003   4.178   5.823   0.565
  353TIP3    H1 1004   4.237   5.898   0.579
  353TIP3    H2 1005   4.198   5.763   0.637
  354TIP3   OH2 1006   0.989   1.424   4.702
  354TIP3    H1 1007   1.079   1.406   4.675
  354TIP3    H2 1008   0.988   1.518   4.722
  355TIP3   OH2 1009   1.071   0.704   4.131
  355TIP3    H1 1010   1.125   0.627   4.111
  355TIP3    H2 1011   1.010   0.673   4.198
  356TIP3   OH2 1012   6.727   2.426   0.358
  356TIP3    H1 1013   6.786   2.414   0.432
  356TIP3    H2 1014   6.734   2.345   0.308
  357TIP3   OH2 1015   5.252   0.112   1.551
  357TIP3    H1 1016   5.327   0.097   1.494
  357TIP3    H2 1017   5.289   0.119   1.639
  358TIP3   OH2 1018   1.820   5.789   6.679
  358TIP3    H1 1019   1.847   5.698   6.663
  358TIP3    H2 1020   1.856   5.810   6.765
  359TIP3   OH2 1021   6.298   1.343   0.799
  359TIP3    H1 1022   6.379   1.315   0.757
  359TIP3    H2 1023   6.321   1.351   0.892
  360TIP3   OH2 1024   0.900   7.625   4.180
  360TIP3    H1 1025   0.927   7.533   4.190
  360TIP3    H2 1026   0.807   7.625   4.205
  361TIP3   OH2 1027   2.624   3.473   2.790
  361TIP3    H1 1028   2.657   3.448   2.876
  361TIP3    H2 1029   2.571   3.551   2.806
  362TIP3   OH2 1030   2.714   5.459   1.180
  362TIP3    H1 1031   2.744   5.405   1.107
  362TIP3    H2 1032   2.768   5.432   1.254
  363TIP3   OH2 1033   2.432   0.542   0.539
  363TIP3    H1 1034   2.491   0.617   0.546
  363TIP3    H2 1035   2.489   0.468   0.520
  364TIP3   OH2 1036   5.390   5.220   3.225
  364TIP3    H1 1037   5.391   5.287   3.293
  364TIP3    H2 1038   5.300   5.187   3.225
  365TIP3   OH2 1039   5.540   5.297   5.695
  365TIP3    H1 1040   5.529   5.297   5.600
  365TIP3    H2 1041   5.453   5.317   5.730
  366TIP3   OH2 1042   2.252   6.804   4.229
  366TIP3    H1 1043   2.330   6.777   4.180
  366TIP3    H2 1044   2.283   6.816   4.319
  367TIP3   OH2 1045   4.908   5.644   5.762
  367TIP3    H1 1046   4.918   5.631   5.856
  367TIP3    H2 1047   4.998   5.642   5.728
  368TIP3   OH2 1048   3.313   7.645   5.854
  368TIP3    H1 1049   3.373   7.570   5.855
  368TIP3    H2 1050   3.262   7.633   5.773
  369TIP3   OH2 1051   8.090   5.354   0.009
  369TIP3    H1 1052   8.040   5.295  -0.048
  369TIP3    H2 1053   8.174   5.310   0.021
  370TIP3   OH2 1054   1.461   3.791   4.789
  370TIP3    H1 1055   1.490   3.879   4.812
  370TIP3    H2 1056   1.382   3.805   4.737
  371TIP3   OH2 1057   7.486   2.082   6.190
  371TIP3    H1 1058   7.409   2.036   6.155
  371TIP3    H2 1059   7.519   2.133   6.116
  372TIP3   OH2 1060   2.020   3.996   3.158
  372TIP3    H1 1061   1.924   3.994   3.151
  372TIP3    H2 1062   2.051   3.990   3.068
  373TIP3   OH2 1063   4.761   1.731   4.327
  373TIP3    H1 1064   4.801   1.721   4.240
  373TIP3    H2 1065   4.668   1.738   4.310
  374TIP3   OH2 1066   4.664   3.503   4.497
  374TIP3    H1 1067   4.603   3.575   4.515
  374TIP3    H2 1068   4.714   3.493   4.578
  375TIP3   OH2 1069   6.313   7.119   0.906
  375TIP3    H1 1070   6.390   7.150   0.954
  375TIP3    H2 1071   6.339   7.122   0.814
  376TIP3   OH2 1072   6.981   2.639   4.613
  376TIP3    H1 1073   7.013   2.623   4.702
  376TIP3    H2 1074   7.050   2.689   4.571
  377TIP3   OH2 1075   5.144   1.434   2.647
  377TIP3    H1 1076   5.062   1.442   2.599
  377TIP3    H2 1077   5.147   1.342   2.674
  378TIP3   OH2 1078   2.991   0.293   0.065
  378TIP3    H1 1079   3.052   0.228   0.029
  378TIP3    H2 1080   2.923   0.241   0.108
  379TIP3   OH2 1081   7.938   4.003   0.556
  379TIP3    H1 1082   7.897   3.990   0.471
  379TIP3    H2 1083   7.866   4.003   0.618
  380TIP3   OH2 1084   3.301   0.696   4.501
  380TIP3    H1 1085   3.206   0.705   4.488
  380TIP3    H2 1086   3.319   0.604   4.482
  381TIP3   OH2 1087   1.562   4.798   5.314
  381TIP3    H1 1088   1.555   4.872   5.373
  381TIP3    H2 1089   1.493   4.814   5.248
  382TIP3   OH2 1090   6.048   3.569   4.270
  382TIP3    H1 1091   5.963   3.583   4.227
  382TIP3    H2 1092   6.110   3.615   4.213
  383TIP3   OH2 1093   2.932   1.749   6.682
  383TIP3    H1 1094   2.846   1.791   6.692
  383TIP3    H2 1095   2.912   1.656   6.673
  384TIP3   OH2 1096   5.716   5.459   5.493
  384TIP3    H1 1097   5.778   5.398   5.453
  384TIP3    H2 1098   5.657   5.483   5.422
  385TIP3   OH2 1099   1.361   5.237   0.869
  385TIP3    H1 1100   1.315   5.259   0.788
  385TIP3    H2 1101   1.453   5.255   0.851
  386TIP3   OH2 1102   4.416   3.573   1.133
  386TIP3    H1 1103   4.408   3.669   1.128
  386TIP3    H2 1104   4.326   3.543   1.146
  387TIP3   OH2 1105   6.950   1.390   2.271
  387TIP3    H1 1106   6.906   1.462   2.225
  387TIP3    H2 1107   6.883   1.356   2.331
  388TIP3   OH2 1108   5.220   3.712   3.491
  388TIP3    H1 1109   5.182   3.765   3.561
  388TIP3    H2 1110   5.201   3.622   3.517
  389TIP3   OH2 1111   4.924   7.190   0.774
  389TIP3    H1 1112   5.006   7.141   0.766
  389TIP3    H2 1113   4.951   7.282   0.771
  390TIP3   OH2 1114   1.613   7.311   0.502
  390TIP3    H1 1115   1.541   7.293   0.562
  390TIP3    H2 1116   1.624   7.231   0.452
  391TIP3   OH2 1117   0.376   1.534   0.853
  391TIP3    H1 1118   0.313   1.463   0.841
  391TIP3    H2 1119   0.333   1.611   0.814
  392TIP3   OH2 1120   2.829   1.438   1.153
  392TIP3    H1 1121   2.739   1.471   1.154
  392TIP3    H2 1122   2.852   1.427   1.245
  393TIP3   OH2 1123   2.443   2.341   4.095
  393TIP3    H1 1124   2.497   2.419   4.107
  393TIP3    H2 1125   2.495   2.285   4.038
  394TIP3   OH2 1126   0.507   0.718   4.320
  394TIP3    H1 1127   0.534   0.799   4.364
  394TIP3    H2 1128   0.560   0.715   4.240
  395TIP3   OH2 1129   4.049   4.412   2.077
  395TIP3    H1 1130   3.979   4.362   2.036
  395TIP3    H2 1131   4.124   4.353   2.077
  396TIP3   OH2 1132   0.712   1.438   3.883
  396TIP3    H1 1133   0.732   1.384   3.960
  396TIP3    H2 1134   0.638   1.492   3.911
  397TIP3   OH2 1135   1.497   4.780   3.637
  397TIP3    H1 1136   1.432   4.828   3.687
  397TIP3    H2 1137   1.580   4.797   3.682
  398TIP3   OH2 1138   5.059   1.876   3.765
  398TIP3    H1 1139   5.063   1.815   3.839
  398TIP3    H2 1140   4.980   1.852   3.718
  399TIP3   OH2 1141   1.346   6.630   2.643
  399TIP3    H1 1142   1.251   6.620   2.649
  399TIP3    H2 1143   1.360   6.724   2.640
  400TIP3   OH2 1144   0.138   7.224   2.996
  400TIP3    H1 1145   0.052   7.218   3.037
  400TIP3    H2 1146   0.122   7.274   2.915
  401TIP3   OH2 1147   6.426   6.467   5.316
  401TIP3    H1 1148   6.393   6.399   5.257
  401TIP3    H2 1149   6.361   6.538   5.310
  402TIP3   OH2 1150   3.295   2.555   2.867
  402TIP3    H1 1151   3.389   2.537   2.863
  402TIP3    H2 1152   3.289   2.643   2.905
  403TIP3   OH2 1153   7.598   5.357   3.218
  403TIP3    H1 1154   7.596   5.265   3.194
  403TIP3    H2 1155   7.660   5.361   3.291
  404TIP3   OH2 1156   5.806   1.621   2.577
  404TIP3    H1 1157   5.724   1.655   2.613
  404TIP3    H2 1158   5.782   1.590   2.490
  405TIP3   OH2 1159   2.085   6.379   1.279
  405TIP3    H1 1160   2.003   6.379   1.328
  405TIP3    H2 1161   2.153   6.366   1.345
  406TIP3   OH2 1162   7.982   3.335   2.379
  406TIP3    H1 1163   8.046   3.344   2.450
  406TIP3    H2 1164   8.016   3.391   2.309
  407TIP3   OH2 1165   5.333   5.688   5.273
  407TIP3    H1 1166   5.257   5.662   5.325
  407TIP3    H2 1167   5.356   5.775   5.305
  408TIP3   OH2 1168   4.923   0.422   2.714
  408TIP3    H1 1169   4.903   0.471   2.634
  408TIP3    H2 1170   5.016   0.400   2.706
  409TIP3   OH2 1171   3.806   7.000   3.780
  409TIP3    H1 1172   3.741   6.940   3.745
  409TIP3    H2 1173   3.767   7.087   3.769
  410TIP3   OH2 1174   3.306   0.956   2.043
  410TIP3    H1 1175   3.327   0.945   2.136
  410TIP3    H2 1176   3.365   1.027   2.014
  411TIP3   OH2 1177   6.626   1.569   3.326
  411TIP3    H1 1178   6.537   1.535   3.322
  411TIP3    H2 1179   6.675   1.517   3.263
  412TIP3   OH2 1180   7.517   3.018   0.377
  412TIP3    H1 1181   7.504   2.951   0.445
  412TIP3    H2 1182   7.611   3.031   0.374
  413TIP3   OH2 1183   0.584   7.404   3.764
  413TIP3    H1 1184   0.546   7.334   3.817
  413TIP3    H2 1185   0.593   7.478   3.824
  414TIP3   OH2 1186   3.653   4.665   1.736
  414TIP3    H1 1187   3.709   4.737   1.706
  414TIP3    H2 1188   3.586   4.708   1.788
  415TIP3   OH2 1189   3.417   1.174   6.003
  415TIP3    H1 1190   3.367   1.161   5.923
  415TIP3    H2 1191   3.508   1.171   5.975
  416TIP3   OH2 1192   2.468   1.438   5.057
  416TIP3    H1 1193   2.393   1.433   5.116
  416TIP3    H2 1194   2.514   1.518   5.082
  417TIP3   OH2 1195   5.148   5.402   4.238
  417TIP3    H1 1196   5.089   5.477   4.239
  417TIP3    H2 1197   5.197   5.408   4.320
  418TIP3   OH2 1198   6.883   3.959   1.746
  418TIP3    H1 1199   6.818   3.890   1.761
  418TIP3    H2 1200   6.874   4.017   1.822
  419TIP3   OH2 1201   2.600   0.053   2.418
  419TIP3    H1 1202   2.507   0.038   2.433
  419TIP3    H2 1203   2.638   0.061   2.506
  420TIP3   OH2 1204   6.871   3.558   0.628
  420TIP3    H1 1205   6.844   3.498   0.558
  420TIP3    H2 1206   6.854   3.645   0.592
  421TIP3   OH2 1207   2.735   7.360   6.694
  421TIP3    H1 1208   2.662   7.405   6.737
  421TIP3    H2 1209   2.717   7.267   6.706
  422TIP3   OH2 1210   3.307   1.568   6.699
  422TIP3    H1 1211   3.255   1.647   6.714
  422TIP3    H2 1212   3.267   1.527   6.622
  423TIP3   OH2 1213   6.724   0.370   5.613
  423TIP3    H1 1214   6.686   0.456   5.634
  423TIP3    H2 1215   6.797   0.391   5.555
  424TIP3   OH2 1216   4.276   6.997   5.421
  424TIP3    H1 1217   4.312   6.948   5.495
  424TIP3    H2 1218   4.309   7.086   5.433
  425TIP3   OH2 1219   2.951   6.726   0.382
  425TIP3    H1 1220   3.033   6.762   0.348
  425TIP3    H2 1221   2.955   6.742   0.476
  426TIP3   OH2 1222   4.686   4.115   1.991
  426TIP3    H1 1223   4.740   4.189   1.965
  426TIP3    H2 1224   4.641   4.089   1.911
  427TIP3   OH2 1225   8.112   5.673   5.309
  427TIP3    H1 1226   8.198   5.675   5.267
  427TIP3    H2 1227   8.129   5.637   5.396
  428TIP3   OH2 1228   6.634   0.343   2.312
  428TIP3    H1 1229   6.686   0.264   2.322
  428TIP3    H2 1230   6.544   0.312   2.304
  429TIP3   OH2 1231   5.666   6.992   1.769
  429TIP3    H1 1232   5.683   7.058   1.835
  429TIP3    H2 1233   5.740   6.932   1.774
  430TIP3   OH2 1234   2.356   4.165   3.612
  430TIP3    H1 1235   2.332   4.165   3.704
  430TIP3    H2 1236   2.273   4.151   3.566
  431TIP3   OH2 1237   4.964   2.159   6.147
  431TIP3    H1 1238   4.938   2.107   6.070
  431TIP3    H2 1239   4.945   2.249   6.122
  432TIP3   OH2 1240   6.985   7.357   4.586
  432TIP3    H1 1241   7.033   7.396   4.513
  432TIP3    H2 1242   7.053   7.319   4.642
  433TIP3   OH2 1243   2.046   4.109   5.287
  433TIP3    H1 1244   1.981   4.175   5.264
  433TIP3    H2 1245   2.004   4.026   5.262
  434TIP3   OH2 1246   3.958   1.531   6.061
  434TIP3    H1 1247   3.944   1.438   6.081
  434TIP3    H2 1248   3.960   1.535   5.966
  435TIP3   OH2 1249   0.480   1.080   3.795
  435TIP3    H1 1250   0.434   0.999   3.774
  435TIP3    H2 1251   0.412   1.148   3.791
  436TIP3   OH2 1252   3.244   7.059   1.827
  436TIP3    H1 1253   3.293   7.001   1.887
  436TIP3    H2 1254   3.278   7.146   1.846
  437TIP3   OH2 1255   5.744   0.087   0.550
  437TIP3    H1 1256   5.715   0.020   0.489
  437TIP3    H2 1257   5.829   0.115   0.517
  438TIP3   OH2 1258   6.166   4.074   1.330
  438TIP3    H1 1259   6.114   4.148   1.299
  438TIP3    H2 1260   6.135   4.000   1.278
  439TIP3   OH2 1261   4.784   0.420   3.965
  439TIP3    H1 1262   4.722   0.350   3.986
  439TIP3    H2 1263   4.832   0.433   4.047
  440TIP3   OH2 1264   6.372   4.995   6.693
  440TIP3    H1 1265   6.357   5.089   6.705
  440TIP3    H2 1266   6.467   4.985   6.695
  441TIP3   OH2 1267   4.985   1.477   5.881
  441TIP3    H1 1268   5.049   1.548   5.876
  441TIP3    H2 1269   4.936   1.482   5.799
  442TIP3   OH2 1270   5.490   3.272   5.681
  442TIP3    H1 1271   5.526   3.348   5.727
  442TIP3    H2 1272   5.548   3.261   5.605
  443TIP3   OH2 1273   2.859   0.895   5.624
  443TIP3    H1 1274   2.823   0.874   5.537
  443TIP3    H2 1275   2.793   0.952   5.664
  444TIP3   OH2 1276   4.282   6.251   2.296
  444TIP3    H1 1277   4.326   6.307   2.233
  444TIP3    H2 1278   4.211   6.305   2.332
  445TIP3   OH2 1279   0.297   0.330   0.795
  445TIP3    H1 1280   0.339   0.379   0.866
  445TIP3    H2 1281   0.295   0.239   0.827
  446TIP3   OH2 1282   0.775   4.877   0.892
  446TIP3    H1 1283   0.757   4.813   0.823
  446TIP3    H2 1284   0.870   4.870   0.906
  447TIP3   OH2 1285   0.841   2.675   6.163
  447TIP3    H1 1286   0.810   2.700   6.076
  447TIP3    H2 1287   0.761   2.671   6.216
  448TIP3   OH2 1288   2.709   5.132   0.945
  448TIP3    H1 1289   2.652   5.115   1.021
  448TIP3    H2 1290   2.768   5.202   0.975
  449TIP3   OH2 1291   7.895   2.108   2.232
  449TIP3    H1 1292   7.919   2.066   2.149
  449TIP3    H2 1293   7.972   2.161   2.255
  450TIP3   OH2 1294   1.444   0.354   5.520
  450TIP3    H1 1295   1.487   0.429   5.478
  450TIP3    H2 1296   1.362   0.390   5.554
  451TIP3   OH2 1297   5.419   1.380   2.781
  451TIP3    H1 1298   5.407   1.451   2.719
  451TIP3    H2 1299   5.448   1.306   2.728
  452TIP3   OH2 1300   6.483   2.209   6.501
  452TIP3    H1 1301   6.555   2.149   6.519
  452TIP3    H2 1302   6.406   2.165   6.537
  453TIP3   OH2 1303   5.565   0.037   3.257
  453TIP3    H1 1304   5.618  -0.004   3.326
  453TIP3    H2 1305   5.629   0.085   3.204
  454TIP3   OH2 1306   3.287   6.368   0.164
  454TIP3    H1 1307   3.270   6.275   0.182
  454TIP3    H2 1308   3.230   6.415   0.226
  455TIP3   OH2 1309   1.774   5.778   2.051
  455TIP3    H1 1310   1.854   5.736   2.082
  455TIP3    H2 1311   1.789   5.793   1.957
  456TIP3   OH2 1312   1.160   7.316   6.555
  456TIP3    H1 1313   1.199   7.231   6.534
  456TIP3    H2 1314   1.178   7.371   6.479
  457TIP3   OH2 1315   3.942   0.938   3.931
  457TIP3    H1 1316   3.880   0.889   3.984
  457TIP3    H2 1317   3.900   0.946   3.846
  458TIP3   OH2 1318   3.736   0.036   5.646
  458TIP3    H1 1319   3.643   0.015   5.650
  458TIP3    H2 1320   3.768  -0.010   5.568
  459TIP3   OH2 1321   7.433   3.473   2.632
  459TIP3    H1 1322   7.397   3.386   2.617
  459TIP3    H2 1323   7.417   3.520   2.550
  460TIP3   OH2 1324   5.759   1.951   0.129
  460TIP3    H1 1325   5.835   1.995   0.091
  460TIP3    H2 1326   5.777   1.858   0.119
  461TIP3   OH2 1327   4.195   2.767   4.173
  461TIP3    H1 1328   4.101   2.750   4.172
  461TIP3    H2 1329   4.229   2.706   4.239
  462TIP3   OH2 1330   1.851   0.662   1.988
  462TIP3    H1 1331   1.844   0.605   2.064
  462TIP3    H2 1332   1.766   0.706   1.982
  463TIP3   OH2 1333   3.608   5.439   0.184
  463TIP3    H1 1334   3.703   5.436   0.194
  463TIP3    H2 1335   3.578   5.351   0.208
  464TIP3   OH2 1336   0.573   7.652   5.313
  464TIP3    H1 1337   0.513   7.715   5.273
  464TIP3    H2 1338   0.660   7.692   5.304
  465TIP3   OH2 1339   2.022   1.465   5.731
  465TIP3    H1 1340   1.951   1.508   5.683
  465TIP3    H2 1341   1.978   1.399   5.784
  466TIP3   OH2 1342   6.563   2.954   0.196
  466TIP3    H1 1343   6.601   2.946   0.108
  466TIP3    H2 1344   6.596   2.877   0.242
  467TIP3   OH2 1345   1.235   3.841   1.023
  467TIP3    H1 1346   1.293   3.785   1.075
  467TIP3    H2 1347   1.294   3.885   0.962
  468TIP3   OH2 1348   0.007   3.717   3.683
  468TIP3    H1 1349   0.082   3.766   3.719
  468TIP3    H2 1350  -0.070   3.765   3.713
  469TIP3   OH2 1351   5.695   0.696   1.331
  469TIP3    H1 1352   5.783   0.724   1.307
  469TIP3    H2 1353   5.638   0.741   1.269
  470TIP3   OH2 1354   1.866   3.835   0.124
  470TIP3    H1 1355   1.892   3.913   0.174
  470TIP3    H2 1356   1.853   3.867   0.035
  471TIP3   OH2 1357   5.784   6.688   6.427
  471TIP3    H1 1358   5.877   6.679   6.407
  471TIP3    H2 1359   5.752   6.755   6.365
  472TIP3   OH2 1360   5.339   0.981   2.064
  472TIP3    H1 1361   5.249   0.962   2.089
  472TIP3    H2 1362   5.361   0.912   2.001
  473TIP3   OH2 1363   5.694   0.692   3.766
  473TIP3    H1 1364   5.774   0.640   3.761
  473TIP3    H2 1365   5.689   0.720   3.858
  474TIP3   OH2 1366   5.440   3.271   4.648
  474TIP3    H1 1367   5.425   3.177   4.658
  474TIP3    H2 1368   5.492   3.279   4.568
  475TIP3   OH2 1369   0.645   1.474   5.284
  475TIP3    H1 1370   0.709   1.463   5.214
  475TIP3    H2 1371   0.633   1.386   5.320
  476TIP3   OH2 1372   4.335   1.783   2.187
  476TIP3    H1 1373   4.375   1.864   2.154
  476TIP3    H2 1374   4.309   1.805   2.277
  477TIP3   OH2 1375   1.773   2.513   6.229
  477TIP3    H1 1376   1.839   2.508   6.160
  477TIP3    H2 1377   1.776   2.427   6.271
  478TIP3   OH2 1378   1.814   3.041   5.433
  478TIP3    H1 1379   1.766   2.958   5.439
  478TIP3    H2 1380   1.859   3.048   5.517
  479TIP3   OH2 1381   6.986   0.645   3.375
  479TIP3    H1 1382   6.988   0.579   3.306
  479TIP3    H2 1383   6.901   0.687   3.366
  480TIP3   OH2 1384   7.835   3.933   6.074
  480TIP3    H1 1385   7.744   3.958   6.064
  480TIP3    H2 1386   7.844   3.905   6.165
  481TIP3   OH2 1387   5.467   2.860   6.310
  481TIP3    H1 1388   5.467   2.766   6.291
  481TIP3    H2 1389   5.378   2.878   6.340
  482TIP3   OH2 1390   5.058   6.923   5.969
  482TIP3    H1 1391   4.966   6.910   5.947
  482TIP3    H2 1392   5.056   6.963   6.056
  483TIP3   OH2 1393   0.850   3.890   0.902
  483TIP3    H1 1394   0.767   3.920   0.867
  483TIP3    H2 1395   0.830   3.864   0.992
  484TIP3   OH2 1396   2.224   0.217   3.786
  484TIP3    H1 1397   2.140   0.216   3.832
  484TIP3    H2 1398   2.249   0.310   3.785
  485TIP3   OH2 1399   1.811   3.349   5.769
  485TIP3    H1 1400   1.720   3.341   5.739
  485TIP3    H2 1401   1.807   3.417   5.837
  486TIP3   OH2 1402   2.459   4.903   1.642
  486TIP3    H1 1403   2.433   4.881   1.552
  486TIP3    H2 1404   2.382   4.946   1.678
  487TIP3   OH2 1405   1.876   0.966   2.579
  487TIP3    H1 1406   1.877   1.061   2.587
  487TIP3    H2 1407   1.795   0.938   2.621
  488TIP3   OH2 1408   7.847   5.298   3.371
  488TIP3    H1 1409   7.869   5.217   3.324
  488TIP3    H2 1410   7.919   5.311   3.432
  489TIP3   OH2 1411   2.487   7.762   5.602
  489TIP3    H1 1412   2.477   7.753   5.508
  489TIP3    H2 1413   2.502   7.855   5.616
  490TIP3   OH2 1414   1.373   7.171   5.807
  490TIP3    H1 1415   1.394   7.204   5.720
  490TIP3    H2 1416   1.340   7.247   5.855
  491TIP3   OH2 1417   3.818   6.823   0.164
  491TIP3    H1 1418   3.865   6.759   0.217
  491TIP3    H2 1419   3.783   6.773   0.090
  492TIP3   OH2 1420   1.223   3.519   3.735
  492TIP3    H1 1421   1.232   3.593   3.795
  492TIP3    H2 1422   1.152   3.545   3.676
  493TIP3   OH2 1423   5.710   5.983   6.603
  493TIP3    H1 1424   5.741   6.033   6.528
  493TIP3    H2 1425   5.775   5.913   6.615
  494TIP3   OH2 1426   6.405   2.793   1.755
  494TIP3    H1 1427   6.372   2.873   1.714
  494TIP3    H2 1428   6.350   2.724   1.718
  495TIP3   OH2 1429   1.521   6.683   3.779
  495TIP3    H1 1430   1.430   6.663   3.801
  495TIP3    H2 1431   1.563   6.703   3.862
  496TIP3   OH2 1432   0.676   4.448   2.059
  496TIP3    H1 1433   0.650   4.356   2.069
  496TIP3    H2 1434   0.731   4.449   1.981
  497TIP3   OH2 1435   8.238   2.796   0.248
  497TIP3    H1 1436   8.287   2.747   0.182
  497TIP3    H2 1437   8.256   2.751   0.330
  498TIP3   OH2 1438   2.003   1.346   6.495
  498TIP3    H1 1439   1.960   1.360   6.411
  498TIP3    H2 1440   1.980   1.423   6.547
  499TIP3   OH2 1441   0.084   7.322   0.684
  499TIP3    H1 1442   0.012   7.384   0.692
  499TIP3    H2 1443   0.162   7.376   0.680
  500TIP3   OH2 1444   3.553   3.826   3.018
  500TIP3    H1 1445   3.560   3.908   2.970
  500TIP3    H2 1446   3.538   3.852   3.109
  501TIP3   OH2 1447   3.062   0.404   4.361
  501TIP3    H1 1448   2.980   0.426   4.406
  501TIP3    H2 1449   3.065   0.309   4.361
  502TIP3   OH2 1450   6.920   5.615   3.323
  502TIP3    H1 1451   6.897   5.529   3.357
  502TIP3    H2 1452   6.983   5.650   3.386
  503TIP3   OH2 1453   4.322   3.355   4.787
  503TIP3    H1 1454   4.258   3.284   4.798
  503TIP3    H2 1455   4.371   3.355   4.869
  504TIP3   OH2 1456   3.778   5.797   0.134
  504TIP3    H1 1457   3.843   5.858   0.099
  504TIP3    H2 1458   3.731   5.765   0.057
  505TIP3   OH2 1459   0.170   7.304   1.834
  505TIP3    H1 1460   0.121   7.256   1.902
  505TIP3    H2 1461   0.129   7.391   1.833
  506TIP3   OH2 1462   5.059   0.243   5.635
  506TIP3    H1 1463   5.086   0.209   5.720
  506TIP3    H2 1464   5.137   0.234   5.579
  507TIP3   OH2 1465   3.487   6.653   4.366
  507TIP3    H1 1466   3.514   6.687   4.281
  507TIP3    H2 1467   3.501   6.726   4.427
  508TIP3   OH2 1468   4.648   3.035   4.311
  508TIP3    H1 1469   4.656   3.115   4.258
  508TIP3    H2 1470   4.719   3.042   4.375
  509TIP3   OH2 1471   4.014   2.778   0.461
  509TIP3    H1 1472   4.021   2.744   0.550
  509TIP3    H2 1473   3.924   2.759   0.435
  510TIP3   OH2 1474   4.077   2.419   1.810
  510TIP3    H1 1475   4.052   2.411   1.718
  510TIP3    H2 1476   4.163   2.376   1.815
  511TIP3   OH2 1477   7.661   5.758   3.722
  511TIP3    H1 1478   7.682   5.666   3.740
  511TIP3    H2 1479   7.566   5.763   3.733
  512TIP3   OH2 1480   2.967   5.877   2.382
  512TIP3    H1 1481   3.010   5.946   2.432
  512TIP3    H2 1482   2.876   5.880   2.411
  513TIP3   OH2 1483   1.055   2.224   4.124
  513TIP3    H1 1484   1.046   2.298   4.184
  513TIP3    H2 1485   1.138   2.239   4.080
  514TIP3   OH2 1486   5.714   7.685   1.356
  514TIP3    H1 1487   5.679   7.597   1.340
  514TIP3    H2 1488   5.638   7.739   1.375
  515TIP3   OH2 1489   6.031   7.757   3.536
  515TIP3    H1 1490   5.964   7.765   3.604
  515TIP3    H2 1491   6.092   7.691   3.570
  516TIP3   OH2 1492   5.208   5.431   5.989
  516TIP3    H1 1493   5.192   5.382   5.909
  516TIP3    H2 1494   5.290   5.478   5.973
  517TIP3   OH2 1495   4.103   2.172   0.713
  517TIP3    H1 1496   4.194   2.145   0.705
  517TIP3    H2 1497   4.076   2.144   0.800
  518TIP3   OH2 1498   5.506   5.494   5.330
  518TIP3    H1 1499   5.445   5.563   5.305
  518TIP3    H2 1500   5.452   5.415   5.332
  519TIP3   OH2 1501   0.872   7.133   5.924
  519TIP3    H1 1502   0.809   7.186   5.875
  519TIP3    H2 1503   0.872   7.170   6.011
  520TIP3   OH2 1504   4.735   0.182   4.985
  520TIP3    H1 1505   4.768   0.148   4.902
  520TIP3    H2 1506   4.793   0.256   5.005
  521TIP3   OH2 1507   2.838   4.382   3.948
  521TIP3    H1 1508   2.874   4.470   3.954
  521TIP3    H2 1509   2.815   4.371   3.856
  522TIP3   OH2 1510   0.115   5.129   6.520
  522TIP3    H1 1511   0.033   5.088   6.548
  522TIP3    H2 1512   0.177   5.108   6.589
  523TIP3   OH2 1513   2.277   6.614   6.114
  523TIP3    H1 1514   2.266   6.614   6.019
  523TIP3    H2 1515   2.352   6.671   6.130
  524TIP3   OH2 1516   4.551   5.210   4.635
  524TIP3    H1 1517   4.513   5.238   4.552
  524TIP3    H2 1518   4.479   5.170   4.683
  525TIP3   OH2 1519   7.219   7.093   6.706
  525TIP3    H1 1520   7.131   7.107   6.741
  525TIP3    H2 1521   7.206   7.035   6.631
  526TIP3   OH2 1522   1.766   1.555   1.344
  526TIP3    H1 1523   1.733   1.625   1.400
  526TIP3    H2 1524   1.806   1.492   1.404
  527TIP3   OH2 1525   7.558   5.029   6.082
  527TIP3    H1 1526   7.553   4.990   5.995
  527TIP3    H2 1527   7.578   4.956   6.141
  528TIP3   OH2 1528   7.898   2.264   4.504
  528TIP3    H1 1529   7.818   2.212   4.507
  528TIP3    H2 1530   7.885   2.326   4.433
  529TIP3   OH2 1531   2.442   3.516   0.031
  529TIP3    H1 1532   2.375   3.583   0.046
  529TIP3    H2 1533   2.508   3.559  -0.024
  530TIP3   OH2 1534   2.115   5.389   5.031
  530TIP3    H1 1535   2.204   5.414   5.006
  530TIP3    H2 1536   2.075   5.471   5.061
  531TIP3   OH2 1537   1.567   4.765   4.155
  531TIP3    H1 1538   1.573   4.797   4.245
  531TIP3    H2 1539   1.507   4.691   4.160
  532TIP3   OH2 1540   5.205   4.096   6.516
  532TIP3    H1 1541   5.203   4.007   6.551
  532TIP3    H2 1542   5.123   4.135   6.546
  533TIP3   OH2 1543   6.127   6.282   5.284
  533TIP3    H1 1544   6.193   6.278   5.354
  533TIP3    H2 1545   6.054   6.331   5.322
  534TIP3   OH2 1546   8.029   5.273   1.710
  534TIP3    H1 1547   8.045   5.323   1.790
  534TIP3    H2 1548   8.114   5.268   1.667
  535TIP3   OH2 1549   7.191   3.206   4.034
  535TIP3    H1 1550   7.142   3.274   3.987
  535TIP3    H2 1551   7.124   3.144   4.062
  536TIP3   OH2 1552   2.261   1.507   2.590
  536TIP3    H1 1553   2.257   1.515   2.685
  536TIP3    H2 1554   2.275   1.596   2.558
  537TIP3   OH2 1555   1.428   1.724   0.698
  537TIP3    H1 1556   1.436   1.818   0.714
  537TIP3    H2 1557   1.334   1.709   0.691
  538TIP3   OH2 1558   7.816   2.266   3.429
  538TIP3    H1 1559   7.751   2.336   3.436
  538TIP3    H2 1560   7.895   2.304   3.468
  539TIP3   OH2 1561   2.440   4.962   2.982
  539TIP3    H1 1562   2.450   4.907   3.059
  539TIP3    H2 1563   2.522   5.011   2.976
  540TIP3   OH2 1564   0.934   6.095   6.170
  540TIP3    H1 1565   0.846   6.070   6.200
  540TIP3    H2 1566   0.918   6.165   6.107
  541TIP3   OH2 1567   7.202   4.950   2.232
  541TIP3    H1 1568   7.132   4.887   2.249
  541TIP3    H2 1569   7.218   4.992   2.316
  542TIP3   OH2 1570   5.800   6.502   2.276
  542TIP3    H1 1571   5.791   6.406   2.271
  542TIP3    H2 1572   5.799   6.520   2.370
  543TIP3   OH2 1573   2.713   2.402   1.164
  543TIP3    H1 1574   2.693   2.477   1.220
  543TIP3    H2 1575   2.646   2.337   1.186
  544TIP3   OH2 1576   2.262   1.818   4.641
  544TIP3    H1 1577   2.345   1.804   4.595
  544TIP3    H2 1578   2.201   1.844   4.572
  545TIP3   OH2 1579   6.615   1.136   4.312
  545TIP3    H1 1580   6.641   1.100   4.397
  545TIP3    H2 1581   6.521   1.152   4.320
  546TIP3   OH2 1582   1.215   0.988   3.012
  546TIP3    H1 1583   1.128   0.966   2.981
  546TIP3    H2 1584   1.213   0.969   3.106
  547TIP3   OH2 1585   0.828   3.199   6.502
  547TIP3    H1 1586   0.778   3.210   6.583
  547TIP3    H2 1587   0.771   3.235   6.434
  548TIP3   OH2 1588   0.706   7.359   5.820
  548TIP3    H1 1589   0.712   7.426   5.888
  548TIP3    H2 1590   0.633   7.303   5.848
  549TIP3   OH2 1591   3.146   5.407   6.432
  549TIP3    H1 1592   3.140   5.497   6.402
  549TIP3    H2 1593   3.239   5.386   6.429
  550TIP3   OH2 1594   3.597   7.792   6.685
  550TIP3    H1 1595   3.679   7.767   6.728
  550TIP3    H2 1596   3.528   7.766   6.747
  551TIP3   OH2 1597   6.848   1.944   4.974
  551TIP3    H1 1598   6.885   1.948   5.062
  551TIP3    H2 1599   6.761   1.984   4.983
  552TIP3   OH2 1600   3.394   6.389   6.339
  552TIP3    H1 1601   3.451   6.383   6.415
  552TIP3    H2 1602   3.431   6.327   6.276
  553TIP3   OH2 1603   3.242   1.211   1.057
  553TIP3    H1 1604   3.284   1.229   0.973
  553TIP3    H2 1605   3.298   1.146   1.099
  554TIP3   OH2 1606   5.885   0.315   4.311
  554TIP3    H1 1607   5.955   0.276   4.258
  554TIP3    H2 1608   5.856   0.391   4.260
  555TIP3   OH2 1609   2.077   2.508   3.888
  555TIP3    H1 1610   2.001   2.460   3.855
  555TIP3    H2 1611   2.152   2.464   3.849
  556TIP3   OH2 1612   1.684   0.573   3.557
  556TIP3    H1 1613   1.735   0.651   3.581
  556TIP3    H2 1614   1.685   0.573   3.461
  557TIP3   OH2 1615   3.883   1.655   2.191
  557TIP3    H1 1616   3.813   1.594   2.166
  557TIP3    H2 1617   3.960   1.599   2.201
  558TIP3   OH2 1618   5.848   2.641   0.010
  558TIP3    H1 1619   5.872   2.655  -0.082
  558TIP3    H2 1620   5.866   2.725   0.052
  559TIP3   OH2 1621   2.000   3.055   5.634
  559TIP3    H1 1622   2.027   3.143   5.661
  559TIP3    H2 1623   1.998   3.005   5.715
  560TIP3   OH2 1624   4.083   6.452   3.100
  560TIP3    H1 1625   4.009   6.402   3.136
  560TIP3    H2 1626   4.108   6.404   3.021
  561TIP3   OH2 1627   2.059   7.187   4.761
  561TIP3    H1 1628   1.992   7.145   4.815
  561TIP3    H2 1629   2.118   7.116   4.735
  562TIP3   OH2 1630   4.701   0.667   5.471
  562TIP3    H1 1631   4.664   0.609   5.404
  562TIP3    H2 1632   4.722   0.609   5.544
  563TIP3   OH2 1633   4.452   3.636   1.951
  563TIP3    H1 1634   4.532   3.637   1.898
  563TIP3    H2 1635   4.388   3.592   1.895
  564TIP3   OH2 1636   0.816   4.759   6.071
  564TIP3    H1 1637   0.907   4.789   6.076
  564TIP3    H2 1638   0.810   4.716   5.986
  565TIP3   OH2 1639   5.735   0.521   6.529
  565TIP3    H1 1640   5.757   0.543   6.439
  565TIP3    H2 1641   5.745   0.426   6.533
  566TIP3   OH2 1642   6.979   5.178   1.150
  566TIP3    H1 1643   6.998   5.163   1.243
  566TIP3    H2 1644   7.045   5.127   1.104
  567TIP3   OH2 1645   5.187   5.044   3.725
  567TIP3    H1 1646   5.201   5.046   3.630
  567TIP3    H2 1647   5.244   5.113   3.759
  568TIP3   OH2 1648   4.574   6.929   5.420
  568TIP3    H1 1649   4.660   6.900   5.391
  568TIP3    H2 1650   4.554   7.004   5.364
  569TIP3   OH2 1651   6.945   2.227   1.919
  569TIP3    H1 1652   6.993   2.173   1.856
  569TIP3    H2 1653   6.854   2.222   1.892
  570TIP3   OH2 1654   3.557   0.349   1.592
  570TIP3    H1 1655   3.647   0.370   1.570
  570TIP3    H2 1656   3.505   0.393   1.525
  571TIP3   OH2 1657   5.304   3.466   2.045
  571TIP3    H1 1658   5.250   3.404   2.092
  571TIP3    H2 1659   5.394   3.446   2.073
  572TIP3   OH2 1660   5.814   0.777   4.632
  572TIP3    H1 1661   5.832   0.753   4.541
  572TIP3    H2 1662   5.901   0.780   4.673
  573TIP3   OH2 1663   5.650   1.660   0.097
  573TIP3    H1 1664   5.699   1.662   0.015
  573TIP3    H2 1665   5.660   1.570   0.129
  574TIP3   OH2 1666   7.059   3.110   2.408
  574TIP3    H1 1667   7.018   3.041   2.356
  574TIP3    H2 1668   6.994   3.133   2.474
  575TIP3   OH2 1669   4.014   6.297   1.333
  575TIP3    H1 1670   4.036   6.206   1.351
  575TIP3    H2 1671   4.096   6.345   1.351
  576TIP3   OH2 1672   4.734   1.187   6.580
  576TIP3    H1 1673   4.753   1.238   6.659
  576TIP3    H2 1674   4.758   1.245   6.507
  577TIP3   OH2 1675   2.985   7.252   1.054
  577TIP3    H1 1676   3.077   7.229   1.068
  577TIP3    H2 1677   2.985   7.347   1.049
  578TIP3   OH2 1678   1.946   2.684   3.220
  578TIP3    H1 1679   1.901   2.768   3.218
  578TIP3    H2 1680   2.039   2.706   3.221
  579TIP3   OH2 1681   7.496   6.731   2.349
  579TIP3    H1 1682   7.541   6.717   2.266
  579TIP3    H2 1683   7.564   6.760   2.410
  580TIP3   OH2 1684   3.776   3.711   3.244
  580TIP3    H1 1685   3.753   3.695   3.335
  580TIP3    H2 1686   3.695   3.745   3.204
  581TIP3   OH2 1687   8.069   3.229   4.138
  581TIP3    H1 1688   8.127   3.202   4.066
  581TIP3    H2 1689   7.981   3.210   4.106
  582TIP3   OH2 1690   6.966   0.336   0.472
  582TIP3    H1 1691   7.010   0.316   0.554
  582TIP3    H2 1692   6.877   0.362   0.497
  583TIP3   OH2 1693   8.170   7.414   6.551
  583TIP3    H1 1694   8.228   7.346   6.585
  583TIP3    H2 1695   8.083   7.373   6.552
  584TIP3   OH2 1696   3.236   6.244   0.674
  584TIP3    H1 1697   3.308   6.246   0.611
  584TIP3    H2 1698   3.278   6.249   0.760
  585TIP3   OH2 1699   2.841   3.028   4.057
  585TIP3    H1 1700   2.925   3.068   4.037
  585TIP3    H2 1701   2.827   2.964   3.987
  586TIP3   OH2 1702   7.074   6.954   4.788
  586TIP3    H1 1703   7.121   7.021   4.739
  586TIP3    H2 1704   6.981   6.975   4.776
  587TIP3   OH2 1705   0.496   3.607   6.491
  587TIP3    H1 1706   0.548   3.681   6.457
  587TIP3    H2 1707   0.466   3.636   6.577
  588TIP3   OH2 1708   0.187   6.493   3.714
  588TIP3    H1 1709   0.259   6.531   3.764
  588TIP3    H2 1710   0.210   6.510   3.622
  589TIP3   OH2 1711   7.534   4.496   4.870
  589TIP3    H1 1712   7.533   4.592   4.865
  589TIP3    H2 1713   7.462   4.475   4.929
  590TIP3   OH2 1714   5.428   3.704   3.856
  590TIP3    H1 1715   5.368   3.727   3.927
  590TIP3    H2 1716   5.379   3.641   3.803
  591TIP3   OH2 1717   1.111   0.971   2.243
  591TIP3    H1 1718   1.078   1.056   2.214
  591TIP3    H2 1719   1.139   0.985   2.333
  592TIP3   OH2 1720   6.227   0.756   1.331
  592TIP3    H1 1721   6.287   0.729   1.261
  592TIP3    H2 1722   6.198   0.844   1.304
  593TIP3   OH2 1723   4.184   4.172   6.529
  593TIP3    H1 1724   4.121   4.168   6.457
  593TIP3    H2 1725   4.245   4.100   6.511
  594TIP3   OH2 1726   1.700   6.923   3.353
  594TIP3    H1 1727   1.613   6.924   3.315
  594TIP3    H2 1728   1.687   6.889   3.442
  595TIP3   OH2 1729   0.420   5.845   0.635
  595TIP3    H1 1730   0.499   5.898   0.639
  595TIP3    H2 1731   0.407   5.814   0.725
  596TIP3   OH2 1732   3.788   3.169   2.426
  596TIP3    H1 1733   3.740   3.118   2.491
  596TIP3    H2 1734   3.788   3.258   2.461
  597TIP3   OH2 1735   6.409   4.251   5.009
  597TIP3    H1 1736   6.351   4.201   5.065
  597TIP3    H2 1737   6.351   4.297   4.949
  598TIP3   OH2 1738   0.308   3.089   4.811
  598TIP3    H1 1739   0.220   3.127   4.820
  598TIP3    H2 1740   0.367   3.163   4.821
  599TIP3   OH2 1741   3.489   1.896   1.554
  599TIP3    H1 1742   3.424   1.834   1.521
  599TIP3    H2 1743   3.572   1.847   1.551
  600TIP3   OH2 1744   7.173   0.582   2.523
  600TIP3    H1 1745   7.115   0.615   2.454
  600TIP3    H2 1746   7.122   0.513   2.566
  601TIP3   OH2 1747   1.624   5.912   6.517
  601TIP3    H1 1748   1.691   5.874   6.574
  601TIP3    H2 1749   1.629   5.860   6.436
  602TIP3   OH2 1750   8.250   2.847   3.465
  602TIP3    H1 1751   8.202   2.765   3.457
  602TIP3    H2 1752   8.197   2.911   3.417
  603TIP3   OH2 1753   6.576   6.293   3.138
  603TIP3    H1 1754   6.646   6.297   3.203
  603TIP3    H2 1755   6.495   6.297   3.190
  604TIP3   OH2 1756   2.892   0.585   5.623
  604TIP3    H1 1757   2.951   0.607   5.695
  604TIP3    H2 1758   2.941   0.609   5.544
  605TIP3   OH2 1759   3.288   5.366   5.397
  605TIP3    H1 1760   3.245   5.313   5.463
  605TIP3    H2 1761   3.234   5.354   5.318
  606TIP3   OH2 1762   5.112   5.253   1.301
  606TIP3    H1 1763   5.099   5.293   1.215
  606TIP3    H2 1764   5.142   5.325   1.356
  607TIP3   OH2 1765   0.119   1.593   4.724
  607TIP3    H1 1766   0.153   1.612   4.812
  607TIP3    H2 1767   0.111   1.498   4.723
  608TIP3   OH2 1768   6.421   4.411   2.522
  608TIP3    H1 1769   6.423   4.354   2.599
  608TIP3    H2 1770   6.331   4.444   2.519
  609TIP3   OH2 1771   2.780   7.675   1.814
  609TIP3    H1 1772   2.774   7.609   1.744
  609TIP3    H2 1773   2.697   7.667   1.860
  610TIP3   OH2 1774   6.806   2.329   4.748
  610TIP3    H1 1775   6.887   2.297   4.708
  610TIP3    H2 1776   6.737   2.303   4.686
  611TIP3   OH2 1777   0.283   2.930   0.312
  611TIP3    H1 1778   0.252   2.858   0.366
  611TIP3    H2 1779   0.351   2.892   0.257
  612TIP3   OH2 1780   3.291   3.715   4.786
  612TIP3    H1 1781   3.231   3.711   4.861
  612TIP3    H2 1782   3.277   3.801   4.748
  613TIP3   OH2 1783   6.877   7.309   3.206
  613TIP3    H1 1784   6.973   7.311   3.198
  613TIP3    H2 1785   6.852   7.400   3.221
  614TIP3   OH2 1786   7.428   4.806   2.132
  614TIP3    H1 1787   7.343   4.838   2.161
  614TIP3    H2 1788   7.408   4.751   2.056
  615TIP3   OH2 1789   0.761   6.751   3.412
  615TIP3    H1 1790   0.711   6.674   3.438
  615TIP3    H2 1791   0.776   6.798   3.494
  616TIP3   OH2 1792   3.516   3.036   6.314
  616TIP3    H1 1793   3.480   3.029   6.402
  616TIP3    H2 1794   3.597   3.087   6.325
  617TIP3   OH2 1795   6.819   2.478   3.546
  617TIP3    H1 1796   6.903   2.524   3.539
  617TIP3    H2 1797   6.827   2.404   3.485
  618TIP3   OH2 1798   5.573   7.556   5.338
  618TIP3    H1 1799   5.510   7.519   5.399
  618TIP3    H2 1800   5.639   7.598   5.394
  619TIP3   OH2 1801   4.428   4.041   1.298
  619TIP3    H1 1802   4.387   4.128   1.301
  619TIP3    H2 1803   4.516   4.055   1.332
  620TIP3   OH2 1804   6.956   5.516   2.083
  620TIP3    H1 1805   7.030   5.532   2.143
  620TIP3    H2 1806   6.919   5.433   2.113
  621TIP3   OH2 1807   4.712   5.775   5.609
  621TIP3    H1 1808   4.752   5.720   5.676
  621TIP3    H2 1809   4.726   5.865   5.639
  622TIP3   OH2 1810   0.693   4.874   2.337
  622TIP3    H1 1811   0.708   4.795   2.284
  622TIP3    H2 1812   0.627   4.848   2.401
  623TIP3   OH2 1813   4.907   3.261   0.457
  623TIP3    H1 1814   4.830   3.246   0.512
  623TIP3    H2 1815   4.962   3.183   0.470
  624TIP3   OH2 1816   5.381   3.300   2.391
  624TIP3    H1 1817   5.302   3.257   2.357
  624TIP3    H2 1818   5.368   3.392   2.372
  625TIP3   OH2 1819   5.849   7.256   3.711
  625TIP3    H1 1820   5.944   7.256   3.696
  625TIP3    H2 1821   5.811   7.233   3.626
  626TIP3   OH2 1822   3.372   5.832   2.004
  626TIP3    H1 1823   3.375   5.910   1.948
  626TIP3    H2 1824   3.446   5.779   1.974
  627TIP3   OH2 1825   5.957   6.674   3.232
  627TIP3    H1 1826   5.899   6.598   3.231
  627TIP3    H2 1827   5.956   6.706   3.142
  628TIP3   OH2 1828   0.521   4.827   5.540
  628TIP3    H1 1829   0.435   4.805   5.576
  628TIP3    H2 1830   0.583   4.782   5.597
  629TIP3   OH2 1831   4.003   7.640   1.066
  629TIP3    H1 1832   4.070   7.595   1.117
  629TIP3    H2 1833   3.990   7.585   0.989
  630TIP3   OH2 1834   4.510   0.919   3.897
  630TIP3    H1 1835   4.540   0.830   3.878
  630TIP3    H2 1836   4.589   0.965   3.926
  631TIP3   OH2 1837   0.209   1.784   3.813
  631TIP3    H1 1838   0.277   1.815   3.753
  631TIP3    H2 1839   0.127   1.804   3.769
  632TIP3   OH2 1840   2.533   0.885   3.295
  632TIP3    H1 1841   2.613   0.937   3.291
  632TIP3    H2 1842   2.561   0.797   3.268
  633TIP3   OH2 1843   6.394   0.083   3.448
  633TIP3    H1 1844   6.390   0.160   3.504
  633TIP3    H2 1845   6.329   0.023   3.485
  634TIP3   OH2 1846   8.250   3.532   5.797
  634TIP3    H1 1847   8.219   3.602   5.854
  634TIP3    H2 1848   8.233   3.563   5.708
  635TIP3   OH2 1849   3.942   7.395   5.814
  635TIP3    H1 1850   4.023   7.400   5.763
  635TIP3    H2 1851   3.946   7.311   5.859
  636TIP3   OH2 1852   4.105   6.395   0.373
  636TIP3    H1 1853   4.188   6.364   0.338
  636TIP3    H2 1854   4.064   6.441   0.299
  637TIP3   OH2 1855   6.042   6.775   0.544
  637TIP3    H1 1856   6.029   6.788   0.638
  637TIP3    H2 1857   5.982   6.837   0.503
  638TIP3   OH2 1858   4.573   3.415   5.420
  638TIP3    H1 1859   4.623   3.364   5.357
  638TIP3    H2 1860   4.630   3.488   5.443
  639TIP3   OH2 1861   5.350   7.774   2.063
  639TIP3    H1 1862   5.334   7.812   2.150
  639TIP3    H2 1863   5.352   7.680   2.078
  640TIP3   OH2 1864   0.191   2.724   3.424
  640TIP3    H1 1865   0.118   2.783   3.406
  640TIP3    H2 1866   0.183   2.704   3.518
  641TIP3   OH2 1867   5.566   0.733   4.307
  641TIP3    H1 1868   5.602   0.800   4.365
  641TIP3    H2 1869   5.474   0.758   4.295
  642TIP3   OH2 1870   0.638   6.296   1.289
  642TIP3    H1 1871   0.605   6.378   1.327
  642TIP3    H2 1872   0.710   6.323   1.232
  643TIP3   OH2 1873   0.668   4.362   4.461
  643TIP3    H1 1874   0.666   4.280   4.413
  643TIP3    H2 1875   0.577   4.393   4.459
  644TIP3   OH2 1876   1.055   4.898   6.065
  644TIP3    H1 1877   1.149   4.896   6.082
  644TIP3    H2 1878   1.049   4.911   5.970
  645TIP3   OH2 1879   7.552   0.163   3.930
  645TIP3    H1 1880   7.586   0.075   3.948
  645TIP3    H2 1881   7.589   0.187   3.845
  646TIP3   OH2 1882   7.950   1.433   0.429
  646TIP3    H1 1883   8.037   1.473   0.423
  646TIP3    H2 1884   7.905   1.461   0.350
  647TIP3   OH2 1885   1.253   1.123   1.973
  647TIP3    H1 1886   1.289   1.095   1.889
  647TIP3    H2 1887   1.267   1.049   2.031
  648TIP3   OH2 1888   0.804   4.327   6.732
  648TIP3    H1 1889   0.859   4.393   6.690
  648TIP3    H2 1890   0.819   4.339   6.826
  649TIP3   OH2 1891   4.446   1.628   3.366
  649TIP3    H1 1892   4.374   1.637   3.303
  649TIP3    H2 1893   4.467   1.718   3.391
  650TIP3   OH2 1894   5.171   0.516   0.106
  650TIP3    H1 1895   5.139   0.440   0.155
  650TIP3    H2 1896   5.116   0.589   0.135
  651TIP3   OH2 1897   4.744   4.334   4.965
  651TIP3    H1 1898   4.756   4.239   4.966
  651TIP3    H2 1899   4.723   4.356   5.056
  652TIP3   OH2 1900   5.358   6.485   4.257
  652TIP3    H1 1901   5.409   6.403   4.255
  652TIP3    H2 1902   5.344   6.502   4.350
  653TIP3   OH2 1903   7.203   7.789   6.069
  653TIP3    H1 1904   7.136   7.721   6.059
  653TIP3    H2 1905   7.218   7.820   5.980
  654TIP3   OH2 1906   5.641   3.614   0.616
  654TIP3    H1 1907   5.580   3.565   0.562
  654TIP3    H2 1908   5.707   3.647   0.555
  655TIP3   OH2 1909   6.478   7.577   2.137
  655TIP3    H1 1910   6.486   7.530   2.220
  655TIP3    H2 1911   6.385   7.573   2.116
  656TIP3   OH2 1912   2.840   7.187   6.267
  656TIP3    H1 1913   2.762   7.144   6.302
  656TIP3    H2 1914   2.870   7.243   6.339
  657TIP3   OH2 1915   7.060   4.108   2.715
  657TIP3    H1 1916   7.135   4.058   2.746
  657TIP3    H2 1917   7.042   4.170   2.787
  658TIP3   OH2 1918   3.703   7.620   0.602
  658TIP3    H1 1919   3.745   7.705   0.588
  658TIP3    H2 1920   3.660   7.601   0.519
  659TIP3   OH2 1921   0.247   3.588   0.959
  659TIP3    H1 1922   0.306   3.548   1.023
  659TIP3    H2 1923   0.267   3.544   0.877
  660TIP3   OH2 1924   7.942   7.113   5.624
  660TIP3    H1 1925   8.012   7.175   5.644
  660TIP3    H2 1926   7.979   7.054   5.558
  661TIP3   OH2 1927   7.974   3.861   4.415
  661TIP3    H1 1928   7.964   3.939   4.469
  661TIP3    H2 1929   7.917   3.876   4.340
  662TIP3   OH2 1930   0.968   1.832   4.572
  662TIP3    H1 1931   0.972   1.799   4.482
  662TIP3    H2 1932   0.984   1.926   4.563
  663TIP3   OH2 1933   1.664   3.376   3.241
  663TIP3    H1 1934   1.595   3.430   3.204
  663TIP3    H2 1935   1.618   3.303   3.283
  664TIP3   OH2 1936   3.535   6.648   2.754
  664TIP3    H1 1937   3.545   6.579   2.819
  664TIP3    H2 1938   3.441   6.661   2.747
  665TIP3   OH2 1939   7.028   4.036   6.319
  665TIP3    H1 1940   6.979   4.025   6.400
  665TIP3    H2 1941   6.966   4.013   6.250
  666TIP3   OH2 1942   6.158   7.779   4.789
  666TIP3    H1 1943   6.151   7.873   4.775
  666TIP3    H2 1944   6.211   7.770   4.868
  667TIP3   OH2 1945   8.024   3.569   1.274
  667TIP3    H1 1946   8.090   3.581   1.207
  667TIP3    H2 1947   7.950   3.529   1.228
  668TIP3   OH2 1948   1.200   1.772   6.117
  668TIP3    H1 1949   1.185   1.867   6.114
  668TIP3    H2 1950   1.293   1.762   6.099
  669TIP3   OH2 1951   4.226   2.655   2.615
  669TIP3    H1 1952   4.146   2.613   2.586
  669TIP3    H2 1953   4.272   2.678   2.535
  670TIP3   OH2 1954   2.924   1.493   4.177
  670TIP3    H1 1955   3.000   1.468   4.229
  670TIP3    H2 1956   2.898   1.413   4.132
  671TIP3   OH2 1957   0.761   0.936   0.550
  671TIP3    H1 1958   0.793   1.000   0.614
  671TIP3    H2 1959   0.819   0.947   0.474
  672TIP3   OH2 1960   4.938   2.161   3.230
  672TIP3    H1 1961   4.944   2.141   3.323
  672TIP3    H2 1962   4.844   2.157   3.211
  673TIP3   OH2 1963   6.725   5.466   3.642
  673TIP3    H1 1964   6.706   5.555   3.672
  673TIP3    H2 1965   6.640   5.422   3.644
  674TIP3   OH2 1966   6.262   2.470   2.499
  674TIP3    H1 1967   6.191   2.455   2.562
  674TIP3    H2 1968   6.336   2.497   2.552
  675TIP3   OH2 1969   6.581   4.283   1.220
  675TIP3    H1 1970   6.655   4.325   1.264
  675TIP3    H2 1971   6.530   4.356   1.184
  676TIP3   OH2 1972   6.387   6.273   5.124
  676TIP3    H1 1973   6.312   6.226   5.161
  676TIP3    H2 1974   6.452   6.204   5.107
  677TIP3   OH2 1975   6.624   5.848   5.948
  677TIP3    H1 1976   6.678   5.867   6.025
  677TIP3    H2 1977   6.536   5.835   5.983
  678TIP3   OH2 1978   7.220   4.045   4.439
  678TIP3    H1 1979   7.226   3.950   4.427
  678TIP3    H2 1980   7.130   4.066   4.415
  679TIP3   OH2 1981   2.789   2.869   0.184
  679TIP3    H1 1982   2.811   2.845   0.094
  679TIP3    H2 1983   2.826   2.799   0.238
  680TIP3   OH2 1984   6.697   6.526   2.721
  680TIP3    H1 1985   6.753   6.597   2.754
  680TIP3    H2 1986   6.684   6.546   2.629
  681TIP3   OH2 1987   2.297   4.496   2.810
  681TIP3    H1 1988   2.334   4.577   2.774
  681TIP3    H2 1989   2.265   4.521   2.897
  682TIP3   OH2 1990   7.335   1.294   1.455
  682TIP3    H1 1991   7.326   1.254   1.369
  682TIP3    H2 1992   7.261   1.355   1.461
  683TIP3   OH2 1993   2.641   5.183   4.201
  683TIP3    H1 1994   2.661   5.111   4.261
  683TIP3    H2 1995   2.630   5.140   4.116
  684TIP3   OH2 1996   4.896   0.077   4.775
  684TIP3    H1 1997   4.922  -0.008   4.740
  684TIP3    H2 1998   4.979   0.121   4.794
  685TIP3   OH2 1999   2.897   2.840   3.452
  685TIP3    H1 2000   2.898   2.751   3.487
  685TIP3    H2 2001   2.959   2.837   3.378
  686TIP3   OH2 2002   3.602   6.197   0.624
  686TIP3    H1 2003   3.537   6.263   0.598
  686TIP3    H2 2004   3.553   6.114   0.624
  687TIP3   OH2 2005   5.852   4.955   3.733
  687TIP3    H1 2006   5.793   4.925   3.802
  687TIP3    H2 2007   5.926   4.894   3.737
  688TIP3   OH2 2008   4.013   6.804   1.038
  688TIP3    H1 2009   4.057   6.880   1.000
  688TIP3    H2 2010   4.066   6.729   1.011
  689TIP3   OH2 2011   5.715   3.308   1.416
  689TIP3    H1 2012   5.721   3.396   1.380
  689TIP3    H2 2013   5.706   3.321   1.511
  690TIP3   OH2 2014   6.874   5.750   5.908
  690TIP3    H1 2015   6.781   5.749   5.927
  690TIP3    H2 2016   6.900   5.841   5.918
  691TIP3   OH2 2017   6.792   3.286   3.812
  691TIP3    H1 2018   6.721   3.339   3.776
  691TIP3    H2 2019   6.750   3.232   3.879
  692TIP3   OH2 2020   3.986   3.537   0.895
  692TIP3    H1 2021   4.047   3.607   0.871
  692TIP3    H2 2022   3.946   3.567   0.977
  693TIP3   OH2 2023   4.407   4.403   6.057
  693TIP3    H1 2024   4.464   4.465   6.010
  693TIP3    H2 2025   4.460   4.372   6.130
  694TIP3   OH2 2026   5.044   1.764   0.755
  694TIP3    H1 2027   5.108   1.760   0.825
  694TIP3    H2 2028   5.096   1.770   0.675
  695TIP3   OH2 2029   2.602   2.496   5.232
  695TIP3    H1 2030   2.671   2.467   5.172
  695TIP3    H2 2031   2.537   2.538   5.176
  696TIP3   OH2 2032   2.063   4.557   5.814
  696TIP3    H1 2033   1.972   4.574   5.841
  696TIP3    H2 2034   2.071   4.602   5.730
  697TIP3   OH2 2035   1.437   5.238   2.957
  697TIP3    H1 2036   1.497   5.271   3.025
  697TIP3    H2 2037   1.363   5.202   3.006
  698TIP3   OH2 2038   6.487   6.886   2.773
  698TIP3    H1 2039   6.499   6.826   2.846
  698TIP3    H2 2040   6.439   6.960   2.810
  699TIP3   OH2 2041   4.549   2.627   6.513
  699TIP3    H1 2042   4.628   2.619   6.459
  699TIP3    H2 2043   4.478   2.630   6.449
  700TIP3   OH2 2044   2.088   6.488   0.577
  700TIP3    H1 2045   2.045   6.499   0.492
  700TIP3    H2 2046   2.116   6.576   0.602
  701TIP3   OH2 2047   6.023   2.768   0.540
  701TIP3    H1 2048   6.114   2.785   0.517
  701TIP3    H2 2049   6.005   2.826   0.614
  702TIP3   OH2 2050   0.716   4.722   4.654
  702TIP3    H1 2051   0.663   4.671   4.715
  702TIP3    H2 2052   0.707   4.812   4.685
  703TIP3   OH2 2053   0.515   2.384   3.917
  703TIP3    H1 2054   0.583   2.393   3.850
  703TIP3    H2 2055   0.496   2.474   3.944
  704TIP3   OH2 2056   3.855   6.210   5.856
  704TIP3    H1 2057   3.848   6.154   5.933
  704TIP3    H2 2058   3.810   6.291   5.881
  705TIP3   OH2 2059   6.038   4.562   6.309
  705TIP3    H1 2060   5.975   4.494   6.333
  705TIP3    H2 2061   6.024   4.632   6.374
  706TIP3   OH2 2062   7.428   6.795   3.803
  706TIP3    H1 2063   7.419   6.800   3.898
  706TIP3    H2 2064   7.487   6.720   3.788
  707TIP3   OH2 2065   3.422   1.153   5.181
  707TIP3    H1 2066   3.363   1.196   5.244
  707TIP3    H2 2067   3.369   1.083   5.143
  708TIP3   OH2 2068   7.347   2.239   5.020
  708TIP3    H1 2069   7.396   2.245   4.939
  708TIP3    H2 2070   7.382   2.309   5.075
  709TIP3   OH2 2071   6.585   3.739   2.820
  709TIP3    H1 2072   6.629   3.673   2.767
  709TIP3    H2 2073   6.644   3.815   2.818
  710TIP3   OH2 2074   8.217   5.059   3.623
  710TIP3    H1 2075   8.291   5.110   3.588
  710TIP3    H2 2076   8.250   5.026   3.707
  711TIP3   OH2 2077   5.937   6.358   6.506
  711TIP3    H1 2078   5.924   6.421   6.435
  711TIP3    H2 2079   6.032   6.348   6.512
  712TIP3   OH2 2080   2.266   1.648   4.951
  712TIP3    H1 2081   2.318   1.659   5.031
  712TIP3    H2 2082   2.176   1.665   4.978
  713TIP3   OH2 2083   7.741   3.411   3.257
  713TIP3    H1 2084   7.678   3.379   3.192
  713TIP3    H2 2085   7.695   3.402   3.341
  714TIP3   OH2 2086   1.138   5.384   3.706
  714TIP3    H1 2087   1.092   5.422   3.631
  714TIP3    H2 2088   1.108   5.294   3.710
  715TIP3   OH2 2089   1.077   5.802   6.704
  715TIP3    H1 2090   1.071   5.794   6.799
  715TIP3    H2 2091   1.171   5.798   6.685
  716TIP3   OH2 2092   1.402   3.541   1.004
  716TIP3    H1 2093   1.487   3.499   0.991
  716TIP3    H2 2094   1.342   3.469   1.024
  717TIP3   OH2 2095   2.254   4.042   1.465
  717TIP3    H1 2096   2.158   4.039   1.470
  717TIP3    H2 2097   2.283   4.017   1.553
  718TIP3   OH2 2098   1.663   7.046   1.636
  718TIP3    H1 2099   1.626   7.053   1.724
  718TIP3    H2 2100   1.592   7.011   1.583
  719TIP3   OH2 2101   4.899   2.442   3.020
  719TIP3    H1 2102   4.902   2.351   2.989
  719TIP3    H2 2103   4.815   2.475   2.987
  720TIP3   OH2 2104   2.434   3.509   4.514
  720TIP3    H1 2105   2.516   3.492   4.560
  720TIP3    H2 2106   2.456   3.499   4.422
  721TIP3   OH2 2107   8.151   0.020   2.372
  721TIP3    H1 2108   8.067   0.000   2.413
  721TIP3    H2 2109   8.176   0.105   2.408
  722TIP3   OH2 2110   8.044   3.253   2.946
  722TIP3    H1 2111   7.990   3.266   2.868
  722TIP3    H2 2112   8.035   3.160   2.966
  723TIP3   OH2 2113   5.094   5.201   0.380
  723TIP3    H1 2114   5.171   5.149   0.359
  723TIP3    H2 2115   5.102   5.222   0.473
  724TIP3   OH2 2116   7.270   3.614   3.927
  724TIP3    H1 2117   7.236   3.595   4.014
  724TIP3    H2 2118   7.349   3.561   3.920
  725TIP3   OH2 2119   3.493   0.117   0.703
  725TIP3    H1 2120   3.452   0.148   0.623
  725TIP3    H2 2121   3.421   0.079   0.754
  726TIP3   OH2 2122   5.173   0.529   5.285
  726TIP3    H1 2123   5.108   0.499   5.349
  726TIP3    H2 2124   5.206   0.611   5.320
  727TIP3   OH2 2125   7.156   5.056   2.526
  727TIP3    H1 2126   7.074   5.103   2.542
  727TIP3    H2 2127   7.215   5.089   2.594
  728TIP3   OH2 2128   2.699   1.758   3.077
  728TIP3    H1 2129   2.679   1.716   3.160
  728TIP3    H2 2130   2.772   1.707   3.041
  729TIP3   OH2 2131   4.239   5.540   4.420
  729TIP3    H1 2132   4.168   5.542   4.484
  729TIP3    H2 2133   4.251   5.631   4.395
  730TIP3   OH2 2134   5.878   0.871   2.630
  730TIP3    H1 2135   5.937   0.847   2.702
  730TIP3    H2 2136   5.919   0.833   2.552
  731TIP3   OH2 2137   3.261   0.704   3.103
  731TIP3    H1 2138   3.344   0.728   3.063
  731TIP3    H2 2139   3.265   0.739   3.192
  732TIP3   OH2 2140   8.237   1.197   6.054
  732TIP3    H1 2141   8.161   1.214   5.998
  732TIP3    H2 2142   8.302   1.159   5.995
  733TIP3   OH2 2143   3.825   2.567   1.351
  733TIP3    H1 2144   3.829   2.663   1.344
  733TIP3    H2 2145   3.740   2.549   1.392
  734TIP3   OH2 2146   7.249   6.544   4.030
  734TIP3    H1 2147   7.239   6.516   4.121
  734TIP3    H2 2148   7.175   6.602   4.014
  735TIP3   OH2 2149   3.561   2.675   5.007
  735TIP3    H1 2150   3.489   2.637   4.957
  735TIP3    H2 2151   3.640   2.644   4.963
  736TIP3   OH2 2152   8.176   1.762   5.418
  736TIP3    H1 2153   8.268   1.745   5.399
  736TIP3    H2 2154   8.157   1.843   5.370
  737TIP3   OH2 2155   1.622   6.962   0.995
  737TIP3    H1 2156   1.685   6.973   1.066
  737TIP3    H2 2157   1.542   6.932   1.039
  738TIP3   OH2 2158   5.044   1.619   0.013
  738TIP3    H1 2159   5.093   1.668   0.079
  738TIP3    H2 2160   5.016   1.539   0.058
  739TIP3   OH2 2161   5.537   2.265   6.037
  739TIP3    H1 2162   5.599   2.226   6.097
  739TIP3    H2 2163   5.577   2.254   5.950
  740TIP3   OH2 2164   4.917   5.640   0.778
  740TIP3    H1 2165   4.841   5.596   0.740
  740TIP3    H2 2166   4.936   5.589   0.857
  741TIP3   OH2 2167   7.646   1.398   5.346
  741TIP3    H1 2168   7.610   1.426   5.430
  741TIP3    H2 2169   7.739   1.422   5.351
  742TIP3   OH2 2170   3.237   5.598   1.285
  742TIP3    H1 2171   3.220   5.686   1.318
  742TIP3    H2 2172   3.251   5.545   1.364
  743TIP3   OH2 2173   0.301   0.500   5.297
  743TIP3    H1 2174   0.344   0.472   5.217
  743TIP3    H2 2175   0.319   0.594   5.302
  744TIP3   OH2 2176   7.123   1.271   4.430
  744TIP3    H1 2177   7.075   1.200   4.473
  744TIP3    H2 2178   7.070   1.349   4.446
  745TIP3   OH2 2179   5.255   1.775   6.519
  745TIP3    H1 2180   5.246   1.695   6.467
  745TIP3    H2 2181   5.348   1.780   6.540
  746TIP3   OH2 2182   4.049   2.311   3.472
  746TIP3    H1 2183   4.106   2.243   3.510
  746TIP3    H2 2184   3.965   2.266   3.458
  747TIP3   OH2 2185   2.395   3.341   5.027
  747TIP3    H1 2186   2.302   3.321   5.039
  747TIP3    H2 2187   2.418   3.392   5.105
  748TIP3   OH2 2188   0.573   1.518   0.592
  748TIP3    H1 2189   0.543   1.438   0.547
  748TIP3    H2 2190   0.662   1.497   0.620
  749TIP3   OH2 2191   7.153   5.049   0.961
  749TIP3    H1 2192   7.121   5.047   0.871
  749TIP3    H2 2193   7.237   5.094   0.955
  750TIP3   OH2 2194   1.399   6.336   6.750
  750TIP3    H1 2195   1.482   6.291   6.768
  750TIP3    H2 2196   1.387   6.394   6.825
  751TIP3   OH2 2197   5.927   0.290   4.592
  751TIP3    H1 2198   6.012   0.247   4.604
  751TIP3    H2 2199   5.926   0.316   4.500
  752TIP3   OH2 2200   5.217   2.649   2.511
  752TIP3    H1 2201   5.248   2.617   2.595
  752TIP3    H2 2202   5.295   2.686   2.469
  753TIP3   OH2 2203   0.962   2.067   1.426
  753TIP3    H1 2204   0.969   2.000   1.358
  753TIP3    H2 2205   0.876   2.054   1.465
  754TIP3   OH2 2206   5.868   3.978   2.116
  754TIP3    H1 2207   5.839   3.926   2.191
  754TIP3    H2 2208   5.792   3.979   2.058
  755TIP3   OH2 2209   6.509   0.755   2.502
  755TIP3    H1 2210   6.598   0.738   2.531
  755TIP3    H2 2211   6.507   0.849   2.485
  756TIP3   OH2 2212   5.861   2.584   0.403
  756TIP3    H1 2213   5.912   2.658   0.436
  756TIP3    H2 2214   5.917   2.544   0.336
  757TIP3   OH2 2215   5.561   5.037   0.817
  757TIP3    H1 2216   5.631   4.997   0.765
  757TIP3    H2 2217   5.563   4.990   0.900
  758TIP3   OH2 2218   2.768   7.398   1.196
  758TIP3    H1 2219   2.809   7.396   1.283
  758TIP3    H2 2220   2.833   7.439   1.140
  759TIP3   OH2 2221   6.419   4.893   6.418
  759TIP3    H1 2222   6.368   4.855   6.490
  759TIP3    H2 2223   6.503   4.915   6.457
  760TIP3   OH2 2224   5.235   7.311   5.369
  760TIP3    H1 2225   5.303   7.244   5.360
  760TIP3    H2 2226   5.244   7.366   5.291
  761TIP3   OH2 2227   0.598   6.551   4.452
  761TIP3    H1 2228   0.563   6.639   4.469
  761TIP3    H2 2229   0.653   6.532   4.527
  762TIP3   OH2 2230   0.656   1.583   4.493
  762TIP3    H1 2231   0.742   1.585   4.452
  762TIP3    H2 2232   0.626   1.674   4.493
  763TIP3   OH2 2233   7.658   0.609   4.501
  763TIP3    H1 2234   7.642   0.650   4.416
  763TIP3    H2 2235   7.664   0.516   4.483
  764TIP3   OH2 2236   1.892   5.993   4.488
  764TIP3    H1 2237   1.802   5.974   4.459
  764TIP3    H2 2238   1.899   5.950   4.573
  765TIP3   OH2 2239   3.222   2.142   5.374
  765TIP3    H1 2240   3.183   2.187   5.449
  765TIP3    H2 2241   3.164   2.164   5.300
  766TIP3   OH2 2242   0.751   3.377   5.367
  766TIP3    H1 2243   0.833   3.331   5.349
  766TIP3    H2 2244   0.700   3.316   5.420
  767TIP3   OH2 2245   2.485   0.120   4.966
  767TIP3    H1 2246   2.475   0.212   4.990
  767TIP3    H2 2247   2.412   0.076   5.009
  768TIP3   OH2 2248   7.069   5.442   1.373
  768TIP3    H1 2249   7.072   5.532   1.340
  768TIP3    H2 2250   6.984   5.409   1.344
  769TIP3   OH2 2251   5.469   7.140   0.046
  769TIP3    H1 2252   5.440   7.061   0.092
  769TIP3    H2 2253   5.451   7.211   0.108
  770TIP3   OH2 2254   4.071   1.696   3.010
  770TIP3    H1 2255   3.976   1.706   3.017
  770TIP3    H2 2256   4.090   1.719   2.919
  771TIP3   OH2 2257   7.237   6.481   1.143
  771TIP3    H1 2258   7.215   6.512   1.055
  771TIP3    H2 2259   7.328   6.509   1.156
  772TIP3   OH2 2260   2.996   2.200   6.175
  772TIP3    H1 2261   3.022   2.181   6.265
  772TIP3    H2 2262   2.903   2.176   6.172
  773TIP3   OH2 2263   1.162   5.280   4.127
  773TIP3    H1 2264   1.095   5.230   4.175
  773TIP3    H2 2265   1.121   5.297   4.042
  774TIP3   OH2 2266   5.116   5.694   0.553
  774TIP3    H1 2267   5.048   5.645   0.601
  774TIP3    H2 2268   5.181   5.627   0.531
  775TIP3   OH2 2269   5.561   6.850   5.137
  775TIP3    H1 2270   5.566   6.887   5.225
  775TIP3    H2 2271   5.613   6.910   5.083
  776TIP3   OH2 2272   7.507   4.756   6.081
  776TIP3    H1 2273   7.586   4.715   6.046
  776TIP3    H2 2274   7.479   4.698   6.152
  777TIP3   OH2 2275   3.190   0.475   3.377
  777TIP3    H1 2276   3.156   0.485   3.288
  777TIP3    H2 2277   3.260   0.410   3.369
  778TIP3   OH2 2278   3.717   6.036   6.712
  778TIP3    H1 2279   3.671   6.078   6.639
  778TIP3    H2 2280   3.750   6.109   6.765
  779TIP3   OH2 2281   2.478   6.342   0.127
  779TIP3    H1 2282   2.507   6.301   0.209
  779TIP3    H2 2283   2.559   6.366   0.083
  780TIP3   OH2 2284   4.113   0.984   2.285
  780TIP3    H1 2285   4.143   1.010   2.198
  780TIP3    H2 2286   4.044   1.048   2.306
  781TIP3   OH2 2287   4.946   7.814   5.332
  781TIP3    H1 2288   5.040   7.830   5.323
  781TIP3    H2 2289   4.939   7.720   5.347
  782TIP3   OH2 2290   7.165   7.562   0.662
  782TIP3    H1 2291   7.139   7.652   0.682
  782TIP3    H2 2292   7.237   7.571   0.600
  783TIP3   OH2 2293   4.796   4.391   5.429
  783TIP3    H1 2294   4.765   4.398   5.519
  783TIP3    H2 2295   4.890   4.380   5.436
  784TIP3   OH2 2296   2.909   3.899   4.485
  784TIP3    H1 2297   2.885   3.873   4.396
  784TIP3    H2 2298   2.988   3.848   4.504
  785TIP3   OH2 2299   2.763   1.972   1.879
  785TIP3    H1 2300   2.757   1.881   1.907
  785TIP3    H2 2301   2.732   1.971   1.788
  786TIP3   OH2 2302   6.831   2.569   3.215
  786TIP3    H1 2303   6.778   2.580   3.136
  786TIP3    H2 2304   6.794   2.631   3.278
  787TIP3   OH2 2305   6.859   4.423   3.712
  787TIP3    H1 2306   6.801   4.493   3.681
  787TIP3    H2 2307   6.947   4.455   3.692
  788TIP3   OH2 2308   5.549   3.823   2.198
  788TIP3    H1 2309   5.617   3.807   2.264
  788TIP3    H2 2310   5.570   3.910   2.164
  789TIP3   OH2 2311   3.102   6.702   0.124
  789TIP3    H1 2312   3.144   6.683   0.207
  789TIP3    H2 2313   3.170   6.687   0.058
  790TIP3   OH2 2314   4.978   2.960   6.730
  790TIP3    H1 2315   4.947   2.870   6.736
  790TIP3    H2 2316   5.071   2.951   6.709
  791TIP3   OH2 2317   2.574   4.010   2.498
  791TIP3    H1 2318   2.568   3.965   2.414
  791TIP3    H2 2319   2.668   4.027   2.509
  792TIP3   OH2 2320   3.186   2.477   4.184
  792TIP3    H1 2321   3.266   2.433   4.156
  792TIP3    H2 2322   3.207   2.570   4.183
  793TIP3   OH2 2323   4.593   0.385   2.322
  793TIP3    H1 2324   4.582   0.479   2.307
  793TIP3    H2 2325   4.514   0.345   2.286
  794TIP3   OH2 2326   3.603   7.522   0.351
  794TIP3    H1 2327   3.524   7.553   0.308
  794TIP3    H2 2328   3.664   7.503   0.280
  795TIP3   OH2 2329   5.456   3.998   3.895
  795TIP3    H1 2330   5.392   3.948   3.946
  795TIP3    H2 2331   5.533   4.002   3.950
  796TIP3   OH2 2332   2.370   2.635   3.319
  796TIP3    H1 2333   2.452   2.659   3.363
  796TIP3    H2 2334   2.355   2.544   3.345
  797TIP3   OH2 2335   4.292   4.248   1.678
  797TIP3    H1 2336   4.311   4.309   1.606
  797TIP3    H2 2337   4.241   4.178   1.637
  798TIP3   OH2 2338   3.236   4.522   0.084
  798TIP3    H1 2339   3.150   4.563   0.070
  798TIP3    H2 2340   3.294   4.567   0.023
  799TIP3   OH2 2341   4.376   4.745   0.278
  799TIP3    H1 2342   4.352   4.827   0.321
  799TIP3    H2 2343   4.469   4.733   0.299
  800TIP3   OH2 2344   2.042   0.249   0.107
  800TIP3    H1 2345   2.025   0.248   0.013
  800TIP3    H2 2346   2.024   0.160   0.136
  801TIP3   OH2 2347   0.114   7.325   0.167
  801TIP3    H1 2348   0.064   7.406   0.157
  801TIP3    H2 2349   0.087   7.271   0.093
  802TIP3   OH2 2350   5.738   3.012   6.576
  802TIP3    H1 2351   5.672   3.057   6.524
  802TIP3    H2 2352   5.739   3.058   6.660
  803TIP3   OH2 2353   2.000   2.951   0.478
  803TIP3    H1 2354   2.049   2.966   0.398
  803TIP3    H2 2355   2.010   2.857   0.496
  804TIP3   OH2 2356   2.087   1.356   6.006
  804TIP3    H1 2357   2.006   1.379   6.051
  804TIP3    H2 2358   2.124   1.440   5.978
  805TIP3   OH2 2359   2.551   3.013   0.084
  805TIP3    H1 2360   2.623   2.984   0.028
  805TIP3    H2 2361   2.509   3.083   0.035
  806TIP3   OH2 2362   7.809   6.178   0.664
  806TIP3    H1 2363   7.731   6.123   0.651
  806TIP3    H2 2364   7.814   6.232   0.586
  807TIP3   OH2 2365   4.272   5.918   3.693
  807TIP3    H1 2366   4.304   5.992   3.745
  807TIP3    H2 2367   4.279   5.947   3.602
  808TIP3   OH2 2368   4.376   1.230   1.381
  808TIP3    H1 2369   4.302   1.247   1.438
  808TIP3    H2 2370   4.453   1.252   1.435
  809TIP3   OH2 2371   2.623   6.444   1.954
  809TIP3    H1 2372   2.603   6.534   1.979
  809TIP3    H2 2373   2.713   6.430   1.982
  810TIP3   OH2 2374   5.735   6.592   3.648
  810TIP3    H1 2375   5.765   6.650   3.577
  810TIP3    H2 2376   5.785   6.512   3.637
  811TIP3   OH2 2377   7.064   1.568   5.683
  811TIP3    H1 2378   7.089   1.647   5.731
  811TIP3    H2 2379   6.970   1.576   5.671
  812TIP3   OH2 2380   4.218   2.283   2.285
  812TIP3    H1 2381   4.129   2.253   2.306
  812TIP3    H2 2382   4.205   2.371   2.249
  813TIP3   OH2 2383   2.229   4.712   2.046
  813TIP3    H1 2384   2.271   4.639   2.000
  813TIP3    H2 2385   2.265   4.790   2.003
  814TIP3   OH2 2386   2.538   3.222   5.734
  814TIP3    H1 2387   2.555   3.156   5.667
  814TIP3    H2 2388   2.479   3.178   5.796
  815TIP3   OH2 2389   7.746   7.105   3.783
  815TIP3    H1 2390   7.724   7.100   3.690
  815TIP3    H2 2391   7.709   7.024   3.820
  816TIP3   OH2 2392   3.358   3.899   3.555
  816TIP3    H1 2393   3.388   3.937   3.637
  816TIP3    H2 2394   3.302   3.826   3.582
  817TIP3   OH2 2395   4.319   7.781   5.794
  817TIP3    H1 2396   4.346   7.823   5.713
  817TIP3    H2 2397   4.372   7.702   5.800
  818TIP3   OH2 2398   5.594   2.884   2.802
  818TIP3    H1 2399   5.681   2.858   2.772
  818TIP3    H2 2400   5.589   2.978   2.782
  819TIP3   OH2 2401   2.526   6.452   6.539
  819TIP3    H1 2402   2.431   6.458   6.544
  819TIP3    H2 2403   2.547   6.366   6.577
  820TIP3   OH2 2404   7.386   5.900   3.440
  820TIP3    H1 2405   7.415   5.830   3.381
  820TIP3    H2 2406   7.410   5.981   3.395
  821TIP3   OH2 2407   4.808   0.714   1.738
  821TIP3    H1 2408   4.848   0.728   1.823
  821TIP3    H2 2409   4.845   0.632   1.707
  822TIP3   OH2 2410   4.919   5.981   2.405
  822TIP3    H1 2411   4.955   5.968   2.492
  822TIP3    H2 2412   4.948   6.069   2.380
  823TIP3   OH2 2413   3.007   0.286   2.136
  823TIP3    H1 2414   2.939   0.339   2.097
  823TIP3    H2 2415   2.961   0.223   2.191
  824TIP3   OH2 2416   4.368   1.882   4.699
  824TIP3    H1 2417   4.394   1.907   4.610
  824TIP3    H2 2418   4.450   1.882   4.749
  825TIP3   OH2 2419   4.180   0.757   3.931
  825TIP3    H1 2420   4.255   0.816   3.921
  825TIP3    H2 2421   4.110   0.813   3.964
  826TIP3   OH2 2422   7.963   3.138   0.994
  826TIP3    H1 2423   7.912   3.172   0.921
  826TIP3    H2 2424   7.911   3.065   1.028
  827TIP3   OH2 2425   3.082   5.618   2.401
  827TIP3    H1 2426   3.077   5.595   2.308
  827TIP3    H2 2427   3.047   5.707   2.405
  828TIP3   OH2 2428   4.067   5.844   1.205
  828TIP3    H1 2429   4.090   5.862   1.114
  828TIP3    H2 2430   4.099   5.755   1.221
  829TIP3   OH2 2431   3.548   3.936   4.403
  829TIP3    H1 2432   3.613   3.933   4.474
  829TIP3    H2 2433   3.552   3.849   4.363
  830TIP3   OH2 2434   5.707   7.526   0.556
  830TIP3    H1 2435   5.654   7.498   0.481
  830TIP3    H2 2436   5.721   7.445   0.606
  831TIP3   OH2 2437   6.231   7.399   6.269
  831TIP3    H1 2438   6.288   7.472   6.247
  831TIP3    H2 2439   6.158   7.439   6.316
  832TIP3   OH2 2440   2.609   1.086   2.419
  832TIP3    H1 2441   2.545   1.154   2.400
  832TIP3    H2 2442   2.566   1.004   2.392
  833TIP3   OH2 2443   3.657   2.821   2.405
  833TIP3    H1 2444   3.735   2.791   2.358
  833TIP3    H2 2445   3.584   2.779   2.361
  834TIP3   OH2 2446   5.463   7.281   3.001
  834TIP3    H1 2447   5.381   7.266   3.048
  834TIP3    H2 2448   5.515   7.203   3.020
  835TIP3   OH2 2449   5.292   0.263   5.515
  835TIP3    H1 2450   5.311   0.344   5.561
  835TIP3    H2 2451   5.357   0.259   5.445
  836TIP3   OH2 2452   0.384   3.190   5.442
  836TIP3    H1 2453   0.295   3.226   5.445
  836TIP3    H2 2454   0.371   3.095   5.453
  837TIP3   OH2 2455   4.070   3.581   5.556
  837TIP3    H1 2456   4.153   3.573   5.510
  837TIP3    H2 2457   4.028   3.657   5.516
  838TIP3   OH2 2458   6.002   2.065   0.761
  838TIP3    H1 2459   6.014   2.145   0.710
  838TIP3    H2 2460   5.916   2.075   0.801
  839TIP3   OH2 2461   2.412   1.545   1.579
  839TIP3    H1 2462   2.351   1.619   1.574
  839TIP3    H2 2463   2.480   1.575   1.639
  840TIP3   OH2 2464   4.935   0.366   5.005
  840TIP3    H1 2465   5.011   0.308   5.010
  840TIP3    H2 2466   4.919   0.393   5.095
  841TIP3   OH2 2467   3.530   6.415   0.075
  841TIP3    H1 2468   3.451   6.398   0.126
  841TIP3    H2 2469   3.572   6.329   0.067
  842TIP3   OH2 2470   6.322   4.087   1.919
  842TIP3    H1 2471   6.277   4.161   1.958
  842TIP3    H2 2472   6.254   4.038   1.874
  843TIP3   OH2 2473   1.110   3.641   1.409
  843TIP3    H1 2474   1.087   3.601   1.493
  843TIP3    H2 2475   1.206   3.641   1.409
  844TIP3   OH2 2476   2.359   4.416   4.262
  844TIP3    H1 2477   2.335   4.357   4.334
  844TIP3    H2 2478   2.449   4.392   4.241
  845TIP3   OH2 2479   3.900   1.497   3.247
  845TIP3    H1 2480   3.885   1.591   3.239
  845TIP3    H2 2481   3.873   1.476   3.337
  846TIP3   OH2 2482   0.715   7.025   4.428
  846TIP3    H1 2483   0.781   6.955   4.429
  846TIP3    H2 2484   0.766   7.105   4.422
  847TIP3   OH2 2485   7.452   5.494   3.015
  847TIP3    H1 2486   7.535   5.530   2.983
  847TIP3    H2 2487   7.476   5.442   3.092
  848TIP3   OH2 2488   4.122   0.941   4.219
  848TIP3    H1 2489   4.215   0.930   4.200
  848TIP3    H2 2490   4.095   1.015   4.164
  849TIP3   OH2 2491   0.115   1.016   5.435
  849TIP3    H1 2492   0.121   0.980   5.524
  849TIP3    H2 2493   0.177   0.964   5.384
  850TIP3   OH2 2494   1.613   0.732   6.700
  850TIP3    H1 2495   1.690   0.779   6.734
  850TIP3    H2 2496   1.542   0.796   6.705
  851TIP3   OH2 2497   0.011   5.053   0.268
  851TIP3    H1 2498  -0.077   5.083   0.291
  851TIP3    H2 2499   0.035   4.994   0.339
  852TIP3   OH2 2500   2.861   5.446   2.487
  852TIP3    H1 2501   2.927   5.510   2.463
  852TIP3    H2 2502   2.863   5.444   2.583
  853TIP3   OH2 2503   4.835   1.356   6.405
  853TIP3    H1 2504   4.854   1.318   6.320
  853TIP3    H2 2505   4.798   1.442   6.386
  854TIP3   OH2 2506   0.542   7.335   4.291
  854TIP3    H1 2507   0.638   7.343   4.293
  854TIP3    H2 2508   0.527   7.246   4.258
  855TIP3   OH2 2509   6.702   3.840   3.084
  855TIP3    H1 2510   6.768   3.891   3.130
  855TIP3    H2 2511   6.736   3.831   2.995
  856TIP3   OH2 2512   2.108   3.623   5.382
  856TIP3    H1 2513   2.025   3.604   5.338
  856TIP3    H2 2514   2.083   3.647   5.471
  857TIP3   OH2 2515   2.438   1.379   3.511
  857TIP3    H1 2516   2.401   1.300   3.550
  857TIP3    H2 2517   2.481   1.348   3.431
  858TIP3   OH2 2518   1.001   5.508   6.074
  858TIP3    H1 2519   1.041   5.489   5.989
  858TIP3    H2 2520   1.044   5.588   6.103
  859TIP3   OH2 2521   5.433   7.348   4.948
  859TIP3    H1 2522   5.524   7.362   4.922
  859TIP3    H2 2523   5.381   7.399   4.886
  860TIP3   OH2 2524   4.633   4.731   4.225
  860TIP3    H1 2525   4.625   4.783   4.305
  860TIP3    H2 2526   4.551   4.747   4.178
  861TIP3   OH2 2527   5.225   5.977   6.433
  861TIP3    H1 2528   5.206   6.000   6.342
  861TIP3    H2 2529   5.320   5.983   6.439
  862TIP3   OH2 2530   7.785   5.719   5.949
  862TIP3    H1 2531   7.856   5.713   6.013
  862TIP3    H2 2532   7.787   5.810   5.919
  863TIP3   OH2 2533   3.222   3.479   1.132
  863TIP3    H1 2534   3.163   3.553   1.118
  863TIP3    H2 2535   3.249   3.487   1.223
  864TIP3   OH2 2536   1.554   4.313   5.878
  864TIP3    H1 2537   1.604   4.236   5.851
  864TIP3    H2 2538   1.509   4.341   5.799
  865TIP3   OH2 2539   0.288   7.828   4.593
  865TIP3    H1 2540   0.249   7.745   4.621
  865TIP3    H2 2541   0.252   7.843   4.506
  866TIP3   OH2 2542   7.070   0.166   3.384
  866TIP3    H1 2543   7.120   0.120   3.452
  866TIP3    H2 2544   7.040   0.246   3.427
  867TIP3   OH2 2545   1.693   1.694   2.669
  867TIP3    H1 2546   1.669   1.644   2.747
  867TIP3    H2 2547   1.707   1.628   2.601
  868TIP3   OH2 2548   4.648   6.008   6.501
  868TIP3    H1 2549   4.593   6.049   6.435
  868TIP3    H2 2550   4.663   6.076   6.566
  869TIP3   OH2 2551   1.151   2.844   5.091
  869TIP3    H1 2552   1.087   2.915   5.087
  869TIP3    H2 2553   1.188   2.849   5.179
  870TIP3   OH2 2554   5.347   6.760   2.480
  870TIP3    H1 2555   5.256   6.778   2.505
  870TIP3    H2 2556   5.369   6.829   2.417
  871TIP3   OH2 2557   2.247   1.825   1.897
  871TIP3    H1 2558   2.226   1.868   1.980
  871TIP3    H2 2559   2.248   1.732   1.918
  872TIP3   OH2 2560   2.539   3.143   3.375
  872TIP3    H1 2561   2.591   3.216   3.343
  872TIP3    H2 2562   2.473   3.184   3.431
  873TIP3   OH2 2563   7.154   4.850   5.499
  873TIP3    H1 2564   7.193   4.887   5.420
  873TIP3    H2 2565   7.207   4.773   5.518
  874TIP3   OH2 2566   2.920   5.900   5.618
  874TIP3    H1 2567   2.977   5.829   5.589
  874TIP3    H2 2568   2.975   5.954   5.675
  875TIP3   OH2 2569   4.430   7.664   3.111
  875TIP3    H1 2570   4.455   7.624   3.194
  875TIP3    H2 2571   4.511   7.670   3.061
  876TIP3   OH2 2572   3.649   7.687   4.124
  876TIP3    H1 2573   3.654   7.593   4.144
  876TIP3    H2 2574   3.697   7.729   4.195
  877TIP3   OH2 2575   5.334   6.991   5.863
  877TIP3    H1 2576   5.250   6.947   5.881
  877TIP3    H2 2577   5.330   7.072   5.914
  878TIP3   OH2 2578   3.421   2.375   4.080
  878TIP3    H1 2579   3.429   2.375   3.985
  878TIP3    H2 2580   3.505   2.338   4.111
  879TIP3   OH2 2581   5.222   0.877   0.047
  879TIP3    H1 2582   5.308   0.870   0.087
  879TIP3    H2 2583   5.160   0.857   0.118
  880TIP3   OH2 2584   4.242   6.665   2.074
  880TIP3    H1 2585   4.271   6.737   2.017
  880TIP3    H2 2586   4.164   6.700   2.118
  881TIP3   OH2 2587   0.207   6.999   2.844
  881TIP3    H1 2588   0.156   6.921   2.865
  881TIP3    H2 2589   0.186   7.061   2.914
  882TIP3   OH2 2590   4.710   2.461   4.980
  882TIP3    H1 2591   4.706   2.395   4.910
  882TIP3    H2 2592   4.675   2.540   4.940
  883TIP3   OH2 2593   5.116   7.349   3.625
  883TIP3    H1 2594   5.023   7.343   3.603
  883TIP3    H2 2595   5.161   7.321   3.546
  884TIP3   OH2 2596   5.359   4.029   4.863
  884TIP3    H1 2597   5.419   3.992   4.928
  884TIP3    H2 2598   5.362   4.123   4.880
  885TIP3   OH2 2599   7.783   1.466   2.195
  885TIP3    H1 2600   7.839   1.400   2.154
  885TIP3    H2 2601   7.771   1.434   2.285
  886TIP3   OH2 2602   5.554   6.732   5.634
  886TIP3    H1 2603   5.466   6.703   5.660
  886TIP3    H2 2604   5.590   6.771   5.713
  887TIP3   OH2 2605   5.829   0.332   3.271
  887TIP3    H1 2606   5.786   0.294   3.194
  887TIP3    H2 2607   5.886   0.262   3.304
  888TIP3   OH2 2608   4.450   2.263   3.740
  888TIP3    H1 2609   4.404   2.202   3.798
  888TIP3    H2 2610   4.442   2.224   3.653
  889TIP3   OH2 2611   4.984   2.770   1.705
  889TIP3    H1 2612   5.036   2.833   1.655
  889TIP3    H2 2613   5.048   2.710   1.741
  890TIP3   OH2 2614   4.919   0.926   1.229
  890TIP3    H1 2615   4.834   0.897   1.197
  890TIP3    H2 2616   4.902   0.956   1.319
  891TIP3   OH2 2617   4.718   2.636   4.383
  891TIP3    H1 2618   4.710   2.601   4.294
  891TIP3    H2 2619   4.683   2.567   4.439
  892TIP3   OH2 2620   4.772   3.399   1.319
  892TIP3    H1 2621   4.735   3.356   1.242
  892TIP3    H2 2622   4.858   3.358   1.329
  893TIP3   OH2 2623   4.560   2.949   3.598
  893TIP3    H1 2624   4.507   2.977   3.524
  893TIP3    H2 2625   4.613   3.026   3.621
  894TIP3   OH2 2626   3.602   4.667   2.227
  894TIP3    H1 2627   3.625   4.601   2.292
  894TIP3    H2 2628   3.687   4.698   2.192
  895TIP3   OH2 2629   7.557   3.452   5.694
  895TIP3    H1 2630   7.642   3.412   5.713
  895TIP3    H2 2631   7.493   3.385   5.716
  896TIP3   OH2 2632   1.025   3.420   0.033
  896TIP3    H1 2633   1.028   3.328   0.008
  896TIP3    H2 2634   1.109   3.436   0.077
  897TIP3   OH2 2635   5.883   0.954   0.838
  897TIP3    H1 2636   5.880   0.917   0.926
  897TIP3    H2 2637   5.825   0.898   0.787
  898TIP3   OH2 2638   3.200   5.568   2.065
  898TIP3    H1 2639   3.264   5.511   2.108
  898TIP3    H2 2640   3.253   5.638   2.027
  899TIP3   OH2 2641   6.290   4.723   2.351
  899TIP3    H1 2642   6.196   4.715   2.333
  899TIP3    H2 2643   6.295   4.752   2.442
  900TIP3   OH2 2644  -0.009   3.799   2.590
  900TIP3    H1 2645   0.075   3.754   2.590
  900TIP3    H2 2646  -0.003   3.862   2.518
  901TIP3   OH2 2647   7.803   4.861   6.207
  901TIP3    H1 2648   7.754   4.858   6.289
  901TIP3    H2 2649   7.798   4.772   6.173
  902TIP3   OH2 2650   2.441   3.983   3.312
  902TIP3    H1 2651   2.460   3.911   3.251
  902TIP3    H2 2652   2.485   3.958   3.393
  903TIP3   OH2 2653   1.183   5.358   3.233
  903TIP3    H1 2654   1.252   5.382   3.295
  903TIP3    H2 2655   1.188   5.425   3.165
  904TIP3   OH2 2656   7.122   4.366   5.796
  904TIP3    H1 2657   7.029   4.354   5.811
  904TIP3    H2 2658   7.149   4.287   5.749
  905TIP3   OH2 2659   2.080   1.164   2.822
  905TIP3    H1 2660   2.046   1.131   2.905
  905TIP3    H2 2661   2.158   1.111   2.805
  906TIP3   OH2 2662   4.566   3.038   5.862
  906TIP3    H1 2663   4.641   3.025   5.920
  906TIP3    H2 2664   4.559   2.956   5.813
  907TIP3   OH2 2665   5.881   1.709   1.198
  907TIP3    H1 2666   5.845   1.780   1.144
  907TIP3    H2 2667   5.807   1.651   1.214
  908TIP3   OH2 2668   7.404   7.401   0.398
  908TIP3    H1 2669   7.471   7.452   0.351
  908TIP3    H2 2670   7.443   7.383   0.483
  909TIP3   OH2 2671   3.200   4.200   1.074
  909TIP3    H1 2672   3.155   4.268   1.125
  909TIP3    H2 2673   3.185   4.120   1.124
  910TIP3   OH2 2674   2.806   1.278   2.535
  910TIP3    H1 2675   2.840   1.247   2.619
  910TIP3    H2 2676   2.770   1.200   2.493
  911TIP3   OH2 2677   2.630   6.639   3.535
  911TIP3    H1 2678   2.561   6.610   3.596
  911TIP3    H2 2679   2.595   6.620   3.448
  912TIP3   OH2 2680   6.883   3.365   6.223
  912TIP3    H1 2681   6.913   3.345   6.311
  912TIP3    H2 2682   6.800   3.411   6.236
  913TIP3   OH2 2683   6.100   7.643   2.495
  913TIP3    H1 2684   6.177   7.674   2.447
  913TIP3    H2 2685   6.062   7.722   2.534
  914TIP3   OH2 2686   6.104   6.163   1.142
  914TIP3    H1 2687   6.115   6.099   1.212
  914TIP3    H2 2688   6.128   6.116   1.062
  915TIP3   OH2 2689   3.468   3.394   2.421
  915TIP3    H1 2690   3.383   3.361   2.391
  915TIP3    H2 2691   3.518   3.408   2.341
  916TIP3   OH2 2692   5.483   3.488   6.572
  916TIP3    H1 2693   5.418   3.527   6.514
  916TIP3    H2 2694   5.557   3.549   6.569
  917TIP3   OH2 2695   0.267   0.043   4.671
  917TIP3    H1 2696   0.172   0.044   4.666
  917TIP3    H2 2697   0.288  -0.042   4.711
  918TIP3   OH2 2698   1.950   2.878   5.869
  918TIP3    H1 2699   1.933   2.842   5.956
  918TIP3    H2 2700   1.888   2.832   5.812
  919TIP3   OH2 2701   5.650   3.930   1.922
  919TIP3    H1 2702   5.638   4.019   1.889
  919TIP3    H2 2703   5.561   3.895   1.931
  920TIP3   OH2 2704   8.150   6.651   0.683
  920TIP3    H1 2705   8.164   6.719   0.617
  920TIP3    H2 2706   8.194   6.574   0.647
  921TIP3   OH2 2707   6.848   5.554   0.342
  921TIP3    H1 2708   6.939   5.576   0.320
  921TIP3    H2 2709   6.810   5.638   0.370
  922TIP3   OH2 2710   7.953   3.170   5.003
  922TIP3    H1 2711   7.929   3.091   4.954
  922TIP3    H2 2712   8.040   3.151   5.038
  923TIP3   OH2 2713   3.728   4.535   4.604
  923TIP3    H1 2714   3.809   4.548   4.654
  923TIP3    H2 2715   3.702   4.445   4.625
  924TIP3   OH2 2716   7.836   3.189   3.659
  924TIP3    H1 2717   7.854   3.207   3.567
  924TIP3    H2 2718   7.876   3.261   3.706
  925TIP3   OH2 2719   6.210   3.231   0.306
  925TIP3    H1 2720   6.262   3.271   0.375
  925TIP3    H2 2721   6.124   3.216   0.346
  926TIP3   OH2 2722   2.370   7.300   3.483
  926TIP3    H1 2723   2.373   7.208   3.457
  926TIP3    H2 2724   2.320   7.343   3.414
  927TIP3   OH2 2725   5.888   6.121   3.437
  927TIP3    H1 2726   5.833   6.154   3.509
  927TIP3    H2 2727   5.858   6.031   3.424
  928TIP3   OH2 2728   4.355   0.852   3.603
  928TIP3    H1 2729   4.358   0.947   3.606
  928TIP3    H2 2730   4.387   0.830   3.515
  929TIP3   OH2 2731   5.984   5.575   3.138
  929TIP3    H1 2732   5.914   5.625   3.095
  929TIP3    H2 2733   5.946   5.549   3.222
  930TIP3   OH2 2734   0.698   4.384   3.777
  930TIP3    H1 2735   0.704   4.291   3.801
  930TIP3    H2 2736   0.777   4.401   3.727
  931TIP3   OH2 2737   8.192   4.755   6.516
  931TIP3    H1 2738   8.145   4.744   6.433
  931TIP3    H2 2739   8.156   4.687   6.573
  932TIP3   OH2 2740   0.558   5.570   0.475
  932TIP3    H1 2741   0.620   5.613   0.416
  932TIP3    H2 2742   0.604   5.492   0.506
  933TIP3   OH2 2743   4.063   2.710   5.575
  933TIP3    H1 2744   4.074   2.800   5.606
  933TIP3    H2 2745   4.050   2.718   5.481
  934TIP3   OH2 2746   5.944   6.685   2.974
  934TIP3    H1 2747   5.876   6.674   2.908
  934TIP3    H2 2748   6.017   6.631   2.944
  935TIP3   OH2 2749   0.723   3.773   6.210
  935TIP3    H1 2750   0.711   3.705   6.143
  935TIP3    H2 2751   0.797   3.742   6.262
  936TIP3   OH2 2752   1.977   2.149   2.180
  936TIP3    H1 2753   2.025   2.208   2.122
  936TIP3    H2 2754   1.982   2.191   2.266
  937TIP3   OH2 2755   0.520   3.201   0.245
  937TIP3    H1 2756   0.526   3.218   0.151
  937TIP3    H2 2757   0.581   3.263   0.285
  938TIP3   OH2 2758   0.748   1.848   0.563
  938TIP3    H1 2759   0.690   1.834   0.638
  938TIP3    H2 2760   0.689   1.858   0.489
  939TIP3   OH2 2761   3.962   7.576   5.176
  939TIP3    H1 2762   3.971   7.637   5.102
  939TIP3    H2 2763   4.046   7.582   5.222
  940TIP3   OH2 2764   4.917   2.474   2.170
  940TIP3    H1 2765   4.995   2.499   2.120
  940TIP3    H2 2766   4.882   2.398   2.124
  941TIP3   OH2 2767   4.158   1.903   4.297
  941TIP3    H1 2768   4.142   1.962   4.370
  941TIP3    H2 2769   4.210   1.832   4.334
  942TIP3   OH2 2770   0.565   7.272   1.166
  942TIP3    H1 2771   0.562   7.321   1.248
  942TIP3    H2 2772   0.616   7.327   1.106
  943TIP3   OH2 2773   6.867   1.775   3.418
  943TIP3    H1 2774   6.806   1.709   3.384
  943TIP3    H2 2775   6.812   1.835   3.468
  944TIP3   OH2 2776   5.247   3.123   1.217
  944TIP3    H1 2777   5.179   3.157   1.159
  944TIP3    H2 2778   5.226   3.030   1.226
  945TIP3   OH2 2779   5.892   1.872   4.921
  945TIP3    H1 2780   5.805   1.908   4.942
  945TIP3    H2 2781   5.878   1.818   4.844
  946TIP3   OH2 2782   7.875   1.035   3.886
  946TIP3    H1 2783   7.808   1.008   3.823
  946TIP3    H2 2784   7.835   1.109   3.933
  947TIP3   OH2 2785   6.463   3.655   4.266
  947TIP3    H1 2786   6.525   3.703   4.211
  947TIP3    H2 2787   6.383   3.650   4.215
  948TIP3   OH2 2788   6.605   5.085   0.930
  948TIP3    H1 2789   6.526   5.040   0.961
  948TIP3    H2 2790   6.576   5.133   0.852
  949TIP3   OH2 2791   6.902   3.682   3.890
  949TIP3    H1 2792   6.860   3.601   3.919
  949TIP3    H2 2793   6.899   3.739   3.966
  950TIP3   OH2 2794   6.941   0.676   5.936
  950TIP3    H1 2795   7.016   0.726   5.967
  950TIP3    H2 2796   6.868   0.705   5.990
  951TIP3   OH2 2797   5.050   6.945   1.860
  951TIP3    H1 2798   5.086   7.034   1.857
  951TIP3    H2 2799   5.033   6.922   1.769
  952TIP3   OH2 2800   6.125   4.388   4.290
  952TIP3    H1 2801   6.134   4.293   4.296
  952TIP3    H2 2802   6.118   4.405   4.196
  953TIP3   OH2 2803   5.255   7.176   6.687
  953TIP3    H1 2804   5.287   7.166   6.598
  953TIP3    H2 2805   5.254   7.271   6.702
  954TIP3   OH2 2806   6.681   0.373   3.444
  954TIP3    H1 2807   6.609   0.325   3.485
  954TIP3    H2 2808   6.642   0.456   3.417
  955TIP3   OH2 2809   2.000   6.018   2.589
  955TIP3    H1 2810   2.062   6.079   2.630
  955TIP3    H2 2811   1.935   6.074   2.547
  956TIP3   OH2 2812   3.681   6.979   5.692
  956TIP3    H1 2813   3.631   6.901   5.716
  956TIP3    H2 2814   3.720   6.958   5.607
  957TIP3   OH2 2815   3.349   2.939   5.610
  957TIP3    H1 2816   3.298   2.903   5.538
  957TIP3    H2 2817   3.304   2.910   5.689
  958TIP3   OH2 2818   8.052   1.543   6.362
  958TIP3    H1 2819   8.123   1.602   6.387
  958TIP3    H2 2820   8.089   1.455   6.375
  959TIP3   OH2 2821   1.489   3.021   5.279
  959TIP3    H1 2822   1.540   2.951   5.238
  959TIP3    H2 2823   1.538   3.101   5.259
  960TIP3   OH2 2824   5.814   3.388   2.927
  960TIP3    H1 2825   5.813   3.469   2.978
  960TIP3    H2 2826   5.724   3.379   2.894
  961TIP3   OH2 2827   5.979   4.749   3.943
  961TIP3    H1 2828   6.039   4.822   3.926
  961TIP3    H2 2829   6.027   4.692   4.002
  962TIP3   OH2 2830   7.611   3.091   4.260
  962TIP3    H1 2831   7.552   3.146   4.210
  962TIP3    H2 2832   7.581   3.100   4.351
  963TIP3   OH2 2833   1.691   0.255   4.652
  963TIP3    H1 2834   1.636   0.320   4.695
  963TIP3    H2 2835   1.777   0.297   4.645
  964TIP3   OH2 2836   7.798   5.289   1.504
  964TIP3    H1 2837   7.750   5.358   1.550
  964TIP3    H2 2838   7.760   5.289   1.415
  965TIP3   OH2 2839   0.611   6.776   1.195
  965TIP3    H1 2840   0.636   6.867   1.176
  965TIP3    H2 2841   0.521   6.769   1.163
  966TIP3   OH2 2842   6.087   3.398   0.083
  966TIP3    H1 2843   6.081   3.486   0.122
  966TIP3    H2 2844   6.111   3.341   0.157
  967TIP3   OH2 2845   5.655   5.368   5.061
  967TIP3    H1 2846   5.580   5.361   5.121
  967TIP3    H2 2847   5.616   5.400   4.979
  968TIP3   OH2 2848   3.549   4.595   3.519
  968TIP3    H1 2849   3.613   4.552   3.462
  968TIP3    H2 2850   3.564   4.557   3.605
  969TIP3   OH2 2851   7.538   5.878   4.502
  969TIP3    H1 2852   7.562   5.857   4.592
  969TIP3    H2 2853   7.481   5.955   4.509
  970TIP3   OH2 2854   1.600   3.060   0.727
  970TIP3    H1 2855   1.506   3.050   0.712
  970TIP3    H2 2856   1.623   3.142   0.684
  971TIP3   OH2 2857   3.822   3.874   0.889
  971TIP3    H1 2858   3.733   3.838   0.883
  971TIP3    H2 2859   3.858   3.836   0.970
  972TIP3   OH2 2860   7.435   4.915   0.955
  972TIP3    H1 2861   7.375   4.845   0.930
  972TIP3    H2 2862   7.519   4.890   0.918
  973TIP3   OH2 2863   5.234   7.114   2.796
  973TIP3    H1 2864   5.255   7.077   2.881
  973TIP3    H2 2865   5.319   7.125   2.753
  974TIP3   OH2 2866   1.606   3.213   1.572
  974TIP3    H1 2867   1.532   3.251   1.526
  974TIP3    H2 2868   1.628   3.135   1.522
  975TIP3   OH2 2869   2.437   7.052   1.829
  975TIP3    H1 2870   2.356   7.057   1.778
  975TIP3    H2 2871   2.480   6.973   1.798
  976TIP3   OH2 2872   1.073   1.078   5.060
  976TIP3    H1 2873   1.044   1.020   4.990
  976TIP3    H2 2874   1.110   1.154   5.014
  977TIP3   OH2 2875   1.426   2.179   2.236
  977TIP3    H1 2876   1.430   2.267   2.273
  977TIP3    H2 2877   1.516   2.158   2.214
  978TIP3   OH2 2878   7.058   4.139   3.209
  978TIP3    H1 2879   7.064   4.098   3.122
  978TIP3    H2 2880   6.985   4.095   3.252
  979TIP3   OH2 2881   3.802   5.294   0.405
  979TIP3    H1 2882   3.814   5.385   0.378
  979TIP3    H2 2883   3.890   5.260   0.418
  980TIP3   OH2 2884   2.298   6.325   3.865
  980TIP3    H1 2885   2.245   6.258   3.823
  980TIP3    H2 2886   2.236   6.378   3.915
  981TIP3   OH2 2887   0.559   2.045   6.223
  981TIP3    H1 2888   0.481   2.046   6.278
  981TIP3    H2 2889   0.530   2.004   6.141
  982TIP3   OH2 2890   6.209   3.653   2.709
  982TIP3    H1 2891   6.263   3.670   2.632
  982TIP3    H2 2892   6.234   3.720   2.772
  983TIP3   OH2 2893   6.867   7.707   1.578
  983TIP3    H1 2894   6.865   7.799   1.553
  983TIP3    H2 2895   6.959   7.681   1.567
  984TIP3   OH2 2896   7.140   2.607   0.145
  984TIP3    H1 2897   7.208   2.640   0.203
  984TIP3    H2 2898   7.179   2.612   0.057
  985TIP3   OH2 2899   7.438   6.343   5.226
  985TIP3    H1 2900   7.484   6.297   5.155
  985TIP3    H2 2901   7.358   6.375   5.186
  986TIP3   OH2 2902   4.766   2.435   0.803
  986TIP3    H1 2903   4.764   2.410   0.896
  986TIP3    H2 2904   4.705   2.507   0.797
  987TIP3   OH2 2905   4.949   3.833   6.717
  987TIP3    H1 2906   4.962   3.738   6.715
  987TIP3    H2 2907   4.989   3.862   6.799
  988TIP3   OH2 2908   6.755   3.378   5.834
  988TIP3    H1 2909   6.719   3.461   5.865
  988TIP3    H2 2910   6.678   3.322   5.821
  989TIP3   OH2 2911   5.845   2.818   4.356
  989TIP3    H1 2912   5.901   2.789   4.428
  989TIP3    H2 2913   5.776   2.752   4.351
  990TIP3   OH2 2914   1.618   5.351   6.185
  990TIP3    H1 2915   1.562   5.372   6.111
  990TIP3    H2 2916   1.659   5.268   6.161
  991TIP3   OH2 2917   3.869   4.786   6.559
  991TIP3    H1 2918   3.855   4.692   6.571
  991TIP3    H2 2919   3.964   4.797   6.566
  992TIP3   OH2 2920   0.301   6.750   1.123
  992TIP3    H1 2921   0.301   6.691   1.047
  992TIP3    H2 2922   0.212   6.785   1.126
  993TIP3   OH2 2923   7.593   3.643   0.425
  993TIP3    H1 2924   7.608   3.562   0.375
  993TIP3    H2 2925   7.538   3.696   0.367
  994TIP3   OH2 2926   6.582   3.885   4.119
  994TIP3    H1 2927   6.593   3.876   4.024
  994TIP3    H2 2928   6.611   3.975   4.137
  995TIP3   OH2 2929   0.542   5.785   3.861
  995TIP3    H1 2930   0.630   5.760   3.887
  995TIP3    H2 2931   0.517   5.853   3.924
  996TIP3   OH2 2932   7.464   0.862   1.437
  996TIP3    H1 2933   7.489   0.785   1.384
  996TIP3    H2 2934   7.369   0.867   1.429
  997TIP3   OH2 2935   1.288   4.545   6.023
  997TIP3    H1 2936   1.276   4.500   5.940
  997TIP3    H2 2937   1.215   4.514   6.077
  998TIP3   OH2 2938   4.754   1.281   5.357
  998TIP3    H1 2939   4.712   1.209   5.404
  998TIP3    H2 2940   4.688   1.309   5.293
  999TIP3   OH2 2941   5.527   0.129   3.954
  999TIP3    H1 2942   5.496   0.202   3.900
  999TIP3    H2 2943   5.536   0.167   4.042
 1000TIP3   OH2 2944   5.232   3.048   5.508
 1000TIP3    H1 2945   5.232   3.030   5.414
 1000TIP3    H2 2946   5.317   3.016   5.539
 1001TIP3   OH2 2947   7.417   7.605   4.347
 1001TIP3    H1 2948   7.450   7.538   4.407
 1001TIP3    H2 2949   7.393   7.678   4.404
 1002TIP3   OH2 2950   0.484   2.319   5.177
 1002TIP3    H1 2951   0.535   2.374   5.236
 1002TIP3    H2 2952   0.496   2.230   5.209
 1003TIP3   OH2 2953   2.026   5.094   4.306
 1003TIP3    H1 2954   1.950   5.126   4.356
 1003TIP3    H2 2955   2.090   5.165   4.313
 1004TIP3   OH2 2956   7.326   4.255   0.069
 1004TIP3    H1 2957   7.250   4.303   0.039
 1004TIP3    H2 2958   7.349   4.198  -0.004
 1005TIP3   OH2 2959   3.263   2.762   5.785
 1005TIP3    H1 2960   3.282   2.737   5.875
 1005TIP3    H2 2961   3.252   2.679   5.739
 1006TIP3   OH2 2962   5.311   5.535   4.020
 1006TIP3    H1 2963   5.247   5.494   4.078
 1006TIP3    H2 2964   5.346   5.608   4.070
 1007TIP3   OH2 2965   5.700   6.906   5.801
 1007TIP3    H1 2966   5.696   6.931   5.893
 1007TIP3    H2 2967   5.650   6.974   5.755
 1008TIP3   OH2 2968   1.891   0.745   3.661
 1008TIP3    H1 2969   1.871   0.779   3.574
 1008TIP3    H2 2970   1.953   0.807   3.698
 1009TIP3   OH2 2971   5.236   5.437   1.555
 1009TIP3    H1 2972   5.291   5.404   1.626
 1009TIP3    H2 2973   5.296   5.488   1.500
 1010TIP3   OH2 2974   1.454   7.390   2.718
 1010TIP3    H1 2975   1.363   7.382   2.688
 1010TIP3    H2 2976   1.479   7.480   2.695
 1011TIP3   OH2 2977   5.181   3.959   1.431
 1011TIP3    H1 2978   5.243   3.929   1.497
 1011TIP3    H2 2979   5.201   3.907   1.353
 1012TIP3   OH2 2980   0.464   3.864   0.600
 1012TIP3    H1 2981   0.375   3.879   0.570
 1012TIP3    H2 2982   0.517   3.929   0.555
 1013TIP3   OH2 2983   3.672   7.205   1.940
 1013TIP3    H1 2984   3.675   7.173   1.850
 1013TIP3    H2 2985   3.601   7.268   1.940
 1014TIP3   OH2 2986   4.578   1.573   6.218
 1014TIP3    H1 2987   4.550   1.658   6.185
 1014TIP3    H2 2988   4.615   1.529   6.142
 1015TIP3   OH2 2989   1.599   2.638   5.940
 1015TIP3    H1 2990   1.505   2.649   5.930
 1015TIP3    H2 2991   1.637   2.679   5.863
 1016TIP3   OH2 2992   3.909   0.698   3.733
 1016TIP3    H1 2993   3.873   0.624   3.685
 1016TIP3    H2 2994   3.920   0.665   3.823
 1017TIP3   OH2 2995   5.318   7.473   5.153
 1017TIP3    H1 2996   5.404   7.486   5.195
 1017TIP3    H2 2997   5.337   7.417   5.078
 1018TIP3   OH2 2998   5.218   6.141   2.293
 1018TIP3    H1 2999   5.198   6.055   2.256
 1018TIP3    H2 3000   5.243   6.122   2.384
 1019TIP3   OH2 3001   6.404   6.174   0.039
 1019TIP3    H1 3002   6.399   6.269   0.038
 1019TIP3    H2 3003   6.325   6.146   0.086
 1020TIP3   OH2 3004   0.808   6.616   1.951
 1020TIP3    H1 3005   0.889   6.639   1.906
 1020TIP3    H2 3006   0.791   6.525   1.926
 1021TIP3   OH2 3007   1.903   2.897   1.225
 1021TIP3    H1 3008   1.951   2.873   1.146
 1021TIP3    H2 3009   1.971   2.914   1.290
 1022TIP3   OH2 3010   7.392   4.017   6.347
 1022TIP3    H1 3011   7.355   4.094   6.303
 1022TIP3    H2 3012   7.451   4.054   6.413
 1023TIP3   OH2 3013   6.840   7.649   0.480
 1023TIP3    H1 3014   6.795   7.680   0.402
 1023TIP3    H2 3015   6.810   7.708   0.550
 1024TIP3   OH2 3016   1.252   2.115   3.223
 1024TIP3    H1 3017   1.204   2.108   3.305
 1024TIP3    H2 3018   1.203   2.061   3.161
 1025TIP3   OH2 3019   2.542   3.682   1.036
 1025TIP3    H1 3020   2.628   3.724   1.034
 1025TIP3    H2 3021   2.558   3.598   1.079
 1026TIP3   OH2 3022   2.449   5.217   3.166
 1026TIP3    H1 3023   2.428   5.129   3.199
 1026TIP3    H2 3024   2.485   5.201   3.078
 1027TIP3   OH2 3025   3.874   7.585   1.893
 1027TIP3    H1 3026   3.936   7.539   1.835
 1027TIP3    H2 3027   3.788   7.566   1.856
 1028TIP3   OH2 3028   6.064   2.644   1.032
 1028TIP3    H1 3029   6.133   2.659   0.968
 1028TIP3    H2 3030   6.069   2.551   1.052
 1029TIP3   OH2 3031   3.667   5.671   2.626
 1029TIP3    H1 3032   3.630   5.583   2.618
 1029TIP3    H2 3033   3.654   5.711   2.540
 1030TIP3   OH2 3034   6.665   3.525   4.388
 1030TIP3    H1 3035   6.591   3.560   4.340
 1030TIP3    H2 3036   6.659   3.565   4.475
 1031TIP3   OH2 3037   3.568   3.308   0.759
 1031TIP3    H1 3038   3.557   3.398   0.726
 1031TIP3    H2 3039   3.589   3.319   0.852
 1032TIP3   OH2 3040   2.196   2.462   6.410
 1032TIP3    H1 3041   2.271   2.520   6.423
 1032TIP3    H2 3042   2.166   2.440   6.498
 1033TIP3   OH2 3043   4.326   2.477   0.332
 1033TIP3    H1 3044   4.353   2.541   0.267
 1033TIP3    H2 3045   4.372   2.502   0.412
 1034TIP3   OH2 3046   5.928   3.620   4.904
 1034TIP3    H1 3047   5.914   3.538   4.951
 1034TIP3    H2 3048   5.843   3.640   4.865
 1035TIP3   OH2 3049   4.164   6.700   6.133
 1035TIP3    H1 3050   4.128   6.706   6.044
 1035TIP3    H2 3051   4.175   6.606   6.148
 1036TIP3   OH2 3052   7.507   4.608   0.828
 1036TIP3    H1 3053   7.571   4.671   0.795
 1036TIP3    H2 3054   7.436   4.662   0.863
 1037TIP3   OH2 3055   1.303   6.355   2.044
 1037TIP3    H1 3056   1.350   6.432   2.076
 1037TIP3    H2 3057   1.213   6.386   2.032
 1038TIP3   OH2 3058   2.661   2.349   3.348
 1038TIP3    H1 3059   2.661   2.336   3.253
 1038TIP3    H2 3060   2.573   2.322   3.376
 1039TIP3   OH2 3061   4.610   4.931   3.505
 1039TIP3    H1 3062   4.559   4.923   3.425
 1039TIP3    H2 3063   4.639   4.842   3.524
 1040TIP3   OH2 3064   4.535   5.169   2.664
 1040TIP3    H1 3065   4.465   5.150   2.601
 1040TIP3    H2 3066   4.606   5.206   2.612
 1041TIP3   OH2 3067   6.366   1.641   0.841
 1041TIP3    H1 3068   6.279   1.635   0.879
 1041TIP3    H2 3069   6.363   1.584   0.764
 1042TIP3   OH2 3070   1.857   6.154   0.674
 1042TIP3    H1 3071   1.773   6.197   0.656
 1042TIP3    H2 3072   1.882   6.114   0.591
 1043TIP3   OH2 3073   4.007   1.926   3.774
 1043TIP3    H1 3074   4.025   1.916   3.868
 1043TIP3    H2 3075   3.931   1.871   3.758
 1044TIP3   OH2 3076   7.334   7.610   1.727
 1044TIP3    H1 3077   7.310   7.687   1.676
 1044TIP3    H2 3078   7.304   7.536   1.673
 1045TIP3   OH2 3079   1.373   1.450   3.374
 1045TIP3    H1 3080   1.438   1.445   3.304
 1045TIP3    H2 3081   1.398   1.526   3.425
 1046TIP3   OH2 3082   6.818   3.921   4.567
 1046TIP3    H1 3083   6.746   3.930   4.505
 1046TIP3    H2 3084   6.826   3.827   4.581
 1047TIP3   OH2 3085   3.871   6.556   4.516
 1047TIP3    H1 3086   3.857   6.651   4.518
 1047TIP3    H2 3087   3.925   6.539   4.594
 1048TIP3   OH2 3088   4.427   5.770   6.363
 1048TIP3    H1 3089   4.489   5.703   6.335
 1048TIP3    H2 3090   4.400   5.743   6.451
 1049TIP3   OH2 3091   4.996   1.229   3.922
 1049TIP3    H1 3092   4.992   1.301   3.986
 1049TIP3    H2 3093   4.938   1.256   3.851
 1050TIP3   OH2 3094   7.851   2.537   2.969
 1050TIP3    H1 3095   7.885   2.491   3.046
 1050TIP3    H2 3096   7.786   2.478   2.933
 1051TIP3   OH2 3097   3.977   4.137   6.719
 1051TIP3    H1 3098   3.921   4.101   6.651
 1051TIP3    H2 3099   4.059   4.158   6.674
 1052TIP3   OH2 3100   6.079   3.238   3.746
 1052TIP3    H1 3101   6.071   3.321   3.701
 1052TIP3    H2 3102   6.057   3.172   3.680
 1053TIP3   OH2 3103   3.595   0.366   1.163
 1053TIP3    H1 3104   3.647   0.301   1.212
 1053TIP3    H2 3105   3.656   0.400   1.097
 1054TIP3   OH2 3106   0.099   2.640   5.396
 1054TIP3    H1 3107   0.077   2.582   5.469
 1054TIP3    H2 3108   0.028   2.628   5.333
 1055TIP3   OH2 3109   1.979   1.596   0.409
 1055TIP3    H1 3110   1.957   1.656   0.480
 1055TIP3    H2 3111   1.913   1.613   0.342
 1056TIP3   OH2 3112   4.642   4.348   1.673
 1056TIP3    H1 3113   4.731   4.313   1.682
 1056TIP3    H2 3114   4.585   4.272   1.680
 1057TIP3   OH2 3115   4.816   4.537   3.308
 1057TIP3    H1 3116   4.904   4.500   3.312
 1057TIP3    H2 3117   4.779   4.502   3.226
 1058TIP3   OH2 3118   3.602   1.951   5.012
 1058TIP3    H1 3119   3.567   1.891   5.079
 1058TIP3    H2 3120   3.666   2.005   5.059
 1059TIP3   OH2 3121   3.555   3.952   5.983
 1059TIP3    H1 3122   3.470   3.922   5.951
 1059TIP3    H2 3123   3.575   4.029   5.929
 1060TIP3   OH2 3124   6.323   4.253   3.621
 1060TIP3    H1 3125   6.370   4.315   3.677
 1060TIP3    H2 3126   6.230   4.276   3.633
 1061TIP3   OH2 3127   1.479   0.360   3.642
 1061TIP3    H1 3128   1.555   0.407   3.607
 1061TIP3    H2 3129   1.505   0.268   3.642
 1062TIP3   OH2 3130   5.343   7.576   2.911
 1062TIP3    H1 3131   5.417   7.561   2.970
 1062TIP3    H2 3132   5.361   7.519   2.836
 1063TIP3   OH2 3133   7.887   7.319   5.168
 1063TIP3    H1 3134   7.939   7.240   5.155
 1063TIP3    H2 3135   7.812   7.290   5.219
 1064TIP3   OH2 3136   3.175   3.186   3.557
 1064TIP3    H1 3137   3.240   3.155   3.620
 1064TIP3    H2 3138   3.104   3.221   3.611
 1065TIP3   OH2 3139   5.464   6.247   4.605
 1065TIP3    H1 3140   5.466   6.243   4.509
 1065TIP3    H2 3141   5.542   6.296   4.629
 1066TIP3   OH2 3142   6.860   2.289   1.148
 1066TIP3    H1 3143   6.956   2.283   1.148
 1066TIP3    H2 3144   6.842   2.380   1.170
 1067TIP3   OH2 3145   1.286   7.001   3.773
 1067TIP3    H1 3146   1.335   7.013   3.692
 1067TIP3    H2 3147   1.353   6.985   3.840
 1068TIP3   OH2 3148   5.477   6.550   0.997
 1068TIP3    H1 3149   5.384   6.561   0.980
 1068TIP3    H2 3150   5.489   6.456   1.010
 1069TIP3   OH2 3151   2.487   2.680   5.407
 1069TIP3    H1 3152   2.528   2.602   5.369
 1069TIP3    H2 3153   2.441   2.721   5.334
 1070TIP3   OH2 3154   1.913   7.291   0.021
 1070TIP3    H1 3155   1.926   7.366  -0.038
 1070TIP3    H2 3156   1.949   7.321   0.105
 1071TIP3   OH2 3157   4.403   1.155   3.295
 1071TIP3    H1 3158   4.386   1.075   3.246
 1071TIP3    H2 3159   4.349   1.147   3.374
 1072TIP3   OH2 3160   1.716   0.088   6.328
 1072TIP3    H1 3161   1.718   0.040   6.245
 1072TIP3    H2 3162   1.623   0.090   6.353
 1073TIP3   OH2 3163   6.251   0.107   3.752
 1073TIP3    H1 3164   6.221   0.029   3.705
 1073TIP3    H2 3165   6.170   0.154   3.775
 1074TIP3   OH2 3166   7.842   1.470   1.522
 1074TIP3    H1 3167   7.776   1.408   1.492
 1074TIP3    H2 3168   7.925   1.432   1.494
 1075TIP3   OH2 3169   5.904   0.924   2.196
 1075TIP3    H1 3170   5.852   0.844   2.203
 1075TIP3    H2 3171   5.970   0.915   2.266
 1076TIP3   OH2 3172   6.484   4.761   3.953
 1076TIP3    H1 3173   6.514   4.828   3.892
 1076TIP3    H2 3174   6.546   4.690   3.944
 1077TIP3   OH2 3175   6.715   6.514   0.600
 1077TIP3    H1 3176   6.747   6.600   0.626
 1077TIP3    H2 3177   6.647   6.492   0.664
 1078TIP3   OH2 3178   5.986   5.364   0.939
 1078TIP3    H1 3179   5.940   5.366   1.022
 1078TIP3    H2 3180   6.079   5.369   0.962
 1079TIP3   OH2 3181   6.692   5.929   1.805
 1079TIP3    H1 3182   6.756   5.949   1.736
 1079TIP3    H2 3183   6.618   5.987   1.787
 1080TIP3   OH2 3184   0.129   3.937   5.685
 1080TIP3    H1 3185   0.174   3.901   5.608
 1080TIP3    H2 3186   0.188   3.920   5.758
 1081TIP3   OH2 3187   1.772   1.921   6.526
 1081TIP3    H1 3188   1.761   1.997   6.584
 1081TIP3    H2 3189   1.769   1.958   6.438
 1082TIP3   OH2 3190   4.978   4.811   0.920
 1082TIP3    H1 3191   5.044   4.880   0.924
 1082TIP3    H2 3192   4.941   4.818   0.832
 1083TIP3   OH2 3193   3.748   7.427   2.950
 1083TIP3    H1 3194   3.777   7.493   3.013
 1083TIP3    H2 3195   3.684   7.374   2.998
 1084TIP3   OH2 3196   0.071   3.479   4.393
 1084TIP3    H1 3197   0.121   3.470   4.474
 1084TIP3    H2 3198   0.118   3.425   4.329
 1085TIP3   OH2 3199   6.471   3.234   4.173
 1085TIP3    H1 3200   6.476   3.267   4.263
 1085TIP3    H2 3201   6.392   3.274   4.138
 1086TIP3   OH2 3202   2.094   1.772   3.775
 1086TIP3    H1 3203   2.184   1.800   3.760
 1086TIP3    H2 3204   2.054   1.844   3.823
 1087TIP3   OH2 3205   5.906   7.395   2.143
 1087TIP3    H1 3206   5.900   7.301   2.123
 1087TIP3    H2 3207   5.844   7.408   2.215
 1088TIP3   OH2 3208   0.290   4.290   5.387
 1088TIP3    H1 3209   0.307   4.259   5.298
 1088TIP3    H2 3210   0.369   4.266   5.436
 1089TIP3   OH2 3211   0.386   5.508   0.667
 1089TIP3    H1 3212   0.440   5.551   0.600
 1089TIP3    H2 3213   0.449   5.473   0.730
 1090TIP3   OH2 3214   4.734   3.380   2.563
 1090TIP3    H1 3215   4.678   3.307   2.588
 1090TIP3    H2 3216   4.674   3.448   2.534
 1091TIP3   OH2 3217   3.702   6.788   2.990
 1091TIP3    H1 3218   3.609   6.768   2.990
 1091TIP3    H2 3219   3.722   6.813   3.081
 1092TIP3   OH2 3220   3.346   0.209   5.032
 1092TIP3    H1 3221   3.302   0.161   5.102
 1092TIP3    H2 3222   3.310   0.173   4.951
 1093TIP3   OH2 3223   0.088   4.412   2.898
 1093TIP3    H1 3224   0.005   4.457   2.879
 1093TIP3    H2 3225   0.086   4.335   2.841
 1094TIP3   OH2 3226   4.088   7.784   5.010
 1094TIP3    H1 3227   4.169   7.811   5.053
 1094TIP3    H2 3228   4.089   7.831   4.927
 1095TIP3   OH2 3229   7.600   6.739   6.217
 1095TIP3    H1 3230   7.531   6.798   6.247
 1095TIP3    H2 3231   7.586   6.658   6.266
 1096TIP3   OH2 3232   2.765   3.146   6.554
 1096TIP3    H1 3233   2.724   3.179   6.634
 1096TIP3    H2 3234   2.691   3.116   6.500
 1097TIP3   OH2 3235   2.311   7.040   3.321
 1097TIP3    H1 3236   2.382   6.995   3.277
 1097TIP3    H2 3237   2.231   7.002   3.284
 1098TIP3   OH2 3238   7.338   5.265   4.684
 1098TIP3    H1 3239   7.331   5.252   4.779
 1098TIP3    H2 3240   7.376   5.353   4.675
 1099TIP3   OH2 3241   2.987   4.879   4.444
 1099TIP3    H1 3242   3.033   4.796   4.430
 1099TIP3    H2 3243   3.015   4.934   4.372
 1100TIP3   OH2 3244   3.278   4.516   5.394
 1100TIP3    H1 3245   3.282   4.468   5.311
 1100TIP3    H2 3246   3.242   4.601   5.372
 1101TIP3   OH2 3247   7.809   2.337   1.514
 1101TIP3    H1 3248   7.845   2.349   1.602
 1101TIP3    H2 3249   7.717   2.316   1.529
 1102TIP3   OH2 3250   0.478   6.414   5.959
 1102TIP3    H1 3251   0.455   6.504   5.936
 1102TIP3    H2 3252   0.408   6.386   6.018
 1103TIP3   OH2 3253   2.861   2.388   5.812
 1103TIP3    H1 3254   2.953   2.409   5.794
 1103TIP3    H2 3255   2.851   2.402   5.906
 1104TIP3   OH2 3256   5.645   5.832   0.727
 1104TIP3    H1 3257   5.706   5.902   0.705
 1104TIP3    H2 3258   5.634   5.838   0.822
 1105TIP3   OH2 3259   7.675   2.117   4.850
 1105TIP3    H1 3260   7.728   2.039   4.836
 1105TIP3    H2 3261   7.629   2.131   4.767
 1106TIP3   OH2 3262   5.612   2.534   0.091
 1106TIP3    H1 3263   5.609   2.440   0.070
 1106TIP3    H2 3264   5.688   2.567   0.043
 1107TIP3   OH2 3265   4.998   6.987   4.567
 1107TIP3    H1 3266   5.056   6.914   4.546
 1107TIP3    H2 3267   4.922   6.975   4.509
 1108TIP3   OH2 3268   2.113   7.161   4.035
 1108TIP3    H1 3269   2.136   7.226   3.969
 1108TIP3    H2 3270   2.192   7.107   4.043
 1109TIP3   OH2 3271   1.668   2.750   0.927
 1109TIP3    H1 3272   1.578   2.735   0.898
 1109TIP3    H2 3273   1.707   2.806   0.860
 1110TIP3   OH2 3274   2.592   1.725   1.716
 1110TIP3    H1 3275   2.589   1.794   1.649
 1110TIP3    H2 3276   2.682   1.695   1.714
 1111TIP3   OH2 3277   1.747   3.403   0.796
 1111TIP3    H1 3278   1.658   3.374   0.777
 1111TIP3    H2 3279   1.803   3.352   0.738
 1112TIP3   OH2 3280   0.500   3.225   4.274
 1112TIP3    H1 3281   0.554   3.231   4.353
 1112TIP3    H2 3282   0.499   3.132   4.252
 1113TIP3   OH2 3283   7.785   2.481   0.433
 1113TIP3    H1 3284   7.745   2.564   0.460
 1113TIP3    H2 3285   7.745   2.415   0.489
 1114TIP3   OH2 3286   3.027   4.960   1.514
 1114TIP3    H1 3287   3.114   4.935   1.483
 1114TIP3    H2 3288   3.044   5.030   1.577
 1115TIP3   OH2 3289   0.746   5.174   6.616
 1115TIP3    H1 3290   0.746   5.112   6.543
 1115TIP3    H2 3291   0.750   5.260   6.575
 1116TIP3   OH2 3292   3.594   6.565   3.932
 1116TIP3    H1 3293   3.596   6.642   3.989
 1116TIP3    H2 3294   3.521   6.513   3.963
 1117TIP3   OH2 3295   4.009   1.243   6.409
 1117TIP3    H1 3296   4.010   1.150   6.428
 1117TIP3    H2 3297   4.054   1.283   6.484
 1118TIP3   OH2 3298   0.965   5.704   5.339
 1118TIP3    H1 3299   0.959   5.637   5.271
 1118TIP3    H2 3300   1.057   5.701   5.367
 1119TIP3   OH2 3301   0.315   5.819   5.796
 1119TIP3    H1 3302   0.381   5.805   5.864
 1119TIP3    H2 3303   0.258   5.887   5.831
 1120TIP3   OH2 3304   5.473   1.021   5.774
 1120TIP3    H1 3305   5.550   0.971   5.801
 1120TIP3    H2 3306   5.495   1.112   5.795
 1121TIP3   OH2 3307   4.063   3.627   1.424
 1121TIP3    H1 3308   4.027   3.547   1.462
 1121TIP3    H2 3309   4.072   3.686   1.499
 1122TIP3   OH2 3310   6.347   7.734   5.537
 1122TIP3    H1 3311   6.312   7.816   5.572
 1122TIP3    H2 3312   6.439   7.735   5.563
 1123TIP3   OH2 3313   6.747   4.894   3.729
 1123TIP3    H1 3314   6.832   4.889   3.686
 1123TIP3    H2 3315   6.748   4.978   3.775
 1124TIP3   OH2 3316   4.798   1.403   1.193
 1124TIP3    H1 3317   4.790   1.490   1.152
 1124TIP3    H2 3318   4.805   1.421   1.287
 1125TIP3   OH2 3319   6.028   4.846   3.358
 1125TIP3    H1 3320   6.004   4.784   3.289
 1125TIP3    H2 3321   6.047   4.792   3.434
 1126TIP3   OH2 3322   3.486   5.033   2.420
 1126TIP3    H1 3323   3.556   5.088   2.457
 1126TIP3    H2 3324   3.434   5.093   2.368
 1127TIP3   OH2 3325   2.939   4.709   1.920
 1127TIP3    H1 3326   3.025   4.726   1.959
 1127TIP3    H2 3327   2.885   4.783   1.949
 1128TIP3   OH2 3328   7.399   5.999   2.626
 1128TIP3    H1 3329   7.457   5.939   2.581
 1128TIP3    H2 3330   7.427   5.996   2.717
 1129TIP3   OH2 3331   2.893   0.566   3.612
 1129TIP3    H1 3332   2.948   0.489   3.597
 1129TIP3    H2 3333   2.879   0.566   3.707
 1130TIP3   OH2 3334   6.504   7.016   2.231
 1130TIP3    H1 3335   6.541   7.103   2.217
 1130TIP3    H2 3336   6.572   6.956   2.202
 1131TIP3   OH2 3337   6.479   7.684   5.272
 1131TIP3    H1 3338   6.451   7.679   5.364
 1131TIP3    H2 3339   6.487   7.593   5.244
 1132TIP3   OH2 3340   5.142   2.123   0.317
 1132TIP3    H1 3341   5.095   2.197   0.356
 1132TIP3    H2 3342   5.198   2.090   0.387
 1133TIP3   OH2 3343   7.231   0.151   0.419
 1133TIP3    H1 3344   7.141   0.184   0.417
 1133TIP3    H2 3345   7.236   0.092   0.344
 1134TIP3   OH2 3346   1.187   3.920   6.686
 1134TIP3    H1 3347   1.092   3.910   6.701
 1134TIP3    H2 3348   1.203   4.014   6.697
 1135TIP3   OH2 3349   7.653   3.226   1.296
 1135TIP3    H1 3350   7.558   3.231   1.310
 1135TIP3    H2 3351   7.688   3.301   1.343
 1136TIP3   OH2 3352   5.262   2.873   6.657
 1136TIP3    H1 3353   5.354   2.854   6.676
 1136TIP3    H2 3354   5.228   2.792   6.618
 1137TIP3   OH2 3355   2.244   6.561   1.979
 1137TIP3    H1 3356   2.260   6.588   1.888
 1137TIP3    H2 3357   2.264   6.638   2.031
 1138TIP3   OH2 3358   1.972   3.223   6.702
 1138TIP3    H1 3359   1.903   3.157   6.708
 1138TIP3    H2 3360   1.991   3.229   6.608
 1139TIP3   OH2 3361   2.691   3.798   5.431
 1139TIP3    H1 3362   2.714   3.756   5.348
 1139TIP3    H2 3363   2.724   3.737   5.498
 1140TIP3   OH2 3364   4.222   6.945   6.207
 1140TIP3    H1 3365   4.206   6.857   6.172
 1140TIP3    H2 3366   4.307   6.970   6.170
 1141TIP3   OH2 3367   0.207   4.212   6.095
 1141TIP3    H1 3368   0.282   4.242   6.045
 1141TIP3    H2 3369   0.229   4.231   6.186
 1142TIP3   OH2 3370   5.501   7.742   6.125
 1142TIP3    H1 3371   5.458   7.817   6.168
 1142TIP3    H2 3372   5.584   7.778   6.094
 1143TIP3   OH2 3373   1.102   5.748   5.886
 1143TIP3    H1 3374   1.130   5.780   5.800
 1143TIP3    H2 3375   1.082   5.656   5.871
 1144TIP3   OH2 3376   5.581   2.677   3.386
 1144TIP3    H1 3377   5.672   2.698   3.405
 1144TIP3    H2 3378   5.580   2.657   3.292
 1145TIP3   OH2 3379   7.185   7.499   0.107
 1145TIP3    H1 3380   7.118   7.498   0.175
 1145TIP3    H2 3381   7.139   7.524   0.028
 1146TIP3   OH2 3382   1.856   4.447   5.410
 1146TIP3    H1 3383   1.822   4.367   5.371
 1146TIP3    H2 3384   1.934   4.468   5.359
 1147TIP3   OH2 3385   5.739   1.904   5.773
 1147TIP3    H1 3386   5.815   1.878   5.826
 1147TIP3    H2 3387   5.696   1.972   5.825
 1148TIP3   OH2 3388   3.375   3.883   3.278
 1148TIP3    H1 3389   3.380   3.900   3.372
 1148TIP3    H2 3390   3.378   3.970   3.237
 1149TIP3   OH2 3391   1.701   3.152   4.777
 1149TIP3    H1 3392   1.661   3.107   4.851
 1149TIP3    H2 3393   1.755   3.220   4.817
 1150TIP3   OH2 3394   0.969   6.102   4.671
 1150TIP3    H1 3395   0.948   6.014   4.704
 1150TIP3    H2 3396   0.918   6.110   4.591
 1151TIP3   OH2 3397   5.038   0.684   5.726
 1151TIP3    H1 3398   5.095   0.641   5.790
 1151TIP3    H2 3399   5.002   0.759   5.772
 1152TIP3   OH2 3400   1.317   1.944   2.776
 1152TIP3    H1 3401   1.243   1.891   2.807
 1152TIP3    H2 3402   1.394   1.902   2.813
 1153TIP3   OH2 3403   6.625   7.085   5.232
 1153TIP3    H1 3404   6.649   7.140   5.158
 1153TIP3    H2 3405   6.646   7.138   5.309
 1154TIP3   OH2 3406   5.968   2.149   4.286
 1154TIP3    H1 3407   6.035   2.100   4.334
 1154TIP3    H2 3408   5.939   2.090   4.217
 1155TIP3   OH2 3409   1.055   6.860   6.435
 1155TIP3    H1 3410   1.002   6.875   6.357
 1155TIP3    H2 3411   0.994   6.873   6.508
 1156TIP3   OH2 3412   0.606   2.123   1.831
 1156TIP3    H1 3413   0.567   2.037   1.813
 1156TIP3    H2 3414   0.700   2.108   1.825
 1157TIP3   OH2 3415   1.695   3.803   0.935
 1157TIP3    H1 3416   1.748   3.874   0.972
 1157TIP3    H2 3417   1.758   3.737   0.909
 1158TIP3   OH2 3418   5.212   1.072   4.034
 1158TIP3    H1 3419   5.165   1.005   4.083
 1158TIP3    H2 3420   5.143   1.124   3.994
 1159TIP3   OH2 3421   6.673   7.306   3.625
 1159TIP3    H1 3422   6.732   7.381   3.626
 1159TIP3    H2 3423   6.685   7.267   3.539
 1160TIP3   OH2 3424   3.966   0.606   1.748
 1160TIP3    H1 3425   4.061   0.598   1.748
 1160TIP3    H2 3426   3.947   0.672   1.682
 1161TIP3   OH2 3427   0.531   2.206   2.068
 1161TIP3    H1 3428   0.578   2.162   2.139
 1161TIP3    H2 3429   0.558   2.160   1.989
 1162TIP3   OH2 3430   0.041   3.729   6.634
 1162TIP3    H1 3431   0.032   3.805   6.577
 1162TIP3    H2 3432   0.074   3.765   6.716
 1163TIP3   OH2 3433   2.290   4.939   0.919
 1163TIP3    H1 3434   2.353   4.915   0.986
 1163TIP3    H2 3435   2.262   4.856   0.881
 1164TIP3   OH2 3436   5.438   7.854   0.120
 1164TIP3    H1 3437   5.532   7.836   0.116
 1164TIP3    H2 3438   5.398   7.769   0.141
 1165TIP3   OH2 3439   3.276   2.384   4.646
 1165TIP3    H1 3440   3.305   2.362   4.557
 1165TIP3    H2 3441   3.184   2.358   4.648
 1166TIP3   OH2 3442   4.592   2.515   4.581
 1166TIP3    H1 3443   4.516   2.500   4.637
 1166TIP3    H2 3444   4.662   2.463   4.622
 1167TIP3   OH2 3445   6.125   0.935   2.373
 1167TIP3    H1 3446   6.137   0.977   2.458
 1167TIP3    H2 3447   6.208   0.892   2.355
 1168TIP3   OH2 3448   1.918   6.924   2.584
 1168TIP3    H1 3449   1.916   6.997   2.646
 1168TIP3    H2 3450   2.009   6.893   2.587
 1169TIP3   OH2 3451   7.330   5.178   3.624
 1169TIP3    H1 3452   7.369   5.118   3.687
 1169TIP3    H2 3453   7.365   5.263   3.646
 1170TIP3   OH2 3454   2.076   7.435   6.314
 1170TIP3    H1 3455   2.115   7.384   6.243
 1170TIP3    H2 3456   2.148   7.449   6.376
 1171TIP3   OH2 3457   3.246   7.198   2.544
 1171TIP3    H1 3458   3.230   7.169   2.634
 1171TIP3    H2 3459   3.335   7.168   2.524
 1172TIP3   OH2 3460   6.164   0.679   2.693
 1172TIP3    H1 3461   6.154   0.638   2.779
 1172TIP3    H2 3462   6.138   0.612   2.630
 1173TIP3   OH2 3463   7.165   3.095   5.801
 1173TIP3    H1 3464   7.217   3.016   5.817
 1173TIP3    H2 3465   7.124   3.114   5.886
 1174TIP3   OH2 3466   6.077   5.513   2.006
 1174TIP3    H1 3467   6.015   5.440   2.005
 1174TIP3    H2 3468   6.026   5.589   1.977
 1175TIP3   OH2 3469   7.090   0.164   1.511
 1175TIP3    H1 3470   7.130   0.247   1.483
 1175TIP3    H2 3471   7.162   0.102   1.512
 1176TIP3   OH2 3472   2.807   0.648   2.320
 1176TIP3    H1 3473   2.805   0.629   2.226
 1176TIP3    H2 3474   2.770   0.736   2.327
 1177TIP3   OH2 3475   6.095   1.962   0.138
 1177TIP3    H1 3476   6.041   1.934   0.065
 1177TIP3    H2 3477   6.182   1.977   0.100
 1178TIP3   OH2 3478   2.081   1.512   3.714
 1178TIP3    H1 3479   2.089   1.602   3.745
 1178TIP3    H2 3480   2.045   1.520   3.625
 1179TIP3   OH2 3481   7.251   7.521   0.926
 1179TIP3    H1 3482   7.240   7.544   0.834
 1179TIP3    H2 3483   7.211   7.435   0.935
 1180TIP3   OH2 3484   0.056   6.230   3.045
 1180TIP3    H1 3485   0.113   6.154   3.038
 1180TIP3    H2 3486   0.013   6.219   3.130
 1181TIP3   OH2 3487   6.004   4.217   6.604
 1181TIP3    H1 3488   5.981   4.150   6.669
 1181TIP3    H2 3489   6.032   4.292   6.657
 1182TIP3   OH2 3490   4.496   5.744   3.319
 1182TIP3    H1 3491   4.440   5.818   3.294
 1182TIP3    H2 3492   4.435   5.670   3.327
 1183TIP3   OH2 3493   7.943   3.507   0.788
 1183TIP3    H1 3494   8.015   3.447   0.806
 1183TIP3    H2 3495   7.873   3.479   0.847
 1184TIP3   OH2 3496   0.616   7.542   2.676
 1184TIP3    H1 3497   0.615   7.620   2.621
 1184TIP3    H2 3498   0.699   7.545   2.722
 1185TIP3   OH2 3499   3.752   2.478   4.943
 1185TIP3    H1 3500   3.846   2.463   4.955
 1185TIP3    H2 3501   3.712   2.441   5.022
 1186TIP3   OH2 3502   7.884   6.103   1.456
 1186TIP3    H1 3503   7.949   6.082   1.524
 1186TIP3    H2 3504   7.870   6.197   1.466
 1187TIP3   OH2 3505   5.002   6.548   3.929
 1187TIP3    H1 3506   5.066   6.503   3.983
 1187TIP3    H2 3507   4.975   6.482   3.864
 1188TIP3   OH2 3508   3.223   3.296   3.131
 1188TIP3    H1 3509   3.202   3.211   3.168
 1188TIP3    H2 3510   3.167   3.357   3.178
 1189TIP3   OH2 3511   4.373   1.951   5.823
 1189TIP3    H1 3512   4.307   1.980   5.761
 1189TIP3    H2 3513   4.408   1.871   5.785
 1190TIP3   OH2 3514   7.755   5.006   3.359
 1190TIP3    H1 3515   7.660   4.997   3.350
 1190TIP3    H2 3516   7.770   5.000   3.453
 1191TIP3   OH2 3517   4.363   6.263   0.256
 1191TIP3    H1 3518   4.440   6.206   0.257
 1191TIP3    H2 3519   4.363   6.302   0.168
 1192TIP3   OH2 3520   4.439   4.948   5.186
 1192TIP3    H1 3521   4.468   4.858   5.201
 1192TIP3    H2 3522   4.345   4.941   5.167
 1193TIP3   OH2 3523   4.043   5.244   3.869
 1193TIP3    H1 3524   4.115   5.273   3.814
 1193TIP3    H2 3525   4.084   5.217   3.951
 1194TIP3   OH2 3526   2.516   4.790   4.574
 1194TIP3    H1 3527   2.441   4.745   4.612
 1194TIP3    H2 3528   2.591   4.757   4.623
 1195TIP3   OH2 3529   1.048   0.029   1.048
 1195TIP3    H1 3530   0.968   0.082   1.052
 1195TIP3    H2 3531   1.016  -0.061   1.041
 1196TIP3   OH2 3532   0.738   1.245   2.836
 1196TIP3    H1 3533   0.796   1.321   2.843
 1196TIP3    H2 3534   0.782   1.176   2.887
 1197TIP3   OH2 3535   0.591   4.109   5.879
 1197TIP3    H1 3536   0.535   4.066   5.943
 1197TIP3    H2 3537   0.672   4.057   5.879
 1198TIP3   OH2 3538   1.939   3.350   4.798
 1198TIP3    H1 3539   1.933   3.372   4.705
 1198TIP3    H2 3540   1.978   3.428   4.838
 1199TIP3   OH2 3541   1.444   3.980   0.843
 1199TIP3    H1 3542   1.538   3.997   0.836
 1199TIP3    H2 3543   1.422   3.932   0.764
 1200TIP3   OH2 3544   8.154   1.631   3.574
 1200TIP3    H1 3545   8.181   1.572   3.644
 1200TIP3    H2 3546   8.223   1.622   3.508
 1201TIP3   OH2 3547   1.746   6.375   1.148
 1201TIP3    H1 3548   1.793   6.292   1.153
 1201TIP3    H2 3549   1.772   6.413   1.064
 1202TIP3   OH2 3550   7.471   3.058   0.948
 1202TIP3    H1 3551   7.556   3.064   0.991
 1202TIP3    H2 3552   7.465   2.967   0.919
 1203TIP3   OH2 3553   2.706   6.724   2.341
 1203TIP3    H1 3554   2.796   6.754   2.345
 1203TIP3    H2 3555   2.673   6.734   2.431
 1204TIP3   OH2 3556   2.120   5.269   3.136
 1204TIP3    H1 3557   2.187   5.333   3.113
 1204TIP3    H2 3558   2.166   5.207   3.194
 1205TIP3   OH2 3559   2.972   6.459   5.047
 1205TIP3    H1 3560   3.052   6.419   5.013
 1205TIP3    H2 3561   2.941   6.397   5.114
 1206TIP3   OH2 3562   1.037   7.040   0.178
 1206TIP3    H1 3563   1.085   7.047   0.095
 1206TIP3    H2 3564   0.966   7.103   0.169
 1207TIP3   OH2 3565   1.520   3.412   1.953
 1207TIP3    H1 3566   1.484   3.449   1.872
 1207TIP3    H2 3567   1.542   3.489   2.005
 1208TIP3   OH2 3568   7.831   4.888   0.309
 1208TIP3    H1 3569   7.854   4.822   0.375
 1208TIP3    H2 3570   7.901   4.953   0.315
 1209TIP3   OH2 3571   2.775   5.421   6.302
 1209TIP3    H1 3572   2.814   5.509   6.301
 1209TIP3    H2 3573   2.720   5.419   6.224
 1210TIP3   OH2 3574   8.192   4.677   1.580
 1210TIP3    H1 3575   8.148   4.651   1.661
 1210TIP3    H2 3576   8.187   4.772   1.579
 1211TIP3   OH2 3577   0.809   5.275   1.295
 1211TIP3    H1 3578   0.757   5.328   1.355
 1211TIP3    H2 3579   0.885   5.329   1.274
 1212TIP3   OH2 3580   2.668   0.566   1.077
 1212TIP3    H1 3581   2.579   0.532   1.066
 1212TIP3    H2 3582   2.659   0.637   1.140
 1213TIP3   OH2 3583   3.104   1.429   1.819
 1213TIP3    H1 3584   3.121   1.336   1.807
 1213TIP3    H2 3585   3.071   1.436   1.908
 1214TIP3   OH2 3586   3.101   1.060   1.405
 1214TIP3    H1 3587   3.138   0.995   1.464
 1214TIP3    H2 3588   3.082   1.012   1.325
 1215TIP3   OH2 3589   6.054   4.240   0.966
 1215TIP3    H1 3590   5.977   4.237   0.909
 1215TIP3    H2 3591   6.076   4.334   0.971
 1216TIP3   OH2 3592   8.004   7.184   4.355
 1216TIP3    H1 3593   8.037   7.100   4.323
 1216TIP3    H2 3594   8.000   7.174   4.450
 1217TIP3   OH2 3595   6.729   1.926   3.620
 1217TIP3    H1 3596   6.670   1.998   3.597
 1217TIP3    H2 3597   6.805   1.969   3.658
 1218TIP3   OH2 3598   7.741   5.261   0.224
 1218TIP3    H1 3599   7.778   5.297   0.143
 1218TIP3    H2 3600   7.705   5.176   0.198
 1219TIP3   OH2 3601   1.899   6.087   0.952
 1219TIP3    H1 3602   1.992   6.107   0.964
 1219TIP3    H2 3603   1.883   6.103   0.859
 1220TIP3   OH2 3604   5.643   6.117   5.924
 1220TIP3    H1 3605   5.678   6.081   5.842
 1220TIP3    H2 3606   5.678   6.206   5.928
 1221TIP3   OH2 3607   0.054   6.886   0.872
 1221TIP3    H1 3608   0.082   6.972   0.903
 1221TIP3    H2 3609   0.050   6.895   0.776
 1222TIP3   OH2 3610   0.042   5.701   0.112
 1222TIP3    H1 3611   0.028   5.751   0.031
 1222TIP3    H2 3612   0.034   5.766   0.182
 1223TIP3   OH2 3613   2.572   6.067   1.800
 1223TIP3    H1 3614   2.620   6.015   1.865
 1223TIP3    H2 3615   2.516   6.124   1.852
 1224TIP3   OH2 3616   6.597   1.539   0.954
 1224TIP3    H1 3617   6.521   1.550   0.897
 1224TIP3    H2 3618   6.633   1.454   0.930
 1225TIP3   OH2 3619   0.839   2.058   2.071
 1225TIP3    H1 3620   0.843   2.056   1.976
 1225TIP3    H2 3621   0.923   2.095   2.098
 1226TIP3   OH2 3622   0.493   0.991   4.076
 1226TIP3    H1 3623   0.583   0.959   4.079
 1226TIP3    H2 3624   0.481   1.024   3.987
 1227TIP3   OH2 3625   6.214   5.615   3.784
 1227TIP3    H1 3626   6.233   5.597   3.692
 1227TIP3    H2 3627   6.118   5.613   3.790
 1228TIP3   OH2 3628   2.735   1.931   0.909
 1228TIP3    H1 3629   2.680   1.909   0.834
 1228TIP3    H2 3630   2.688   1.895   0.985
 1229TIP3   OH2 3631   1.896   6.429   2.332
 1229TIP3    H1 3632   1.838   6.457   2.262
 1229TIP3    H2 3633   1.882   6.334   2.338
 1230TIP3   OH2 3634   3.859   6.780   6.627
 1230TIP3    H1 3635   3.945   6.817   6.647
 1230TIP3    H2 3636   3.868   6.687   6.648
 1231TIP3   OH2 3637   7.956   4.221   6.212
 1231TIP3    H1 3638   7.879   4.275   6.231
 1231TIP3    H2 3639   7.966   4.225   6.117
 1232TIP3   OH2 3640   1.446   2.494   1.341
 1232TIP3    H1 3641   1.420   2.490   1.433
 1232TIP3    H2 3642   1.542   2.502   1.343
 1233TIP3   OH2 3643   2.279   5.530   3.057
 1233TIP3    H1 3644   2.226   5.594   3.010
 1233TIP3    H2 3645   2.351   5.580   3.094
 1234TIP3   OH2 3646   0.785   0.914   2.258
 1234TIP3    H1 3647   0.779   0.977   2.187
 1234TIP3    H2 3648   0.751   0.960   2.335
 1235TIP3   OH2 3649   5.293   3.984   5.250
 1235TIP3    H1 3650   5.353   3.947   5.185
 1235TIP3    H2 3651   5.351   4.022   5.316
 1236TIP3   OH2 3652   2.747   3.282   1.614
 1236TIP3    H1 3653   2.820   3.245   1.564
 1236TIP3    H2 3654   2.784   3.299   1.701
 1237TIP3   OH2 3655   1.564   0.905   0.979
 1237TIP3    H1 3656   1.566   0.860   0.894
 1237TIP3    H2 3657   1.584   0.996   0.958
 1238TIP3   OH2 3658   1.661   0.838   0.690
 1238TIP3    H1 3659   1.603   0.842   0.614
 1238TIP3    H2 3660   1.749   0.832   0.653
 1239TIP3   OH2 3661   6.332   4.089   3.197
 1239TIP3    H1 3662   6.357   4.066   3.107
 1239TIP3    H2 3663   6.412   4.079   3.248
 1240TIP3   OH2 3664   1.603   6.256   2.876
 1240TIP3    H1 3665   1.656   6.278   2.799
 1240TIP3    H2 3666   1.623   6.164   2.893
 1241TIP3   OH2 3667   7.776   6.746   3.648
 1241TIP3    H1 3668   7.867   6.715   3.658
 1241TIP3    H2 3669   7.723   6.678   3.690
 1242TIP3   OH2 3670   6.902   5.090   4.439
 1242TIP3    H1 3671   6.905   5.038   4.520
 1242TIP3    H2 3672   6.958   5.165   4.457
 1243TIP3   OH2 3673   0.086   0.682   2.031
 1243TIP3    H1 3674   0.164   0.648   2.076
 1243TIP3    H2 3675   0.032   0.715   2.102
 1244TIP3   OH2 3676   1.900   1.943   1.445
 1244TIP3    H1 3677   1.975   1.995   1.474
 1244TIP3    H2 3678   1.847   2.004   1.394
 1245TIP3   OH2 3679   6.625   0.698   5.014
 1245TIP3    H1 3680   6.640   0.708   4.920
 1245TIP3    H2 3681   6.534   0.669   5.021
 1246TIP3   OH2 3682   2.165   1.503   2.330
 1246TIP3    H1 3683   2.192   1.514   2.422
 1246TIP3    H2 3684   2.175   1.590   2.292
 1247TIP3   OH2 3685   7.636   0.242   2.996
 1247TIP3    H1 3686   7.592   0.164   2.962
 1247TIP3    H2 3687   7.662   0.291   2.918
 1248TIP3   OH2 3688   5.142   3.624   1.620
 1248TIP3    H1 3689   5.114   3.537   1.651
 1248TIP3    H2 3690   5.192   3.606   1.541
 1249TIP3   OH2 3691   1.121   0.230   4.762
 1249TIP3    H1 3692   1.097   0.149   4.807
 1249TIP3    H2 3693   1.113   0.298   4.829
 1250TIP3   OH2 3694   3.322   0.396   4.460
 1250TIP3    H1 3695   3.236   0.371   4.427
 1250TIP3    H2 3696   3.322   0.371   4.552
 1251TIP3   OH2 3697   4.790   0.194   1.224
 1251TIP3    H1 3698   4.856   0.169   1.289
 1251TIP3    H2 3699   4.750   0.273   1.260
 1252TIP3   OH2 3700   2.253   6.757   4.844
 1252TIP3    H1 3701   2.274   6.664   4.831
 1252TIP3    H2 3702   2.312   6.785   4.914
 1253TIP3   OH2 3703   1.592   1.576   1.662
 1253TIP3    H1 3704   1.540   1.622   1.729
 1253TIP3    H2 3705   1.658   1.640   1.635
 1254TIP3   OH2 3706   3.668   0.449   4.043
 1254TIP3    H1 3707   3.625   0.438   3.958
 1254TIP3    H2 3708   3.602   0.425   4.107
 1255TIP3   OH2 3709   1.779   7.501   6.569
 1255TIP3    H1 3710   1.690   7.473   6.591
 1255TIP3    H2 3711   1.831   7.475   6.645
 1256TIP3   OH2 3712   2.267   6.156   2.637
 1256TIP3    H1 3713   2.326   6.085   2.615
 1256TIP3    H2 3714   2.257   6.206   2.555
 1257TIP3   OH2 3715   6.298   0.152   5.677
 1257TIP3    H1 3716   6.260   0.228   5.633
 1257TIP3    H2 3717   6.301   0.085   5.610
 1258TIP3   OH2 3718   2.333   3.636   0.580
 1258TIP3    H1 3719   2.336   3.724   0.541
 1258TIP3    H2 3720   2.348   3.651   0.673
 1259TIP3   OH2 3721   5.018   3.732   5.870
 1259TIP3    H1 3722   4.953   3.669   5.902
 1259TIP3    H2 3723   5.000   3.741   5.777
 1260TIP3   OH2 3724   3.017   5.049   0.369
 1260TIP3    H1 3725   3.052   4.971   0.325
 1260TIP3    H2 3726   2.947   5.079   0.310
 1261TIP3   OH2 3727   1.260   0.754   5.324
 1261TIP3    H1 3728   1.328   0.789   5.267
 1261TIP3    H2 3729   1.179   0.763   5.273
 1262TIP3   OH2 3730   1.600   2.496   0.304
 1262TIP3    H1 3731   1.588   2.590   0.290
 1262TIP3    H2 3732   1.552   2.477   0.385
 1263TIP3   OH2 3733   5.588   4.689   4.696
 1263TIP3    H1 3734   5.510   4.736   4.667
 1263TIP3    H2 3735   5.660   4.750   4.681
 1264TIP3   OH2 3736   8.313   0.185   5.240
 1264TIP3    H1 3737   8.319   0.276   5.209
 1264TIP3    H2 3738   8.308   0.192   5.335
 1265TIP3   OH2 3739   6.443   4.983   1.168
 1265TIP3    H1 3740   6.493   4.962   1.247
 1265TIP3    H2 3741   6.375   5.043   1.198
 1266TIP3   OH2 3742   0.760   5.786   5.019
 1266TIP3    H1 3743   0.803   5.703   4.996
 1266TIP3    H2 3744   0.669   5.762   5.034
 1267TIP3   OH2 3745   2.045   1.321   2.595
 1267TIP3    H1 3746   2.072   1.268   2.670
 1267TIP3    H2 3747   2.115   1.385   2.584
 1268TIP3   OH2 3748   5.135   5.597   1.892
 1268TIP3    H1 3749   5.128   5.563   1.803
 1268TIP3    H2 3750   5.112   5.522   1.948
 1269TIP3   OH2 3751   2.934   7.168   4.801
 1269TIP3    H1 3752   2.926   7.260   4.776
 1269TIP3    H2 3753   2.894   7.119   4.728
 1270TIP3   OH2 3754   2.506   5.435   4.180
 1270TIP3    H1 3755   2.513   5.351   4.225
 1270TIP3    H2 3756   2.534   5.500   4.245
 1271TIP3   OH2 3757   7.663   4.273   0.098
 1271TIP3    H1 3758   7.672   4.253   0.005
 1271TIP3    H2 3759   7.622   4.195   0.136
 1272TIP3   OH2 3760   7.275   0.413   6.416
 1272TIP3    H1 3761   7.214   0.438   6.485
 1272TIP3    H2 3762   7.355   0.461   6.434
 1273TIP3   OH2 3763   1.241   7.053   1.836
 1273TIP3    H1 3764   1.156   7.073   1.875
 1273TIP3    H2 3765   1.224   7.048   1.742
 1274TIP3   OH2 3766   3.771   1.994   0.723
 1274TIP3    H1 3767   3.826   1.920   0.699
 1274TIP3    H2 3768   3.682   1.959   0.723
 1275TIP3   OH2 3769   2.356   2.962   2.227
 1275TIP3    H1 3770   2.415   3.013   2.171
 1275TIP3    H2 3771   2.271   3.006   2.219
 1276TIP3   OH2 3772   6.469   2.345   1.647
 1276TIP3    H1 3773   6.385   2.301   1.637
 1276TIP3    H2 3774   6.447   2.435   1.669
 1277TIP3   OH2 3775   3.521   7.743   4.486
 1277TIP3    H1 3776   3.462   7.674   4.517
 1277TIP3    H2 3777   3.491   7.761   4.397
 1278TIP3   OH2 3778   7.734   2.010   1.491
 1278TIP3    H1 3779   7.726   1.922   1.454
 1278TIP3    H2 3780   7.815   2.044   1.455
 1279TIP3   OH2 3781   6.614   5.061   4.489
 1279TIP3    H1 3782   6.570   5.053   4.404
 1279TIP3    H2 3783   6.707   5.071   4.467
 1280TIP3   OH2 3784   4.152   4.819   3.881
 1280TIP3    H1 3785   4.195   4.750   3.829
 1280TIP3    H2 3786   4.087   4.856   3.821
 1281TIP3   OH2 3787   2.250   0.723   0.886
 1281TIP3    H1 3788   2.210   0.762   0.807
 1281TIP3    H2 3789   2.220   0.632   0.885
 1282TIP3   OH2 3790   0.535   5.191   3.027
 1282TIP3    H1 3791   0.595   5.118   3.037
 1282TIP3    H2 3792   0.532   5.233   3.113
 1283TIP3   OH2 3793   4.685   2.176   6.645
 1283TIP3    H1 3794   4.739   2.190   6.568
 1283TIP3    H2 3795   4.637   2.258   6.657
 1284TIP3   OH2 3796   7.041   1.643   4.058
 1284TIP3    H1 3797   7.131   1.612   4.060
 1284TIP3    H2 3798   6.992   1.577   4.107
 1285TIP3   OH2 3799   5.615   2.463   0.793
 1285TIP3    H1 3800   5.693   2.437   0.744
 1285TIP3    H2 3801   5.572   2.380   0.815
 1286TIP3   OH2 3802   7.514   7.736   4.955
 1286TIP3    H1 3803   7.551   7.722   5.042
 1286TIP3    H2 3804   7.424   7.763   4.971
 1287TIP3   OH2 3805   6.317   2.093   2.650
 1287TIP3    H1 3806   6.353   2.164   2.703
 1287TIP3    H2 3807   6.235   2.128   2.616
 1288TIP3   OH2 3808   1.955   5.154   0.122
 1288TIP3    H1 3809   1.983   5.160   0.213
 1288TIP3    H2 3810   2.031   5.183   0.071
 1289TIP3   OH2 3811   0.509   2.188   0.192
 1289TIP3    H1 3812   0.431   2.240   0.211
 1289TIP3    H2 3813   0.567   2.205   0.266
 1290TIP3   OH2 3814   7.660   4.845   0.818
 1290TIP3    H1 3815   7.654   4.935   0.787
 1290TIP3    H2 3816   7.754   4.825   0.817
 1291TIP3   OH2 3817   6.860   0.220   4.847
 1291TIP3    H1 3818   6.937   0.275   4.838
 1291TIP3    H2 3819   6.803   0.268   4.907
 1292TIP3   OH2 3820   3.444   4.259   1.379
 1292TIP3    H1 3821   3.377   4.210   1.427
 1292TIP3    H2 3822   3.520   4.257   1.436
 1293TIP3   OH2 3823   4.155   1.711   2.758
 1293TIP3    H1 3824   4.125   1.642   2.699
 1293TIP3    H2 3825   4.251   1.709   2.750
 1294TIP3   OH2 3826   1.770   1.867   4.474
 1294TIP3    H1 3827   1.795   1.777   4.494
 1294TIP3    H2 3828   1.699   1.887   4.535
 1295TIP3   OH2 3829   3.125   3.794  -0.004
 1295TIP3    H1 3830   3.089   3.715   0.037
 1295TIP3    H2 3831   3.090   3.866   0.048
 1296TIP3   OH2 3832   4.282   5.975   6.483
 1296TIP3    H1 3833   4.244   5.905   6.537
 1296TIP3    H2 3834   4.328   5.928   6.413
 1297TIP3   OH2 3835   0.355   2.839   0.855
 1297TIP3    H1 3836   0.358   2.931   0.880
 1297TIP3    H2 3837   0.434   2.801   0.894
 1298TIP3   OH2 3838   0.938   5.741   3.422
 1298TIP3    H1 3839   0.862   5.684   3.410
 1298TIP3    H2 3840   0.901   5.827   3.440
 1299TIP3   OH2 3841   7.252   3.869   5.349
 1299TIP3    H1 3842   7.299   3.937   5.302
 1299TIP3    H2 3843   7.197   3.827   5.282
 1300TIP3   OH2 3844   3.488   6.969   1.663
 1300TIP3    H1 3845   3.563   6.912   1.679
 1300TIP3    H2 3846   3.451   6.985   1.750
 1301TIP3   OH2 3847   7.432   5.583   2.273
 1301TIP3    H1 3848   7.384   5.561   2.353
 1301TIP3    H2 3849   7.492   5.509   2.260
 1302TIP3   OH2 3850   4.326   3.262   4.293
 1302TIP3    H1 3851   4.401   3.229   4.342
 1302TIP3    H2 3852   4.301   3.188   4.236
 1303TIP3   OH2 3853   1.037   0.306   1.487
 1303TIP3    H1 3854   1.056   0.394   1.453
 1303TIP3    H2 3855   1.106   0.291   1.552
 1304TIP3   OH2 3856   8.137   6.363   3.553
 1304TIP3    H1 3857   8.175   6.283   3.515
 1304TIP3    H2 3858   8.180   6.434   3.506
 1305TIP3   OH2 3859   7.174   4.115   1.710
 1305TIP3    H1 3860   7.203   4.056   1.779
 1305TIP3    H2 3861   7.146   4.194   1.757
 1306TIP3   OH2 3862   6.090   3.230   4.923
 1306TIP3    H1 3863   5.998   3.255   4.934
 1306TIP3    H2 3864   6.121   3.282   4.849
 1307TIP3   OH2 3865   7.059   2.155   5.636
 1307TIP3    H1 3866   7.101   2.158   5.550
 1307TIP3    H2 3867   6.965   2.155   5.617
 1308TIP3   OH2 3868   5.696   4.767   3.575
 1308TIP3    H1 3869   5.714   4.844   3.629
 1308TIP3    H2 3870   5.602   4.752   3.584
 1309TIP3   OH2 3871   3.601   7.501   6.736
 1309TIP3    H1 3872   3.677   7.443   6.737
 1309TIP3    H2 3873   3.627   7.574   6.680
 1310TIP3   OH2 3874   2.155   1.576   1.980
 1310TIP3    H1 3875   2.212   1.505   1.954
 1310TIP3    H2 3876   2.115   1.546   2.062
 1311TIP3   OH2 3877   5.026   0.434   0.354
 1311TIP3    H1 3878   5.054   0.353   0.396
 1311TIP3    H2 3879   5.026   0.499   0.425
 1312TIP3   OH2 3880   1.020   7.744   2.307
 1312TIP3    H1 3881   0.990   7.700   2.386
 1312TIP3    H2 3882   1.003   7.837   2.323
 1313TIP3   OH2 3883   6.561   7.764   4.828
 1313TIP3    H1 3884   6.533   7.720   4.748
 1313TIP3    H2 3885   6.656   7.756   4.829
 1314TIP3   OH2 3886   4.155   1.947   5.330
 1314TIP3    H1 3887   4.228   1.911   5.279
 1314TIP3    H2 3888   4.196   2.006   5.393
 1315TIP3   OH2 3889   5.377   0.809   5.058
 1315TIP3    H1 3890   5.382   0.795   5.153
 1315TIP3    H2 3891   5.343   0.898   5.049
 1316TIP3   OH2 3892   6.971   7.214   1.405
 1316TIP3    H1 3893   7.046   7.168   1.442
 1316TIP3    H2 3894   7.005   7.253   1.324
 1317TIP3   OH2 3895   6.485   4.188   5.795
 1317TIP3    H1 3896   6.427   4.253   5.756
 1317TIP3    H2 3897   6.501   4.220   5.884
 1318TIP3   OH2 3898   2.911   5.218   2.332
 1318TIP3    H1 3899   2.893   5.285   2.398
 1318TIP3    H2 3900   2.831   5.166   2.328
 1319TIP3   OH2 3901   6.657   4.969   4.901
 1319TIP3    H1 3902   6.644   5.062   4.880
 1319TIP3    H2 3903   6.570   4.931   4.892
 1320TIP3   OH2 3904   0.142   5.646   1.026
 1320TIP3    H1 3905   0.092   5.565   1.025
 1320TIP3    H2 3906   0.232   5.618   1.045
 1321TIP3   OH2 3907   2.964   6.219   4.828
 1321TIP3    H1 3908   2.869   6.221   4.837
 1321TIP3    H2 3909   2.986   6.306   4.793
 1322TIP3   OH2 3910   5.963   0.486   3.533
 1322TIP3    H1 3911   6.043   0.503   3.582
 1322TIP3    H2 3912   5.904   0.445   3.597
 1323TIP3   OH2 3913   0.606   5.355   2.787
 1323TIP3    H1 3914   0.572   5.281   2.736
 1323TIP3    H2 3915   0.598   5.326   2.878
 1324TIP3   OH2 3916   2.977   2.842   5.500
 1324TIP3    H1 3917   2.906   2.785   5.527
 1324TIP3    H2 3918   2.960   2.925   5.544
 1325TIP3   OH2 3919   1.584   2.683   4.917
 1325TIP3    H1 3920   1.592   2.743   4.843
 1325TIP3    H2 3921   1.516   2.621   4.891
 1326TIP3   OH2 3922   8.269   3.150   2.620
 1326TIP3    H1 3923   8.226   3.067   2.597
 1326TIP3    H2 3924   8.198   3.204   2.655
 1327TIP3   OH2 3925   5.869   2.572   5.031
 1327TIP3    H1 3926   5.879   2.479   5.013
 1327TIP3    H2 3927   5.791   2.598   4.982
 1328TIP3   OH2 3928   7.508   1.518   3.883
 1328TIP3    H1 3929   7.592   1.515   3.928
 1328TIP3    H2 3930   7.518   1.456   3.810
 1329TIP3   OH2 3931   3.511   6.340   4.707
 1329TIP3    H1 3932   3.463   6.265   4.744
 1329TIP3    H2 3933   3.566   6.371   4.779
 1330TIP3   OH2 3934   0.681   7.407   2.394
 1330TIP3    H1 3935   0.601   7.460   2.387
 1330TIP3    H2 3936   0.649   7.317   2.402
 1331TIP3   OH2 3937   5.493   6.370   2.991
 1331TIP3    H1 3938   5.523   6.449   3.036
 1331TIP3    H2 3939   5.531   6.376   2.903
 1332TIP3   OH2 3940   2.202   0.265   0.547
 1332TIP3    H1 3941   2.230   0.271   0.456
 1332TIP3    H2 3942   2.117   0.308   0.548
 1333TIP3   OH2 3943   6.940   4.606   5.524
 1333TIP3    H1 3944   6.874   4.545   5.491
 1333TIP3    H2 3945   6.920   4.689   5.481
 1334TIP3   OH2 3946   5.335   3.640   5.155
 1334TIP3    H1 3947   5.241   3.653   5.151
 1334TIP3    H2 3948   5.345   3.552   5.191
 1335TIP3   OH2 3949   2.384   2.666   2.566
 1335TIP3    H1 3950   2.302   2.712   2.583
 1335TIP3    H2 3951   2.443   2.695   2.635
 1336TIP3   OH2 3952   3.359   5.768   4.895
 1336TIP3    H1 3953   3.402   5.792   4.812
 1336TIP3    H2 3954   3.385   5.836   4.956
 1337TIP3   OH2 3955   7.340   5.205   6.148
 1337TIP3    H1 3956   7.266   5.165   6.102
 1337TIP3    H2 3957   7.414   5.148   6.129
 1338TIP3   OH2 3958   2.931   3.914   5.512
 1338TIP3    H1 3959   2.844   3.903   5.473
 1338TIP3    H2 3960   2.986   3.852   5.465
 1339TIP3   OH2 3961   7.897   4.952   6.626
 1339TIP3    H1 3962   7.931   4.891   6.691
 1339TIP3    H2 3963   7.976   4.993   6.590
 1340TIP3   OH2 3964   5.441   7.384   0.510
 1340TIP3    H1 3965   5.423   7.427   0.426
 1340TIP3    H2 3966   5.390   7.435   0.573
 1341TIP3   OH2 3967   7.068   5.081   5.692
 1341TIP3    H1 3968   7.037   5.002   5.648
 1341TIP3    H2 3969   7.162   5.070   5.700
 1342TIP3   OH2 3970   5.197   0.364   0.809
 1342TIP3    H1 3971   5.113   0.380   0.766
 1342TIP3    H2 3972   5.247   0.444   0.793
 1343TIP3   OH2 3973   6.534   5.287   3.779
 1343TIP3    H1 3974   6.546   5.228   3.853
 1343TIP3    H2 3975   6.473   5.242   3.721
 1344TIP3   OH2 3976   3.298   5.151   2.273
 1344TIP3    H1 3977   3.338   5.143   2.186
 1344TIP3    H2 3978   3.234   5.079   2.276
 1345TIP3   OH2 3979   3.522   3.571   4.666
 1345TIP3    H1 3980   3.431   3.601   4.656
 1345TIP3    H2 3981   3.550   3.610   4.749
 1346TIP3   OH2 3982   7.769   4.320   2.942
 1346TIP3    H1 3983   7.754   4.276   3.026
 1346TIP3    H2 3984   7.858   4.355   2.949
 1347TIP3   OH2 3985   5.296   3.782   5.837
 1347TIP3    H1 3986   5.311   3.711   5.775
 1347TIP3    H2 3987   5.203   3.776   5.858
 1348TIP3   OH2 3988   4.206   3.162   6.761
 1348TIP3    H1 3989   4.253   3.233   6.716
 1348TIP3    H2 3990   4.258   3.146   6.840
 1349TIP3   OH2 3991   7.113   1.178   2.957
 1349TIP3    H1 3992   7.020   1.190   2.975
 1349TIP3    H2 3993   7.157   1.208   3.037
 1350TIP3   OH2 3994   3.464   7.177   0.807
 1350TIP3    H1 3995   3.369   7.188   0.800
 1350TIP3    H2 3996   3.497   7.263   0.831
 1351TIP3   OH2 3997   0.582   1.493   0.282
 1351TIP3    H1 3998   0.508   1.502   0.222
 1351TIP3    H2 3999   0.546   1.450   0.359
 1352TIP3   OH2 4000   0.856   3.474   2.009
 1352TIP3    H1 4001   0.901   3.438   2.085
 1352TIP3    H2 4002   0.876   3.568   2.012
 1353TIP3   OH2 4003   8.166   4.489   2.753
 1353TIP3    H1 4004   8.074   4.502   2.774
 1353TIP3    H2 4005   8.189   4.565   2.700
 1354TIP3   OH2 4006   8.197   0.056   3.325
 1354TIP3    H1 4007   8.180  -0.001   3.251
 1354TIP3    H2 4008   8.242   0.132   3.287
 1355TIP3   OH2 4009   6.913   6.706   0.870
 1355TIP3    H1 4010   6.904   6.610   0.872
 1355TIP3    H2 4011   6.971   6.723   0.796
 1356TIP3   OH2 4012   1.842   3.525   3.019
 1356TIP3    H1 4013   1.780   3.484   3.079
 1356TIP3    H2 4014   1.928   3.510   3.059
 1357TIP3   OH2 4015   4.294   1.055   3.909
 1357TIP3    H1 4016   4.309   1.139   3.865
 1357TIP3    H2 4017   4.378   1.009   3.899
 1358TIP3   OH2 4018   0.807   1.904   3.241
 1358TIP3    H1 4019   0.895   1.870   3.233
 1358TIP3    H2 4020   0.793   1.912   3.335
 1359TIP3   OH2 4021   5.048   4.247   6.705
 1359TIP3    H1 4022   5.031   4.284   6.791
 1359TIP3    H2 4023   5.013   4.312   6.643
 1360TIP3   OH2 4024   2.129   4.152   5.617
 1360TIP3    H1 4025   2.150   4.149   5.710
 1360TIP3    H2 4026   2.174   4.230   5.585
 1361TIP3   OH2 4027   6.263   3.623   4.736
 1361TIP3    H1 4028   6.218   3.706   4.726
 1361TIP3    H2 4029   6.351   3.639   4.700
 1362TIP3   OH2 4030   5.880   1.198   4.944
 1362TIP3    H1 4031   5.803   1.189   4.888
 1362TIP3    H2 4032   5.867   1.133   5.013
 1363TIP3   OH2 4033   0.681   5.868   3.190
 1363TIP3    H1 4034   0.712   5.899   3.275
 1363TIP3    H2 4035   0.719   5.928   3.127
 1364TIP3   OH2 4036   0.646   5.468   1.082
 1364TIP3    H1 4037   0.672   5.473   1.173
 1364TIP3    H2 4038   0.636   5.559   1.054
 1365TIP3   OH2 4039   4.263   1.773   2.451
 1365TIP3    H1 4040   4.260   1.838   2.521
 1365TIP3    H2 4041   4.326   1.707   2.482
 1366TIP3   OH2 4042   8.055   5.527   3.443
 1366TIP3    H1 4043   8.024   5.589   3.509
 1366TIP3    H2 4044   8.127   5.480   3.486
 1367TIP3   OH2 4045   1.342   3.011   2.255
 1367TIP3    H1 4046   1.369   3.097   2.222
 1367TIP3    H2 4047   1.247   3.017   2.259
 1368TIP3   OH2 4048   5.936   5.985   4.282
 1368TIP3    H1 4049   5.977   6.067   4.257
 1368TIP3    H2 4050   6.005   5.936   4.326
 1369TIP3   OH2 4051   3.125   3.987   5.686
 1369TIP3    H1 4052   3.058   3.958   5.624
 1369TIP3    H2 4053   3.114   4.082   5.690
 1370TIP3   OH2 4054   3.346   6.691   1.401
 1370TIP3    H1 4055   3.441   6.689   1.412
 1370TIP3    H2 4056   3.329   6.775   1.357
 1371TIP3   OH2 4057   2.128   1.344   0.344
 1371TIP3    H1 4058   2.080   1.425   0.326
 1371TIP3    H2 4059   2.114   1.291   0.266
 1372TIP3   OH2 4060   6.565   4.246   1.835
 1372TIP3    H1 4061   6.626   4.257   1.908
 1372TIP3    H2 4062   6.492   4.197   1.872
 1373TIP3   OH2 4063   5.030   2.767   5.653
 1373TIP3    H1 4064   5.124   2.779   5.641
 1373TIP3    H2 4065   4.997   2.749   5.565
 1374TIP3   OH2 4066   0.774   0.364   0.069
 1374TIP3    H1 4067   0.753   0.326   0.154
 1374TIP3    H2 4068   0.731   0.450   0.070
 1375TIP3   OH2 4069   7.733   3.907   5.182
 1375TIP3    H1 4070   7.773   3.888   5.267
 1375TIP3    H2 4071   7.757   3.998   5.164
 1376TIP3   OH2 4072   7.692   7.814   2.210
 1376TIP3    H1 4073   7.736   7.844   2.131
 1376TIP3    H2 4074   7.664   7.725   2.190
 1377TIP3   OH2 4075   7.573   2.384   0.871
 1377TIP3    H1 4076   7.569   2.479   0.879
 1377TIP3    H2 4077   7.497   2.361   0.818
 1378TIP3   OH2 4078   7.261   0.965   2.512
 1378TIP3    H1 4079   7.236   1.036   2.571
 1378TIP3    H2 4080   7.282   0.892   2.570
 1379TIP3   OH2 4081   4.651   5.699   4.593
 1379TIP3    H1 4082   4.611   5.743   4.668
 1379TIP3    H2 4083   4.594   5.623   4.577
 1380TIP3   OH2 4084   3.938   5.482   5.798
 1380TIP3    H1 4085   3.948   5.415   5.866
 1380TIP3    H2 4086   3.952   5.565   5.843
 1381TIP3   OH2 4087   2.795   2.424   0.222
 1381TIP3    H1 4088   2.801   2.346   0.167
 1381TIP3    H2 4089   2.727   2.477   0.181
 1382TIP3   OH2 4090   4.581   7.176   4.748
 1382TIP3    H1 4091   4.524   7.252   4.743
 1382TIP3    H2 4092   4.526   7.103   4.719
 1383TIP3   OH2 4093   5.626   1.305   0.584
 1383TIP3    H1 4094   5.588   1.328   0.500
 1383TIP3    H2 4095   5.643   1.211   0.578
 1384TIP3   OH2 4096   3.887   4.199   0.726
 1384TIP3    H1 4097   3.795   4.215   0.703
 1384TIP3    H2 4098   3.908   4.116   0.684
 1385TIP3   OH2 4099   1.030   3.272   5.171
 1385TIP3    H1 4100   1.045   3.288   5.264
 1385TIP3    H2 4101   0.992   3.184   5.169
 1386TIP3   OH2 4102   0.545   6.281   4.418
 1386TIP3    H1 4103   0.555   6.376   4.428
 1386TIP3    H2 4104   0.510   6.251   4.502
 1387TIP3   OH2 4105   4.658   6.925   1.868
 1387TIP3    H1 4106   4.592   6.925   1.799
 1387TIP3    H2 4107   4.728   6.981   1.835
 1388TIP3   OH2 4108   1.582   5.791   6.281
 1388TIP3    H1 4109   1.629   5.801   6.199
 1388TIP3    H2 4110   1.497   5.832   6.266
 1389TIP3   OH2 4111   1.778   7.672   5.435
 1389TIP3    H1 4112   1.866   7.688   5.401
 1389TIP3    H2 4113   1.772   7.728   5.512
 1390TIP3   OH2 4114   8.020   5.054   1.510
 1390TIP3    H1 4115   7.961   4.981   1.490
 1390TIP3    H2 4116   8.105   5.025   1.476
 1391TIP3   OH2 4117   5.123   7.385   2.087
 1391TIP3    H1 4118   5.040   7.419   2.055
 1391TIP3    H2 4119   5.103   7.348   2.173
 1392TIP3   OH2 4120   6.307   4.332   1.103
 1392TIP3    H1 4121   6.372   4.275   1.062
 1392TIP3    H2 4122   6.224   4.289   1.087
 1393TIP3   OH2 4123   5.005   7.778   6.119
 1393TIP3    H1 4124   4.968   7.865   6.105
 1393TIP3    H2 4125   5.073   7.791   6.185
 1394TIP3   OH2 4126   7.786   4.390   4.882
 1394TIP3    H1 4127   7.693   4.404   4.864
 1394TIP3    H2 4128   7.804   4.441   4.960
 1395TIP3   OH2 4129   1.897   4.836   4.282
 1395TIP3    H1 4130   1.927   4.925   4.297
 1395TIP3    H2 4131   1.843   4.815   4.358
 1396TIP3   OH2 4132   1.031   3.694   0.922
 1396TIP3    H1 4133   0.970   3.761   0.890
 1396TIP3    H2 4134   1.098   3.744   0.970
 1397TIP3   OH2 4135   1.062   3.118   0.212
 1397TIP3    H1 4136   1.151   3.084   0.224
 1397TIP3    H2 4137   1.052   3.126   0.117
 1398TIP3   OH2 4138   5.589   7.042   3.044
 1398TIP3    H1 4139   5.646   7.026   2.968
 1398TIP3    H2 4140   5.522   6.974   3.038
 1399TIP3   OH2 4141   6.521   6.710   3.728
 1399TIP3    H1 4142   6.479   6.624   3.726
 1399TIP3    H2 4143   6.466   6.762   3.787
 1400TIP3   OH2 4144   2.579   7.666   0.526
 1400TIP3    H1 4145   2.490   7.662   0.559
 1400TIP3    H2 4146   2.618   7.742   0.569
 1401TIP3   OH2 4147   6.080   0.303   3.825
 1401TIP3    H1 4148   5.993   0.329   3.796
 1401TIP3    H2 4149   6.133   0.383   3.817
 1402TIP3   OH2 4150   1.275   0.110   4.329
 1402TIP3    H1 4151   1.322   0.127   4.247
 1402TIP3    H2 4152   1.245   0.019   4.320
 1403TIP3   OH2 4153   4.251   5.846   6.142
 1403TIP3    H1 4154   4.318   5.815   6.202
 1403TIP3    H2 4155   4.300   5.884   6.069
 1404TIP3   OH2 4156   0.559   4.289   6.384
 1404TIP3    H1 4157   0.599   4.304   6.298
 1404TIP3    H2 4158   0.620   4.231   6.429
 1405TIP3   OH2 4159   4.384   5.047   3.265
 1405TIP3    H1 4160   4.317   4.979   3.274
 1405TIP3    H2 4161   4.442   5.015   3.196
 1406TIP3   OH2 4162   2.217   7.006   3.589
 1406TIP3    H1 4163   2.121   7.008   3.596
 1406TIP3    H2 4164   2.234   6.970   3.502
 1407TIP3   OH2 4165   1.099   0.232   6.197
 1407TIP3    H1 4166   1.139   0.279   6.271
 1407TIP3    H2 4167   1.144   0.266   6.120
 1408TIP3   OH2 4168   1.367   0.302   4.612
 1408TIP3    H1 4169   1.411   0.362   4.672
 1408TIP3    H2 4170   1.327   0.236   4.669
 1409TIP3   OH2 4171   0.668   3.089   2.001
 1409TIP3    H1 4172   0.749   3.130   1.971
 1409TIP3    H2 4173   0.697   3.020   2.061
 1410TIP3   OH2 4174   2.955   4.947   4.904
 1410TIP3    H1 4175   2.907   5.011   4.956
 1410TIP3    H2 4176   2.911   4.948   4.819
 1411TIP3   OH2 4177   7.168   1.594   2.449
 1411TIP3    H1 4178   7.092   1.593   2.391
 1411TIP3    H2 4179   7.137   1.638   2.528
 1412TIP3   OH2 4180   6.061   7.017   1.271
 1412TIP3    H1 4181   6.146   7.040   1.309
 1412TIP3    H2 4182   6.073   6.927   1.239
 1413TIP3   OH2 4183   5.167   6.085   0.273
 1413TIP3    H1 4184   5.258   6.114   0.280
 1413TIP3    H2 4185   5.139   6.072   0.364
 1414TIP3   OH2 4186   2.846   4.805   2.602
 1414TIP3    H1 4187   2.906   4.744   2.559
 1414TIP3    H2 4188   2.864   4.795   2.696
 1415TIP3   OH2 4189   7.322   1.516   5.682
 1415TIP3    H1 4190   7.339   1.600   5.725
 1415TIP3    H2 4191   7.232   1.523   5.651
 1416TIP3   OH2 4192   3.946   0.540   6.579
 1416TIP3    H1 4193   3.911   0.561   6.492
 1416TIP3    H2 4194   4.008   0.610   6.598
 1417TIP3   OH2 4195   5.028   3.167   1.601
 1417TIP3    H1 4196   5.077   3.088   1.576
 1417TIP3    H2 4197   4.972   3.139   1.673
 1418TIP3   OH2 4198   5.570   4.988   2.016
 1418TIP3    H1 4199   5.500   4.951   1.963
 1418TIP3    H2 4200   5.629   5.029   1.952
 1419TIP3   OH2 4201   6.740   6.356   6.073
 1419TIP3    H1 4202   6.685   6.423   6.033
 1419TIP3    H2 4203   6.708   6.349   6.163
 1420TIP3   OH2 4204   2.470   1.314   0.911
 1420TIP3    H1 4205   2.452   1.407   0.898
 1420TIP3    H2 4206   2.564   1.310   0.928
 1421TIP3   OH2 4207   3.240   6.154   3.510
 1421TIP3    H1 4208   3.289   6.224   3.552
 1421TIP3    H2 4209   3.149   6.168   3.536
 1422TIP3   OH2 4210   0.748   1.492   2.221
 1422TIP3    H1 4211   0.663   1.534   2.231
 1422TIP3    H2 4212   0.743   1.449   2.135
 1423TIP3   OH2 4213   3.312   3.933   5.104
 1423TIP3    H1 4214   3.329   3.855   5.157
 1423TIP3    H2 4215   3.320   4.006   5.165
 1424TIP3   OH2 4216   4.862   1.405   4.401
 1424TIP3    H1 4217   4.874   1.425   4.494
 1424TIP3    H2 4218   4.781   1.354   4.398
 1425TIP3   OH2 4219   0.288   6.659   5.618
 1425TIP3    H1 4220   0.202   6.647   5.658
 1425TIP3    H2 4221   0.348   6.668   5.692
 1426TIP3   OH2 4222   1.405   4.482   0.605
 1426TIP3    H1 4223   1.477   4.467   0.667
 1426TIP3    H2 4224   1.417   4.572   0.576
 1427TIP3   OH2 4225   3.031   5.935   2.717
 1427TIP3    H1 4226   3.117   5.896   2.732
 1427TIP3    H2 4227   2.974   5.860   2.698
 1428TIP3   OH2 4228   4.344   5.236   1.902
 1428TIP3    H1 4229   4.319   5.149   1.932
 1428TIP3    H2 4230   4.275   5.262   1.841
 1429TIP3   OH2 4231   2.536   1.211   1.833
 1429TIP3    H1 4232   2.492   1.128   1.854
 1429TIP3    H2 4233   2.579   1.237   1.915
 1430TIP3   OH2 4234   2.252   0.490   3.760
 1430TIP3    H1 4235   2.171   0.534   3.786
 1430TIP3    H2 4236   2.301   0.557   3.714
 1431TIP3   OH2 4237   4.079   7.507   1.718
 1431TIP3    H1 4238   4.167   7.480   1.743
 1431TIP3    H2 4239   4.092   7.586   1.666
 1432TIP3   OH2 4240   6.010   3.180   0.458
 1432TIP3    H1 4241   5.965   3.264   0.454
 1432TIP3    H2 4242   5.940   3.115   0.464
 1433TIP3   OH2 4243   6.572   6.445   4.230
 1433TIP3    H1 4244   6.611   6.387   4.295
 1433TIP3    H2 4245   6.575   6.395   4.148
 1434TIP3   OH2 4246   4.028   2.833   6.451
 1434TIP3    H1 4247   4.100   2.805   6.506
 1434TIP3    H2 4248   3.985   2.903   6.500
 1435TIP3   OH2 4249   1.855   0.276   6.106
 1435TIP3    H1 4250   1.840   0.200   6.162
 1435TIP3    H2 4251   1.862   0.240   6.017
 1436TIP3   OH2 4252   6.814   4.052   3.704
 1436TIP3    H1 4253   6.850   4.070   3.791
 1436TIP3    H2 4254   6.838   4.129   3.652
 1437TIP3   OH2 4255   4.553   1.367   3.400
 1437TIP3    H1 4256   4.515   1.297   3.348
 1437TIP3    H2 4257   4.504   1.445   3.375
 1438TIP3   OH2 4258   6.769   3.655   4.614
 1438TIP3    H1 4259   6.685   3.690   4.643
 1438TIP3    H2 4260   6.778   3.572   4.661
 1439TIP3   OH2 4261   6.708   2.133   1.352
 1439TIP3    H1 4262   6.726   2.044   1.383
 1439TIP3    H2 4263   6.769   2.146   1.280
 1440TIP3   OH2 4264   3.256   3.855   2.971
 1440TIP3    H1 4265   3.337   3.900   2.995
 1440TIP3    H2 4266   3.285   3.779   2.920
 1441TIP3   OH2 4267   4.701   2.487   1.780
 1441TIP3    H1 4268   4.667   2.567   1.820
 1441TIP3    H2 4269   4.728   2.514   1.692
 1442TIP3   OH2 4270   3.843   3.870   5.050
 1442TIP3    H1 4271   3.764   3.922   5.042
 1442TIP3    H2 4272   3.908   3.916   4.997
 1443TIP3   OH2 4273   3.106   7.086   6.636
 1443TIP3    H1 4274   3.038   7.018   6.639
 1443TIP3    H2 4275   3.185   7.040   6.609
 1444TIP3   OH2 4276   7.189   0.024   2.416
 1444TIP3    H1 4277   7.246   0.032   2.493
 1444TIP3    H2 4278   7.150   0.111   2.406
 1445TIP3   OH2 4279   5.464   2.351   1.350
 1445TIP3    H1 4280   5.455   2.367   1.256
 1445TIP3    H2 4281   5.481   2.257   1.357
 1446TIP3   OH2 4282   7.855   3.095   4.382
 1446TIP3    H1 4283   7.786   3.123   4.322
 1446TIP3    H2 4284   7.829   3.006   4.408
 1447TIP3   OH2 4285   7.730   3.708   2.975
 1447TIP3    H1 4286   7.689   3.710   3.062
 1447TIP3    H2 4287   7.712   3.620   2.943
 1448TIP3   OH2 4288   7.723   0.636   1.931
 1448TIP3    H1 4289   7.640   0.684   1.929
 1448TIP3    H2 4290   7.788   0.701   1.954
 1449TIP3   OH2 4291   4.353   3.035   5.669
 1449TIP3    H1 4292   4.400   3.023   5.751
 1449TIP3    H2 4293   4.404   3.101   5.622
 1450TIP3   OH2 4294   5.079   2.670   3.396
 1450TIP3    H1 4295   5.116   2.641   3.479
 1450TIP3    H2 4296   4.999   2.717   3.421
 1451TIP3   OH2 4297   3.650   1.601   1.563
 1451TIP3    H1 4298   3.710   1.632   1.631
 1451TIP3    H2 4299   3.707   1.572   1.492
 1452TIP3   OH2 4300   1.674   5.685   4.291
 1452TIP3    H1 4301   1.581   5.705   4.301
 1452TIP3    H2 4302   1.708   5.679   4.380
 1453TIP3   OH2 4303   6.616   3.899   3.841
 1453TIP3    H1 4304   6.557   3.972   3.824
 1453TIP3    H2 4305   6.702   3.929   3.811
 1454TIP3   OH2 4306   4.934   7.057   4.077
 1454TIP3    H1 4307   4.856   7.098   4.039
 1454TIP3    H2 4308   5.006   7.091   4.023
 1455TIP3   OH2 4309   1.822   3.572   0.219
 1455TIP3    H1 4310   1.887   3.558   0.288
 1455TIP3    H2 4311   1.869   3.621   0.152
 1456TIP3   OH2 4312   4.474   3.951   3.014
 1456TIP3    H1 4313   4.511   3.910   2.935
 1456TIP3    H2 4314   4.476   3.881   3.079
 1457TIP3   OH2 4315   1.419   1.354   3.659
 1457TIP3    H1 4316   1.435   1.261   3.643
 1457TIP3    H2 4317   1.453   1.399   3.582
 1458TIP3   OH2 4318   3.298   6.975   4.628
 1458TIP3    H1 4319   3.213   6.945   4.659
 1458TIP3    H2 4320   3.332   7.030   4.699
 1459TIP3   OH2 4321   0.468   0.763   5.438
 1459TIP3    H1 4322   0.551   0.810   5.429
 1459TIP3    H2 4323   0.449   0.766   5.532
 1460TIP3   OH2 4324   3.318   3.121   1.488
 1460TIP3    H1 4325   3.362   3.202   1.512
 1460TIP3    H2 4326   3.378   3.051   1.515
 1461TIP3   OH2 4327   0.967   3.009   2.099
 1461TIP3    H1 4328   0.881   2.986   2.134
 1461TIP3    H2 4329   1.017   3.039   2.175
 1462TIP3   OH2 4330   0.279   3.634   5.276
 1462TIP3    H1 4331   0.352   3.583   5.311
 1462TIP3    H2 4332   0.205   3.572   5.275
 1463TIP3   OH2 4333   4.981   1.125   4.973
 1463TIP3    H1 4334   5.009   1.061   4.908
 1463TIP3    H2 4335   5.061   1.168   5.002
 1464TIP3   OH2 4336   3.321   5.759   1.075
 1464TIP3    H1 4337   3.305   5.702   1.150
 1464TIP3    H2 4338   3.281   5.842   1.100
 1465TIP3   OH2 4339   2.664   1.878   6.397
 1465TIP3    H1 4340   2.618   1.936   6.456
 1465TIP3    H2 4341   2.754   1.912   6.394
 1466TIP3   OH2 4342   0.965   2.840   0.266
 1466TIP3    H1 4343   0.977   2.913   0.206
 1466TIP3    H2 4344   0.940   2.880   0.349
 1467TIP3   OH2 4345   3.665   3.876   6.543
 1467TIP3    H1 4346   3.633   3.909   6.627
 1467TIP3    H2 4347   3.718   3.948   6.508
 1468TIP3   OH2 4348   0.152   1.568   1.067
 1468TIP3    H1 4349   0.190   1.550   1.154
 1468TIP3    H2 4350   0.058   1.555   1.079
 1469TIP3   OH2 4351   2.302   5.924   3.469
 1469TIP3    H1 4352   2.352   5.991   3.516
 1469TIP3    H2 4353   2.361   5.849   3.463
 1470TIP3   OH2 4354   5.095   6.941   4.278
 1470TIP3    H1 4355   5.145   6.878   4.226
 1470TIP3    H2 4356   5.033   6.980   4.215
 1471TIP3   OH2 4357   0.551   3.656   1.884
 1471TIP3    H1 4358   0.483   3.629   1.822
 1471TIP3    H2 4359   0.563   3.580   1.941
 1472TIP3   OH2 4360   4.434   1.666   2.690
 1472TIP3    H1 4361   4.472   1.603   2.628
 1472TIP3    H2 4362   4.474   1.644   2.774
 1473TIP3   OH2 4363   1.588   2.521   1.927
 1473TIP3    H1 4364   1.636   2.595   1.964
 1473TIP3    H2 4365   1.562   2.550   1.840
 1474TIP3   OH2 4366   5.738   4.767   6.671
 1474TIP3    H1 4367   5.704   4.809   6.749
 1474TIP3    H2 4368   5.743   4.837   6.606
 1475TIP3   OH2 4369   0.115   0.355   0.435
 1475TIP3    H1 4370   0.089   0.271   0.473
 1475TIP3    H2 4371   0.124   0.413   0.510
 1476TIP3   OH2 4372   6.109   0.836   4.144
 1476TIP3    H1 4373   6.159   0.755   4.133
 1476TIP3    H2 4374   6.146   0.877   4.222
 1477TIP3   OH2 4375   0.764   5.151   2.439
 1477TIP3    H1 4376   0.768   5.088   2.367
 1477TIP3    H2 4377   0.675   5.186   2.435
 1478TIP3   OH2 4378   1.853   2.486   5.490
 1478TIP3    H1 4379   1.907   2.498   5.568
 1478TIP3    H2 4380   1.763   2.492   5.521
 1479TIP3   OH2 4381   0.306   1.229   2.211
 1479TIP3    H1 4382   0.268   1.294   2.151
 1479TIP3    H2 4383   0.274   1.254   2.297
 1480TIP3   OH2 4384   5.444   3.145   4.933
 1480TIP3    H1 4385   5.448   3.186   4.847
 1480TIP3    H2 4386   5.365   3.183   4.974
 1481TIP3   OH2 4387   8.153   7.311   0.409
 1481TIP3    H1 4388   8.154   7.402   0.379
 1481TIP3    H2 4389   8.183   7.315   0.499
 1482TIP3   OH2 4390   1.550   7.289   2.107
 1482TIP3    H1 4391   1.488   7.361   2.119
 1482TIP3    H2 4392   1.573   7.262   2.196
 1483TIP3   OH2 4393   5.607   6.238   3.237
 1483TIP3    H1 4394   5.601   6.214   3.144
 1483TIP3    H2 4395   5.619   6.154   3.282
 1484TIP3   OH2 4396   1.210   3.807   4.596
 1484TIP3    H1 4397   1.131   3.859   4.579
 1484TIP3    H2 4398   1.279   3.851   4.548
 1485TIP3   OH2 4399   5.682   6.388   4.582
 1485TIP3    H1 4400   5.685   6.433   4.497
 1485TIP3    H2 4401   5.772   6.391   4.614
 1486TIP3   OH2 4402   2.557   1.817   5.466
 1486TIP3    H1 4403   2.512   1.901   5.459
 1486TIP3    H2 4404   2.648   1.840   5.488
 1487TIP3   OH2 4405   7.318   4.846   6.456
 1487TIP3    H1 4406   7.320   4.939   6.434
 1487TIP3    H2 4407   7.359   4.802   6.381
 1488TIP3   OH2 4408   4.997   3.176   5.150
 1488TIP3    H1 4409   4.938   3.145   5.218
 1488TIP3    H2 4410   5.050   3.099   5.128
 1489TIP3   OH2 4411   6.344   4.423   2.863
 1489TIP3    H1 4412   6.285   4.379   2.801
 1489TIP3    H2 4413   6.306   4.404   2.949
 1490TIP3   OH2 4414   7.862   6.168   0.203
 1490TIP3    H1 4415   7.774   6.188   0.171
 1490TIP3    H2 4416   7.906   6.253   0.208
 1491TIP3   OH2 4417   0.308   4.982   1.592
 1491TIP3    H1 4418   0.347   5.017   1.512
 1491TIP3    H2 4419   0.357   5.024   1.663
 1492TIP3   OH2 4420   8.119   4.891   1.800
 1492TIP3    H1 4421   8.141   4.798   1.795
 1492TIP3    H2 4422   8.196   4.936   1.766
 1493TIP3   OH2 4423   3.264   0.928   2.611
 1493TIP3    H1 4424   3.296   0.910   2.523
 1493TIP3    H2 4425   3.217   0.849   2.636
 1494TIP3   OH2 4426   5.858   7.044   1.446
 1494TIP3    H1 4427   5.898   7.089   1.520
 1494TIP3    H2 4428   5.920   7.056   1.374
 1495TIP3   OH2 4429   7.921   2.038   4.253
 1495TIP3    H1 4430   7.859   2.079   4.192
 1495TIP3    H2 4431   7.866   1.988   4.313
 1496TIP3   OH2 4432   0.110   1.860   3.422
 1496TIP3    H1 4433   0.038   1.921   3.410
 1496TIP3    H2 4434   0.069   1.774   3.424
 1497TIP3   OH2 4435   0.835   0.052   2.606
 1497TIP3    H1 4436   0.836   0.098   2.522
 1497TIP3    H2 4437   0.790   0.113   2.665
 1498TIP3   OH2 4438   0.899   2.225   6.127
 1498TIP3    H1 4439   0.922   2.302   6.075
 1498TIP3    H2 4440   0.980   2.174   6.132
 1499TIP3   OH2 4441   1.504   5.348   3.542
 1499TIP3    H1 4442   1.495   5.338   3.637
 1499TIP3    H2 4443   1.597   5.333   3.525
 1500TIP3   OH2 4444   1.147   3.990   1.221
 1500TIP3    H1 4445   1.169   3.925   1.153
 1500TIP3    H2 4446   1.200   3.964   1.297
 1501TIP3   OH2 4447   5.899   1.003   3.347
 1501TIP3    H1 4448   5.815   1.038   3.374
 1501TIP3    H2 4449   5.896   1.004   3.251
 1502TIP3   OH2 4450   7.934   1.598   4.306
 1502TIP3    H1 4451   7.964   1.673   4.254
 1502TIP3    H2 4452   8.008   1.538   4.308
 1503TIP3   OH2 4453   2.515   4.034   0.411
 1503TIP3    H1 4454   2.566   4.012   0.489
 1503TIP3    H2 4455   2.581   4.042   0.342
 1504TIP3   OH2 4456   1.247   7.045   6.513
 1504TIP3    H1 4457   1.185   6.971   6.514
 1504TIP3    H2 4458   1.279   7.047   6.423
 1505TIP3   OH2 4459   1.719   2.396   4.883
 1505TIP3    H1 4460   1.716   2.442   4.967
 1505TIP3    H2 4461   1.651   2.330   4.890
 1506TIP3   OH2 4462   3.647   4.180   1.598
 1506TIP3    H1 4463   3.730   4.150   1.561
 1506TIP3    H2 4464   3.671   4.256   1.651
 1507TIP3   OH2 4465   0.881   1.740   6.385
 1507TIP3    H1 4466   0.846   1.669   6.331
 1507TIP3    H2 4467   0.973   1.745   6.359
 1508TIP3   OH2 4468   0.709   6.865   2.967
 1508TIP3    H1 4469   0.629   6.892   2.920
 1508TIP3    H2 4470   0.757   6.946   2.980
 1509TIP3   OH2 4471   8.088   1.493   0.814
 1509TIP3    H1 4472   8.131   1.409   0.804
 1509TIP3    H2 4473   7.996   1.475   0.793
 1510TIP3   OH2 4474   8.082   2.940   0.463
 1510TIP3    H1 4475   8.113   2.894   0.385
 1510TIP3    H2 4476   8.127   3.024   0.460
 1511TIP3   OH2 4477   4.138   1.300   2.039
 1511TIP3    H1 4478   4.172   1.342   1.960
 1511TIP3    H2 4479   4.186   1.218   2.046
 1512TIP3   OH2 4480   0.962   1.356   5.566
 1512TIP3    H1 4481   0.888   1.309   5.604
 1512TIP3    H2 4482   1.020   1.288   5.533
 1513TIP3   OH2 4483   7.241   2.247   0.826
 1513TIP3    H1 4484   7.222   2.253   0.733
 1513TIP3    H2 4485   7.315   2.187   0.832
 1514TIP3   OH2 4486   3.884   2.646   6.331
 1514TIP3    H1 4487   3.799   2.684   6.353
 1514TIP3    H2 4488   3.948   2.703   6.374
 1515TIP3   OH2 4489   0.238   5.647   3.323
 1515TIP3    H1 4490   0.288   5.705   3.381
 1515TIP3    H2 4491   0.266   5.559   3.347
 1516TIP3   OH2 4492   0.153   4.487   4.539
 1516TIP3    H1 4493   0.086   4.465   4.474
 1516TIP3    H2 4494   0.165   4.406   4.589
 1517TIP3   OH2 4495   7.916   0.771   3.350
 1517TIP3    H1 4496   7.921   0.842   3.414
 1517TIP3    H2 4497   7.917   0.814   3.265
 1518TIP3   OH2 4498   3.302   7.680   5.214
 1518TIP3    H1 4499   3.255   7.601   5.240
 1518TIP3    H2 4500   3.394   7.656   5.217
 1519TIP3   OH2 4501   2.052   0.318   1.003
 1519TIP3    H1 4502   1.982   0.286   1.061
 1519TIP3    H2 4503   2.125   0.336   1.061
 1520TIP3   OH2 4504   1.649   3.126   2.263
 1520TIP3    H1 4505   1.637   3.118   2.168
 1520TIP3    H2 4506   1.575   3.079   2.301
 1521TIP3   OH2 4507   0.777   2.919   4.858
 1521TIP3    H1 4508   0.684   2.906   4.837
 1521TIP3    H2 4509   0.824   2.861   4.798
 1522TIP3   OH2 4510   5.893   2.938   5.671
 1522TIP3    H1 4511   5.862   2.909   5.586
 1522TIP3    H2 4512   5.878   3.033   5.671
 1523TIP3   OH2 4513   7.109   0.706   6.488
 1523TIP3    H1 4514   7.137   0.776   6.547
 1523TIP3    H2 4515   7.071   0.750   6.413
 1524TIP3   OH2 4516   4.643   3.138   6.589
 1524TIP3    H1 4517   4.637   3.209   6.526
 1524TIP3    H2 4518   4.726   3.153   6.634
 1525TIP3   OH2 4519   4.256   4.391   3.781
 1525TIP3    H1 4520   4.307   4.392   3.700
 1525TIP3    H2 4521   4.167   4.413   3.754
 1526TIP3   OH2 4522   5.836   7.241   5.941
 1526TIP3    H1 4523   5.874   7.265   6.026
 1526TIP3    H2 4524   5.826   7.325   5.895
 1527TIP3   OH2 4525   2.227   3.849   4.274
 1527TIP3    H1 4526   2.274   3.836   4.356
 1527TIP3    H2 4527   2.281   3.805   4.208
 1528TIP3   OH2 4528   2.871   2.429   6.079
 1528TIP3    H1 4529   2.808   2.441   6.151
 1528TIP3    H2 4530   2.928   2.358   6.109
 1529TIP3   OH2 4531   4.962   0.820   6.683
 1529TIP3    H1 4532   4.872   0.787   6.680
 1529TIP3    H2 4533   4.993   0.813   6.593
 1530TIP3   OH2 4534   3.945   3.963   2.444
 1530TIP3    H1 4535   3.882   3.907   2.399
 1530TIP3    H2 4536   3.919   4.052   2.419
 1531TIP3   OH2 4537   7.490   0.989   2.726
 1531TIP3    H1 4538   7.487   0.915   2.666
 1531TIP3    H2 4539   7.398   1.016   2.735
 1532TIP3   OH2 4540   5.519   1.523   0.734
 1532TIP3    H1 4541   5.584   1.568   0.787
 1532TIP3    H2 4542   5.568   1.455   0.687
 1533TIP3   OH2 4543   5.019   0.581   4.435
 1533TIP3    H1 4544   5.023   0.516   4.505
 1533TIP3    H2 4545   4.970   0.654   4.473
 1534TIP3   OH2 4546   5.559   4.851   6.199
 1534TIP3    H1 4547   5.646   4.810   6.204
 1534TIP3    H2 4548   5.512   4.800   6.134
 1535TIP3   OH2 4549   0.866   1.917   2.722
 1535TIP3    H1 4550   0.796   1.871   2.676
 1535TIP3    H2 4551   0.851   2.009   2.705
 1536TIP3   OH2 4552   4.384   6.996   4.699
 1536TIP3    H1 4553   4.394   6.903   4.681
 1536TIP3    H2 4554   4.332   6.999   4.780
 1537TIP3   OH2 4555   4.190   4.000   4.036
 1537TIP3    H1 4556   4.250   4.046   3.978
 1537TIP3    H2 4557   4.121   4.063   4.054
 1538TIP3   OH2 4558   2.147   5.742   4.926
 1538TIP3    H1 4559   2.194   5.684   4.866
 1538TIP3    H2 4560   2.105   5.682   4.989
 1539TIP3   OH2 4561   2.789   5.561   5.895
 1539TIP3    H1 4562   2.728   5.570   5.822
 1539TIP3    H2 4563   2.733   5.555   5.973
 1540TIP3   OH2 4564   1.760   7.682   5.972
 1540TIP3    H1 4565   1.791   7.595   5.996
 1540TIP3    H2 4566   1.676   7.691   6.016
 1541TIP3   OH2 4567   0.705   4.506   1.074
 1541TIP3    H1 4568   0.726   4.459   1.155
 1541TIP3    H2 4569   0.671   4.590   1.102
 1542TIP3   OH2 4570   6.995   5.290   2.825
 1542TIP3    H1 4571   7.085   5.277   2.855
 1542TIP3    H2 4572   6.993   5.250   2.738
 1543TIP3   OH2 4573   3.932   6.102   1.634
 1543TIP3    H1 4574   4.003   6.083   1.695
 1543TIP3    H2 4575   3.961   6.065   1.550
 1544TIP3   OH2 4576   7.625   4.412   5.221
 1544TIP3    H1 4577   7.699   4.360   5.252
 1544TIP3    H2 4578   7.557   4.399   5.288
 1545TIP3   OH2 4579   1.501   4.115   2.456
 1545TIP3    H1 4580   1.418   4.160   2.443
 1545TIP3    H2 4581   1.497   4.039   2.398
 1546TIP3   OH2 4582   1.760   7.168   0.855
 1546TIP3    H1 4583   1.720   7.252   0.881
 1546TIP3    H2 4584   1.710   7.102   0.903
 1547TIP3   OH2 4585   4.011   2.938   6.738
 1547TIP3    H1 4586   3.924   2.976   6.747
 1547TIP3    H2 4587   4.072   3.010   6.754
 1548TIP3   OH2 4588   0.898   2.019   5.551
 1548TIP3    H1 4589   0.963   2.036   5.618
 1548TIP3    H2 4590   0.947   2.020   5.469
 1549TIP3   OH2 4591   4.924   6.953   2.086
 1549TIP3    H1 4592   4.831   6.934   2.074
 1549TIP3    H2 4593   4.959   6.955   1.996
 1550TIP3   OH2 4594   1.528   7.112   1.910
 1550TIP3    H1 4595   1.433   7.118   1.900
 1550TIP3    H2 4596   1.551   7.189   1.963
 1551TIP3   OH2 4597   3.257   6.903   0.860
 1551TIP3    H1 4598   3.337   6.908   0.912
 1551TIP3    H2 4599   3.242   6.994   0.831
 1552TIP3   OH2 4600   5.885   1.619   4.747
 1552TIP3    H1 4601   5.979   1.600   4.740
 1552TIP3    H2 4602   5.850   1.549   4.801
 1553TIP3   OH2 4603   2.421   1.250   2.642
 1553TIP3    H1 4604   2.360   1.316   2.610
 1553TIP3    H2 4605   2.503   1.298   2.656
 1554TIP3   OH2 4606   3.909   4.162   3.044
 1554TIP3    H1 4607   3.909   4.099   3.116
 1554TIP3    H2 4608   3.836   4.135   2.989
 1555TIP3   OH2 4609   2.230   0.375   4.330
 1555TIP3    H1 4610   2.210   0.444   4.267
 1555TIP3    H2 4611   2.178   0.300   4.302
 1556TIP3   OH2 4612   6.235   3.950   0.116
 1556TIP3    H1 4613   6.207   3.961   0.207
 1556TIP3    H2 4614   6.298   4.020   0.102
 1557TIP3   OH2 4615   5.729   4.105   3.563
 1557TIP3    H1 4616   5.717   4.172   3.495
 1557TIP3    H2 4617   5.642   4.064   3.571
 1558TIP3   OH2 4618   4.680   7.618   4.097
 1558TIP3    H1 4619   4.618   7.670   4.046
 1558TIP3    H2 4620   4.758   7.674   4.104
 1559TIP3   OH2 4621   8.112   4.512   1.273
 1559TIP3    H1 4622   8.119   4.607   1.271
 1559TIP3    H2 4623   8.091   4.487   1.183
 1560TIP3   OH2 4624   3.152   2.344   0.499
 1560TIP3    H1 4625   3.102   2.278   0.547
 1560TIP3    H2 4626   3.114   2.427   0.527
 1561TIP3   OH2 4627   0.399   7.374   1.651
 1561TIP3    H1 4628   0.442   7.423   1.721
 1561TIP3    H2 4629   0.327   7.329   1.694
 1562TIP3   OH2 4630   1.232   1.783   2.028
 1562TIP3    H1 4631   1.229   1.873   2.061
 1562TIP3    H2 4632   1.241   1.729   2.106
 1563TIP3   OH2 4633   2.098   5.924   1.794
 1563TIP3    H1 4634   2.086   5.907   1.888
 1563TIP3    H2 4635   2.182   5.883   1.773
 1564TIP3   OH2 4636   2.460   5.024   2.469
 1564TIP3    H1 4637   2.422   5.005   2.555
 1564TIP3    H2 4638   2.423   4.957   2.412
 1565TIP3   OH2 4639   3.966   7.767   0.479
 1565TIP3    H1 4640   4.021   7.786   0.554
 1565TIP3    H2 4641   4.011   7.695   0.434
 1566TIP3   OH2 4642   2.601   0.346   2.180
 1566TIP3    H1 4643   2.531   0.355   2.116
 1566TIP3    H2 4644   2.561   0.373   2.263
 1567TIP3   OH2 4645   1.260   2.250   0.634
 1567TIP3    H1 4646   1.211   2.168   0.630
 1567TIP3    H2 4647   1.202   2.312   0.677
 1568TIP3   OH2 4648   7.233   6.843   2.314
 1568TIP3    H1 4649   7.322   6.817   2.339
 1568TIP3    H2 4650   7.181   6.763   2.324
 1569TIP3   OH2 4651   7.465   1.594   3.064
 1569TIP3    H1 4652   7.546   1.568   3.108
 1569TIP3    H2 4653   7.407   1.620   3.135
 1570TIP3   OH2 4654   6.473   7.544   5.754
 1570TIP3    H1 4655   6.546   7.605   5.764
 1570TIP3    H2 4656   6.477   7.517   5.662
 1571TIP3   OH2 4657   1.624   1.829   2.278
 1571TIP3    H1 4658   1.528   1.829   2.285
 1571TIP3    H2 4659   1.641   1.807   2.187
 1572TIP3   OH2 4660   3.296   2.292   4.395
 1572TIP3    H1 4661   3.231   2.330   4.336
 1572TIP3    H2 4662   3.334   2.219   4.344
 1573TIP3   OH2 4663   5.591   1.401   3.171
 1573TIP3    H1 4664   5.652   1.458   3.219
 1573TIP3    H2 4665   5.604   1.424   3.079
 1574TIP3   OH2 4666   5.813   0.931   1.682
 1574TIP3    H1 4667   5.778   1.000   1.625
 1574TIP3    H2 4668   5.902   0.960   1.703
 1575TIP3   OH2 4669   4.825   4.074   0.956
 1575TIP3    H1 4670   4.862   4.125   1.028
 1575TIP3    H2 4671   4.871   3.990   0.960
 1576TIP3   OH2 4672   0.615   5.934   0.240
 1576TIP3    H1 4673   0.666   5.854   0.237
 1576TIP3    H2 4674   0.524   5.904   0.247
 1577TIP3   OH2 4675   7.375   2.423   6.179
 1577TIP3    H1 4676   7.447   2.360   6.186
 1577TIP3    H2 4677   7.296   2.369   6.185
 1578TIP3   OH2 4678   1.035   3.402   0.926
 1578TIP3    H1 4679   1.012   3.485   0.968
 1578TIP3    H2 4680   1.067   3.427   0.840
 1579TIP3   OH2 4681   4.627   7.442   6.362
 1579TIP3    H1 4682   4.696   7.424   6.299
 1579TIP3    H2 4683   4.596   7.530   6.340
 1580TIP3   OH2 4684   3.004   5.975   4.297
 1580TIP3    H1 4685   3.012   5.933   4.211
 1580TIP3    H2 4686   3.067   6.047   4.294
 1581TIP3   OH2 4687   3.074   6.537   6.022
 1581TIP3    H1 4688   2.989   6.496   6.006
 1581TIP3    H2 4689   3.125   6.469   6.068
 1582TIP3   OH2 4690   6.214   7.281   2.139
 1582TIP3    H1 4691   6.244   7.190   2.140
 1582TIP3    H2 4692   6.195   7.301   2.231
 1583TIP3   OH2 4693   6.467   4.066   2.947
 1583TIP3    H1 4694   6.553   4.106   2.962
 1583TIP3    H2 4695   6.435   4.108   2.867
 1584TIP3   OH2 4696   4.948   2.215   3.664
 1584TIP3    H1 4697   4.896   2.290   3.638
 1584TIP3    H2 4698   4.983   2.239   3.750
 1585TIP3   OH2 4699   2.501   1.970   1.264
 1585TIP3    H1 4700   2.494   2.039   1.198
 1585TIP3    H2 4701   2.563   1.908   1.228
 1586TIP3   OH2 4702   3.151   6.541   0.620
 1586TIP3    H1 4703   3.243   6.530   0.647
 1586TIP3    H2 4704   3.151   6.521   0.526
 1587TIP3   OH2 4705   0.367   4.305   0.058
 1587TIP3    H1 4706   0.416   4.384   0.038
 1587TIP3    H2 4707   0.330   4.277  -0.027
 1588TIP3   OH2 4708   2.682   4.141   6.140
 1588TIP3    H1 4709   2.715   4.202   6.206
 1588TIP3    H2 4710   2.674   4.194   6.060
 1589TIP3   OH2 4711   6.814   1.875   1.344
 1589TIP3    H1 4712   6.908   1.858   1.345
 1589TIP3    H2 4713   6.775   1.798   1.386
 1590TIP3   OH2 4714   7.060   5.097   3.859
 1590TIP3    H1 4715   7.034   5.097   3.951
 1590TIP3    H2 4716   6.978   5.113   3.811
 1591TIP3   OH2 4717   5.779   0.306   2.473
 1591TIP3    H1 4718   5.754   0.380   2.418
 1591TIP3    H2 4719   5.867   0.283   2.445
 1592TIP3   OH2 4720   3.151   1.323   1.315
 1592TIP3    H1 4721   3.215   1.299   1.247
 1592TIP3    H2 4722   3.112   1.240   1.340
 1593TIP3   OH2 4723   2.138   3.549   0.924
 1593TIP3    H1 4724   2.180   3.528   1.007
 1593TIP3    H2 4725   2.176   3.487   0.862
 1594TIP3   OH2 4726   6.426   0.277   3.883
 1594TIP3    H1 4727   6.373   0.353   3.906
 1594TIP3    H2 4728   6.363   0.207   3.868
 1595TIP3   OH2 4729   7.241   2.972   1.903
 1595TIP3    H1 4730   7.267   3.064   1.913
 1595TIP3    H2 4731   7.317   2.930   1.864
 1596TIP3   OH2 4732   0.936   1.821   6.647
 1596TIP3    H1 4733   0.908   1.797   6.559
 1596TIP3    H2 4734   1.006   1.758   6.668
 1597TIP3   OH2 4735   2.988   6.149   3.621
 1597TIP3    H1 4736   2.951   6.133   3.708
 1597TIP3    H2 4737   2.965   6.070   3.570
 1598TIP3   OH2 4738   5.978   4.143   3.285
 1598TIP3    H1 4739   6.022   4.146   3.199
 1598TIP3    H2 4740   6.038   4.093   3.340
 1599TIP3   OH2 4741   0.004   6.227   2.726
 1599TIP3    H1 4742   0.043   6.265   2.648
 1599TIP3    H2 4743   0.078   6.185   2.772
 1600TIP3   OH2 4744   5.581   6.111   1.286
 1600TIP3    H1 4745   5.498   6.074   1.316
 1600TIP3    H2 4746   5.649   6.062   1.331
 1601TIP3   OH2 4747   4.023   6.397   5.425
 1601TIP3    H1 4748   4.091   6.459   5.451
 1601TIP3    H2 4749   4.006   6.418   5.333
 1602TIP3   OH2 4750   5.686   3.051   4.713
 1602TIP3    H1 4751   5.677   3.145   4.696
 1602TIP3    H2 4752   5.754   3.046   4.781
 1603TIP3   OH2 4753   1.698   1.361   4.490
 1603TIP3    H1 4754   1.685   1.455   4.507
 1603TIP3    H2 4755   1.635   1.318   4.548
 1604TIP3   OH2 4756   5.376   6.327   1.331
 1604TIP3    H1 4757   5.355   6.257   1.270
 1604TIP3    H2 4758   5.472   6.329   1.333
 1605TIP3   OH2 4759   3.920   1.154   2.239
 1605TIP3    H1 4760   3.899   1.243   2.268
 1605TIP3    H2 4761   3.839   1.121   2.200
 1606TIP3   OH2 4762   3.257   6.912   0.523
 1606TIP3    H1 4763   3.179   6.887   0.574
 1606TIP3    H2 4764   3.329   6.907   0.586
 1607TIP3   OH2 4765   7.772   7.101   2.268
 1607TIP3    H1 4766   7.794   7.164   2.199
 1607TIP3    H2 4767   7.825   7.024   2.249
 1608TIP3   OH2 4768   6.053   2.356   2.107
 1608TIP3    H1 4769   6.058   2.261   2.103
 1608TIP3    H2 4770   6.059   2.385   2.016
 1609TIP3   OH2 4771   1.016   2.848   5.677
 1609TIP3    H1 4772   0.962   2.771   5.661
 1609TIP3    H2 4773   0.953   2.920   5.685
 1610TIP3   OH2 4774   1.820   2.570   1.089
 1610TIP3    H1 4775   1.773   2.611   1.017
 1610TIP3    H2 4776   1.752   2.526   1.141
 1611TIP3   OH2 4777   2.836   6.465   2.353
 1611TIP3    H1 4778   2.836   6.423   2.439
 1611TIP3    H2 4779   2.767   6.531   2.358
 1612TIP3   OH2 4780   5.685   5.838   3.532
 1612TIP3    H1 4781   5.632   5.882   3.465
 1612TIP3    H2 4782   5.648   5.750   3.538
 1613TIP3   OH2 4783   4.313   7.358   2.448
 1613TIP3    H1 4784   4.298   7.324   2.536
 1613TIP3    H2 4785   4.225   7.375   2.414
 1614TIP3   OH2 4786   2.696   6.209   1.355
 1614TIP3    H1 4787   2.709   6.199   1.450
 1614TIP3    H2 4788   2.777   6.176   1.317
 1615TIP3   OH2 4789   2.928   1.705   1.088
 1615TIP3    H1 4790   2.894   1.708   0.999
 1615TIP3    H2 4791   2.951   1.613   1.103
 1616TIP3   OH2 4792   5.217   6.080   5.405
 1616TIP3    H1 4793   5.267   6.154   5.438
 1616TIP3    H2 4794   5.174   6.112   5.326
 1617TIP3   OH2 4795   7.841   7.038   2.724
 1617TIP3    H1 4796   7.903   6.995   2.783
 1617TIP3    H2 4797   7.894   7.065   2.649
 1618TIP3   OH2 4798   6.810   0.328   4.589
 1618TIP3    H1 4799   6.896   0.331   4.549
 1618TIP3    H2 4800   6.820   0.269   4.663
 1619TIP3   OH2 4801   0.902   4.298   1.858
 1619TIP3    H1 4802   0.926   4.271   1.769
 1619TIP3    H2 4803   0.979   4.346   1.890
 1620TIP3   OH2 4804   4.782   0.034   0.323
 1620TIP3    H1 4805   4.733   0.052   0.404
 1620TIP3    H2 4806   4.725  -0.026   0.274
 1621TIP3   OH2 4807   6.242   4.126   3.993
 1621TIP3    H1 4808   6.203   4.071   4.060
 1621TIP3    H2 4809   6.185   4.203   3.989
 1622TIP3   OH2 4810   1.498   5.962   2.221
 1622TIP3    H1 4811   1.487   5.966   2.316
 1622TIP3    H2 4812   1.424   6.010   2.185
 1623TIP3   OH2 4813   6.732   6.072   1.047
 1623TIP3    H1 4814   6.654   6.016   1.042
 1623TIP3    H2 4815   6.734   6.116   0.962
 1624TIP3   OH2 4816   7.829   2.660   3.517
 1624TIP3    H1 4817   7.841   2.732   3.455
 1624TIP3    H2 4818   7.878   2.687   3.595
 1625TIP3   OH2 4819   7.087   2.961   3.591
 1625TIP3    H1 4820   7.164   2.987   3.642
 1625TIP3    H2 4821   7.063   3.040   3.543
 1626TIP3   OH2 4822   7.859   6.859   1.808
 1626TIP3    H1 4823   7.835   6.942   1.850
 1626TIP3    H2 4824   7.938   6.879   1.759
 1627TIP3   OH2 4825   8.211   4.287   1.459
 1627TIP3    H1 4826   8.142   4.297   1.525
 1627TIP3    H2 4827   8.246   4.376   1.448
 1628TIP3   OH2 4828   4.312   1.061   4.428
 1628TIP3    H1 4829   4.343   1.061   4.337
 1628TIP3    H2 4830   4.289   1.152   4.446
 1629TIP3   OH2 4831   0.172   6.567   6.416
 1629TIP3    H1 4832   0.265   6.559   6.439
 1629TIP3    H2 4833   0.133   6.484   6.445
 1630TIP3   OH2 4834   3.924   1.499   3.523
 1630TIP3    H1 4835   4.016   1.483   3.500
 1630TIP3    H2 4836   3.926   1.521   3.616
 1631TIP3   OH2 4837   2.357   6.130   1.606
 1631TIP3    H1 4838   2.425   6.144   1.672
 1631TIP3    H2 4839   2.313   6.215   1.599
 1632TIP3   OH2 4840   5.021   2.551   1.131
 1632TIP3    H1 4841   4.980   2.606   1.198
 1632TIP3    H2 4842   4.951   2.496   1.099
 1633TIP3   OH2 4843   7.463   4.749   1.275
 1633TIP3    H1 4844   7.554   4.724   1.288
 1633TIP3    H2 4845   7.426   4.679   1.221
 1634TIP3   OH2 4846   8.300   1.734   1.973
 1634TIP3    H1 4847   8.347   1.713   2.053
 1634TIP3    H2 4848   8.231   1.668   1.967
 1635TIP3   OH2 4849   8.191   6.962   6.555
 1635TIP3    H1 4850   8.248   6.906   6.502
 1635TIP3    H2 4851   8.152   7.022   6.492
 1636TIP3   OH2 4852   0.374   0.456   4.781
 1636TIP3    H1 4853   0.422   0.506   4.715
 1636TIP3    H2 4854   0.282   0.477   4.765
 1637TIP3   OH2 4855   5.337   1.066   0.621
 1637TIP3    H1 4856   5.366   1.095   0.708
 1637TIP3    H2 4857   5.291   1.142   0.585
 1638TIP3   OH2 4858   6.562   4.160   2.293
 1638TIP3    H1 4859   6.561   4.096   2.222
 1638TIP3    H2 4860   6.527   4.240   2.255
 1639TIP3   OH2 4861   4.028   3.598   4.564
 1639TIP3    H1 4862   4.120   3.576   4.579
 1639TIP3    H2 4863   4.026   3.634   4.476
 1640TIP3   OH2 4864   5.378   7.002   3.436
 1640TIP3    H1 4865   5.407   7.088   3.403
 1640TIP3    H2 4866   5.298   6.983   3.387
 1641TIP3   OH2 4867   3.486   3.347   1.577
 1641TIP3    H1 4868   3.574   3.321   1.603
 1641TIP3    H2 4869   3.446   3.382   1.656
 1642TIP3   OH2 4870   4.437   1.328   2.682
 1642TIP3    H1 4871   4.395   1.368   2.606
 1642TIP3    H2 4872   4.446   1.236   2.659
 1643TIP3   OH2 4873   0.974   2.270   6.390
 1643TIP3    H1 4874   0.957   2.193   6.445
 1643TIP3    H2 4875   0.935   2.248   6.306
 1644TIP3   OH2 4876   4.378   4.771   4.948
 1644TIP3    H1 4877   4.439   4.824   4.898
 1644TIP3    H2 4878   4.425   4.689   4.964
 1645TIP3   OH2 4879   0.415   1.989   4.835
 1645TIP3    H1 4880   0.496   1.994   4.785
 1645TIP3    H2 4881   0.370   1.912   4.801
 1646TIP3   OH2 4882   8.252   3.727   4.432
 1646TIP3    H1 4883   8.277   3.634   4.428
 1646TIP3    H2 4884   8.158   3.727   4.415
 1647TIP3   OH2 4885   3.183   1.310   4.941
 1647TIP3    H1 4886   3.161   1.217   4.952
 1647TIP3    H2 4887   3.102   1.350   4.911
 1648TIP3   OH2 4888   4.468   2.808   5.812
 1648TIP3    H1 4889   4.538   2.757   5.851
 1648TIP3    H2 4890   4.392   2.750   5.814
 1649TIP3   OH2 4891   7.625   4.358   4.369
 1649TIP3    H1 4892   7.655   4.446   4.346
 1649TIP3    H2 4893   7.613   4.361   4.464
 1650TIP3   OH2 4894   1.364   7.250   6.192
 1650TIP3    H1 4895   1.330   7.330   6.233
 1650TIP3    H2 4896   1.449   7.275   6.157
 1651TIP3   OH2 4897   4.289   1.975   0.514
 1651TIP3    H1 4898   4.266   1.948   0.603
 1651TIP3    H2 4899   4.384   1.988   0.517
 1652TIP3   OH2 4900   4.962   0.160   5.377
 1652TIP3    H1 4901   4.966   0.239   5.323
 1652TIP3    H2 4902   4.972   0.191   5.466
 1653TIP3   OH2 4903   1.594   3.088   6.432
 1653TIP3    H1 4904   1.504   3.118   6.420
 1653TIP3    H2 4905   1.623   3.128   6.514
 1654TIP3   OH2 4906   5.606   6.845   3.794
 1654TIP3    H1 4907   5.630   6.921   3.847
 1654TIP3    H2 4908   5.685   6.824   3.744
 1655TIP3   OH2 4909   6.765   3.002   4.260
 1655TIP3    H1 4910   6.695   3.055   4.299
 1655TIP3    H2 4911   6.809   2.962   4.335
 1656TIP3   OH2 4912   6.755   0.530   1.288
 1656TIP3    H1 4913   6.813   0.455   1.304
 1656TIP3    H2 4914   6.772   0.589   1.362
 1657TIP3   OH2 4915   1.113   5.141   1.568
 1657TIP3    H1 4916   1.052   5.213   1.585
 1657TIP3    H2 4917   1.195   5.168   1.610
 1658TIP3   OH2 4918   7.283   6.837   1.616
 1658TIP3    H1 4919   7.249   6.778   1.549
 1658TIP3    H2 4920   7.241   6.808   1.697
 1659TIP3   OH2 4921   1.241   1.581   3.698
 1659TIP3    H1 4922   1.261   1.674   3.713
 1659TIP3    H2 4923   1.192   1.580   3.616
 1660TIP3   OH2 4924   7.341   4.472   6.438
 1660TIP3    H1 4925   7.386   4.453   6.520
 1660TIP3    H2 4926   7.300   4.390   6.413
 1661TIP3   OH2 4927   8.059   2.667   2.283
 1661TIP3    H1 4928   8.019   2.713   2.209
 1661TIP3    H2 4929   8.118   2.604   2.242
 1662TIP3   OH2 4930   1.336   3.349   3.054
 1662TIP3    H1 4931   1.403   3.418   3.046
 1662TIP3    H2 4932   1.284   3.357   2.974
 1663TIP3   OH2 4933   4.083   6.386   2.475
 1663TIP3    H1 4934   4.029   6.313   2.506
 1663TIP3    H2 4935   4.128   6.417   2.554
 1664TIP3   OH2 4936  -0.001   5.420   6.482
 1664TIP3    H1 4937   0.021   5.337   6.525
 1664TIP3    H2 4938  -0.088   5.443   6.517
 1665TIP3   OH2 4939   7.078   0.681   5.393
 1665TIP3    H1 4940   7.060   0.732   5.472
 1665TIP3    H2 4941   7.005   0.619   5.387
 1666TIP3   OH2 4942   3.488   7.591   6.220
 1666TIP3    H1 4943   3.443   7.671   6.247
 1666TIP3    H2 4944   3.520   7.610   6.132
 1667TIP3   OH2 4945   8.083   2.094   6.698
 1667TIP3    H1 4946   8.061   2.030   6.765
 1667TIP3    H2 4947   8.013   2.159   6.703
 1668TIP3   OH2 4948   6.934   5.308   5.071
 1668TIP3    H1 4949   6.849   5.281   5.105
 1668TIP3    H2 4950   6.986   5.227   5.072
 1669TIP3   OH2 4951   1.659   7.230   0.106
 1669TIP3    H1 4952   1.750   7.252   0.086
 1669TIP3    H2 4953   1.608   7.306   0.076
 1670TIP3   OH2 4954   4.145   4.350   3.132
 1670TIP3    H1 4955   4.197   4.296   3.072
 1670TIP3    H2 4956   4.061   4.305   3.139
 1671TIP3   OH2 4957   0.352   4.015   2.115
 1671TIP3    H1 4958   0.362   4.052   2.203
 1671TIP3    H2 4959   0.407   4.069   2.059
 1672TIP3   OH2 4960   1.641   4.306   0.527
 1672TIP3    H1 4961   1.552   4.330   0.552
 1672TIP3    H2 4962   1.697   4.357   0.587
 1673TIP3   OH2 4963   1.685   2.107   2.959
 1673TIP3    H1 4964   1.608   2.053   2.978
 1673TIP3    H2 4965   1.758   2.061   3.000
 1674TIP3   OH2 4966   7.035   3.340   3.057
 1674TIP3    H1 4967   6.998   3.347   3.145
 1674TIP3    H2 4968   6.960   3.351   2.999
 1675TIP3   OH2 4969   1.179   6.363   4.001
 1675TIP3    H1 4970   1.106   6.304   4.023
 1675TIP3    H2 4971   1.144   6.451   4.018
 1676TIP3   OH2 4972   7.240   0.444   5.427
 1676TIP3    H1 4973   7.334   0.427   5.425
 1676TIP3    H2 4974   7.233   0.539   5.426
 1677TIP3   OH2 4975   4.509   3.250   1.487
 1677TIP3    H1 4976   4.591   3.285   1.521
 1677TIP3    H2 4977   4.442   3.311   1.517
 1678TIP3   OH2 4978   2.608   7.532   2.603
 1678TIP3    H1 4979   2.593   7.548   2.510
 1678TIP3    H2 4980   2.583   7.614   2.645
 1679TIP3   OH2 4981   3.470   1.486   1.929
 1679TIP3    H1 4982   3.382   1.517   1.950
 1679TIP3    H2 4983   3.528   1.554   1.962
 1680TIP3   OH2 4984   6.660   6.793   3.487
 1680TIP3    H1 4985   6.620   6.753   3.564
 1680TIP3    H2 4986   6.613   6.753   3.413
 1681TIP3   OH2 4987   4.875   5.443   5.549
 1681TIP3    H1 4988   4.792   5.484   5.523
 1681TIP3    H2 4989   4.926   5.514   5.586
 1682TIP3   OH2 4990   1.709   5.394   6.602
 1682TIP3    H1 4991   1.679   5.304   6.612
 1682TIP3    H2 4992   1.637   5.439   6.558
 1683TIP3   OH2 4993   7.033   5.998   3.854
 1683TIP3    H1 4994   7.038   6.077   3.800
 1683TIP3    H2 4995   7.097   5.939   3.816
 1684TIP3   OH2 4996   7.079   4.510   2.406
 1684TIP3    H1 4997   7.023   4.557   2.468
 1684TIP3    H2 4998   7.166   4.547   2.420
 1685TIP3   OH2 4999   1.708   1.246   1.303
 1685TIP3    H1 5000   1.663   1.284   1.379
 1685TIP3    H2 5001   1.783   1.200   1.341
 1686TIP3   OH2 5002   5.995   7.045   4.396
 1686TIP3    H1 5003   6.059   6.984   4.359
 1686TIP3    H2 5004   6.001   7.033   4.490
 1687TIP3   OH2 5005   4.457   6.687   6.481
 1687TIP3    H1 5006   4.540   6.689   6.529
 1687TIP3    H2 5007   4.425   6.777   6.485
 1688TIP3   OH2 5008   4.085   3.051   1.546
 1688TIP3    H1 5009   4.132   2.969   1.539
 1688TIP3    H2 5010   4.071   3.078   1.455
 1689TIP3   OH2 5011   5.665   3.463   0.841
 1689TIP3    H1 5012   5.714   3.394   0.798
 1689TIP3    H2 5013   5.643   3.525   0.770
 1690TIP3   OH2 5014   5.843   7.719   3.769
 1690TIP3    H1 5015   5.772   7.703   3.831
 1690TIP3    H2 5016   5.918   7.671   3.806
 1691TIP3   OH2 5017   1.211   5.669   6.422
 1691TIP3    H1 5018   1.123   5.632   6.433
 1691TIP3    H2 5019   1.232   5.653   6.330
 1692TIP3   OH2 5020   7.206   7.447   1.271
 1692TIP3    H1 5021   7.138   7.514   1.280
 1692TIP3    H2 5022   7.171   7.387   1.205
 1693TIP3   OH2 5023   0.870   0.820   0.146
 1693TIP3    H1 5024   0.842   0.780   0.229
 1693TIP3    H2 5025   0.933   0.757   0.111
 1694TIP3   OH2 5026   6.309   3.505   1.984
 1694TIP3    H1 5027   6.250   3.548   2.046
 1694TIP3    H2 5028   6.310   3.413   2.011
 1695TIP3   OH2 5029   7.836   7.809   2.448
 1695TIP3    H1 5030   7.771   7.839   2.385
 1695TIP3    H2 5031   7.806   7.845   2.532
 1696TIP3   OH2 5032   4.035   2.094   1.936
 1696TIP3    H1 5033   4.059   2.080   2.028
 1696TIP3    H2 5034   4.112   2.136   1.898
 1697TIP3   OH2 5035   0.729   3.265   0.037
 1697TIP3    H1 5036   0.772   3.290  -0.045
 1697TIP3    H2 5037   0.691   3.346   0.070
 1698TIP3   OH2 5038   7.372   3.493   4.739
 1698TIP3    H1 5039   7.356   3.530   4.653
 1698TIP3    H2 5040   7.427   3.557   4.784
 1699TIP3   OH2 5041   3.347   5.588   5.101
 1699TIP3    H1 5042   3.410   5.615   5.168
 1699TIP3    H2 5043   3.377   5.632   5.021
 1700TIP3   OH2 5044   7.951   0.081   0.431
 1700TIP3    H1 5045   7.956   0.127   0.347
 1700TIP3    H2 5046   7.936   0.149   0.496
 1701TIP3   OH2 5047   0.643   1.966   2.537
 1701TIP3    H1 5048   0.590   2.035   2.577
 1701TIP3    H2 5049   0.723   2.011   2.510
 1702TIP3   OH2 5050   4.295   6.467   5.453
 1702TIP3    H1 5051   4.305   6.400   5.521
 1702TIP3    H2 5052   4.355   6.440   5.384
 1703TIP3   OH2 5053   2.838   4.643   0.747
 1703TIP3    H1 5054   2.763   4.675   0.796
 1703TIP3    H2 5055   2.901   4.715   0.751
 1704TIP3   OH2 5056   6.883   6.643   4.690
 1704TIP3    H1 5057   6.919   6.657   4.603
 1704TIP3    H2 5058   6.925   6.562   4.721
 1705TIP3   OH2 5059   4.160   4.309   5.191
 1705TIP3    H1 5060   4.068   4.333   5.184
 1705TIP3    H2 5061   4.170   4.236   5.130
 1706TIP3   OH2 5062   1.552   6.673   2.408
 1706TIP3    H1 5063   1.586   6.762   2.399
 1706TIP3    H2 5064   1.482   6.681   2.473
 1707TIP3   OH2 5065   5.266   3.353   2.997
 1707TIP3    H1 5066   5.297   3.289   3.060
 1707TIP3    H2 5067   5.254   3.303   2.916
 1708TIP3   OH2 5068   3.486   3.611   1.068
 1708TIP3    H1 5069   3.516   3.653   0.988
 1708TIP3    H2 5070   3.523   3.665   1.138
 1709TIP3   OH2 5071   0.890   4.393   0.863
 1709TIP3    H1 5072   0.831   4.448   0.914
 1709TIP3    H2 5073   0.901   4.314   0.915
 1710TIP3   OH2 5074   7.590   7.473   5.790
 1710TIP3    H1 5075   7.668   7.422   5.814
 1710TIP3    H2 5076   7.538   7.413   5.737
 1711TIP3   OH2 5077   1.113   2.612   4.468
 1711TIP3    H1 5078   1.126   2.698   4.427
 1711TIP3    H2 5079   1.020   2.592   4.452
 1712TIP3   OH2 5080   2.486   2.662   4.861
 1712TIP3    H1 5081   2.437   2.670   4.780
 1712TIP3    H2 5082   2.577   2.674   4.836
 1713TIP3   OH2 5083   7.850   7.548   0.655
 1713TIP3    H1 5084   7.797   7.541   0.576
 1713TIP3    H2 5085   7.899   7.465   0.658
 1714TIP3   OH2 5086   0.167   1.073   5.939
 1714TIP3    H1 5087   0.167   1.034   5.852
 1714TIP3    H2 5088   0.181   0.999   5.999
 1715TIP3   OH2 5089   1.891   4.657   0.049
 1715TIP3    H1 5090   1.980   4.632   0.074
 1715TIP3    H2 5091   1.836   4.588   0.088
 1716TIP3   OH2 5092   7.838   2.422   2.404
 1716TIP3    H1 5093   7.904   2.450   2.467
 1716TIP3    H2 5094   7.886   2.365   2.344
 1717TIP3   OH2 5095   1.173   6.302   1.739
 1717TIP3    H1 5096   1.168   6.388   1.780
 1717TIP3    H2 5097   1.265   6.290   1.719
 1718TIP3   OH2 5098   1.371   7.174   3.184
 1718TIP3    H1 5099   1.434   7.173   3.255
 1718TIP3    H2 5100   1.422   7.201   3.107
 1719TIP3   OH2 5101   4.079   4.857   5.814
 1719TIP3    H1 5102   4.133   4.934   5.796
 1719TIP3    H2 5103   4.031   4.842   5.733
 1720TIP3   OH2 5104   1.038   2.039   5.784
 1720TIP3    H1 5105   0.970   2.012   5.845
 1720TIP3    H2 5106   1.118   2.001   5.820
 1721TIP3   OH2 5107   5.019   3.287   1.371
 1721TIP3    H1 5108   5.080   3.234   1.319
 1721TIP3    H2 5109   5.027   3.252   1.460
 1722TIP3   OH2 5110   1.495   2.834   6.333
 1722TIP3    H1 5111   1.442   2.879   6.400
 1722TIP3    H2 5112   1.583   2.870   6.344
 1723TIP3   OH2 5113   1.422   2.434   4.224
 1723TIP3    H1 5114   1.515   2.410   4.220
 1723TIP3    H2 5115   1.421   2.529   4.213
 1724TIP3   OH2 5116   6.010   6.857   3.800
 1724TIP3    H1 5117   6.045   6.898   3.721
 1724TIP3    H2 5118   6.080   6.868   3.865
 1725TIP3   OH2 5119   0.442   4.431   1.478
 1725TIP3    H1 5120   0.537   4.443   1.477
 1725TIP3    H2 5121   0.411   4.490   1.548
 1726TIP3   OH2 5122   1.370   5.781   6.631
 1726TIP3    H1 5123   1.326   5.732   6.562
 1726TIP3    H2 5124   1.441   5.827   6.587
 1727TIP3   OH2 5125   5.701   1.973   3.925
 1727TIP3    H1 5126   5.636   1.904   3.936
 1727TIP3    H2 5127   5.785   1.928   3.935
 1728TIP3   OH2 5128   1.699   5.896   0.056
 1728TIP3    H1 5129   1.789   5.888   0.087
 1728TIP3    H2 5130   1.660   5.810   0.071
 1729TIP3   OH2 5131   7.941   5.958   1.821
 1729TIP3    H1 5132   7.859   5.932   1.779
 1729TIP3    H2 5133   7.983   5.875   1.845
 1730TIP3   OH2 5134   5.669   0.577   0.357
 1730TIP3    H1 5135   5.706   0.511   0.298
 1730TIP3    H2 5136   5.684   0.660   0.312
 1731TIP3   OH2 5137   6.350   3.482   5.084
 1731TIP3    H1 5138   6.376   3.390   5.078
 1731TIP3    H2 5139   6.269   3.481   5.135
 1732TIP3   OH2 5140   8.227   2.481   2.152
 1732TIP3    H1 5141   8.180   2.416   2.099
 1732TIP3    H2 5142   8.300   2.509   2.097
 1733TIP3   OH2 5143   2.121   5.161   2.854
 1733TIP3    H1 5144   2.120   5.144   2.948
 1733TIP3    H2 5145   2.142   5.254   2.847
 1734TIP3   OH2 5146   3.395   2.684   4.756
 1734TIP3    H1 5147   3.362   2.735   4.829
 1734TIP3    H2 5148   3.354   2.598   4.766
 1735TIP3   OH2 5149   6.827   1.398   3.666
 1735TIP3    H1 5150   6.871   1.411   3.582
 1735TIP3    H2 5151   6.792   1.309   3.661
 1736TIP3   OH2 5152   4.000   4.764   5.573
 1736TIP3    H1 5153   3.977   4.718   5.492
 1736TIP3    H2 5154   4.094   4.776   5.569
 1737TIP3   OH2 5155   6.241   4.627   4.006
 1737TIP3    H1 5156   6.321   4.680   4.004
 1737TIP3    H2 5157   6.217   4.615   3.915
 1738TIP3   OH2 5158   0.464   4.323   6.749
 1738TIP3    H1 5159   0.559   4.320   6.755
 1738TIP3    H2 5160   0.443   4.271   6.671
 1739TIP3   OH2 5161   0.083   0.778   4.405
 1739TIP3    H1 5162   0.144   0.726   4.353
 1739TIP3    H2 5163   0.135   0.810   4.479
 1740TIP3   OH2 5164   2.464   4.535   0.828
 1740TIP3    H1 5165   2.483   4.584   0.748
 1740TIP3    H2 5166   2.463   4.443   0.801
 1741TIP3   OH2 5167   6.634   4.524   1.463
 1741TIP3    H1 5168   6.574   4.479   1.523
 1741TIP3    H2 5169   6.696   4.457   1.435
 1742TIP3   OH2 5170   0.939   2.579   0.404
 1742TIP3    H1 5171   0.973   2.631   0.331
 1742TIP3    H2 5172   0.956   2.488   0.379
 1743TIP3   OH2 5173   5.988   5.292   4.034
 1743TIP3    H1 5174   6.051   5.363   4.045
 1743TIP3    H2 5175   5.978   5.255   4.122
 1744TIP3   OH2 5176   1.365   5.323   2.708
 1744TIP3    H1 5177   1.405   5.330   2.795
 1744TIP3    H2 5178   1.290   5.264   2.720
 1745TIP3   OH2 5179   6.558   5.989   5.691
 1745TIP3    H1 5180   6.584   5.951   5.775
 1745TIP3    H2 5181   6.506   5.920   5.649
 1746TIP3   OH2 5182   2.482   0.488   6.456
 1746TIP3    H1 5183   2.413   0.511   6.518
 1746TIP3    H2 5184   2.478   0.392   6.450
 1747TIP3   OH2 5185   5.858   2.903   2.691
 1747TIP3    H1 5186   5.931   2.958   2.720
 1747TIP3    H2 5187   5.897   2.842   2.629
 1748TIP3   OH2 5188   2.866   7.389   2.246
 1748TIP3    H1 5189   2.917   7.311   2.266
 1748TIP3    H2 5190   2.774   7.360   2.250
 1749TIP3   OH2 5191   4.203   1.801   3.568
 1749TIP3    H1 5192   4.176   1.834   3.653
 1749TIP3    H2 5193   4.229   1.710   3.585
 1750TIP3   OH2 5194   3.075   4.950   5.868
 1750TIP3    H1 5195   3.021   5.028   5.860
 1750TIP3    H2 5196   3.099   4.947   5.961
 1751TIP3   OH2 5197   5.051   6.658   2.422
 1751TIP3    H1 5198   5.113   6.593   2.390
 1751TIP3    H2 5199   4.986   6.665   2.352
 1752TIP3   OH2 5200   1.734   0.773   2.286
 1752TIP3    H1 5201   1.703   0.846   2.339
 1752TIP3    H2 5202   1.817   0.803   2.249
 1753TIP3   OH2 5203   7.729  -0.011   1.722
 1753TIP3    H1 5204   7.726   0.068   1.775
 1753TIP3    H2 5205   7.789   0.010   1.650
 1754TIP3   OH2 5206   4.296   1.074   2.030
 1754TIP3    H1 5207   4.391   1.068   2.034
 1754TIP3    H2 5208   4.271   1.022   1.953
 1755TIP3   OH2 5209   0.531   6.202   5.134
 1755TIP3    H1 5210   0.446   6.189   5.175
 1755TIP3    H2 5211   0.517   6.273   5.071
 1756TIP3   OH2 5212   4.318   3.073   1.947
 1756TIP3    H1 5213   4.279   3.159   1.931
 1756TIP3    H2 5214   4.258   3.011   1.905
 1757TIP3   OH2 5215   0.802   0.416   6.659
 1757TIP3    H1 5216   0.712   0.402   6.691
 1757TIP3    H2 5217   0.834   0.490   6.710
 1758TIP3   OH2 5218   6.868   4.908   2.074
 1758TIP3    H1 5219   6.901   4.839   2.132
 1758TIP3    H2 5220   6.904   4.886   1.988
 1759TIP3   OH2 5221   4.563   1.895   5.091
 1759TIP3    H1 5222   4.595   1.892   5.000
 1759TIP3    H2 5223   4.562   1.804   5.119
 1760TIP3   OH2 5224   0.052   7.095   3.519
 1760TIP3    H1 5225   0.109   7.025   3.485
 1760TIP3    H2 5226  -0.027   7.049   3.548
 1761TIP3   OH2 5227   3.414   2.656   1.756
 1761TIP3    H1 5228   3.460   2.604   1.689
 1761TIP3    H2 5229   3.470   2.650   1.834
 1762TIP3   OH2 5230   6.748   7.222   5.032
 1762TIP3    H1 5231   6.673   7.252   4.981
 1762TIP3    H2 5232   6.805   7.299   5.036
 1763TIP3   OH2 5233   5.385   0.771   3.267
 1763TIP3    H1 5234   5.358   0.863   3.267
 1763TIP3    H2 5235   5.411   0.754   3.176
 1764TIP3   OH2 5236   0.163   6.382   5.574
 1764TIP3    H1 5237   0.155   6.343   5.661
 1764TIP3    H2 5238   0.246   6.430   5.578
 1765TIP3   OH2 5239   0.911   4.941   4.406
 1765TIP3    H1 5240   0.888   4.863   4.355
 1765TIP3    H2 5241   0.935   4.908   4.492
 1766TIP3   OH2 5242   5.443   2.560   2.110
 1766TIP3    H1 5243   5.462   2.499   2.181
 1766TIP3    H2 5244   5.422   2.642   2.153
 1767TIP3   OH2 5245   6.801   4.065   3.256
 1767TIP3    H1 5246   6.765   4.149   3.228
 1767TIP3    H2 5247   6.734   4.029   3.314
 1768TIP3   OH2 5248   1.446   7.652   3.587
 1768TIP3    H1 5249   1.390   7.576   3.569
 1768TIP3    H2 5250   1.525   7.636   3.536
 1769TIP3   OH2 5251   5.594   4.302   0.323
 1769TIP3    H1 5252   5.677   4.260   0.301
 1769TIP3    H2 5253   5.538   4.285   0.247
 1770TIP3   OH2 5254   2.137   6.485   5.619
 1770TIP3    H1 5255   2.091   6.455   5.541
 1770TIP3    H2 5256   2.086   6.560   5.650
 1771TIP3   OH2 5257   7.010   4.766   2.277
 1771TIP3    H1 5258   6.921   4.752   2.310
 1771TIP3    H2 5259   7.049   4.679   2.279
 1772TIP3   OH2 5260   0.485   7.130   0.635
 1772TIP3    H1 5261   0.535   7.210   0.628
 1772TIP3    H2 5262   0.514   7.076   0.561
 1773TIP3   OH2 5263   2.755   7.221   0.207
 1773TIP3    H1 5264   2.755   7.294   0.146
 1773TIP3    H2 5265   2.663   7.197   0.216
 1774TIP3   OH2 5266   1.460   6.807   0.057
 1774TIP3    H1 5267   1.474   6.823  -0.036
 1774TIP3    H2 5268   1.423   6.888   0.090
 1775TIP3   OH2 5269   6.508   7.291   1.763
 1775TIP3    H1 5270   6.597   7.325   1.758
 1775TIP3    H2 5271   6.474   7.298   1.674
 1776TIP3   OH2 5272   0.208   7.654   1.590
 1776TIP3    H1 5273   0.139   7.691   1.535
 1776TIP3    H2 5274   0.252   7.590   1.534
 1777TIP3   OH2 5275   4.579   1.908   1.132
 1777TIP3    H1 5276   4.517   1.905   1.204
 1777TIP3    H2 5277   4.659   1.944   1.171
 1778TIP3   OH2 5278   1.766   6.677   5.627
 1778TIP3    H1 5279   1.857   6.660   5.650
 1778TIP3    H2 5280   1.721   6.682   5.711
 1779TIP3   OH2 5281   6.620   5.133   5.637
 1779TIP3    H1 5282   6.628   5.050   5.683
 1779TIP3    H2 5283   6.534   5.167   5.663
 1780TIP3   OH2 5284   0.321   6.285   4.700
 1780TIP3    H1 5285   0.364   6.202   4.679
 1780TIP3    H2 5286   0.232   6.276   4.665
 1781TIP3   OH2 5287   3.536   5.742   3.164
 1781TIP3    H1 5288   3.539   5.681   3.091
 1781TIP3    H2 5289   3.471   5.705   3.224
 1782TIP3   OH2 5290   4.282   7.452   1.159
 1782TIP3    H1 5291   4.225   7.381   1.187
 1782TIP3    H2 5292   4.330   7.416   1.084
 1783TIP3   OH2 5293   4.437   3.560   6.070
 1783TIP3    H1 5294   4.498   3.486   6.067
 1783TIP3    H2 5295   4.493   3.637   6.066
 1784TIP3   OH2 5296   4.820   5.682   1.637
 1784TIP3    H1 5297   4.827   5.727   1.553
 1784TIP3    H2 5298   4.866   5.599   1.623
 1785TIP3   OH2 5299   6.369   4.741   6.181
 1785TIP3    H1 5300   6.394   4.649   6.177
 1785TIP3    H2 5301   6.402   4.771   6.266
 1786TIP3   OH2 5302   7.214   2.607   1.386
 1786TIP3    H1 5303   7.191   2.631   1.296
 1786TIP3    H2 5304   7.179   2.678   1.439
 1787TIP3   OH2 5305   6.941   3.391   4.354
 1787TIP3    H1 5306   6.853   3.424   4.369
 1787TIP3    H2 5307   6.942   3.367   4.261
 1788TIP3   OH2 5308   7.826   5.647   4.645
 1788TIP3    H1 5309   7.853   5.671   4.556
 1788TIP3    H2 5310   7.769   5.571   4.633
 1789TIP3   OH2 5311   6.366   3.264   2.444
 1789TIP3    H1 5312   6.318   3.314   2.509
 1789TIP3    H2 5313   6.380   3.326   2.372
 1790TIP3   OH2 5314   5.991   0.547   0.235
 1790TIP3    H1 5315   5.964   0.512   0.320
 1790TIP3    H2 5316   5.956   0.485   0.171
 1791TIP3   OH2 5317   3.512   6.243   1.444
 1791TIP3    H1 5318   3.552   6.211   1.525
 1791TIP3    H2 5319   3.583   6.288   1.398
 1792TIP3   OH2 5320   3.687   1.236   6.775
 1792TIP3    H1 5321   3.647   1.314   6.738
 1792TIP3    H2 5322   3.648   1.163   6.726
 1793TIP3   OH2 5323   3.654   1.151   0.829
 1793TIP3    H1 5324   3.666   1.069   0.877
 1793TIP3    H2 5325   3.698   1.135   0.745
 1794TIP3   OH2 5326   2.097   4.074   2.865
 1794TIP3    H1 5327   2.126   4.165   2.862
 1794TIP3    H2 5328   2.002   4.079   2.858
 1795TIP3   OH2 5329   0.694   5.307   1.544
 1795TIP3    H1 5330   0.649   5.232   1.584
 1795TIP3    H2 5331   0.754   5.338   1.612
 1796TIP3   OH2 5332   3.103   3.269   1.647
 1796TIP3    H1 5333   3.162   3.344   1.637
 1796TIP3    H2 5334   3.125   3.212   1.573
 1797TIP3   OH2 5335   3.695   1.198   1.799
 1797TIP3    H1 5336   3.711   1.198   1.704
 1797TIP3    H2 5337   3.773   1.239   1.836
 1798TIP3   OH2 5338   2.528   1.263   3.283
 1798TIP3    H1 5339   2.594   1.194   3.270
 1798TIP3    H2 5340   2.447   1.224   3.249
 1799TIP3   OH2 5341   3.816   6.802   6.009
 1799TIP3    H1 5342   3.854   6.870   6.065
 1799TIP3    H2 5343   3.750   6.760   6.065
 1800TIP3   OH2 5344   4.500   6.887   1.656
 1800TIP3    H1 5345   4.438   6.910   1.587
 1800TIP3    H2 5346   4.582   6.928   1.628
 1801TIP3   OH2 5347   0.414   4.921   1.087
 1801TIP3    H1 5348   0.411   4.988   1.018
 1801TIP3    H2 5349   0.502   4.930   1.124
 1802TIP3   OH2 5350   6.659   0.663   2.049
 1802TIP3    H1 5351   6.603   0.617   2.112
 1802TIP3    H2 5352   6.724   0.598   2.023
 1803TIP3   OH2 5353   4.638   5.424   1.720
 1803TIP3    H1 5354   4.689   5.343   1.710
 1803TIP3    H2 5355   4.629   5.457   1.631
 1804TIP3   OH2 5356   0.737   1.104   5.933
 1804TIP3    H1 5357   0.818   1.156   5.937
 1804TIP3    H2 5358   0.695   1.121   6.017
 1805TIP3   OH2 5359   0.981   7.081   1.942
 1805TIP3    H1 5360   0.915   7.057   1.877
 1805TIP3    H2 5361   0.947   7.046   2.024
 1806TIP3   OH2 5362   1.346   3.856   0.623
 1806TIP3    H1 5363   1.346   3.778   0.568
 1806TIP3    H2 5364   1.260   3.895   0.609
 1807TIP3   OH2 5365   1.355   7.368   0.736
 1807TIP3    H1 5366   1.263   7.368   0.762
 1807TIP3    H2 5367   1.366   7.449   0.687
 1808TIP3   OH2 5368   7.620   4.136   5.384
 1808TIP3    H1 5369   7.635   4.063   5.443
 1808TIP3    H2 5370   7.705   4.151   5.343
 1809TIP3   OH2 5371   0.518   1.144   2.705
 1809TIP3    H1 5372   0.441   1.152   2.761
 1809TIP3    H2 5373   0.589   1.183   2.756
 1810TIP3   OH2 5374   0.285   2.117   0.848
 1810TIP3    H1 5375   0.306   2.084   0.761
 1810TIP3    H2 5376   0.276   2.212   0.835
 1811TIP3   OH2 5377   4.080   2.511   4.671
 1811TIP3    H1 5378   4.157   2.540   4.622
 1811TIP3    H2 5379   4.103   2.527   4.763
 1812TIP3   OH2 5380   2.452   0.767   4.208
 1812TIP3    H1 5381   2.432   0.763   4.301
 1812TIP3    H2 5382   2.463   0.860   4.189
 1813TIP3   OH2 5383   0.513   2.244   4.885
 1813TIP3    H1 5384   0.476   2.159   4.861
 1813TIP3    H2 5385   0.505   2.248   4.980
 1814TIP3   OH2 5386   5.062   4.697   5.485
 1814TIP3    H1 5387   5.046   4.773   5.541
 1814TIP3    H2 5388   4.985   4.692   5.428
 1815TIP3   OH2 5389   4.299   7.478   6.352
 1815TIP3    H1 5390   4.378   7.531   6.353
 1815TIP3    H2 5391   4.253   7.505   6.273
 1816TIP3   OH2 5392   1.409   6.077   1.249
 1816TIP3    H1 5393   1.338   6.111   1.303
 1816TIP3    H2 5394   1.382   5.988   1.227
 1817TIP3   OH2 5395   0.701   6.149   1.600
 1817TIP3    H1 5396   0.652   6.182   1.675
 1817TIP3    H2 5397   0.663   6.195   1.525
 1818TIP3   OH2 5398   4.397   2.722   0.527
 1818TIP3    H1 5399   4.351   2.640   0.547
 1818TIP3    H2 5400   4.400   2.769   0.610
 1819TIP3   OH2 5401   8.253   5.607   5.072
 1819TIP3    H1 5402   8.311   5.639   5.002
 1819TIP3    H2 5403   8.165   5.627   5.040
 1820TIP3   OH2 5404   1.428   4.608   4.383
 1820TIP3    H1 5405   1.483   4.684   4.404
 1820TIP3    H2 5406   1.339   4.637   4.402
 1821TIP3   OH2 5407   5.832   1.929   6.766
 1821TIP3    H1 5408   5.751   1.901   6.723
 1821TIP3    H2 5409   5.902   1.897   6.710
 1822TIP3   OH2 5410   3.266   3.333   0.528
 1822TIP3    H1 5411   3.246   3.278   0.604
 1822TIP3    H2 5412   3.304   3.412   0.564
 1823TIP3   OH2 5413   5.196   1.016   4.484
 1823TIP3    H1 5414   5.282   1.049   4.459
 1823TIP3    H2 5415   5.180   0.942   4.427
 1824TIP3   OH2 5416   8.054   5.437   1.469
 1824TIP3    H1 5417   8.139   5.412   1.506
 1824TIP3    H2 5418   8.029   5.516   1.516
 1825TIP3   OH2 5419   5.080   6.383   5.004
 1825TIP3    H1 5420   5.051   6.431   4.927
 1825TIP3    H2 5421   5.020   6.411   5.073
 1826TIP3   OH2 5422   1.839   1.871   1.824
 1826TIP3    H1 5423   1.916   1.924   1.845
 1826TIP3    H2 5424   1.779   1.931   1.779
 1827TIP3   OH2 5425   3.275   0.036   0.836
 1827TIP3    H1 5426   3.226   0.003   0.761
 1827TIP3    H2 5427   3.265  -0.031   0.903
 1828TIP3   OH2 5428   7.813   4.914   5.028
 1828TIP3    H1 5429   7.792   4.825   4.999
 1828TIP3    H2 5430   7.770   4.922   5.113
 1829TIP3   OH2 5431   6.479   4.763   3.321
 1829TIP3    H1 5432   6.401   4.723   3.284
 1829TIP3    H2 5433   6.480   4.852   3.286
 1830TIP3   OH2 5434   1.630   1.213   5.864
 1830TIP3    H1 5435   1.697   1.210   5.795
 1830TIP3    H2 5436   1.563   1.151   5.835
 1831TIP3   OH2 5437   6.504   6.820   6.029
 1831TIP3    H1 5438   6.473   6.854   6.112
 1831TIP3    H2 5439   6.440   6.850   5.965
 1832TIP3   OH2 5440   0.295   1.921   2.637
 1832TIP3    H1 5441   0.231   1.991   2.619
 1832TIP3    H2 5442   0.274   1.852   2.574
 1833TIP3   OH2 5443   7.716   2.838   2.494
 1833TIP3    H1 5444   7.705   2.760   2.439
 1833TIP3    H2 5445   7.734   2.908   2.431
 1834TIP3   OH2 5446   0.879   3.702   2.380
 1834TIP3    H1 5447   0.903   3.712   2.472
 1834TIP3    H2 5448   0.894   3.609   2.362
 1835TIP3   OH2 5449   2.864   5.705   6.257
 1835TIP3    H1 5450   2.788   5.710   6.199
 1835TIP3    H2 5451   2.913   5.785   6.238
 1836TIP3   OH2 5452   6.076   5.088   1.197
 1836TIP3    H1 5453   6.139   5.103   1.268
 1836TIP3    H2 5454   6.037   5.174   1.182
 1837TIP3   OH2 5455   5.860   2.888   0.149
 1837TIP3    H1 5456   5.912   2.968   0.138
 1837TIP3    H2 5457   5.774   2.910   0.112
 1838TIP3   OH2 5458   4.527   6.457   3.410
 1838TIP3    H1 5459   4.449   6.406   3.388
 1838TIP3    H2 5460   4.499   6.515   3.480
 1839TIP3   OH2 5461   0.451   1.507   3.465
 1839TIP3    H1 5462   0.515   1.576   3.449
 1839TIP3    H2 5463   0.417   1.524   3.553
 1840TIP3   OH2 5464   4.133   6.766   2.580
 1840TIP3    H1 5465   4.158   6.678   2.607
 1840TIP3    H2 5466   4.061   6.790   2.638
 1841TIP3   OH2 5467   2.764   6.613   6.763
 1841TIP3    H1 5468   2.840   6.555   6.755
 1841TIP3    H2 5469   2.793   6.696   6.725
 1842TIP3   OH2 5470   2.277   6.482   4.816
 1842TIP3    H1 5471   2.281   6.399   4.768
 1842TIP3    H2 5472   2.233   6.459   4.898
 1843TIP3   OH2 5473   7.590   1.112   0.582
 1843TIP3    H1 5474   7.626   1.070   0.504
 1843TIP3    H2 5475   7.590   1.043   0.648
 1844TIP3   OH2 5476   6.557   3.521   1.822
 1844TIP3    H1 5477   6.472   3.543   1.860
 1844TIP3    H2 5478   6.598   3.463   1.887
 1845TIP3   OH2 5479   2.065   0.484   2.011
 1845TIP3    H1 5480   1.993   0.463   1.951
 1845TIP3    H2 5481   2.040   0.569   2.048
 1846TIP3   OH2 5482   5.916   4.300   5.355
 1846TIP3    H1 5483   5.887   4.289   5.446
 1846TIP3    H2 5484   5.926   4.395   5.345
 1847TIP3   OH2 5485   1.811   2.955   2.613
 1847TIP3    H1 5486   1.781   3.040   2.646
 1847TIP3    H2 5487   1.771   2.891   2.671
 1848TIP3   OH2 5488   5.617   4.899   5.211
 1848TIP3    H1 5489   5.543   4.864   5.260
 1848TIP3    H2 5490   5.642   4.829   5.151
 1849TIP3   OH2 5491   4.387   2.996   3.121
 1849TIP3    H1 5492   4.435   2.995   3.204
 1849TIP3    H2 5493   4.422   3.072   3.074
 1850TIP3   OH2 5494   7.066   7.239   5.576
 1850TIP3    H1 5495   6.981   7.201   5.559
 1850TIP3    H2 5496   7.058   7.278   5.663
 1851TIP3   OH2 5497   0.691   3.417   3.860
 1851TIP3    H1 5498   0.714   3.460   3.943
 1851TIP3    H2 5499   0.662   3.330   3.886
 1852TIP3   OH2 5500   4.906   4.493   0.765
 1852TIP3    H1 5501   4.988   4.477   0.812
 1852TIP3    H2 5502   4.838   4.470   0.828
 1853TIP3   OH2 5503   1.046   6.121   1.891
 1853TIP3    H1 5504   1.098   6.191   1.851
 1853TIP3    H2 5505   0.956   6.138   1.863
 1854TIP3   OH2 5506   8.112   5.453   2.650
 1854TIP3    H1 5507   8.073   5.431   2.735
 1854TIP3    H2 5508   8.191   5.400   2.645
 1855TIP3   OH2 5509   6.756   6.956   4.791
 1855TIP3    H1 5510   6.816   7.009   4.739
 1855TIP3    H2 5511   6.679   6.945   4.735
 1856TIP3   OH2 5512   7.323   3.844   2.405
 1856TIP3    H1 5513   7.283   3.799   2.479
 1856TIP3    H2 5514   7.249   3.883   2.358
 1857TIP3   OH2 5515   3.948   5.511   6.291
 1857TIP3    H1 5516   4.027   5.536   6.243
 1857TIP3    H2 5517   3.942   5.574   6.362
 1858TIP3   OH2 5518   3.356   2.963   6.553
 1858TIP3    H1 5519   3.346   3.035   6.615
 1858TIP3    H2 5520   3.267   2.931   6.539
 1859TIP3   OH2 5521   2.698   1.663   5.093
 1859TIP3    H1 5522   2.701   1.628   5.004
 1859TIP3    H2 5523   2.648   1.744   5.085
 1860TIP3   OH2 5524   3.308   7.362   6.312
 1860TIP3    H1 5525   3.278   7.291   6.255
 1860TIP3    H2 5526   3.389   7.392   6.272
 1861TIP3   OH2 5527   3.091   2.125   5.863
 1861TIP3    H1 5528   3.030   2.104   5.933
 1861TIP3    H2 5529   3.047   2.194   5.813
 1862TIP3   OH2 5530   4.836   5.332   5.202
 1862TIP3    H1 5531   4.863   5.317   5.293
 1862TIP3    H2 5532   4.764   5.270   5.188
 1863TIP3   OH2 5533   4.916   0.309   6.594
 1863TIP3    H1 5534   4.952   0.226   6.562
 1863TIP3    H2 5535   4.920   0.368   6.519
 1864TIP3   OH2 5536   5.757   6.048   5.058
 1864TIP3    H1 5537   5.802   5.963   5.060
 1864TIP3    H2 5538   5.720   6.057   5.145
 1865TIP3   OH2 5539   1.628   7.382   3.732
 1865TIP3    H1 5540   1.646   7.470   3.700
 1865TIP3    H2 5541   1.714   7.342   3.745
 1866TIP3   OH2 5542   2.405   6.023   0.452
 1866TIP3    H1 5543   2.476   5.966   0.481
 1866TIP3    H2 5544   2.418   6.030   0.357
 1867TIP3   OH2 5545   6.734   0.006   4.698
 1867TIP3    H1 5546   6.774   0.080   4.743
 1867TIP3    H2 5547   6.773   0.006   4.611
 1868TIP3   OH2 5548   8.170   5.117   3.019
 1868TIP3    H1 5549   8.232   5.121   2.946
 1868TIP3    H2 5550   8.222   5.138   3.096
 1869TIP3   OH2 5551   5.775   3.554   5.951
 1869TIP3    H1 5552   5.849   3.599   5.991
 1869TIP3    H2 5553   5.698   3.589   5.997
 1870TIP3   OH2 5554   6.157   1.147   2.648
 1870TIP3    H1 5555   6.207   1.196   2.583
 1870TIP3    H2 5556   6.195   1.059   2.645
 1871TIP3   OH2 5557   4.850   7.392   2.992
 1871TIP3    H1 5558   4.769   7.381   2.943
 1871TIP3    H2 5559   4.907   7.322   2.959
 1872TIP3   OH2 5560   0.850   7.533   1.592
 1872TIP3    H1 5561   0.791   7.469   1.630
 1872TIP3    H2 5562   0.926   7.482   1.563
 1873TIP3   OH2 5563   0.209   4.076   0.257
 1873TIP3    H1 5564   0.141   4.016   0.286
 1873TIP3    H2 5565   0.171   4.120   0.181
 1874TIP3   OH2 5566   6.525   0.400   0.977
 1874TIP3    H1 5567   6.497   0.331   0.917
 1874TIP3    H2 5568   6.572   0.462   0.922
 1875TIP3   OH2 5569   0.094   6.945   6.751
 1875TIP3    H1 5570   0.070   6.900   6.832
 1875TIP3    H2 5571   0.012   6.976   6.714
 1876TIP3   OH2 5572   7.660   1.550   6.599
 1876TIP3    H1 5573   7.748   1.585   6.588
 1876TIP3    H2 5574   7.609   1.594   6.530
 1877TIP3   OH2 5575   8.197   2.010   0.427
 1877TIP3    H1 5576   8.165   2.054   0.348
 1877TIP3    H2 5577   8.181   2.073   0.497
 1878TIP3   OH2 5578   7.452   0.928   2.327
 1878TIP3    H1 5579   7.442   0.835   2.308
 1878TIP3    H2 5580   7.386   0.946   2.394
 1879TIP3   OH2 5581   5.481   4.665   5.851
 1879TIP3    H1 5582   5.441   4.607   5.785
 1879TIP3    H2 5583   5.428   4.653   5.929
 1880TIP3   OH2 5584   1.678   1.832   0.739
 1880TIP3    H1 5585   1.602   1.806   0.790
 1880TIP3    H2 5586   1.642   1.880   0.664
 1881TIP3   OH2 5587   0.325   0.127   2.767
 1881TIP3    H1 5588   0.239   0.092   2.743
 1881TIP3    H2 5589   0.376   0.051   2.794
 1882TIP3   OH2 5590   4.357   2.110   5.017
 1882TIP3    H1 5591   4.385   2.030   5.061
 1882TIP3    H2 5592   4.365   2.178   5.084
 1883TIP3   OH2 5593   3.251   7.610   0.914
 1883TIP3    H1 5594   3.279   7.543   0.851
 1883TIP3    H2 5595   3.257   7.568   0.999
 1884TIP3   OH2 5596   3.612   7.657   2.753
 1884TIP3    H1 5597   3.693   7.707   2.749
 1884TIP3    H2 5598   3.638   7.566   2.737
 1885TIP3   OH2 5599   6.207   2.233   1.579
 1885TIP3    H1 5600   6.149   2.241   1.503
 1885TIP3    H2 5601   6.273   2.168   1.552
 1886TIP3   OH2 5602   4.082   2.859   3.175
 1886TIP3    H1 5603   4.109   2.846   3.266
 1886TIP3    H2 5604   4.162   2.845   3.125
 1887TIP3   OH2 5605   3.962   4.576   3.512
 1887TIP3    H1 5606   3.955   4.513   3.584
 1887TIP3    H2 5607   3.992   4.524   3.438
 1888TIP3   OH2 5608   7.567   2.390   3.224
 1888TIP3    H1 5609   7.632   2.429   3.283
 1888TIP3    H2 5610   7.598   2.301   3.211
 1889TIP3   OH2 5611   4.321   5.268   6.096
 1889TIP3    H1 5612   4.380   5.207   6.052
 1889TIP3    H2 5613   4.263   5.212   6.148
 1890TIP3   OH2 5614   5.877   5.233   6.749
 1890TIP3    H1 5615   5.907   5.146   6.723
 1890TIP3    H2 5616   5.788   5.219   6.783
 1891TIP3   OH2 5617   4.516   6.242   3.162
 1891TIP3    H1 5618   4.504   6.147   3.158
 1891TIP3    H2 5619   4.494   6.265   3.252
 1892TIP3   OH2 5620   4.435   6.814   0.383
 1892TIP3    H1 5621   4.353   6.764   0.386
 1892TIP3    H2 5622   4.484   6.775   0.311
 1893TIP3   OH2 5623   3.416   3.633   0.281
 1893TIP3    H1 5624   3.344   3.609   0.223
 1893TIP3    H2 5625   3.389   3.716   0.321
 1894TIP3   OH2 5626   6.854   1.748   3.897
 1894TIP3    H1 5627   6.806   1.826   3.925
 1894TIP3    H2 5628   6.900   1.718   3.975
 1895TIP3   OH2 5629   7.571   3.079   4.903
 1895TIP3    H1 5630   7.586   3.054   4.994
 1895TIP3    H2 5631   7.517   3.158   4.907
 1896TIP3   OH2 5632   4.977   3.397   5.633
 1896TIP3    H1 5633   5.055   3.384   5.686
 1896TIP3    H2 5634   4.905   3.364   5.686
 1897TIP3   OH2 5635   3.580   7.348   0.014
 1897TIP3    H1 5636   3.665   7.356   0.056
 1897TIP3    H2 5637   3.583   7.409  -0.060
 1898TIP3   OH2 5638   3.606   4.298   2.184
 1898TIP3    H1 5639   3.597   4.347   2.102
 1898TIP3    H2 5640   3.614   4.365   2.252
 1899TIP3   OH2 5641   6.956   4.496   4.104
 1899TIP3    H1 5642   7.038   4.446   4.101
 1899TIP3    H2 5643   6.978   4.580   4.064
 1900TIP3   OH2 5644   0.246   3.062   2.634
 1900TIP3    H1 5645   0.232   2.984   2.580
 1900TIP3    H2 5646   0.159   3.101   2.643
 1901TIP3   OH2 5647   2.609   5.699   5.046
 1901TIP3    H1 5648   2.687   5.732   5.089
 1901TIP3    H2 5649   2.538   5.755   5.078
 1902TIP3   OH2 5650   3.606   5.858   0.357
 1902TIP3    H1 5651   3.547   5.926   0.326
 1902TIP3    H2 5652   3.690   5.879   0.317
 1903TIP3   OH2 5653   5.807   1.072   6.324
 1903TIP3    H1 5654   5.768   0.987   6.343
 1903TIP3    H2 5655   5.899   1.052   6.303
 1904TIP3   OH2 5656   4.640   0.882   1.149
 1904TIP3    H1 5657   4.631   0.944   1.077
 1904TIP3    H2 5658   4.574   0.909   1.213
 1905TIP3   OH2 5659   7.781   4.313   0.615
 1905TIP3    H1 5660   7.758   4.224   0.641
 1905TIP3    H2 5661   7.820   4.305   0.528
 1906TIP3   OH2 5662   6.050   0.233   4.103
 1906TIP3    H1 5663   6.144   0.224   4.119
 1906TIP3    H2 5664   6.044   0.279   4.019
 1907TIP3   OH2 5665   4.899   5.289   0.032
 1907TIP3    H1 5666   4.829   5.285   0.097
 1907TIP3    H2 5667   4.860   5.336  -0.042
 1908TIP3   OH2 5668   2.213   1.389   5.208
 1908TIP3    H1 5669   2.155   1.436   5.268
 1908TIP3    H2 5670   2.159   1.318   5.173
 1909TIP3   OH2 5671   5.092   7.626   5.110
 1909TIP3    H1 5672   5.166   7.573   5.139
 1909TIP3    H2 5673   5.129   7.712   5.092
 1910TIP3   OH2 5674   0.736   6.456   5.996
 1910TIP3    H1 5675   0.752   6.485   5.906
 1910TIP3    H2 5676   0.640   6.446   6.000
 1911TIP3   OH2 5677   3.936   2.209   2.301
 1911TIP3    H1 5678   3.928   2.301   2.275
 1911TIP3    H2 5679   3.893   2.204   2.386
 1912TIP3   OH2 5680   3.741   0.442   6.149
 1912TIP3    H1 5681   3.805   0.459   6.080
 1912TIP3    H2 5682   3.677   0.382   6.109
 1913TIP3   OH2 5683   6.161   1.747   2.023
 1913TIP3    H1 5684   6.174   1.799   1.944
 1913TIP3    H2 5685   6.215   1.670   2.010
 1914TIP3   OH2 5686   0.389   7.676   3.478
 1914TIP3    H1 5687   0.324   7.727   3.430
 1914TIP3    H2 5688   0.405   7.728   3.557
 1915TIP3   OH2 5689   5.618   7.055   0.583
 1915TIP3    H1 5690   5.554   7.035   0.652
 1915TIP3    H2 5691   5.565   7.091   0.512
 1916TIP3   OH2 5692   7.349   7.823   2.488
 1916TIP3    H1 5693   7.319   7.803   2.400
 1916TIP3    H2 5694   7.415   7.757   2.508
 1917TIP3   OH2 5695   2.443   3.732   4.979
 1917TIP3    H1 5696   2.372   3.735   5.044
 1917TIP3    H2 5697   2.514   3.686   5.023
 1918TIP3   OH2 5698   3.224   0.175   0.252
 1918TIP3    H1 5699   3.135   0.172   0.216
 1918TIP3    H2 5700   3.281   0.169   0.175
 1919TIP3   OH2 5701   3.685   6.363   4.443
 1919TIP3    H1 5702   3.754   6.423   4.472
 1919TIP3    H2 5703   3.641   6.337   4.524
 1920TIP3   OH2 5704   6.096   1.814   1.327
 1920TIP3    H1 5705   6.030   1.762   1.280
 1920TIP3    H2 5706   6.053   1.898   1.342
 1921TIP3   OH2 5707   0.429   0.910   0.040
 1921TIP3    H1 5708   0.422   0.815   0.027
 1921TIP3    H2 5709   0.516   0.932   0.009
 1922TIP3   OH2 5710   7.253   6.102   6.134
 1922TIP3    H1 5711   7.173   6.053   6.149
 1922TIP3    H2 5712   7.250   6.126   6.041
 1923TIP3   OH2 5713   4.408   2.085   2.174
 1923TIP3    H1 5714   4.356   2.165   2.180
 1923TIP3    H2 5715   4.452   2.079   2.258
 1924TIP3   OH2 5716   4.475   6.705   5.547
 1924TIP3    H1 5717   4.443   6.657   5.471
 1924TIP3    H2 5718   4.503   6.789   5.512
 1925TIP3   OH2 5719   1.995   3.009   0.134
 1925TIP3    H1 5720   1.982   3.102   0.115
 1925TIP3    H2 5721   1.913   2.968   0.108
 1926TIP3   OH2 5722   7.717   1.277   4.736
 1926TIP3    H1 5723   7.772   1.200   4.752
 1926TIP3    H2 5724   7.736   1.336   4.810
 1927TIP3   OH2 5725   6.645   7.602   0.901
 1927TIP3    H1 5726   6.721   7.575   0.953
 1927TIP3    H2 5727   6.682   7.658   0.833
 1928TIP3   OH2 5728   4.865   6.383   4.609
 1928TIP3    H1 5729   4.895   6.442   4.540
 1928TIP3    H2 5730   4.923   6.400   4.682
 1929TIP3   OH2 5731   3.892   2.167   0.521
 1929TIP3    H1 5732   3.971   2.157   0.575
 1929TIP3    H2 5733   3.822   2.129   0.574
 1930TIP3   OH2 5734   8.048   0.542   6.305
 1930TIP3    H1 5735   8.072   0.624   6.348
 1930TIP3    H2 5736   8.075   0.555   6.214
 1931TIP3   OH2 5737   7.458   6.689   3.521
 1931TIP3    H1 5738   7.554   6.690   3.519
 1931TIP3    H2 5739   7.436   6.708   3.612
 1932TIP3   OH2 5740   2.794   5.293   4.525
 1932TIP3    H1 5741   2.810   5.385   4.506
 1932TIP3    H2 5742   2.878   5.250   4.510
 1933TIP3   OH2 5743   2.203   5.279   5.536
 1933TIP3    H1 5744   2.240   5.346   5.593
 1933TIP3    H2 5745   2.268   5.266   5.467
 1934TIP3   OH2 5746   4.693   5.662   2.524
 1934TIP3    H1 5747   4.778   5.621   2.508
 1934TIP3    H2 5748   4.642   5.643   2.445
 1935TIP3   OH2 5749   5.733   7.733   0.358
 1935TIP3    H1 5750   5.715   7.729   0.264
 1935TIP3    H2 5751   5.696   7.652   0.393
 1936TIP3   OH2 5752   0.920   2.499   1.963
 1936TIP3    H1 5753   0.851   2.439   1.992
 1936TIP3    H2 5754   0.889   2.586   1.989
 1937TIP3   OH2 5755   1.047   5.086   1.966
 1937TIP3    H1 5756   1.067   4.994   1.948
 1937TIP3    H2 5757   1.112   5.112   2.032
 1938TIP3   OH2 5758   7.075   2.836   1.265
 1938TIP3    H1 5759   7.066   2.895   1.340
 1938TIP3    H2 5760   6.991   2.843   1.219
 1939TIP3   OH2 5761   0.039   6.001   0.611
 1939TIP3    H1 5762   0.005   6.090   0.610
 1939TIP3    H2 5763   0.008   5.964   0.694
 1940TIP3   OH2 5764   6.041   6.630   6.322
 1940TIP3    H1 5765   6.074   6.712   6.285
 1940TIP3    H2 5766   6.039   6.569   6.249
 1941TIP3   OH2 5767   4.667   3.734   6.101
 1941TIP3    H1 5768   4.750   3.691   6.119
 1941TIP3    H2 5769   4.672   3.817   6.147
 1942TIP3   OH2 5770   5.378   1.946   1.666
 1942TIP3    H1 5771   5.326   1.957   1.745
 1942TIP3    H2 5772   5.388   1.852   1.656
 1943TIP3   OH2 5773   2.610   0.589   5.650
 1943TIP3    H1 5774   2.672   0.600   5.578
 1943TIP3    H2 5775   2.662   0.602   5.729
 1944TIP3   OH2 5776   3.146   2.563   2.363
 1944TIP3    H1 5777   3.179   2.548   2.452
 1944TIP3    H2 5778   3.167   2.483   2.316
 1945TIP3   OH2 5779   3.122   3.286   4.002
 1945TIP3    H1 5780   3.169   3.203   4.006
 1945TIP3    H2 5781   3.070   3.281   3.922
 1946TIP3   OH2 5782   3.824   6.889   4.242
 1946TIP3    H1 5783   3.875   6.970   4.243
 1946TIP3    H2 5784   3.881   6.826   4.197
 1947TIP3   OH2 5785   1.318   6.529   0.527
 1947TIP3    H1 5786   1.410   6.506   0.538
 1947TIP3    H2 5787   1.314   6.575   0.443
 1948TIP3   OH2 5788   6.037   3.193   0.904
 1948TIP3    H1 5789   6.095   3.202   0.829
 1948TIP3    H2 5790   5.974   3.126   0.877
 1949TIP3   OH2 5791   3.494   1.163   1.990
 1949TIP3    H1 5792   3.452   1.247   2.009
 1949TIP3    H2 5793   3.547   1.179   1.912
 1950TIP3   OH2 5794   3.263   5.048   4.055
 1950TIP3    H1 5795   3.270   4.997   3.975
 1950TIP3    H2 5796   3.336   5.110   4.050
 1951TIP3   OH2 5797   4.682   6.625   5.700
 1951TIP3    H1 5798   4.602   6.649   5.654
 1951TIP3    H2 5799   4.687   6.530   5.694
 1952TIP3   OH2 5800   4.604   0.618   3.845
 1952TIP3    H1 5801   4.669   0.604   3.914
 1952TIP3    H2 5802   4.654   0.655   3.772
 1953TIP3   OH2 5803   1.646   3.467   1.040
 1953TIP3    H1 5804   1.696   3.478   0.959
 1953TIP3    H2 5805   1.659   3.375   1.065
 1954TIP3   OH2 5806   3.726   7.107   5.939
 1954TIP3    H1 5807   3.675   7.061   6.005
 1954TIP3    H2 5808   3.704   7.064   5.856
 1955TIP3   OH2 5809   3.273   2.035   6.203
 1955TIP3    H1 5810   3.281   2.055   6.296
 1955TIP3    H2 5811   3.269   2.121   6.160
 1956TIP3   OH2 5812   7.472   2.866   1.814
 1956TIP3    H1 5813   7.490   2.785   1.861
 1956TIP3    H2 5814   7.558   2.894   1.782
 1957TIP3   OH2 5815   4.759   1.463   5.672
 1957TIP3    H1 5816   4.776   1.376   5.637
 1957TIP3    H2 5817   4.749   1.518   5.595
 1958TIP3   OH2 5818   7.877   2.296   1.808
 1958TIP3    H1 5819   7.863   2.279   1.901
 1958TIP3    H2 5820   7.935   2.373   1.807
 1959TIP3   OH2 5821   5.749   2.660   2.426
 1959TIP3    H1 5822   5.696   2.600   2.479
 1959TIP3    H2 5823   5.691   2.734   2.408
 1960TIP3   OH2 5824   5.077   4.191   0.637
 1960TIP3    H1 5825   5.128   4.240   0.573
 1960TIP3    H2 5826   5.142   4.143   0.689
 1961TIP3   OH2 5827   5.058   2.229   2.090
 1961TIP3    H1 5828   4.971   2.229   2.050
 1961TIP3    H2 5829   5.088   2.320   2.081
 1962TIP3   OH2 5830   1.613   7.032   5.894
 1962TIP3    H1 5831   1.596   6.940   5.917
 1962TIP3    H2 5832   1.536   7.059   5.845
 1963TIP3   OH2 5833   2.322   7.451   6.428
 1963TIP3    H1 5834   2.347   7.464   6.336
 1963TIP3    H2 5835   2.398   7.408   6.467
 1964TIP3   OH2 5836   3.105   4.210   5.305
 1964TIP3    H1 5837   3.053   4.201   5.225
 1964TIP3    H2 5838   3.195   4.224   5.273
 1965TIP3   OH2 5839   0.559   1.217   0.977
 1965TIP3    H1 5840   0.641   1.179   1.010
 1965TIP3    H2 5841   0.566   1.310   0.998
 1966TIP3   OH2 5842   5.903   6.291   1.872
 1966TIP3    H1 5843   5.858   6.375   1.885
 1966TIP3    H2 5844   5.991   6.306   1.907
 1967TIP3   OH2 5845   1.102   3.064   4.842
 1967TIP3    H1 5846   1.191   3.030   4.853
 1967TIP3    H2 5847   1.092   3.075   4.747
 1968TIP3   OH2 5848   0.046   4.505   5.979
 1968TIP3    H1 5849   0.131   4.462   5.975
 1968TIP3    H2 5850   0.045   4.548   6.065
 1969TIP3   OH2 5851   1.503   4.261   2.781
 1969TIP3    H1 5852   1.560   4.292   2.851
 1969TIP3    H2 5853   1.524   4.318   2.707
 1970TIP3   OH2 5854   6.978   1.617   3.156
 1970TIP3    H1 5855   6.918   1.690   3.143
 1970TIP3    H2 5856   6.967   1.563   3.077
 1971TIP3   OH2 5857   3.019   1.240   4.704
 1971TIP3    H1 5858   2.976   1.162   4.668
 1971TIP3    H2 5859   3.044   1.291   4.627
 1972TIP3   OH2 5860   3.292   3.629   1.365
 1972TIP3    H1 5861   3.301   3.715   1.408
 1972TIP3    H2 5862   3.306   3.566   1.436
 1973TIP3   OH2 5863   4.690   6.072   3.715
 1973TIP3    H1 5864   4.706   6.140   3.649
 1973TIP3    H2 5865   4.693   5.990   3.666
 1974TIP3   OH2 5866   6.208   4.777   0.196
 1974TIP3    H1 5867   6.137   4.784   0.260
 1974TIP3    H2 5868   6.256   4.859   0.204
 1975TIP3   OH2 5869   0.259   4.098   5.155
 1975TIP3    H1 5870   0.241   4.008   5.181
 1975TIP3    H2 5871   0.333   4.092   5.095
 1976TIP3   OH2 5872   7.270   2.363   4.479
 1976TIP3    H1 5873   7.281   2.444   4.530
 1976TIP3    H2 5874   7.207   2.387   4.411
 1977TIP3   OH2 5875   4.347   2.724   2.358
 1977TIP3    H1 5876   4.333   2.818   2.359
 1977TIP3    H2 5877   4.442   2.714   2.363
 1978TIP3   OH2 5878   1.205   1.617   0.609
 1978TIP3    H1 5879   1.204   1.601   0.515
 1978TIP3    H2 5880   1.222   1.532   0.648
 1979TIP3   OH2 5881   1.926   1.759   6.219
 1979TIP3    H1 5882   1.856   1.811   6.257
 1979TIP3    H2 5883   1.944   1.801   6.135
 1980TIP3   OH2 5884   2.893   3.731   4.247
 1980TIP3    H1 5885   2.951   3.677   4.193
 1980TIP3    H2 5886   2.849   3.668   4.305
 1981TIP3   OH2 5887   3.279   1.803   6.083
 1981TIP3    H1 5888   3.282   1.875   6.146
 1981TIP3    H2 5889   3.311   1.841   6.002
 1982TIP3   OH2 5890   5.343   0.854   0.853
 1982TIP3    H1 5891   5.259   0.840   0.898
 1982TIP3    H2 5892   5.368   0.943   0.878
 1983TIP3   OH2 5893   1.521   5.417   1.177
 1983TIP3    H1 5894   1.565   5.342   1.136
 1983TIP3    H2 5895   1.571   5.493   1.148
 1984TIP3   OH2 5896   6.414   0.816   4.614
 1984TIP3    H1 5897   6.406   0.894   4.668
 1984TIP3    H2 5898   6.324   0.788   4.598
 1985TIP3   OH2 5899   6.441   0.803   3.110
 1985TIP3    H1 5900   6.481   0.867   3.169
 1985TIP3    H2 5901   6.380   0.754   3.166
 1986TIP3   OH2 5902   5.329   7.190   4.264
 1986TIP3    H1 5903   5.291   7.131   4.199
 1986TIP3    H2 5904   5.346   7.134   4.340
 1987TIP3   OH2 5905   1.967   6.681   3.423
 1987TIP3    H1 5906   1.899   6.703   3.487
 1987TIP3    H2 5907   1.925   6.621   3.363
 1988TIP3   OH2 5908   1.577   7.454   5.325
 1988TIP3    H1 5909   1.580   7.481   5.417
 1988TIP3    H2 5910   1.597   7.533   5.276
 1989TIP3   OH2 5911   7.689   1.830   5.744
 1989TIP3    H1 5912   7.599   1.798   5.735
 1989TIP3    H2 5913   7.730   1.810   5.660
 1990TIP3   OH2 5914   4.122   3.474   6.521
 1990TIP3    H1 5915   4.039   3.457   6.567
 1990TIP3    H2 5916   4.097   3.527   6.446
 1991TIP3   OH2 5917   6.131   0.631   5.289
 1991TIP3    H1 5918   6.175   0.708   5.326
 1991TIP3    H2 5919   6.193   0.559   5.303
 1992TIP3   OH2 5920   3.781   6.528   3.473
 1992TIP3    H1 5921   3.726   6.575   3.536
 1992TIP3    H2 5922   3.839   6.474   3.527
 1993TIP3   OH2 5923   7.835   6.132   1.979
 1993TIP3    H1 5924   7.741   6.111   1.974
 1993TIP3    H2 5925   7.872   6.095   1.899
 1994TIP3   OH2 5926   0.965   4.870   0.499
 1994TIP3    H1 5927   1.008   4.786   0.514
 1994TIP3    H2 5928   0.873   4.848   0.483
 1995TIP3   OH2 5929   5.599   4.082   2.156
 1995TIP3    H1 5930   5.635   4.170   2.144
 1995TIP3    H2 5931   5.524   4.094   2.214
 1996TIP3   OH2 5932   4.107   5.518   2.480
 1996TIP3    H1 5933   4.091   5.498   2.572
 1996TIP3    H2 5934   4.070   5.605   2.468
 1997TIP3   OH2 5935   1.513   4.767   0.846
 1997TIP3    H1 5936   1.451   4.828   0.886
 1997TIP3    H2 5937   1.481   4.754   0.757
 1998TIP3   OH2 5938   3.924   6.525   6.669
 1998TIP3    H1 5939   3.928   6.517   6.765
 1998TIP3    H2 5940   3.986   6.459   6.638
 1999TIP3   OH2 5941   4.991   5.433   2.904
 1999TIP3    H1 5942   4.904   5.434   2.864
 1999TIP3    H2 5943   5.026   5.346   2.883
 2000TIP3   OH2 5944   1.417   0.290   1.219
 2000TIP3    H1 5945   1.425   0.221   1.153
 2000TIP3    H2 5946   1.506   0.325   1.226
 2001TIP3   OH2 5947   6.091   7.605   2.795
 2001TIP3    H1 5948   6.089   7.519   2.838
 2001TIP3    H2 5949   6.168   7.602   2.738
 2002TIP3   OH2 5950   0.219   0.316   6.608
 2002TIP3    H1 5951   0.165   0.393   6.629
 2002TIP3    H2 5952   0.209   0.259   6.685
 2003TIP3   OH2 5953   5.431   7.057   5.619
 2003TIP3    H1 5954   5.501   7.112   5.655
 2003TIP3    H2 5955   5.380   7.031   5.695
 2004TIP3   OH2 5956   6.807   4.795   1.453
 2004TIP3    H1 5957   6.778   4.707   1.428
 2004TIP3    H2 5958   6.896   4.783   1.484
 2005TIP3   OH2 5959   1.930   1.397   2.070
 2005TIP3    H1 5960   2.003   1.342   2.041
 2005TIP3    H2 5961   1.872   1.402   1.994
 2006TIP3   OH2 5962   3.376   3.322   3.439
 2006TIP3    H1 5963   3.368   3.280   3.354
 2006TIP3    H2 5964   3.296   3.298   3.486
 2007TIP3   OH2 5965   8.157   4.847   4.822
 2007TIP3    H1 5966   8.082   4.887   4.779
 2007TIP3    H2 5967   8.182   4.774   4.765
 2008TIP3   OH2 5968   7.181   3.851   6.483
 2008TIP3    H1 5969   7.204   3.910   6.411
 2008TIP3    H2 5970   7.252   3.861   6.546
 2009TIP3   OH2 5971   6.704   1.882   1.641
 2009TIP3    H1 5972   6.636   1.827   1.678
 2009TIP3    H2 5973   6.786   1.847   1.676
 2010TIP3   OH2 5974   6.106   5.010   0.389
 2010TIP3    H1 5975   6.048   5.019   0.314
 2010TIP3    H2 5976   6.058   4.954   0.450
 2011TIP3   OH2 5977   4.827   6.850   0.584
 2011TIP3    H1 5978   4.847   6.811   0.499
 2011TIP3    H2 5979   4.734   6.872   0.580
 2012TIP3   OH2 5980   6.325   3.995   5.286
 2012TIP3    H1 5981   6.368   4.043   5.357
 2012TIP3    H2 5982   6.233   3.994   5.310
 2013TIP3   OH2 5983   5.662   6.225   6.334
 2013TIP3    H1 5984   5.674   6.272   6.252
 2013TIP3    H2 5985   5.651   6.294   6.400
 2014TIP3   OH2 5986   4.161   1.313   5.820
 2014TIP3    H1 5987   4.086   1.271   5.778
 2014TIP3    H2 5988   4.188   1.381   5.758
 2015TIP3   OH2 5989   7.509   0.583   5.533
 2015TIP3    H1 5990   7.599   0.578   5.501
 2015TIP3    H2 5991   7.469   0.653   5.481
 2016TIP3   OH2 5992   2.482   6.181   0.712
 2016TIP3    H1 5993   2.566   6.136   0.714
 2016TIP3    H2 5994   2.467   6.210   0.802
 2017TIP3   OH2 5995   7.516   7.494   0.860
 2017TIP3    H1 5996   7.527   7.422   0.923
 2017TIP3    H2 5997   7.433   7.535   0.884
 2018TIP3   OH2 5998   5.161   6.405   2.275
 2018TIP3    H1 5999   5.144   6.313   2.293
 2018TIP3    H2 6000   5.256   6.415   2.288
 2019TIP3   OH2 6001   2.932   6.011   3.861
 2019TIP3    H1 6002   2.968   5.985   3.945
 2019TIP3    H2 6003   2.993   5.975   3.796
 2020TIP3   OH2 6004   1.511   6.344   3.760
 2020TIP3    H1 6005   1.569   6.417   3.740
 2020TIP3    H2 6006   1.436   6.356   3.702
 2021TIP3   OH2 6007   3.493   0.482   0.628
 2021TIP3    H1 6008   3.428   0.479   0.558
 2021TIP3    H2 6009   3.534   0.568   0.620
 2022TIP3   OH2 6010   7.458   5.407   3.720
 2022TIP3    H1 6011   7.467   5.355   3.800
 2022TIP3    H2 6012   7.548   5.427   3.694
 2023TIP3   OH2 6013   0.672   7.390   0.951
 2023TIP3    H1 6014   0.725   7.470   0.947
 2023TIP3    H2 6015   0.665   7.362   0.860
 2024TIP3   OH2 6016   4.941   1.509   3.738
 2024TIP3    H1 6017   4.897   1.594   3.748
 2024TIP3    H2 6018   4.874   1.452   3.698
 2025TIP3   OH2 6019   2.127   5.318   6.750
 2025TIP3    H1 6020   2.068   5.250   6.781
 2025TIP3    H2 6021   2.071   5.396   6.743
 2026TIP3   OH2 6022   1.990   5.406   4.178
 2026TIP3    H1 6023   1.915   5.347   4.175
 2026TIP3    H2 6024   1.952   5.494   4.181
 2027TIP3   OH2 6025   4.454   7.647   3.381
 2027TIP3    H1 6026   4.368   7.654   3.422
 2027TIP3    H2 6027   4.492   7.734   3.391
 2028TIP3   OH2 6028   4.297   3.726   6.243
 2028TIP3    H1 6029   4.292   3.662   6.172
 2028TIP3    H2 6030   4.366   3.693   6.301
 2029TIP3   OH2 6031   0.181   7.026   1.971
 2029TIP3    H1 6032   0.255   7.027   1.910
 2029TIP3    H2 6033   0.176   6.935   2.000
 2030TIP3   OH2 6034   6.448   1.360   3.008
 2030TIP3    H1 6035   6.355   1.347   3.023
 2030TIP3    H2 6036   6.454   1.426   2.940
 2031TIP3   OH2 6037   1.636   7.506   4.693
 2031TIP3    H1 6038   1.620   7.570   4.624
 2031TIP3    H2 6039   1.729   7.484   4.684
 2032TIP3   OH2 6040   4.703   6.403   3.896
 2032TIP3    H1 6041   4.764   6.352   3.949
 2032TIP3    H2 6042   4.749   6.418   3.814
 2033TIP3   OH2 6043   1.557   2.441   5.117
 2033TIP3    H1 6044   1.559   2.349   5.144
 2033TIP3    H2 6045   1.469   2.471   5.141
 2034TIP3   OH2 6046   7.153   5.867   1.868
 2034TIP3    H1 6047   7.060   5.888   1.855
 2034TIP3    H2 6048   7.171   5.800   1.802
 2035TIP3   OH2 6049   0.187   4.725   3.765
 2035TIP3    H1 6050   0.172   4.650   3.707
 2035TIP3    H2 6051   0.110   4.781   3.752
 2036TIP3   OH2 6052   5.455   3.054   5.990
 2036TIP3    H1 6053   5.526   2.998   5.959
 2036TIP3    H2 6054   5.378   3.023   5.942
 2037TIP3   OH2 6055   4.822   6.576   2.567
 2037TIP3    H1 6056   4.774   6.555   2.486
 2037TIP3    H2 6057   4.907   6.608   2.537
 2038TIP3   OH2 6058   3.531   4.946   1.479
 2038TIP3    H1 6059   3.436   4.952   1.485
 2038TIP3    H2 6060   3.549   4.855   1.457
 2039TIP3   OH2 6061   1.533   7.136   2.694
 2039TIP3    H1 6062   1.502   7.227   2.696
 2039TIP3    H2 6063   1.485   7.096   2.622
 2040TIP3   OH2 6064   6.420   3.187   3.363
 2040TIP3    H1 6065   6.474   3.137   3.425
 2040TIP3    H2 6066   6.482   3.240   3.314
 2041TIP3   OH2 6067   7.173   3.681   0.085
 2041TIP3    H1 6068   7.169   3.744   0.013
 2041TIP3    H2 6069   7.101   3.706   0.144
 2042TIP3   OH2 6070   4.076   2.514   1.518
 2042TIP3    H1 6071   4.010   2.510   1.449
 2042TIP3    H2 6072   4.138   2.445   1.497
 2043TIP3   OH2 6073   2.837   3.385   4.075
 2043TIP3    H1 6074   2.860   3.366   3.984
 2043TIP3    H2 6075   2.795   3.305   4.107
 2044TIP3   OH2 6076   6.302   3.505   4.085
 2044TIP3    H1 6077   6.239   3.557   4.035
 2044TIP3    H2 6078   6.256   3.423   4.103
 2045TIP3   OH2 6079   7.799   4.286   0.340
 2045TIP3    H1 6080   7.774   4.289   0.248
 2045TIP3    H2 6081   7.815   4.193   0.358
 2046TIP3   OH2 6082   2.099   4.295   6.590
 2046TIP3    H1 6083   2.092   4.360   6.660
 2046TIP3    H2 6084   2.057   4.217   6.626
 2047TIP3   OH2 6085   6.579   4.747   4.522
 2047TIP3    H1 6086   6.582   4.788   4.435
 2047TIP3    H2 6087   6.621   4.811   4.580
 2048TIP3   OH2 6088   1.395   6.016   5.205
 2048TIP3    H1 6089   1.309   6.022   5.247
 2048TIP3    H2 6090   1.375   6.008   5.112
 2049TIP3   OH2 6091   3.604   1.765   6.115
 2049TIP3    H1 6092   3.576   1.682   6.076
 2049TIP3    H2 6093   3.555   1.832   6.066
 2050TIP3   OH2 6094   0.451   1.023   0.805
 2050TIP3    H1 6095   0.479   1.058   0.720
 2050TIP3    H2 6096   0.483   1.087   0.868
 2051TIP3   OH2 6097   5.190   0.009   4.598
 2051TIP3    H1 6098   5.120   0.052   4.549
 2051TIP3    H2 6099   5.154  -0.077   4.620
 2052TIP3   OH2 6100   5.599   6.157   5.326
 2052TIP3    H1 6101   5.584   6.196   5.412
 2052TIP3    H2 6102   5.555   6.072   5.329
 2053TIP3   OH2 6103   0.349   7.684   6.583
 2053TIP3    H1 6104   0.300   7.659   6.661
 2053TIP3    H2 6105   0.419   7.740   6.616
 2054TIP3   OH2 6106   6.127   3.908   4.696
 2054TIP3    H1 6107   6.170   3.919   4.781
 2054TIP3    H2 6108   6.045   3.863   4.716
 2055TIP3   OH2 6109   5.804   3.017   0.936
 2055TIP3    H1 6110   5.810   3.045   1.027
 2055TIP3    H2 6111   5.711   3.028   0.914
 2056TIP3   OH2 6112   6.074   0.541   5.037
 2056TIP3    H1 6113   6.084   0.575   5.126
 2056TIP3    H2 6114   5.980   0.525   5.027
 2057TIP3   OH2 6115   3.082   4.241   4.314
 2057TIP3    H1 6116   3.127   4.161   4.286
 2057TIP3    H2 6117   3.094   4.302   4.241
 2058TIP3   OH2 6118   7.463   5.780   1.808
 2058TIP3    H1 6119   7.374   5.752   1.789
 2058TIP3    H2 6120   7.503   5.705   1.853
 2059TIP3   OH2 6121   1.323   5.399   6.574
 2059TIP3    H1 6122   1.279   5.467   6.524
 2059TIP3    H2 6123   1.416   5.414   6.558
 2060TIP3   OH2 6124   5.837   7.079   3.193
 2060TIP3    H1 6125   5.743   7.089   3.180
 2060TIP3    H2 6126   5.868   7.032   3.115
 2061TIP3   OH2 6127   8.117   2.164   4.095
 2061TIP3    H1 6128   8.197   2.212   4.116
 2061TIP3    H2 6129   8.081   2.138   4.181
 2062TIP3   OH2 6130   0.548   1.575   4.912
 2062TIP3    H1 6131   0.512   1.508   4.853
 2062TIP3    H2 6132   0.622   1.612   4.864
 2063TIP3   OH2 6133   0.340   3.054   3.410
 2063TIP3    H1 6134   0.333   2.986   3.477
 2063TIP3    H2 6135   0.339   3.136   3.459
 2064TIP3   OH2 6136   2.612   3.897   0.684
 2064TIP3    H1 6137   2.673   3.835   0.643
 2064TIP3    H2 6138   2.555   3.843   0.738
 2065TIP3   OH2 6139   3.250   1.645   1.150
 2065TIP3    H1 6140   3.179   1.708   1.138
 2065TIP3    H2 6141   3.219   1.565   1.109
 2066TIP3   OH2 6142   3.858   3.014   4.356
 2066TIP3    H1 6143   3.889   3.065   4.431
 2066TIP3    H2 6144   3.936   2.998   4.304
 2067TIP3   OH2 6145   3.394   1.536   5.017
 2067TIP3    H1 6146   3.305   1.530   4.982
 2067TIP3    H2 6147   3.435   1.453   4.991
 2068TIP3   OH2 6148   2.182   6.743   0.489
 2068TIP3    H1 6149   2.125   6.802   0.538
 2068TIP3    H2 6150   2.139   6.732   0.405
 2069TIP3   OH2 6151   4.272   6.584   0.599
 2069TIP3    H1 6152   4.230   6.668   0.616
 2069TIP3    H2 6153   4.319   6.564   0.680
 2070TIP3   OH2 6154   4.583   5.632   0.102
 2070TIP3    H1 6155   4.493   5.658   0.081
 2070TIP3    H2 6156   4.634   5.712   0.091
 2071TIP3   OH2 6157   1.252   4.482   1.289
 2071TIP3    H1 6158   1.347   4.489   1.285
 2071TIP3    H2 6159   1.229   4.427   1.214
 2072TIP3   OH2 6160   3.824   0.839   2.506
 2072TIP3    H1 6161   3.745   0.825   2.557
 2072TIP3    H2 6162   3.871   0.756   2.510
 2073TIP3   OH2 6163   5.615   5.435   4.188
 2073TIP3    H1 6164   5.649   5.397   4.107
 2073TIP3    H2 6165   5.675   5.508   4.207
 2074TIP3   OH2 6166   2.313   4.685   3.588
 2074TIP3    H1 6167   2.243   4.724   3.640
 2074TIP3    H2 6168   2.321   4.596   3.622
 2075TIP3   OH2 6169   1.003   6.888   5.776
 2075TIP3    H1 6170   0.998   6.907   5.682
 2075TIP3    H2 6171   0.948   6.955   5.817
 2076TIP3   OH2 6172   2.513   3.177   0.467
 2076TIP3    H1 6173   2.538   3.269   0.475
 2076TIP3    H2 6174   2.459   3.174   0.388
 2077TIP3   OH2 6175   3.903   7.320   4.581
 2077TIP3    H1 6176   3.983   7.364   4.553
 2077TIP3    H2 6177   3.912   7.231   4.548
 2078TIP3   OH2 6178   4.003   4.513   6.374
 2078TIP3    H1 6179   3.973   4.488   6.461
 2078TIP3    H2 6180   4.093   4.482   6.370
 2079TIP3   OH2 6181   5.785   4.433   1.363
 2079TIP3    H1 6182   5.696   4.410   1.336
 2079TIP3    H2 6183   5.773   4.487   1.441
 2080TIP3   OH2 6184   5.876   3.865   4.302
 2080TIP3    H1 6185   5.841   3.830   4.384
 2080TIP3    H2 6186   5.870   3.791   4.240
 2081TIP3   OH2 6187   7.132   2.854   4.490
 2081TIP3    H1 6188   7.185   2.824   4.416
 2081TIP3    H2 6189   7.196   2.882   4.556
 2082TIP3   OH2 6190   0.878   2.879   0.683
 2082TIP3    H1 6191   0.838   2.924   0.757
 2082TIP3    H2 6192   0.916   2.950   0.630
 2083TIP3   OH2 6193   1.331   0.843   5.930
 2083TIP3    H1 6194   1.334   0.776   5.862
 2083TIP3    H2 6195   1.402   0.819   5.990
 2084TIP3   OH2 6196   1.623   1.166   6.237
 2084TIP3    H1 6197   1.697   1.107   6.254
 2084TIP3    H2 6198   1.636   1.239   6.297
 2085TIP3   OH2 6199   1.842   3.971   5.086
 2085TIP3    H1 6200   1.828   3.936   5.174
 2085TIP3    H2 6201   1.933   3.950   5.066
 2086TIP3   OH2 6202   4.970   3.514   0.412
 2086TIP3    H1 6203   4.980   3.421   0.393
 2086TIP3    H2 6204   5.034   3.558   0.357
 2087TIP3   OH2 6205   1.190   7.460   6.319
 2087TIP3    H1 6206   1.095   7.458   6.314
 2087TIP3    H2 6207   1.218   7.504   6.239
 2088TIP3   OH2 6208   6.844   5.845   6.729
 2088TIP3    H1 6209   6.876   5.874   6.815
 2088TIP3    H2 6210   6.920   5.853   6.672
 2089TIP3   OH2 6211   7.035   4.244   1.221
 2089TIP3    H1 6212   7.116   4.268   1.176
 2089TIP3    H2 6213   7.045   4.150   1.239
 2090TIP3   OH2 6214   2.388   4.378   6.627
 2090TIP3    H1 6215   2.447   4.358   6.555
 2090TIP3    H2 6216   2.304   4.341   6.600
 2091TIP3   OH2 6217   5.851   5.097   3.029
 2091TIP3    H1 6218   5.890   5.168   3.081
 2091TIP3    H2 6219   5.904   5.094   2.949
 2092TIP3   OH2 6220   2.913   5.426   2.778
 2092TIP3    H1 6221   3.009   5.422   2.774
 2092TIP3    H2 6222   2.890   5.366   2.849
 2093TIP3   OH2 6223   0.321   0.208   5.553
 2093TIP3    H1 6224   0.289   0.173   5.636
 2093TIP3    H2 6225   0.364   0.134   5.510
 2094TIP3   OH2 6226   2.818   3.976   4.860
 2094TIP3    H1 6227   2.781   3.889   4.851
 2094TIP3    H2 6228   2.863   3.975   4.945
 2095TIP3   OH2 6229   1.271   0.838   4.312
 2095TIP3    H1 6230   1.330   0.771   4.279
 2095TIP3    H2 6231   1.262   0.900   4.240
 2096TIP3   OH2 6232   0.416   6.322   4.100
 2096TIP3    H1 6233   0.422   6.374   4.180
 2096TIP3    H2 6234   0.356   6.251   4.121
 2097TIP3   OH2 6235   3.451   3.212   0.282
 2097TIP3    H1 6236   3.403   3.248   0.357
 2097TIP3    H2 6237   3.383   3.191   0.218
 2098TIP3   OH2 6238   1.204   5.287   5.071
 2098TIP3    H1 6239   1.300   5.292   5.064
 2098TIP3    H2 6240   1.173   5.285   4.981
 2099TIP3   OH2 6241   2.366   4.868   5.263
 2099TIP3    H1 6242   2.441   4.817   5.293
 2099TIP3    H2 6243   2.401   4.925   5.195
 2100TIP3   OH2 6244   7.835   6.192   6.021
 2100TIP3    H1 6245   7.769   6.262   6.018
 2100TIP3    H2 6246   7.914   6.235   6.054
 2101TIP3   OH2 6247   3.467   7.160   5.757
 2101TIP3    H1 6248   3.386   7.132   5.716
 2101TIP3    H2 6249   3.536   7.116   5.708
 2102TIP3   OH2 6250   6.962   7.136   3.516
 2102TIP3    H1 6251   7.030   7.191   3.478
 2102TIP3    H2 6252   6.958   7.059   3.458
 2103TIP3   OH2 6253   5.577   2.692   1.102
 2103TIP3    H1 6254   5.580   2.682   1.006
 2103TIP3    H2 6255   5.633   2.767   1.120
 2104TIP3   OH2 6256   5.834   3.735   1.840
 2104TIP3    H1 6257   5.770   3.806   1.839
 2104TIP3    H2 6258   5.878   3.743   1.924
 2105TIP3   OH2 6259   3.758   2.743   0.388
 2105TIP3    H1 6260   3.723   2.742   0.299
 2105TIP3    H2 6261   3.722   2.663   0.429
 2106TIP3   OH2 6262   2.934   5.875   3.515
 2106TIP3    H1 6263   2.930   5.844   3.424
 2106TIP3    H2 6264   2.852   5.844   3.554
 2107TIP3   OH2 6265   3.110   2.032   2.981
 2107TIP3    H1 6266   3.045   2.060   2.917
 2107TIP3    H2 6267   3.080   1.947   3.011
 2108TIP3   OH2 6268   0.819   4.736   1.928
 2108TIP3    H1 6269   0.752   4.735   1.859
 2108TIP3    H2 6270   0.901   4.754   1.882
 2109TIP3   OH2 6271   4.113   3.720   2.343
 2109TIP3    H1 6272   4.077   3.808   2.358
 2109TIP3    H2 6273   4.118   3.681   2.430
 2110TIP3   OH2 6274   3.120   4.438   4.118
 2110TIP3    H1 6275   3.172   4.450   4.038
 2110TIP3    H2 6276   3.030   4.429   4.088
 2111TIP3   OH2 6277   5.848   5.070   4.697
 2111TIP3    H1 6278   5.871   5.124   4.773
 2111TIP3    H2 6279   5.772   5.113   4.659
 2112TIP3   OH2 6280   3.818   4.094   4.656
 2112TIP3    H1 6281   3.804   4.017   4.601
 2112TIP3    H2 6282   3.844   4.163   4.595
 2113TIP3   OH2 6283   5.899   0.147   0.319
 2113TIP3    H1 6284   5.908   0.152   0.224
 2113TIP3    H2 6285   5.930   0.059   0.341
 2114TIP3   OH2 6286   7.939   6.682   6.513
 2114TIP3    H1 6287   7.907   6.594   6.536
 2114TIP3    H2 6288   8.019   6.692   6.565
 2115TIP3   OH2 6289   3.057   4.345   6.229
 2115TIP3    H1 6290   3.102   4.312   6.152
 2115TIP3    H2 6291   3.095   4.297   6.302
 2116TIP3   OH2 6292   0.509   6.039   2.164
 2116TIP3    H1 6293   0.435   6.094   2.191
 2116TIP3    H2 6294   0.584   6.099   2.162
 2117TIP3   OH2 6295   2.133   2.947   1.406
 2117TIP3    H1 6296   2.109   3.037   1.425
 2117TIP3    H2 6297   2.222   2.937   1.439
 2118TIP3   OH2 6298   7.448   2.055   3.575
 2118TIP3    H1 6299   7.436   2.033   3.482
 2118TIP3    H2 6300   7.533   2.017   3.598
 2119TIP3   OH2 6301   2.299   6.312   2.119
 2119TIP3    H1 6302   2.291   6.402   2.086
 2119TIP3    H2 6303   2.341   6.264   2.048
 2120TIP3   OH2 6304   5.488   6.012   2.649
 2120TIP3    H1 6305   5.413   6.062   2.615
 2120TIP3    H2 6306   5.519   6.063   2.724
 2121TIP3   OH2 6307   6.375   6.218   3.695
 2121TIP3    H1 6308   6.450   6.201   3.637
 2121TIP3    H2 6309   6.300   6.219   3.636
 2122TIP3   OH2 6310   5.452   2.002   5.155
 2122TIP3    H1 6311   5.367   1.964   5.135
 2122TIP3    H2 6312   5.437   2.097   5.154
 2123TIP3   OH2 6313   6.382   5.277   5.568
 2123TIP3    H1 6314   6.388   5.296   5.661
 2123TIP3    H2 6315   6.290   5.255   5.553
 2124TIP3   OH2 6316   5.405   6.190   6.060
 2124TIP3    H1 6317   5.423   6.275   6.099
 2124TIP3    H2 6318   5.491   6.157   6.033
 2125TIP3   OH2 6319   5.547   7.414   0.876
 2125TIP3    H1 6320   5.609   7.348   0.907
 2125TIP3    H2 6321   5.600   7.491   0.859
 2126TIP3   OH2 6322   6.188   6.692   4.495
 2126TIP3    H1 6323   6.258   6.705   4.559
 2126TIP3    H2 6324   6.112   6.667   4.546
 2127TIP3   OH2 6325   0.759   3.854   4.267
 2127TIP3    H1 6326   0.777   3.946   4.248
 2127TIP3    H2 6327   0.666   3.843   4.247
 2128TIP3   OH2 6328   3.136   2.443   5.739
 2128TIP3    H1 6329   3.091   2.477   5.661
 2128TIP3    H2 6330   3.221   2.413   5.707
 2129TIP3   OH2 6331   5.397   2.286   0.412
 2129TIP3    H1 6332   5.487   2.260   0.390
 2129TIP3    H2 6333   5.376   2.356   0.351
 2130TIP3   OH2 6334   7.418   7.452   2.806
 2130TIP3    H1 6335   7.351   7.504   2.850
 2130TIP3    H2 6336   7.433   7.498   2.723
 2131TIP3   OH2 6337   4.030   4.502   2.660
 2131TIP3    H1 6338   4.038   4.425   2.716
 2131TIP3    H2 6339   4.120   4.523   2.635
 2132TIP3   OH2 6340   4.752   4.952   4.960
 2132TIP3    H1 6341   4.761   4.861   4.988
 2132TIP3    H2 6342   4.753   5.002   5.042
 2133TIP3   OH2 6343   4.552   6.586   1.454
 2133TIP3    H1 6344   4.580   6.497   1.479
 2133TIP3    H2 6345   4.463   6.593   1.489
 2134TIP3   OH2 6346   4.038   5.196   3.486
 2134TIP3    H1 6347   3.977   5.128   3.513
 2134TIP3    H2 6348   4.075   5.229   3.568
 2135TIP3   OH2 6349   7.916   4.263   2.361
 2135TIP3    H1 6350   8.007   4.292   2.360
 2135TIP3    H2 6351   7.871   4.325   2.303
 2136TIP3   OH2 6352   8.144   3.695   0.514
 2136TIP3    H1 6353   8.062   3.683   0.562
 2136TIP3    H2 6354   8.188   3.610   0.519
 2137TIP3   OH2 6355   4.509   1.842   1.729
 2137TIP3    H1 6356   4.594   1.806   1.751
 2137TIP3    H2 6357   4.468   1.775   1.674
 2138TIP3   OH2 6358   0.921   1.634   4.017
 2138TIP3    H1 6359   0.919   1.692   3.941
 2138TIP3    H2 6360   0.833   1.641   4.055
 2139TIP3   OH2 6361   4.582   6.739   0.151
 2139TIP3    H1 6362   4.605   6.652   0.119
 2139TIP3    H2 6363   4.493   6.752   0.119
 2140TIP3   OH2 6364   4.405   4.665   1.404
 2140TIP3    H1 6365   4.492   4.653   1.441
 2140TIP3    H2 6366   4.411   4.744   1.351
 2141TIP3   OH2 6367   3.246   0.138   2.153
 2141TIP3    H1 6368   3.205   0.056   2.180
 2141TIP3    H2 6369   3.173   0.194   2.126
 2142TIP3   OH2 6370   5.704   4.280   2.823
 2142TIP3    H1 6371   5.647   4.204   2.836
 2142TIP3    H2 6372   5.647   4.346   2.785
 2143TIP3   OH2 6373   1.668   2.501   4.421
 2143TIP3    H1 6374   1.740   2.519   4.482
 2143TIP3    H2 6375   1.644   2.587   4.386
 2144TIP3   OH2 6376   0.327   1.550   3.715
 2144TIP3    H1 6377   0.289   1.623   3.764
 2144TIP3    H2 6378   0.280   1.473   3.747
 2145TIP3   OH2 6379   1.185   3.345   6.110
 2145TIP3    H1 6380   1.247   3.273   6.100
 2145TIP3    H2 6381   1.189   3.367   6.204
 2146TIP3   OH2 6382   2.574   2.567   0.141
 2146TIP3    H1 6383   2.534   2.652   0.156
 2146TIP3    H2 6384   2.503   2.504   0.152
 2147TIP3   OH2 6385   0.021   4.505   2.009
 2147TIP3    H1 6386   0.085   4.550   1.953
 2147TIP3    H2 6387  -0.064   4.532   1.974
 2148TIP3   OH2 6388   3.869   6.186   3.494
 2148TIP3    H1 6389   3.881   6.260   3.553
 2148TIP3    H2 6390   3.853   6.111   3.552
 2149TIP3   OH2 6391   0.714   3.254   3.614
 2149TIP3    H1 6392   0.806   3.279   3.609
 2149TIP3    H2 6393   0.682   3.297   3.693
 2150TIP3   OH2 6394   7.598   0.414   1.021
 2150TIP3    H1 6395   7.558   0.328   1.031
 2150TIP3    H2 6396   7.678   0.410   1.073
 2151TIP3   OH2 6397   6.822   6.796   2.177
 2151TIP3    H1 6398   6.913   6.813   2.153
 2151TIP3    H2 6399   6.818   6.702   2.193
 2152TIP3   OH2 6400   4.119   5.163   2.197
 2152TIP3    H1 6401   4.148   5.088   2.145
 2152TIP3    H2 6402   4.045   5.129   2.248
 2153TIP3   OH2 6403   2.000   4.391   6.029
 2153TIP3    H1 6404   1.904   4.382   6.032
 2153TIP3    H2 6405   2.017   4.431   5.944
 2154TIP3   OH2 6406   7.084   0.926   0.148
 2154TIP3    H1 6407   7.085   0.937   0.243
 2154TIP3    H2 6408   7.055   0.835   0.136
 2155TIP3   OH2 6409   4.577   4.878   0.696
 2155TIP3    H1 6410   4.528   4.876   0.778
 2155TIP3    H2 6411   4.519   4.838   0.632
 2156TIP3   OH2 6412   6.444   0.676   0.187
 2156TIP3    H1 6413   6.516   0.718   0.140
 2156TIP3    H2 6414   6.479   0.593   0.217
 2157TIP3   OH2 6415   4.389   0.944   4.167
 2157TIP3    H1 6416   4.475   0.916   4.198
 2157TIP3    H2 6417   4.402   0.963   4.074
 2158TIP3   OH2 6418   5.671   7.454   0.267
 2158TIP3    H1 6419   5.600   7.437   0.205
 2158TIP3    H2 6420   5.724   7.374   0.266
 2159TIP3   OH2 6421   5.177   6.457   6.061
 2159TIP3    H1 6422   5.215   6.535   6.020
 2159TIP3    H2 6423   5.252   6.408   6.093
 2160TIP3   OH2 6424   5.880   7.479   5.825
 2160TIP3    H1 6425   5.898   7.548   5.889
 2160TIP3    H2 6426   5.935   7.502   5.750
 2161TIP3   OH2 6427   4.893   1.417   2.534
 2161TIP3    H1 6428   4.831   1.436   2.604
 2161TIP3    H2 6429   4.841   1.420   2.454
 2162TIP3   OH2 6430   6.883   1.024   4.299
 2162TIP3    H1 6431   6.931   1.054   4.223
 2162TIP3    H2 6432   6.791   1.024   4.273
 2163TIP3   OH2 6433   5.774   4.658   5.809
 2163TIP3    H1 6434   5.695   4.643   5.860
 2163TIP3    H2 6435   5.840   4.602   5.850
 2164TIP3   OH2 6436   1.728   2.477   1.342
 2164TIP3    H1 6437   1.776   2.519   1.414
 2164TIP3    H2 6438   1.783   2.403   1.316
 2165TIP3   OH2 6439   7.161   0.012   0.200
 2165TIP3    H1 6440   7.124   0.064   0.129
 2165TIP3    H2 6441   7.200  -0.063   0.157
 2166TIP3   OH2 6442   3.949   6.248   3.242
 2166TIP3    H1 6443   3.872   6.218   3.194
 2166TIP3    H2 6444   3.934   6.222   3.332
 2167TIP3   OH2 6445   4.656   7.262   5.645
 2167TIP3    H1 6446   4.676   7.349   5.679
 2167TIP3    H2 6447   4.741   7.222   5.629
 2168TIP3   OH2 6448   1.718   4.029   1.904
 2168TIP3    H1 6449   1.761   4.001   1.823
 2168TIP3    H2 6450   1.788   4.072   1.954
 2169TIP3   OH2 6451   6.379   0.192   5.976
 2169TIP3    H1 6452   6.400   0.174   5.884
 2169TIP3    H2 6453   6.284   0.185   5.981
 2170TIP3   OH2 6454   7.323   0.394   2.872
 2170TIP3    H1 6455   7.409   0.426   2.899
 2170TIP3    H2 6456   7.271   0.473   2.859
 2171TIP3   OH2 6457   0.226   6.642   5.975
 2171TIP3    H1 6458   0.288   6.684   5.915
 2171TIP3    H2 6459   0.171   6.714   6.006
 2172TIP3   OH2 6460   6.113   7.150   3.673
 2172TIP3    H1 6461   6.125   7.070   3.621
 2172TIP3    H2 6462   6.193   7.200   3.661
 2173TIP3   OH2 6463   0.043   1.461   6.439
 2173TIP3    H1 6464   0.131   1.468   6.402
 2173TIP3    H2 6465  -0.001   1.398   6.383
 2174TIP3   OH2 6466   7.397   6.802   6.424
 2174TIP3    H1 6467   7.413   6.711   6.449
 2174TIP3    H2 6468   7.315   6.800   6.376
 2175TIP3   OH2 6469   5.402   4.871   4.618
 2175TIP3    H1 6470   5.385   4.878   4.524
 2175TIP3    H2 6471   5.367   4.952   4.654
 2176TIP3   OH2 6472   1.330   0.063   5.458
 2176TIP3    H1 6473   1.387  -0.003   5.418
 2176TIP3    H2 6474   1.368   0.147   5.432
 2177TIP3   OH2 6475   3.170   5.157   5.129
 2177TIP3    H1 6476   3.143   5.249   5.126
 2177TIP3    H2 6477   3.121   5.120   5.203
 2178TIP3   OH2 6478   1.766   6.762   3.596
 2178TIP3    H1 6479   1.846   6.771   3.647
 2178TIP3    H2 6480   1.697   6.755   3.661
 2179TIP3   OH2 6481   5.961   0.412   2.255
 2179TIP3    H1 6482   6.055   0.430   2.265
 2179TIP3    H2 6483   5.939   0.443   2.167
 2180TIP3   OH2 6484   7.537   1.064   5.109
 2180TIP3    H1 6485   7.620   1.105   5.134
 2180TIP3    H2 6486   7.528   1.083   5.015
 2181TIP3   OH2 6487   1.959   1.963   3.910
 2181TIP3    H1 6488   1.997   1.995   3.992
 2181TIP3    H2 6489   1.956   2.040   3.854
 2182TIP3   OH2 6490   8.157   6.201   2.231
 2182TIP3    H1 6491   8.187   6.150   2.307
 2182TIP3    H2 6492   8.062   6.185   2.228
 2183TIP3   OH2 6493   1.128   0.332   5.561
 2183TIP3    H1 6494   1.131   0.317   5.466
 2183TIP3    H2 6495   1.046   0.380   5.575
 2184TIP3   OH2 6496   7.688   6.466   2.539
 2184TIP3    H1 6497   7.686   6.392   2.600
 2184TIP3    H2 6498   7.759   6.521   2.570
 2185TIP3   OH2 6499   3.222   4.541   5.072
 2185TIP3    H1 6500   3.294   4.512   5.017
 2185TIP3    H2 6501   3.218   4.636   5.059
 2186TIP3   OH2 6502   5.455   1.521   5.339
 2186TIP3    H1 6503   5.547   1.531   5.364
 2186TIP3    H2 6504   5.409   1.506   5.422
 2187TIP3   OH2 6505   3.314   2.482   4.922
 2187TIP3    H1 6506   3.219   2.480   4.909
 2187TIP3    H2 6507   3.343   2.395   4.893
 2188TIP3   OH2 6508   6.754   6.735   1.125
 2188TIP3    H1 6509   6.755   6.646   1.160
 2188TIP3    H2 6510   6.787   6.726   1.036
 2189TIP3   OH2 6511   3.163   7.209   4.916
 2189TIP3    H1 6512   3.077   7.196   4.876
 2189TIP3    H2 6513   3.201   7.122   4.919
 2190TIP3   OH2 6514   2.958   7.568   0.581
 2190TIP3    H1 6515   2.962   7.476   0.609
 2190TIP3    H2 6516   3.012   7.615   0.645
 2191TIP3   OH2 6517   4.350   2.305   2.516
 2191TIP3    H1 6518   4.305   2.298   2.432
 2191TIP3    H2 6519   4.416   2.372   2.503
 2192TIP3   OH2 6520   4.373   6.274   5.286
 2192TIP3    H1 6521   4.320   6.240   5.357
 2192TIP3    H2 6522   4.449   6.215   5.283
 2193TIP3   OH2 6523   6.975   7.457   5.335
 2193TIP3    H1 6524   6.882   7.435   5.322
 2193TIP3    H2 6525   7.020   7.412   5.264
 2194TIP3   OH2 6526   3.121   5.835   3.783
 2194TIP3    H1 6527   3.159   5.832   3.871
 2194TIP3    H2 6528   3.193   5.867   3.727
 2195TIP3   OH2 6529   3.433   5.863   0.008
 2195TIP3    H1 6530   3.423   5.809   0.086
 2195TIP3    H2 6531   3.483   5.809  -0.053
 2196TIP3   OH2 6532   3.739   1.075   2.638
 2196TIP3    H1 6533   3.668   1.106   2.582
 2196TIP3    H2 6534   3.773   0.997   2.593
 2197TIP3   OH2 6535   1.989   4.107   1.523
 2197TIP3    H1 6536   2.018   4.153   1.601
 2197TIP3    H2 6537   1.912   4.155   1.494
 2198TIP3   OH2 6538   4.304   3.457   0.659
 2198TIP3    H1 6539   4.296   3.416   0.745
 2198TIP3    H2 6540   4.313   3.550   0.678
 2199TIP3   OH2 6541   0.340   7.715   4.991
 2199TIP3    H1 6542   0.345   7.804   4.955
 2199TIP3    H2 6543   0.350   7.658   4.915
 2200TIP3   OH2 6544   3.832   4.317   5.123
 2200TIP3    H1 6545   3.742   4.348   5.137
 2200TIP3    H2 6546   3.823   4.250   5.055
 2201TIP3   OH2 6547   3.667   6.649   0.017
 2201TIP3    H1 6548   3.599   6.715   0.008
 2201TIP3    H2 6549   3.628   6.582   0.073
 2202TIP3   OH2 6550   5.925   4.097   4.984
 2202TIP3    H1 6551   5.956   4.007   4.993
 2202TIP3    H2 6552   5.860   4.107   5.054
 2203TIP3   OH2 6553   5.863   1.282   1.907
 2203TIP3    H1 6554   5.847   1.360   1.961
 2203TIP3    H2 6555   5.776   1.247   1.889
 2204TIP3   OH2 6556   5.249   6.473   0.054
 2204TIP3    H1 6557   5.254   6.540  -0.013
 2204TIP3    H2 6558   5.178   6.415   0.025
 2205TIP3   OH2 6559   7.198   0.916   1.421
 2205TIP3    H1 6560   7.197   0.976   1.346
 2205TIP3    H2 6561   7.156   0.836   1.389
 2206TIP3   OH2 6562   7.020   1.202   0.295
 2206TIP3    H1 6563   6.981   1.232   0.377
 2206TIP3    H2 6564   6.955   1.223   0.228
 2207TIP3   OH2 6565   2.263   4.848   6.255
 2207TIP3    H1 6566   2.261   4.780   6.187
 2207TIP3    H2 6567   2.175   4.847   6.292
 2208TIP3   OH2 6568   3.277   5.354   1.647
 2208TIP3    H1 6569   3.271   5.369   1.741
 2208TIP3    H2 6570   3.355   5.404   1.620
 2209TIP3   OH2 6571   7.851   7.730   2.962
 2209TIP3    H1 6572   7.872   7.803   3.020
 2209TIP3    H2 6573   7.852   7.653   3.018
 2210TIP3   OH2 6574   4.536   1.442   0.318
 2210TIP3    H1 6575   4.568   1.368   0.266
 2210TIP3    H2 6576   4.612   1.468   0.371
 2211TIP3   OH2 6577   6.116   7.710   3.877
 2211TIP3    H1 6578   6.128   7.717   3.782
 2211TIP3    H2 6579   6.151   7.623   3.899
 2212TIP3   OH2 6580   8.205   7.128   4.099
 2212TIP3    H1 6581   8.150   7.083   4.034
 2212TIP3    H2 6582   8.212   7.066   4.171
 2213TIP3   OH2 6583   1.684   3.553   2.804
 2213TIP3    H1 6584   1.770   3.528   2.838
 2213TIP3    H2 6585   1.627   3.479   2.826
 2214TIP3   OH2 6586   0.520   6.479   1.015
 2214TIP3    H1 6587   0.503   6.525   1.097
 2214TIP3    H2 6588   0.590   6.417   1.036
 2215TIP3   OH2 6589   2.622   6.793   4.833
 2215TIP3    H1 6590   2.679   6.860   4.869
 2215TIP3    H2 6591   2.682   6.729   4.794
 2216TIP3   OH2 6592   4.557   4.562   2.451
 2216TIP3    H1 6593   4.588   4.493   2.391
 2216TIP3    H2 6594   4.572   4.643   2.403
 2217TIP3   OH2 6595   7.387   0.611   4.345
 2217TIP3    H1 6596   7.340   0.634   4.425
 2217TIP3    H2 6597   7.356   0.674   4.280
 2218TIP3   OH2 6598   8.088   0.174   4.420
 2218TIP3    H1 6599   8.083   0.176   4.515
 2218TIP3    H2 6600   7.999   0.158   4.390
 2219TIP3   OH2 6601   7.086  -0.002   0.809
 2219TIP3    H1 6602   6.996   0.023   0.788
 2219TIP3    H2 6603   7.133   0.002   0.725
 2220TIP3   OH2 6604   6.336   6.516   3.705
 2220TIP3    H1 6605   6.244   6.526   3.729
 2220TIP3    H2 6606   6.347   6.423   3.688
 2221TIP3   OH2 6607   3.010   0.268   0.645
 2221TIP3    H1 6608   3.007   0.179   0.679
 2221TIP3    H2 6609   2.993   0.324   0.721
 2222TIP3   OH2 6610   3.826   2.454   0.728
 2222TIP3    H1 6611   3.854   2.363   0.731
 2222TIP3    H2 6612   3.770   2.461   0.651
 2223TIP3   OH2 6613   2.715   5.806   0.762
 2223TIP3    H1 6614   2.756   5.892   0.770
 2223TIP3    H2 6615   2.672   5.793   0.847
 2224TIP3   OH2 6616   0.727   2.430   5.776
 2224TIP3    H1 6617   0.807   2.455   5.823
 2224TIP3    H2 6618   0.725   2.334   5.783
 2225TIP3   OH2 6619   2.527   5.189   5.888
 2225TIP3    H1 6620   2.551   5.236   5.809
 2225TIP3    H2 6621   2.450   5.137   5.863
 2226TIP3   OH2 6622   2.909   7.666   4.148
 2226TIP3    H1 6623   2.852   7.598   4.114
 2226TIP3    H2 6624   2.967   7.689   4.075
 2227TIP3   OH2 6625   7.207   6.425   1.687
 2227TIP3    H1 6626   7.140   6.483   1.652
 2227TIP3    H2 6627   7.286   6.480   1.692
 2228TIP3   OH2 6628   1.992   7.260   0.712
 2228TIP3    H1 6629   1.913   7.285   0.760
 2228TIP3    H2 6630   2.060   7.255   0.780
 2229TIP3   OH2 6631   2.528   1.317   6.615
 2229TIP3    H1 6632   2.511   1.285   6.704
 2229TIP3    H2 6633   2.482   1.401   6.611
 2230TIP3   OH2 6634   6.100   1.672   0.934
 2230TIP3    H1 6635   6.102   1.719   1.017
 2230TIP3    H2 6636   6.086   1.580   0.959
 2231TIP3   OH2 6637   0.349   5.236   4.790
 2231TIP3    H1 6638   0.304   5.311   4.750
 2231TIP3    H2 6639   0.309   5.159   4.749
 2232TIP3   OH2 6640   0.236   6.966   4.269
 2232TIP3    H1 6641   0.330   6.984   4.264
 2232TIP3    H2 6642   0.198   7.015   4.196
 2233TIP3   OH2 6643   3.734   6.532   1.550
 2233TIP3    H1 6644   3.824   6.543   1.581
 2233TIP3    H2 6645   3.684   6.513   1.630
 2234TIP3   OH2 6646   1.614   6.138   6.750
 2234TIP3    H1 6647   1.653   6.181   6.826
 2234TIP3    H2 6648   1.671   6.064   6.731
 2235TIP3   OH2 6649   2.617   5.037   3.555
 2235TIP3    H1 6650   2.614   4.945   3.582
 2235TIP3    H2 6651   2.631   5.085   3.636
 2236TIP3   OH2 6652   6.398   2.144   4.499
 2236TIP3    H1 6653   6.437   2.227   4.469
 2236TIP3    H2 6654   6.410   2.144   4.594
 2237TIP3   OH2 6655   7.050   6.435   1.330
 2237TIP3    H1 6656   7.114   6.452   1.261
 2237TIP3    H2 6657   7.049   6.516   1.382
 2238TIP3   OH2 6658   3.086   2.765   4.905
 2238TIP3    H1 6659   3.019   2.811   4.956
 2238TIP3    H2 6660   3.163   2.821   4.910
 2239TIP3   OH2 6661   1.565   1.839   4.662
 2239TIP3    H1 6662   1.480   1.870   4.633
 2239TIP3    H2 6663   1.553   1.817   4.754
 2240TIP3   OH2 6664   2.335   0.305   1.707
 2240TIP3    H1 6665   2.378   0.228   1.670
 2240TIP3    H2 6666   2.258   0.319   1.652
 2241TIP3   OH2 6667   5.817   6.585   0.772
 2241TIP3    H1 6668   5.881   6.653   0.751
 2241TIP3    H2 6669   5.742   6.633   0.809
 2242TIP3   OH2 6670   0.888   4.785   3.402
 2242TIP3    H1 6671   0.928   4.780   3.315
 2242TIP3    H2 6672   0.960   4.768   3.463
 2243TIP3   OH2 6673   6.306   0.904   0.480
 2243TIP3    H1 6674   6.275   0.843   0.414
 2243TIP3    H2 6675   6.284   0.991   0.446
 2244TIP3   OH2 6676   1.183   7.273   2.178
 2244TIP3    H1 6677   1.201   7.364   2.158
 2244TIP3    H2 6678   1.095   7.257   2.143
 2245TIP3   OH2 6679   6.263   1.435   4.320
 2245TIP3    H1 6680   6.309   1.427   4.236
 2245TIP3    H2 6681   6.293   1.519   4.355
 2246TIP3   OH2 6682   2.975   7.346   3.428
 2246TIP3    H1 6683   2.902   7.293   3.397
 2246TIP3    H2 6684   2.936   7.405   3.492
 2247TIP3   OH2 6685   2.446   6.592   0.943
 2247TIP3    H1 6686   2.410   6.680   0.950
 2247TIP3    H2 6687   2.527   6.603   0.893
 2248TIP3   OH2 6688   8.077   2.970   2.586
 2248TIP3    H1 6689   7.994   2.989   2.629
 2248TIP3    H2 6690   8.078   2.875   2.576
 2249TIP3   OH2 6691   2.931   4.109   4.650
 2249TIP3    H1 6692   2.926   4.062   4.567
 2249TIP3    H2 6693   2.867   4.066   4.706
 2250TIP3   OH2 6694   4.280   3.394   0.392
 2250TIP3    H1 6695   4.200   3.355   0.355
 2250TIP3    H2 6696   4.267   3.391   0.487
 2251TIP3   OH2 6697   3.471   4.578   6.430
 2251TIP3    H1 6698   3.512   4.493   6.416
 2251TIP3    H2 6699   3.410   4.587   6.357
 2252TIP3   OH2 6700   1.810   6.435   6.341
 2252TIP3    H1 6701   1.807   6.349   6.382
 2252TIP3    H2 6702   1.858   6.420   6.259
 2253TIP3   OH2 6703   8.152   7.268   1.900
 2253TIP3    H1 6704   8.123   7.233   1.984
 2253TIP3    H2 6705   8.096   7.345   1.885
 2254TIP3   OH2 6706   0.601   0.920   1.969
 2254TIP3    H1 6707   0.669   0.983   1.991
 2254TIP3    H2 6708   0.595   0.923   1.873
 2255TIP3   OH2 6709   3.934   6.982   6.218
 2255TIP3    H1 6710   4.025   6.962   6.198
 2255TIP3    H2 6711   3.913   6.925   6.292
 2256TIP3   OH2 6712   3.107   4.585   5.959
 2256TIP3    H1 6713   3.030   4.639   5.938
 2256TIP3    H2 6714   3.132   4.612   6.048
 2257TIP3   OH2 6715   7.440   2.155   1.490
 2257TIP3    H1 6716   7.508   2.215   1.521
 2257TIP3    H2 6717   7.485   2.071   1.479
 2258TIP3   OH2 6718   3.812   0.656   2.971
 2258TIP3    H1 6719   3.832   0.576   2.922
 2258TIP3    H2 6720   3.898   0.696   2.986
 2259TIP3   OH2 6721   0.596   0.536   1.804
 2259TIP3    H1 6722   0.513   0.502   1.770
 2259TIP3    H2 6723   0.659   0.465   1.788
 2260TIP3   OH2 6724   7.445   0.211   0.781
 2260TIP3    H1 6725   7.508   0.283   0.777
 2260TIP3    H2 6726   7.424   0.203   0.874
 2261TIP3   OH2 6727   0.564   2.998   5.699
 2261TIP3    H1 6728   0.508   2.959   5.766
 2261TIP3    H2 6729   0.557   2.937   5.625
 2262TIP3   OH2 6730   6.162   3.686   0.029
 2262TIP3    H1 6731   6.206   3.770   0.037
 2262TIP3    H2 6732   6.178   3.658  -0.061
 2263TIP3   OH2 6733   0.869   6.833   4.559
 2263TIP3    H1 6734   0.856   6.895   4.630
 2263TIP3    H2 6735   0.841   6.749   4.595
 2264TIP3   OH2 6736   5.627   3.385   1.697
 2264TIP3    H1 6737   5.639   3.479   1.702
 2264TIP3    H2 6738   5.693   3.349   1.756
 2265TIP3   OH2 6739   8.286   4.970   3.891
 2265TIP3    H1 6740   8.371   4.957   3.933
 2265TIP3    H2 6741   8.236   4.891   3.913
 2266TIP3   OH2 6742   2.343   3.500   6.146
 2266TIP3    H1 6743   2.310   3.469   6.231
 2266TIP3    H2 6744   2.375   3.420   6.103
 2267TIP3   OH2 6745   2.077   7.395   3.723
 2267TIP3    H1 6746   1.995   7.408   3.771
 2267TIP3    H2 6747   2.052   7.347   3.644
 2268TIP3   OH2 6748   6.179   1.381   1.649
 2268TIP3    H1 6749   6.268   1.410   1.666
 2268TIP3    H2 6750   6.164   1.311   1.713
 2269TIP3   OH2 6751   6.182   3.182   0.662
 2269TIP3    H1 6752   6.112   3.177   0.597
 2269TIP3    H2 6753   6.262   3.191   0.611
 2270TIP3   OH2 6754   2.124   7.006   2.959
 2270TIP3    H1 6755   2.052   7.027   2.899
 2270TIP3    H2 6756   2.120   7.074   3.026
 2271TIP3   OH2 6757   7.565   4.736   4.286
 2271TIP3    H1 6758   7.560   4.678   4.210
 2271TIP3    H2 6759   7.502   4.805   4.266
 2272TIP3   OH2 6760   6.267   1.223   6.595
 2272TIP3    H1 6761   6.321   1.248   6.670
 2272TIP3    H2 6762   6.316   1.254   6.519
 2273TIP3   OH2 6763   1.678   6.453   4.379
 2273TIP3    H1 6764   1.743   6.386   4.363
 2273TIP3    H2 6765   1.613   6.411   4.436
 2274TIP3   OH2 6766   7.138   2.616   6.514
 2274TIP3    H1 6767   7.198   2.634   6.586
 2274TIP3    H2 6768   7.061   2.578   6.555
 2275TIP3   OH2 6769   5.400   3.357   0.578
 2275TIP3    H1 6770   5.472   3.298   0.602
 2275TIP3    H2 6771   5.322   3.302   0.586
 2276TIP3   OH2 6772   1.567   6.434   5.769
 2276TIP3    H1 6773   1.627   6.438   5.843
 2276TIP3    H2 6774   1.484   6.402   5.806
 2277TIP3   OH2 6775   0.938   6.523   3.693
 2277TIP3    H1 6776   1.010   6.473   3.655
 2277TIP3    H2 6777   0.893   6.461   3.750
 2278TIP3   OH2 6778   4.923   5.151   4.098
 2278TIP3    H1 6779   4.863   5.107   4.158
 2278TIP3    H2 6780   4.867   5.206   4.044
 2279TIP3   OH2 6781   4.501   4.385   1.013
 2279TIP3    H1 6782   4.482   4.423   0.927
 2279TIP3    H2 6783   4.455   4.443   1.074
 2280TIP3   OH2 6784   8.148   5.526   5.537
 2280TIP3    H1 6785   8.115   5.462   5.600
 2280TIP3    H2 6786   8.171   5.602   5.591
 2281TIP3   OH2 6787   6.567   6.872   0.310
 2281TIP3    H1 6788   6.514   6.853   0.233
 2281TIP3    H2 6789   6.605   6.958   0.293
 2282TIP3   OH2 6790   4.429   6.586   3.024
 2282TIP3    H1 6791   4.353   6.528   3.019
 2282TIP3    H2 6792   4.413   6.652   2.957
 2283TIP3   OH2 6793   0.712   4.001   4.913
 2283TIP3    H1 6794   0.690   4.091   4.940
 2283TIP3    H2 6795   0.808   4.000   4.912
 2284TIP3   OH2 6796   0.754  -0.014   0.695
 2284TIP3    H1 6797   0.790   0.059   0.745
 2284TIP3    H2 6798   0.666   0.015   0.670
 2285TIP3   OH2 6799   2.951   6.132   1.801
 2285TIP3    H1 6800   2.900   6.128   1.883
 2285TIP3    H2 6801   2.958   6.041   1.773
 2286TIP3   OH2 6802   7.046   0.289   4.420
 2286TIP3    H1 6803   7.061   0.381   4.400
 2286TIP3    H2 6804   7.114   0.266   4.483
 2287TIP3   OH2 6805   7.555   1.569   2.053
 2287TIP3    H1 6806   7.548   1.482   2.013
 2287TIP3    H2 6807   7.635   1.565   2.106
 2288TIP3   OH2 6808   4.976   1.576   4.963
 2288TIP3    H1 6809   5.069   1.583   4.939
 2288TIP3    H2 6810   4.952   1.486   4.940
 2289TIP3   OH2 6811   3.006   6.719   4.960
 2289TIP3    H1 6812   2.992   6.626   4.981
 2289TIP3    H2 6813   3.085   6.743   5.007
 2290TIP3   OH2 6814   5.188   2.366   4.496
 2290TIP3    H1 6815   5.112   2.425   4.500
 2290TIP3    H2 6816   5.235   2.393   4.418
 2291TIP3   OH2 6817   7.234   4.761   2.592
 2291TIP3    H1 6818   7.259   4.727   2.678
 2291TIP3    H2 6819   7.269   4.850   2.590
 2292TIP3   OH2 6820   6.569   3.013   4.451
 2292TIP3    H1 6821   6.529   3.100   4.456
 2292TIP3    H2 6822   6.520   2.961   4.513
 2293TIP3   OH2 6823   0.213   3.550   1.486
 2293TIP3    H1 6824   0.308   3.554   1.479
 2293TIP3    H2 6825   0.187   3.639   1.509
 2294TIP3   OH2 6826   5.391   2.313   3.856
 2294TIP3    H1 6827   5.381   2.218   3.843
 2294TIP3    H2 6828   5.429   2.321   3.944
 2295TIP3   OH2 6829   2.810   1.273   6.356
 2295TIP3    H1 6830   2.734   1.238   6.401
 2295TIP3    H2 6831   2.775   1.343   6.301
 2296TIP3   OH2 6832   0.693   2.465   2.312
 2296TIP3    H1 6833   0.615   2.512   2.342
 2296TIP3    H2 6834   0.659   2.401   2.249
 2297TIP3   OH2 6835   2.713   2.534   6.567
 2297TIP3    H1 6836   2.730   2.627   6.581
 2297TIP3    H2 6837   2.800   2.496   6.557
 2298TIP3   OH2 6838   4.528   1.800   6.063
 2298TIP3    H1 6839   4.535   1.893   6.041
 2298TIP3    H2 6840   4.440   1.776   6.036
 2299TIP3   OH2 6841   2.865   5.236   1.773
 2299TIP3    H1 6842   2.878   5.142   1.771
 2299TIP3    H2 6843   2.952   5.273   1.787
 2300TIP3   OH2 6844   5.969   5.916   0.980
 2300TIP3    H1 6845   5.957   5.829   0.942
 2300TIP3    H2 6846   6.042   5.953   0.931
 2301TIP3   OH2 6847   3.278   6.172   1.140
 2301TIP3    H1 6848   3.339   6.195   1.070
 2301TIP3    H2 6849   3.222   6.105   1.101
 2302TIP3   OH2 6850   7.359   1.270   4.279
 2302TIP3    H1 6851   7.415   1.279   4.356
 2302TIP3    H2 6852   7.272   1.249   4.315
 2303TIP3   OH2 6853   6.783   7.579   3.182
 2303TIP3    H1 6854   6.762   7.664   3.143
 2303TIP3    H2 6855   6.698   7.546   3.212
 2304TIP3   OH2 6856   0.423   6.367   4.953
 2304TIP3    H1 6857   0.371   6.447   4.961
 2304TIP3    H2 6858   0.398   6.330   4.869
 2305TIP3   OH2 6859   2.848   7.282   6.010
 2305TIP3    H1 6860   2.827   7.233   6.089
 2305TIP3    H2 6861   2.875   7.216   5.946
 2306TIP3   OH2 6862   6.184   1.124   0.341
 2306TIP3    H1 6863   6.119   1.194   0.348
 2306TIP3    H2 6864   6.141   1.057   0.287
 2307TIP3   OH2 6865   1.841   3.179   1.113
 2307TIP3    H1 6866   1.853   3.084   1.115
 2307TIP3    H2 6867   1.761   3.193   1.063
 2308TIP3   OH2 6868   5.024   7.378   1.050
 2308TIP3    H1 6869   5.099   7.368   1.109
 2308TIP3    H2 6870   5.061   7.411   0.969
 2309TIP3   OH2 6871   4.523   5.101   3.046
 2309TIP3    H1 6872   4.440   5.110   2.998
 2309TIP3    H2 6873   4.546   5.191   3.071
 2310TIP3   OH2 6874   1.345   3.537   4.151
 2310TIP3    H1 6875   1.389   3.595   4.213
 2310TIP3    H2 6876   1.322   3.594   4.077
 2311TIP3   OH2 6877   0.546   4.409   2.987
 2311TIP3    H1 6878   0.583   4.416   3.075
 2311TIP3    H2 6879   0.456   4.441   2.996
 2312TIP3   OH2 6880   3.616   4.531   3.080
 2312TIP3    H1 6881   3.622   4.489   2.994
 2312TIP3    H2 6882   3.582   4.619   3.061
 2313TIP3   OH2 6883   4.467   7.563   2.648
 2313TIP3    H1 6884   4.415   7.501   2.597
 2313TIP3    H2 6885   4.403   7.628   2.678
 2314TIP3   OH2 6886   4.480   5.182   3.994
 2314TIP3    H1 6887   4.473   5.141   3.908
 2314TIP3    H2 6888   4.392   5.215   4.012
 2315TIP3   OH2 6889   4.579   6.851   0.972
 2315TIP3    H1 6890   4.644   6.803   1.023
 2315TIP3    H2 6891   4.629   6.917   0.925
 2316TIP3   OH2 6892   3.599   0.461   2.478
 2316TIP3    H1 6893   3.579   0.376   2.440
 2316TIP3    H2 6894   3.617   0.443   2.570
 2317TIP3   OH2 6895   4.005   3.164   6.458
 2317TIP3    H1 6896   4.061   3.201   6.390
 2317TIP3    H2 6897   4.059   3.162   6.536
 2318TIP3   OH2 6898   1.046   3.024   6.497
 2318TIP3    H1 6899   0.969   3.077   6.518
 2318TIP3    H2 6900   1.014   2.956   6.438
 2319TIP3   OH2 6901   2.858   5.744   0.510
 2319TIP3    H1 6902   2.837   5.748   0.604
 2319TIP3    H2 6903   2.952   5.761   0.507
 2320TIP3   OH2 6904   1.360   5.064   5.292
 2320TIP3    H1 6905   1.448   5.099   5.278
 2320TIP3    H2 6906   1.359   5.037   5.384
 2321TIP3   OH2 6907   1.288   2.865   5.699
 2321TIP3    H1 6908   1.195   2.856   5.676
 2321TIP3    H2 6909   1.293   2.948   5.747
 2322TIP3   OH2 6910   7.460   2.077   4.237
 2322TIP3    H1 6911   7.411   2.107   4.161
 2322TIP3    H2 6912   7.450   1.982   4.237
 2323TIP3   OH2 6913   4.762   1.180   4.689
 2323TIP3    H1 6914   4.820   1.119   4.644
 2323TIP3    H2 6915   4.806   1.265   4.683
 2324TIP3   OH2 6916   3.009   2.580   0.484
 2324TIP3    H1 6917   3.026   2.632   0.563
 2324TIP3    H2 6918   2.927   2.534   0.503
 2325TIP3   OH2 6919   0.474   6.165   0.974
 2325TIP3    H1 6920   0.543   6.201   0.919
 2325TIP3    H2 6921   0.393   6.206   0.943
 2326TIP3   OH2 6922   8.023   3.722   4.957
 2326TIP3    H1 6923   8.051   3.634   4.932
 2326TIP3    H2 6924   7.985   3.711   5.044
 2327TIP3   OH2 6925   6.873   2.932   5.507
 2327TIP3    H1 6926   6.856   2.974   5.591
 2327TIP3    H2 6927   6.965   2.950   5.488
 2328TIP3   OH2 6928   5.437   7.787   0.443
 2328TIP3    H1 6929   5.469   7.741   0.366
 2328TIP3    H2 6930   5.358   7.834   0.413
 2329TIP3   OH2 6931   1.549   6.258   5.119
 2329TIP3    H1 6932   1.477   6.297   5.070
 2329TIP3    H2 6933   1.507   6.191   5.174
 2330TIP3   OH2 6934   4.872   2.329   1.040
 2330TIP3    H1 6935   4.840   2.272   1.110
 2330TIP3    H2 6936   4.928   2.272   0.987
 2331TIP3   OH2 6937   4.785   7.668   4.847
 2331TIP3    H1 6938   4.764   7.622   4.766
 2331TIP3    H2 6939   4.819   7.753   4.819
 2332TIP3   OH2 6940   7.128   2.900   5.382
 2332TIP3    H1 6941   7.203   2.890   5.323
 2332TIP3    H2 6942   7.074   2.823   5.366
 2333TIP3   OH2 6943   5.652   5.125   3.230
 2333TIP3    H1 6944   5.581   5.164   3.179
 2333TIP3    H2 6945   5.674   5.044   3.184
 2334TIP3   OH2 6946   8.225   0.706   2.860
 2334TIP3    H1 6947   8.167   0.780   2.881
 2334TIP3    H2 6948   8.170   0.647   2.807
 2335TIP3   OH2 6949   1.747   4.655   5.120
 2335TIP3    H1 6950   1.732   4.701   5.202
 2335TIP3    H2 6951   1.842   4.647   5.114
 2336TIP3   OH2 6952   1.060   0.838   0.545
 2336TIP3    H1 6953   1.076   0.932   0.533
 2336TIP3    H2 6954   1.012   0.812   0.466
 2337TIP3   OH2 6955   1.062   6.099   5.084
 2337TIP3    H1 6956   0.968   6.097   5.105
 2337TIP3    H2 6957   1.101   6.147   5.156
 2338TIP3   OH2 6958   6.649   0.349   4.986
 2338TIP3    H1 6959   6.602   0.387   5.060
 2338TIP3    H2 6960   6.633   0.255   4.993
 2339TIP3   OH2 6961   0.006   7.479   1.102
 2339TIP3    H1 6962   0.098   7.506   1.107
 2339TIP3    H2 6963   0.006   7.390   1.136
 2340TIP3   OH2 6964   4.148   6.057   1.821
 2340TIP3    H1 6965   4.136   5.963   1.828
 2340TIP3    H2 6966   4.204   6.080   1.895
 2341TIP3   OH2 6967   3.255   2.874   3.516
 2341TIP3    H1 6968   3.330   2.934   3.521
 2341TIP3    H2 6969   3.198   2.901   3.588
 2342TIP3   OH2 6970   6.253   7.682   5.857
 2342TIP3    H1 6971   6.316   7.614   5.832
 2342TIP3    H2 6972   6.305   7.762   5.861
 2343TIP3   OH2 6973   2.512   1.233   6.044
 2343TIP3    H1 6974   2.579   1.223   5.977
 2343TIP3    H2 6975   2.552   1.290   6.110
 2344TIP3   OH2 6976   8.299   4.377   4.319
 2344TIP3    H1 6977   8.216   4.378   4.366
 2344TIP3    H2 6978   8.312   4.285   4.294
 2345TIP3   OH2 6979   7.752   6.947   6.079
 2345TIP3    H1 6980   7.768   7.000   6.157
 2345TIP3    H2 6981   7.718   6.864   6.112
 2346TIP3   OH2 6982   6.782   3.109   5.053
 2346TIP3    H1 6983   6.874   3.128   5.031
 2346TIP3    H2 6984   6.751   3.189   5.095
 2347TIP3   OH2 6985   8.013   1.201   5.883
 2347TIP3    H1 6986   7.951   1.237   5.819
 2347TIP3    H2 6987   8.059   1.132   5.836
 2348TIP3   OH2 6988   5.092   3.828   3.701
 2348TIP3    H1 6989   5.154   3.896   3.729
 2348TIP3    H2 6990   5.031   3.820   3.774
 2349TIP3   OH2 6991   4.655   3.789   3.975
 2349TIP3    H1 6992   4.740   3.812   3.937
 2349TIP3    H2 6993   4.676   3.751   4.060
 2350TIP3   OH2 6994   4.413   7.267   0.994
 2350TIP3    H1 6995   4.411   7.271   0.898
 2350TIP3    H2 6996   4.381   7.179   1.015
 2351TIP3   OH2 6997   0.127   2.412   1.091
 2351TIP3    H1 6998   0.124   2.320   1.119
 2351TIP3    H2 6999   0.219   2.427   1.068
 2352TIP3   OH2 7000   0.364   3.696   5.789
 2352TIP3    H1 7001   0.300   3.625   5.797
 2352TIP3    H2 7002   0.349   3.751   5.865
 2353TIP3   OH2 7003   5.882   5.969   0.357
 2353TIP3    H1 7004   5.921   5.886   0.382
 2353TIP3    H2 7005   5.809   5.946   0.298
 2354TIP3   OH2 7006   7.068   1.180   3.556
 2354TIP3    H1 7007   7.161   1.189   3.576
 2354TIP3    H2 7008   7.040   1.104   3.607
 2355TIP3   OH2 7009   6.610   2.828   6.083
 2355TIP3    H1 7010   6.676   2.897   6.086
 2355TIP3    H2 7011   6.552   2.847   6.157
 2356TIP3   OH2 7012   1.045   6.357   6.745
 2356TIP3    H1 7013   0.996   6.276   6.761
 2356TIP3    H2 7014   1.133   6.328   6.722
 2357TIP3   OH2 7015   4.455   1.124   0.500
 2357TIP3    H1 7016   4.411   1.143   0.583
 2357TIP3    H2 7017   4.541   1.165   0.508
 2358TIP3   OH2 7018   2.013   7.349   3.462
 2358TIP3    H1 7019   1.964   7.418   3.418
 2358TIP3    H2 7020   2.098   7.349   3.418
 2359TIP3   OH2 7021   1.403   5.711   4.339
 2359TIP3    H1 7022   1.386   5.765   4.262
 2359TIP3    H2 7023   1.333   5.646   4.339
 2360TIP3   OH2 7024   6.338   1.110   5.868
 2360TIP3    H1 7025   6.324   1.077   5.957
 2360TIP3    H2 7026   6.251   1.118   5.831
 2361TIP3   OH2 7027   1.283   3.248   2.792
 2361TIP3    H1 7028   1.224   3.203   2.853
 2361TIP3    H2 7029   1.230   3.260   2.713
 2362TIP3   OH2 7030   7.837   7.212   1.190
 2362TIP3    H1 7031   7.864   7.258   1.111
 2362TIP3    H2 7032   7.815   7.281   1.252
 2363TIP3   OH2 7033   5.818   2.636   6.642
 2363TIP3    H1 7034   5.884   2.572   6.614
 2363TIP3    H2 7035   5.763   2.648   6.565
 2364TIP3   OH2 7036   3.637   6.152   1.165
 2364TIP3    H1 7037   3.667   6.226   1.219
 2364TIP3    H2 7038   3.678   6.166   1.080
 2365TIP3   OH2 7039   5.474   0.856   1.848
 2365TIP3    H1 7040   5.430   0.820   1.771
 2365TIP3    H2 7041   5.552   0.803   1.858
 2366TIP3   OH2 7042   5.990   5.657   0.916
 2366TIP3    H1 7043   5.917   5.628   0.861
 2366TIP3    H2 7044   6.068   5.620   0.874
 2367TIP3   OH2 7045   2.681   4.977   6.309
 2367TIP3    H1 7046   2.604   5.034   6.302
 2367TIP3    H2 7047   2.730   4.993   6.229
 2368TIP3   OH2 7048   1.431   6.429   1.432
 2368TIP3    H1 7049   1.451   6.389   1.517
 2368TIP3    H2 7050   1.338   6.411   1.419
 2369TIP3   OH2 7051   2.864   0.352   4.945
 2369TIP3    H1 7052   2.849   0.289   5.015
 2369TIP3    H2 7053   2.918   0.420   4.985
 2370TIP3   OH2 7054   6.091   3.990   1.767
 2370TIP3    H1 7055   6.021   4.055   1.771
 2370TIP3    H2 7056   6.044   3.906   1.763
 2371TIP3   OH2 7057   5.935   1.240   2.392
 2371TIP3    H1 7058   5.961   1.166   2.337
 2371TIP3    H2 7059   5.998   1.309   2.371
 2372TIP3   OH2 7060   6.438   7.612   1.422
 2372TIP3    H1 7061   6.456   7.706   1.417
 2372TIP3    H2 7062   6.457   7.589   1.513
 2373TIP3   OH2 7063   0.794   2.695   3.522
 2373TIP3    H1 7064   0.733   2.721   3.453
 2373TIP3    H2 7065   0.815   2.777   3.567
 2374TIP3   OH2 7066   1.190   2.706   6.403
 2374TIP3    H1 7067   1.233   2.623   6.382
 2374TIP3    H2 7068   1.180   2.749   6.318
 2375TIP3   OH2 7069   4.419   3.392   5.025
 2375TIP3    H1 7070   4.355   3.434   5.082
 2375TIP3    H2 7071   4.471   3.338   5.084
 2376TIP3   OH2 7072   2.703   2.475   2.273
 2376TIP3    H1 7073   2.761   2.478   2.349
 2376TIP3    H2 7074   2.651   2.555   2.280
 2377TIP3   OH2 7075   5.185   5.695   2.611
 2377TIP3    H1 7076   5.185   5.636   2.686
 2377TIP3    H2 7077   5.273   5.688   2.574
 2378TIP3   OH2 7078   3.526   7.044   4.345
 2378TIP3    H1 7079   3.582   6.975   4.380
 2378TIP3    H2 7080   3.512   7.020   4.253
 2379TIP3   OH2 7081   6.209   2.087   6.614
 2379TIP3    H1 7082   6.187   2.147   6.685
 2379TIP3    H2 7083   6.124   2.061   6.578
 2380TIP3   OH2 7084   5.408   3.602   4.872
 2380TIP3    H1 7085   5.347   3.533   4.846
 2380TIP3    H2 7086   5.374   3.635   4.955
 2381TIP3   OH2 7087   0.932   3.736   2.642
 2381TIP3    H1 7088   0.979   3.691   2.712
 2381TIP3    H2 7089   0.851   3.767   2.683
 2382TIP3   OH2 7090   4.263   4.580   1.159
 2382TIP3    H1 7091   4.200   4.650   1.146
 2382TIP3    H2 7092   4.328   4.617   1.219
 2383TIP3   OH2 7093   6.675   5.401   0.166
 2383TIP3    H1 7094   6.708   5.313   0.149
 2383TIP3    H2 7095   6.724   5.431   0.243
 2384TIP3   OH2 7096   2.170   5.181   0.934
 2384TIP3    H1 7097   2.108   5.162   1.004
 2384TIP3    H2 7098   2.215   5.098   0.918
 2385TIP3   OH2 7099   7.462   3.216   5.774
 2385TIP3    H1 7100   7.476   3.237   5.867
 2385TIP3    H2 7101   7.383   3.162   5.773
 2386TIP3   OH2 7102   5.593   5.080   2.266
 2386TIP3    H1 7103   5.583   5.019   2.193
 2386TIP3    H2 7104   5.548   5.037   2.339
 2387TIP3   OH2 7105   2.570   7.362   2.222
 2387TIP3    H1 7106   2.475   7.361   2.230
 2387TIP3    H2 7107   2.588   7.321   2.137
 2388TIP3   OH2 7108   7.346   3.460   0.087
 2388TIP3    H1 7109   7.292   3.380   0.087
 2388TIP3    H2 7110   7.283   3.531   0.100
 2389TIP3   OH2 7111   7.243   6.326   5.888
 2389TIP3    H1 7112   7.167   6.377   5.914
 2389TIP3    H2 7113   7.242   6.328   5.792
 2390TIP3   OH2 7114   3.840   1.923   4.247
 2390TIP3    H1 7115   3.823   1.894   4.337
 2390TIP3    H2 7116   3.875   2.011   4.257
 2391TIP3   OH2 7117   6.160   7.490   0.902
 2391TIP3    H1 7118   6.137   7.427   0.834
 2391TIP3    H2 7119   6.081   7.542   0.915
 2392TIP3   OH2 7120   7.694   2.659   5.765
 2392TIP3    H1 7121   7.678   2.745   5.727
 2392TIP3    H2 7122   7.752   2.615   5.702
 2393TIP3   OH2 7123   0.442   3.354   5.218
 2393TIP3    H1 7124   0.493   3.277   5.194
 2393TIP3    H2 7125   0.425   3.344   5.312
 2394TIP3   OH2 7126   3.421   3.328   3.835
 2394TIP3    H1 7127   3.372   3.250   3.810
 2394TIP3    H2 7128   3.441   3.315   3.928
 2395TIP3   OH2 7129   5.018   3.668   1.926
 2395TIP3    H1 7130   5.062   3.619   1.995
 2395TIP3    H2 7131   5.032   3.616   1.847
 2396TIP3   OH2 7132   2.604   5.277   4.942
 2396TIP3    H1 7133   2.575   5.192   4.908
 2396TIP3    H2 7134   2.598   5.336   4.867
 2397TIP3   OH2 7135   5.470   3.208   4.334
 2397TIP3    H1 7136   5.561   3.179   4.341
 2397TIP3    H2 7137   5.469   3.266   4.258
 2398TIP3   OH2 7138   7.060   1.576   5.079
 2398TIP3    H1 7139   7.031   1.485   5.083
 2398TIP3    H2 7140   7.154   1.572   5.098
 2399TIP3   OH2 7141   5.472   1.788   4.285
 2399TIP3    H1 7142   5.398   1.740   4.321
 2399TIP3    H2 7143   5.538   1.785   4.354
 2400TIP3   OH2 7144   7.637   5.160   4.775
 2400TIP3    H1 7145   7.567   5.110   4.817
 2400TIP3    H2 7146   7.660   5.227   4.839
 2401TIP3   OH2 7147   5.516   0.047   4.258
 2401TIP3    H1 7148   5.565   0.079   4.334
 2401TIP3    H2 7149   5.570  -0.025   4.224
 2402TIP3   OH2 7150   7.174   6.345   3.086
 2402TIP3    H1 7151   7.227   6.416   3.123
 2402TIP3    H2 7152   7.216   6.265   3.119
 2403TIP3   OH2 7153   2.175   7.486   1.169
 2403TIP3    H1 7154   2.234   7.541   1.221
 2403TIP3    H2 7155   2.096   7.539   1.158
 2404TIP3   OH2 7156   6.211   5.462   6.077
 2404TIP3    H1 7157   6.196   5.370   6.099
 2404TIP3    H2 7158   6.300   5.479   6.108
 2405TIP3   OH2 7159   2.886   2.479   2.467
 2405TIP3    H1 7160   2.942   2.547   2.429
 2405TIP3    H2 7161   2.942   2.436   2.532
 2406TIP3   OH2 7162   2.264   4.964   5.511
 2406TIP3    H1 7163   2.290   4.923   5.428
 2406TIP3    H2 7164   2.258   5.057   5.490
 2407TIP3   OH2 7165   0.074   3.092   1.628
 2407TIP3    H1 7166   0.155   3.050   1.600
 2407TIP3    H2 7167   0.008   3.064   1.564
 2408TIP3   OH2 7168   2.652   1.183   2.942
 2408TIP3    H1 7169   2.638   1.272   2.908
 2408TIP3    H2 7170   2.666   1.130   2.864
 2409TIP3   OH2 7171   6.103   0.279   0.769
 2409TIP3    H1 7172   6.143   0.302   0.853
 2409TIP3    H2 7173   6.024   0.334   0.765
 2410TIP3   OH2 7174   3.550   1.158   4.452
 2410TIP3    H1 7175   3.555   1.149   4.357
 2410TIP3    H2 7176   3.623   1.105   4.485
 2411TIP3   OH2 7177   2.955   5.024   6.759
 2411TIP3    H1 7178   2.945   5.076   6.679
 2411TIP3    H2 7179   3.026   4.963   6.739
 2412TIP3   OH2 7180   1.796   1.180   0.660
 2412TIP3    H1 7181   1.867   1.135   0.613
 2412TIP3    H2 7182   1.757   1.238   0.594
 2413TIP3   OH2 7183   5.398   0.307   0.476
 2413TIP3    H1 7184   5.435   0.290   0.389
 2413TIP3    H2 7185   5.474   0.330   0.530
 2414TIP3   OH2 7186   7.664   2.550   3.965
 2414TIP3    H1 7187   7.740   2.498   3.941
 2414TIP3    H2 7188   7.643   2.524   4.054
 2415TIP3   OH2 7189   6.766   0.437   1.985
 2415TIP3    H1 7190   6.763   0.418   1.891
 2415TIP3    H2 7191   6.848   0.397   2.014
 2416TIP3   OH2 7192   4.108   5.317   5.579
 2416TIP3    H1 7193   4.088   5.409   5.559
 2416TIP3    H2 7194   4.104   5.312   5.674
 2417TIP3   OH2 7195   4.383   6.299   0.529
 2417TIP3    H1 7196   4.346   6.385   0.547
 2417TIP3    H2 7197   4.358   6.281   0.439
 2418TIP3   OH2 7198   4.247   5.343   6.484
 2418TIP3    H1 7199   4.158   5.376   6.482
 2418TIP3    H2 7200   4.247   5.279   6.555
 2419TIP3   OH2 7201   4.215   5.096   6.638
 2419TIP3    H1 7202   4.132   5.135   6.665
 2419TIP3    H2 7203   4.199   5.002   6.641
 2420TIP3   OH2 7204   5.353   2.885   0.849
 2420TIP3    H1 7205   5.431   2.840   0.882
 2420TIP3    H2 7206   5.289   2.815   0.836
 2421TIP3   OH2 7207   5.399   4.502   4.785
 2421TIP3    H1 7208   5.470   4.562   4.760
 2421TIP3    H2 7209   5.320   4.556   4.783
 2422TIP3   OH2 7210   1.881   6.222   3.121
 2422TIP3    H1 7211   1.834   6.170   3.185
 2422TIP3    H2 7212   1.829   6.302   3.111
 2423TIP3   OH2 7213   6.708   5.107   1.184
 2423TIP3    H1 7214   6.797   5.137   1.166
 2423TIP3    H2 7215   6.666   5.103   1.098
 2424TIP3   OH2 7216   0.997   3.297   4.570
 2424TIP3    H1 7217   1.013   3.390   4.554
 2424TIP3    H2 7218   0.978   3.292   4.664
 2425TIP3   OH2 7219   5.899   2.292   4.936
 2425TIP3    H1 7220   5.856   2.209   4.956
 2425TIP3    H2 7221   5.882   2.306   4.842
 2426TIP3   OH2 7222   0.504   0.964   4.712
 2426TIP3    H1 7223   0.593   0.986   4.741
 2426TIP3    H2 7224   0.453   0.959   4.792
 2427TIP3   OH2 7225   6.547   4.379   3.729
 2427TIP3    H1 7226   6.626   4.336   3.695
 2427TIP3    H2 7227   6.577   4.466   3.754
 2428TIP3   OH2 7228   5.422   7.084   0.388
 2428TIP3    H1 7229   5.344   7.073   0.443
 2428TIP3    H2 7230   5.392   7.138   0.315
 2429TIP3   OH2 7231   4.505   1.904   6.634
 2429TIP3    H1 7232   4.543   1.858   6.709
 2429TIP3    H2 7233   4.556   1.985   6.628
 2430TIP3   OH2 7234   4.574   2.208   4.228
 2430TIP3    H1 7235   4.597   2.146   4.159
 2430TIP3    H2 7236   4.536   2.283   4.182
 2431TIP3   OH2 7237   1.000   0.178   3.313
 2431TIP3    H1 7238   1.029   0.225   3.392
 2431TIP3    H2 7239   0.963   0.096   3.347
 2432TIP3   OH2 7240   4.121   6.869   6.540
 2432TIP3    H1 7241   4.213   6.842   6.539
 2432TIP3    H2 7242   4.121   6.957   6.577
 2433TIP3   OH2 7243   1.113   6.098   6.380
 2433TIP3    H1 7244   1.071   6.103   6.294
 2433TIP3    H2 7245   1.090   6.181   6.422
 2434TIP3   OH2 7246   7.127   6.673   3.130
 2434TIP3    H1 7247   7.064   6.679   3.057
 2434TIP3    H2 7248   7.076   6.634   3.201
 2435TIP3   OH2 7249   2.877   6.305   0.260
 2435TIP3    H1 7250   2.887   6.244   0.187
 2435TIP3    H2 7251   2.788   6.291   0.291
 2436TIP3   OH2 7252   7.263   1.964   5.791
 2436TIP3    H1 7253   7.330   2.030   5.771
 2436TIP3    H2 7254   7.227   1.940   5.706
 2437TIP3   OH2 7255   6.237   0.334   5.477
 2437TIP3    H1 7256   6.152   0.309   5.439
 2437TIP3    H2 7257   6.270   0.401   5.417
 2438TIP3   OH2 7258   6.198   5.533   3.508
 2438TIP3    H1 7259   6.253   5.495   3.439
 2438TIP3    H2 7260   6.119   5.479   3.508
 2439TIP3   OH2 7261   6.962   2.711   5.638
 2439TIP3    H1 7262   6.907   2.789   5.638
 2439TIP3    H2 7263   7.047   2.742   5.670
 2440TIP3   OH2 7264   6.056   0.993   6.281
 2440TIP3    H1 7265   6.101   0.954   6.206
 2440TIP3    H2 7266   6.112   1.066   6.308
 2441TIP3   OH2 7267   2.871   0.839   2.704
 2441TIP3    H1 7268   2.936   0.811   2.768
 2441TIP3    H2 7269   2.886   0.783   2.628
 2442TIP3   OH2 7270   8.063   1.078   1.332
 2442TIP3    H1 7271   8.000   1.138   1.372
 2442TIP3    H2 7272   8.143   1.088   1.384
 2443TIP3   OH2 7273   3.614   2.393   4.428
 2443TIP3    H1 7274   3.570   2.313   4.453
 2443TIP3    H2 7275   3.665   2.418   4.505
 2444TIP3   OH2 7276   7.031   6.794   1.400
 2444TIP3    H1 7277   6.959   6.856   1.393
 2444TIP3    H2 7278   7.075   6.798   1.315
 2445TIP3   OH2 7279   6.161   6.551   2.863
 2445TIP3    H1 7280   6.195   6.521   2.947
 2445TIP3    H2 7281   6.238   6.562   2.808
 2446TIP3   OH2 7282   3.900   1.345   0.847
 2446TIP3    H1 7283   3.817   1.298   0.840
 2446TIP3    H2 7284   3.879   1.434   0.819
 2447TIP3   OH2 7285   1.348   3.359   6.633
 2447TIP3    H1 7286   1.337   3.266   6.654
 2447TIP3    H2 7287   1.425   3.386   6.682
 2448TIP3   OH2 7288   7.201   6.301   5.606
 2448TIP3    H1 7289   7.122   6.276   5.653
 2448TIP3    H2 7290   7.191   6.394   5.588
 2449TIP3   OH2 7291   6.515   0.762   0.604
 2449TIP3    H1 7292   6.459   0.766   0.681
 2449TIP3    H2 7293   6.489   0.838   0.551
 2450TIP3   OH2 7294   3.750   1.087   0.583
 2450TIP3    H1 7295   3.804   1.105   0.506
 2450TIP3    H2 7296   3.737   0.992   0.582
 2451TIP3   OH2 7297   5.096   2.591   1.497
 2451TIP3    H1 7298   5.102   2.518   1.436
 2451TIP3    H2 7299   5.108   2.669   1.444
 2452TIP3   OH2 7300   1.755   7.027   5.620
 2452TIP3    H1 7301   1.703   7.010   5.699
 2452TIP3    H2 7302   1.845   7.015   5.648
 2453TIP3   OH2 7303   5.265   5.064   1.599
 2453TIP3    H1 7304   5.315   5.126   1.651
 2453TIP3    H2 7305   5.201   5.118   1.552
 2454TIP3   OH2 7306   1.048   2.694   5.900
 2454TIP3    H1 7307   1.036   2.751   5.823
 2454TIP3    H2 7308   0.985   2.727   5.964
 2455TIP3   OH2 7309   3.972   1.720   1.467
 2455TIP3    H1 7310   3.939   1.631   1.464
 2455TIP3    H2 7311   4.018   1.726   1.551
 2456TIP3   OH2 7312   3.665   3.734   5.637
 2456TIP3    H1 7313   3.668   3.643   5.666
 2456TIP3    H2 7314   3.572   3.754   5.629
 2457TIP3   OH2 7315   3.845   2.846   1.375
 2457TIP3    H1 7316   3.934   2.869   1.350
 2457TIP3    H2 7317   3.822   2.911   1.442
 2458TIP3   OH2 7318   5.810   6.604   5.181
 2458TIP3    H1 7319   5.786   6.577   5.270
 2458TIP3    H2 7320   5.844   6.692   5.191
 2459TIP3   OH2 7321   7.515   4.542   1.092
 2459TIP3    H1 7322   7.534   4.553   0.999
 2459TIP3    H2 7323   7.597   4.512   1.131
 2460TIP3   OH2 7324   0.657   5.646   2.052
 2460TIP3    H1 7325   0.632   5.675   1.964
 2460TIP3    H2 7326   0.642   5.552   2.051
 2461TIP3   OH2 7327   1.546   3.577   3.062
 2461TIP3    H1 7328   1.572   3.614   2.978
 2461TIP3    H2 7329   1.560   3.648   3.125
 2462TIP3   OH2 7330   2.854   4.973   3.219
 2462TIP3    H1 7331   2.855   4.877   3.215
 2462TIP3    H2 7332   2.913   5.000   3.149
 2463TIP3   OH2 7333   3.182   2.015   1.397
 2463TIP3    H1 7334   3.158   2.106   1.379
 2463TIP3    H2 7335   3.249   1.994   1.332
 2464TIP3   OH2 7336   5.328   5.272   3.798
 2464TIP3    H1 7337   5.273   5.280   3.875
 2464TIP3    H2 7338   5.408   5.319   3.821
 2465TIP3   OH2 7339   6.191   6.961   1.882
 2465TIP3    H1 7340   6.186   6.963   1.978
 2465TIP3    H2 7341   6.222   7.048   1.858
 2466TIP3   OH2 7342   3.100   7.712   4.547
 2466TIP3    H1 7343   3.127   7.647   4.482
 2466TIP3    H2 7344   3.180   7.732   4.596
 2467TIP3   OH2 7345   0.290   3.102   6.043
 2467TIP3    H1 7346   0.228   3.140   6.105
 2467TIP3    H2 7347   0.376   3.133   6.072
 2468TIP3   OH2 7348   6.994   6.592   1.582
 2468TIP3    H1 7349   7.015   6.664   1.522
 2468TIP3    H2 7350   6.898   6.595   1.589
 2469TIP3   OH2 7351   3.087   3.865   0.378
 2469TIP3    H1 7352   3.070   3.881   0.471
 2469TIP3    H2 7353   3.177   3.833   0.375
 2470TIP3   OH2 7354   1.604   2.482   5.639
 2470TIP3    H1 7355   1.622   2.463   5.731
 2470TIP3    H2 7356   1.518   2.525   5.640
 2471TIP3   OH2 7357   3.776   0.839   5.542
 2471TIP3    H1 7358   3.809   0.835   5.632
 2471TIP3    H2 7359   3.746   0.929   5.531
 2472TIP3   OH2 7360   1.998   7.194   5.622
 2472TIP3    H1 7361   2.004   7.279   5.665
 2472TIP3    H2 7362   1.960   7.213   5.536
 2473TIP3   OH2 7363   7.143   7.759   2.684
 2473TIP3    H1 7364   7.060   7.796   2.653
 2473TIP3    H2 7365   7.207   7.783   2.618
 2474TIP3   OH2 7366   4.130   1.330   5.104
 2474TIP3    H1 7367   4.174   1.376   5.176
 2474TIP3    H2 7368   4.196   1.271   5.070
 2475TIP3   OH2 7369   1.674   6.918   6.192
 2475TIP3    H1 7370   1.705   6.830   6.211
 2475TIP3    H2 7371   1.593   6.926   6.242
 2476TIP3   OH2 7372   1.762   5.208   3.730
 2476TIP3    H1 7373   1.693   5.270   3.752
 2476TIP3    H2 7374   1.760   5.144   3.800
 2477TIP3   OH2 7375   0.820   5.991   3.412
 2477TIP3    H1 7376   0.904   6.028   3.384
 2477TIP3    H2 7377   0.801   6.035   3.495
 2478TIP3   OH2 7378   1.415   5.137   0.161
 2478TIP3    H1 7379   1.337   5.123   0.214
 2478TIP3    H2 7380   1.425   5.056   0.111
 2479TIP3   OH2 7381   5.286   4.642   4.271
 2479TIP3    H1 7382   5.254   4.654   4.360
 2479TIP3    H2 7383   5.278   4.548   4.255
 2480TIP3   OH2 7384   8.184   3.029   5.793
 2480TIP3    H1 7385   8.225   2.959   5.742
 2480TIP3    H2 7386   8.204   3.007   5.884
 2481TIP3   OH2 7387   2.816   2.547   3.497
 2481TIP3    H1 7388   2.768   2.484   3.444
 2481TIP3    H2 7389   2.773   2.544   3.583
 2482TIP3   OH2 7390   0.614   5.270   0.463
 2482TIP3    H1 7391   0.547   5.238   0.523
 2482TIP3    H2 7392   0.573   5.262   0.376
 2483TIP3   OH2 7393   5.606   3.574   2.382
 2483TIP3    H1 7394   5.661   3.625   2.323
 2483TIP3    H2 7395   5.658   3.562   2.460
 2484TIP3   OH2 7396   7.465   4.662  -0.025
 2484TIP3    H1 7397   7.449   4.731   0.040
 2484TIP3    H2 7398   7.458   4.580   0.024
 2485TIP3   OH2 7399   0.385   4.684   6.681
 2485TIP3    H1 7400   0.402   4.595   6.650
 2485TIP3    H2 7401   0.331   4.724   6.613
 2486TIP3   OH2 7402   0.569   3.176   6.127
 2486TIP3    H1 7403   0.591   3.245   6.190
 2486TIP3    H2 7404   0.645   3.171   6.069
 2487TIP3   OH2 7405   5.346   1.571   3.190
 2487TIP3    H1 7406   5.305   1.573   3.103
 2487TIP3    H2 7407   5.413   1.504   3.183
 2488TIP3   OH2 7408   0.877   5.897   4.801
 2488TIP3    H1 7409   0.841   5.831   4.742
 2488TIP3    H2 7410   0.847   5.871   4.888
 2489TIP3   OH2 7411   3.644   2.771   4.639
 2489TIP3    H1 7412   3.689   2.688   4.651
 2489TIP3    H2 7413   3.552   2.752   4.658
 2490TIP3   OH2 7414   4.221   7.716   2.656
 2490TIP3    H1 7415   4.194   7.639   2.706
 2490TIP3    H2 7416   4.140   7.762   2.638
 2491TIP3   OH2 7417   2.368   2.042   0.801
 2491TIP3    H1 7418   2.359   2.075   0.711
 2491TIP3    H2 7419   2.278   2.019   0.826
 2492TIP3   OH2 7420   8.215   2.901   1.901
 2492TIP3    H1 7421   8.294   2.855   1.873
 2492TIP3    H2 7422   8.155   2.893   1.827
 2493TIP3   OH2 7423   0.034   2.528   4.948
 2493TIP3    H1 7424  -0.010   2.443   4.952
 2493TIP3    H2 7425   0.125   2.507   4.928
 2494TIP3   OH2 7426   7.712   6.621   0.941
 2494TIP3    H1 7427   7.719   6.598   1.033
 2494TIP3    H2 7428   7.661   6.549   0.903
 2495TIP3   OH2 7429   0.675   6.754   2.156
 2495TIP3    H1 7430   0.709   6.709   2.078
 2495TIP3    H2 7431   0.591   6.791   2.128
 2496TIP3   OH2 7432   2.169   3.237   1.483
 2496TIP3    H1 7433   2.168   3.229   1.387
 2496TIP3    H2 7434   2.248   3.287   1.502
 2497TIP3   OH2 7435   7.890   7.373   1.787
 2497TIP3    H1 7436   7.936   7.337   1.711
 2497TIP3    H2 7437   7.834   7.301   1.818
 2498TIP3   OH2 7438   7.108   5.995   5.819
 2498TIP3    H1 7439   7.093   5.930   5.750
 2498TIP3    H2 7440   7.073   6.076   5.783
 2499TIP3   OH2 7441   6.016   7.691   5.976
 2499TIP3    H1 7442   6.046   7.746   6.048
 2499TIP3    H2 7443   6.095   7.671   5.926
 2500TIP3   OH2 7444   5.109   6.933   3.336
 2500TIP3    H1 7445   5.022   6.951   3.370
 2500TIP3    H2 7446   5.114   6.837   3.331
 2501TIP3   OH2 7447   8.151   7.645   3.724
 2501TIP3    H1 7448   8.115   7.556   3.721
 2501TIP3    H2 7449   8.182   7.661   3.635
 2502TIP3   OH2 7450   2.241   3.690   5.796
 2502TIP3    H1 7451   2.270   3.600   5.814
 2502TIP3    H2 7452   2.146   3.684   5.788
 2503TIP3   OH2 7453   7.271   3.210   2.918
 2503TIP3    H1 7454   7.216   3.251   2.984
 2503TIP3    H2 7455   7.361   3.230   2.946
 2504TIP3   OH2 7456   2.630   4.982   5.635
 2504TIP3    H1 7457   2.689   4.923   5.587
 2504TIP3    H2 7458   2.624   4.944   5.722
 2505TIP3   OH2 7459   0.142   4.010   2.406
 2505TIP3    H1 7460   0.235   3.989   2.411
 2505TIP3    H2 7461   0.137   4.086   2.348
 2506TIP3   OH2 7462   5.767   7.120   2.228
 2506TIP3    H1 7463   5.703   7.162   2.171
 2506TIP3    H2 7464   5.780   7.034   2.189
 2507TIP3   OH2 7465   2.786   1.433   1.453
 2507TIP3    H1 7466   2.760   1.343   1.430
 2507TIP3    H2 7467   2.773   1.438   1.548
 2508TIP3   OH2 7468   3.258   0.168   0.535
 2508TIP3    H1 7469   3.249   0.165   0.439
 2508TIP3    H2 7470   3.175   0.205   0.565
 2509TIP3   OH2 7471   5.312   5.776   0.853
 2509TIP3    H1 7472   5.365   5.777   0.932
 2509TIP3    H2 7473   5.262   5.695   0.859
 2510TIP3   OH2 7474   1.799   5.424   5.345
 2510TIP3    H1 7475   1.733   5.457   5.405
 2510TIP3    H2 7476   1.769   5.336   5.323
 2511TIP3   OH2 7477   5.603   4.941   0.464
 2511TIP3    H1 7478   5.635   4.936   0.554
 2511TIP3    H2 7479   5.562   4.856   0.448
 2512TIP3   OH2 7480   3.771   5.330   1.820
 2512TIP3    H1 7481   3.708   5.276   1.772
 2512TIP3    H2 7482   3.827   5.268   1.865
 2513TIP3   OH2 7483   1.314   6.724   3.616
 2513TIP3    H1 7484   1.262   6.793   3.576
 2513TIP3    H2 7485   1.396   6.767   3.640
 2514TIP3   OH2 7486   3.232   4.697   2.595
 2514TIP3    H1 7487   3.312   4.739   2.627
 2514TIP3    H2 7488   3.176   4.770   2.568
 2515TIP3   OH2 7489   4.901   4.356   4.130
 2515TIP3    H1 7490   4.907   4.435   4.075
 2515TIP3    H2 7491   4.926   4.285   4.071
 2516TIP3   OH2 7492   6.200   2.906   3.799
 2516TIP3    H1 7493   6.252   2.953   3.864
 2516TIP3    H2 7494   6.125   2.963   3.783
 2517TIP3   OH2 7495   1.630   6.561   4.118
 2517TIP3    H1 7496   1.553   6.516   4.083
 2517TIP3    H2 7497   1.636   6.532   4.209
 2518TIP3   OH2 7498   2.576   5.833   0.535
 2518TIP3    H1 7499   2.577   5.855   0.628
 2518TIP3    H2 7500   2.654   5.778   0.522
 2519TIP3   OH2 7501   5.786   4.721   5.540
 2519TIP3    H1 7502   5.730   4.798   5.530
 2519TIP3    H2 7503   5.803   4.716   5.635
 2520TIP3   OH2 7504   6.281   5.178   3.601
 2520TIP3    H1 7505   6.252   5.254   3.551
 2520TIP3    H2 7506   6.205   5.153   3.653
 2521TIP3   OH2 7507   6.645   3.165   0.652
 2521TIP3    H1 7508   6.612   3.159   0.562
 2521TIP3    H2 7509   6.687   3.251   0.656
 2522TIP3   OH2 7510   6.952   0.458   2.637
 2522TIP3    H1 7511   6.867   0.419   2.659
 2522TIP3    H2 7512   6.943   0.550   2.663
 2523TIP3   OH2 7513   3.075   6.459   0.361
 2523TIP3    H1 7514   3.012   6.391   0.334
 2523TIP3    H2 7515   3.021   6.532   0.391
 2524TIP3   OH2 7516   2.157   0.245   5.169
 2524TIP3    H1 7517   2.241   0.282   5.141
 2524TIP3    H2 7518   2.120   0.207   5.090
 2525TIP3   OH2 7519   4.037   6.681   3.235
 2525TIP3    H1 7520   4.072   6.611   3.179
 2525TIP3    H2 7521   3.943   6.664   3.239
 2526TIP3   OH2 7522   5.422   5.085   1.209
 2526TIP3    H1 7523   5.481   5.157   1.232
 2526TIP3    H2 7524   5.336   5.127   1.202
 2527TIP3   OH2 7525   0.488   1.243   4.137
 2527TIP3    H1 7526   0.579   1.264   4.116
 2527TIP3    H2 7527   0.492   1.152   4.167
 2528TIP3   OH2 7528   7.217   1.742   3.551
 2528TIP3    H1 7529   7.280   1.723   3.621
 2528TIP3    H2 7530   7.132   1.714   3.586
 2529TIP3   OH2 7531   0.443   4.827   5.955
 2529TIP3    H1 7532   0.513   4.892   5.957
 2529TIP3    H2 7533   0.408   4.833   5.866
 2530TIP3   OH2 7534   1.054   7.586   0.827
 2530TIP3    H1 7535   0.970   7.605   0.870
 2530TIP3    H2 7536   1.120   7.605   0.894
 2531TIP3   OH2 7537   5.067   1.155   1.183
 2531TIP3    H1 7538   5.015   1.094   1.235
 2531TIP3    H2 7539   5.095   1.222   1.245
 2532TIP3   OH2 7540   2.053   3.189   6.446
 2532TIP3    H1 7541   1.974   3.162   6.399
 2532TIP3    H2 7542   2.093   3.107   6.475
 2533TIP3   OH2 7543   4.934   4.626   1.101
 2533TIP3    H1 7544   4.949   4.682   1.024
 2533TIP3    H2 7545   4.874   4.558   1.071
 2534TIP3   OH2 7546   7.816   3.835   6.352
 2534TIP3    H1 7547   7.883   3.767   6.355
 2534TIP3    H2 7548   7.814   3.870   6.441
 2535TIP3   OH2 7549   6.968   0.983   6.791
 2535TIP3    H1 7550   6.912   0.947   6.722
 2535TIP3    H2 7551   7.054   0.942   6.776
 2536TIP3   OH2 7552   1.411   1.769   4.052
 2536TIP3    H1 7553   1.382   1.798   4.138
 2536TIP3    H2 7554   1.506   1.781   4.053
 2537TIP3   OH2 7555   7.803   4.574   4.329
 2537TIP3    H1 7556   7.855   4.627   4.390
 2537TIP3    H2 7557   7.723   4.624   4.315
 2538TIP3   OH2 7558   1.130   4.583   3.300
 2538TIP3    H1 7559   1.076   4.594   3.223
 2538TIP3    H2 7560   1.154   4.673   3.325
 2539TIP3   OH2 7561   2.659   6.050   0.275
 2539TIP3    H1 7562   2.732   6.060   0.214
 2539TIP3    H2 7563   2.581   6.060   0.221
 2540TIP3   OH2 7564   5.064   5.989   0.544
 2540TIP3    H1 7565   5.022   6.002   0.629
 2540TIP3    H2 7566   5.140   5.934   0.563
 2541TIP3   OH2 7567   6.442   2.576   6.429
 2541TIP3    H1 7568   6.366   2.621   6.465
 2541TIP3    H2 7569   6.421   2.483   6.437
 2542TIP3   OH2 7570   0.137   0.046   5.035
 2542TIP3    H1 7571   0.067  -0.016   5.016
 2542TIP3    H2 7572   0.106   0.097   5.109
 2543TIP3   OH2 7573   4.332   0.079   1.809
 2543TIP3    H1 7574   4.268   0.148   1.791
 2543TIP3    H2 7575   4.414   0.127   1.827
 2544TIP3   OH2 7576   0.520   4.406   2.638
 2544TIP3    H1 7577   0.461   4.333   2.616
 2544TIP3    H2 7578   0.473   4.484   2.609
 2545TIP3   OH2 7579   5.000   0.181   3.152
 2545TIP3    H1 7580   4.939   0.141   3.091
 2545TIP3    H2 7581   4.952   0.255   3.189
 2546TIP3   OH2 7582   6.293   1.885   1.100
 2546TIP3    H1 7583   6.389   1.890   1.101
 2546TIP3    H2 7584   6.267   1.911   1.189
 2547TIP3   OH2 7585   5.288   2.756   1.773
 2547TIP3    H1 7586   5.365   2.759   1.829
 2547TIP3    H2 7587   5.230   2.825   1.807
 2548TIP3   OH2 7588   4.055   7.156   5.299
 2548TIP3    H1 7589   4.011   7.170   5.382
 2548TIP3    H2 7590   4.148   7.168   5.318
 2549TIP3   OH2 7591   4.206   4.987   2.787
 2549TIP3    H1 7592   4.152   4.912   2.763
 2549TIP3    H2 7593   4.144   5.053   2.817
 2550TIP3   OH2 7594   7.365   1.171   6.206
 2550TIP3    H1 7595   7.387   1.194   6.297
 2550TIP3    H2 7596   7.416   1.232   6.153
 2551TIP3   OH2 7597   4.234   4.838   5.491
 2551TIP3    H1 7598   4.162   4.882   5.446
 2551TIP3    H2 7599   4.281   4.792   5.422
 2552TIP3   OH2 7600   7.429   0.655   2.245
 2552TIP3    H1 7601   7.429   0.673   2.151
 2552TIP3    H2 7602   7.512   0.612   2.262
 2553TIP3   OH2 7603   6.917   1.858   4.429
 2553TIP3    H1 7604   6.978   1.912   4.379
 2553TIP3    H2 7605   6.956   1.852   4.516
 2554TIP3   OH2 7606   1.064   7.378   4.219
 2554TIP3    H1 7607   1.152   7.393   4.254
 2554TIP3    H2 7608   1.078   7.345   4.131
 2555TIP3   OH2 7609   6.847   1.269   4.656
 2555TIP3    H1 7610   6.868   1.344   4.601
 2555TIP3    H2 7611   6.752   1.262   4.654
 2556TIP3   OH2 7612   6.589   1.526   4.406
 2556TIP3    H1 7613   6.516   1.578   4.439
 2556TIP3    H2 7614   6.624   1.483   4.484
 2557TIP3   OH2 7615   1.321   1.772   3.192
 2557TIP3    H1 7616   1.374   1.817   3.258
 2557TIP3    H2 7617   1.378   1.703   3.159
 2558TIP3   OH2 7618   2.348   5.634   0.690
 2558TIP3    H1 7619   2.345   5.679   0.775
 2558TIP3    H2 7620   2.438   5.603   0.683
 2559TIP3   OH2 7621   6.752   1.033   3.643
 2559TIP3    H1 7622   6.823   1.002   3.587
 2559TIP3    H2 7623   6.699   0.956   3.662
 2560TIP3   OH2 7624   0.094   1.909   6.806
 2560TIP3    H1 7625   0.175   1.910   6.754
 2560TIP3    H2 7626   0.025   1.888   6.744
 2561TIP3   OH2 7627   3.991   5.598   2.961
 2561TIP3    H1 7628   3.928   5.669   2.970
 2561TIP3    H2 7629   3.982   5.568   2.871
 2562TIP3   OH2 7630   3.129   1.600   0.801
 2562TIP3    H1 7631   3.095   1.531   0.858
 2562TIP3    H2 7632   3.051   1.642   0.765
 2563TIP3   OH2 7633   2.109   4.760   5.594
 2563TIP3    H1 7634   2.153   4.841   5.569
 2563TIP3    H2 7635   2.018   4.773   5.568
 2564TIP3   OH2 7636   3.679   3.274   6.325
 2564TIP3    H1 7637   3.598   3.321   6.307
 2564TIP3    H2 7638   3.748   3.335   6.298
 2565TIP3   OH2 7639   3.184   4.493   1.783
 2565TIP3    H1 7640   3.265   4.518   1.738
 2565TIP3    H2 7641   3.198   4.520   1.874
 2566TIP3   OH2 7642   2.430   2.680   1.461
 2566TIP3    H1 7643   2.485   2.611   1.423
 2566TIP3    H2 7644   2.381   2.635   1.531
 2567TIP3   OH2 7645   6.762   7.623   4.467
 2567TIP3    H1 7646   6.765   7.552   4.532
 2567TIP3    H2 7647   6.772   7.579   4.383
 2568TIP3   OH2 7648   5.728   1.095   0.267
 2568TIP3    H1 7649   5.733   1.004   0.296
 2568TIP3    H2 7650   5.733   1.089   0.171
 2569TIP3   OH2 7651   5.494   3.136   0.360
 2569TIP3    H1 7652   5.514   3.185   0.440
 2569TIP3    H2 7653   5.401   3.156   0.344
 2570TIP3   OH2 7654   7.784   0.845   6.251
 2570TIP3    H1 7655   7.754   0.924   6.206
 2570TIP3    H2 7656   7.806   0.784   6.180
 2571TIP3   OH2 7657   0.053   4.448   5.371
 2571TIP3    H1 7658  -0.006   4.375   5.349
 2571TIP3    H2 7659   0.137   4.406   5.390
 2572TIP3   OH2 7660   2.968   1.455   0.621
 2572TIP3    H1 7661   2.980   1.372   0.668
 2572TIP3    H2 7662   3.018   1.443   0.540
 2573TIP3   OH2 7663   1.945   5.022   1.060
 2573TIP3    H1 7664   1.905   5.082   1.124
 2573TIP3    H2 7665   1.874   5.002   0.999
 2574TIP3   OH2 7666   5.387   4.803   0.260
 2574TIP3    H1 7667   5.420   4.751   0.187
 2574TIP3    H2 7668   5.297   4.824   0.236
 2575TIP3   OH2 7669   5.857   1.246   1.621
 2575TIP3    H1 7670   5.931   1.190   1.642
 2575TIP3    H2 7671   5.841   1.296   1.701
 2576TIP3   OH2 7672   0.243   2.797   6.291
 2576TIP3    H1 7673   0.283   2.786   6.377
 2576TIP3    H2 7674   0.316   2.803   6.230
 2577TIP3   OH2 7675   6.687   7.132   0.298
 2577TIP3    H1 7676   6.610   7.178   0.331
 2577TIP3    H2 7677   6.686   7.148   0.203
 2578TIP3   OH2 7678   4.707   3.000   5.590
 2578TIP3    H1 7679   4.714   2.918   5.541
 2578TIP3    H2 7680   4.621   3.035   5.566
 2579TIP3   OH2 7681   0.460   3.954   0.265
 2579TIP3    H1 7682   0.439   3.861   0.277
 2579TIP3    H2 7683   0.377   3.995   0.243
 2580TIP3   OH2 7684   5.863   6.383   5.412
 2580TIP3    H1 7685   5.918   6.431   5.475
 2580TIP3    H2 7686   5.774   6.409   5.435
 2581TIP3   OH2 7687   5.173   5.541   3.149
 2581TIP3    H1 7688   5.091   5.578   3.117
 2581TIP3    H2 7689   5.151   5.451   3.173
 2582TIP3   OH2 7690   6.028   2.855   6.640
 2582TIP3    H1 7691   5.936   2.840   6.620
 2582TIP3    H2 7692   6.063   2.769   6.661
 2583TIP3   OH2 7693   6.169   2.516   1.314
 2583TIP3    H1 7694   6.076   2.522   1.335
 2583TIP3    H2 7695   6.203   2.604   1.328
 2584TIP3   OH2 7696   5.229   3.375   5.731
 2584TIP3    H1 7697   5.310   3.325   5.718
 2584TIP3    H2 7698   5.250   3.463   5.699
 2585TIP3   OH2 7699   1.371   6.425   2.469
 2585TIP3    H1 7700   1.385   6.500   2.527
 2585TIP3    H2 7701   1.300   6.376   2.510
 2586TIP3   OH2 7702   3.837   2.643   3.068
 2586TIP3    H1 7703   3.895   2.689   3.008
 2586TIP3    H2 7704   3.895   2.609   3.136
 2587TIP3   OH2 7705   7.876   4.885   1.174
 2587TIP3    H1 7706   7.832   4.919   1.096
 2587TIP3    H2 7707   7.956   4.936   1.181
 2588TIP3   OH2 7708   0.790   2.413   6.525
 2588TIP3    H1 7709   0.869   2.396   6.474
 2588TIP3    H2 7710   0.775   2.508   6.516
 2589TIP3   OH2 7711   7.468   6.478   5.580
 2589TIP3    H1 7712   7.558   6.484   5.547
 2589TIP3    H2 7713   7.438   6.391   5.552
 2590TIP3   OH2 7714   2.357   4.265   3.134
 2590TIP3    H1 7715   2.284   4.203   3.126
 2590TIP3    H2 7716   2.435   4.211   3.124
 2591TIP3   OH2 7717   1.743   3.210   0.559
 2591TIP3    H1 7718   1.831   3.212   0.521
 2591TIP3    H2 7719   1.688   3.253   0.494
 2592TIP3   OH2 7720   4.101   4.803   2.555
 2592TIP3    H1 7721   4.109   4.709   2.536
 2592TIP3    H2 7722   4.008   4.822   2.544
 2593TIP3   OH2 7723   4.573   4.294   2.185
 2593TIP3    H1 7724   4.574   4.378   2.139
 2593TIP3    H2 7725   4.593   4.229   2.117
 2594TIP3   OH2 7726   1.186   0.435   3.248
 2594TIP3    H1 7727   1.270   0.439   3.202
 2594TIP3    H2 7728   1.200   0.370   3.317
 2595TIP3   OH2 7729   3.962   5.800   5.439
 2595TIP3    H1 7730   3.989   5.806   5.347
 2595TIP3    H2 7731   3.867   5.811   5.437
 2596TIP3   OH2 7732   8.088   6.679   1.441
 2596TIP3    H1 7733   8.130   6.615   1.384
 2596TIP3    H2 7734   8.034   6.733   1.383
 2597TIP3   OH2 7735   6.583   7.273   2.204
 2597TIP3    H1 7736   6.644   7.332   2.248
 2597TIP3    H2 7737   6.603   7.283   2.111
 2598TIP3   OH2 7738   0.562   4.428   4.021
 2598TIP3    H1 7739   0.604   4.412   3.937
 2598TIP3    H2 7740   0.468   4.417   4.003
 2599TIP3   OH2 7741   4.080   7.529   4.822
 2599TIP3    H1 7742   4.073   7.580   4.903
 2599TIP3    H2 7743   4.001   7.475   4.822
 2600TIP3   OH2 7744   7.840   7.810   5.911
 2600TIP3    H1 7745   7.878   7.722   5.915
 2600TIP3    H2 7746   7.827   7.834   6.002
 2601TIP3   OH2 7747   1.236   7.677   6.153
 2601TIP3    H1 7748   1.180   7.726   6.093
 2601TIP3    H2 7749   1.286   7.744   6.200
 2602TIP3   OH2 7750   7.018   3.087   4.291
 2602TIP3    H1 7751   6.936   3.070   4.246
 2602TIP3    H2 7752   7.014   3.034   4.371
 2603TIP3   OH2 7753   3.923   6.596   2.909
 2603TIP3    H1 7754   3.925   6.505   2.879
 2603TIP3    H2 7755   3.924   6.590   3.005
 2604TIP3   OH2 7756   6.306   2.489   0.890
 2604TIP3    H1 7757   6.350   2.433   0.954
 2604TIP3    H2 7758   6.358   2.569   0.888
 2605TIP3   OH2 7759   5.056   7.210   4.415
 2605TIP3    H1 7760   5.087   7.163   4.338
 2605TIP3    H2 7761   5.021   7.141   4.472
 2606TIP3   OH2 7762   0.969   5.984   3.059
 2606TIP3    H1 7763   0.919   6.030   2.991
 2606TIP3    H2 7764   0.958   6.038   3.137
 2607TIP3   OH2 7765   0.606   3.402   2.729
 2607TIP3    H1 7766   0.619   3.337   2.660
 2607TIP3    H2 7767   0.530   3.370   2.778
 2608TIP3   OH2 7768   5.019   2.155   4.043
 2608TIP3    H1 7769   4.949   2.099   4.076
 2608TIP3    H2 7770   5.098   2.102   4.053
 2609TIP3   OH2 7771   4.641   7.257   1.934
 2609TIP3    H1 7772   4.635   7.199   2.010
 2609TIP3    H2 7773   4.708   7.218   1.879
 2610TIP3   OH2 7774   5.423   5.882   0.306
 2610TIP3    H1 7775   5.356   5.950   0.308
 2610TIP3    H2 7776   5.430   5.853   0.397
 2611TIP3   OH2 7777   7.570   2.033   5.525
 2611TIP3    H1 7778   7.651   2.027   5.475
 2611TIP3    H2 7779   7.542   1.942   5.537
 2612TIP3   OH2 7780   2.943   0.171   2.764
 2612TIP3    H1 7781   2.987   0.188   2.681
 2612TIP3    H2 7782   3.005   0.119   2.814
 2613TIP3   OH2 7783   2.852   6.220   2.924
 2613TIP3    H1 7784   2.798   6.267   2.988
 2613TIP3    H2 7785   2.839   6.267   2.842
 2614TIP3   OH2 7786   5.627   1.852   5.026
 2614TIP3    H1 7787   5.563   1.897   5.082
 2614TIP3    H2 7788   5.636   1.765   5.066
 2615TIP3   OH2 7789   1.095   6.603   4.070
 2615TIP3    H1 7790   1.051   6.679   4.032
 2615TIP3    H2 7791   1.105   6.625   4.163
 2616TIP3   OH2 7792   3.116   4.544   5.616
 2616TIP3    H1 7793   3.092   4.637   5.619
 2616TIP3    H2 7794   3.196   4.541   5.564
 2617TIP3   OH2 7795   2.632   6.164   2.082
 2617TIP3    H1 7796   2.669   6.237   2.130
 2617TIP3    H2 7797   2.707   6.123   2.038
 2618TIP3   OH2 7798   7.543   1.029   0.169
 2618TIP3    H1 7799   7.596   1.082   0.229
 2618TIP3    H2 7800   7.466   1.005   0.221
 2619TIP3   OH2 7801   7.513   6.057   0.950
 2619TIP3    H1 7802   7.543   6.020   0.866
 2619TIP3    H2 7803   7.474   5.983   0.996
 2620TIP3   OH2 7804   5.079   1.714   6.736
 2620TIP3    H1 7805   5.120   1.735   6.652
 2620TIP3    H2 7806   5.151   1.712   6.799
 2621TIP3   OH2 7807   7.953   6.430   4.871
 2621TIP3    H1 7808   7.879   6.447   4.813
 2621TIP3    H2 7809   7.914   6.392   4.950
 2622TIP3   OH2 7810   0.183   5.819   0.473
 2622TIP3    H1 7811   0.139   5.887   0.524
 2622TIP3    H2 7812   0.270   5.813   0.513
 2623TIP3   OH2 7813   1.271   3.121   6.698
 2623TIP3    H1 7814   1.261   3.105   6.792
 2623TIP3    H2 7815   1.182   3.116   6.663
 2624TIP3   OH2 7816   6.089   1.482   0.069
 2624TIP3    H1 7817   6.071   1.405   0.123
 2624TIP3    H2 7818   6.062   1.456  -0.019
 2625TIP3   OH2 7819   1.196   5.786   3.678
 2625TIP3    H1 7820   1.288   5.764   3.662
 2625TIP3    H2 7821   1.186   5.875   3.645
 2626TIP3   OH2 7822   8.045   4.105   3.277
 2626TIP3    H1 7823   7.961   4.133   3.314
 2626TIP3    H2 7824   8.027   4.019   3.238
 2627TIP3   OH2 7825   5.096   7.232   1.824
 2627TIP3    H1 7826   5.108   7.285   1.903
 2627TIP3    H2 7827   5.095   7.296   1.753
 2628TIP3   OH2 7828   5.137   3.011   3.386
 2628TIP3    H1 7829   5.092   2.929   3.364
 2628TIP3    H2 7830   5.230   2.992   3.375
 2629TIP3   OH2 7831   1.216   2.499   5.464
 2629TIP3    H1 7832   1.160   2.489   5.388
 2629TIP3    H2 7833   1.212   2.415   5.509
 2630TIP3   OH2 7834   4.688   4.481   4.318
 2630TIP3    H1 7835   4.664   4.570   4.292
 2630TIP3    H2 7836   4.743   4.449   4.247
 2631TIP3   OH2 7837   0.834   4.370   1.283
 2631TIP3    H1 7838   0.886   4.298   1.248
 2631TIP3    H2 7839   0.874   4.389   1.368
 2632TIP3   OH2 7840   6.448   2.563   5.388
 2632TIP3    H1 7841   6.371   2.619   5.384
 2632TIP3    H2 7842   6.517   2.618   5.424
 2633TIP3   OH2 7843   6.763   7.779   6.258
 2633TIP3    H1 7844   6.803   7.726   6.190
 2633TIP3    H2 7845   6.695   7.829   6.212
 2634TIP3   OH2 7846   6.588   3.548   6.514
 2634TIP3    H1 7847   6.678   3.551   6.545
 2634TIP3    H2 7848   6.550   3.473   6.560
 2635TIP3   OH2 7849   2.852   7.255   3.763
 2635TIP3    H1 7850   2.885   7.207   3.687
 2635TIP3    H2 7851   2.831   7.186   3.827
 2636TIP3   OH2 7852   6.964   4.765   5.257
 2636TIP3    H1 7853   6.944   4.857   5.239
 2636TIP3    H2 7854   6.902   4.716   5.204
 2637TIP3   OH2 7855   1.614   0.694   1.157
 2637TIP3    H1 7856   1.611   0.782   1.121
 2637TIP3    H2 7857   1.558   0.642   1.098
 2638TIP3   OH2 7858   4.381   0.818   4.563
 2638TIP3    H1 7859   4.340   0.881   4.504
 2638TIP3    H2 7860   4.442   0.871   4.615
 2639TIP3   OH2 7861   3.711   2.421   6.508
 2639TIP3    H1 7862   3.756   2.455   6.585
 2639TIP3    H2 7863   3.692   2.498   6.455
 2640TIP3   OH2 7864   6.693   1.291   0.889
 2640TIP3    H1 7865   6.607   1.257   0.913
 2640TIP3    H2 7866   6.695   1.286   0.793
 2641TIP3   OH2 7867   0.170   6.644   0.450
 2641TIP3    H1 7868   0.194   6.660   0.359
 2641TIP3    H2 7869   0.098   6.581   0.445
 2642TIP3   OH2 7870   6.331   4.477   1.964
 2642TIP3    H1 7871   6.265   4.537   1.929
 2642TIP3    H2 7872   6.347   4.508   2.053
 2643TIP3   OH2 7873   1.049   6.825   0.556
 2643TIP3    H1 7874   1.133   6.824   0.512
 2643TIP3    H2 7875   1.000   6.896   0.514
 2644TIP3   OH2 7876   3.645   4.881   4.209
 2644TIP3    H1 7877   3.681   4.808   4.260
 2644TIP3    H2 7878   3.550   4.868   4.212
 2645TIP3   OH2 7879   4.882   2.856   4.807
 2645TIP3    H1 7880   4.806   2.866   4.749
 2645TIP3    H2 7881   4.936   2.789   4.765
 2646TIP3   OH2 7882   3.250   5.293   1.946
 2646TIP3    H1 7883   3.343   5.314   1.957
 2646TIP3    H2 7884   3.248   5.198   1.938
 2647TIP3   OH2 7885   0.765   6.834   5.318
 2647TIP3    H1 7886   0.722   6.776   5.381
 2647TIP3    H2 7887   0.821   6.776   5.266
 2648TIP3   OH2 7888   1.754   6.418   6.624
 2648TIP3    H1 7889   1.822   6.452   6.566
 2648TIP3    H2 7890   1.720   6.341   6.579
 2649TIP3   OH2 7891   0.547   6.962   5.155
 2649TIP3    H1 7892   0.473   6.910   5.124
 2649TIP3    H2 7893   0.609   6.897   5.189
 2650TIP3   OH2 7894   3.917   6.681   4.025
 2650TIP3    H1 7895   3.866   6.601   4.014
 2650TIP3    H2 7896   3.950   6.701   3.937
 2651TIP3   OH2 7897   0.771   2.253   2.795
 2651TIP3    H1 7898   0.839   2.241   2.861
 2651TIP3    H2 7899   0.777   2.346   2.773
 2652TIP3   OH2 7900   0.759   6.802   5.979
 2652TIP3    H1 7901   0.743   6.754   5.898
 2652TIP3    H2 7902   0.723   6.889   5.963
 2653TIP3   OH2 7903   3.138   4.260   5.646
 2653TIP3    H1 7904   3.124   4.234   5.555
 2653TIP3    H2 7905   3.115   4.353   5.648
 2654TIP3   OH2 7906   4.062   2.665   6.727
 2654TIP3    H1 7907   4.054   2.760   6.731
 2654TIP3    H2 7908   4.152   2.648   6.756
 2655TIP3   OH2 7909   6.723   1.211   6.409
 2655TIP3    H1 7910   6.816   1.230   6.395
 2655TIP3    H2 7911   6.699   1.265   6.485
 2656TIP3   OH2 7912   0.662   7.314   4.761
 2656TIP3    H1 7913   0.744   7.330   4.713
 2656TIP3    H2 7914   0.659   7.384   4.826
 2657TIP3   OH2 7915   1.314   7.733   1.201
 2657TIP3    H1 7916   1.252   7.762   1.134
 2657TIP3    H2 7917   1.398   7.767   1.172
 2658TIP3   OH2 7918   1.206   5.850   5.671
 2658TIP3    H1 7919   1.287   5.806   5.645
 2658TIP3    H2 7920   1.169   5.881   5.589
 2659TIP3   OH2 7921   5.453   6.934   2.833
 2659TIP3    H1 7922   5.406   6.933   2.749
 2659TIP3    H2 7923   5.511   7.010   2.827
 2660TIP3   OH2 7924   2.021   7.317   1.476
 2660TIP3    H1 7925   2.019   7.409   1.449
 2660TIP3    H2 7926   1.943   7.305   1.529
 2661TIP3   OH2 7927   3.307   4.695   4.710
 2661TIP3    H1 7928   3.345   4.713   4.796
 2661TIP3    H2 7929   3.212   4.702   4.724
 2662TIP3   OH2 7930   1.692   0.254   0.748
 2662TIP3    H1 7931   1.780   0.289   0.759
 2662TIP3    H2 7932   1.634   0.329   0.766
 2663TIP3   OH2 7933   1.474   4.463   2.606
 2663TIP3    H1 7934   1.555   4.498   2.570
 2663TIP3    H2 7935   1.407   4.485   2.541
 2664TIP3   OH2 7936   5.752   7.236   5.264
 2664TIP3    H1 7937   5.766   7.327   5.238
 2664TIP3    H2 7938   5.669   7.212   5.223
 2665TIP3   OH2 7939   4.078   2.443   5.481
 2665TIP3    H1 7940   3.992   2.449   5.438
 2665TIP3    H2 7941   4.082   2.522   5.535
 2666TIP3   OH2 7942   6.219   2.588   1.705
 2666TIP3    H1 7943   6.161   2.620   1.773
 2666TIP3    H2 7944   6.192   2.498   1.689
 2667TIP3   OH2 7945   8.215   4.404   0.349
 2667TIP3    H1 7946   8.264   4.423   0.428
 2667TIP3    H2 7947   8.231   4.480   0.292
 2668TIP3   OH2 7948   3.712   0.622   5.381
 2668TIP3    H1 7949   3.679   0.685   5.444
 2668TIP3    H2 7950   3.800   0.653   5.360
 2669TIP3   OH2 7951   5.633   3.479   3.840
 2669TIP3    H1 7952   5.628   3.527   3.923
 2669TIP3    H2 7953   5.726   3.478   3.818
 2670TIP3   OH2 7954   0.011   1.077   1.484
 2670TIP3    H1 7955   0.090   1.126   1.505
 2670TIP3    H2 7956  -0.033   1.062   1.568
 2671TIP3   OH2 7957   3.392   1.329   0.851
 2671TIP3    H1 7958   3.396   1.425   0.844
 2671TIP3    H2 7959   3.484   1.302   0.858
 2672TIP3   OH2 7960   0.097   1.071   4.468
 2672TIP3    H1 7961   0.138   1.017   4.400
 2672TIP3    H2 7962   0.016   1.025   4.489
 2673TIP3   OH2 7963   0.524   2.518   6.443
 2673TIP3    H1 7964   0.523   2.587   6.509
 2673TIP3    H2 7965   0.544   2.563   6.361
 2674TIP3   OH2 7966   7.043   6.673   2.657
 2674TIP3    H1 7967   7.101   6.625   2.598
 2674TIP3    H2 7968   7.000   6.605   2.709
 2675TIP3   OH2 7969   5.604   2.787   4.679
 2675TIP3    H1 7970   5.630   2.766   4.589
 2675TIP3    H2 7971   5.591   2.881   4.680
 2676TIP3   OH2 7972   7.859   0.430   2.027
 2676TIP3    H1 7973   7.798   0.487   1.981
 2676TIP3    H2 7974   7.945   0.468   2.009
 2677TIP3   OH2 7975   6.977   0.201   2.021
 2677TIP3    H1 7976   7.038   0.224   1.951
 2677TIP3    H2 7977   6.991   0.107   2.034
 2678TIP3   OH2 7978   4.552   3.781   0.564
 2678TIP3    H1 7979   4.576   3.839   0.492
 2678TIP3    H2 7980   4.596   3.698   0.545
 2679TIP3   OH2 7981   7.587   7.810   1.174
 2679TIP3    H1 7982   7.583   7.840   1.265
 2679TIP3    H2 7983   7.529   7.734   1.171
 2680TIP3   OH2 7984   6.843   2.183   5.215
 2680TIP3    H1 7985   6.901   2.215   5.284
 2680TIP3    H2 7986   6.877   2.222   5.135
 2681TIP3   OH2 7987   4.878   5.805   0.427
 2681TIP3    H1 7988   4.946   5.737   0.427
 2681TIP3    H2 7989   4.923   5.883   0.460
 2682TIP3   OH2 7990   4.447   7.322   0.733
 2682TIP3    H1 7991   4.532   7.350   0.700
 2682TIP3    H2 7992   4.405   7.280   0.657
 2683TIP3   OH2 7993   5.367   3.647   6.348
 2683TIP3    H1 7994   5.407   3.734   6.347
 2683TIP3    H2 7995   5.363   3.621   6.256
 2684TIP3   OH2 7996   7.084   5.098   5.103
 2684TIP3    H1 7997   7.036   5.020   5.076
 2684TIP3    H2 7998   7.146   5.067   5.169
 2685TIP3   OH2 7999   6.348   5.648   5.115
 2685TIP3    H1 8000   6.282   5.580   5.127
 2685TIP3    H2 8001   6.392   5.625   5.034
 2686TIP3   OH2 8002   1.551   6.249   2.339
 2686TIP3    H1 8003   1.497   6.312   2.387
 2686TIP3    H2 8004   1.523   6.164   2.374
 2687TIP3   OH2 8005   1.188   3.645   3.329
 2687TIP3    H1 8006   1.232   3.561   3.343
 2687TIP3    H2 8007   1.252   3.697   3.280
 2688TIP3   OH2 8008   2.235   7.465   3.283
 2688TIP3    H1 8009   2.304   7.479   3.219
 2688TIP3    H2 8010   2.175   7.539   3.271
 2689TIP3   OH2 8011   1.113   6.530   6.166
 2689TIP3    H1 8012   1.028   6.574   6.165
 2689TIP3    H2 8013   1.172   6.594   6.207
 2690TIP3   OH2 8014   6.252   0.237   1.735
 2690TIP3    H1 8015   6.240   0.325   1.771
 2690TIP3    H2 8016   6.209   0.179   1.797
 2691TIP3   OH2 8017   4.978   2.523   2.439
 2691TIP3    H1 8018   4.962   2.524   2.345
 2691TIP3    H2 8019   5.069   2.550   2.449
 2692TIP3   OH2 8020   2.016   5.317   4.609
 2692TIP3    H1 8021   1.959   5.263   4.554
 2692TIP3    H2 8022   2.105   5.289   4.587
 2693TIP3   OH2 8023   8.022   6.960   3.977
 2693TIP3    H1 8024   7.964   6.913   4.036
 2693TIP3    H2 8025   8.095   6.900   3.962
 2694TIP3   OH2 8026   3.561   2.188   3.008
 2694TIP3    H1 8027   3.520   2.241   3.077
 2694TIP3    H2 8028   3.489   2.166   2.948
 2695TIP3   OH2 8029   7.346   0.928   5.686
 2695TIP3    H1 8030   7.322   0.983   5.761
 2695TIP3    H2 8031   7.414   0.979   5.640
 2696TIP3   OH2 8032   6.281   3.012   4.960
 2696TIP3    H1 8033   6.240   2.945   4.905
 2696TIP3    H2 8034   6.216   3.082   4.964
 2697TIP3   OH2 8035   4.091   7.201   2.002
 2697TIP3    H1 8036   4.048   7.276   2.045
 2697TIP3    H2 8037   4.182   7.205   2.032
 2698TIP3   OH2 8038   0.677   7.174   5.595
 2698TIP3    H1 8039   0.649   7.224   5.672
 2698TIP3    H2 8040   0.719   7.238   5.538
 2699TIP3   OH2 8041   1.747   5.889   5.986
 2699TIP3    H1 8042   1.819   5.950   5.998
 2699TIP3    H2 8043   1.725   5.894   5.893
 2700TIP3   OH2 8044   3.173   6.686   6.586
 2700TIP3    H1 8045   3.120   6.636   6.647
 2700TIP3    H2 8046   3.163   6.641   6.502
 2701TIP3   OH2 8047   2.678   2.497   5.657
 2701TIP3    H1 8048   2.757   2.473   5.705
 2701TIP3    H2 8049   2.689   2.458   5.570
 2702TIP3   OH2 8050   4.062   7.526   0.208
 2702TIP3    H1 8051   4.093   7.564   0.126
 2702TIP3    H2 8052   4.140   7.486   0.248
 2703TIP3   OH2 8053   2.057   3.459   3.175
 2703TIP3    H1 8054   2.043   3.531   3.237
 2703TIP3    H2 8055   2.121   3.403   3.218
 2704TIP3   OH2 8056   2.836   0.236   4.228
 2704TIP3    H1 8057   2.756   0.190   4.203
 2704TIP3    H2 8058   2.818   0.328   4.207
 2705TIP3   OH2 8059   4.327   0.543   0.983
 2705TIP3    H1 8060   4.369   0.602   0.921
 2705TIP3    H2 8061   4.242   0.583   1.001
 2706TIP3   OH2 8062   7.291   2.403   3.813
 2706TIP3    H1 8063   7.254   2.315   3.818
 2706TIP3    H2 8064   7.362   2.395   3.749
 2707TIP3   OH2 8065   0.502   6.911   0.480
 2707TIP3    H1 8066   0.493   6.841   0.545
 2707TIP3    H2 8067   0.541   6.868   0.404
 2708TIP3   OH2 8068   5.035   1.798   2.645
 2708TIP3    H1 8069   4.977   1.744   2.699
 2708TIP3    H2 8070   4.999   1.886   2.652
 2709TIP3   OH2 8071   7.783   4.602   5.136
 2709TIP3    H1 8072   7.745   4.685   5.165
 2709TIP3    H2 8073   7.735   4.535   5.184
 2710TIP3   OH2 8074   7.285   2.992   3.785
 2710TIP3    H1 8075   7.266   2.902   3.811
 2710TIP3    H2 8076   7.325   3.031   3.863
 2711TIP3   OH2 8077   2.954   0.021   3.360
 2711TIP3    H1 8078   3.030   0.072   3.331
 2711TIP3    H2 8079   2.883   0.050   3.303
 2712TIP3   OH2 8080   5.598   3.884   4.691
 2712TIP3    H1 8081   5.517   3.933   4.706
 2712TIP3    H2 8082   5.651   3.941   4.636
 2713TIP3   OH2 8083   6.152   3.275   4.062
 2713TIP3    H1 8084   6.140   3.234   4.147
 2713TIP3    H2 8085   6.063   3.289   4.029
 2714TIP3   OH2 8086   3.031   3.450   3.265
 2714TIP3    H1 8087   3.000   3.488   3.346
 2714TIP3    H2 8088   3.029   3.521   3.202
 2715TIP3   OH2 8089   4.264   3.897   6.493
 2715TIP3    H1 8090   4.185   3.888   6.547
 2715TIP3    H2 8091   4.250   3.836   6.420
 2716TIP3   OH2 8092   2.282   1.514   1.220
 2716TIP3    H1 8093   2.251   1.538   1.133
 2716TIP3    H2 8094   2.217   1.551   1.280
 2717TIP3   OH2 8095   1.949   7.010   0.041
 2717TIP3    H1 8096   1.944   7.105   0.052
 2717TIP3    H2 8097   2.025   6.996  -0.015
 2718TIP3   OH2 8098   5.980   7.552   0.029
 2718TIP3    H1 8099   5.906   7.608   0.048
 2718TIP3    H2 8100   5.947   7.490  -0.037
 2719TIP3   OH2 8101   1.868   2.952   3.174
 2719TIP3    H1 8102   1.957   2.960   3.140
 2719TIP3    H2 8103   1.844   3.041   3.200
 2720TIP3   OH2 8104   7.836   6.072   3.519
 2720TIP3    H1 8105   7.751   6.102   3.549
 2720TIP3    H2 8106   7.817   6.019   3.441
 2721TIP3   OH2 8107   0.133   3.406   5.219
 2721TIP3    H1 8108   0.061   3.415   5.156
 2721TIP3    H2 8109   0.206   3.373   5.168
 2722TIP3   OH2 8110   6.829   4.384   1.309
 2722TIP3    H1 8111   6.879   4.312   1.271
 2722TIP3    H2 8112   6.856   4.461   1.260
 2723TIP3   OH2 8113   3.861   0.839   6.359
 2723TIP3    H1 8114   3.883   0.888   6.438
 2723TIP3    H2 8115   3.772   0.868   6.337
 2724TIP3   OH2 8116   4.957   4.133   1.436
 2724TIP3    H1 8117   4.930   4.136   1.528
 2724TIP3    H2 8118   5.013   4.055   1.431
 2725TIP3   OH2 8119   5.408   1.421   4.338
 2725TIP3    H1 8120   5.451   1.485   4.396
 2725TIP3    H2 8121   5.316   1.424   4.365
 2726TIP3   OH2 8122   3.746   6.446   2.691
 2726TIP3    H1 8123   3.706   6.409   2.612
 2726TIP3    H2 8124   3.731   6.540   2.684
 2727TIP3   OH2 8125   4.304   4.197   5.859
 2727TIP3    H1 8126   4.298   4.166   5.950
 2727TIP3    H2 8127   4.326   4.290   5.867
 2728TIP3   OH2 8128   0.849   2.477   1.018
 2728TIP3    H1 8129   0.782   2.528   1.065
 2728TIP3    H2 8130   0.913   2.454   1.086
 2729TIP3   OH2 8131   5.435   3.480   3.611
 2729TIP3    H1 8132   5.470   3.441   3.531
 2729TIP3    H2 8133   5.508   3.473   3.674
 2730TIP3   OH2 8134   2.731   5.048   6.032
 2730TIP3    H1 8135   2.647   5.068   5.992
 2730TIP3    H2 8136   2.795   5.095   5.978
 2731TIP3   OH2 8137   1.529   2.483   0.558
 2731TIP3    H1 8138   1.565   2.401   0.590
 2731TIP3    H2 8139   1.438   2.462   0.535
 2732TIP3   OH2 8140   3.503   2.713   5.374
 2732TIP3    H1 8141   3.531   2.643   5.433
 2732TIP3    H2 8142   3.411   2.727   5.396
 2733TIP3   OH2 8143   1.880   7.427   2.731
 2733TIP3    H1 8144   1.890   7.522   2.730
 2733TIP3    H2 8145   1.901   7.399   2.642
 2734TIP3   OH2 8146   7.505   1.783   0.581
 2734TIP3    H1 8147   7.572   1.797   0.514
 2734TIP3    H2 8148   7.550   1.732   0.649
 2735TIP3   OH2 8149   3.441   0.916   0.732
 2735TIP3    H1 8150   3.437   0.831   0.776
 2735TIP3    H2 8151   3.477   0.975   0.798
 2736TIP3   OH2 8152   3.440   6.202   5.285
 2736TIP3    H1 8153   3.442   6.113   5.250
 2736TIP3    H2 8154   3.401   6.192   5.372
 2737TIP3   OH2 8155   4.486   4.496   5.804
 2737TIP3    H1 8156   4.420   4.565   5.810
 2737TIP3    H2 8157   4.457   4.442   5.731
 2738TIP3   OH2 8158   3.365   1.372   2.397
 2738TIP3    H1 8159   3.327   1.328   2.473
 2738TIP3    H2 8160   3.301   1.358   2.327
 2739TIP3   OH2 8161   3.967   7.525   2.690
 2739TIP3    H1 8162   3.991   7.440   2.727
 2739TIP3    H2 8163   3.956   7.583   2.766
 2740TIP3   OH2 8164   3.218   1.044   3.153
 2740TIP3    H1 8165   3.203   1.020   3.061
 2740TIP3    H2 8166   3.306   1.011   3.172
 2741TIP3   OH2 8167   0.242   5.899   6.550
 2741TIP3    H1 8168   0.152   5.867   6.549
 2741TIP3    H2 8169   0.257   5.931   6.461
 2742TIP3   OH2 8170   5.259   4.049   0.787
 2742TIP3    H1 8171   5.286   3.966   0.748
 2742TIP3    H2 8172   5.341   4.089   0.817
 2743TIP3   OH2 8173   2.353   3.429   5.538
 2743TIP3    H1 8174   2.396   3.446   5.622
 2743TIP3    H2 8175   2.260   3.425   5.559
 2744TIP3   OH2 8176   2.219   2.289   3.716
 2744TIP3    H1 8177   2.300   2.249   3.747
 2744TIP3    H2 8178   2.151   2.225   3.735
 2745TIP3   OH2 8179   2.413   0.965   1.873
 2745TIP3    H1 8180   2.415   0.899   1.803
 2745TIP3    H2 8181   2.464   0.927   1.944
 2746TIP3   OH2 8182   5.472   6.604   5.185
 2746TIP3    H1 8183   5.487   6.549   5.108
 2746TIP3    H2 8184   5.500   6.692   5.158
 2747TIP3   OH2 8185   2.400   5.766   5.621
 2747TIP3    H1 8186   2.373   5.711   5.695
 2747TIP3    H2 8187   2.489   5.794   5.643
 2748TIP3   OH2 8188   1.004   1.813   0.682
 2748TIP3    H1 8189   1.058   1.743   0.644
 2748TIP3    H2 8190   0.929   1.820   0.622
 2749TIP3   OH2 8191   1.201   2.896   0.860
 2749TIP3    H1 8192   1.186   2.808   0.894
 2749TIP3    H2 8193   1.227   2.883   0.769
 2750TIP3   OH2 8194   0.612   3.370   5.653
 2750TIP3    H1 8195   0.559   3.433   5.605
 2750TIP3    H2 8196   0.570   3.285   5.637
 2751TIP3   OH2 8197   5.364   7.498   2.099
 2751TIP3    H1 8198   5.287   7.442   2.098
 2751TIP3    H2 8199   5.405   7.484   2.014
 2752TIP3   OH2 8200   8.179   0.332   0.852
 2752TIP3    H1 8201   8.228   0.413   0.836
 2752TIP3    H2 8202   8.145   0.342   0.941
 2753TIP3   OH2 8203   0.827   2.661   2.206
 2753TIP3    H1 8204   0.916   2.629   2.222
 2753TIP3    H2 8205   0.771   2.590   2.236
 2754TIP3   OH2 8206   7.607   1.237   6.548
 2754TIP3    H1 8207   7.567   1.318   6.515
 2754TIP3    H2 8208   7.532   1.180   6.566
 2755TIP3   OH2 8209   5.577   6.193   4.924
 2755TIP3    H1 8210   5.619   6.278   4.939
 2755TIP3    H2 8211   5.625   6.132   4.980
 2756TIP3   OH2 8212   2.450   4.191   5.624
 2756TIP3    H1 8213   2.380   4.162   5.566
 2756TIP3    H2 8214   2.513   4.119   5.623
 2757TIP3   OH2 8215   3.681   0.138   0.903
 2757TIP3    H1 8216   3.739   0.213   0.888
 2757TIP3    H2 8217   3.610   0.149   0.840
 2758TIP3   OH2 8218   7.645   4.220   1.148
 2758TIP3    H1 8219   7.738   4.241   1.148
 2758TIP3    H2 8220   7.621   4.214   1.055
 2759TIP3   OH2 8221   3.464   5.908   4.181
 2759TIP3    H1 8222   3.491   5.990   4.221
 2759TIP3    H2 8223   3.539   5.850   4.192
 2760TIP3   OH2 8224   6.018   4.580   1.180
 2760TIP3    H1 8225   6.059   4.598   1.264
 2760TIP3    H2 8226   5.924   4.586   1.197
 2761TIP3   OH2 8227   7.139   0.052   2.837
 2761TIP3    H1 8228   7.126   0.108   2.761
 2761TIP3    H2 8229   7.121  -0.037   2.805
 2762TIP3   OH2 8230   2.889   5.339   5.657
 2762TIP3    H1 8231   2.903   5.433   5.671
 2762TIP3    H2 8232   2.804   5.334   5.612
 2763TIP3   OH2 8233   4.081   2.539   1.200
 2763TIP3    H1 8234   4.155   2.502   1.248
 2763TIP3    H2 8235   4.120   2.591   1.131
 2764TIP3   OH2 8236   1.441   5.943   2.854
 2764TIP3    H1 8237   1.383   6.019   2.843
 2764TIP3    H2 8238   1.381   5.869   2.863
 2765TIP3   OH2 8239   0.880   6.727   0.286
 2765TIP3    H1 8240   0.912   6.675   0.212
 2765TIP3    H2 8241   0.921   6.687   0.363
 2766TIP3   OH2 8242   3.035   0.762   1.301
 2766TIP3    H1 8243   3.026   0.832   1.237
 2766TIP3    H2 8244   2.961   0.775   1.361
 2767TIP3   OH2 8245   4.805   2.902   2.967
 2767TIP3    H1 8246   4.886   2.853   2.954
 2767TIP3    H2 8247   4.777   2.881   3.056
 2768TIP3   OH2 8248   1.070   0.908   4.496
 2768TIP3    H1 8249   1.046   0.841   4.561
 2768TIP3    H2 8250   1.147   0.872   4.453
 2769TIP3   OH2 8251   0.720   5.575   3.597
 2769TIP3    H1 8252   0.692   5.662   3.567
 2769TIP3    H2 8253   0.779   5.593   3.670
 2770TIP3   OH2 8254   4.163   5.324   1.713
 2770TIP3    H1 8255   4.135   5.413   1.690
 2770TIP3    H2 8256   4.083   5.271   1.706
 2771TIP3   OH2 8257   5.018   0.028   6.740
 2771TIP3    H1 8258   5.011   0.035   6.645
 2771TIP3    H2 8259   5.111   0.011   6.756
 2772TIP3   OH2 8260   1.279   6.580   4.362
 2772TIP3    H1 8261   1.197   6.612   4.398
 2772TIP3    H2 8262   1.343   6.647   4.388
 2773TIP3   OH2 8263   3.319   0.628   0.201
 2773TIP3    H1 8264   3.223   0.627   0.198
 2773TIP3    H2 8265   3.340   0.602   0.290
 2774TIP3   OH2 8266   1.379   6.461   3.526
 2774TIP3    H1 8267   1.375   6.556   3.532
 2774TIP3    H2 8268   1.389   6.443   3.432
 2775TIP3   OH2 8269   5.607   5.648   2.763
 2775TIP3    H1 8270   5.557   5.630   2.683
 2775TIP3    H2 8271   5.678   5.583   2.762
 2776TIP3   OH2 8272  -0.010   3.427   0.589
 2776TIP3    H1 8273  -0.023   3.406   0.497
 2776TIP3    H2 8274   0.074   3.387   0.612
 2777TIP3   OH2 8275   4.216   4.528   5.057
 2777TIP3    H1 8276   4.236   4.451   5.110
 2777TIP3    H2 8277   4.265   4.599   5.099
 2778TIP3   OH2 8278   1.298   6.288   4.987
 2778TIP3    H1 8279   1.303   6.279   4.892
 2778TIP3    H2 8280   1.239   6.219   5.015
 2779TIP3   OH2 8281   0.331   5.510   3.055
 2779TIP3    H1 8282   0.291   5.569   3.120
 2779TIP3    H2 8283   0.408   5.474   3.099
 2780TIP3   OH2 8284   7.867   0.791   1.342
 2780TIP3    H1 8285   7.937   0.815   1.282
 2780TIP3    H2 8286   7.786   0.814   1.295
 2781TIP3   OH2 8287   3.269   1.517   6.081
 2781TIP3    H1 8288   3.261   1.612   6.079
 2781TIP3    H2 8289   3.364   1.501   6.084
 2782TIP3   OH2 8290   3.640   0.868   5.205
 2782TIP3    H1 8291   3.668   0.956   5.179
 2782TIP3    H2 8292   3.649   0.816   5.125
 2783TIP3   OH2 8293   2.803   6.346   2.620
 2783TIP3    H1 8294   2.841   6.259   2.608
 2783TIP3    H2 8295   2.708   6.332   2.610
 2784TIP3   OH2 8296   3.686  -0.014   0.575
 2784TIP3    H1 8297   3.747   0.037   0.521
 2784TIP3    H2 8298   3.626   0.051   0.612
 2785TIP3   OH2 8299   1.757   7.299   1.550
 2785TIP3    H1 8300   1.695   7.274   1.481
 2785TIP3    H2 8301   1.758   7.224   1.609
 2786TIP3   OH2 8302   0.328   4.186   0.474
 2786TIP3    H1 8303   0.307   4.136   0.395
 2786TIP3    H2 8304   0.247   4.232   0.496
 2787TIP3   OH2 8305   6.843   3.129   1.918
 2787TIP3    H1 8306   6.856   3.216   1.881
 2787TIP3    H2 8307   6.883   3.070   1.854
 2788TIP3   OH2 8308   7.152   4.035   5.724
 2788TIP3    H1 8309   7.067   4.009   5.762
 2788TIP3    H2 8310   7.130   4.069   5.638
 2789TIP3   OH2 8311   4.351   4.392   5.574
 2789TIP3    H1 8312   4.361   4.467   5.516
 2789TIP3    H2 8313   4.362   4.316   5.517
 2790TIP3   OH2 8314   7.779   7.147   1.899
 2790TIP3    H1 8315   7.816   7.165   1.985
 2790TIP3    H2 8316   7.685   7.161   1.911
 2791TIP3   OH2 8317   3.170   1.704   4.872
 2791TIP3    H1 8318   3.128   1.675   4.791
 2791TIP3    H2 8319   3.206   1.790   4.850
 2792TIP3   OH2 8320   1.492   0.592   2.171
 2792TIP3    H1 8321   1.446   0.635   2.099
 2792TIP3    H2 8322   1.551   0.659   2.206
 2793TIP3   OH2 8323   3.385   2.354   3.783
 2793TIP3    H1 8324   3.305   2.354   3.731
 2793TIP3    H2 8325   3.434   2.278   3.752
 2794TIP3   OH2 8326   7.123   0.204   3.980
 2794TIP3    H1 8327   7.034   0.219   4.012
 2794TIP3    H2 8328   7.177   0.267   4.028
 2795TIP3   OH2 8329   4.417   5.344   2.942
 2795TIP3    H1 8330   4.382   5.433   2.937
 2795TIP3    H2 8331   4.444   5.324   2.852
 2796TIP3   OH2 8332   3.961   6.695   0.669
 2796TIP3    H1 8333   3.955   6.612   0.622
 2796TIP3    H2 8334   3.965   6.670   0.762
 2797TIP3   OH2 8335   1.478   6.213   6.122
 2797TIP3    H1 8336   1.422   6.204   6.045
 2797TIP3    H2 8337   1.465   6.132   6.171
 2798TIP3   OH2 8338   5.537   1.398   0.346
 2798TIP3    H1 8339   5.610   1.411   0.286
 2798TIP3    H2 8340   5.468   1.455   0.313
 2799TIP3   OH2 8341   8.044   2.488   0.514
 2799TIP3    H1 8342   8.022   2.541   0.591
 2799TIP3    H2 8343   7.964   2.487   0.462
 2800TIP3   OH2 8344   3.451   0.366   3.306
 2800TIP3    H1 8345   3.450   0.317   3.388
 2800TIP3    H2 8346   3.424   0.302   3.239
 2801TIP3   OH2 8347   3.733   1.969   0.357
 2801TIP3    H1 8348   3.696   2.039   0.304
 2801TIP3    H2 8349   3.779   2.014   0.428
 2802TIP3   OH2 8350   2.725   3.216   2.646
 2802TIP3    H1 8351   2.808   3.262   2.662
 2802TIP3    H2 8352   2.668   3.245   2.717
 2803TIP3   OH2 8353   0.959   1.157   4.676
 2803TIP3    H1 8354   0.868   1.152   4.702
 2803TIP3    H2 8355   0.964   1.234   4.619
 2804TIP3   OH2 8356   0.982   2.797   3.750
 2804TIP3    H1 8357   0.915   2.859   3.775
 2804TIP3    H2 8358   1.006   2.752   3.831
 2805TIP3   OH2 8359   7.494   5.283   0.573
 2805TIP3    H1 8360   7.462   5.193   0.566
 2805TIP3    H2 8361   7.584   5.275   0.605
 2806TIP3   OH2 8362   6.729   3.161   4.670
 2806TIP3    H1 8363   6.736   3.122   4.583
 2806TIP3    H2 8364   6.641   3.197   4.673
 2807TIP3   OH2 8365   2.207   4.182   4.166
 2807TIP3    H1 8366   2.192   4.106   4.110
 2807TIP3    H2 8367   2.243   4.146   4.247
 2808TIP3   OH2 8368   0.937   3.599   6.591
 2808TIP3    H1 8369   0.977   3.610   6.505
 2808TIP3    H2 8370   1.007   3.617   6.653
 2809TIP3   OH2 8371   0.416   4.854   3.826
 2809TIP3    H1 8372   0.337   4.799   3.822
 2809TIP3    H2 8373   0.453   4.835   3.912
 2810TIP3   OH2 8374   7.931   5.919   0.063
 2810TIP3    H1 8375   7.900   6.008   0.046
 2810TIP3    H2 8376   7.858   5.863   0.036
 2811TIP3   OH2 8377   3.226   1.665   3.679
 2811TIP3    H1 8378   3.174   1.700   3.750
 2811TIP3    H2 8379   3.256   1.580   3.709
 2812TIP3   OH2 8380   8.098   3.438   3.509
 2812TIP3    H1 8381   8.156   3.447   3.584
 2812TIP3    H2 8382   8.094   3.525   3.471
 2813TIP3   OH2 8383   2.601   7.037   1.504
 2813TIP3    H1 8384   2.546   6.974   1.459
 2813TIP3    H2 8385   2.588   7.119   1.455
 2814TIP3   OH2 8386   4.028   0.463   0.420
 2814TIP3    H1 8387   4.075   0.387   0.384
 2814TIP3    H2 8388   4.085   0.537   0.404
 2815TIP3   OH2 8389   3.738   0.593   6.369
 2815TIP3    H1 8390   3.763   0.686   6.362
 2815TIP3    H2 8391   3.755   0.557   6.282
 2816TIP3   OH2 8392   7.559   5.342   5.568
 2816TIP3    H1 8393   7.654   5.350   5.557
 2816TIP3    H2 8394   7.525   5.426   5.538
 2817TIP3   OH2 8395   2.878   6.601   4.328
 2817TIP3    H1 8396   2.962   6.571   4.362
 2817TIP3    H2 8397   2.818   6.529   4.346
 2818TIP3   OH2 8398   3.711   4.380   2.860
 2818TIP3    H1 8399   3.689   4.287   2.868
 2818TIP3    H2 8400   3.674   4.406   2.775
 2819TIP3   OH2 8401   0.370   6.115   1.726
 2819TIP3    H1 8402   0.277   6.095   1.732
 2819TIP3    H2 8403   0.408   6.040   1.681
 2820TIP3   OH2 8404   6.020   1.728   0.671
 2820TIP3    H1 8405   6.062   1.708   0.755
 2820TIP3    H2 8406   6.047   1.818   0.652
 2821TIP3   OH2 8407   1.291   2.965   1.413
 2821TIP3    H1 8408   1.323   2.897   1.353
 2821TIP3    H2 8409   1.238   2.918   1.477
 2822TIP3   OH2 8410   0.348   0.155   1.435
 2822TIP3    H1 8411   0.431   0.146   1.388
 2822TIP3    H2 8412   0.350   0.086   1.500
 2823TIP3   OH2 8413   5.996   2.643   4.518
 2823TIP3    H1 8414   6.014   2.559   4.477
 2823TIP3    H2 8415   5.997   2.625   4.612
 2824TIP3   OH2 8416   4.447   6.123   2.766
 2824TIP3    H1 8417   4.485   6.047   2.721
 2824TIP3    H2 8418   4.491   6.198   2.727
 2825TIP3   OH2 8419   7.638   7.487   6.432
 2825TIP3    H1 8420   7.575   7.416   6.440
 2825TIP3    H2 8421   7.691   7.482   6.512
 2826TIP3   OH2 8422   2.744   2.136   6.208
 2826TIP3    H1 8423   2.655   2.158   6.181
 2826TIP3    H2 8424   2.739   2.127   6.303
 2827TIP3   OH2 8425   7.245   5.778   4.644
 2827TIP3    H1 8426   7.304   5.803   4.573
 2827TIP3    H2 8427   7.161   5.759   4.600
 2828TIP3   OH2 8428   1.228   1.596   2.276
 2828TIP3    H1 8429   1.135   1.576   2.272
 2828TIP3    H2 8430   1.271   1.510   2.279
 2829TIP3   OH2 8431   1.683   2.764   5.457
 2829TIP3    H1 8432   1.746   2.733   5.392
 2829TIP3    H2 8433   1.601   2.721   5.432
 2830TIP3   OH2 8434   2.155   2.865   3.303
 2830TIP3    H1 8435   2.160   2.905   3.217
 2830TIP3    H2 8436   2.239   2.818   3.312
 2831TIP3   OH2 8437   5.211   1.666   2.173
 2831TIP3    H1 8438   5.176   1.703   2.253
 2831TIP3    H2 8439   5.142   1.676   2.108
 2832TIP3   OH2 8440   3.818   3.438   5.953
 2832TIP3    H1 8441   3.895   3.408   6.001
 2832TIP3    H2 8442   3.835   3.530   5.935
 2833TIP3   OH2 8443   3.799   2.555   2.683
 2833TIP3    H1 8444   3.881   2.550   2.731
 2833TIP3    H2 8445   3.822   2.591   2.597
 2834TIP3   OH2 8446   3.151   3.383   0.273
 2834TIP3    H1 8447   3.167   3.302   0.225
 2834TIP3    H2 8448   3.197   3.371   0.356
 2835TIP3   OH2 8449   3.873   7.357   1.572
 2835TIP3    H1 8450   3.902   7.410   1.646
 2835TIP3    H2 8451   3.879   7.267   1.604
 2836TIP3   OH2 8452   1.669   7.773   4.795
 2836TIP3    H1 8453   1.618   7.749   4.718
 2836TIP3    H2 8454   1.665   7.869   4.797
 2837TIP3   OH2 8455   1.114   1.992   3.752
 2837TIP3    H1 8456   1.135   2.083   3.775
 2837TIP3    H2 8457   1.195   1.944   3.768
 2838TIP3   OH2 8458   4.754   4.977   1.012
 2838TIP3    H1 8459   4.816   4.905   1.003
 2838TIP3    H2 8460   4.735   5.004   0.922
 2839TIP3   OH2 8461   6.742   7.135   0.591
 2839TIP3    H1 8462   6.696   7.219   0.587
 2839TIP3    H2 8463   6.762   7.114   0.500
 2840TIP3   OH2 8464   0.576   0.323   5.529
 2840TIP3    H1 8465   0.624   0.246   5.500
 2840TIP3    H2 8466   0.490   0.289   5.555
 2841TIP3   OH2 8467   2.641   1.442   4.805
 2841TIP3    H1 8468   2.579   1.450   4.878
 2841TIP3    H2 8469   2.627   1.520   4.752
 2842TIP3   OH2 8470   0.944   4.809   5.515
 2842TIP3    H1 8471   0.872   4.848   5.565
 2842TIP3    H2 8472   0.964   4.727   5.561
 2843TIP3   OH2 8473   0.195   5.934   1.207
 2843TIP3    H1 8474   0.206   6.002   1.274
 2843TIP3    H2 8475   0.127   5.876   1.243
 2844TIP3   OH2 8476   4.885   2.414   6.048
 2844TIP3    H1 8477   4.929   2.482   5.998
 2844TIP3    H2 8478   4.793   2.420   6.022
 2845TIP3   OH2 8479   2.569   7.683   0.882
 2845TIP3    H1 8480   2.602   7.722   0.801
 2845TIP3    H2 8481   2.627   7.608   0.898
 2846TIP3   OH2 8482   4.742   7.638   3.093
 2846TIP3    H1 8483   4.772   7.565   3.039
 2846TIP3    H2 8484   4.716   7.706   3.031
 2847TIP3   OH2 8485   5.605   4.487   5.485
 2847TIP3    H1 8486   5.684   4.446   5.521
 2847TIP3    H2 8487   5.629   4.579   5.473
 2848TIP3   OH2 8488   4.026   1.041   0.748
 2848TIP3    H1 8489   4.080   1.116   0.723
 2848TIP3    H2 8490   3.946   1.051   0.697
 2849TIP3   OH2 8491   2.372   2.112   5.606
 2849TIP3    H1 8492   2.373   2.186   5.545
 2849TIP3    H2 8493   2.336   2.040   5.555
 2850TIP3   OH2 8494   0.815   3.762   1.597
 2850TIP3    H1 8495   0.876   3.820   1.552
 2850TIP3    H2 8496   0.729   3.802   1.583
 2851TIP3   OH2 8497   5.040   4.264   4.357
 2851TIP3    H1 8498   5.004   4.181   4.388
 2851TIP3    H2 8499   4.983   4.288   4.284
 2852TIP3   OH2 8500   5.774   1.047   4.688
 2852TIP3    H1 8501   5.803   0.956   4.685
 2852TIP3    H2 8502   5.678   1.042   4.685
 2853TIP3   OH2 8503   2.325   4.283   2.332
 2853TIP3    H1 8504   2.330   4.292   2.427
 2853TIP3    H2 8505   2.412   4.306   2.300
 2854TIP3   OH2 8506   6.979   2.306   3.946
 2854TIP3    H1 8507   7.014   2.363   3.878
 2854TIP3    H2 8508   6.930   2.364   4.004
 2855TIP3   OH2 8509   3.349   4.677   5.810
 2855TIP3    H1 8510   3.266   4.646   5.845
 2855TIP3    H2 8511   3.392   4.719   5.884
 2856TIP3   OH2 8512   0.414   7.745   2.505
 2856TIP3    H1 8513   0.500   7.788   2.505
 2856TIP3    H2 8514   0.353   7.814   2.482
 2857TIP3   OH2 8515   1.011   4.943   2.362
 2857TIP3    H1 8516   1.046   5.009   2.302
 2857TIP3    H2 8517   0.979   4.873   2.305
 2858TIP3   OH2 8518   4.025   1.227   5.387
 2858TIP3    H1 8519   4.018   1.175   5.306
 2858TIP3    H2 8520   4.080   1.301   5.362
 2859TIP3   OH2 8521   3.500   3.472   5.388
 2859TIP3    H1 8522   3.581   3.455   5.340
 2859TIP3    H2 8523   3.430   3.449   5.327
 2860TIP3   OH2 8524   3.703   3.344   5.158
 2860TIP3    H1 8525   3.764   3.379   5.093
 2860TIP3    H2 8526   3.748   3.357   5.242
 2861TIP3   OH2 8527   3.463   0.972   3.284
 2861TIP3    H1 8528   3.404   0.902   3.312
 2861TIP3    H2 8529   3.546   0.927   3.266
 2862TIP3   OH2 8530   4.307   7.572   5.226
 2862TIP3    H1 8531   4.289   7.575   5.320
 2862TIP3    H2 8532   4.272   7.654   5.192
 2863TIP3   OH2 8533   0.622   6.661   5.503
 2863TIP3    H1 8534   0.542   6.608   5.497
 2863TIP3    H2 8535   0.660   6.636   5.587
 2864TIP3   OH2 8536   5.325   5.887   0.615
 2864TIP3    H1 8537   5.289   5.803   0.586
 2864TIP3    H2 8538   5.351   5.871   0.706
 2865TIP3   OH2 8539   7.332   1.919   2.358
 2865TIP3    H1 8540   7.346   1.824   2.356
 2865TIP3    H2 8541   7.400   1.952   2.416
 2866TIP3   OH2 8542   5.404   5.782   1.166
 2866TIP3    H1 8543   5.408   5.808   1.259
 2866TIP3    H2 8544   5.404   5.686   1.168
 2867TIP3   OH2 8545   7.006   3.435   3.339
 2867TIP3    H1 8546   7.092   3.471   3.359
 2867TIP3    H2 8547   6.949   3.470   3.408
 2868TIP3   OH2 8548   7.125   7.395   3.316
 2868TIP3    H1 8549   7.186   7.440   3.258
 2868TIP3    H2 8550   7.085   7.465   3.368
 2869TIP3   OH2 8551   4.813   4.885   2.859
 2869TIP3    H1 8552   4.790   4.978   2.849
 2869TIP3    H2 8553   4.826   4.855   2.769
 2870TIP3   OH2 8554   3.009   3.123   3.326
 2870TIP3    H1 8555   3.027   3.030   3.311
 2870TIP3    H2 8556   3.080   3.152   3.383
 2871TIP3   OH2 8557   2.026   4.802   0.445
 2871TIP3    H1 8558   2.085   4.788   0.519
 2871TIP3    H2 8559   1.938   4.790   0.482
 2872TIP3   OH2 8560   0.627   2.155   0.825
 2872TIP3    H1 8561   0.722   2.169   0.822
 2872TIP3    H2 8562   0.616   2.080   0.884
 2873TIP3   OH2 8563   1.793   2.243   1.849
 2873TIP3    H1 8564   1.793   2.293   1.930
 2873TIP3    H2 8565   1.702   2.217   1.836
 2874TIP3   OH2 8566   2.482   7.502   4.393
 2874TIP3    H1 8567   2.536   7.487   4.316
 2874TIP3    H2 8568   2.533   7.563   4.446
 2875TIP3   OH2 8569   7.326   5.477   2.496
 2875TIP3    H1 8570   7.238   5.463   2.461
 2875TIP3    H2 8571   7.379   5.410   2.454
 2876TIP3   OH2 8572   3.202   0.069   5.518
 2876TIP3    H1 8573   3.282   0.097   5.473
 2876TIP3    H2 8574   3.202   0.119   5.600
 2877TIP3   OH2 8575   4.931   3.999   4.127
 2877TIP3    H1 8576   4.936   4.087   4.090
 2877TIP3    H2 8577   4.888   4.010   4.211
 2878TIP3   OH2 8578   7.933   0.681   4.757
 2878TIP3    H1 8579   7.968   0.658   4.843
 2878TIP3    H2 8580   7.944   0.602   4.705
 2879TIP3   OH2 8581   2.855   4.372   1.435
 2879TIP3    H1 8582   2.793   4.301   1.451
 2879TIP3    H2 8583   2.900   4.383   1.519
 2880TIP3   OH2 8584   2.749   2.680   4.734
 2880TIP3    H1 8585   2.768   2.600   4.685
 2880TIP3    H2 8586   2.835   2.720   4.750
 2881TIP3   OH2 8587   5.561   2.514   2.537
 2881TIP3    H1 8588   5.482   2.496   2.587
 2881TIP3    H2 8589   5.577   2.434   2.487
 2882TIP3   OH2 8590   8.282   4.515   3.213
 2882TIP3    H1 8591   8.362   4.466   3.234
 2882TIP3    H2 8592   8.224   4.450   3.174
 2883TIP3   OH2 8593   2.091   7.707   3.240
 2883TIP3    H1 8594   2.119   7.796   3.219
 2883TIP3    H2 8595   2.085   7.706   3.335
 2884TIP3   OH2 8596   3.538   5.961   3.454
 2884TIP3    H1 8597   3.594   5.884   3.444
 2884TIP3    H2 8598   3.479   5.939   3.525
 2885TIP3   OH2 8599   1.570   3.058   4.996
 2885TIP3    H1 8600   1.486   3.016   4.976
 2885TIP3    H2 8601   1.604   3.009   5.071
 2886TIP3   OH2 8602   3.033   4.263   2.605
 2886TIP3    H1 8603   3.101   4.253   2.672
 2886TIP3    H2 8604   3.000   4.174   2.591
 2887TIP3   OH2 8605   2.732   5.299   5.281
 2887TIP3    H1 8606   2.795   5.372   5.284
 2887TIP3    H2 8607   2.652   5.338   5.245
 2888TIP3   OH2 8608   1.780   0.091   3.117
 2888TIP3    H1 8609   1.795   0.128   3.030
 2888TIP3    H2 8610   1.732   0.159   3.165
 2889TIP3   OH2 8611   2.450   2.329   1.327
 2889TIP3    H1 8612   2.406   2.332   1.242
 2889TIP3    H2 8613   2.380   2.345   1.390
 2890TIP3   OH2 8614   4.958   0.059   6.467
 2890TIP3    H1 8615   4.885   0.073   6.405
 2890TIP3    H2 8616   5.018   0.001   6.420
 2891TIP3   OH2 8617   7.509   5.974   0.100
 2891TIP3    H1 8618   7.498   6.006   0.011
 2891TIP3    H2 8619   7.420   5.965   0.134
 2892TIP3   OH2 8620   0.865   7.794   1.413
 2892TIP3    H1 8621   0.932   7.731   1.439
 2892TIP3    H2 8622   0.824   7.822   1.495
 2893TIP3   OH2 8623   1.552   4.787   3.336
 2893TIP3    H1 8624   1.644   4.793   3.363
 2893TIP3    H2 8625   1.503   4.784   3.418
 2894TIP3   OH2 8626   4.647   5.102   0.553
 2894TIP3    H1 8627   4.586   5.175   0.565
 2894TIP3    H2 8628   4.611   5.031   0.607
 2895TIP3   OH2 8629   2.509   0.217   5.850
 2895TIP3    H1 8630   2.561   0.163   5.790
 2895TIP3    H2 8631   2.450   0.155   5.892
 2896TIP3   OH2 8632   8.142   6.672   4.266
 2896TIP3    H1 8633   8.099   6.635   4.343
 2896TIP3    H2 8634   8.205   6.606   4.240
 2897TIP3   OH2 8635   6.599   7.781   5.649
 2897TIP3    H1 8636   6.681   7.738   5.625
 2897TIP3    H2 8637   6.626   7.870   5.674
 2898TIP3   OH2 8638   7.096   2.382   2.392
 2898TIP3    H1 8639   7.031   2.348   2.331
 2898TIP3    H2 8640   7.165   2.418   2.336
 2899TIP3   OH2 8641   2.364   0.439   2.872
 2899TIP3    H1 8642   2.410   0.438   2.788
 2899TIP3    H2 8643   2.376   0.528   2.905
 2900TIP3   OH2 8644   3.799   7.414   4.822
 2900TIP3    H1 8645   3.823   7.378   4.737
 2900TIP3    H2 8646   3.762   7.500   4.803
 2901TIP3   OH2 8647   7.044   4.192   5.534
 2901TIP3    H1 8648   7.076   4.173   5.446
 2901TIP3    H2 8649   6.952   4.217   5.521
 2902TIP3   OH2 8650   5.771   1.223   3.704
 2902TIP3    H1 8651   5.714   1.155   3.741
 2902TIP3    H2 8652   5.842   1.232   3.768
 2903TIP3   OH2 8653   1.908   0.059   0.745
 2903TIP3    H1 8654   1.876   0.138   0.703
 2903TIP3    H2 8655   1.970   0.021   0.683
 2904TIP3   OH2 8656   2.333   7.299   4.535
 2904TIP3    H1 8657   2.386   7.365   4.490
 2904TIP3    H2 8658   2.309   7.238   4.465
 2905TIP3   OH2 8659   1.141   2.237   5.561
 2905TIP3    H1 8660   1.186   2.203   5.638
 2905TIP3    H2 8661   1.179   2.188   5.488
 2906TIP3   OH2 8662   5.279   6.153   1.712
 2906TIP3    H1 8663   5.271   6.133   1.805
 2906TIP3    H2 8664   5.204   6.110   1.672
 2907TIP3   OH2 8665  -0.040   5.304   1.592
 2907TIP3    H1 8666   0.032   5.287   1.531
 2907TIP3    H2 8667   0.003   5.320   1.676
 2908TIP3   OH2 8668   3.585   5.832   2.420
 2908TIP3    H1 8669   3.520   5.763   2.406
 2908TIP3    H2 8670   3.644   5.823   2.345
 2909TIP3   OH2 8671   2.688   0.970   6.235
 2909TIP3    H1 8672   2.639   0.888   6.244
 2909TIP3    H2 8673   2.647   1.029   6.298
 2910TIP3   OH2 8674   3.609   5.455   4.316
 2910TIP3    H1 8675   3.689   5.443   4.367
 2910TIP3    H2 8676   3.562   5.372   4.325
 2911TIP3   OH2 8677   7.677   6.006   1.687
 2911TIP3    H1 8678   7.616   5.949   1.735
 2911TIP3    H2 8679   7.669   5.978   1.596
 2912TIP3   OH2 8680   1.671   5.665   3.737
 2912TIP3    H1 8681   1.739   5.599   3.745
 2912TIP3    H2 8682   1.675   5.714   3.820
 2913TIP3   OH2 8683   0.143   7.509   3.492
 2913TIP3    H1 8684   0.120   7.567   3.418
 2913TIP3    H2 8685   0.204   7.561   3.544
 2914TIP3   OH2 8686   7.747   5.802   2.687
 2914TIP3    H1 8687   7.761   5.834   2.776
 2914TIP3    H2 8688   7.836   5.786   2.654
 2915TIP3   OH2 8689   1.146   4.004   1.927
 2915TIP3    H1 8690   1.160   3.935   1.993
 2915TIP3    H2 8691   1.230   4.049   1.922
 2916TIP3   OH2 8692   1.528   5.731   0.802
 2916TIP3    H1 8693   1.449   5.767   0.841
 2916TIP3    H2 8694   1.503   5.643   0.773
 2917TIP3   OH2 8695   4.923   3.491   6.099
 2917TIP3    H1 8696   4.960   3.403   6.103
 2917TIP3    H2 8697   4.914   3.518   6.190
 2918TIP3   OH2 8698   3.815   4.658   5.729
 2918TIP3    H1 8699   3.861   4.704   5.659
 2918TIP3    H2 8700   3.883   4.608   5.774
 2919TIP3   OH2 8701   1.225   1.742   6.424
 2919TIP3    H1 8702   1.218   1.701   6.510
 2919TIP3    H2 8703   1.315   1.727   6.397
 2920TIP3   OH2 8704   0.104   3.397   1.718
 2920TIP3    H1 8705   0.086   3.305   1.735
 2920TIP3    H2 8706   0.142   3.399   1.630
 2921TIP3   OH2 8707   4.201   2.120   3.663
 2921TIP3    H1 8708   4.117   2.085   3.693
 2921TIP3    H2 8709   4.248   2.044   3.628
 2922TIP3   OH2 8710   1.529   1.823   5.556
 2922TIP3    H1 8711   1.566   1.751   5.506
 2922TIP3    H2 8712   1.444   1.840   5.515
 2923TIP3   OH2 8713   8.225   3.480   0.291
 2923TIP3    H1 8714   8.177   3.561   0.273
 2923TIP3    H2 8715   8.307   3.488   0.244
 2924TIP3   OH2 8716   2.799   6.903   0.924
 2924TIP3    H1 8717   2.787   6.995   0.898
 2924TIP3    H2 8718   2.767   6.853   0.849
 2925TIP3   OH2 8719   2.403   5.988   5.971
 2925TIP3    H1 8720   2.416   6.031   5.886
 2925TIP3    H2 8721   2.408   5.894   5.951
 2926TIP3   OH2 8722   2.309   1.127   3.592
 2926TIP3    H1 8723   2.284   1.099   3.680
 2926TIP3    H2 8724   2.229   1.167   3.557
 2927TIP3   OH2 8725   4.800   1.421   3.515
 2927TIP3    H1 8726   4.713   1.406   3.479
 2927TIP3    H2 8727   4.828   1.504   3.475
 2928TIP3   OH2 8728   4.152   5.305   5.875
 2928TIP3    H1 8729   4.073   5.290   5.927
 2928TIP3    H2 8730   4.221   5.323   5.939
 2929TIP3   OH2 8731   2.044   2.318   3.089
 2929TIP3    H1 8732   2.019   2.359   3.006
 2929TIP3    H2 8733   2.124   2.269   3.069
 2930TIP3   OH2 8734   6.656   5.615   4.556
 2930TIP3    H1 8735   6.744   5.578   4.555
 2930TIP3    H2 8736   6.647   5.654   4.643
 2931TIP3   OH2 8737   0.831   3.761   0.627
 2931TIP3    H1 8738   0.759   3.717   0.672
 2931TIP3    H2 8739   0.814   3.854   0.641
 2932TIP3   OH2 8740   7.780   1.163   1.887
 2932TIP3    H1 8741   7.823   1.155   1.802
 2932TIP3    H2 8742   7.848   1.198   1.945
 2933TIP3   OH2 8743   7.549   4.409   0.425
 2933TIP3    H1 8744   7.521   4.351   0.496
 2933TIP3    H2 8745   7.636   4.378   0.402
 2934TIP3   OH2 8746   7.651   4.945   2.045
 2934TIP3    H1 8747   7.574   4.917   2.096
 2934TIP3    H2 8748   7.670   4.871   1.988
 2935TIP3   OH2 8749   0.391   6.980   5.446
 2935TIP3    H1 8750   0.378   6.949   5.356
 2935TIP3    H2 8751   0.392   6.901   5.499
 2936TIP3   OH2 8752   5.024   7.673   4.565
 2936TIP3    H1 8753   5.019   7.604   4.498
 2936TIP3    H2 8754   4.962   7.645   4.632
 2937TIP3   OH2 8755   1.524   5.154   4.455
 2937TIP3    H1 8756   1.552   5.203   4.532
 2937TIP3    H2 8757   1.561   5.202   4.381
 2938TIP3   OH2 8758   0.325   2.299   4.628
 2938TIP3    H1 8759   0.371   2.227   4.585
 2938TIP3    H2 8760   0.257   2.257   4.681
 2939TIP3   OH2 8761   1.067   3.925   5.064
 2939TIP3    H1 8762   1.136   3.860   5.053
 2939TIP3    H2 8763   1.045   3.951   4.974
 2940TIP3   OH2 8764   3.391   5.069   0.559
 2940TIP3    H1 8765   3.327   5.106   0.620
 2940TIP3    H2 8766   3.406   4.980   0.590
 2941TIP3   OH2 8767   1.367   6.472   3.225
 2941TIP3    H1 8768   1.306   6.541   3.251
 2941TIP3    H2 8769   1.327   6.431   3.149
 2942TIP3   OH2 8770   0.131   4.385   1.200
 2942TIP3    H1 8771   0.104   4.459   1.145
 2942TIP3    H2 8772   0.109   4.413   1.289
 2943TIP3   OH2 8773   7.007   5.751   1.531
 2943TIP3    H1 8774   6.981   5.838   1.560
 2943TIP3    H2 8775   6.937   5.694   1.561
 2944TIP3   OH2 8776   3.056   5.431   4.915
 2944TIP3    H1 8777   3.058   5.393   4.827
 2944TIP3    H2 8778   3.064   5.525   4.899
 2945TIP3   OH2 8779   4.520   1.741   0.369
 2945TIP3    H1 8780   4.472   1.697   0.298
 2945TIP3    H2 8781   4.612   1.728   0.347
 2946TIP3   OH2 8782   1.499   3.083   4.457
 2946TIP3    H1 8783   1.521   3.156   4.515
 2946TIP3    H2 8784   1.480   3.124   4.373
 2947TIP3   OH2 8785   0.652   4.673   3.877
 2947TIP3    H1 8786   0.627   4.600   3.934
 2947TIP3    H2 8787   0.613   4.651   3.792
 2948TIP3   OH2 8788   4.928   3.823   1.630
 2948TIP3    H1 8789   4.965   3.872   1.704
 2948TIP3    H2 8790   4.998   3.763   1.604
 2949TIP3   OH2 8791   4.664   5.840   3.539
 2949TIP3    H1 8792   4.754   5.829   3.510
 2949TIP3    H2 8793   4.611   5.823   3.461
 2950TIP3   OH2 8794   2.776   4.492   3.641
 2950TIP3    H1 8795   2.777   4.472   3.547
 2950TIP3    H2 8796   2.864   4.526   3.659
 2951TIP3   OH2 8797   2.952   0.624   6.489
 2951TIP3    H1 8798   2.902   0.556   6.444
 2951TIP3    H2 8799   2.972   0.688   6.421
 2952TIP3   OH2 8800   2.314   7.235   6.159
 2952TIP3    H1 8801   2.300   7.171   6.089
 2952TIP3    H2 8802   2.328   7.182   6.238
 2953TIP3   OH2 8803   2.776   6.288   3.482
 2953TIP3    H1 8804   2.851   6.241   3.520
 2953TIP3    H2 8805   2.723   6.313   3.558
 2954TIP3   OH2 8806   3.247   1.285   3.254
 2954TIP3    H1 8807   3.223   1.196   3.226
 2954TIP3    H2 8808   3.335   1.275   3.292
 2955TIP3   OH2 8809   5.081   1.583   1.830
 2955TIP3    H1 8810   5.173   1.593   1.853
 2955TIP3    H2 8811   5.048   1.673   1.823
 2956TIP3   OH2 8812   7.634   3.647   2.693
 2956TIP3    H1 8813   7.577   3.571   2.676
 2956TIP3    H2 8814   7.630   3.658   2.788
 2957TIP3   OH2 8815   3.006   7.582   6.528
 2957TIP3    H1 8816   2.948   7.637   6.475
 2957TIP3    H2 8817   2.986   7.493   6.499
 2958TIP3   OH2 8818   0.677   2.597   1.490
 2958TIP3    H1 8819   0.714   2.581   1.576
 2958TIP3    H2 8820   0.701   2.688   1.470
 2959TIP3   OH2 8821   2.784   7.485   2.981
 2959TIP3    H1 8822   2.757   7.419   2.916
 2959TIP3    H2 8823   2.709   7.491   3.040
 2960TIP3   OH2 8824   3.856   3.702   1.104
 2960TIP3    H1 8825   3.930   3.742   1.150
 2960TIP3    H2 8826   3.783   3.707   1.166
 2961TIP3   OH2 8827   2.737   5.485   3.427
 2961TIP3    H1 8828   2.747   5.499   3.521
 2961TIP3    H2 8829   2.777   5.400   3.411
 2962TIP3   OH2 8830   7.584   3.431   1.988
 2962TIP3    H1 8831   7.657   3.415   2.048
 2962TIP3    H2 8832   7.607   3.512   1.943
 2963TIP3   OH2 8833   6.169   5.218   4.365
 2963TIP3    H1 8834   6.260   5.222   4.338
 2963TIP3    H2 8835   6.170   5.171   4.448
 2964TIP3   OH2 8836   5.274   6.713   5.972
 2964TIP3    H1 8837   5.219   6.778   6.016
 2964TIP3    H2 8838   5.363   6.742   5.989
 2965TIP3   OH2 8839   1.286   3.413   6.368
 2965TIP3    H1 8840   1.336   3.495   6.362
 2965TIP3    H2 8841   1.305   3.381   6.456
 2966TIP3   OH2 8842   0.857   0.859   6.189
 2966TIP3    H1 8843   0.918   0.805   6.239
 2966TIP3    H2 8844   0.776   0.807   6.186
 2967TIP3   OH2 8845   0.737   7.682   1.859
 2967TIP3    H1 8846   0.750   7.751   1.793
 2967TIP3    H2 8847   0.725   7.729   1.941
 2968TIP3   OH2 8848   2.222   3.623   0.243
 2968TIP3    H1 8849   2.277   3.687   0.287
 2968TIP3    H2 8850   2.170   3.583   0.312
 2969TIP3   OH2 8851   0.669   3.508   0.160
 2969TIP3    H1 8852   0.747   3.477   0.207
 2969TIP3    H2 8853   0.704   3.552   0.082
 2970TIP3   OH2 8854   3.690   6.342   5.285
 2970TIP3    H1 8855   3.668   6.410   5.349
 2970TIP3    H2 8856   3.619   6.278   5.292
 2971TIP3   OH2 8857   4.098   0.028   1.553
 2971TIP3    H1 8858   4.023   0.070   1.594
 2971TIP3    H2 8859   4.149   0.099   1.515
 2972TIP3   OH2 8860   6.507   2.398   4.603
 2972TIP3    H1 8861   6.551   2.425   4.684
 2972TIP3    H2 8862   6.570   2.418   4.533
 2973TIP3   OH2 8863   2.955   1.053   6.476
 2973TIP3    H1 8864   2.936   1.133   6.427
 2973TIP3    H2 8865   3.015   1.080   6.545
 2974TIP3   OH2 8866   1.429   4.751   6.320
 2974TIP3    H1 8867   1.444   4.727   6.411
 2974TIP3    H2 8868   1.507   4.800   6.295
 2975TIP3   OH2 8869   0.220   7.754   0.836
 2975TIP3    H1 8870   0.211   7.697   0.912
 2975TIP3    H2 8871   0.223   7.843   0.873
 2976TIP3   OH2 8872   3.402   5.042   5.029
 2976TIP3    H1 8873   3.422   5.071   5.118
 2976TIP3    H2 8874   3.309   5.062   5.017
 2977TIP3   OH2 8875   6.773   7.144   2.457
 2977TIP3    H1 8876   6.726   7.061   2.448
 2977TIP3    H2 8877   6.840   7.141   2.389
 2978TIP3   OH2 8878   0.320   0.817   4.568
 2978TIP3    H1 8879   0.389   0.860   4.618
 2978TIP3    H2 8880   0.353   0.728   4.553
 2979TIP3   OH2 8881   6.005   5.861   3.315
 2979TIP3    H1 8882   6.099   5.864   3.296
 2979TIP3    H2 8883   6.000   5.812   3.398
 2980TIP3   OH2 8884   6.478   3.507   6.022
 2980TIP3    H1 8885   6.463   3.576   5.958
 2980TIP3    H2 8886   6.524   3.552   6.094
 2981TIP3   OH2 8887   1.701   1.165   6.697
 2981TIP3    H1 8888   1.614   1.124   6.689
 2981TIP3    H2 8889   1.718   1.202   6.610
 2982TIP3   OH2 8890   6.265   0.663   2.291
 2982TIP3    H1 8891   6.220   0.586   2.256
 2982TIP3    H2 8892   6.358   0.647   2.275
 2983TIP3   OH2 8893   6.031   2.449   2.352
 2983TIP3    H1 8894   6.024   2.409   2.265
 2983TIP3    H2 8895   6.110   2.503   2.347
 2984TIP3   OH2 8896   8.053   7.235   4.640
 2984TIP3    H1 8897   7.975   7.196   4.678
 2984TIP3    H2 8898   8.041   7.329   4.650
 2985TIP3   OH2 8899   7.634   2.452   2.783
 2985TIP3    H1 8900   7.638   2.362   2.817
 2985TIP3    H2 8901   7.616   2.440   2.689
 2986TIP3   OH2 8902   0.275   4.788   5.610
 2986TIP3    H1 8903   0.207   4.807   5.545
 2986TIP3    H2 8904   0.229   4.740   5.679
 2987TIP3   OH2 8905   4.068   3.377   5.739
 2987TIP3    H1 8906   3.991   3.378   5.797
 2987TIP3    H2 8907   4.053   3.451   5.680
 2988TIP3   OH2 8908   0.070   4.622   0.193
 2988TIP3    H1 8909   0.094   4.625   0.101
 2988TIP3    H2 8910   0.154   4.614   0.239
 2989TIP3   OH2 8911   0.006   0.443   2.942
 2989TIP3    H1 8912  -0.029   0.527   2.910
 2989TIP3    H2 8913   0.093   0.438   2.905
 2990TIP3   OH2 8914   5.169   2.389   1.302
 2990TIP3    H1 8915   5.110   2.408   1.229
 2990TIP3    H2 8916   5.254   2.377   1.261
 2991TIP3   OH2 8917   5.090   6.581   2.042
 2991TIP3    H1 8918   5.016   6.620   2.088
 2991TIP3    H2 8919   5.157   6.567   2.109
 2992TIP3   OH2 8920   3.160   3.582   1.908
 2992TIP3    H1 8921   3.151   3.553   1.817
 2992TIP3    H2 8922   3.111   3.518   1.959
 2993TIP3   OH2 8923   3.286   0.471   0.416
 2993TIP3    H1 8924   3.191   0.477   0.405
 2993TIP3    H2 8925   3.304   0.377   0.418
 2994TIP3   OH2 8926   1.350   1.363   0.654
 2994TIP3    H1 8927   1.369   1.298   0.722
 2994TIP3    H2 8928   1.424   1.424   0.658
 2995TIP3   OH2 8929   0.994   1.400   1.693
 2995TIP3    H1 8930   1.036   1.316   1.674
 2995TIP3    H2 8931   1.067   1.460   1.709
 2996TIP3   OH2 8932   2.771   1.496   0.151
 2996TIP3    H1 8933   2.771   1.517   0.245
 2996TIP3    H2 8934   2.782   1.401   0.148
 2997TIP3   OH2 8935   5.380   1.212   4.892
 2997TIP3    H1 8936   5.337   1.148   4.948
 2997TIP3    H2 8937   5.442   1.258   4.950
 2998TIP3   OH2 8938   2.201   1.103   4.069
 2998TIP3    H1 8939   2.116   1.134   4.101
 2998TIP3    H2 8940   2.263   1.127   4.138
 2999TIP3   OH2 8941   0.578   6.692   3.700
 2999TIP3    H1 8942   0.629   6.750   3.756
 2999TIP3    H2 8943   0.534   6.632   3.760
 3000TIP3   OH2 8944   1.814   2.945   1.663
 3000TIP3    H1 8945   1.784   2.930   1.573
 3000TIP3    H2 8946   1.871   3.021   1.657
 3001TIP3   OH2 8947   1.335   5.071   4.283
 3001TIP3    H1 8948   1.394   5.091   4.355
 3001TIP3    H2 8949   1.278   5.148   4.277
 3002TIP3   OH2 8950   7.093   2.152   6.620
 3002TIP3    H1 8951   7.174   2.187   6.582
 3002TIP3    H2 8952   7.124   2.091   6.688
 3003TIP3   OH2 8953   1.482   6.653   1.778
 3003TIP3    H1 8954   1.534   6.722   1.821
 3003TIP3    H2 8955   1.524   6.572   1.806
 3004TIP3   OH2 8956   1.583   0.734  -0.003
 3004TIP3    H1 8957   1.561   0.641   0.008
 3004TIP3    H2 8958   1.620   0.759   0.082
 3005TIP3   OH2 8959   0.863   2.058   1.784
 3005TIP3    H1 8960   0.943   2.011   1.807
 3005TIP3    H2 8961   0.816   1.998   1.726
 3006TIP3   OH2 8962   5.584   6.825   4.584
 3006TIP3    H1 8963   5.559   6.910   4.619
 3006TIP3    H2 8964   5.550   6.762   4.649
 3007TIP3   OH2 8965   7.741   0.162   1.940
 3007TIP3    H1 8966   7.755   0.088   1.999
 3007TIP3    H2 8967   7.782   0.236   1.986
 3008TIP3   OH2 8968   2.884   3.647   2.850
 3008TIP3    H1 8969   2.867   3.668   2.941
 3008TIP3    H2 8970   2.798   3.627   2.813
 3009TIP3   OH2 8971   3.781   4.998   5.469
 3009TIP3    H1 8972   3.872   5.001   5.441
 3009TIP3    H2 8973   3.743   5.079   5.436
 3010TIP3   OH2 8974   7.492   2.885   5.552
 3010TIP3    H1 8975   7.410   2.844   5.579
 3010TIP3    H2 8976   7.476   2.979   5.560
 3011TIP3   OH2 8977   1.294   1.352   5.237
 3011TIP3    H1 8978   1.258   1.371   5.151
 3011TIP3    H2 8979   1.344   1.271   5.225
 3012TIP3   OH2 8980   5.603   6.923   5.427
 3012TIP3    H1 8981   5.610   6.850   5.489
 3012TIP3    H2 8982   5.538   6.981   5.466
 3013TIP3   OH2 8983   1.854   4.023   0.537
 3013TIP3    H1 8984   1.782   3.962   0.521
 3013TIP3    H2 8985   1.929   3.966   0.556
 3014TIP3   OH2 8986   5.422   6.439   3.358
 3014TIP3    H1 8987   5.474   6.386   3.297
 3014TIP3    H2 8988   5.458   6.528   3.348
 3015TIP3   OH2 8989   4.110   3.522   2.156
 3015TIP3    H1 8990   4.108   3.592   2.221
 3015TIP3    H2 8991   4.022   3.485   2.158
 3016TIP3   OH2 8992   3.361   1.883   3.790
 3016TIP3    H1 8993   3.332   1.846   3.873
 3016TIP3    H2 8994   3.369   1.808   3.731
 3017TIP3   OH2 8995   2.780   4.585   3.031
 3017TIP3    H1 8996   2.833   4.661   3.005
 3017TIP3    H2 8997   2.697   4.596   2.985
 3018TIP3   OH2 8998   5.668   2.869   0.603
 3018TIP3    H1 8999   5.738   2.891   0.542
 3018TIP3    H2 9000   5.605   2.941   0.593
 3019TIP3   OH2 9001   6.932   5.699   0.644
 3019TIP3    H1 9002   6.904   5.752   0.569
 3019TIP3    H2 9003   6.851   5.657   0.674
 3020TIP3   OH2 9004   1.858   4.823   1.306
 3020TIP3    H1 9005   1.916   4.889   1.268
 3020TIP3    H2 9006   1.774   4.836   1.262
 3021TIP3   OH2 9007   0.875   0.352   4.198
 3021TIP3    H1 9008   0.861   0.404   4.277
 3021TIP3    H2 9009   0.855   0.262   4.224
 3022TIP3   OH2 9010   7.388   6.401   2.846
 3022TIP3    H1 9011   7.380   6.461   2.920
 3022TIP3    H2 9012   7.429   6.323   2.883
 3023TIP3   OH2 9013   6.286   5.849   0.777
 3023TIP3    H1 9014   6.314   5.813   0.862
 3023TIP3    H2 9015   6.203   5.891   0.795
 3024TIP3   OH2 9016   0.019   0.296   3.235
 3024TIP3    H1 9017   0.050   0.261   3.152
 3024TIP3    H2 9018   0.093   0.347   3.268
 3025TIP3   OH2 9019   2.436   3.489   5.247
 3025TIP3    H1 9020   2.374   3.553   5.213
 3025TIP3    H2 9021   2.394   3.455   5.326
 3026TIP3   OH2 9022   4.506   0.723   6.497
 3026TIP3    H1 9023   4.532   0.795   6.555
 3026TIP3    H2 9024   4.536   0.750   6.411
 3027TIP3   OH2 9025   6.849   3.349   0.464
 3027TIP3    H1 9026   6.769   3.325   0.416
 3027TIP3    H2 9027   6.910   3.379   0.396
 3028TIP3   OH2 9028   4.018   3.962   4.847
 3028TIP3    H1 9029   4.066   3.971   4.765
 3028TIP3    H2 9030   3.937   4.011   4.833
 3029TIP3   OH2 9031   0.731   4.993   0.300
 3029TIP3    H1 9032   0.694   4.967   0.385
 3029TIP3    H2 9033   0.683   4.940   0.236
 3030TIP3   OH2 9034   5.854   4.986   1.627
 3030TIP3    H1 9035   5.828   5.051   1.561
 3030TIP3    H2 9036   5.906   4.922   1.579
 3031TIP3   OH2 9037   6.987   2.851   2.762
 3031TIP3    H1 9038   7.054   2.783   2.762
 3031TIP3    H2 9039   7.036   2.933   2.773
 3032TIP3   OH2 9040   8.283   4.106   4.175
 3032TIP3    H1 9041   8.244   4.118   4.089
 3032TIP3    H2 9042   8.209   4.094   4.234
 3033TIP3   OH2 9043   5.003   4.402   4.814
 3033TIP3    H1 9044   4.916   4.394   4.853
 3033TIP3    H2 9045   5.044   4.475   4.862
 3034TIP3   OH2 9046   2.611   5.661   5.380
 3034TIP3    H1 9047   2.702   5.638   5.359
 3034TIP3    H2 9048   2.562   5.643   5.300
 3035TIP3   OH2 9049   3.643   2.158   4.097
 3035TIP3    H1 9050   3.728   2.165   4.054
 3035TIP3    H2 9051   3.664   2.136   4.188
 3036TIP3   OH2 9052   6.871   2.518   5.185
 3036TIP3    H1 9053   6.893   2.453   5.252
 3036TIP3    H2 9054   6.779   2.500   5.165
 3037TIP3   OH2 9055   7.585   2.259   0.489
 3037TIP3    H1 9056   7.518   2.206   0.531
 3037TIP3    H2 9057   7.660   2.200   0.480
 3038TIP3   OH2 9058   1.702   1.771   1.522
 3038TIP3    H1 9059   1.771   1.837   1.527
 3038TIP3    H2 9060   1.625   1.818   1.489
 3039TIP3   OH2 9061   1.197   1.227   1.615
 3039TIP3    H1 9062   1.247   1.294   1.568
 3039TIP3    H2 9063   1.216   1.145   1.569
 3040TIP3   OH2 9064   3.963   7.321   5.091
 3040TIP3    H1 9065   4.008   7.275   5.161
 3040TIP3    H2 9066   3.947   7.409   5.126
 3041TIP3   OH2 9067   3.029   3.826   0.663
 3041TIP3    H1 9068   2.995   3.898   0.716
 3041TIP3    H2 9069   3.019   3.749   0.720
 3042TIP3   OH2 9070   1.362   4.475   0.997
 3042TIP3    H1 9071   1.373   4.381   1.014
 3042TIP3    H2 9072   1.439   4.499   0.946
 3043TIP3   OH2 9073   7.123   5.956   2.706
 3043TIP3    H1 9074   7.198   6.015   2.699
 3043TIP3    H2 9075   7.149   5.878   2.657
 3044TIP3   OH2 9076   4.337   4.594   3.940
 3044TIP3    H1 9077   4.306   4.517   3.893
 3044TIP3    H2 9078   4.348   4.661   3.872
 3045TIP3   OH2 9079   1.064   7.304   0.965
 3045TIP3    H1 9080   1.120   7.374   1.000
 3045TIP3    H2 9081   1.053   7.327   0.873
 3046TIP3   OH2 9082   0.076   5.744   2.247
 3046TIP3    H1 9083   0.114   5.657   2.262
 3046TIP3    H2 9084   0.071   5.752   2.152
 3047TIP3   OH2 9085   6.394   2.882   5.627
 3047TIP3    H1 9086   6.469   2.863   5.684
 3047TIP3    H2 9087   6.432   2.918   5.548
 3048TIP3   OH2 9088   1.450   3.992   3.436
 3048TIP3    H1 9089   1.463   4.084   3.459
 3048TIP3    H2 9090   1.370   3.992   3.383
 3049TIP3   OH2 9091   2.682   0.519   4.825
 3049TIP3    H1 9092   2.671   0.594   4.883
 3049TIP3    H2 9093   2.742   0.461   4.872
 3050TIP3   OH2 9094   8.102   5.639   4.698
 3050TIP3    H1 9095   8.007   5.639   4.684
 3050TIP3    H2 9096   8.123   5.547   4.715
 3051TIP3   OH2 9097   2.809   5.531   4.377
 3051TIP3    H1 9098   2.837   5.460   4.321
 3051TIP3    H2 9099   2.818   5.610   4.324
 3052TIP3   OH2 9100   3.105   3.934   3.384
 3052TIP3    H1 9101   3.191   3.958   3.420
 3052TIP3    H2 9102   3.119   3.848   3.344
 3053TIP3   OH2 9103   4.794   0.884   4.890
 3053TIP3    H1 9104   4.853   0.959   4.878
 3053TIP3    H2 9105   4.764   0.891   4.981
 3054TIP3   OH2 9106   6.490   7.462   5.494
 3054TIP3    H1 9107   6.444   7.410   5.427
 3054TIP3    H2 9108   6.582   7.441   5.480
 3055TIP3   OH2 9109   4.041   0.653   3.344
 3055TIP3    H1 9110   4.070   0.698   3.423
 3055TIP3    H2 9111   4.108   0.587   3.328
 3056TIP3   OH2 9112   4.068   0.393   1.030
 3056TIP3    H1 9113   4.148   0.400   1.083
 3056TIP3    H2 9114   4.097   0.351   0.949
 3057TIP3   OH2 9115   5.695   4.495   3.712
 3057TIP3    H1 9116   5.643   4.418   3.691
 3057TIP3    H2 9117   5.633   4.568   3.711
 3058TIP3   OH2 9118   0.113   5.846   3.538
 3058TIP3    H1 9119   0.208   5.844   3.547
 3058TIP3    H2 9120   0.080   5.806   3.618
 3059TIP3   OH2 9121   5.013   4.099   5.175
 3059TIP3    H1 9122   5.093   4.076   5.223
 3059TIP3    H2 9123   5.000   4.026   5.115
 3060TIP3   OH2 9124   5.438   5.137   4.805
 3060TIP3    H1 9125   5.512   5.181   4.762
 3060TIP3    H2 9126   5.365   5.150   4.745
 3061TIP3   OH2 9127   2.071   2.936   6.193
 3061TIP3    H1 9128   2.099   2.844   6.187
 3061TIP3    H2 9129   1.977   2.932   6.178
 3062TIP3   OH2 9130   7.797   0.443   6.275
 3062TIP3    H1 9131   7.747   0.446   6.357
 3062TIP3    H2 9132   7.885   0.472   6.300
 3063TIP3   OH2 9133   7.795   3.475   3.750
 3063TIP3    H1 9134   7.770   3.467   3.842
 3063TIP3    H2 9135   7.885   3.442   3.746
 3064TIP3   OH2 9136   5.480   6.574   0.654
 3064TIP3    H1 9137   5.403   6.548   0.603
 3064TIP3    H2 9138   5.511   6.492   0.694
 3065TIP3   OH2 9139   2.755   3.717   5.177
 3065TIP3    H1 9140   2.787   3.642   5.128
 3065TIP3    H2 9141   2.799   3.793   5.138
 3066TIP3   OH2 9142   5.885   1.345   4.391
 3066TIP3    H1 9143   5.798   1.351   4.351
 3066TIP3    H2 9144   5.938   1.408   4.343
 3067TIP3   OH2 9145   1.903   1.885   2.248
 3067TIP3    H1 9146   1.907   1.976   2.217
 3067TIP3    H2 9147   1.820   1.852   2.214
 3068TIP3   OH2 9148   4.671   4.664   5.505
 3068TIP3    H1 9149   4.605   4.618   5.453
 3068TIP3    H2 9150   4.620   4.706   5.575
 3069TIP3   OH2 9151   3.647   7.550   1.042
 3069TIP3    H1 9152   3.653   7.629   1.096
 3069TIP3    H2 9153   3.686   7.481   1.096
 3070TIP3   OH2 9154   1.320   7.609   5.078
 3070TIP3    H1 9155   1.345   7.570   4.994
 3070TIP3    H2 9156   1.402   7.643   5.114
 3071TIP3   OH2 9157   0.620   1.731   2.411
 3071TIP3    H1 9158   0.634   1.811   2.461
 3071TIP3    H2 9159   0.525   1.724   2.403
 3072TIP3   OH2 9160   4.278   4.422   1.472
 3072TIP3    H1 9161   4.330   4.502   1.475
 3072TIP3    H2 9162   4.259   4.409   1.379
 3073TIP3   OH2 9163   6.909   1.445   0.989
 3073TIP3    H1 9164   6.918   1.364   1.040
 3073TIP3    H2 9165   6.849   1.422   0.918
 3074TIP3   OH2 9166   4.105   3.996   4.574
 3074TIP3    H1 9167   4.038   4.044   4.526
 3074TIP3    H2 9168   4.159   3.956   4.506
 3075TIP3   OH2 9169   3.536   5.242   5.399
 3075TIP3    H1 9170   3.559   5.230   5.491
 3075TIP3    H2 9171   3.483   5.322   5.397
 3076TIP3   OH2 9172   7.081   4.803   6.630
 3076TIP3    H1 9173   7.161   4.805   6.578
 3076TIP3    H2 9174   7.102   4.744   6.703
 3077TIP3   OH2 9175   6.958   2.271   2.177
 3077TIP3    H1 9176   6.903   2.206   2.221
 3077TIP3    H2 9177   6.955   2.248   2.085
 3078TIP3   OH2 9178   2.763   2.401   4.667
 3078TIP3    H1 9179   2.668   2.403   4.680
 3078TIP3    H2 9180   2.776   2.349   4.588
 3079TIP3   OH2 9181   6.813   7.112   3.978
 3079TIP3    H1 9182   6.896   7.148   4.008
 3079TIP3    H2 9183   6.829   7.086   3.887
 3080TIP3   OH2 9184   2.444   1.705   5.203
 3080TIP3    H1 9185   2.354   1.711   5.237
 3080TIP3    H2 9186   2.497   1.749   5.269
 3081TIP3   OH2 9187   4.987   5.370   6.712
 3081TIP3    H1 9188   4.974   5.317   6.633
 3081TIP3    H2 9189   5.080   5.361   6.732
 3082TIP3   OH2 9190   0.021   7.550   1.783
 3082TIP3    H1 9191   0.058   7.570   1.696
 3082TIP3    H2 9192  -0.045   7.618   1.797
 3083TIP3   OH2 9193   4.351   7.663   3.682
 3083TIP3    H1 9194   4.419   7.730   3.674
 3083TIP3    H2 9195   4.282   7.692   3.622
 3084TIP3   OH2 9196   0.808   7.660   0.933
 3084TIP3    H1 9197   0.795   7.658   1.028
 3084TIP3    H2 9198   0.834   7.750   0.914
 3085TIP3   OH2 9199   5.786   1.522   2.321
 3085TIP3    H1 9200   5.772   1.427   2.318
 3085TIP3    H2 9201   5.834   1.541   2.240
 3086TIP3   OH2 9202   0.537   3.448   5.949
 3086TIP3    H1 9203   0.581   3.366   5.927
 3086TIP3    H2 9204   0.446   3.436   5.920
 3087TIP3   OH2 9205   2.639   7.165   4.996
 3087TIP3    H1 9206   2.605   7.145   5.084
 3087TIP3    H2 9207   2.711   7.103   4.984
 3088TIP3   OH2 9208   0.378   3.898   1.305
 3088TIP3    H1 9209   0.405   3.841   1.378
 3088TIP3    H2 9210   0.426   3.865   1.230
 3089TIP3   OH2 9211   7.698   7.033   1.052
 3089TIP3    H1 9212   7.756   7.090   1.102
 3089TIP3    H2 9213   7.613   7.077   1.055
 3090TIP3   OH2 9214   2.251   2.035   5.192
 3090TIP3    H1 9215   2.322   2.096   5.171
 3090TIP3    H2 9216   2.248   1.975   5.118
 3091TIP3   OH2 9217   2.831   4.618   5.945
 3091TIP3    H1 9218   2.835   4.546   6.008
 3091TIP3    H2 9219   2.824   4.574   5.860
 3092TIP3   OH2 9220   1.677   1.914   3.934
 3092TIP3    H1 9221   1.675   1.819   3.941
 3092TIP3    H2 9222   1.733   1.943   4.005
 3093TIP3   OH2 9223   4.804   0.220   2.312
 3093TIP3    H1 9224   4.716   0.256   2.305
 3093TIP3    H2 9225   4.861   0.293   2.288
 3094TIP3   OH2 9226   6.378   0.617   3.339
 3094TIP3    H1 9227   6.411   0.540   3.291
 3094TIP3    H2 9228   6.406   0.603   3.429
 3095TIP3   OH2 9229   1.399   1.352   2.274
 3095TIP3    H1 9230   1.404   1.379   2.366
 3095TIP3    H2 9231   1.442   1.267   2.272
 3096TIP3   OH2 9232   7.981   7.648   1.639
 3096TIP3    H1 9233   7.896   7.646   1.596
 3096TIP3    H2 9234   8.030   7.575   1.601
 3097TIP3   OH2 9235   7.538   2.312   3.654
 3097TIP3    H1 9236   7.526   2.245   3.586
 3097TIP3    H2 9237   7.570   2.389   3.606
 3098TIP3   OH2 9238   2.601   7.676   3.188
 3098TIP3    H1 9239   2.681   7.727   3.202
 3098TIP3    H2 9240   2.605   7.607   3.253
 3099TIP3   OH2 9241   5.973   2.088   6.466
 3099TIP3    H1 9242   5.891   2.137   6.469
 3099TIP3    H2 9243   5.946   1.997   6.448
 3100TIP3   OH2 9244   4.021   1.081   3.187
 3100TIP3    H1 9245   4.053   1.143   3.121
 3100TIP3    H2 9246   4.010   0.999   3.139
 3101TIP3   OH2 9247   3.675   1.655   0.387
 3101TIP3    H1 9248   3.764   1.687   0.374
 3101TIP3    H2 9249   3.627   1.684   0.309
 3102TIP3   OH2 9250   7.712   5.579   3.012
 3102TIP3    H1 9251   7.726   5.492   2.974
 3102TIP3    H2 9252   7.778   5.586   3.081
 3103TIP3   OH2 9253   2.273   2.094   6.465
 3103TIP3    H1 9254   2.204   2.028   6.469
 3103TIP3    H2 9255   2.266   2.141   6.547
 3104TIP3   OH2 9256   6.290   3.877   4.192
 3104TIP3    H1 9257   6.381   3.848   4.195
 3104TIP3    H2 9258   6.273   3.912   4.280
 3105TIP3   OH2 9259   0.255   6.426   6.131
 3105TIP3    H1 9260   0.164   6.405   6.151
 3105TIP3    H2 9261   0.251   6.484   6.055
 3106TIP3   OH2 9262   7.774   0.200   1.498
 3106TIP3    H1 9263   7.776   0.211   1.403
 3106TIP3    H2 9264   7.792   0.287   1.533
 3107TIP3   OH2 9265   7.189   1.992   1.543
 3107TIP3    H1 9266   7.217   2.045   1.469
 3107TIP3    H2 9267   7.262   1.996   1.605
 3108TIP3   OH2 9268   6.331   5.253   0.855
 3108TIP3    H1 9269   6.361   5.326   0.801
 3108TIP3    H2 9270   6.339   5.284   0.945
 3109TIP3   OH2 9271   3.879   5.246   6.276
 3109TIP3    H1 9272   3.803   5.241   6.333
 3109TIP3    H2 9273   3.921   5.329   6.298
 3110TIP3   OH2 9274   4.082   5.314   2.953
 3110TIP3    H1 9275   4.052   5.399   2.984
 3110TIP3    H2 9276   4.148   5.287   3.016
 3111TIP3   OH2 9277   4.410   1.921   3.370
 3111TIP3    H1 9278   4.352   1.924   3.446
 3111TIP3    H2 9279   4.351   1.916   3.295
 3112TIP3   OH2 9280   6.885   1.733   0.510
 3112TIP3    H1 9281   6.791   1.734   0.489
 3112TIP3    H2 9282   6.903   1.821   0.543
 3113TIP3   OH2 9283   6.559   0.643   5.822
 3113TIP3    H1 9284   6.575   0.564   5.873
 3113TIP3    H2 9285   6.464   0.645   5.810
 3114TIP3   OH2 9286   3.891   2.332   4.022
 3114TIP3    H1 9287   3.957   2.398   4.003
 3114TIP3    H2 9288   3.892   2.274   3.945
 3115TIP3   OH2 9289   2.839   3.816   5.967
 3115TIP3    H1 9290   2.826   3.874   5.892
 3115TIP3    H2 9291   2.837   3.873   6.043
 3116TIP3   OH2 9292   8.072   4.122   3.956
 3116TIP3    H1 9293   7.981   4.105   3.933
 3116TIP3    H2 9294   8.090   4.209   3.920
 3117TIP3   OH2 9295   3.627   5.696   0.579
 3117TIP3    H1 9296   3.720   5.719   0.589
 3117TIP3    H2 9297   3.604   5.728   0.492
 3118TIP3   OH2 9298   7.168   7.059   0.588
 3118TIP3    H1 9299   7.248   7.021   0.551
 3118TIP3    H2 9300   7.160   7.144   0.546
 3119TIP3   OH2 9301   7.052   5.248   3.628
 3119TIP3    H1 9302   7.063   5.325   3.573
 3119TIP3    H2 9303   7.141   5.219   3.647
 3120TIP3   OH2 9304   5.500   2.890   1.609
 3120TIP3    H1 9305   5.588   2.876   1.645
 3120TIP3    H2 9306   5.457   2.945   1.674
 3121TIP3   OH2 9307   6.516   4.307   3.997
 3121TIP3    H1 9308   6.526   4.328   3.904
 3121TIP3    H2 9309   6.474   4.384   4.034
 3122TIP3   OH2 9310   0.390   5.951   2.624
 3122TIP3    H1 9311   0.387   5.875   2.683
 3122TIP3    H2 9312   0.360   5.917   2.540
 3123TIP3   OH2 9313   2.380   1.075   0.831
 3123TIP3    H1 9314   2.402   1.159   0.870
 3123TIP3    H2 9315   2.311   1.095   0.768
 3124TIP3   OH2 9316   0.552   2.675   6.227
 3124TIP3    H1 9317   0.518   2.658   6.139
 3124TIP3    H2 9318   0.548   2.770   6.236
 3125TIP3   OH2 9319   2.488   5.564   2.156
 3125TIP3    H1 9320   2.440   5.639   2.190
 3125TIP3    H2 9321   2.506   5.510   2.233
 3126TIP3   OH2 9322   7.102   3.002   6.048
 3126TIP3    H1 9323   7.160   3.015   6.123
 3126TIP3    H2 9324   7.017   3.035   6.078
 3127TIP3   OH2 9325   6.095   6.142   3.225
 3127TIP3    H1 9326   6.018   6.129   3.280
 3127TIP3    H2 9327   6.084   6.079   3.153
 3128TIP3   OH2 9328   7.719   1.417   5.070
 3128TIP3    H1 9329   7.776   1.485   5.105
 3128TIP3    H2 9330   7.683   1.373   5.147
 3129TIP3   OH2 9331   7.315   5.531   5.918
 3129TIP3    H1 9332   7.225   5.516   5.890
 3129TIP3    H2 9333   7.313   5.522   6.013
 3130TIP3   OH2 9334   6.195   5.064   5.288
 3130TIP3    H1 9335   6.234   4.986   5.250
 3130TIP3    H2 9336   6.244   5.078   5.369
 3131TIP3   OH2 9337   0.853   2.656   5.560
 3131TIP3    H1 9338   0.829   2.585   5.619
 3131TIP3    H2 9339   0.769   2.689   5.527
 3132TIP3   OH2 9340   3.411   0.137   0.039
 3132TIP3    H1 9341   3.479   0.189  -0.005
 3132TIP3    H2 9342   3.401   0.059  -0.016
 3133TIP3   OH2 9343   0.835   4.089   0.242
 3133TIP3    H1 9344   0.755   4.139   0.257
 3133TIP3    H2 9345   0.809   4.019   0.182
 3134TIP3   OH2 9346   4.199   5.593   3.664
 3134TIP3    H1 9347   4.221   5.665   3.605
 3134TIP3    H2 9348   4.250   5.609   3.743
 3135TIP3   OH2 9349   5.219   0.154   5.064
 3135TIP3    H1 9350   5.270   0.227   5.099
 3135TIP3    H2 9351   5.261   0.076   5.100
 3136TIP3   OH2 9352   3.199   7.703   2.148
 3136TIP3    H1 9353   3.135   7.695   2.078
 3136TIP3    H2 9354   3.153   7.673   2.226
 3137TIP3   OH2 9355   4.042   2.491   4.981
 3137TIP3    H1 9356   4.060   2.581   5.007
 3137TIP3    H2 9357   4.068   2.438   5.056
 3138TIP3   OH2 9358   2.969   0.254   1.188
 3138TIP3    H1 9359   3.042   0.214   1.236
 3138TIP3    H2 9360   2.975   0.347   1.208
 3139TIP3   OH2 9361   6.971   2.612   3.855
 3139TIP3    H1 9362   7.001   2.601   3.765
 3139TIP3    H2 9363   7.018   2.690   3.886
 3140TIP3   OH2 9364   3.092   0.560   1.493
 3140TIP3    H1 9365   3.049   0.623   1.435
 3140TIP3    H2 9366   3.052   0.576   1.579
 3141TIP3   OH2 9367   7.535   7.527   3.572
 3141TIP3    H1 9368   7.499   7.439   3.583
 3141TIP3    H2 9369   7.539   7.539   3.477
 3142TIP3   OH2 9370   3.167   5.288   3.928
 3142TIP3    H1 9371   3.079   5.264   3.959
 3142TIP3    H2 9372   3.226   5.250   3.993
 3143TIP3   OH2 9373   0.162   1.358   0.873
 3143TIP3    H1 9374   0.075   1.319   0.871
 3143TIP3    H2 9375   0.147   1.448   0.900
 3144TIP3   OH2 9376   2.263   7.768   2.942
 3144TIP3    H1 9377   2.189   7.715   2.910
 3144TIP3    H2 9378   2.317   7.705   2.990
 3145TIP3   OH2 9379   4.539   2.961   3.983
 3145TIP3    H1 9380   4.481   2.888   4.002
 3145TIP3    H2 9381   4.606   2.924   3.925
 3146TIP3   OH2 9382   0.233   1.289   1.825
 3146TIP3    H1 9383   0.163   1.242   1.872
 3146TIP3    H2 9384   0.257   1.361   1.883
 3147TIP3   OH2 9385   3.546   3.996   3.774
 3147TIP3    H1 9386   3.567   3.903   3.779
 3147TIP3    H2 9387   3.630   4.040   3.790
 3148TIP3   OH2 9388   5.970   3.149   0.105
 3148TIP3    H1 9389   6.052   3.112   0.137
 3148TIP3    H2 9390   5.997   3.223   0.049
 3149TIP3   OH2 9391   5.141   0.211   4.818
 3149TIP3    H1 9392   5.173   0.216   4.908
 3149TIP3    H2 9393   5.215   0.176   4.768
 3150TIP3   OH2 9394   5.713   7.105   2.792
 3150TIP3    H1 9395   5.685   7.192   2.766
 3150TIP3    H2 9396   5.808   7.112   2.804
 3151TIP3   OH2 9397   7.522   0.340   1.672
 3151TIP3    H1 9398   7.522   0.245   1.659
 3151TIP3    H2 9399   7.430   0.361   1.692
 3152TIP3   OH2 9400   0.933   5.128   4.679
 3152TIP3    H1 9401   0.862   5.167   4.626
 3152TIP3    H2 9402   0.925   5.034   4.663
 3153TIP3   OH2 9403   6.996   6.448   5.967
 3153TIP3    H1 9404   7.014   6.542   5.971
 3153TIP3    H2 9405   6.966   6.425   6.055
 3154TIP3   OH2 9406   3.463   3.506   3.629
 3154TIP3    H1 9407   3.453   3.448   3.554
 3154TIP3    H2 9408   3.452   3.449   3.705
 3155TIP3   OH2 9409   4.106   2.050   0.209
 3155TIP3    H1 9410   4.183   2.104   0.227
 3155TIP3    H2 9411   4.117   1.974   0.266
 3156TIP3   OH2 9412   1.004   0.560   5.772
 3156TIP3    H1 9413   1.051   0.618   5.712
 3156TIP3    H2 9414   0.912   0.567   5.746
 3157TIP3   OH2 9415   0.685   2.819   3.861
 3157TIP3    H1 9416   0.640   2.757   3.917
 3157TIP3    H2 9417   0.641   2.811   3.776
 3158TIP3   OH2 9418   2.685   1.647   3.490
 3158TIP3    H1 9419   2.724   1.726   3.452
 3158TIP3    H2 9420   2.744   1.576   3.464
 3159TIP3   OH2 9421   3.403   6.037   1.782
 3159TIP3    H1 9422   3.430   6.121   1.820
 3159TIP3    H2 9423   3.471   6.017   1.718
 3160TIP3   OH2 9424   1.763   0.562   6.540
 3160TIP3    H1 9425   1.820   0.617   6.487
 3160TIP3    H2 9426   1.736   0.618   6.613
 3161TIP3   OH2 9427   6.879   2.369   0.573
 3161TIP3    H1 9428   6.919   2.451   0.544
 3161TIP3    H2 9429   6.878   2.375   0.668
 3162TIP3   OH2 9430   8.040   3.100   1.618
 3162TIP3    H1 9431   8.013   3.185   1.582
 3162TIP3    H2 9432   8.007   3.037   1.555
 3163TIP3   OH2 9433   6.944   7.649   2.381
 3163TIP3    H1 9434   6.959   7.696   2.299
 3163TIP3    H2 9435   6.959   7.715   2.449
 3164TIP3   OH2 9436   3.305   5.015   1.917
 3164TIP3    H1 9437   3.246   4.955   1.962
 3164TIP3    H2 9438   3.392   4.975   1.926
 3165TIP3   OH2 9439   3.735   1.276   4.845
 3165TIP3    H1 9440   3.645   1.304   4.860
 3165TIP3    H2 9441   3.761   1.317   4.763
 3166TIP3   OH2 9442   8.196   6.044   2.454
 3166TIP3    H1 9443   8.158   5.961   2.428
 3166TIP3    H2 9444   8.262   6.021   2.520
 3167TIP3   OH2 9445   3.265   0.847   5.933
 3167TIP3    H1 9446   3.190   0.808   5.978
 3167TIP3    H2 9447   3.227   0.912   5.874
 3168TIP3   OH2 9448   0.868   7.283   2.212
 3168TIP3    H1 9449   0.823   7.200   2.231
 3168TIP3    H2 9450   0.836   7.343   2.279
 3169TIP3   OH2 9451   6.089   6.103   5.853
 3169TIP3    H1 9452   6.100   6.053   5.773
 3169TIP3    H2 9453   6.105   6.040   5.923
 3170TIP3   OH2 9454   0.985   1.385   2.042
 3170TIP3    H1 9455   0.967   1.327   1.968
 3170TIP3    H2 9456   0.935   1.464   2.024
 3171TIP3   OH2 9457   8.092   3.705   3.452
 3171TIP3    H1 9458   8.106   3.782   3.396
 3171TIP3    H2 9459   8.060   3.741   3.535
 3172TIP3   OH2 9460   7.622   4.767   6.687
 3172TIP3    H1 9461   7.682   4.737   6.755
 3172TIP3    H2 9462   7.678   4.784   6.611
 3173TIP3   OH2 9463   0.176   0.956   1.285
 3173TIP3    H1 9464   0.192   1.016   1.212
 3173TIP3    H2 9465   0.135   1.010   1.352
 3174TIP3   OH2 9466   1.480   1.559   0.031
 3174TIP3    H1 9467   1.385   1.572   0.024
 3174TIP3    H2 9468   1.489   1.483   0.087
 3175TIP3   OH2 9469   2.279   5.957   0.686
 3175TIP3    H1 9470   2.279   5.862   0.693
 3175TIP3    H2 9471   2.242   5.988   0.769
 3176TIP3   OH2 9472   1.135   1.658   2.576
 3176TIP3    H1 9473   1.113   1.626   2.489
 3176TIP3    H2 9474   1.115   1.586   2.635
 3177TIP3   OH2 9475   4.789   6.306   0.531
 3177TIP3    H1 9476   4.759   6.361   0.458
 3177TIP3    H2 9477   4.719   6.242   0.544
 3178TIP3   OH2 9478   3.875   6.826   2.234
 3178TIP3    H1 9479   3.935   6.752   2.227
 3178TIP3    H2 9480   3.925   6.901   2.205
 3179TIP3   OH2 9481   5.762   7.382   4.470
 3179TIP3    H1 9482   5.746   7.475   4.455
 3179TIP3    H2 9483   5.727   7.339   4.392
 3180TIP3   OH2 9484   7.650   4.307   2.514
 3180TIP3    H1 9485   7.631   4.286   2.606
 3180TIP3    H2 9486   7.609   4.236   2.464
 3181TIP3   OH2 9487   6.197   0.524   4.098
 3181TIP3    H1 9488   6.273   0.494   4.147
 3181TIP3    H2 9489   6.229   0.539   4.009
 3182TIP3   OH2 9490   3.387   2.022   0.676
 3182TIP3    H1 9491   3.364   1.954   0.613
 3182TIP3    H2 9492   3.379   1.979   0.761
 3183TIP3   OH2 9493   1.475   0.623   4.277
 3183TIP3    H1 9494   1.398   0.569   4.295
 3183TIP3    H2 9495   1.532   0.609   4.353
 3184TIP3   OH2 9496   4.716   7.246   1.433
 3184TIP3    H1 9497   4.667   7.328   1.425
 3184TIP3    H2 9498   4.806   7.270   1.408
 3185TIP3   OH2 9499   7.121   5.300   4.518
 3185TIP3    H1 9500   7.179   5.256   4.581
 3185TIP3    H2 9501   7.173   5.307   4.438
 3186TIP3   OH2 9502   6.117   0.827   5.959
 3186TIP3    H1 9503   6.092   0.740   5.989
 3186TIP3    H2 9504   6.177   0.858   6.027
 3187TIP3   OH2 9505   1.659   5.972   1.375
 3187TIP3    H1 9506   1.720   6.034   1.334
 3187TIP3    H2 9507   1.573   6.011   1.363
 3188TIP3   OH2 9508   3.956   0.977   2.900
 3188TIP3    H1 9509   4.020   0.920   2.857
 3188TIP3    H2 9510   3.923   1.033   2.830
 3189TIP3   OH2 9511   2.785   2.383   2.028
 3189TIP3    H1 9512   2.759   2.423   2.111
 3189TIP3    H2 9513   2.835   2.306   2.054
 3190TIP3   OH2 9514   5.706   6.154   3.675
 3190TIP3    H1 9515   5.677   6.088   3.738
 3190TIP3    H2 9516   5.626   6.202   3.653
 3191TIP3   OH2 9517   4.427   3.592   4.007
 3191TIP3    H1 9518   4.419   3.586   4.103
 3191TIP3    H2 9519   4.492   3.660   3.993
 3192TIP3   OH2 9520   0.860   1.568   3.431
 3192TIP3    H1 9521   0.879   1.502   3.497
 3192TIP3    H2 9522   0.944   1.613   3.417
 3193TIP3   OH2 9523   5.372   2.776   0.582
 3193TIP3    H1 9524   5.459   2.783   0.623
 3193TIP3    H2 9525   5.390   2.752   0.491
 3194TIP3   OH2 9526   2.143   1.715   5.719
 3194TIP3    H1 9527   2.234   1.700   5.693
 3194TIP3    H2 9528   2.107   1.627   5.732
 3195TIP3   OH2 9529   1.541   5.284   5.748
 3195TIP3    H1 9530   1.535   5.335   5.667
 3195TIP3    H2 9531   1.631   5.253   5.750
 3196TIP3   OH2 9532   7.831   4.520   1.052
 3196TIP3    H1 9533   7.846   4.535   0.959
 3196TIP3    H2 9534   7.864   4.432   1.068
 3197TIP3   OH2 9535   6.441   4.540   2.211
 3197TIP3    H1 9536   6.533   4.567   2.218
 3197TIP3    H2 9537   6.396   4.593   2.278
 3198TIP3   OH2 9538   6.491   4.357   0.691
 3198TIP3    H1 9539   6.398   4.347   0.711
 3198TIP3    H2 9540   6.505   4.304   0.612
 3199TIP3   OH2 9541   3.136   5.114   0.646
 3199TIP3    H1 9542   3.103   5.099   0.557
 3199TIP3    H2 9543   3.100   5.199   0.671
 3200TIP3   OH2 9544   8.093   3.853   3.928
 3200TIP3    H1 9545   8.119   3.945   3.936
 3200TIP3    H2 9546   7.999   3.854   3.942
 3201TIP3   OH2 9547   2.701   0.788   2.924
 3201TIP3    H1 9548   2.607   0.786   2.908
 3201TIP3    H2 9549   2.737   0.840   2.852
 3202TIP3   OH2 9550   2.563   6.041   3.189
 3202TIP3    H1 9551   2.488   6.098   3.204
 3202TIP3    H2 9552   2.639   6.096   3.206
 3203TIP3   OH2 9553   3.932   7.647   3.950
 3203TIP3    H1 9554   3.925   7.742   3.957
 3203TIP3    H2 9555   3.865   7.623   3.886
 3204TIP3   OH2 9556   7.999   3.752   6.649
 3204TIP3    H1 9557   8.060   3.824   6.668
 3204TIP3    H2 9558   8.033   3.713   6.568
 3205TIP3   OH2 9559   2.178   5.764   0.454
 3205TIP3    H1 9560   2.099   5.729   0.496
 3205TIP3    H2 9561   2.233   5.791   0.527
 3206TIP3   OH2 9562   2.627   5.667   1.005
 3206TIP3    H1 9563   2.660   5.591   1.053
 3206TIP3    H2 9564   2.608   5.731   1.073
 3207TIP3   OH2 9565   6.873   1.358   1.906
 3207TIP3    H1 9566   6.925   1.439   1.902
 3207TIP3    H2 9567   6.929   1.297   1.954
 3208TIP3   OH2 9568   3.060   1.971   1.941
 3208TIP3    H1 9569   2.978   1.930   1.914
 3208TIP3    H2 9570   3.103   1.996   1.859
 3209TIP3   OH2 9571   7.846   3.915   4.843
 3209TIP3    H1 9572   7.867   3.836   4.892
 3209TIP3    H2 9573   7.898   3.984   4.884
 3210TIP3   OH2 9574   3.585   6.977   6.142
 3210TIP3    H1 9575   3.564   7.006   6.231
 3210TIP3    H2 9576   3.584   6.882   6.147
 3211TIP3   OH2 9577   5.973   2.871   0.800
 3211TIP3    H1 9578   5.898   2.900   0.852
 3211TIP3    H2 9579   5.984   2.778   0.824
 3212TIP3   OH2 9580   1.801   7.336   1.951
 3212TIP3    H1 9581   1.877   7.297   1.993
 3212TIP3    H2 9582   1.728   7.315   2.009
 3213TIP3   OH2 9583   8.067   4.024   0.819
 3213TIP3    H1 9584   8.074   3.935   0.853
 3213TIP3    H2 9585   8.045   4.013   0.727
 3214TIP3   OH2 9586   1.914   5.555   2.182
 3214TIP3    H1 9587   1.921   5.464   2.152
 3214TIP3    H2 9588   1.994   5.569   2.233
 3215TIP3   OH2 9589   7.071   7.546   0.354
 3215TIP3    H1 9590   7.002   7.591   0.403
 3215TIP3    H2 9591   7.150   7.557   0.408
 3216TIP3   OH2 9592   3.649   6.142   4.051
 3216TIP3    H1 9593   3.622   6.152   4.142
 3216TIP3    H2 9594   3.568   6.134   4.002
 3217TIP3   OH2 9595   6.209   4.746   1.340
 3217TIP3    H1 9596   6.228   4.653   1.327
 3217TIP3    H2 9597   6.292   4.784   1.367
 3218TIP3   OH2 9598   0.802   5.383   0.208
 3218TIP3    H1 9599   0.818   5.379   0.302
 3218TIP3    H2 9600   0.714   5.346   0.196
 3219TIP3   OH2 9601   4.646   1.867   3.269
 3219TIP3    H1 9602   4.561   1.899   3.298
 3219TIP3    H2 9603   4.696   1.947   3.251
 3220TIP3   OH2 9604   4.562   0.936   3.087
 3220TIP3    H1 9605   4.490   0.926   3.025
 3220TIP3    H2 9606   4.634   0.887   3.048
 3221TIP3   OH2 9607   6.110   6.170   2.774
 3221TIP3    H1 9608   6.110   6.081   2.739
 3221TIP3    H2 9609   6.122   6.160   2.868
 3222TIP3   OH2 9610   7.421   6.234   5.462
 3222TIP3    H1 9611   7.333   6.201   5.483
 3222TIP3    H2 9612   7.411   6.275   5.377
 3223TIP3   OH2 9613   0.340   0.906   4.947
 3223TIP3    H1 9614   0.249   0.928   4.929
 3223TIP3    H2 9615   0.336   0.819   4.988
 3224TIP3   OH2 9616   5.317   3.825   0.501
 3224TIP3    H1 9617   5.372   3.831   0.579
 3224TIP3    H2 9618   5.367   3.770   0.441
 3225TIP3   OH2 9619   4.783   4.811   4.609
 3225TIP3    H1 9620   4.849   4.879   4.600
 3225TIP3    H2 9621   4.832   4.732   4.634
 3226TIP3   OH2 9622   3.481   5.180   3.981
 3226TIP3    H1 9623   3.531   5.176   4.063
 3226TIP3    H2 9624   3.544   5.211   3.916
 3227TIP3   OH2 9625   7.139   0.231   3.669
 3227TIP3    H1 9626   7.068   0.281   3.628
 3227TIP3    H2 9627   7.099   0.193   3.747
 3228TIP3   OH2 9628   0.277   3.547   0.478
 3228TIP3    H1 9629   0.235   3.633   0.475
 3228TIP3    H2 9630   0.255   3.506   0.395
 3229TIP3   OH2 9631   7.731   6.340   0.394
 3229TIP3    H1 9632   7.710   6.279   0.323
 3229TIP3    H2 9633   7.733   6.426   0.352
 3230TIP3   OH2 9634   5.781   1.278   2.887
 3230TIP3    H1 9635   5.759   1.217   2.816
 3230TIP3    H2 9636   5.731   1.357   2.866
 3231TIP3   OH2 9637   1.073   7.163   5.148
 3231TIP3    H1 9638   0.998   7.143   5.204
 3231TIP3    H2 9639   1.121   7.081   5.142
 3232TIP3   OH2 9640   5.681   5.056   5.684
 3232TIP3    H1 9641   5.607   5.115   5.699
 3232TIP3    H2 9642   5.660   4.978   5.737
 3233TIP3   OH2 9643   7.556   6.470   6.305
 3233TIP3    H1 9644   7.572   6.508   6.392
 3233TIP3    H2 9645   7.484   6.407   6.320
 3234TIP3   OH2 9646   1.410   6.372   6.333
 3234TIP3    H1 9647   1.447   6.331   6.254
 3234TIP3    H2 9648   1.411   6.302   6.398
 3235TIP3   OH2 9649   0.495   4.698   2.829
 3235TIP3    H1 9650   0.472   4.634   2.761
 3235TIP3    H2 9651   0.447   4.669   2.906
 3236TIP3   OH2 9652   1.316   2.800   3.296
 3236TIP3    H1 9653   1.307   2.773   3.387
 3236TIP3    H2 9654   1.236   2.851   3.279
 3237TIP3   OH2 9655   3.759   0.570   0.479
 3237TIP3    H1 9656   3.849   0.538   0.483
 3237TIP3    H2 9657   3.723   0.529   0.400
 3238TIP3   OH2 9658   5.725   3.957   5.992
 3238TIP3    H1 9659   5.803   3.913   6.025
 3238TIP3    H2 9660   5.674   3.887   5.950
 3239TIP3   OH2 9661   7.246   4.441   1.045
 3239TIP3    H1 9662   7.325   4.456   1.097
 3239TIP3    H2 9663   7.271   4.371   0.984
 3240TIP3   OH2 9664   5.114   7.631   0.396
 3240TIP3    H1 9665   5.147   7.720   0.410
 3240TIP3    H2 9666   5.059   7.613   0.472
 3241TIP3   OH2 9667   1.471   4.071   1.818
 3241TIP3    H1 9668   1.554   4.049   1.859
 3241TIP3    H2 9669   1.454   4.000   1.757
 3242TIP3   OH2 9670   1.674   3.607   2.214
 3242TIP3    H1 9671   1.659   3.676   2.150
 3242TIP3    H2 9672   1.738   3.550   2.173
 3243TIP3   OH2 9673   1.877   3.874   5.904
 3243TIP3    H1 9674   1.873   3.801   5.843
 3243TIP3    H2 9675   1.840   3.948   5.856
 3244TIP3   OH2 9676   1.747   0.868   3.981
 3244TIP3    H1 9677   1.687   0.934   3.947
 3244TIP3    H2 9678   1.820   0.868   3.919
 3245TIP3   OH2 9679   2.842   5.549   3.724
 3245TIP3    H1 9680   2.921   5.536   3.672
 3245TIP3    H2 9681   2.874   5.573   3.811
 3246TIP3   OH2 9682   0.223   0.774   2.785
 3246TIP3    H1 9683   0.151   0.726   2.744
 3246TIP3    H2 9684   0.204   0.770   2.879
 3247TIP3   OH2 9685   0.507   0.838   2.899
 3247TIP3    H1 9686   0.452   0.910   2.931
 3247TIP3    H2 9687   0.446   0.776   2.859
 3248TIP3   OH2 9688   8.165   5.974   3.925
 3248TIP3    H1 9689   8.093   6.005   3.870
 3248TIP3    H2 9690   8.236   6.037   3.909
 3249TIP3   OH2 9691   7.338  -0.023   5.685
 3249TIP3    H1 9692   7.411   0.025   5.646
 3249TIP3    H2 9693   7.307   0.034   5.756
 3250TIP3   OH2 9694   4.564   0.517   3.520
 3250TIP3    H1 9695   4.579   0.517   3.425
 3250TIP3    H2 9696   4.640   0.563   3.556
 3251TIP3   OH2 9697   7.651   6.743   3.119
 3251TIP3    H1 9698   7.676   6.692   3.042
 3251TIP3    H2 9699   7.702   6.705   3.190
 3252TIP3   OH2 9700   2.865   3.798   0.271
 3252TIP3    H1 9701   2.860   3.702   0.270
 3252TIP3    H2 9702   2.948   3.818   0.314
 3253TIP3   OH2 9703   3.182   1.561   0.263
 3253TIP3    H1 9704   3.191   1.655   0.253
 3253TIP3    H2 9705   3.123   1.534   0.192
 3254TIP3   OH2 9706   5.040   4.428   2.791
 3254TIP3    H1 9707   4.948   4.428   2.765
 3254TIP3    H2 9708   5.065   4.336   2.790
 3255TIP3   OH2 9709   5.124   7.091   4.795
 3255TIP3    H1 9710   5.192   7.159   4.789
 3255TIP3    H2 9711   5.118   7.057   4.706
 3256TIP3   OH2 9712   4.951   7.648   0.675
 3256TIP3    H1 9713   4.996   7.731   0.692
 3256TIP3    H2 9714   4.878   7.646   0.737
 3257TIP3   OH2 9715   1.482   5.598   4.840
 3257TIP3    H1 9716   1.425   5.666   4.804
 3257TIP3    H2 9717   1.559   5.646   4.870
 3258TIP3   OH2 9718   4.465   3.126   6.205
 3258TIP3    H1 9719   4.442   3.218   6.221
 3258TIP3    H2 9720   4.403   3.098   6.138
 3259TIP3   OH2 9721   7.499   0.166   5.169
 3259TIP3    H1 9722   7.579   0.116   5.185
 3259TIP3    H2 9723   7.530   0.256   5.157
 3260TIP3   OH2 9724   2.097   4.617   2.461
 3260TIP3    H1 9725   2.153   4.683   2.502
 3260TIP3    H2 9726   2.155   4.571   2.400
 3261TIP3   OH2 9727   4.800   4.199   0.622
 3261TIP3    H1 9728   4.768   4.231   0.537
 3261TIP3    H2 9729   4.894   4.190   0.610
 3262TIP3   OH2 9730   6.256   5.164   1.374
 3262TIP3    H1 9731   6.275   5.257   1.380
 3262TIP3    H2 9732   6.282   5.128   1.458
 3263TIP3   OH2 9733   6.829   2.602   2.458
 3263TIP3    H1 9734   6.872   2.610   2.373
 3263TIP3    H2 9735   6.773   2.525   2.449
 3264TIP3   OH2 9736   4.213   6.205   6.312
 3264TIP3    H1 9737   4.210   6.134   6.377
 3264TIP3    H2 9738   4.306   6.226   6.304
 3265TIP3   OH2 9739   7.561   2.732   5.100
 3265TIP3    H1 9740   7.612   2.656   5.070
 3265TIP3    H2 9741   7.617   2.774   5.166
 3266TIP3   OH2 9742   7.971   7.793   0.810
 3266TIP3    H1 9743   8.001   7.705   0.837
 3266TIP3    H2 9744   7.879   7.796   0.836
 3267TIP3   OH2 9745   7.169   4.727   0.331
 3267TIP3    H1 9746   7.091   4.768   0.367
 3267TIP3    H2 9747   7.153   4.633   0.338
 3268TIP3   OH2 9748   6.169   3.089   4.679
 3268TIP3    H1 9749   6.173   3.184   4.691
 3268TIP3    H2 9750   6.096   3.075   4.620
 3269TIP3   OH2 9751   5.673   6.044   2.906
 3269TIP3    H1 9752   5.595   5.991   2.919
 3269TIP3    H2 9753   5.742   5.998   2.953
 3270TIP3   OH2 9754   4.898   5.002   5.231
 3270TIP3    H1 9755   4.922   5.050   5.310
 3270TIP3    H2 9756   4.882   4.913   5.260
 3271TIP3   OH2 9757   7.764   7.021   3.492
 3271TIP3    H1 9758   7.738   6.936   3.528
 3271TIP3    H2 9759   7.682   7.060   3.463
 3272TIP3   OH2 9760   1.643   2.380   5.966
 3272TIP3    H1 9761   1.598   2.464   5.969
 3272TIP3    H2 9762   1.735   2.401   5.953
 3273TIP3   OH2 9763   5.232   3.421   4.778
 3273TIP3    H1 9764   5.270   3.381   4.700
 3273TIP3    H2 9765   5.152   3.463   4.746
 3274TIP3   OH2 9766   8.217   1.764   6.400
 3274TIP3    H1 9767   8.275   1.824   6.449
 3274TIP3    H2 9768   8.230   1.787   6.309
 3275TIP3   OH2 9769   7.091   1.706   6.148
 3275TIP3    H1 9770   7.128   1.750   6.225
 3275TIP3    H2 9771   7.133   1.749   6.074
 3276TIP3   OH2 9772   2.269   2.106   5.882
 3276TIP3    H1 9773   2.179   2.135   5.874
 3276TIP3    H2 9774   2.274   2.063   5.968
 3277TIP3   OH2 9775   4.588   1.074   1.972
 3277TIP3    H1 9776   4.606   1.139   1.904
 3277TIP3    H2 9777   4.554   0.998   1.924
 3278TIP3   OH2 9778   4.427   7.567   3.907
 3278TIP3    H1 9779   4.411   7.576   3.813
 3278TIP3    H2 9780   4.450   7.656   3.936
 3279TIP3   OH2 9781   3.453   2.993   2.838
 3279TIP3    H1 9782   3.429   3.085   2.850
 3279TIP3    H2 9783   3.549   2.994   2.835
 3280TIP3   OH2 9784   3.012   7.610   2.361
 3280TIP3    H1 9785   2.962   7.547   2.310
 3280TIP3    H2 9786   3.048   7.559   2.434
 3281TIP3   OH2 9787   3.935   4.065   4.296
 3281TIP3    H1 9788   3.885   3.990   4.266
 3281TIP3    H2 9789   4.023   4.031   4.313
 3282TIP3   OH2 9790   5.359   3.016   4.661
 3282TIP3    H1 9791   5.357   2.943   4.723
 3282TIP3    H2 9792   5.365   2.975   4.575
 3283TIP3   OH2 9793   1.120   4.777   3.547
 3283TIP3    H1 9794   1.068   4.743   3.621
 3283TIP3    H2 9795   1.200   4.724   3.547
 3284TIP3   OH2 9796   0.757   0.962   3.011
 3284TIP3    H1 9797   0.696   0.910   2.958
 3284TIP3    H2 9798   0.835   0.971   2.956
 3285TIP3   OH2 9799   2.580   5.536   1.432
 3285TIP3    H1 9800   2.618   5.511   1.348
 3285TIP3    H2 9801   2.533   5.458   1.461
 3286TIP3   OH2 9802   3.938   4.542   4.797
 3286TIP3    H1 9803   3.913   4.532   4.889
 3286TIP3    H2 9804   3.998   4.616   4.797
 3287TIP3   OH2 9805   4.089   6.057   1.389
 3287TIP3    H1 9806   4.091   5.980   1.333
 3287TIP3    H2 9807   4.146   6.035   1.462
 3288TIP3   OH2 9808   7.139   1.473   6.705
 3288TIP3    H1 9809   7.213   1.483   6.645
 3288TIP3    H2 9810   7.145   1.382   6.735
 3289TIP3   OH2 9811   7.598   0.739   5.305
 3289TIP3    H1 9812   7.640   0.663   5.264
 3289TIP3    H2 9813   7.505   0.728   5.285
 3290TIP3   OH2 9814   1.216   5.893   1.654
 3290TIP3    H1 9815   1.210   5.817   1.711
 3290TIP3    H2 9816   1.271   5.955   1.702
 3291TIP3   OH2 9817   1.180   2.330   4.635
 3291TIP3    H1 9818   1.113   2.388   4.671
 3291TIP3    H2 9819   1.176   2.345   4.540
 3292TIP3   OH2 9820   6.431   2.452   1.123
 3292TIP3    H1 9821   6.470   2.386   1.180
 3292TIP3    H2 9822   6.351   2.480   1.169
 3293TIP3   OH2 9823   5.575   6.297   1.975
 3293TIP3    H1 9824   5.593   6.295   1.881
 3293TIP3    H2 9825   5.627   6.370   2.008
 3294TIP3   OH2 9826   0.610   0.525   5.325
 3294TIP3    H1 9827   0.606   0.456   5.391
 3294TIP3    H2 9828   0.571   0.601   5.368
 3295TIP3   OH2 9829   1.475   6.939   1.397
 3295TIP3    H1 9830   1.467   6.852   1.436
 3295TIP3    H2 9831   1.439   6.929   1.309
 3296TIP3   OH2 9832   6.217   6.094   6.302
 3296TIP3    H1 9833   6.305   6.118   6.273
 3296TIP3    H2 9834   6.229   6.062   6.392
 3297TIP3   OH2 9835   7.635   5.469   2.686
 3297TIP3    H1 9836   7.652   5.550   2.734
 3297TIP3    H2 9837   7.671   5.400   2.741
 3298TIP3   OH2 9838   0.250   7.227   5.133
 3298TIP3    H1 9839   0.219   7.178   5.209
 3298TIP3    H2 9840   0.223   7.317   5.149
 3299TIP3   OH2 9841   1.059   3.124   2.898
 3299TIP3    H1 9842   1.107   3.041   2.903
 3299TIP3    H2 9843   0.967   3.099   2.904
 3300TIP3   OH2 9844   0.259   0.391   2.809
 3300TIP3    H1 9845   0.292   0.301   2.817
 3300TIP3    H2 9846   0.315   0.431   2.743
 3301TIP3   OH2 9847   2.860   0.812   2.069
 3301TIP3    H1 9848   2.920   0.872   2.112
 3301TIP3    H2 9849   2.913   0.771   2.000
 3302TIP3   OH2 9850   7.891   0.753   1.609
 3302TIP3    H1 9851   7.801   0.769   1.636
 3302TIP3    H2 9852   7.886   0.747   1.513
 3303TIP3   OH2 9853   1.986   5.942   6.510
 3303TIP3    H1 9854   1.945   5.960   6.426
 3303TIP3    H2 9855   1.913   5.930   6.571
 3304TIP3   OH2 9856   5.821  -0.013   1.592
 3304TIP3    H1 9857   5.905   0.011   1.632
 3304TIP3    H2 9858   5.770   0.068   1.592
 3305TIP3   OH2 9859   4.108   2.319   5.871
 3305TIP3    H1 9860   4.068   2.276   5.947
 3305TIP3    H2 9861   4.037   2.369   5.831
 3306TIP3   OH2 9862   5.978   3.471   1.877
 3306TIP3    H1 9863   5.961   3.565   1.870
 3306TIP3    H2 9864   5.922   3.442   1.949
 3307TIP3   OH2 9865   3.244   4.817   1.457
 3307TIP3    H1 9866   3.241   4.738   1.511
 3307TIP3    H2 9867   3.233   4.786   1.367
 3308TIP3   OH2 9868   7.660   0.243   4.195
 3308TIP3    H1 9869   7.615   0.191   4.128
 3308TIP3    H2 9870   7.591   0.264   4.258
 3309TIP3   OH2 9871   5.585   1.586   4.504
 3309TIP3    H1 9872   5.559   1.624   4.588
 3309TIP3    H2 9873   5.663   1.534   4.523
 3310TIP3   OH2 9874   1.771   5.449   3.025
 3310TIP3    H1 9875   1.721   5.396   3.087
 3310TIP3    H2 9876   1.817   5.386   2.971
 3311TIP3   OH2 9877   2.414   2.500   5.762
 3311TIP3    H1 9878   2.507   2.501   5.740
 3311TIP3    H2 9879   2.377   2.571   5.710
 3312TIP3   OH2 9880   6.278   0.148   4.821
 3312TIP3    H1 9881   6.344   0.155   4.889
 3312TIP3    H2 9882   6.199   0.119   4.867
 3313TIP3   OH2 9883   5.546   4.890   1.407
 3313TIP3    H1 9884   5.455   4.869   1.430
 3313TIP3    H2 9885   5.539   4.958   1.341
 3314TIP3   OH2 9886   0.780   1.316   0.106
 3314TIP3    H1 9887   0.748   1.304   0.195
 3314TIP3    H2 9888   0.843   1.245   0.093
 3315TIP3   OH2 9889   6.920   4.543   2.641
 3315TIP3    H1 9890   6.937   4.629   2.681
 3315TIP3    H2 9891   6.825   4.540   2.631
 3316TIP3   OH2 9892   0.566   4.472   3.289
 3316TIP3    H1 9893   0.583   4.434   3.375
 3316TIP3    H2 9894   0.511   4.548   3.307
 3317TIP3   OH2 9895   5.861   3.579   2.565
 3317TIP3    H1 9896   5.857   3.633   2.644
 3317TIP3    H2 9897   5.885   3.492   2.597
 3318TIP3   OH2 9898   0.334   0.398   4.324
 3318TIP3    H1 9899   0.401   0.375   4.260
 3318TIP3    H2 9900   0.275   0.323   4.326
 3319TIP3   OH2 9901   5.488   2.186   3.103
 3319TIP3    H1 9902   5.484   2.216   3.012
 3319TIP3    H2 9903   5.466   2.093   3.099
 3320TIP3   OH2 9904   1.864   1.449   5.081
 3320TIP3    H1 9905   1.798   1.462   5.149
 3320TIP3    H2 9906   1.907   1.368   5.104
 3321TIP3   OH2 9907   7.278   7.809  -0.009
 3321TIP3    H1 9908   7.328   7.772   0.065
 3321TIP3    H2 9909   7.263   7.900   0.016
 3322TIP3   OH2 9910   6.934   0.310   1.336
 3322TIP3    H1 9911   6.843   0.298   1.363
 3322TIP3    H2 9912   6.982   0.242   1.382
 3323TIP3   OH2 9913   6.346   1.969   3.230
 3323TIP3    H1 9914   6.272   1.916   3.200
 3323TIP3    H2 9915   6.305   2.042   3.277
 3324TIP3   OH2 9916   1.695   5.121   2.535
 3324TIP3    H1 9917   1.682   5.090   2.445
 3324TIP3    H2 9918   1.722   5.213   2.524
 3325TIP3   OH2 9919   5.764   7.785   6.085
 3325TIP3    H1 9920   5.810   7.707   6.054
 3325TIP3    H2 9921   5.830   7.834   6.135
 3326TIP3   OH2 9922   3.688   4.470   2.392
 3326TIP3    H1 9923   3.657   4.446   2.479
 3326TIP3    H2 9924   3.784   4.466   2.399
 3327TIP3   OH2 9925   0.530   4.945   3.242
 3327TIP3    H1 9926   0.580   4.937   3.323
 3327TIP3    H2 9927   0.596   4.967   3.176
 3328TIP3   OH2 9928   4.575   6.234   0.709
 3328TIP3    H1 9929   4.517   6.288   0.655
 3328TIP3    H2 9930   4.615   6.296   0.770
 3329TIP3   OH2 9931   7.727   7.811   5.636
 3329TIP3    H1 9932   7.642   7.776   5.663
 3329TIP3    H2 9933   7.777   7.818   5.717
 3330TIP3   OH2 9934   7.680   4.997   3.873
 3330TIP3    H1 9935   7.670   4.983   3.967
 3330TIP3    H2 9936   7.604   4.953   3.834
 3331TIP3   OH2 9937   1.780   4.380   2.761
 3331TIP3    H1 9938   1.740   4.460   2.796
 3331TIP3    H2 9939   1.866   4.408   2.729
 3332TIP3   OH2 9940   0.223   2.051   4.400
 3332TIP3    H1 9941   0.250   1.997   4.474
 3332TIP3    H2 9942   0.162   2.115   4.438
 3333TIP3   OH2 9943   2.836   7.693   6.033
 3333TIP3    H1 9944   2.931   7.688   6.025
 3333TIP3    H2 9945   2.808   7.742   5.956
 3334TIP3   OH2 9946   4.661   4.687   3.614
 3334TIP3    H1 9947   4.741   4.637   3.594
 3334TIP3    H2 9948   4.686   4.743   3.688
 3335TIP3   OH2 9949   6.840   2.069   6.601
 3335TIP3    H1 9950   6.818   2.078   6.694
 3335TIP3    H2 9951   6.932   2.095   6.596
 3336TIP3   OH2 9952   3.187   6.113   0.134
 3336TIP3    H1 9953   3.127   6.088   0.205
 3336TIP3    H2 9954   3.164   6.054   0.062
 3337TIP3   OH2 9955   4.048   1.203   4.620
 3337TIP3    H1 9956   4.131   1.246   4.600
 3337TIP3    H2 9957   4.031   1.147   4.544
 3338TIP3   OH2 9958   3.855   1.721   0.962
 3338TIP3    H1 9959   3.866   1.808   0.999
 3338TIP3    H2 9960   3.900   1.724   0.878
 3339TIP3   OH2 9961   6.558   1.572   5.892
 3339TIP3    H1 9962   6.515   1.643   5.846
 3339TIP3    H2 9963   6.635   1.612   5.932
 3340TIP3   OH2 9964   4.073   0.279   2.458
 3340TIP3    H1 9965   4.100   0.272   2.549
 3340TIP3    H2 9966   4.151   0.313   2.413
 3341TIP3   OH2 9967   2.139   2.954   6.459
 3341TIP3    H1 9968   2.137   2.928   6.367
 3341TIP3    H2 9969   2.210   2.902   6.497
 3342TIP3   OH2 9970   4.931   4.707   3.668
 3342TIP3    H1 9971   5.006   4.727   3.612
 3342TIP3    H2 9972   4.942   4.763   3.745
 3343TIP3   OH2 9973   3.409   4.163   0.856
 3343TIP3    H1 9974   3.344   4.207   0.910
 3343TIP3    H2 9975   3.451   4.100   0.915
 3344TIP3   OH2 9976   1.539   7.615   0.957
 3344TIP3    H1 9977   1.447   7.619   0.931
 3344TIP3    H2 9978   1.554   7.696   1.006
 3345TIP3   OH2 9979   7.773   2.794   0.832
 3345TIP3    H1 9980   7.794   2.811   0.740
 3345TIP3    H2 9981   7.681   2.766   0.831
 3346TIP3   OH2 9982   4.216   5.091   5.741
 3346TIP3    H1 9983   4.194   5.169   5.792
 3346TIP3    H2 9984   4.238   5.125   5.654
 3347TIP3   OH2 9985   2.227   6.391   1.532
 3347TIP3    H1 9986   2.297   6.406   1.468
 3347TIP3    H2 9987   2.218   6.475   1.577
 3348TIP3   OH2 9988   4.197   3.518   2.820
 3348TIP3    H1 9989   4.275   3.470   2.848
 3348TIP3    H2 9990   4.124   3.459   2.839
 3349TIP3   OH2 9991   4.165   4.557   0.275
 3349TIP3    H1 9992   4.229   4.621   0.243
 3349TIP3    H2 9993   4.171   4.565   0.371
 3350TIP3   OH2 9994   5.449   6.626   3.858
 3350TIP3    H1 9995   5.494   6.705   3.828
 3350TIP3    H2 9996   5.369   6.658   3.898
 3351TIP3   OH2 9997   3.726   4.093   0.315
 3351TIP3    H1 9998   3.660   4.088   0.245
 3351TIP3    H2 9999   3.725   4.184   0.342
 3352TIP3   OH210000   7.429   1.917   3.328
 3352TIP3    H110001   7.512   1.885   3.292
 3352TIP3    H210002   7.381   1.838   3.351
 3353TIP3   OH210003   7.538   4.806   4.545
 3353TIP3    H110004   7.573   4.768   4.465
 3353TIP3    H210005   7.454   4.762   4.558
 3354TIP3   OH210006   4.993   7.390   1.563
 3354TIP3    H110007   5.042   7.472   1.556
 3354TIP3    H210008   4.978   7.363   1.472
 3355TIP3   OH210009   2.851   4.589   4.356
 3355TIP3    H110010   2.943   4.611   4.342
 3355TIP3    H210011   2.816   4.663   4.407
 3356TIP3   OH210012   1.185   1.243   4.871
 3356TIP3    H110013   1.274   1.279   4.872
 3356TIP3    H210014   1.166   1.228   4.779
 3357TIP3   OH210015   6.691   2.613   2.989
 3357TIP3    H110016   6.651   2.700   2.987
 3357TIP3    H210017   6.739   2.607   2.906
 3358TIP3   OH210018   7.702   5.554   2.436
 3358TIP3    H110019   7.790   5.528   2.411
 3358TIP3    H210020   7.694   5.530   2.528
 3359TIP3   OH210021   3.059   5.662   5.516
 3359TIP3    H110022   3.117   5.648   5.590
 3359TIP3    H210023   3.118   5.676   5.441
 3360TIP3   OH210024   6.348   6.174   2.548
 3360TIP3    H110025   6.306   6.095   2.581
 3360TIP3    H210026   6.283   6.213   2.490
 3361TIP3   OH210027   2.339   0.253   1.010
 3361TIP3    H110028   2.278   0.190   0.971
 3361TIP3    H210029   2.417   0.247   0.955
 3362TIP3   OH210030   7.062   3.372   3.811
 3362TIP3    H110031   7.038   3.465   3.811
 3362TIP3    H210032   6.979   3.327   3.829
 3363TIP3   OH210033   2.936   3.352   0.733
 3363TIP3    H110034   2.912   3.319   0.647
 3363TIP3    H210035   3.026   3.322   0.747
 3364TIP3   OH210036   7.290   6.436   4.287
 3364TIP3    H110037   7.385   6.427   4.292
 3364TIP3    H210038   7.263   6.445   4.379
 3365TIP3   OH210039   6.973   4.618   0.115
 3365TIP3    H110040   6.938   4.698   0.153
 3365TIP3    H210041   6.941   4.548   0.172
 3366TIP3   OH210042   4.323   7.312   6.764
 3366TIP3    H110043   4.397   7.331   6.706
 3366TIP3    H210044   4.260   7.382   6.744
 3367TIP3   OH210045   1.324   7.265   1.249
 3367TIP3    H110046   1.399   7.274   1.308
 3367TIP3    H210047   1.362   7.246   1.164
 3368TIP3   OH210048   4.990   0.152   4.493
 3368TIP3    H110049   4.977   0.236   4.450
 3368TIP3    H210050   4.946   0.160   4.578
 3369TIP3   OH210051   6.876   4.631   4.689
 3369TIP3    H110052   6.906   4.544   4.662
 3369TIP3    H210053   6.782   4.622   4.702
 3370TIP3   OH210054   3.507   5.876   5.624
 3370TIP3    H110055   3.511   5.824   5.704
 3370TIP3    H210056   3.532   5.816   5.554
 3371TIP3   OH210057   3.158   3.574   1.620
 3371TIP3    H110058   3.131   3.659   1.657
 3371TIP3    H210059   3.109   3.566   1.539
 3372TIP3   OH210060   2.191   4.767   5.943
 3372TIP3    H110061   2.282   4.759   5.912
 3372TIP3    H210062   2.150   4.685   5.918
 3373TIP3   OH210063   6.060   2.675   1.931
 3373TIP3    H110064   6.049   2.767   1.955
 3373TIP3    H210065   5.979   2.633   1.960
 3374TIP3   OH210066   0.045   5.269   3.980
 3374TIP3    H110067   0.024   5.180   4.009
 3374TIP3    H210068   0.125   5.292   4.027
 3375TIP3   OH210069   7.176   3.489   5.639
 3375TIP3    H110070   7.197   3.448   5.723
 3375TIP3    H210071   7.082   3.477   5.630
 3376TIP3   OH210072   0.408   5.489   6.518
 3376TIP3    H110073   0.333   5.506   6.461
 3376TIP3    H210074   0.395   5.399   6.549
 3377TIP3   OH210075   2.743   0.316   3.689
 3377TIP3    H110076   2.838   0.316   3.679
 3377TIP3    H210077   2.728   0.310   3.783
 3378TIP3   OH210078   4.956   6.452   0.289
 3378TIP3    H110079   4.983   6.382   0.348
 3378TIP3    H210080   4.978   6.420   0.201
 3379TIP3   OH210081   2.269   1.129   6.076
 3379TIP3    H110082   2.357   1.162   6.059
 3379TIP3    H210083   2.211   1.201   6.052
 3380TIP3   OH210084   4.862   4.630   0.541
 3380TIP3    H110085   4.884   4.569   0.612
 3380TIP3    H210086   4.930   4.615   0.475
 3381TIP3   OH210087   1.745   5.623   2.395
 3381TIP3    H110088   1.800   5.595   2.322
 3381TIP3    H210089   1.802   5.678   2.449
 3382TIP3   OH210090   2.818   0.676   3.838
 3382TIP3    H110091   2.734   0.660   3.881
 3382TIP3    H210092   2.882   0.676   3.909
 3383TIP3   OH210093   7.109   0.506   6.661
 3383TIP3    H110094   7.078   0.574   6.601
 3383TIP3    H210095   7.157   0.554   6.728
 3384TIP3   OH210096   4.596   2.138   3.484
 3384TIP3    H110097   4.656   2.209   3.505
 3384TIP3    H210098   4.563   2.160   3.397
 3385TIP3   OH210099   2.252   7.658   5.673
 3385TIP3    H110100   2.333   7.699   5.642
 3385TIP3    H210101   2.279   7.570   5.700
 3386TIP3   OH210102   6.957   5.303   6.606
 3386TIP3    H110103   6.901   5.266   6.538
 3386TIP3    H210104   6.988   5.228   6.656
 3387TIP3   OH210105   0.227   4.764   0.741
 3387TIP3    H110106   0.150   4.819   0.728
 3387TIP3    H210107   0.274   4.807   0.813
 3388TIP3   OH210108   1.305   4.592   3.614
 3388TIP3    H110109   1.340   4.530   3.550
 3388TIP3    H210110   1.382   4.640   3.645
 3389TIP3   OH210111   2.408   5.310   3.570
 3389TIP3    H110112   2.453   5.331   3.488
 3389TIP3    H210113   2.355   5.233   3.550
 3390TIP3   OH210114   0.480   6.537   1.307
 3390TIP3    H110115   0.536   6.566   1.379
 3390TIP3    H210116   0.414   6.606   1.297
 3391TIP3   OH210117   1.178   4.616   6.363
 3391TIP3    H110118   1.158   4.554   6.293
 3391TIP3    H210119   1.267   4.646   6.344
 3392TIP3   OH210120   1.906   0.713   3.133
 3392TIP3    H110121   1.916   0.618   3.135
 3392TIP3    H210122   1.942   0.739   3.048
 3393TIP3   OH210123   1.931   2.775   6.594
 3393TIP3    H110124   1.988   2.753   6.667
 3393TIP3    H210125   1.988   2.821   6.532
 3394TIP3   OH210126   7.687   2.984   1.094
 3394TIP3    H110127   7.643   3.043   1.155
 3394TIP3    H210128   7.675   2.897   1.131
 3395TIP3   OH210129   2.120   5.451   0.333
 3395TIP3    H110130   2.035   5.408   0.331
 3395TIP3    H210131   2.106   5.535   0.289
 3396TIP3   OH210132   2.046   0.463   4.909
 3396TIP3    H110133   2.067   0.369   4.905
 3396TIP3    H210134   2.085   0.492   4.991
 3397TIP3   OH210135   0.265   6.695   1.441
 3397TIP3    H110136   0.213   6.701   1.361
 3397TIP3    H210137   0.265   6.784   1.476
 3398TIP3   OH210138   4.650   2.793   3.189
 3398TIP3    H110139   4.653   2.706   3.150
 3398TIP3    H210140   4.575   2.790   3.248
 3399TIP3   OH210141   2.737   6.578   4.676
 3399TIP3    H110142   2.715   6.549   4.588
 3399TIP3    H210143   2.832   6.566   4.683
 3400TIP3   OH210144   6.730   5.494   4.299
 3400TIP3    H110145   6.739   5.495   4.394
 3400TIP3    H210146   6.714   5.585   4.275
 3401TIP3   OH210147   1.831   1.972   0.284
 3401TIP3    H110148   1.841   1.880   0.260
 3401TIP3    H210149   1.815   2.016   0.201
 3402TIP3   OH210150   3.982   0.125   4.233
 3402TIP3    H110151   3.891   0.154   4.230
 3402TIP3    H210152   4.028   0.196   4.278
 3403TIP3   OH210153   2.880   0.967   4.670
 3403TIP3    H110154   2.860   0.881   4.706
 3403TIP3    H210155   2.803   0.991   4.619
 3404TIP3   OH210156   7.410   3.276   1.840
 3404TIP3    H110157   7.442   3.315   1.921
 3404TIP3    H210158   7.489   3.262   1.788
 3405TIP3   OH210159   6.680   5.117   1.988
 3405TIP3    H110160   6.734   5.049   2.028
 3405TIP3    H210161   6.650   5.079   1.906
 3406TIP3   OH210162   1.246   2.467   0.441
 3406TIP3    H110163   1.217   2.397   0.500
 3406TIP3    H210164   1.192   2.542   0.465
 3407TIP3   OH210165   1.571   4.643   5.955
 3407TIP3    H110166   1.636   4.605   5.895
 3407TIP3    H210167   1.504   4.576   5.963
 3408TIP3   OH210168   2.747   5.889   1.957
 3408TIP3    H110169   2.813   5.893   2.026
 3408TIP3    H210170   2.793   5.858   1.880
 3409TIP3   OH210171   7.819   5.026   1.711
 3409TIP3    H110172   7.811   4.951   1.652
 3409TIP3    H210173   7.813   4.988   1.798
 3410TIP3   OH210174   4.073   1.850   4.658
 3410TIP3    H110175   4.163   1.861   4.690
 3410TIP3    H210176   4.072   1.761   4.621
 3411TIP3   OH210177   7.205   7.435   1.563
 3411TIP3    H110178   7.268   7.442   1.492
 3411TIP3    H210179   7.155   7.356   1.543
 3412TIP3   OH210180   6.884   4.470   1.812
 3412TIP3    H110181   6.947   4.398   1.822
 3412TIP3    H210182   6.835   4.447   1.733
 3413TIP3   OH210183   0.575   1.782   0.775
 3413TIP3    H110184   0.539   1.693   0.776
 3413TIP3    H210185   0.603   1.797   0.866
 3414TIP3   OH210186   8.002   4.918   4.455
 3414TIP3    H110187   8.073   4.960   4.505
 3414TIP3    H210188   7.943   4.884   4.522
 3415TIP3   OH210189   7.062   4.912   3.294
 3415TIP3    H110190   7.085   4.825   3.260
 3415TIP3    H210191   7.053   4.966   3.215
 3416TIP3   OH210192   0.719   0.625   2.937
 3416TIP3    H110193   0.648   0.567   2.963
 3416TIP3    H210194   0.675   0.698   2.893
 3417TIP3   OH210195   5.012   4.306   5.830
 3417TIP3    H110196   5.031   4.212   5.826
 3417TIP3    H210197   4.931   4.316   5.782
 3418TIP3   OH210198   0.455   2.607   2.309
 3418TIP3    H110199   0.361   2.597   2.324
 3418TIP3    H210200   0.463   2.624   2.215
 3419TIP3   OH210201   2.612   4.112  -0.003
 3419TIP3    H110202   2.562   4.036  -0.033
 3419TIP3    H210203   2.678   4.075   0.056
 3420TIP3   OH210204   4.519   7.648   0.042
 3420TIP3    H110205   4.489   7.617  -0.043
 3420TIP3    H210206   4.597   7.595   0.060
 3421TIP3   OH210207   5.970   0.338   1.826
 3421TIP3    H110208   6.026   0.415   1.818
 3421TIP3    H210209   5.917   0.338   1.746
 3422TIP3   OH210210   7.829   1.282   4.003
 3422TIP3    H110211   7.786   1.367   3.988
 3422TIP3    H210212   7.823   1.268   4.097
 3423TIP3   OH210213   3.936   3.153   4.585
 3423TIP3    H110214   3.975   3.238   4.606
 3423TIP3    H210215   3.843   3.164   4.603
 3424TIP3   OH210216   5.331   2.261   5.829
 3424TIP3    H110217   5.267   2.283   5.897
 3424TIP3    H210218   5.362   2.173   5.853
 3425TIP3   OH210219   2.327   3.530   1.155
 3425TIP3    H110220   2.408   3.480   1.162
 3425TIP3    H210221   2.352   3.619   1.179
 3426TIP3   OH210222   7.245   1.039   1.947
 3426TIP3    H110223   7.213   1.128   1.963
 3426TIP3    H210224   7.340   1.046   1.958
 3427TIP3   OH210225   5.511   0.240   2.900
 3427TIP3    H110226   5.506   0.232   2.805
 3427TIP3    H210227   5.456   0.168   2.933
 3428TIP3   OH210228   5.990   0.041   1.839
 3428TIP3    H110229   5.984   0.135   1.824
 3428TIP3    H210230   5.927   0.024   1.909
 3429TIP3   OH210231   4.648   0.072   3.966
 3429TIP3    H110232   4.640   0.156   4.011
 3429TIP3    H210233   4.599   0.010   4.021
 3430TIP3   OH210234   3.872   3.395   4.234
 3430TIP3    H110235   3.918   3.417   4.153
 3430TIP3    H210236   3.940   3.393   4.301
 3431TIP3   OH210237   3.399   2.195   1.598
 3431TIP3    H110238   3.452   2.125   1.559
 3431TIP3    H210239   3.358   2.238   1.523
 3432TIP3   OH210240   2.363   5.117   5.090
 3432TIP3    H110241   2.268   5.113   5.095
 3432TIP3    H210242   2.382   5.133   4.998
 3433TIP3   OH210243   2.860   6.381   5.995
 3433TIP3    H110244   2.858   6.341   6.082
 3433TIP3    H210245   2.768   6.397   5.975
 3434TIP3   OH210246   4.594   0.317   0.065
 3434TIP3    H110247   4.657   0.265   0.015
 3434TIP3    H210248   4.580   0.395   0.010
 3435TIP3   OH210249   5.322   4.664   5.380
 3435TIP3    H110250   5.322   4.573   5.351
 3435TIP3    H210251   5.230   4.684   5.396
 3436TIP3   OH210252   4.524   2.328   1.258
 3436TIP3    H110253   4.481   2.292   1.180
 3436TIP3    H210254   4.499   2.421   1.258
 3437TIP3   OH210255   4.630   6.609   3.209
 3437TIP3    H110256   4.605   6.533   3.261
 3437TIP3    H210257   4.552   6.631   3.159
 3438TIP3   OH210258   0.050   1.831   4.266
 3438TIP3    H110259   0.098   1.789   4.195
 3438TIP3    H210260   0.113   1.890   4.306
 3439TIP3   OH210261   1.581   3.698   0.141
 3439TIP3    H110262   1.669   3.719   0.171
 3439TIP3    H210263   1.588   3.693   0.046
 3440TIP3   OH210264   6.580   4.614   5.603
 3440TIP3    H110265   6.648   4.568   5.553
 3440TIP3    H210266   6.592   4.586   5.693
 3441TIP3   OH210267   2.051   1.896   6.525
 3441TIP3    H110268   1.958   1.887   6.509
 3441TIP3    H210269   2.057   1.942   6.609
 3442TIP3   OH210270   7.967   7.783   0.530
 3442TIP3    H110271   7.919   7.713   0.575
 3442TIP3    H210272   7.978   7.851   0.597
 3443TIP3   OH210273   6.467   5.296   5.843
 3443TIP3    H110274   6.463   5.240   5.920
 3443TIP3    H210275   6.495   5.381   5.877
 3444TIP3   OH210276   0.146   0.815   0.319
 3444TIP3    H110277   0.196   0.889   0.282
 3444TIP3    H210278   0.057   0.849   0.329
 3445TIP3   OH210279   1.336   6.668   3.996
 3445TIP3    H110280   1.349   6.694   4.087
 3445TIP3    H210281   1.247   6.633   3.994
 3446TIP3   OH210282   5.691   4.023   0.526
 3446TIP3    H110283   5.763   3.961   0.536
 3446TIP3    H210284   5.660   4.039   0.615
 3447TIP3   OH210285   7.678   6.801   5.382
 3447TIP3    H110286   7.610   6.735   5.368
 3447TIP3    H210287   7.636   6.869   5.435
 3448TIP3   OH210288   3.701   1.511   6.757
 3448TIP3    H110289   3.772   1.493   6.818
 3448TIP3    H210290   3.740   1.499   6.670
 3449TIP3   OH210291   5.062   7.000   0.442
 3449TIP3    H110292   4.983   7.001   0.496
 3449TIP3    H210293   5.114   6.927   0.476
 3450TIP3   OH210294   3.420   4.552   1.592
 3450TIP3    H110295   3.514   4.542   1.610
 3450TIP3    H210296   3.417   4.601   1.510
 3451TIP3   OH210297   7.738   7.491   4.333
 3451TIP3    H110298   7.726   7.412   4.280
 3451TIP3    H210299   7.674   7.482   4.404
 3452TIP3   OH210300   5.131   1.339   1.394
 3452TIP3    H110301   5.145   1.423   1.349
 3452TIP3    H210302   5.138   1.360   1.487
 3453TIP3   OH210303   1.321   0.128   5.974
 3453TIP3    H110304   1.396   0.187   5.980
 3453TIP3    H210305   1.350   0.047   6.015
 3454TIP3   OH210306   5.676   6.653   6.099
 3454TIP3    H110307   5.728   6.688   6.027
 3454TIP3    H210308   5.597   6.708   6.100
 3455TIP3   OH210309   5.618   5.748   1.376
 3455TIP3    H110310   5.567   5.819   1.414
 3455TIP3    H210311   5.679   5.792   1.317
 3456TIP3   OH210312   1.159   4.843   4.202
 3456TIP3    H110313   1.130   4.787   4.274
 3456TIP3    H210314   1.220   4.905   4.243
 3457TIP3   OH210315   6.399   7.268   4.245
 3457TIP3    H110316   6.315   7.225   4.234
 3457TIP3    H210317   6.415   7.312   4.162
 3458TIP3   OH210318   5.626   5.107   3.931
 3458TIP3    H110319   5.677   5.033   3.963
 3458TIP3    H210320   5.535   5.081   3.944
 3459TIP3   OH210321   7.444   5.759   0.835
 3459TIP3    H110322   7.357   5.778   0.798
 3459TIP3    H210323   7.485   5.702   0.770
 3460TIP3   OH210324   2.449   6.790   5.041
 3460TIP3    H110325   2.535   6.784   5.000
 3460TIP3    H210326   2.448   6.720   5.106
 3461TIP3   OH210327   7.705   1.876   6.665
 3461TIP3    H110328   7.723   1.874   6.759
 3461TIP3    H210329   7.771   1.817   6.627
 3462TIP3   OH210330   6.378   5.787   6.072
 3462TIP3    H110331   6.430   5.838   6.135
 3462TIP3    H210332   6.287   5.799   6.100
 3463TIP3   OH210333   2.366   5.050   0.074
 3463TIP3    H110334   2.446   5.082   0.114
 3463TIP3    H210335   2.309   5.127   0.071
 3464TIP3   OH210336   1.103   0.604   1.572
 3464TIP3    H110337   1.137   0.645   1.493
 3464TIP3    H210338   1.009   0.597   1.556
 3465TIP3   OH210339   4.377   1.901   1.335
 3465TIP3    H110340   4.330   1.823   1.307
 3465TIP3    H210341   4.338   1.924   1.419
 3466TIP3   OH210342   3.256   6.667   2.788
 3466TIP3    H110343   3.243   6.692   2.880
 3466TIP3    H210344   3.168   6.657   2.753
 3467TIP3   OH210345   2.260   6.494   6.545
 3467TIP3    H110346   2.219   6.488   6.459
 3467TIP3    H210347   2.209   6.435   6.600
 3468TIP3   OH210348   3.158   7.653   1.399
 3468TIP3    H110349   3.114   7.692   1.475
 3468TIP3    H210350   3.239   7.616   1.434
 3469TIP3   OH210351   7.892   1.877   1.818
 3469TIP3    H110352   7.883   1.790   1.779
 3469TIP3    H210353   7.801   1.906   1.832
 3470TIP3   OH210354   6.425   6.732   4.985
 3470TIP3    H110355   6.365   6.712   5.056
 3470TIP3    H210356   6.510   6.745   5.027
 3471TIP3   OH210357   4.453   5.499   5.749
 3471TIP3    H110358   4.516   5.519   5.819
 3471TIP3    H210359   4.493   5.426   5.701
 3472TIP3   OH210360   2.228   7.161   0.837
 3472TIP3    H110361   2.318   7.181   0.864
 3472TIP3    H210362   2.173   7.208   0.899
 3473TIP3   OH210363   5.852   5.621   5.638
 3473TIP3    H110364   5.804   5.618   5.720
 3473TIP3    H210365   5.807   5.559   5.581
 3474TIP3   OH210366   5.574   1.028   5.270
 3474TIP3    H110367   5.535   0.941   5.278
 3474TIP3    H210368   5.641   1.031   5.337
 3475TIP3   OH210369   2.894   7.040   3.555
 3475TIP3    H110370   2.912   6.946   3.566
 3475TIP3    H210371   2.810   7.043   3.510
 3476TIP3   OH210372   6.229   7.308   4.858
 3476TIP3    H110373   6.257   7.237   4.800
 3476TIP3    H210374   6.257   7.388   4.814
 3477TIP3   OH210375   3.197   3.216   0.748
 3477TIP3    H110376   3.161   3.128   0.752
 3477TIP3    H210377   3.239   3.228   0.833
 3478TIP3   OH210378   7.622   0.454   0.200
 3478TIP3    H110379   7.705   0.500   0.212
 3478TIP3    H210380   7.644   0.362   0.211
 3479TIP3   OH210381   4.080   4.780   1.088
 3479TIP3    H110382   4.113   4.870   1.096
 3479TIP3    H210383   3.986   4.787   1.100
 3480TIP3   OH210384   1.638   2.378   2.546
 3480TIP3    H110385   1.704   2.318   2.581
 3480TIP3    H210386   1.673   2.405   2.462
 3481TIP3   OH210387   0.793   2.074   3.027
 3481TIP3    H110388   0.703   2.070   2.994
 3481TIP3    H210389   0.797   2.005   3.094
 3482TIP3   OH210390   7.198   0.872   6.703
 3482TIP3    H110391   7.249   0.810   6.755
 3482TIP3    H210392   7.263   0.935   6.671
 3483TIP3   OH210393   6.615   6.103   0.389
 3483TIP3    H110394   6.542   6.080   0.332
 3483TIP3    H210395   6.619   6.033   0.453
 3484TIP3   OH210396   2.467   6.102   1.244
 3484TIP3    H110397   2.455   6.149   1.162
 3484TIP3    H210398   2.543   6.143   1.285
 3485TIP3   OH210399   5.464   1.954   6.271
 3485TIP3    H110400   5.531   1.940   6.338
 3485TIP3    H210401   5.455   1.869   6.228
 3486TIP3   OH210402   7.799   1.046   5.437
 3486TIP3    H110403   7.864   1.096   5.487
 3486TIP3    H210404   7.820   1.066   5.345
 3487TIP3   OH210405   4.306   1.088   5.619
 3487TIP3    H110406   4.267   1.166   5.658
 3487TIP3    H210407   4.256   1.015   5.656
 3488TIP3   OH210408   1.038   7.295   4.879
 3488TIP3    H110409   0.977   7.224   4.859
 3488TIP3    H210410   1.071   7.275   4.966
 3489TIP3   OH210411   2.864   7.015   5.517
 3489TIP3    H110412   2.824   7.008   5.431
 3489TIP3    H210413   2.891   6.926   5.539
 3490TIP3   OH210414   7.300   5.465   0.601
 3490TIP3    H110415   7.233   5.399   0.586
 3490TIP3    H210416   7.380   5.415   0.617
 3491TIP3   OH210417   6.605   4.509   4.424
 3491TIP3    H110418   6.605   4.603   4.441
 3491TIP3    H210419   6.640   4.469   4.504
 3492TIP3   OH210420   1.157   7.147   6.068
 3492TIP3    H110421   1.114   7.202   6.002
 3492TIP3    H210422   1.205   7.209   6.123
 3493TIP3   OH210423   0.680   4.112   3.846
 3493TIP3    H110424   0.748   4.046   3.852
 3493TIP3    H210425   0.610   4.081   3.904
 3494TIP3   OH210426   6.406   0.406   4.700
 3494TIP3    H110427   6.470   0.457   4.750
 3494TIP3    H210428   6.350   0.366   4.767
 3495TIP3   OH210429   5.546   5.852   5.626
 3495TIP3    H110430   5.514   5.780   5.680
 3495TIP3    H210431   5.618   5.889   5.676
 3496TIP3   OH210432   0.811   1.067   1.641
 3496TIP3    H110433   0.718   1.090   1.638
 3496TIP3    H210434   0.856   1.151   1.639
 3497TIP3   OH210435   6.288   1.707   2.276
 3497TIP3    H110436   6.224   1.685   2.208
 3497TIP3    H210437   6.282   1.802   2.285
 3498TIP3   OH210438   4.764   7.540   4.593
 3498TIP3    H110439   4.786   7.449   4.574
 3498TIP3    H210440   4.679   7.553   4.551
 3499TIP3   OH210441   2.264   3.277   0.144
 3499TIP3    H110442   2.309   3.344   0.094
 3499TIP3    H210443   2.176   3.312   0.160
 3500TIP3   OH210444   2.075   6.958   1.437
 3500TIP3    H110445   1.984   6.942   1.461
 3500TIP3    H210446   2.071   7.012   1.358
 3501TIP3   OH210447   5.569   3.426   2.140
 3501TIP3    H110448   5.564   3.462   2.229
 3501TIP3    H210449   5.648   3.373   2.139
 3502TIP3   OH210450   8.242   3.192   1.008
 3502TIP3    H110451   8.157   3.165   1.043
 3502TIP3    H210452   8.234   3.181   0.913
 3503TIP3   OH210453   6.876   1.211   1.667
 3503TIP3    H110454   6.834   1.263   1.736
 3503TIP3    H210455   6.857   1.259   1.586
 3504TIP3   OH210456   2.791   6.774   1.832
 3504TIP3    H110457   2.803   6.823   1.751
 3504TIP3    H210458   2.879   6.761   1.866
 3505TIP3   OH210459   6.160   6.403   3.107
 3505TIP3    H110460   6.114   6.477   3.146
 3505TIP3    H210461   6.147   6.332   3.170
 3506TIP3   OH210462   7.735   4.049   0.730
 3506TIP3    H110463   7.652   4.009   0.705
 3506TIP3    H210464   7.770   3.992   0.798
 3507TIP3   OH210465   7.353   5.435   5.278
 3507TIP3    H110466   7.384   5.447   5.188
 3507TIP3    H210467   7.372   5.519   5.320
 3508TIP3   OH210468   1.531   7.779   2.144
 3508TIP3    H110469   1.604   7.717   2.148
 3508TIP3    H210470   1.485   7.756   2.063
 3509TIP3   OH210471   2.385   0.160   3.141
 3509TIP3    H110472   2.292   0.179   3.155
 3509TIP3    H210473   2.413   0.118   3.222
 3510TIP3   OH210474   4.179   3.974   1.491
 3510TIP3    H110475   4.203   3.917   1.417
 3510TIP3    H210476   4.144   3.913   1.557
 3511TIP3   OH210477   7.782   6.673   1.454
 3511TIP3    H110478   7.759   6.765   1.460
 3511TIP3    H210479   7.777   6.653   1.360
 3512TIP3   OH210480   0.910   4.650   3.920
 3512TIP3    H110481   0.818   4.633   3.901
 3512TIP3    H210482   0.957   4.614   3.845
 3513TIP3   OH210483   7.233   7.139   4.661
 3513TIP3    H110484   7.211   7.220   4.707
 3513TIP3    H210485   7.318   7.155   4.622
 3514TIP3   OH210486   0.111   1.281   3.185
 3514TIP3    H110487   0.111   1.356   3.126
 3514TIP3    H210488   0.202   1.272   3.213
 3515TIP3   OH210489   5.765   5.333   5.868
 3515TIP3    H110490   5.722   5.326   5.783
 3515TIP3    H210491   5.720   5.270   5.924
 3516TIP3   OH210492   2.611   4.657   1.995
 3516TIP3    H110493   2.592   4.717   1.923
 3516TIP3    H210494   2.532   4.604   2.005
 3517TIP3   OH210495   4.227   5.407   1.169
 3517TIP3    H110496   4.189   5.478   1.221
 3517TIP3    H210497   4.205   5.327   1.216
 3518TIP3   OH210498   7.703   1.802   4.051
 3518TIP3    H110499   7.612   1.810   4.022
 3518TIP3    H210500   7.743   1.886   4.029
 3519TIP3   OH210501   1.146   0.022   6.526
 3519TIP3    H110502   1.193  -0.018   6.453
 3519TIP3    H210503   1.213   0.041   6.591
 3520TIP3   OH210504   1.546   7.295   2.988
 3520TIP3    H110505   1.526   7.324   2.899
 3520TIP3    H210506   1.595   7.213   2.975
 3521TIP3   OH210507   5.961   0.896   3.766
 3521TIP3    H110508   5.988   0.900   3.675
 3521TIP3    H210509   5.956   0.987   3.794
 3522TIP3   OH210510   1.413   0.838   5.097
 3522TIP3    H110511   1.470   0.763   5.080
 3522TIP3    H210512   1.380   0.864   5.011
 3523TIP3   OH210513   5.959   1.775   5.897
 3523TIP3    H110514   6.021   1.798   5.828
 3523TIP3    H210515   5.994   1.818   5.975
 3524TIP3   OH210516   4.502   4.139   3.407
 3524TIP3    H110517   4.541   4.144   3.320
 3524TIP3    H210518   4.543   4.209   3.456
 3525TIP3   OH210519   0.059   1.005   0.738
 3525TIP3    H110520   0.122   1.036   0.673
 3525TIP3    H210521   0.113   0.966   0.807
 3526TIP3   OH210522   1.869   7.689   3.017
 3526TIP3    H110523   1.777   7.684   2.990
 3526TIP3    H210524   1.885   7.782   3.031
 3527TIP3   OH210525   5.411   0.651   6.042
 3527TIP3    H110526   5.493   0.603   6.029
 3527TIP3    H210527   5.409   0.670   6.136
 3528TIP3   OH210528   0.523   2.576   3.231
 3528TIP3    H110529   0.540   2.662   3.268
 3528TIP3    H210530   0.563   2.579   3.144
 3529TIP3   OH210531   1.812   0.285   6.500
 3529TIP3    H110532   1.768   0.262   6.418
 3529TIP3    H210533   1.771   0.366   6.528
 3530TIP3   OH210534   4.111   5.118   4.884
 3530TIP3    H110535   4.064   5.177   4.943
 3530TIP3    H210536   4.042   5.070   4.838
 3531TIP3   OH210537   3.391   6.270   1.932
 3531TIP3    H110538   3.326   6.236   1.993
 3531TIP3    H210539   3.344   6.336   1.881
 3532TIP3   OH210540   6.872   7.136   6.109
 3532TIP3    H110541   6.867   7.208   6.171
 3532TIP3    H210542   6.801   7.152   6.047
 3533TIP3   OH210543   5.967   7.072   0.784
 3533TIP3    H110544   5.983   6.978   0.788
 3533TIP3    H210545   5.960   7.099   0.876
 3534TIP3   OH210546   1.874   1.828   0.958
 3534TIP3    H110547   1.860   1.752   1.013
 3534TIP3    H210548   1.811   1.819   0.887
 3535TIP3   OH210549   6.187   4.013   5.770
 3535TIP3    H110550   6.148   3.927   5.785
 3535TIP3    H210551   6.135   4.051   5.699
 3536TIP3   OH210552   4.776   2.975   1.590
 3536TIP3    H110553   4.690   3.001   1.621
 3536TIP3    H210554   4.805   2.909   1.654
 3537TIP3   OH210555   0.191   2.877   1.862
 3537TIP3    H110556   0.235   2.844   1.784
 3537TIP3    H210557   0.249   2.944   1.896
 3538TIP3   OH210558   8.206   0.118   5.503
 3538TIP3    H110559   8.268   0.048   5.523
 3538TIP3    H210560   8.190   0.160   5.587
 3539TIP3   OH210561   5.729   4.741   2.043
 3539TIP3    H110562   5.796   4.809   2.043
 3539TIP3    H210563   5.681   4.753   1.961
 3540TIP3   OH210564   3.885   5.024   2.290
 3540TIP3    H110565   3.886   5.105   2.342
 3540TIP3    H210566   3.870   4.955   2.354
 3541TIP3   OH210567   1.744   6.843   5.398
 3541TIP3    H110568   1.737   6.925   5.447
 3541TIP3    H210569   1.736   6.774   5.464
 3542TIP3   OH210570   6.625   3.395   1.579
 3542TIP3    H110571   6.609   3.451   1.655
 3542TIP3    H210572   6.662   3.454   1.513
 3543TIP3   OH210573   5.181   1.439   3.834
 3543TIP3    H110574   5.086   1.451   3.831
 3543TIP3    H210575   5.194   1.359   3.885
 3544TIP3   OH210576   6.937   4.219   3.883
 3544TIP3    H110577   6.901   4.300   3.847
 3544TIP3    H210578   6.890   4.206   3.965
 3545TIP3   OH210579   1.455   3.960   4.516
 3545TIP3    H110580   1.454   4.020   4.441
 3545TIP3    H210581   1.543   3.969   4.552
 3546TIP3   OH210582   3.807   6.777   2.680
 3546TIP3    H110583   3.826   6.863   2.642
 3546TIP3    H210584   3.755   6.732   2.613
 3547TIP3   OH210585   4.737   5.306   2.472
 3547TIP3    H110586   4.823   5.323   2.433
 3547TIP3    H210587   4.675   5.327   2.403
 3548TIP3   OH210588   1.960   1.521   3.476
 3548TIP3    H110589   1.869   1.492   3.464
 3548TIP3    H210590   1.959   1.613   3.450
 3549TIP3   OH210591   6.161   5.506   4.093
 3549TIP3    H110592   6.244   5.527   4.052
 3549TIP3    H210593   6.183   5.485   4.184
 3550TIP3   OH210594   1.434   1.863   1.468
 3550TIP3    H110595   1.375   1.896   1.535
 3550TIP3    H210596   1.376   1.822   1.403
 3551TIP3   OH210597   5.814   3.371   4.902
 3551TIP3    H110598   5.760   3.309   4.950
 3551TIP3    H210599   5.782   3.368   4.812
 3552TIP3   OH210600   5.312   0.603   0.711
 3552TIP3    H110601   5.398   0.580   0.675
 3552TIP3    H210602   5.327   0.685   0.757
 3553TIP3   OH210603   4.463   3.977   2.174
 3553TIP3    H110604   4.475   3.949   2.265
 3553TIP3    H210605   4.550   3.969   2.135
 3554TIP3   OH210606   7.989   6.854   5.985
 3554TIP3    H110607   8.006   6.875   6.076
 3554TIP3    H210608   7.911   6.904   5.962
 3555TIP3   OH210609   6.819   4.162   6.121
 3555TIP3    H110610   6.821   4.255   6.145
 3555TIP3    H210611   6.750   4.124   6.174
 3556TIP3   OH210612   7.816   0.390   4.437
 3556TIP3    H110613   7.789   0.298   4.436
 3556TIP3    H210614   7.824   0.413   4.344
 3557TIP3   OH210615   2.423   6.123   3.607
 3557TIP3    H110616   2.507   6.115   3.653
 3557TIP3    H210617   2.413   6.217   3.591
 3558TIP3   OH210618   1.217   6.297   4.721
 3558TIP3    H110619   1.133   6.258   4.696
 3558TIP3    H210620   1.269   6.295   4.641
 3559TIP3   OH210621   4.894   5.938   6.415
 3559TIP3    H110622   4.820   5.981   6.459
 3559TIP3    H210623   4.920   5.868   6.475
 3560TIP3   OH210624   1.486   0.210   5.196
 3560TIP3    H110625   1.412   0.219   5.136
 3560TIP3    H210626   1.491   0.116   5.213
 3561TIP3   OH210627   7.950   1.809   2.227
 3561TIP3    H110628   7.985   1.748   2.162
 3561TIP3    H210629   7.860   1.782   2.241
 3562TIP3   OH210630   3.409   7.739   0.116
 3562TIP3    H110631   3.400   7.823   0.069
 3562TIP3    H210632   3.438   7.764   0.204
 3563TIP3   OH210633   3.834   5.523   3.789
 3563TIP3    H110634   3.928   5.524   3.802
 3563TIP3    H210635   3.799   5.583   3.854
 3564TIP3   OH210636   5.234   5.564   0.984
 3564TIP3    H110637   5.289   5.565   1.062
 3564TIP3    H210638   5.163   5.503   1.006
 3565TIP3   OH210639   2.496   6.587   4.227
 3565TIP3    H110640   2.487   6.587   4.322
 3565TIP3    H210641   2.504   6.494   4.204
 3566TIP3   OH210642   7.364   4.367   2.581
 3566TIP3    H110643   7.390   4.342   2.493
 3566TIP3    H210644   7.446   4.370   2.631
 3567TIP3   OH210645   7.458   7.529   6.015
 3567TIP3    H110646   7.490   7.615   6.041
 3567TIP3    H210647   7.504   7.509   5.934
 3568TIP3   OH210648   7.723   7.549   2.779
 3568TIP3    H110649   7.784   7.514   2.714
 3568TIP3    H210650   7.768   7.624   2.817
 3569TIP3   OH210651   4.313   5.955   5.299
 3569TIP3    H110652   4.374   5.890   5.262
 3569TIP3    H210653   4.228   5.911   5.296
 3570TIP3   OH210654   8.062   2.352   3.091
 3570TIP3    H110655   8.045   2.347   3.185
 3570TIP3    H210656   8.152   2.382   3.084
 3571TIP3   OH210657   7.591   3.028   3.712
 3571TIP3    H110658   7.634   3.095   3.659
 3571TIP3    H210659   7.515   3.001   3.660
 3572TIP3   OH210660   7.940   2.727   6.583
 3572TIP3    H110661   8.016   2.785   6.576
 3572TIP3    H210662   7.933   2.686   6.497
 3573TIP3   OH210663   2.677   7.499   5.047
 3573TIP3    H110664   2.713   7.587   5.039
 3573TIP3    H210665   2.733   7.455   5.110
 3574TIP3   OH210666   3.272   3.903   4.429
 3574TIP3    H110667   3.360   3.939   4.423
 3574TIP3    H210668   3.277   3.818   4.384
 3575TIP3   OH210669   3.843   3.698   5.901
 3575TIP3    H110670   3.776   3.720   5.836
 3575TIP3    H210671   3.917   3.755   5.880
 3576TIP3   OH210672   4.054   2.884   6.189
 3576TIP3    H110673   4.143   2.889   6.156
 3576TIP3    H210674   4.064   2.867   6.283
 3577TIP3   OH210675   6.393   4.391   6.363
 3577TIP3    H110676   6.338   4.407   6.286
 3577TIP3    H210677   6.482   4.410   6.333
 3578TIP3   OH210678   7.029   1.583   1.898
 3578TIP3    H110679   7.097   1.536   1.851
 3578TIP3    H210680   7.072   1.615   1.978
 3579TIP3   OH210681   6.653   4.560   4.006
 3579TIP3    H110682   6.743   4.536   4.031
 3579TIP3    H210683   6.597   4.500   4.055
 3580TIP3   OH210684   1.925   4.923   6.309
 3580TIP3    H110685   1.864   4.996   6.299
 3580TIP3    H210686   1.887   4.853   6.256
 3581TIP3   OH210687   6.121   3.757   5.271
 3581TIP3    H110688   6.050   3.695   5.290
 3581TIP3    H210689   6.147   3.790   5.357
 3582TIP3   OH210690   0.657   3.731   3.103
 3582TIP3    H110691   0.561   3.732   3.097
 3582TIP3    H210692   0.679   3.638   3.110
 3583TIP3   OH210693   7.426   1.359   2.950
 3583TIP3    H110694   7.375   1.309   3.014
 3583TIP3    H210695   7.448   1.440   2.996
 3584TIP3   OH210696   4.004   5.485   4.845
 3584TIP3    H110697   3.911   5.480   4.868
 3584TIP3    H210698   4.048   5.435   4.914
 3585TIP3   OH210699   4.244   2.577   3.190
 3585TIP3    H110700   4.253   2.650   3.129
 3585TIP3    H210701   4.205   2.507   3.136
 3586TIP3   OH210702   2.346   3.399   2.661
 3586TIP3    H110703   2.420   3.425   2.716
 3586TIP3    H210704   2.335   3.305   2.678
 3587TIP3   OH210705   2.080   5.703   3.949
 3587TIP3    H110706   1.998   5.740   3.981
 3587TIP3    H210707   2.136   5.699   4.026
 3588TIP3   OH210708   3.466   2.300   4.805
 3588TIP3    H110709   3.413   2.341   4.736
 3588TIP3    H210710   3.555   2.299   4.769
 3589TIP3   OH210711   8.198   0.186   2.935
 3589TIP3    H110712   8.221   0.277   2.914
 3589TIP3    H210713   8.282   0.143   2.949
 3590TIP3   OH210714   4.208   0.934   5.238
 3590TIP3    H110715   4.123   0.978   5.239
 3590TIP3    H210716   4.205   0.876   5.314
 3591TIP3   OH210717   5.406   5.673   3.096
 3591TIP3    H110718   5.335   5.614   3.123
 3591TIP3    H210719   5.461   5.681   3.174
 3592TIP3   OH210720   4.602   3.276   3.599
 3592TIP3    H110721   4.512   3.282   3.631
 3592TIP3    H210722   4.640   3.362   3.616
 3593TIP3   OH210723   0.568   4.470   4.833
 3593TIP3    H110724   0.527   4.456   4.748
 3593TIP3    H210725   0.615   4.389   4.851
 3594TIP3   OH210726  -0.051   7.453   5.341
 3594TIP3    H110727  -0.089   7.470   5.255
 3594TIP3    H210728   0.017   7.387   5.324
 3595TIP3   OH210729   5.069   0.073   1.869
 3595TIP3    H110730   5.158   0.108   1.858
 3595TIP3    H210731   5.073  -0.016   1.835
 3596TIP3   OH210732   6.645   0.638   6.620
 3596TIP3    H110733   6.658   0.565   6.559
 3596TIP3    H210734   6.700   0.616   6.695
 3597TIP3   OH210735   6.450   4.192   2.701
 3597TIP3    H110736   6.472   4.119   2.643
 3597TIP3    H210737   6.533   4.215   2.743
 3598TIP3   OH210738   3.321   3.297   4.903
 3598TIP3    H110739   3.233   3.310   4.938
 3598TIP3    H210740   3.376   3.354   4.956
 3599TIP3   OH210741   0.458   7.341   2.058
 3599TIP3    H110742   0.506   7.261   2.036
 3599TIP3    H210743   0.499   7.408   2.004
 3600TIP3   OH210744   0.212   2.979   5.806
 3600TIP3    H110745   0.185   2.888   5.817
 3600TIP3    H210746   0.234   3.008   5.895
 3601TIP3   OH210747   6.561   7.221   0.985
 3601TIP3    H110748   6.641   7.234   1.035
 3601TIP3    H210749   6.503   7.293   1.011
 3602TIP3   OH210750   5.945   7.667   5.208
 3602TIP3    H110751   5.924   7.712   5.290
 3602TIP3    H210752   6.013   7.720   5.168
 3603TIP3   OH210753   5.834   2.411   4.014
 3603TIP3    H110754   5.785   2.338   4.052
 3603TIP3    H210755   5.811   2.410   3.921
 3604TIP3   OH210756   7.806   1.256   0.965
 3604TIP3    H110757   7.855   1.245   0.884
 3604TIP3    H210758   7.802   1.351   0.978
 3605TIP3   OH210759   6.663   7.517   3.866
 3605TIP3    H110760   6.759   7.520   3.871
 3605TIP3    H210761   6.635   7.599   3.907
 3606TIP3   OH210762   5.031   4.738   5.880
 3606TIP3    H110763   5.067   4.662   5.835
 3606TIP3    H210764   4.959   4.767   5.824
 3607TIP3   OH210765   1.290   2.423   3.194
 3607TIP3    H110766   1.265   2.470   3.273
 3607TIP3    H210767   1.305   2.333   3.222
 3608TIP3   OH210768   1.085   1.393   0.142
 3608TIP3    H110769   1.009   1.444   0.170
 3608TIP3    H210770   1.138   1.384   0.221
 3609TIP3   OH210771   0.312   4.904   1.946
 3609TIP3    H110772   0.362   4.825   1.926
 3609TIP3    H210773   0.229   4.892   1.901
 3610TIP3   OH210774   1.844   0.073   1.984
 3610TIP3    H110775   1.830   0.168   1.988
 3610TIP3    H210776   1.931   0.063   1.945
 3611TIP3   OH210777   0.402   4.018   4.955
 3611TIP3    H110778   0.467   3.996   4.889
 3611TIP3    H210779   0.319   3.984   4.920
 3612TIP3   OH210780   3.915   2.750   4.087
 3612TIP3    H110781   3.908   2.765   4.182
 3612TIP3    H210782   3.870   2.667   4.073
 3613TIP3   OH210783   1.452   5.785   3.621
 3613TIP3    H110784   1.488   5.870   3.597
 3613TIP3    H210785   1.526   5.736   3.657
 3614TIP3   OH210786   0.870   0.084   0.031
 3614TIP3    H110787   0.849   0.177   0.017
 3614TIP3    H210788   0.790   0.046   0.066
 3615TIP3   OH210789   4.169   3.669   1.922
 3615TIP3    H110790   4.162   3.609   1.996
 3615TIP3    H210791   4.237   3.731   1.948
 3616TIP3   OH210792   0.311   2.004   5.096
 3616TIP3    H110793   0.349   1.981   5.011
 3616TIP3    H210794   0.303   2.099   5.092
 3617TIP3   OH210795   1.786   4.776   0.575
 3617TIP3    H110796   1.803   4.751   0.666
 3617TIP3    H210797   1.778   4.693   0.529
 3618TIP3   OH210798   3.029   3.675   3.974
 3618TIP3    H110799   3.097   3.741   3.986
 3618TIP3    H210800   3.066   3.614   3.910
 3619TIP3   OH210801   6.067   3.359   5.911
 3619TIP3    H110802   6.049   3.444   5.951
 3619TIP3    H210803   6.131   3.379   5.842
 3620TIP3   OH210804   3.969   2.665   0.706
 3620TIP3    H110805   3.922   2.582   0.698
 3620TIP3    H210806   3.970   2.682   0.800
 3621TIP3   OH210807   2.124   5.549   3.499
 3621TIP3    H110808   2.081   5.627   3.534
 3621TIP3    H210809   2.212   5.579   3.475
 3622TIP3   OH210810   7.235   5.990   0.181
 3622TIP3    H110811   7.154   5.942   0.198
 3622TIP3    H210812   7.207   6.068   0.134
 3623TIP3   OH210813   2.332   4.713   0.363
 3623TIP3    H110814   2.278   4.639   0.335
 3623TIP3    H210815   2.268   4.781   0.386
 3624TIP3   OH210816   4.106   3.384   4.374
 3624TIP3    H110817   4.160   3.314   4.338
 3624TIP3    H210818   4.163   3.432   4.434
 3625TIP3   OH210819   1.746   5.142   3.997
 3625TIP3    H110820   1.727   5.235   4.011
 3625TIP3    H210821   1.673   5.096   4.038
 3626TIP3   OH210822   6.236   6.639   5.463
 3626TIP3    H110823   6.325   6.642   5.498
 3626TIP3    H210824   6.230   6.715   5.405
 3627TIP3   OH210825   3.668   3.809   1.835
 3627TIP3    H110826   3.627   3.775   1.914
 3627TIP3    H210827   3.758   3.828   1.860
 3628TIP3   OH210828   5.945   2.195   0.027
 3628TIP3    H110829   5.939   2.284  -0.006
 3628TIP3    H210830   5.950   2.140  -0.052
 3629TIP3   OH210831   1.697   6.166   4.091
 3629TIP3    H110832   1.770   6.143   4.034
 3629TIP3    H210833   1.735   6.222   4.158
 3630TIP3   OH210834   4.725   1.658   0.099
 3630TIP3    H110835   4.818   1.683   0.103
 3630TIP3    H210836   4.725   1.574   0.053
 3631TIP3   OH210837   6.418   5.865   3.637
 3631TIP3    H110838   6.470   5.860   3.557
 3631TIP3    H210839   6.457   5.798   3.694
 3632TIP3   OH210840   5.805   4.402   0.981
 3632TIP3    H110841   5.876   4.444   1.030
 3632TIP3    H210842   5.846   4.377   0.898
 3633TIP3   OH210843   3.602   2.550   2.871
 3633TIP3    H110844   3.672   2.551   2.806
 3633TIP3    H210845   3.648   2.562   2.955
 3634TIP3   OH210846   8.129   0.645   3.491
 3634TIP3    H110847   8.219   0.652   3.460
 3634TIP3    H210848   8.075   0.671   3.417
 3635TIP3   OH210849  -0.008   5.727   5.747
 3635TIP3    H110850  -0.015   5.674   5.827
 3635TIP3    H210851   0.084   5.720   5.722
 3636TIP3   OH210852   1.390   1.168   3.360
 3636TIP3    H110853   1.300   1.136   3.353
 3636TIP3    H210854   1.381   1.262   3.374
 3637TIP3   OH210855   2.943   7.022   0.128
 3637TIP3    H110856   2.870   7.081   0.145
 3637TIP3    H210857   3.011   7.049   0.191
 3638TIP3   OH210858   3.590   0.438   5.652
 3638TIP3    H110859   3.633   0.400   5.575
 3638TIP3    H210860   3.597   0.532   5.639
 3639TIP3   OH210861   6.540   3.309   6.673
 3639TIP3    H110862   6.632   3.333   6.687
 3639TIP3    H210863   6.538   3.274   6.584
 3640TIP3   OH210864   8.027   3.371   3.839
 3640TIP3    H110865   8.037   3.357   3.933
 3640TIP3    H210866   8.099   3.428   3.815
 3641TIP3   OH210867   6.142   5.674   6.232
 3641TIP3    H110868   6.156   5.607   6.165
 3641TIP3    H210869   6.056   5.710   6.211
 3642TIP3   OH210870   2.157   6.207   0.546
 3642TIP3    H110871   2.103   6.149   0.493
 3642TIP3    H210872   2.100   6.281   0.566
 3643TIP3   OH210873   1.244   6.225   5.281
 3643TIP3    H110874   1.184   6.222   5.355
 3643TIP3    H210875   1.304   6.297   5.302
 3644TIP3   OH210876   2.097   2.490   4.166
 3644TIP3    H110877   2.068   2.510   4.077
 3644TIP3    H210878   2.154   2.564   4.189
 3645TIP3   OH210879   5.851   5.518   3.364
 3645TIP3    H110880   5.896   5.461   3.427
 3645TIP3    H210881   5.772   5.469   3.339
 3646TIP3   OH210882   4.636   4.668   0.338
 3646TIP3    H110883   4.657   4.616   0.416
 3646TIP3    H210884   4.720   4.684   0.296
 3647TIP3   OH210885   6.595   5.057   1.428
 3647TIP3    H110886   6.599   5.149   1.452
 3647TIP3    H210887   6.648   5.050   1.348
 3648TIP3   OH210888   8.275   0.443   6.689
 3648TIP3    H110889   8.251   0.368   6.744
 3648TIP3    H210890   8.246   0.520   6.739
 3649TIP3   OH210891   7.910   2.553   6.104
 3649TIP3    H110892   7.872   2.486   6.046
 3649TIP3    H210893   7.914   2.632   6.049
 3650TIP3   OH210894   0.607   1.491   1.019
 3650TIP3    H110895   0.519   1.496   0.982
 3650TIP3    H210896   0.663   1.467   0.945
 3651TIP3   OH210897   7.982   3.374   6.351
 3651TIP3    H110898   8.057   3.315   6.356
 3651TIP3    H210899   7.908   3.321   6.380
 3652TIP3   OH210900   4.558   6.136   5.844
 3652TIP3    H110901   4.611   6.134   5.764
 3652TIP3    H210902   4.615   6.177   5.910
 3653TIP3   OH210903   8.038   3.618   2.591
 3653TIP3    H110904   8.080   3.682   2.648
 3653TIP3    H210905   8.017   3.666   2.511
 3654TIP3   OH210906   3.627   0.841   0.286
 3654TIP3    H110907   3.617   0.765   0.228
 3654TIP3    H210908   3.719   0.865   0.278
 3655TIP3   OH210909   7.883   5.264   2.049
 3655TIP3    H110910   7.881   5.181   2.002
 3655TIP3    H210911   7.877   5.331   1.981
 3656TIP3   OH210912   6.902   2.103   1.581
 3656TIP3    H110913   6.852   2.174   1.539
 3656TIP3    H210914   6.835   2.043   1.613
 3657TIP3   OH210915   1.395   1.952   3.498
 3657TIP3    H110916   1.457   1.988   3.560
 3657TIP3    H210917   1.367   2.027   3.445
 3658TIP3   OH210918   7.068   3.597   2.478
 3658TIP3    H110919   7.016   3.529   2.520
 3658TIP3    H210920   7.156   3.559   2.472
 3659TIP3   OH210921   7.400   3.210   6.518
 3659TIP3    H110922   7.388   3.285   6.576
 3659TIP3    H210923   7.467   3.157   6.561
 3660TIP3   OH210924   1.549   7.459   3.235
 3660TIP3    H110925   1.495   7.532   3.205
 3660TIP3    H210926   1.550   7.398   3.161
 3661TIP3   OH210927   2.134   3.132   4.775
 3661TIP3    H110928   2.088   3.215   4.789
 3661TIP3    H210929   2.107   3.077   4.849
 3662TIP3   OH210930   2.123   7.344   0.484
 3662TIP3    H110931   2.218   7.338   0.492
 3662TIP3    H210932   2.090   7.277   0.543
 3663TIP3   OH210933   2.311   4.443   3.714
 3663TIP3    H110934   2.297   4.348   3.713
 3663TIP3    H210935   2.403   4.454   3.739
 3664TIP3   OH210936   2.478   5.421   3.332
 3664TIP3    H110937   2.462   5.364   3.257
 3664TIP3    H210938   2.572   5.438   3.330
 3665TIP3   OH210939   5.364   0.350   5.170
 3665TIP3    H110940   5.315   0.420   5.214
 3665TIP3    H210941   5.434   0.327   5.232
 3666TIP3   OH210942   4.726   7.205   6.785
 3666TIP3    H110943   4.788   7.193   6.713
 3666TIP3    H210944   4.665   7.271   6.753
 3667TIP3   OH210945   1.090   0.449   1.062
 3667TIP3    H110946   1.123   0.380   1.004
 3667TIP3    H210947   1.103   0.530   1.012
 3668TIP3   OH210948   0.079   5.339   1.871
 3668TIP3    H110949   0.104   5.429   1.891
 3668TIP3    H210950   0.031   5.309   1.948
 3669TIP3   OH210951   5.994   7.080   5.209
 3669TIP3    H110952   6.053   7.155   5.201
 3669TIP3    H210953   5.906   7.118   5.199
 3670TIP3   OH210954   0.298   0.117   4.394
 3670TIP3    H110955   0.382   0.159   4.377
 3670TIP3    H210956   0.298   0.097   4.488
 3671TIP3   OH210957   1.794   6.228   5.844
 3671TIP3    H110958   1.746   6.227   5.761
 3671TIP3    H210959   1.885   6.246   5.819
 3672TIP3   OH210960   2.800   0.767   1.442
 3672TIP3    H110961   2.736   0.696   1.439
 3672TIP3    H210962   2.857   0.746   1.516
 3673TIP3   OH210963   4.175   6.483   4.858
 3673TIP3    H110964   4.197   6.474   4.951
 3673TIP3    H210965   4.196   6.397   4.820
 3674TIP3   OH210966   5.254   1.301   5.556
 3674TIP3    H110967   5.290   1.372   5.608
 3674TIP3    H210968   5.164   1.327   5.539
 3675TIP3   OH210969   3.185   2.468   6.140
 3675TIP3    H110970   3.197   2.405   6.068
 3675TIP3    H210971   3.250   2.442   6.205
 3676TIP3   OH210972   4.789   7.637   0.400
 3676TIP3    H110973   4.806   7.728   0.426
 3676TIP3    H210974   4.811   7.586   0.478
 3677TIP3   OH210975   1.636   4.889   1.147
 3677TIP3    H110976   1.551   4.922   1.175
 3677TIP3    H210977   1.663   4.947   1.076
 3678TIP3   OH210978   4.795   5.112   2.212
 3678TIP3    H110979   4.705   5.140   2.231
 3678TIP3    H210980   4.821   5.059   2.287
 3679TIP3   OH210981   4.558   7.428   2.895
 3679TIP3    H110982   4.474   7.407   2.936
 3679TIP3    H210983   4.536   7.487   2.823
 3680TIP3   OH210984   0.453   1.650   5.166
 3680TIP3    H110985   0.479   1.603   5.245
 3680TIP3    H210986   0.520   1.628   5.102
 3681TIP3   OH210987   2.123   2.523   4.790
 3681TIP3    H110988   2.086   2.437   4.769
 3681TIP3    H210989   2.078   2.550   4.870
 3682TIP3   OH210990   6.621   3.910   5.970
 3682TIP3    H110991   6.560   3.984   5.970
 3682TIP3    H210992   6.626   3.882   6.061
 3683TIP3   OH210993   5.239   2.106   4.243
 3683TIP3    H110994   5.315   2.114   4.301
 3683TIP3    H210995   5.163   2.114   4.301
 3684TIP3   OH210996   7.504   0.098   5.501
 3684TIP3    H110997   7.579   0.100   5.442
 3684TIP3    H210998   7.512   0.178   5.553
 3685TIP3   OH210999   0.705   7.810   2.531
 3685TIP3    H111000   0.734   7.812   2.622
 3685TIP3    H211001   0.759   7.742   2.490
 3686TIP3   OH211002   6.436   0.895   4.114
 3686TIP3    H111003   6.474   0.969   4.066
 3686TIP3    H211004   6.429   0.825   4.050
 3687TIP3   OH211005   1.948   6.081   1.603
 3687TIP3    H111006   1.866   6.079   1.653
 3687TIP3    H211007   1.999   6.008   1.639
 3688TIP3   OH211008   3.229   6.396   2.645
 3688TIP3    H111009   3.210   6.318   2.696
 3688TIP3    H211010   3.166   6.461   2.676
 3689TIP3   OH211011   4.323   4.796   4.604
 3689TIP3    H111012   4.387   4.733   4.636
 3689TIP3    H211013   4.375   4.859   4.554
 3690TIP3   OH211014   5.185   7.567   3.810
 3690TIP3    H111015   5.200   7.503   3.740
 3690TIP3    H211016   5.092   7.558   3.831
 3691TIP3   OH211017   3.410   0.367   1.817
 3691TIP3    H111018   3.451   0.334   1.737
 3691TIP3    H211019   3.462   0.329   1.888
 3692TIP3   OH211020   3.101   5.672   6.402
 3692TIP3    H111021   3.111   5.714   6.488
 3692TIP3    H211022   3.010   5.687   6.379
 3693TIP3   OH211023   6.793   6.910   5.076
 3693TIP3    H111024   6.748   6.936   5.157
 3693TIP3    H211025   6.786   6.986   5.018
 3694TIP3   OH211026   7.032   7.207   4.096
 3694TIP3    H111027   7.089   7.279   4.069
 3694TIP3    H211028   7.047   7.199   4.191
 3695TIP3   OH211029   3.660   1.934   3.103
 3695TIP3    H111030   3.637   2.022   3.073
 3695TIP3    H211031   3.617   1.926   3.188
 3696TIP3   OH211032   3.887   1.531   4.330
 3696TIP3    H111033   3.844   1.522   4.245
 3696TIP3    H211034   3.846   1.465   4.385
 3697TIP3   OH211035   8.075   3.331   6.708
 3697TIP3    H111036   8.141   3.399   6.725
 3697TIP3    H211037   7.995   3.366   6.747
 3698TIP3   OH211038   2.102   7.505   2.998
 3698TIP3    H111039   2.095   7.586   3.049
 3698TIP3    H211040   2.013   7.470   2.998
 3699TIP3   OH211041   7.594   4.170   3.178
 3699TIP3    H111042   7.604   4.107   3.106
 3699TIP3    H211043   7.503   4.159   3.206
 3700TIP3   OH211044   0.643   1.921   5.522
 3700TIP3    H111045   0.638   1.833   5.486
 3700TIP3    H211046   0.736   1.933   5.542
 3701TIP3   OH211047   3.374   0.981   0.111
 3701TIP3    H111048   3.465   0.952   0.115
 3701TIP3    H211049   3.333   0.941   0.188
 3702TIP3   OH211050   0.235   0.379   3.554
 3702TIP3    H111051   0.231   0.314   3.624
 3702TIP3    H211052   0.269   0.330   3.479
 3703TIP3   OH211053   7.616   1.775   5.215
 3703TIP3    H111054   7.710   1.783   5.199
 3703TIP3    H211055   7.575   1.822   5.143
 3704TIP3   OH211056   1.666   1.398   3.474
 3704TIP3    H111057   1.603   1.438   3.414
 3704TIP3    H211058   1.677   1.309   3.442
 3705TIP3   OH211059   4.778   3.197   0.838
 3705TIP3    H111060   4.728   3.204   0.756
 3705TIP3    H211061   4.786   3.102   0.852
 3706TIP3   OH211062   1.595   5.274   0.334
 3706TIP3    H111063   1.533   5.236   0.272
 3706TIP3    H211064   1.568   5.240   0.419
 3707TIP3   OH211065   0.254   3.782   4.492
 3707TIP3    H111066   0.314   3.717   4.526
 3707TIP3    H211067   0.192   3.733   4.438
 3708TIP3   OH211068   3.868   4.639   0.297
 3708TIP3    H111069   3.945   4.620   0.244
 3708TIP3    H211070   3.814   4.696   0.243
 3709TIP3   OH211071   5.490   6.308   0.693
 3709TIP3    H111072   5.476   6.233   0.751
 3709TIP3    H211073   5.436   6.289   0.616
 3710TIP3   OH211074   6.660   4.619   2.607
 3710TIP3    H111075   6.627   4.636   2.695
 3710TIP3    H211076   6.595   4.562   2.567
 3711TIP3   OH211077   0.424   3.016   1.264
 3711TIP3    H111078   0.362   3.027   1.192
 3711TIP3    H211079   0.406   2.929   1.299
 3712TIP3   OH211080   2.220   2.366   2.569
 3712TIP3    H111081   2.128   2.362   2.542
 3712TIP3    H211082   2.254   2.445   2.528
 3713TIP3   OH211083   4.802   1.683   6.660
 3713TIP3    H111084   4.887   1.713   6.692
 3713TIP3    H211085   4.819   1.650   6.572
 3714TIP3   OH211086   0.615   2.284   6.075
 3714TIP3    H111087   0.560   2.233   6.134
 3714TIP3    H211088   0.700   2.239   6.075
 3715TIP3   OH211089   4.665   5.589   3.940
 3715TIP3    H111090   4.626   5.625   3.861
 3715TIP3    H211091   4.711   5.662   3.981
 3716TIP3   OH211092   2.768   3.602   5.609
 3716TIP3    H111093   2.739   3.563   5.692
 3716TIP3    H211094   2.864   3.606   5.617
 3717TIP3   OH211095   2.686   0.647   1.855
 3717TIP3    H111096   2.666   0.662   1.762
 3717TIP3    H211097   2.614   0.689   1.902
 3718TIP3   OH211098   6.094   1.472   3.823
 3718TIP3    H111099   6.160   1.493   3.889
 3718TIP3    H211100   6.025   1.537   3.837
 3719TIP3   OH211101   5.753   4.079   5.200
 3719TIP3    H111102   5.793   4.006   5.247
 3719TIP3    H211103   5.766   4.155   5.256
 3720TIP3   OH211104   8.140   4.741   2.557
 3720TIP3    H111105   8.045   4.748   2.562
 3720TIP3    H211106   8.157   4.701   2.472
 3721TIP3   OH211107   4.368   2.062   1.761
 3721TIP3    H111108   4.311   2.069   1.684
 3721TIP3    H211109   4.410   1.976   1.751
 3722TIP3   OH211110   6.059   1.942   1.008
 3722TIP3    H111111   6.060   2.038   1.000
 3722TIP3    H211112   6.148   1.919   1.033
 3723TIP3   OH211113   1.770   5.034   0.534
 3723TIP3    H111114   1.676   5.029   0.546
 3723TIP3    H211115   1.799   4.943   0.523
 3724TIP3   OH211116   5.955   6.335   5.928
 3724TIP3    H111117   6.003   6.257   5.899
 3724TIP3    H211118   5.899   6.357   5.854
 3725TIP3   OH211119   5.259   3.230   2.759
 3725TIP3    H111120   5.228   3.291   2.693
 3725TIP3    H211121   5.349   3.259   2.779
 3726TIP3   OH211122   0.847   7.435   3.659
 3726TIP3    H111123   0.752   7.427   3.670
 3726TIP3    H211124   0.869   7.365   3.598
 3727TIP3   OH211125   4.540   6.438   5.115
 3727TIP3    H111126   4.446   6.421   5.108
 3727TIP3    H211127   4.581   6.358   5.084
 3728TIP3   OH211128   3.104   5.325   3.637
 3728TIP3    H111129   3.121   5.314   3.731
 3728TIP3    H211130   3.121   5.418   3.621
 3729TIP3   OH211131   1.518   1.927   5.200
 3729TIP3    H111132   1.441   1.887   5.158
 3729TIP3    H211133   1.548   1.861   5.262
 3730TIP3   OH211134   4.851   4.859   0.699
 3730TIP3    H111135   4.862   4.797   0.627
 3730TIP3    H211136   4.757   4.862   0.715
 3731TIP3   OH211137   7.548   2.090   2.295
 3731TIP3    H111138   7.619   2.039   2.258
 3731TIP3    H211139   7.487   2.103   2.222
 3732TIP3   OH211140   6.171   3.994   3.421
 3732TIP3    H111141   6.227   4.018   3.347
 3732TIP3    H211142   6.228   3.943   3.479
 3733TIP3   OH211143   7.679   1.770   3.238
 3733TIP3    H111144   7.634   1.779   3.154
 3733TIP3    H211145   7.709   1.679   3.239
 3734TIP3   OH211146   0.029   4.530   4.833
 3734TIP3    H111147   0.026   4.599   4.899
 3734TIP3    H211148   0.120   4.498   4.836
 3735TIP3   OH211149   7.593   2.721   2.799
 3735TIP3    H111150   7.612   2.631   2.826
 3735TIP3    H211151   7.564   2.712   2.708
 3736TIP3   OH211152   2.079   7.675   3.513
 3736TIP3    H111153   2.052   7.655   3.603
 3736TIP3    H211154   2.111   7.765   3.517
 3737TIP3   OH211155   6.345   1.788   5.977
 3737TIP3    H111156   6.289   1.865   5.971
 3737TIP3    H211157   6.419   1.816   6.030
 3738TIP3   OH211158   2.550   0.627   5.140
 3738TIP3    H111159   2.490   0.615   5.214
 3738TIP3    H211160   2.497   0.612   5.062
 3739TIP3   OH211161   6.939   6.240   1.442
 3739TIP3    H111162   6.974   6.311   1.388
 3739TIP3    H211163   6.903   6.177   1.379
 3740TIP3   OH211164   0.125   7.338   2.462
 3740TIP3    H111165   0.075   7.366   2.385
 3740TIP3    H211166   0.199   7.399   2.465
 3741TIP3   OH211167   2.052   1.227   3.696
 3741TIP3    H111168   1.959   1.249   3.701
 3741TIP3    H211169   2.097   1.311   3.702
 3742TIP3   OH211170   3.221   6.348   3.843
 3742TIP3    H111171   3.197   6.433   3.880
 3742TIP3    H211172   3.205   6.357   3.749
 3743TIP3   OH211173   5.204   2.841   1.301
 3743TIP3    H111174   5.287   2.793   1.305
 3743TIP3    H211175   5.164   2.812   1.219
 3744TIP3   OH211176   6.751   0.410   1.682
 3744TIP3    H111177   6.662   0.447   1.683
 3744TIP3    H211178   6.741   0.327   1.636
 3745TIP3   OH211179   3.179   7.167   0.809
 3745TIP3    H111180   3.141   7.228   0.872
 3745TIP3    H211181   3.120   7.170   0.733
 3746TIP3   OH211182   6.999   3.661   4.427
 3746TIP3    H111183   6.954   3.580   4.452
 3746TIP3    H211184   7.031   3.698   4.509
 3747TIP3   OH211185   4.449   0.145   5.989
 3747TIP3    H111186   4.483   0.057   5.969
 3747TIP3    H211187   4.359   0.129   6.018
 3748TIP3   OH211188   3.187   7.699   3.448
 3748TIP3    H111189   3.113   7.665   3.398
 3748TIP3    H211190   3.148   7.740   3.525
 3749TIP3   OH211191   0.822   5.452   2.599
 3749TIP3    H111192   0.745   5.409   2.637
 3749TIP3    H211193   0.878   5.379   2.571
 3750TIP3   OH211194   7.914   6.509   4.465
 3750TIP3    H111195   7.991   6.525   4.520
 3750TIP3    H211196   7.890   6.418   4.483
 3751TIP3   OH211197   4.081   2.968   5.651
 3751TIP3    H111198   4.173   2.991   5.659
 3751TIP3    H211199   4.042   3.040   5.601
 3752TIP3   OH211200   2.957   3.135   5.927
 3752TIP3    H111201   3.036   3.083   5.942
 3752TIP3    H211202   2.901   3.114   6.002
 3753TIP3   OH211203   8.189   5.699   0.468
 3753TIP3    H111204   8.271   5.747   0.453
 3753TIP3    H211205   8.190   5.629   0.402
 3754TIP3   OH211206   5.288   7.361   1.174
 3754TIP3    H111207   5.320   7.339   1.262
 3754TIP3    H211208   5.286   7.457   1.173
 3755TIP3   OH211209   0.203   3.448   6.103
 3755TIP3    H111210   0.211   3.502   6.025
 3755TIP3    H211211   0.168   3.365   6.071
 3756TIP3   OH211212   0.864   5.200   5.734
 3756TIP3    H111213   0.870   5.222   5.827
 3756TIP3    H211214   0.775   5.226   5.709
 3757TIP3   OH211215   3.174   7.422   4.754
 3757TIP3    H111216   3.161   7.481   4.828
 3757TIP3    H211217   3.176   7.335   4.792
 3758TIP3   OH211218   4.202   6.085   2.572
 3758TIP3    H111219   4.168   6.117   2.488
 3758TIP3    H211220   4.297   6.079   2.558
 3759TIP3   OH211221   3.998   1.195   4.313
 3759TIP3    H111222   3.922   1.169   4.262
 3759TIP3    H211223   4.029   1.276   4.273
 3760TIP3   OH211224   3.779   0.196   2.440
 3760TIP3    H111225   3.871   0.224   2.442
 3760TIP3    H211226   3.755   0.188   2.532
 3761TIP3   OH211227   1.440   0.169   1.786
 3761TIP3    H111228   1.350   0.200   1.800
 3761TIP3    H211229   1.433   0.074   1.795
 3762TIP3   OH211230   6.655   0.731   4.728
 3762TIP3    H111231   6.718   0.686   4.671
 3762TIP3    H211232   6.575   0.737   4.675
 3763TIP3   OH211233   0.678   3.839   3.424
 3763TIP3    H111234   0.585   3.858   3.440
 3763TIP3    H211235   0.721   3.924   3.428
 3764TIP3   OH211236   7.954   0.287   5.552
 3764TIP3    H111237   8.022   0.276   5.620
 3764TIP3    H211238   7.961   0.208   5.499
 3765TIP3   OH211239   4.217   4.988   2.003
 3765TIP3    H111240   4.279   4.915   1.997
 3765TIP3    H211241   4.136   4.954   1.967
 3766TIP3   OH211242   0.783   7.626   1.206
 3766TIP3    H111243   0.810   7.538   1.235
 3766TIP3    H211244   0.818   7.684   1.274
 3767TIP3   OH211245   7.383   7.757   2.820
 3767TIP3    H111246   7.291   7.744   2.794
 3767TIP3    H211247   7.433   7.734   2.742
 3768TIP3   OH211248   0.143   0.379   4.555
 3768TIP3    H111249   0.056   0.385   4.514
 3768TIP3    H211250   0.203   0.368   4.481
 3769TIP3   OH211251   3.152   6.296   5.774
 3769TIP3    H111252   3.149   6.312   5.869
 3769TIP3    H211253   3.089   6.226   5.759
 3770TIP3   OH211254   4.232   7.734   1.284
 3770TIP3    H111255   4.226   7.664   1.219
 3770TIP3    H211256   4.326   7.753   1.290
 3771TIP3   OH211257   7.311   3.302   1.570
 3771TIP3    H111258   7.334   3.312   1.662
 3771TIP3    H211259   7.217   3.320   1.567
 3772TIP3   OH211260   4.720   7.323   4.106
 3772TIP3    H111261   4.698   7.416   4.108
 3772TIP3    H211262   4.698   7.295   4.017
 3773TIP3   OH211263   2.019   5.030   0.687
 3773TIP3    H111264   2.079   5.105   0.689
 3773TIP3    H211265   1.953   5.054   0.621
 3774TIP3   OH211266   7.826   1.988   2.470
 3774TIP3    H111267   7.804   1.895   2.465
 3774TIP3    H211268   7.844   2.014   2.380
 3775TIP3   OH211269   5.458   3.857   0.729
 3775TIP3    H111270   5.490   3.808   0.805
 3775TIP3    H211271   5.507   3.939   0.731
 3776TIP3   OH211272   4.344   1.217   6.012
 3776TIP3    H111273   4.345   1.296   6.065
 3776TIP3    H211274   4.280   1.235   5.943
 3777TIP3   OH211275   1.640   5.002   5.970
 3777TIP3    H111276   1.691   5.080   5.989
 3777TIP3    H211277   1.555   5.019   6.011
 3778TIP3   OH211278   4.800   7.711   1.367
 3778TIP3    H111279   4.728   7.695   1.306
 3778TIP3    H211280   4.879   7.695   1.315
 3779TIP3   OH211281   7.980   4.133   0.103
 3779TIP3    H111282   8.014   4.077   0.033
 3779TIP3    H211283   7.991   4.222   0.070
 3780TIP3   OH211284   4.869   3.421   5.099
 3780TIP3    H111285   4.790   3.416   5.045
 3780TIP3    H211286   4.898   3.330   5.106
 3781TIP3   OH211287   1.691   2.242   3.856
 3781TIP3    H111288   1.633   2.201   3.791
 3781TIP3    H211289   1.671   2.197   3.937
 3782TIP3   OH211290   2.486   2.723   4.581
 3782TIP3    H111291   2.466   2.648   4.525
 3782TIP3    H211292   2.575   2.706   4.612
 3783TIP3   OH211293   4.699   2.794   5.406
 3783TIP3    H111294   4.723   2.755   5.321
 3783TIP3    H211295   4.616   2.753   5.429
 3784TIP3   OH211296   2.743   4.291   2.492
 3784TIP3    H111297   2.726   4.368   2.546
 3784TIP3    H211298   2.802   4.238   2.544
 3785TIP3   OH211299   6.407   5.488   6.285
 3785TIP3    H111300   6.418   5.401   6.323
 3785TIP3    H211301   6.383   5.544   6.358
 3786TIP3   OH211302   6.005   2.433   4.346
 3786TIP3    H111303   6.017   2.340   4.324
 3786TIP3    H211304   5.929   2.460   4.295
 3787TIP3   OH211305   7.854   3.346   2.092
 3787TIP3    H111306   7.858   3.373   2.000
 3787TIP3    H211307   7.844   3.251   2.088
 3788TIP3   OH211308   4.862   2.983   1.314
 3788TIP3    H111309   4.890   3.069   1.283
 3788TIP3    H211310   4.830   2.999   1.403
 3789TIP3   OH211311   5.530   0.116   6.695
 3789TIP3    H111312   5.474   0.190   6.674
 3789TIP3    H211313   5.554   0.079   6.610
 3790TIP3   OH211314   3.975   6.595   1.892
 3790TIP3    H111315   3.883   6.610   1.914
 3790TIP3    H211316   3.990   6.649   1.814
 3791TIP3   OH211317   0.790   6.573   2.330
 3791TIP3    H111318   0.771   6.647   2.272
 3791TIP3    H211319   0.726   6.507   2.306
 3792TIP3   OH211320   6.067   5.490   0.488
 3792TIP3    H111321   6.150   5.447   0.469
 3792TIP3    H211322   6.081   5.534   0.572
 3793TIP3   OH211323   1.131   4.569   5.129
 3793TIP3    H111324   1.060   4.616   5.172
 3793TIP3    H211325   1.100   4.554   5.040
 3794TIP3   OH211326   7.003   4.349   3.379
 3794TIP3    H111327   7.066   4.321   3.446
 3794TIP3    H211328   7.020   4.292   3.304
 3795TIP3   OH211329   4.733   0.536   0.822
 3795TIP3    H111330   4.680   0.491   0.756
 3795TIP3    H211331   4.747   0.470   0.891
 3796TIP3   OH211332   8.008   5.111   2.676
 3796TIP3    H111333   7.986   5.090   2.766
 3796TIP3    H211334   7.934   5.078   2.624
 3797TIP3   OH211335   5.220   6.999   0.194
 3797TIP3    H111336   5.162   7.009   0.270
 3797TIP3    H211337   5.169   6.949   0.130
 3798TIP3   OH211338   3.604   4.578   1.055
 3798TIP3    H111339   3.562   4.600   0.971
 3798TIP3    H211340   3.536   4.532   1.104
 3799TIP3   OH211341   1.616   6.407   0.835
 3799TIP3    H111342   1.573   6.331   0.873
 3799TIP3    H211343   1.710   6.390   0.848
 3800TIP3   OH211344   5.736   4.159   1.118
 3800TIP3    H111345   5.752   4.244   1.078
 3800TIP3    H211346   5.649   4.134   1.088
 3801TIP3   OH211347   3.493   0.966   2.942
 3801TIP3    H111348   3.498   0.873   2.961
 3801TIP3    H211349   3.583   0.998   2.955
 3802TIP3   OH211350   4.261   7.308   4.810
 3802TIP3    H111351   4.177   7.345   4.839
 3802TIP3    H211352   4.251   7.213   4.823
 3803TIP3   OH211353   7.913   5.246   4.121
 3803TIP3    H111354   7.988   5.224   4.177
 3803TIP3    H211355   7.842   5.190   4.153
 3804TIP3   OH211356   7.489   0.023   6.263
 3804TIP3    H111357   7.518   0.023   6.172
 3804TIP3    H211358   7.564   0.055   6.313
 3805TIP3   OH211359   7.279   7.731   3.449
 3805TIP3    H111360   7.360   7.710   3.403
 3805TIP3    H211361   7.304   7.800   3.511
 3806TIP3   OH211362   0.489   4.889   2.536
 3806TIP3    H111363   0.466   4.806   2.580
 3806TIP3    H211364   0.409   4.915   2.491
 3807TIP3   OH211365   5.016   4.252   1.113
 3807TIP3    H111366   5.037   4.262   1.206
 3807TIP3    H211367   5.097   4.218   1.074
 3808TIP3   OH211368   6.470   0.227   0.749
 3808TIP3    H111369   6.482   0.137   0.778
 3808TIP3    H211370   6.448   0.220   0.656
 3809TIP3   OH211371   2.121   6.618   5.307
 3809TIP3    H111372   2.084   6.547   5.255
 3809TIP3    H211373   2.122   6.694   5.248
 3810TIP3   OH211374   2.906   2.610   1.907
 3810TIP3    H111375   2.985   2.610   1.960
 3810TIP3    H211376   2.858   2.532   1.935
 3811TIP3   OH211377   4.601   0.497   5.182
 3811TIP3    H111378   4.581   0.532   5.095
 3811TIP3    H211379   4.516   0.477   5.220
 3812TIP3   OH211380   6.268   0.880   6.485
 3812TIP3    H111381   6.318   0.873   6.567
 3812TIP3    H211382   6.333   0.908   6.420
 3813TIP3   OH211383   3.977   3.199   3.667
 3813TIP3    H111384   3.995   3.255   3.592
 3813TIP3    H211385   3.910   3.137   3.635
 3814TIP3   OH211386   0.356   1.248   3.288
 3814TIP3    H111387   0.438   1.295   3.272
 3814TIP3    H211388   0.378   1.185   3.356
 3815TIP3   OH211389   5.221   6.621   3.551
 3815TIP3    H111390   5.312   6.648   3.541
 3815TIP3    H211391   5.224   6.545   3.609
 3816TIP3   OH211392   2.908   2.156   2.073
 3816TIP3    H111393   2.840   2.088   2.068
 3816TIP3    H211394   2.984   2.117   2.030
 3817TIP3   OH211395   0.377   6.524   5.208
 3817TIP3    H111396   0.302   6.469   5.181
 3817TIP3    H211397   0.383   6.511   5.302
 3818TIP3   OH211398   7.488   2.734   6.743
 3818TIP3    H111399   7.421   2.666   6.735
 3818TIP3    H211400   7.571   2.687   6.731
 3819TIP3   OH211401   4.543   1.527   0.947
 3819TIP3    H111402   4.516   1.484   1.028
 3819TIP3    H211403   4.618   1.476   0.917
 3820TIP3   OH211404   6.980   3.433   1.208
 3820TIP3    H111405   6.904   3.378   1.189
 3820TIP3    H211406   6.946   3.523   1.202
 3821TIP3   OH211407   2.480   4.262   0.772
 3821TIP3    H111408   2.576   4.262   0.775
 3821TIP3    H211409   2.453   4.236   0.860
 3822TIP3   OH211410   4.221   1.152  -0.005
 3822TIP3    H111411   4.250   1.074  -0.053
 3822TIP3    H211412   4.264   1.145   0.080
 3823TIP3   OH211413   2.110   4.446   2.157
 3823TIP3    H111414   2.151   4.533   2.148
 3823TIP3    H211415   2.171   4.397   2.212
 3824TIP3   OH211416   3.666   7.201   3.426
 3824TIP3    H111417   3.721   7.218   3.350
 3824TIP3    H211418   3.677   7.108   3.444
 3825TIP3   OH211419   5.004   2.085   2.676
 3825TIP3    H111420   5.052   2.148   2.622
 3825TIP3    H211421   4.939   2.138   2.723
 3826TIP3   OH211422   1.722   4.083   1.216
 3826TIP3    H111423   1.731   4.012   1.279
 3826TIP3    H211424   1.808   4.127   1.217
 3827TIP3   OH211425   2.030   1.196   0.129
 3827TIP3    H111426   1.998   1.106   0.129
 3827TIP3    H211427   2.111   1.194   0.080
 3828TIP3   OH211428   2.037   7.808   5.760
 3828TIP3    H111429   2.055   7.801   5.854
 3828TIP3    H211430   2.120   7.787   5.719
 3829TIP3   OH211431   6.275   7.213   6.677
 3829TIP3    H111432   6.335   7.283   6.652
 3829TIP3    H211433   6.330   7.148   6.721
 3830TIP3   OH211434   1.763   7.117   3.125
 3830TIP3    H111435   1.784   7.052   3.193
 3830TIP3    H211436   1.701   7.072   3.068
 3831TIP3   OH211437   5.022   2.001   5.662
 3831TIP3    H111438   4.978   2.064   5.606
 3831TIP3    H211439   5.115   2.021   5.651
 3832TIP3   OH211440   7.670   4.656   5.394
 3832TIP3    H111441   7.694   4.607   5.472
 3832TIP3    H211442   7.575   4.667   5.399
 3833TIP3   OH211443   3.409   7.370   5.009
 3833TIP3    H111444   3.406   7.463   4.987
 3833TIP3    H211445   3.317   7.345   5.022
 3834TIP3   OH211446   6.263   5.930   0.505
 3834TIP3    H111447   6.197   5.997   0.520
 3834TIP3    H211448   6.270   5.884   0.589
 3835TIP3   OH211449   4.467   6.763   1.258
 3835TIP3    H111450   4.538   6.787   1.199
 3835TIP3    H211451   4.505   6.698   1.317
 3836TIP3   OH211452   6.554   3.294   4.470
 3836TIP3    H111453   6.601   3.365   4.427
 3836TIP3    H211454   6.516   3.335   4.548
 3837TIP3   OH211455   6.530   3.388   5.550
 3837TIP3    H111456   6.544   3.343   5.633
 3837TIP3    H211457   6.435   3.399   5.545
 3838TIP3   OH211458   4.885   7.371   0.518
 3838TIP3    H111459   4.973   7.350   0.486
 3838TIP3    H211460   4.840   7.287   0.521
 3839TIP3   OH211461   0.562   4.228   0.626
 3839TIP3    H111462   0.622   4.235   0.551
 3839TIP3    H211463   0.475   4.220   0.586
 3840TIP3   OH211464   2.110   0.097   3.097
 3840TIP3    H111465   2.049   0.095   3.170
 3840TIP3    H211466   2.106   0.008   3.060
 3841TIP3   OH211467   6.399   6.518   1.211
 3841TIP3    H111468   6.305   6.506   1.198
 3841TIP3    H211469   6.405   6.564   1.295
 3842TIP3   OH211470   2.082   7.326   6.728
 3842TIP3    H111471   2.017   7.353   6.793
 3842TIP3    H211472   2.046   7.246   6.690
 3843TIP3   OH211473   1.828   7.428   6.111
 3843TIP3    H111474   1.909   7.475   6.130
 3843TIP3    H211475   1.808   7.380   6.191
 3844TIP3   OH211476   6.085   6.198   4.218
 3844TIP3    H111477   6.109   6.240   4.136
 3844TIP3    H211478   6.169   6.175   4.259
 3845TIP3   OH211479   6.953   5.858   0.105
 3845TIP3    H111480   6.919   5.919   0.039
 3845TIP3    H211481   6.892   5.867   0.178
 3846TIP3   OH211482   4.606   2.873   0.440
 3846TIP3    H111483   4.574   2.934   0.373
 3846TIP3    H211484   4.533   2.815   0.458
 3847TIP3   OH211485   2.835   5.031   5.323
 3847TIP3    H111486   2.814   5.124   5.314
 3847TIP3    H211487   2.761   4.986   5.281
 3848TIP3   OH211488   4.366   6.750   5.921
 3848TIP3    H111489   4.402   6.752   6.009
 3848TIP3    H211490   4.361   6.843   5.895
 3849TIP3   OH211491   4.510   7.170   5.277
 3849TIP3    H111492   4.508   7.262   5.303
 3849TIP3    H211493   4.455   7.165   5.200
 3850TIP3   OH211494   0.511   2.798   3.663
 3850TIP3    H111495   0.535   2.784   3.571
 3850TIP3    H211496   0.435   2.742   3.676
 3851TIP3   OH211497   5.389   0.488   5.647
 3851TIP3    H111498   5.484   0.495   5.634
 3851TIP3    H211499   5.365   0.570   5.691
 3852TIP3   OH211500   4.172   6.095   3.391
 3852TIP3    H111501   4.134   6.072   3.476
 3852TIP3    H211502   4.103   6.073   3.328
 3853TIP3   OH211503   1.408   0.987   1.774
 3853TIP3    H111504   1.453   1.036   1.705
 3853TIP3    H211505   1.402   0.897   1.740
 3854TIP3   OH211506   2.978   0.050   4.320
 3854TIP3    H111507   2.923   0.120   4.285
 3854TIP3    H211508   3.053   0.046   4.260
 3855TIP3   OH211509   2.716   7.681   3.811
 3855TIP3    H111510   2.622   7.687   3.827
 3855TIP3    H211511   2.753   7.759   3.852
 3856TIP3   OH211512   1.004   2.959   1.852
 3856TIP3    H111513   1.015   2.968   1.946
 3856TIP3    H211514   1.093   2.949   1.818
 3857TIP3   OH211515   7.712   1.319   2.873
 3857TIP3    H111516   7.742   1.390   2.816
 3857TIP3    H211517   7.627   1.348   2.904
 3858TIP3   OH211518   4.643   6.173   0.311
 3858TIP3    H111519   4.725   6.142   0.273
 3858TIP3    H211520   4.582   6.100   0.299
 3859TIP3   OH211521   5.631   4.547   5.208
 3859TIP3    H111522   5.560   4.569   5.148
 3859TIP3    H211523   5.587   4.522   5.289
 3860TIP3   OH211524   8.221   1.287   4.493
 3860TIP3    H111525   8.246   1.324   4.577
 3860TIP3    H211526   8.291   1.225   4.472
 3861TIP3   OH211527   1.364   7.721   5.425
 3861TIP3    H111528   1.354   7.713   5.520
 3861TIP3    H211529   1.342   7.812   5.406
 3862TIP3   OH211530   2.441   6.713   5.791
 3862TIP3    H111531   2.399   6.772   5.853
 3862TIP3    H211532   2.534   6.717   5.813
 3863TIP3   OH211533   0.614   5.863   1.555
 3863TIP3    H111534   0.658   5.928   1.609
 3863TIP3    H211535   0.610   5.903   1.468
 3864TIP3   OH211536   7.170   3.633   3.473
 3864TIP3    H111537   7.141   3.720   3.449
 3864TIP3    H211538   7.170   3.633   3.569
 3865TIP3   OH211539   1.230   3.839   3.560
 3865TIP3    H111540   1.221   3.757   3.511
 3865TIP3    H211541   1.307   3.882   3.523
 3866TIP3   OH211542   7.389   6.573   3.078
 3866TIP3    H111543   7.309   6.619   3.104
 3866TIP3    H211544   7.459   6.636   3.094
 3867TIP3   OH211545   0.347   1.412   6.461
 3867TIP3    H111546   0.387   1.450   6.539
 3867TIP3    H211547   0.294   1.339   6.494
 3868TIP3   OH211548   7.222   6.519   6.419
 3868TIP3    H111549   7.233   6.495   6.327
 3868TIP3    H211550   7.228   6.436   6.467
 3869TIP3   OH211551   6.251   1.323   2.416
 3869TIP3    H111552   6.201   1.403   2.430
 3869TIP3    H211553   6.238   1.303   2.323
 3870TIP3   OH211554   0.827   6.424   3.044
 3870TIP3    H111555   0.739   6.402   3.012
 3870TIP3    H211556   0.811   6.481   3.119
 3871TIP3   OH211557   1.633   3.755   5.130
 3871TIP3    H111558   1.545   3.723   5.148
 3871TIP3    H211559   1.631   3.780   5.037
 3872TIP3   OH211560   6.556   3.404   3.690
 3872TIP3    H111561   6.482   3.344   3.701
 3872TIP3    H211562   6.515   3.488   3.668
 3873TIP3   OH211563   1.266   5.770   0.862
 3873TIP3    H111564   1.174   5.759   0.839
 3873TIP3    H211565   1.271   5.855   0.905
 3874TIP3   OH211566   7.397   4.422   2.185
 3874TIP3    H111567   7.484   4.458   2.167
 3874TIP3    H211568   7.357   4.485   2.245
 3875TIP3   OH211569   4.573   7.196   2.717
 3875TIP3    H111570   4.574   7.261   2.788
 3875TIP3    H211571   4.653   7.144   2.731
 3876TIP3   OH211572   1.686   2.177   4.652
 3876TIP3    H111573   1.624   2.191   4.724
 3876TIP3    H211574   1.696   2.264   4.613
 3877TIP3   OH211575   7.917   6.375   3.845
 3877TIP3    H111576   7.944   6.456   3.890
 3877TIP3    H211577   7.826   6.363   3.870
 3878TIP3   OH211578   5.029   2.704   0.651
 3878TIP3    H111579   5.071   2.687   0.567
 3878TIP3    H211580   4.937   2.686   0.636
 3879TIP3   OH211581   3.143   4.179   2.831
 3879TIP3    H111582   3.148   4.201   2.924
 3879TIP3    H211583   3.112   4.088   2.830
 3880TIP3   OH211584   6.414   3.016   1.258
 3880TIP3    H111585   6.362   3.061   1.192
 3880TIP3    H211586   6.379   2.927   1.259
 3881TIP3   OH211587   4.004   1.888   2.446
 3881TIP3    H111588   4.060   1.814   2.470
 3881TIP3    H211589   4.013   1.950   2.519
 3882TIP3   OH211590   7.384   1.850   1.104
 3882TIP3    H111591   7.411   1.859   1.196
 3882TIP3    H211592   7.290   1.863   1.105
 3883TIP3   OH211593   7.446   1.644   5.354
 3883TIP3    H111594   7.393   1.583   5.303
 3883TIP3    H211595   7.503   1.686   5.289
 3884TIP3   OH211596   0.099   5.354   4.507
 3884TIP3    H111597   0.080   5.445   4.485
 3884TIP3    H211598   0.161   5.360   4.580
 3885TIP3   OH211599   6.371   1.593   1.672
 3885TIP3    H111600   6.369   1.661   1.605
 3885TIP3    H211601   6.436   1.624   1.735
 3886TIP3   OH211602   1.207   2.376   4.379
 3886TIP3    H111603   1.292   2.383   4.336
 3886TIP3    H211604   1.187   2.465   4.407
 3887TIP3   OH211605   2.931   3.348   2.260
 3887TIP3    H111606   2.836   3.340   2.252
 3887TIP3    H211607   2.944   3.432   2.304
 3888TIP3   OH211608   0.300   1.499   0.196
 3888TIP3    H111609   0.225   1.550   0.226
 3888TIP3    H211610   0.296   1.503   0.101
 3889TIP3   OH211611   6.079   3.211   5.573
 3889TIP3    H111612   6.159   3.175   5.533
 3889TIP3    H211613   6.109   3.286   5.624
 3890TIP3   OH211614   7.000   5.059   6.375
 3890TIP3    H111615   6.919   5.033   6.420
 3890TIP3    H211616   6.981   5.047   6.282
 3891TIP3   OH211617   6.826   7.446   5.616
 3891TIP3    H111618   6.830   7.533   5.656
 3891TIP3    H211619   6.881   7.391   5.672
 3892TIP3   OH211620   0.548   0.752   0.314
 3892TIP3    H111621   0.593   0.728   0.395
 3892TIP3    H211622   0.460   0.717   0.324
 3893TIP3   OH211623   3.410   1.608   0.809
 3893TIP3    H111624   3.315   1.600   0.813
 3893TIP3    H211625   3.429   1.627   0.717
 3894TIP3   OH211626   3.596   1.587   5.330
 3894TIP3    H111627   3.555   1.613   5.247
 3894TIP3    H211628   3.596   1.491   5.327
 3895TIP3   OH211629   4.509   4.351   6.301
 3895TIP3    H111630   4.539   4.287   6.365
 3895TIP3    H211631   4.575   4.421   6.304
 3896TIP3   OH211632   5.166   1.794   0.483
 3896TIP3    H111633   5.213   1.876   0.466
 3896TIP3    H211634   5.156   1.754   0.397
 3897TIP3   OH211635   2.491   1.284   0.547
 3897TIP3    H111636   2.397   1.302   0.557
 3897TIP3    H211637   2.534   1.358   0.591
 3898TIP3   OH211638   6.678   5.223   5.153
 3898TIP3    H111639   6.644   5.153   5.208
 3898TIP3    H211640   6.626   5.300   5.175
 3899TIP3   OH211641   4.833   2.068   4.640
 3899TIP3    H111642   4.920   2.105   4.626
 3899TIP3    H211643   4.812   2.024   4.557
 3900TIP3   OH211644   5.597   5.591   1.715
 3900TIP3    H111645   5.532   5.609   1.782
 3900TIP3    H211646   5.646   5.672   1.705
 3901TIP3   OH211647   6.304   0.933   4.931
 3901TIP3    H111648   6.333   0.980   4.853
 3901TIP3    H211649   6.284   1.003   4.995
 3902TIP3   OH211650   1.989   0.611   5.491
 3902TIP3    H111651   2.023   0.618   5.580
 3902TIP3    H211652   2.003   0.519   5.468
 3903TIP3   OH211653   4.594   5.150   1.821
 3903TIP3    H111654   4.561   5.086   1.758
 3903TIP3    H211655   4.530   5.221   1.818
 3904TIP3   OH211656   2.970   7.050   1.829
 3904TIP3    H111657   2.951   7.004   1.748
 3904TIP3    H211658   3.065   7.042   1.839
 3905TIP3   OH211659   1.943   3.367   2.521
 3905TIP3    H111660   1.938   3.283   2.475
 3905TIP3    H211661   1.955   3.432   2.451
 3906TIP3   OH211662   5.148   3.804   6.532
 3906TIP3    H111663   5.065   3.818   6.577
 3906TIP3    H211664   5.141   3.716   6.495
 3907TIP3   OH211665   1.511   0.709   6.160
 3907TIP3    H111666   1.592   0.675   6.123
 3907TIP3    H211667   1.517   0.803   6.149
 3908TIP3   OH211668   1.124   5.880   1.972
 3908TIP3    H111669   1.066   5.852   2.043
 3908TIP3    H211670   1.097   5.970   1.954
 3909TIP3   OH211671   7.994   2.107   5.930
 3909TIP3    H111672   7.951   2.152   6.003
 3909TIP3    H211673   8.083   2.091   5.962
 3910TIP3   OH211674   1.967   3.997   4.352
 3910TIP3    H111675   2.029   3.933   4.317
 3910TIP3    H211676   2.022   4.066   4.390
 3911TIP3   OH211677   5.890   1.456   5.023
 3911TIP3    H111678   5.920   1.419   5.106
 3911TIP3    H211679   5.888   1.381   4.963
 3912TIP3   OH211680   0.959   3.706   5.258
 3912TIP3    H111681   0.893   3.671   5.317
 3912TIP3    H211682   0.921   3.696   5.170
 3913TIP3   OH211683   3.152   4.755   1.214
 3913TIP3    H111684   3.130   4.797   1.130
 3913TIP3    H211685   3.150   4.662   1.196
 3914TIP3   OH211686   5.576   7.809   1.889
 3914TIP3    H111687   5.618   7.723   1.900
 3914TIP3    H211688   5.505   7.809   1.952
 3915TIP3   OH211689   3.113   7.448   2.557
 3915TIP3    H111690   3.105   7.353   2.559
 3915TIP3    H211691   3.199   7.466   2.597
 3916TIP3   OH211692   2.461   5.702   4.327
 3916TIP3    H111693   2.424   5.790   4.316
 3916TIP3    H211694   2.554   5.717   4.346
 3917TIP3   OH211695   4.298   6.049   4.259
 3917TIP3    H111696   4.285   6.143   4.274
 3917TIP3    H211697   4.345   6.019   4.337
 3918TIP3   OH211698   3.694   0.249   2.716
 3918TIP3    H111699   3.695   0.154   2.715
 3918TIP3    H211700   3.679   0.272   2.807
 3919TIP3   OH211701   8.145   6.018   2.801
 3919TIP3    H111702   8.158   5.981   2.713
 3919TIP3    H211703   8.199   6.097   2.802
 3920TIP3   OH211704   1.590   2.979   6.068
 3920TIP3    H111705   1.617   3.006   5.980
 3920TIP3    H211706   1.668   2.937   6.105
 3921TIP3   OH211707   0.683   1.720   1.369
 3921TIP3    H111708   0.726   1.653   1.317
 3921TIP3    H211709   0.590   1.699   1.365
 3922TIP3   OH211710   0.128   6.273   4.496
 3922TIP3    H111711   0.053   6.270   4.436
 3922TIP3    H211712   0.182   6.199   4.470
 3923TIP3   OH211713   7.622   6.628   0.552
 3923TIP3    H111714   7.685   6.558   0.570
 3923TIP3    H211715   7.536   6.586   0.557
 3924TIP3   OH211716   4.082   0.819   3.566
 3924TIP3    H111717   4.168   0.824   3.606
 3924TIP3    H211718   4.024   0.792   3.638
 3925TIP3   OH211719   4.961   2.534   4.513
 3925TIP3    H111720   4.965   2.555   4.606
 3925TIP3    H211721   4.911   2.606   4.474
 3926TIP3   OH211722   1.329   3.099   3.247
 3926TIP3    H111723   1.412   3.057   3.224
 3926TIP3    H211724   1.312   3.159   3.175
 3927TIP3   OH211725   0.742   2.976   0.052
 3927TIP3    H111726   0.709   2.996   0.139
 3927TIP3    H211727   0.787   3.056   0.024
 3928TIP3   OH211728   0.802   2.294   4.874
 3928TIP3    H111729   0.817   2.357   4.803
 3928TIP3    H211730   0.714   2.260   4.857
 3929TIP3   OH211731   7.007   2.361   3.236
 3929TIP3    H111732   6.976   2.451   3.229
 3929TIP3    H211733   7.102   2.368   3.244
 3930TIP3   OH211734   0.467   2.422   1.743
 3930TIP3    H111735   0.546   2.441   1.793
 3930TIP3    H211736   0.481   2.334   1.707
 3931TIP3   OH211737   3.268   3.643   3.501
 3931TIP3    H111738   3.312   3.605   3.577
 3931TIP3    H211739   3.175   3.643   3.524
 3932TIP3   OH211740   1.424   7.677   1.885
 3932TIP3    H111741   1.334   7.711   1.882
 3932TIP3    H211742   1.478   7.750   1.855
 3933TIP3   OH211743   2.139   6.068   1.411
 3933TIP3    H111744   2.067   6.088   1.471
 3933TIP3    H211745   2.210   6.039   1.468
 3934TIP3   OH211746   2.619   0.602   4.551
 3934TIP3    H111747   2.630   0.696   4.540
 3934TIP3    H211748   2.587   0.571   4.466
 3935TIP3   OH211749   3.049   0.486   2.337
 3935TIP3    H111750   2.985   0.556   2.323
 3935TIP3    H211751   3.023   0.418   2.274
 3936TIP3   OH211752   5.433   3.170   6.450
 3936TIP3    H111753   5.421   3.231   6.377
 3936TIP3    H211754   5.526   3.146   6.446
 3937TIP3   OH211755   6.412   1.603   5.028
 3937TIP3    H111756   6.504   1.587   5.007
 3937TIP3    H211757   6.409   1.696   5.052
 3938TIP3   OH211758   7.954   6.381   1.761
 3938TIP3    H111759   7.885   6.362   1.825
 3938TIP3    H211760   7.907   6.400   1.680
 3939TIP3   OH211761   8.312   6.606   5.690
 3939TIP3    H111762   8.234   6.661   5.700
 3939TIP3    H211763   8.280   6.516   5.698
 3940TIP3   OH211764   2.683   6.209   4.954
 3940TIP3    H111765   2.654   6.297   4.932
 3940TIP3    H211766   2.608   6.153   4.932
 3941TIP3   OH211767   5.274   2.310   1.555
 3941TIP3    H111768   5.274   2.322   1.460
 3941TIP3    H211769   5.331   2.379   1.588
 3942TIP3   OH211770   7.507   6.059   6.750
 3942TIP3    H111771   7.559   6.024   6.677
 3942TIP3    H211772   7.437   5.995   6.762
 3943TIP3   OH211773   7.868   6.802   5.615
 3943TIP3    H111774   7.816   6.800   5.534
 3943TIP3    H211775   7.811   6.844   5.679
 3944TIP3   OH211776   8.059   5.717   1.961
 3944TIP3    H111777   8.051   5.794   2.016
 3944TIP3    H211778   7.995   5.655   1.996
 3945TIP3   OH211779   0.974   3.320   4.836
 3945TIP3    H111780   1.035   3.250   4.858
 3945TIP3    H211781   1.010   3.398   4.878
 3946TIP3   OH211782   1.102   3.057   5.514
 3946TIP3    H111783   1.153   3.002   5.454
 3946TIP3    H211784   1.069   2.995   5.580
 3947TIP3   OH211785   2.503   2.816   0.274
 3947TIP3    H111786   2.506   2.887   0.211
 3947TIP3    H211787   2.521   2.857   0.359
 3948TIP3   OH211788   1.014   0.230   0.258
 3948TIP3    H111789   0.962   0.196   0.185
 3948TIP3    H211790   0.981   0.184   0.335
 3949TIP3   OH211791   2.341   5.772   0.940
 3949TIP3    H111792   2.405   5.746   1.006
 3949TIP3    H211793   2.267   5.806   0.990
 3950TIP3   OH211794   0.053   5.034   0.688
 3950TIP3    H111795  -0.042   5.043   0.678
 3950TIP3    H211796   0.083   5.122   0.710
 3951TIP3   OH211797   6.436   7.010   5.430
 3951TIP3    H111798   6.349   7.032   5.398
 3951TIP3    H211799   6.493   7.023   5.354
 3952TIP3   OH211800   0.651   7.210   1.899
 3952TIP3    H111801   0.703   7.266   1.841
 3952TIP3    H211802   0.689   7.123   1.889
 3953TIP3   OH211803   2.480   0.365   4.661
 3953TIP3    H111804   2.549   0.311   4.621
 3953TIP3    H211805   2.400   0.336   4.617
 3954TIP3   OH211806   2.988   6.171   0.650
 3954TIP3    H111807   2.959   6.262   0.644
 3954TIP3    H211808   3.076   6.176   0.688
 3955TIP3   OH211809   0.431   4.985   3.564
 3955TIP3    H111810   0.518   4.959   3.535
 3955TIP3    H211811   0.409   4.923   3.634
 3956TIP3   OH211812   0.368   0.401   5.839
 3956TIP3    H111813   0.326   0.442   5.763
 3956TIP3    H211814   0.420   0.471   5.878
 3957TIP3   OH211815   0.622   6.835   1.513
 3957TIP3    H111816   0.675   6.798   1.441
 3957TIP3    H211817   0.554   6.885   1.469
 3958TIP3   OH211818   3.337   5.611   4.640
 3958TIP3    H111819   3.426   5.610   4.674
 3958TIP3    H211820   3.286   5.653   4.710
 3959TIP3   OH211821   0.924   5.559   4.114
 3959TIP3    H111822   0.937   5.483   4.056
 3959TIP3    H211823   0.855   5.533   4.174
 3960TIP3   OH211824   4.287   3.499   4.557
 3960TIP3    H111825   4.286   3.439   4.632
 3960TIP3    H211826   4.341   3.572   4.586
 3961TIP3   OH211827   1.187   1.877   0.225
 3961TIP3    H111828   1.193   1.968   0.255
 3961TIP3    H211829   1.094   1.863   0.208
 3962TIP3   OH211830   4.241   3.807   3.652
 3962TIP3    H111831   4.261   3.881   3.595
 3962TIP3    H211832   4.190   3.844   3.724
 3963TIP3   OH211833   7.930   4.161   4.967
 3963TIP3    H111834   8.017   4.158   4.927
 3963TIP3    H211835   7.885   4.233   4.923
 3964TIP3   OH211836   2.364   0.655   1.873
 3964TIP3    H111837   2.375   0.565   1.906
 3964TIP3    H211838   2.371   0.709   1.951
 3965TIP3   OH211839   7.744   7.252   5.395
 3965TIP3    H111840   7.777   7.198   5.466
 3965TIP3    H211841   7.660   7.212   5.372
 3966TIP3   OH211842   3.977   5.544   1.704
 3966TIP3    H111843   3.916   5.504   1.766
 3966TIP3    H211844   3.926   5.556   1.624
 3967TIP3   OH211845   7.661   4.655   3.553
 3967TIP3    H111846   7.644   4.602   3.475
 3967TIP3    H211847   7.616   4.737   3.538
 3968TIP3   OH211848   2.765   3.781   1.711
 3968TIP3    H111849   2.720   3.798   1.794
 3968TIP3    H211850   2.714   3.829   1.645
 3969TIP3   OH211851   2.953   5.969   6.155
 3969TIP3    H111852   2.899   6.013   6.089
 3969TIP3    H211853   3.031   5.941   6.107
 3970TIP3   OH211854   7.760   7.790   3.400
 3970TIP3    H111855   7.777   7.884   3.403
 3970TIP3    H211856   7.841   7.752   3.366
 3971TIP3   OH211857   3.169   0.133   1.340
 3971TIP3    H111858   3.171   0.194   1.414
 3971TIP3    H211859   3.238   0.165   1.281
 3972TIP3   OH211860   6.124   0.110   5.911
 3972TIP3    H111861   6.166   0.038   5.958
 3972TIP3    H211862   6.162   0.108   5.824
 3973TIP3   OH211863   2.186   7.328   5.322
 3973TIP3    H111864   2.094   7.324   5.295
 3973TIP3    H211865   2.217   7.413   5.289
 3974TIP3   OH211866   3.195   1.194   2.586
 3974TIP3    H111867   3.123   1.169   2.644
 3974TIP3    H211868   3.249   1.115   2.579
 3975TIP3   OH211869   6.926   3.363   2.214
 3975TIP3    H111870   6.913   3.458   2.221
 3975TIP3    H211871   6.850   3.325   2.257
 3976TIP3   OH211872   8.219   5.063   5.288
 3976TIP3    H111873   8.197   5.005   5.215
 3976TIP3    H211874   8.170   5.144   5.270
 3977TIP3   OH211875   4.466   3.715   4.536
 3977TIP3    H111876   4.447   3.745   4.625
 3977TIP3    H211877   4.463   3.795   4.483
 3978TIP3   OH211878   7.938   2.754   1.042
 3978TIP3    H111879   7.899   2.795   1.119
 3978TIP3    H211880   7.867   2.753   0.978
 3979TIP3   OH211881   7.349   2.680   6.013
 3979TIP3    H111882   7.264   2.693   5.971
 3979TIP3    H211883   7.331   2.619   6.085
 3980TIP3   OH211884   4.355   4.432   4.169
 3980TIP3    H111885   4.356   4.519   4.128
 3980TIP3    H211886   4.373   4.372   4.096
 3981TIP3   OH211887   4.776   4.670   4.954
 3981TIP3    H111888   4.772   4.607   4.881
 3981TIP3    H211889   4.742   4.621   5.029
 3982TIP3   OH211890   5.152   3.455   2.615
 3982TIP3    H111891   5.208   3.493   2.548
 3982TIP3    H211892   5.150   3.519   2.685
 3983TIP3   OH211893   0.947   1.721   0.104
 3983TIP3    H111894   0.945   1.737   0.198
 3983TIP3    H211895   0.901   1.796   0.065
 3984TIP3   OH211896   2.665   1.657   4.642
 3984TIP3    H111897   2.616   1.714   4.582
 3984TIP3    H211898   2.710   1.596   4.585
 3985TIP3   OH211899   3.790   6.245   3.827
 3985TIP3    H111900   3.757   6.253   3.916
 3985TIP3    H211901   3.785   6.334   3.791
 3986TIP3   OH211902   7.215   4.422   5.307
 3986TIP3    H111903   7.293   4.370   5.327
 3986TIP3    H211904   7.205   4.479   5.384
 3987TIP3   OH211905   6.460   4.965   3.716
 3987TIP3    H111906   6.545   4.948   3.676
 3987TIP3    H211907   6.413   5.018   3.651
 3988TIP3   OH211908   0.771   6.067   5.085
 3988TIP3    H111909   0.747   5.975   5.087
 3988TIP3    H211910   0.692   6.113   5.114
 3989TIP3   OH211911   5.488   1.722   2.610
 3989TIP3    H111912   5.420   1.784   2.637
 3989TIP3    H211913   5.439   1.651   2.567
 3990TIP3   OH211914   1.871   0.812   3.390
 3990TIP3    H111915   1.883   0.779   3.301
 3990TIP3    H211916   1.925   0.891   3.394
 3991TIP3   OH211917   0.177   4.908   6.138
 3991TIP3    H111918   0.198   4.876   6.050
 3991TIP3    H211919   0.089   4.874   6.155
 3992TIP3   OH211920   1.842   1.439   3.819
 3992TIP3    H111921   1.935   1.447   3.799
 3992TIP3    H211922   1.835   1.357   3.867
 3993TIP3   OH211923   6.500   3.280   5.813
 3993TIP3    H111924   6.475   3.351   5.873
 3993TIP3    H211925   6.421   3.226   5.805
 3994TIP3   OH211926   0.613   4.595   3.598
 3994TIP3    H111927   0.565   4.640   3.529
 3994TIP3    H211928   0.601   4.502   3.578
 3995TIP3   OH211929   5.678   4.773   4.950
 3995TIP3    H111930   5.692   4.681   4.974
 3995TIP3    H211931   5.606   4.771   4.886
 3996TIP3   OH211932   3.070   2.970   0.686
 3996TIP3    H111933   3.012   2.979   0.761
 3996TIP3    H211934   3.012   2.950   0.613
 3997TIP3   OH211935   3.149   7.668   3.908
 3997TIP3    H111936   3.121   7.758   3.923
 3997TIP3    H211937   3.239   7.665   3.938
 3998TIP3   OH211938   0.755   7.033   6.622
 3998TIP3    H111939   0.808   7.111   6.634
 3998TIP3    H211940   0.808   6.962   6.658
 3999TIP3   OH211941   8.252   6.215   3.311
 3999TIP3    H111942   8.200   6.144   3.348
 3999TIP3    H211943   8.341   6.199   3.343
 4000TIP3   OH211944   2.824   2.021   1.335
 4000TIP3    H111945   2.772   1.973   1.271
 4000TIP3    H211946   2.895   1.961   1.358
 4001TIP3   OH211947   0.676   7.575   4.487
 4001TIP3    H111948   0.720   7.501   4.444
 4001TIP3    H211949   0.675   7.551   4.580
 4002TIP3   OH211950   4.207   7.344   3.878
 4002TIP3    H111951   4.249   7.321   3.961
 4002TIP3    H211952   4.117   7.314   3.887
 4003TIP3   OH211953   2.309   3.257   3.178
 4003TIP3    H111954   2.233   3.247   3.235
 4003TIP3    H211955   2.277   3.234   3.091
 4004TIP3   OH211956   7.593   3.170   3.959
 4004TIP3    H111957   7.518   3.125   3.997
 4004TIP3    H211958   7.609   3.125   3.876
 4005TIP3   OH211959   2.606   3.018   1.665
 4005TIP3    H111960   2.697   2.989   1.673
 4005TIP3    H211961   2.612   3.111   1.642
 4006TIP3   OH211962   3.373   4.460   1.196
 4006TIP3    H111963   3.284   4.449   1.163
 4006TIP3    H211964   3.383   4.391   1.262
 4007TIP3   OH211965   1.205   6.327   3.048
 4007TIP3    H111966   1.120   6.330   3.003
 4007TIP3    H211967   1.238   6.239   3.029
 4008TIP3   OH211968   2.888   3.165   0.007
 4008TIP3    H111969   2.957   3.165   0.074
 4008TIP3    H211970   2.925   3.217  -0.065
 4009TIP3   OH211971   6.419   7.263   2.943
 4009TIP3    H111972   6.370   7.253   2.862
 4009TIP3    H211973   6.503   7.301   2.916
 4010TIP3   OH211974   3.324   6.928   6.582
 4010TIP3    H111975   3.253   6.864   6.574
 4010TIP3    H211976   3.390   6.884   6.636
 4011TIP3   OH211977   2.914   0.847   6.319
 4011TIP3    H111978   2.935   0.900   6.395
 4011TIP3    H211979   2.837   0.890   6.281
 4012TIP3   OH211980   5.967   3.008   3.629
 4012TIP3    H111981   5.979   2.914   3.637
 4012TIP3    H211982   5.931   3.021   3.541
 4013TIP3   OH211983   7.370   4.537   0.594
 4013TIP3    H111984   7.410   4.542   0.507
 4013TIP3    H211985   7.443   4.552   0.654
 4014TIP3   OH211986   6.177   2.626   5.293
 4014TIP3    H111987   6.189   2.607   5.200
 4014TIP3    H211988   6.083   2.618   5.307
 4015TIP3   OH211989   7.230   5.972   6.403
 4015TIP3    H111990   7.254   5.885   6.373
 4015TIP3    H211991   7.280   6.031   6.346
 4016TIP3   OH211992   7.876   3.699   4.616
 4016TIP3    H111993   7.879   3.766   4.683
 4016TIP3    H211994   7.891   3.746   4.534
 4017TIP3   OH211995   8.143   4.763   1.133
 4017TIP3    H111996   8.222   4.726   1.094
 4017TIP3    H211997   8.101   4.810   1.061
 4018TIP3   OH211998   4.893   5.440   6.340
 4018TIP3    H111999   4.951   5.505   6.381
 4018TIP3    H212000   4.953   5.378   6.299
 4019TIP3   OH212001   7.015   3.355   1.525
 4019TIP3    H112002   6.925   3.345   1.556
 4019TIP3    H212003   7.011   3.326   1.434
 4020TIP3   OH212004   4.306   6.351   2.923
 4020TIP3    H112005   4.314   6.270   2.873
 4020TIP3    H212006   4.363   6.337   2.999
 4021TIP3   OH212007   6.267   7.130   1.395
 4021TIP3    H112008   6.264   7.210   1.343
 4021TIP3    H212009   6.209   7.146   1.468
 4022TIP3   OH212010   0.019   6.604   4.944
 4022TIP3    H112011   0.100   6.553   4.948
 4022TIP3    H212012   0.042   6.689   4.981
 4023TIP3   OH212013   6.455   7.490   3.649
 4023TIP3    H112014   6.541   7.451   3.666
 4023TIP3    H212015   6.471   7.584   3.654
 4024TIP3   OH212016   3.663   1.481   4.083
 4024TIP3    H112017   3.651   1.562   4.134
 4024TIP3    H212018   3.734   1.502   4.021
 4025TIP3   OH212019   6.694   6.905   2.398
 4025TIP3    H112020   6.601   6.896   2.377
 4025TIP3    H212021   6.739   6.865   2.324
 4026TIP3   OH212022   6.694   7.515   1.652
 4026TIP3    H112023   6.722   7.603   1.626
 4026TIP3    H212024   6.689   7.519   1.748
 4027TIP3   OH212025   0.701   0.246   0.316
 4027TIP3    H112026   0.645   0.176   0.281
 4027TIP3    H212027   0.647   0.288   0.383
 4028TIP3   OH212028   2.940   6.987   2.091
 4028TIP3    H112029   2.941   7.044   2.013
 4028TIP3    H212030   2.962   6.900   2.057
 4029TIP3   OH212031   4.190   6.673   1.272
 4029TIP3    H112032   4.277   6.713   1.269
 4029TIP3    H212033   4.203   6.591   1.320
 4030TIP3   OH212034   7.655   3.174   5.574
 4030TIP3    H112035   7.598   3.143   5.504
 4030TIP3    H212036   7.597   3.191   5.648
 4031TIP3   OH212037   0.498   1.902   4.056
 4031TIP3    H112038   0.527   1.889   4.146
 4031TIP3    H212039   0.403   1.898   4.060
 4032TIP3   OH212040   0.414   3.487   5.487
 4032TIP3    H112041   0.420   3.572   5.530
 4032TIP3    H212042   0.323   3.460   5.500
 4033TIP3   OH212043   0.020   3.653   5.548
 4033TIP3    H112044   0.036   3.561   5.526
 4033TIP3    H212045   0.096   3.700   5.515
 4034TIP3   OH212046   8.319   0.259   4.256
 4034TIP3    H112047   8.262   0.304   4.194
 4034TIP3    H212048   8.261   0.235   4.329
 4035TIP3   OH212049   0.714   1.794   2.149
 4035TIP3    H112050   0.678   1.778   2.237
 4035TIP3    H212051   0.748   1.883   2.153
 4036TIP3   OH212052   2.250   4.122   2.041
 4036TIP3    H112053   2.338   4.108   2.073
 4036TIP3    H212054   2.193   4.087   2.110
 4037TIP3   OH212055   2.448   5.960   2.612
 4037TIP3    H112056   2.470   5.961   2.706
 4037TIP3    H212057   2.445   5.868   2.589
 4038TIP3   OH212058   6.073   1.940   0.461
 4038TIP3    H112059   6.146   1.882   0.441
 4038TIP3    H212060   6.101   2.027   0.431
 4039TIP3   OH212061   7.384   6.571   2.586
 4039TIP3    H112062   7.417   6.634   2.650
 4039TIP3    H212063   7.381   6.620   2.504
 4040TIP3   OH212064   3.431   4.307   6.352
 4040TIP3    H112065   3.499   4.262   6.301
 4040TIP3    H212066   3.351   4.258   6.333
 4041TIP3   OH212067   1.168   0.233   0.903
 4041TIP3    H112068   1.136   0.148   0.935
 4041TIP3    H212069   1.253   0.213   0.864
 4042TIP3   OH212070   5.030   5.960   1.717
 4042TIP3    H112071   5.007   5.868   1.728
 4042TIP3    H212072   4.973   5.992   1.648
 4043TIP3   OH212073   5.218   5.018   3.034
 4043TIP3    H112074   5.294   4.962   3.045
 4043TIP3    H212075   5.143   4.959   3.039
 4044TIP3   OH212076   1.593   2.860   3.414
 4044TIP3    H112077   1.585   2.790   3.480
 4044TIP3    H212078   1.507   2.863   3.372
 4045TIP3   OH212079   5.991   2.131   2.710
 4045TIP3    H112080   6.017   2.184   2.635
 4045TIP3    H212081   5.956   2.050   2.672
 4046TIP3   OH212082   7.394   6.967   0.431
 4046TIP3    H112083   7.458   7.037   0.424
 4046TIP3    H212084   7.420   6.918   0.509
 4047TIP3   OH212085   6.835   3.897   2.831
 4047TIP3    H112086   6.891   3.933   2.899
 4047TIP3    H212087   6.895   3.848   2.774
 4048TIP3   OH212088   6.704   7.351   2.967
 4048TIP3    H112089   6.700   7.261   2.935
 4048TIP3    H212090   6.797   7.366   2.984
 4049TIP3   OH212091   6.862   0.176   2.271
 4049TIP3    H112092   6.888   0.084   2.280
 4049TIP3    H212093   6.875   0.196   2.178
 4050TIP3   OH212094   4.986   4.851   3.055
 4050TIP3    H112095   4.916   4.849   3.120
 4050TIP3    H212096   4.940   4.854   2.971
 4051TIP3   OH212097   5.088   2.731   0.121
 4051TIP3    H112098   4.997   2.712   0.145
 4051TIP3    H212099   5.100   2.689   0.036
 4052TIP3   OH212100   2.146   3.628   4.762
 4052TIP3    H112101   2.098   3.608   4.842
 4052TIP3    H212102   2.156   3.544   4.718
 4053TIP3   OH212103   4.173   3.308   1.322
 4053TIP3    H112104   4.230   3.243   1.282
 4053TIP3    H212105   4.092   3.260   1.341
 4054TIP3   OH212106   0.789   0.182   2.360
 4054TIP3    H112107   0.733   0.251   2.324
 4054TIP3    H212108   0.739   0.102   2.347
 4055TIP3   OH212109   6.326   5.604   0.105
 4055TIP3    H112110   6.377   5.524   0.090
 4055TIP3    H212111   6.243   5.588   0.060
 4056TIP3   OH212112   1.023   1.104   0.469
 4056TIP3    H112113   1.040   1.166   0.540
 4056TIP3    H212114   1.085   1.130   0.401
 4057TIP3   OH212115   6.166   2.807  -0.011
 4057TIP3    H112116   6.212   2.859   0.055
 4057TIP3    H212117   6.167   2.718   0.023
 4058TIP3   OH212118   5.077   4.662   4.486
 4058TIP3    H112119   5.112   4.675   4.574
 4058TIP3    H212120   5.006   4.599   4.497
 4059TIP3   OH212121   7.760   7.638   1.848
 4059TIP3    H112122   7.813   7.698   1.900
 4059TIP3    H212123   7.822   7.571   1.818
 4060TIP3   OH212124   1.997   1.784   3.373
 4060TIP3    H112125   2.017   1.878   3.374
 4060TIP3    H212126   2.072   1.745   3.328
 4061TIP3   OH212127   3.137   2.758   6.466
 4061TIP3    H112128   3.072   2.796   6.524
 4061TIP3    H212129   3.086   2.703   6.406
 4062TIP3   OH212130   0.123   1.387   6.028
 4062TIP3    H112131   0.061   1.320   6.058
 4062TIP3    H212132   0.203   1.338   6.010
 4063TIP3   OH212133   4.636   7.404   3.808
 4063TIP3    H112134   4.559   7.438   3.853
 4063TIP3    H212135   4.613   7.408   3.715
 4064TIP3   OH212136   2.097   2.015   4.800
 4064TIP3    H112137   2.168   2.032   4.862
 4064TIP3    H212138   2.134   1.950   4.739
 4065TIP3   OH212139   4.579   2.008   1.977
 4065TIP3    H112140   4.503   2.037   2.027
 4065TIP3    H212141   4.557   2.027   1.886
 4066TIP3   OH212142   1.710   1.381   4.207
 4066TIP3    H112143   1.733   1.368   4.298
 4066TIP3    H212144   1.614   1.386   4.207
 4067TIP3   OH212145   1.270   1.212   3.882
 4067TIP3    H112146   1.256   1.121   3.856
 4067TIP3    H212147   1.182   1.249   3.889
 4068TIP3   OH212148   5.428   2.393   4.666
 4068TIP3    H112149   5.375   2.396   4.586
 4068TIP3    H212150   5.377   2.441   4.731
 4069TIP3   OH212151   5.344   4.676   0.934
 4069TIP3    H112152   5.308   4.649   0.850
 4069TIP3    H212153   5.407   4.606   0.957
 4070TIP3   OH212154   7.839   1.118   5.168
 4070TIP3    H112155   7.896   1.184   5.128
 4070TIP3    H212156   7.851   1.040   5.115
 4071TIP3   OH212157   7.835   1.695   0.431
 4071TIP3    H112158   7.808   1.605   0.414
 4071TIP3    H212159   7.929   1.695   0.415
 4072TIP3   OH212160   3.682   0.613   5.107
 4072TIP3    H112161   3.679   0.619   5.203
 4072TIP3    H212162   3.638   0.531   5.087
 4073TIP3   OH212163   5.139   1.370   4.420
 4073TIP3    H112164   5.047   1.362   4.395
 4073TIP3    H212165   5.141   1.344   4.512
 4074TIP3   OH212166   6.392   7.666   6.505
 4074TIP3    H112167   6.425   7.577   6.515
 4074TIP3    H212168   6.319   7.671   6.568
 4075TIP3   OH212169   8.179   2.698   4.785
 4075TIP3    H112170   8.248   2.742   4.734
 4075TIP3    H212171   8.222   2.619   4.818
 4076TIP3   OH212172   4.909   6.908   3.026
 4076TIP3    H112173   4.906   6.813   3.041
 4076TIP3    H212174   4.865   6.946   3.102
 4077TIP3   OH212175   1.396   5.413   6.023
 4077TIP3    H112176   1.320   5.356   6.029
 4077TIP3    H212177   1.400   5.437   5.930
 4078TIP3   OH212178   1.936   1.648   4.579
 4078TIP3    H112179   1.989   1.690   4.647
 4078TIP3    H212180   1.889   1.579   4.625
 4079TIP3   OH212181   0.431   1.271   0.086
 4079TIP3    H112182   0.364   1.230   0.032
 4079TIP3    H212183   0.388   1.349   0.123
 4080TIP3   OH212184   0.534   3.731   4.695
 4080TIP3    H112185   0.509   3.698   4.781
 4080TIP3    H212186   0.623   3.698   4.680
 4081TIP3   OH212187   2.815   4.458   5.725
 4081TIP3    H112188   2.857   4.417   5.649
 4081TIP3    H212189   2.731   4.490   5.692
 4082TIP3   OH212190   0.280   7.676   1.302
 4082TIP3    H112191   0.323   7.758   1.325
 4082TIP3    H212192   0.351   7.620   1.270
 4083TIP3   OH212193   1.822   4.488   0.670
 4083TIP3    H112194   1.888   4.431   0.710
 4083TIP3    H212195   1.831   4.472   0.576
 4084TIP3   OH212196   3.033   4.478   2.949
 4084TIP3    H112197   2.941   4.488   2.973
 4084TIP3    H212198   3.073   4.562   2.972
 4085TIP3   OH212199   7.446   6.743   0.199
 4085TIP3    H112200   7.389   6.757   0.123
 4085TIP3    H212201   7.434   6.822   0.252
 4086TIP3   OH212202   3.208   4.015   2.509
 4086TIP3    H112203   3.275   3.975   2.565
 4086TIP3    H212204   3.134   3.955   2.513
 4087TIP3   OH212205   1.294   5.110   6.377
 4087TIP3    H112206   1.200   5.102   6.394
 4087TIP3    H212207   1.324   5.178   6.438
 4088TIP3   OH212208   2.335   2.637   1.715
 4088TIP3    H112209   2.354   2.702   1.783
 4088TIP3    H212210   2.320   2.556   1.764
 4089TIP3   OH212211   4.359   7.157   0.526
 4089TIP3    H112212   4.329   7.236   0.481
 4089TIP3    H212213   4.292   7.091   0.505
 4090TIP3   OH212214   3.526   2.908   5.140
 4090TIP3    H112215   3.517   2.875   5.230
 4090TIP3    H212216   3.556   2.833   5.090
 4091TIP3   OH212217   0.334   5.215   1.872
 4091TIP3    H112218   0.293   5.129   1.877
 4091TIP3    H212219   0.260   5.277   1.871
 4092TIP3   OH212220   6.320   2.991   1.585
 4092TIP3    H112221   6.295   2.967   1.496
 4092TIP3    H212222   6.241   3.030   1.623
 4093TIP3   OH212223   5.966   5.382   5.388
 4093TIP3    H112224   5.920   5.342   5.314
 4093TIP3    H212225   6.028   5.443   5.348
 4094TIP3   OH212226   2.415   7.559   3.063
 4094TIP3    H112227   2.479   7.577   3.131
 4094TIP3    H212228   2.463   7.573   2.981
 4095TIP3   OH212229   2.495   0.927   5.610
 4095TIP3    H112230   2.399   0.923   5.605
 4095TIP3    H212231   2.514   0.933   5.704
 4096TIP3   OH212232   6.198   0.508   1.827
 4096TIP3    H112233   6.204   0.583   1.886
 4096TIP3    H212234   6.232   0.541   1.744
 4097TIP3   OH212235   5.130   4.641   3.196
 4097TIP3    H112236   5.142   4.698   3.272
 4097TIP3    H212237   5.060   4.682   3.146
 4098TIP3   OH212238   6.454   3.543   0.931
 4098TIP3    H112239   6.377   3.580   0.888
 4098TIP3    H212240   6.486   3.614   0.987
 4099TIP3   OH212241   7.919   3.960   5.421
 4099TIP3    H112242   7.948   3.868   5.421
 4099TIP3    H212243   7.978   4.003   5.360
 4100TIP3   OH212244   3.893   6.400   5.052
 4100TIP3    H112245   3.820   6.400   5.113
 4100TIP3    H212246   3.894   6.312   5.016
 4101TIP3   OH212247   0.232   6.941   6.504
 4101TIP3    H112248   0.185   6.958   6.586
 4101TIP3    H212249   0.324   6.940   6.529
 4102TIP3   OH212250   5.673   2.146   6.233
 4102TIP3    H112251   5.678   2.186   6.320
 4102TIP3    H212252   5.606   2.078   6.242
 4103TIP3   OH212253   4.782   4.087   6.367
 4103TIP3    H112254   4.789   4.048   6.454
 4103TIP3    H212255   4.786   4.012   6.308
 4104TIP3   OH212256   4.455   3.863   2.420
 4104TIP3    H112257   4.538   3.856   2.467
 4104TIP3    H212258   4.395   3.902   2.483
 4105TIP3   OH212259   3.041   0.477   5.228
 4105TIP3    H112260   3.033   0.383   5.245
 4105TIP3    H212261   2.954   0.512   5.247
 4106TIP3   OH212262   0.112   4.724   4.288
 4106TIP3    H112263   0.188   4.696   4.339
 4106TIP3    H212264   0.148   4.751   4.204
 4107TIP3   OH212265   4.365   1.508   2.248
 4107TIP3    H112266   4.401   1.446   2.184
 4107TIP3    H212267   4.364   1.592   2.202
 4108TIP3   OH212268   3.571   6.239   3.598
 4108TIP3    H112269   3.563   6.274   3.510
 4108TIP3    H212270   3.628   6.163   3.589
 4109TIP3   OH212271   6.405   2.666   0.213
 4109TIP3    H112272   6.375   2.608   0.282
 4109TIP3    H212273   6.501   2.659   0.216
 4110TIP3   OH212274   7.257   2.752   5.654
 4110TIP3    H112275   7.236   2.761   5.747
 4110TIP3    H212276   7.250   2.658   5.636
 4111TIP3   OH212277   3.969   5.164   6.708
 4111TIP3    H112278   3.933   5.218   6.779
 4111TIP3    H212279   3.899   5.102   6.688
 4112TIP3   OH212280   5.686   4.697   0.811
 4112TIP3    H112281   5.641   4.668   0.732
 4112TIP3    H212282   5.663   4.633   0.878
 4113TIP3   OH212283   4.448   6.006   5.028
 4113TIP3    H112284   4.445   5.931   5.088
 4113TIP3    H212285   4.504   6.070   5.073
 4114TIP3   OH212286   8.140   2.928   6.387
 4114TIP3    H112287   8.066   2.935   6.327
 4114TIP3    H212288   8.155   3.017   6.419
 4115TIP3   OH212289   5.266   2.755   0.313
 4115TIP3    H112290   5.243   2.833   0.364
 4115TIP3    H212291   5.210   2.760   0.235
 4116TIP3   OH212292   8.189   1.505   1.086
 4116TIP3    H112293   8.107   1.496   1.136
 4116TIP3    H212294   8.161   1.524   0.997
 4117TIP3   OH212295   0.203   4.869   5.120
 4117TIP3    H112296   0.112   4.878   5.092
 4117TIP3    H212297   0.246   4.948   5.088
 4118TIP3   OH212298   7.643   5.789   5.607
 4118TIP3    H112299   7.608   5.767   5.693
 4118TIP3    H212300   7.710   5.856   5.625
 4119TIP3   OH212301   3.864   5.001   3.226
 4119TIP3    H112302   3.817   5.014   3.308
 4119TIP3    H212303   3.847   4.910   3.202
 4120TIP3   OH212304   3.151   4.842   0.261
 4120TIP3    H112305   3.236   4.812   0.228
 4120TIP3    H212306   3.152   4.819   0.354
 4121TIP3   OH212307   4.942   5.032   0.232
 4121TIP3    H112308   4.866   5.071   0.189
 4121TIP3    H212309   4.962   5.092   0.305
 4122TIP3   OH212310   5.375   0.276   3.233
 4122TIP3    H112311   5.333   0.354   3.198
 4122TIP3    H212312   5.414   0.233   3.156
 4123TIP3   OH212313   3.474   4.870   6.744
 4123TIP3    H112314   3.509   4.835   6.662
 4123TIP3    H212315   3.529   4.830   6.812
 4124TIP3   OH212316   2.338   7.283   2.882
 4124TIP3    H112317   2.367   7.193   2.864
 4124TIP3    H212318   2.271   7.274   2.949
 4125TIP3   OH212319   3.587   1.346   0.077
 4125TIP3    H112320   3.654   1.315   0.138
 4125TIP3    H212321   3.536   1.410   0.127
 4126TIP3   OH212322   7.792   6.970   3.198
 4126TIP3    H112323   7.733   7.030   3.243
 4126TIP3    H212324   7.736   6.897   3.170
 4127TIP3   OH212325   7.202   4.104   6.009
 4127TIP3    H112326   7.182   4.082   5.918
 4127TIP3    H212327   7.146   4.047   6.061
 4128TIP3   OH212328   4.539   7.436   1.343
 4128TIP3    H112329   4.450   7.422   1.312
 4128TIP3    H212330   4.593   7.427   1.264
 4129TIP3   OH212331   5.783   2.212   3.803
 4129TIP3    H112332   5.749   2.135   3.849
 4129TIP3    H212333   5.822   2.177   3.723
 4130TIP3   OH212334   1.356   0.494   2.827
 4130TIP3    H112335   1.335   0.401   2.813
 4130TIP3    H212336   1.297   0.541   2.768
 4131TIP3   OH212337   0.753   2.667   0.585
 4131TIP3    H112338   0.799   2.637   0.507
 4131TIP3    H212339   0.793   2.751   0.606
 4132TIP3   OH212340   0.314   0.604   2.149
 4132TIP3    H112341   0.373   0.530   2.140
 4132TIP3    H212342   0.371   0.681   2.146
 4133TIP3   OH212343   6.191   3.299   3.476
 4133TIP3    H112344   6.248   3.245   3.421
 4133TIP3    H212345   6.224   3.388   3.466
 4134TIP3   OH212346   5.455   6.896   2.121
 4134TIP3    H112347   5.486   6.918   2.208
 4134TIP3    H212348   5.360   6.886   2.131
 4135TIP3   OH212349   4.384   0.368   3.694
 4135TIP3    H112350   4.327   0.442   3.671
 4135TIP3    H212351   4.472   0.396   3.667
 4136TIP3   OH212352   2.702   4.433   1.855
 4136TIP3    H112353   2.626   4.400   1.808
 4136TIP3    H212354   2.686   4.527   1.863
 4137TIP3   OH212355   0.055   4.217   0.508
 4137TIP3    H112356  -0.005   4.195   0.437
 4137TIP3    H212357  -0.002   4.232   0.584
 4138TIP3   OH212358   8.246   1.677   0.675
 4138TIP3    H112359   8.177   1.616   0.701
 4138TIP3    H212360   8.200   1.745   0.625
 4139TIP3   OH212361   3.423   4.239   3.718
 4139TIP3    H112362   3.327   4.245   3.711
 4139TIP3    H212363   3.438   4.156   3.762
 4140TIP3   OH212364   5.200   4.836   2.560
 4140TIP3    H112365   5.274   4.788   2.600
 4140TIP3    H212366   5.132   4.770   2.551
 4141TIP3   OH212367   5.574   0.004   0.149
 4141TIP3    H112368   5.531   0.089   0.137
 4141TIP3    H212369   5.571  -0.012   0.243
 4142TIP3   OH212370   0.543   1.949   3.445
 4142TIP3    H112371   0.548   1.855   3.433
 4142TIP3    H212372   0.534   1.985   3.357
 4143TIP3   OH212373   5.876   7.004   0.521
 4143TIP3    H112374   5.890   7.016   0.615
 4143TIP3    H212375   5.790   7.042   0.504
 4144TIP3   OH212376   0.911   7.387   5.152
 4144TIP3    H112377   0.992   7.340   5.173
 4144TIP3    H212378   0.940   7.460   5.096
 4145TIP3   OH212379   2.840   0.418   4.525
 4145TIP3    H112380   2.753   0.449   4.501
 4145TIP3    H212381   2.824   0.348   4.588
 4146TIP3   OH212382   3.160   2.045   1.701
 4146TIP3    H112383   3.125   2.046   1.612
 4146TIP3    H212384   3.250   2.077   1.692
 4147TIP3   OH212385   2.487   1.426   0.054
 4147TIP3    H112386   2.582   1.426   0.065
 4147TIP3    H212387   2.456   1.361   0.117
 4148TIP3   OH212388   3.693   6.594   1.960
 4148TIP3    H112389   3.607   6.636   1.955
 4148TIP3    H212390   3.687   6.536   2.035
 4149TIP3   OH212391   3.730   3.818   2.293
 4149TIP3    H112392   3.713   3.910   2.315
 4149TIP3    H212393   3.684   3.805   2.210
 4150TIP3   OH212394   7.564   4.212   0.892
 4150TIP3    H112395   7.528   4.296   0.863
 4150TIP3    H212396   7.640   4.198   0.835
 4151TIP3   OH212397   6.663   4.261   3.115
 4151TIP3    H112398   6.580   4.300   3.143
 4151TIP3    H212399   6.711   4.332   3.072
 4152TIP3   OH212400   4.443   2.038   3.029
 4152TIP3    H112401   4.422   1.982   2.955
 4152TIP3    H212402   4.362   2.043   3.080
 4153TIP3   OH212403   0.857   5.087   6.089
 4153TIP3    H112404   0.932   5.028   6.084
 4153TIP3    H212405   0.839   5.095   6.183
 4154TIP3   OH212406   7.254   0.301   5.662
 4154TIP3    H112407   7.210   0.331   5.582
 4154TIP3    H212408   7.213   0.351   5.732
 4155TIP3   OH212409   7.639   2.706   1.116
 4155TIP3    H112410   7.579   2.731   1.186
 4155TIP3    H212411   7.584   2.688   1.041
 4156TIP3   OH212412   0.615   6.707   0.280
 4156TIP3    H112413   0.707   6.698   0.257
 4156TIP3    H212414   0.592   6.624   0.322
 4157TIP3   OH212415   1.072   3.556   2.792
 4157TIP3    H112416   1.084   3.512   2.876
 4157TIP3    H212417   1.000   3.509   2.750
 4158TIP3   OH212418   6.181   6.752   1.278
 4158TIP3    H112419   6.216   6.778   1.193
 4158TIP3    H212420   6.259   6.739   1.333
 4159TIP3   OH212421   3.376   7.311   1.920
 4159TIP3    H112422   3.356   7.397   1.884
 4159TIP3    H212423   3.319   7.302   1.996
 4160TIP3   OH212424   6.496   2.051   3.585
 4160TIP3    H112425   6.504   2.072   3.492
 4160TIP3    H212426   6.443   2.122   3.622
 4161TIP3   OH212427   6.904   1.176   0.571
 4161TIP3    H112428   6.944   1.158   0.656
 4161TIP3    H212429   6.849   1.253   0.585
 4162TIP3   OH212430   2.298   7.643   4.739
 4162TIP3    H112431   2.340   7.675   4.820
 4162TIP3    H212432   2.301   7.548   4.747
 4163TIP3   OH212433   5.436   4.327   6.228
 4163TIP3    H112434   5.371   4.257   6.236
 4163TIP3    H212435   5.489   4.303   6.152
 4164TIP3   OH212436   0.429   3.079   2.419
 4164TIP3    H112437   0.366   3.079   2.491
 4164TIP3    H212438   0.376   3.067   2.341
 4165TIP3   OH212439   2.367   2.763   3.071
 4165TIP3    H112440   2.429   2.835   3.083
 4165TIP3    H212441   2.383   2.704   3.145
 4166TIP3   OH212442   7.386   2.453   1.201
 4166TIP3    H112443   7.367   2.470   1.293
 4166TIP3    H212444   7.301   2.459   1.157
 4167TIP3   OH212445   3.597   5.579   2.944
 4167TIP3    H112446   3.656   5.650   2.916
 4167TIP3    H212447   3.509   5.612   2.926
 4168TIP3   OH212448   0.881   3.906   3.947
 4168TIP3    H112449   0.901   3.839   4.012
 4168TIP3    H212450   0.966   3.939   3.919
 4169TIP3   OH212451   4.952   3.129   6.294
 4169TIP3    H112452   4.952   3.049   6.346
 4169TIP3    H212453   4.960   3.099   6.203
 4170TIP3   OH212454   2.832   5.575   2.192
 4170TIP3    H112455   2.837   5.492   2.145
 4170TIP3    H212456   2.739   5.592   2.203
 4171TIP3   OH212457   7.203   5.003   6.023
 4171TIP3    H112458   7.111   4.978   6.012
 4171TIP3    H212459   7.244   4.979   5.939
 4172TIP3   OH212460   3.764   1.901   2.294
 4172TIP3    H112461   3.829   1.929   2.358
 4172TIP3    H212462   3.814   1.854   2.227
 4173TIP3   OH212463   0.796   5.748   3.929
 4173TIP3    H112464   0.843   5.689   3.870
 4173TIP3    H212465   0.843   5.740   4.013
 4174TIP3   OH212466   4.775   2.735   6.329
 4174TIP3    H112467   4.702   2.796   6.338
 4174TIP3    H212468   4.853   2.789   6.342
 4175TIP3   OH212469   6.340   1.252   1.842
 4175TIP3    H112470   6.390   1.191   1.897
 4175TIP3    H212471   6.400   1.275   1.771
 4176TIP3   OH212472   7.872   1.825   5.166
 4176TIP3    H112473   7.909   1.737   5.160
 4176TIP3    H212474   7.925   1.878   5.106
 4177TIP3   OH212475   7.772   2.074   5.359
 4177TIP3    H112476   7.736   2.092   5.272
 4177TIP3    H212477   7.851   2.023   5.343
 4178TIP3   OH212478   1.421   5.677   1.770
 4178TIP3    H112479   1.462   5.591   1.780
 4178TIP3    H212480   1.424   5.693   1.676
 4179TIP3   OH212481   5.335   2.328   5.120
 4179TIP3    H112482   5.414   2.371   5.153
 4179TIP3    H212483   5.315   2.373   5.038
 4180TIP3   OH212484   5.503   6.711   3.461
 4180TIP3    H112485   5.498   6.807   3.461
 4180TIP3    H212486   5.559   6.691   3.536
 4181TIP3   OH212487   3.603   5.260   0.581
 4181TIP3    H112488   3.658   5.266   0.503
 4181TIP3    H212489   3.543   5.188   0.563
 4182TIP3   OH212490   1.954   2.631   5.295
 4182TIP3    H112491   1.923   2.568   5.360
 4182TIP3    H212492   2.001   2.697   5.345
 4183TIP3   OH212493   1.944   4.784   2.968
 4183TIP3    H112494   1.915   4.861   2.919
 4183TIP3    H212495   2.028   4.811   3.006
 4184TIP3   OH212496   0.625   3.139   0.608
 4184TIP3    H112497   0.601   3.210   0.549
 4184TIP3    H212498   0.693   3.176   0.665
 4185TIP3   OH212499   2.608   2.107   2.545
 4185TIP3    H112500   2.582   2.175   2.483
 4185TIP3    H212501   2.526   2.078   2.586
 4186TIP3   OH212502   6.343   5.384   0.409
 4186TIP3    H112503   6.394   5.346   0.337
 4186TIP3    H212504   6.355   5.478   0.400
 4187TIP3   OH212505   1.477   2.398   4.580
 4187TIP3    H112506   1.535   2.409   4.505
 4187TIP3    H212507   1.435   2.483   4.591
 4188TIP3   OH212508   2.458   4.077   4.456
 4188TIP3    H112509   2.371   4.102   4.487
 4188TIP3    H212510   2.515   4.147   4.488
 4189TIP3   OH212511   7.263   5.712   6.301
 4189TIP3    H112512   7.172   5.727   6.275
 4189TIP3    H212513   7.294   5.643   6.243
 4190TIP3   OH212514   6.035   5.174   5.855
 4190TIP3    H112515   5.946   5.169   5.890
 4190TIP3    H212516   6.046   5.266   5.832
 4191TIP3   OH212517   4.003   4.779   2.860
 4191TIP3    H112518   3.991   4.703   2.916
 4191TIP3    H212519   3.953   4.759   2.781
 4192TIP3   OH212520   2.858   7.658   1.442
 4192TIP3    H112521   2.921   7.722   1.475
 4192TIP3    H212522   2.908   7.577   1.433
 4193TIP3   OH212523   6.987   2.875   0.348
 4193TIP3    H112524   7.035   2.927   0.284
 4193TIP3    H212525   6.963   2.937   0.417
 4194TIP3   OH212526   3.715   6.553   1.101
 4194TIP3    H112527   3.748   6.493   1.168
 4194TIP3    H212528   3.620   6.556   1.116
 4195TIP3   OH212529   4.195   7.066   0.157
 4195TIP3    H112530   4.218   6.976   0.137
 4195TIP3    H212531   4.174   7.065   0.251
 4196TIP3   OH212532   1.450   7.132   6.682
 4196TIP3    H112533   1.385   7.099   6.620
 4196TIP3    H212534   1.434   7.084   6.763
 4197TIP3   OH212535   4.435   6.836   4.390
 4197TIP3    H112536   4.508   6.898   4.384
 4197TIP3    H212537   4.378   6.860   4.317
 4198TIP3   OH212538   6.156   7.803   2.256
 4198TIP3    H112539   6.188   7.743   2.189
 4198TIP3    H212540   6.063   7.780   2.267
 4199TIP3   OH212541   6.868   2.889   2.421
 4199TIP3    H112542   6.821   2.810   2.447
 4199TIP3    H212543   6.806   2.936   2.366
 4200TIP3   OH212544   7.881   7.776   6.497
 4200TIP3    H112545   7.920   7.708   6.551
 4200TIP3    H212546   7.857   7.732   6.415
 4201TIP3   OH212547   4.513   3.852   5.884
 4201TIP3    H112548   4.558   3.840   5.968
 4201TIP3    H212549   4.520   3.946   5.866
 4202TIP3   OH212550   5.945   3.127   2.829
 4202TIP3    H112551   5.870   3.073   2.856
 4202TIP3    H212552   5.920   3.216   2.854
 4203TIP3   OH212553   1.979   1.779   5.024
 4203TIP3    H112554   1.896   1.795   4.980
 4203TIP3    H212555   1.960   1.793   5.116
 4204TIP3   OH212556   2.045   2.979   0.761
 4204TIP3    H112557   2.016   3.070   0.769
 4204TIP3    H212558   2.007   2.949   0.678
 4205TIP3   OH212559   4.653   6.332   2.657
 4205TIP3    H112560   4.652   6.400   2.725
 4205TIP3    H212561   4.739   6.339   2.617
 4206TIP3   OH212562   6.739   2.198   6.305
 4206TIP3    H112563   6.828   2.175   6.279
 4206TIP3    H212564   6.702   2.116   6.338
 4207TIP3   OH212565   7.723   6.408   1.918
 4207TIP3    H112566   7.713   6.495   1.880
 4207TIP3    H212567   7.692   6.418   2.008
 4208TIP3   OH212568   4.415   7.228   6.342
 4208TIP3    H112569   4.357   7.298   6.373
 4208TIP3    H212570   4.499   7.272   6.327
 4209TIP3   OH212571   3.917   2.998   0.282
 4209TIP3    H112572   3.849   3.053   0.321
 4209TIP3    H212573   3.898   2.910   0.315
 4210TIP3   OH212574   5.521   4.384   1.306
 4210TIP3    H112575   5.490   4.294   1.307
 4210TIP3    H212576   5.454   4.434   1.353
 4211TIP3   OH212577   3.760   6.668   3.237
 4211TIP3    H112578   3.705   6.609   3.185
 4211TIP3    H212579   3.758   6.631   3.325
 4212TIP3   OH212580   0.104   4.230   6.424
 4212TIP3    H112581   0.031   4.274   6.382
 4212TIP3    H212582   0.182   4.275   6.390
 4213TIP3   OH212583   2.311   3.028   0.308
 4213TIP3    H112584   2.284   3.077   0.230
 4213TIP3    H212585   2.313   2.937   0.278
 4214TIP3   OH212586   4.448   3.938   4.353
 4214TIP3    H112587   4.492   3.996   4.416
 4214TIP3    H212588   4.476   3.970   4.267
 4215TIP3   OH212589   7.757   7.675   6.275
 4215TIP3    H112590   7.687   7.740   6.260
 4215TIP3    H212591   7.714   7.605   6.324
 4216TIP3   OH212592   7.994   5.230   6.513
 4216TIP3    H112593   8.063   5.217   6.578
 4216TIP3    H212594   8.011   5.162   6.447
 4217TIP3   OH212595   8.210   1.247   0.833
 4217TIP3    H112596   8.178   1.204   0.913
 4217TIP3    H212597   8.259   1.179   0.787
 4218TIP3   OH212598   0.600   0.669   3.338
 4218TIP3    H112599   0.526   0.646   3.395
 4218TIP3    H212600   0.620   0.589   3.291
 4219TIP3   OH212601   3.387   0.310   4.714
 4219TIP3    H112602   3.472   0.266   4.726
 4219TIP3    H212603   3.393   0.389   4.768
 4220TIP3   OH212604   2.219   5.984   6.713
 4220TIP3    H112605   2.144   5.951   6.664
 4220TIP3    H212606   2.215   5.940   6.798
 4221TIP3   OH212607   3.935   2.298   1.286
 4221TIP3    H112608   3.870   2.248   1.334
 4221TIP3    H212609   4.019   2.271   1.321
 4222TIP3   OH212610   1.336   0.884   4.819
 4222TIP3    H112611   1.384   0.874   4.737
 4222TIP3    H212612   1.291   0.799   4.831
 4223TIP3   OH212613   1.437   1.755   1.796
 4223TIP3    H112614   1.448   1.839   1.751
 4223TIP3    H212615   1.409   1.779   1.884
 4224TIP3   OH212616   2.372   6.058   0.180
 4224TIP3    H112617   2.318   6.133   0.154
 4224TIP3    H212618   2.309   5.989   0.201
 4225TIP3   OH212619   1.491   0.969   0.476
 4225TIP3    H112620   1.447   1.041   0.432
 4225TIP3    H212621   1.438   0.951   0.554
 4226TIP3   OH212622   7.790   3.785   3.954
 4226TIP3    H112623   7.733   3.848   3.997
 4226TIP3    H212624   7.768   3.701   3.994
 4227TIP3   OH212625   4.958   4.416   6.300
 4227TIP3    H112626   5.034   4.468   6.272
 4227TIP3    H212627   4.968   4.408   6.395
 4228TIP3   OH212628   6.445   2.874   5.143
 4228TIP3    H112629   6.445   2.916   5.229
 4228TIP3    H212630   6.374   2.918   5.095
 4229TIP3   OH212631   2.311   7.266   2.225
 4229TIP3    H112632   2.224   7.290   2.258
 4229TIP3    H212633   2.296   7.185   2.176
 4230TIP3   OH212634   3.240   6.306   5.129
 4230TIP3    H112635   3.169   6.255   5.169
 4230TIP3    H212636   3.319   6.278   5.177
 4231TIP3   OH212637   7.142   0.409   5.162
 4231TIP3    H112638   7.185   0.438   5.242
 4231TIP3    H212639   7.165   0.475   5.097
 4232TIP3   OH212640   7.874   3.735   1.478
 4232TIP3    H112641   7.912   3.708   1.395
 4232TIP3    H212642   7.944   3.785   1.522
 4233TIP3   OH212643   3.808   0.479   1.006
 4233TIP3    H112644   3.894   0.438   0.999
 4233TIP3    H212645   3.769   0.468   0.919
 4234TIP3   OH212646   4.255   1.305   1.603
 4234TIP3    H112647   4.186   1.254   1.562
 4234TIP3    H212648   4.209   1.376   1.649
 4235TIP3   OH212649   7.714   0.609   3.411
 4235TIP3    H112650   7.676   0.578   3.329
 4235TIP3    H212651   7.786   0.666   3.385
 4236TIP3   OH212652   1.226   3.054   3.668
 4236TIP3    H112653   1.147   3.040   3.615
 4236TIP3    H212654   1.273   3.124   3.623
 4237TIP3   OH212655   5.874   2.936   5.215
 4237TIP3    H112656   5.907   2.867   5.157
 4237TIP3    H212657   5.941   3.004   5.212
 4238TIP3   OH212658   3.785   6.544   5.444
 4238TIP3    H112659   3.857   6.492   5.480
 4238TIP3    H212660   3.826   6.602   5.379
 4239TIP3   OH212661   2.364   3.601   3.032
 4239TIP3    H112662   2.270   3.613   3.048
 4239TIP3    H212663   2.372   3.605   2.936
 4240TIP3   OH212664   6.551   4.010   2.536
 4240TIP3    H112665   6.634   3.992   2.581
 4240TIP3    H212666   6.576   4.063   2.461
 4241TIP3   OH212667   2.973   0.530   1.134
 4241TIP3    H112668   2.877   0.531   1.135
 4241TIP3    H212669   2.999   0.613   1.173
 4242TIP3   OH212670   4.836   4.277   2.257
 4242TIP3    H112671   4.875   4.324   2.183
 4242TIP3    H212672   4.742   4.293   2.248
 4243TIP3   OH212673   0.229   2.225   2.837
 4243TIP3    H112674   0.302   2.285   2.823
 4243TIP3    H212675   0.253   2.176   2.915
 4244TIP3   OH212676   7.559   0.484   3.161
 4244TIP3    H112677   7.564   0.580   3.160
 4244TIP3    H212678   7.592   0.457   3.075
 4245TIP3   OH212679   7.024   5.674   6.141
 4245TIP3    H112680   7.081   5.738   6.100
 4245TIP3    H212681   6.937   5.691   6.105
 4246TIP3   OH212682   2.098   2.252   4.682
 4246TIP3    H112683   2.041   2.210   4.618
 4246TIP3    H212684   2.094   2.194   4.759
 4247TIP3   OH212685   0.882   0.098   0.470
 4247TIP3    H112686   0.806   0.148   0.439
 4247TIP3    H212687   0.868   0.090   0.564
 4248TIP3   OH212688   4.152   1.526   6.403
 4248TIP3    H112689   4.134   1.438   6.438
 4248TIP3    H212690   4.198   1.510   6.321
 4249TIP3   OH212691   2.574   0.981   4.793
 4249TIP3    H112692   2.640   1.035   4.749
 4249TIP3    H212693   2.625   0.923   4.850
 4250TIP3   OH212694   1.587   3.541   4.834
 4250TIP3    H112695   1.657   3.594   4.874
 4250TIP3    H212696   1.519   3.605   4.812
 4251TIP3   OH212697   4.355   0.995   1.653
 4251TIP3    H112698   4.351   0.961   1.742
 4251TIP3    H212699   4.379   1.087   1.663
 4252TIP3   OH212700   6.242   3.885   0.964
 4252TIP3    H112701   6.267   3.941   0.890
 4252TIP3    H212702   6.323   3.868   1.010
 4253TIP3   OH212703   5.746   5.320   2.266
 4253TIP3    H112704   5.702   5.403   2.285
 4253TIP3    H212705   5.676   5.260   2.240
 4254TIP3   OH212706   0.042   1.892   4.971
 4254TIP3    H112707   0.047   1.798   4.984
 4254TIP3    H212708   0.120   1.927   5.014
 4255TIP3   OH212709   2.536   2.918   0.515
 4255TIP3    H112710   2.529   3.012   0.499
 4255TIP3    H212711   2.488   2.904   0.597
 4256TIP3   OH212712   3.031   6.791   6.025
 4256TIP3    H112713   3.034   6.698   6.002
 4256TIP3    H212714   2.945   6.803   6.067
 4257TIP3   OH212715   2.955   3.092   5.630
 4257TIP3    H112716   2.934   3.167   5.575
 4257TIP3    H212717   2.990   3.130   5.710
 4258TIP3   OH212718   5.731   4.080   5.772
 4258TIP3    H112719   5.641   4.060   5.746
 4258TIP3    H212720   5.749   4.021   5.845
 4259TIP3   OH212721   8.113   6.059   3.484
 4259TIP3    H112722   8.148   5.984   3.436
 4259TIP3    H212723   8.048   6.022   3.542
 4260TIP3   OH212724   7.351   0.939   0.348
 4260TIP3    H112725   7.308   0.893   0.421
 4260TIP3    H212726   7.316   1.028   0.352
 4261TIP3   OH212727   4.605   6.946   4.173
 4261TIP3    H112728   4.631   6.854   4.176
 4261TIP3    H212729   4.570   6.958   4.085
 4262TIP3   OH212730   1.822   4.100   2.835
 4262TIP3    H112731   1.795   4.191   2.833
 4262TIP3    H212732   1.743   4.052   2.859
 4263TIP3   OH212733   0.896   0.604   4.355
 4263TIP3    H112734   0.835   0.622   4.427
 4263TIP3    H212735   0.980   0.591   4.397
 4264TIP3   OH212736   2.314   7.475   0.828
 4264TIP3    H112737   2.296   7.451   0.919
 4264TIP3    H212738   2.406   7.454   0.815
 4265TIP3   OH212739   5.069   1.120   0.294
 4265TIP3    H112740   5.091   1.029   0.313
 4265TIP3    H212741   5.073   1.163   0.379
 4266TIP3   OH212742   0.808   5.024   6.383
 4266TIP3    H112743   0.753   4.949   6.365
 4266TIP3    H212744   0.896   4.987   6.394
 4267TIP3   OH212745   0.080   0.644   1.746
 4267TIP3    H112746  -0.006   0.677   1.723
 4267TIP3    H212747   0.087   0.658   1.840
 4268TIP3   OH212748   3.231   2.326   2.234
 4268TIP3    H112749   3.253   2.323   2.141
 4268TIP3    H212750   3.182   2.246   2.250
 4269TIP3   OH212751   1.022   4.485   5.375
 4269TIP3    H112752   1.025   4.580   5.366
 4269TIP3    H212753   1.105   4.455   5.337
 4270TIP3   OH212754   1.369   2.136   5.759
 4270TIP3    H112755   1.387   2.047   5.789
 4270TIP3    H212756   1.418   2.145   5.678
 4271TIP3   OH212757   0.368   1.041   3.462
 4271TIP3    H112758   0.295   0.981   3.480
 4271TIP3    H212759   0.401   1.065   3.549
 4272TIP3   OH212760   4.320   3.913   1.953
 4272TIP3    H112761   4.325   3.911   2.049
 4272TIP3    H212762   4.389   3.975   1.928
 4273TIP3   OH212763   8.108   4.004   5.770
 4273TIP3    H112764   8.178   3.972   5.713
 4273TIP3    H212765   8.028   3.969   5.731
 4274TIP3   OH212766   1.998   5.416   1.508
 4274TIP3    H112767   1.939   5.491   1.508
 4274TIP3    H212768   2.053   5.428   1.585
 4275TIP3   OH212769   3.258   2.697   3.292
 4275TIP3    H112770   3.214   2.616   3.317
 4275TIP3    H212771   3.243   2.757   3.365
 4276TIP3   OH212772   0.390   1.611   1.389
 4276TIP3    H112773   0.366   1.695   1.351
 4276TIP3    H212774   0.328   1.549   1.351
 4277TIP3   OH212775   2.949   0.045   5.828
 4277TIP3    H112776   3.008   0.100   5.778
 4277TIP3    H212777   2.908   0.104   5.892
 4278TIP3   OH212778   5.796   0.362   3.724
 4278TIP3    H112779   5.786   0.386   3.816
 4278TIP3    H212780   5.714   0.317   3.702
 4279TIP3   OH212781   2.446   6.599   3.296
 4279TIP3    H112782   2.351   6.599   3.293
 4279TIP3    H212783   2.473   6.634   3.211
 4280TIP3   OH212784   2.043   4.377   4.018
 4280TIP3    H112785   1.948   4.371   4.031
 4280TIP3    H212786   2.080   4.330   4.093
 4281TIP3   OH212787   1.804   7.689   2.620
 4281TIP3    H112788   1.872   7.701   2.553
 4281TIP3    H212789   1.842   7.724   2.700
 4282TIP3   OH212790   8.185   4.861   5.801
 4282TIP3    H112791   8.202   4.930   5.737
 4282TIP3    H212792   8.092   4.870   5.822
 4283TIP3   OH212793   4.504   3.599   2.550
 4283TIP3    H112794   4.564   3.647   2.493
 4283TIP3    H212795   4.429   3.579   2.495
 4284TIP3   OH212796   8.036   0.670   0.673
 4284TIP3    H112797   8.041   0.765   0.663
 4284TIP3    H212798   8.022   0.637   0.584
 4285TIP3   OH212799   3.324   3.970   5.861
 4285TIP3    H112800   3.369   4.019   5.792
 4285TIP3    H212801   3.231   3.975   5.836
 4286TIP3   OH212802   3.894   0.579   5.599
 4286TIP3    H112803   3.877   0.642   5.529
 4286TIP3    H212804   3.964   0.523   5.565
 4287TIP3   OH212805   3.494   7.101   6.434
 4287TIP3    H112806   3.442   7.181   6.434
 4287TIP3    H212807   3.444   7.040   6.488
 4288TIP3   OH212808   7.698   5.721   5.312
 4288TIP3    H112809   7.743   5.804   5.330
 4288TIP3    H212810   7.646   5.704   5.390
 4289TIP3   OH212811   1.598   2.700   1.723
 4289TIP3    H112812   1.685   2.679   1.688
 4289TIP3    H212813   1.613   2.775   1.781
 4290TIP3   OH212814   6.077   4.788   4.730
 4290TIP3    H112815   6.021   4.733   4.675
 4290TIP3    H212816   6.016   4.832   4.790
 4291TIP3   OH212817   4.374   2.211   0.007
 4291TIP3    H112818   4.429   2.224   0.085
 4291TIP3    H212819   4.299   2.161   0.039
 4292TIP3   OH212820   6.780   6.799   5.959
 4292TIP3    H112821   6.799   6.881   5.914
 4292TIP3    H212822   6.684   6.795   5.961
 4293TIP3   OH212823   0.029   1.984   2.930
 4293TIP3    H112824   0.095   2.053   2.926
 4293TIP3    H212825  -0.054   2.031   2.917
 4294TIP3   OH212826   5.351   5.320   3.483
 4294TIP3    H112827   5.387   5.348   3.567
 4294TIP3    H212828   5.275   5.265   3.507
 4295TIP3   OH212829   6.613   3.974   4.408
 4295TIP3    H112830   6.570   4.037   4.466
 4295TIP3    H212831   6.549   3.956   4.340
 4296TIP3   OH212832   0.289   3.256   1.405
 4296TIP3    H112833   0.248   3.190   1.349
 4296TIP3    H212834   0.382   3.235   1.402
 4297TIP3   OH212835   4.760   4.274   2.892
 4297TIP3    H112836   4.779   4.364   2.920
 4297TIP3    H212837   4.762   4.223   2.973
 4298TIP3   OH212838   5.009   6.513   4.425
 4298TIP3    H112839   5.061   6.501   4.346
 4298TIP3    H212840   5.012   6.607   4.442
 4299TIP3   OH212841   7.630   0.593   6.101
 4299TIP3    H112842   7.688   0.547   6.162
 4299TIP3    H212843   7.678   0.672   6.076
 4300TIP3   OH212844   5.287   7.289   4.663
 4300TIP3    H112845   5.255   7.292   4.573
 4300TIP3    H212846   5.302   7.381   4.686
 4301TIP3   OH212847   3.883   2.598   1.727
 4301TIP3    H112848   3.953   2.584   1.663
 4301TIP3    H212849   3.907   2.543   1.801
 4302TIP3   OH212850   3.062   3.838   2.177
 4302TIP3    H112851   3.052   3.853   2.083
 4302TIP3    H212852   3.148   3.875   2.198
 4303TIP3   OH212853   4.367   0.584   2.659
 4303TIP3    H112854   4.389   0.492   2.643
 4303TIP3    H212855   4.310   0.608   2.586
 4304TIP3   OH212856   7.947   4.481   0.782
 4304TIP3    H112857   7.897   4.522   0.712
 4304TIP3    H212858   7.914   4.391   0.786
 4305TIP3   OH212859   4.020   5.220   0.949
 4305TIP3    H112860   3.998   5.280   1.020
 4305TIP3    H212861   3.936   5.200   0.907
 4306TIP3   OH212862   0.716   1.892   5.876
 4306TIP3    H112863   0.740   1.847   5.957
 4306TIP3    H212864   0.630   1.857   5.853
 4307TIP3   OH212865   4.319   5.315   0.912
 4307TIP3    H112866   4.277   5.349   0.991
 4307TIP3    H212867   4.400   5.274   0.943
 4308TIP3   OH212868   3.693   6.824   2.435
 4308TIP3    H112869   3.753   6.817   2.361
 4308TIP3    H212870   3.607   6.802   2.400
 4309TIP3   OH212871   6.011   6.678   5.011
 4309TIP3    H112872   6.044   6.598   4.972
 4309TIP3    H212873   5.932   6.652   5.059
 4310TIP3   OH212874   3.505   4.590   6.074
 4310TIP3    H112875   3.437   4.552   6.129
 4310TIP3    H212876   3.493   4.685   6.084
 4311TIP3   OH212877   6.221   2.004   5.338
 4311TIP3    H112878   6.269   1.951   5.274
 4311TIP3    H212879   6.152   2.047   5.286
 4312TIP3   OH212880   6.144   5.302   4.953
 4312TIP3    H112881   6.170   5.307   5.045
 4312TIP3    H212882   6.050   5.285   4.956
 4313TIP3   OH212883   0.933   3.036   5.048
 4313TIP3    H112884   0.864   2.988   5.001
 4313TIP3    H212885   0.995   3.061   4.980
 4314TIP3   OH212886   1.469   5.035   4.045
 4314TIP3    H112887   1.410   5.068   4.112
 4314TIP3    H212888   1.478   4.942   4.066
 4315TIP3   OH212889   4.403   4.808   2.756
 4315TIP3    H112890   4.339   4.876   2.737
 4315TIP3    H212891   4.359   4.727   2.731
 4316TIP3   OH212892   7.325   7.333   4.442
 4316TIP3    H112893   7.261   7.263   4.429
 4316TIP3    H212894   7.271   7.411   4.458
 4317TIP3   OH212895   3.981   7.261   2.782
 4317TIP3    H112896   3.973   7.186   2.723
 4317TIP3    H212897   3.928   7.236   2.858
 4318TIP3   OH212898   3.243   0.572   3.619
 4318TIP3    H112899   3.151   0.587   3.642
 4318TIP3    H212900   3.240   0.536   3.530
 4319TIP3   OH212901   8.002   2.839   2.072
 4319TIP3    H112902   8.076   2.833   2.012
 4319TIP3    H212903   8.011   2.926   2.113
 4320TIP3   OH212904   3.720   7.237   3.709
 4320TIP3    H112905   3.717   7.305   3.777
 4320TIP3    H212906   3.677   7.278   3.634
 4321TIP3   OH212907   2.404   1.867   6.323
 4321TIP3    H112908   2.487   1.896   6.362
 4321TIP3    H212909   2.340   1.875   6.395
 4322TIP3   OH212910   3.755   0.468   3.640
 4322TIP3    H112911   3.717   0.457   3.553
 4322TIP3    H212912   3.685   0.445   3.701
 4323TIP3   OH212913   5.154   6.007   0.931
 4323TIP3    H112914   5.063   5.983   0.914
 4323TIP3    H212915   5.206   5.942   0.883
 4324TIP3   OH212916   0.813   7.798   5.295
 4324TIP3    H112917   0.852   7.837   5.216
 4324TIP3    H212918   0.888   7.765   5.345
 4325TIP3   OH212919   6.051   6.479   5.586
 4325TIP3    H112920   6.121   6.512   5.530
 4325TIP3    H212921   6.095   6.428   5.653
 4326TIP3   OH212922   2.179   3.433   5.939
 4326TIP3    H112923   2.162   3.354   5.990
 4326TIP3    H212924   2.219   3.494   6.002
 4327TIP3   OH212925   2.090   5.371   1.243
 4327TIP3    H112926   2.071   5.392   1.335
 4327TIP3    H212927   2.184   5.381   1.236
 4328TIP3   OH212928   3.672   4.930   4.926
 4328TIP3    H112929   3.606   4.991   4.959
 4328TIP3    H212930   3.621   4.854   4.896
 4329TIP3   OH212931   4.698   5.791   3.138
 4329TIP3    H112932   4.731   5.876   3.166
 4329TIP3    H212933   4.622   5.775   3.194
 4330TIP3   OH212934   3.990   7.631   2.440
 4330TIP3    H112935   3.914   7.685   2.419
 4330TIP3    H212936   3.974   7.601   2.530
 4331TIP3   OH212937   0.643   5.683   1.764
 4331TIP3    H112938   0.706   5.614   1.744
 4331TIP3    H212939   0.640   5.736   1.684
 4332TIP3   OH212940   0.638   0.318   4.475
 4332TIP3    H112941   0.712   0.379   4.484
 4332TIP3    H212942   0.570   0.355   4.530
 4333TIP3   OH212943   4.409   4.592   3.398
 4333TIP3    H112944   4.369   4.505   3.397
 4333TIP3    H212945   4.471   4.589   3.471
 4334TIP3   OH212946   4.112   0.772   6.621
 4334TIP3    H112947   4.132   0.760   6.714
 4334TIP3    H212948   4.175   0.838   6.592
 4335TIP3   OH212949   1.528   2.752   0.649
 4335TIP3    H112950   1.586   2.810   0.599
 4335TIP3    H212951   1.546   2.664   0.615
 4336TIP3   OH212952   8.205   3.119   5.092
 4336TIP3    H112953   8.183   3.028   5.073
 4336TIP3    H212954   8.285   3.113   5.145
 4337TIP3   OH212955   3.820   1.580   6.516
 4337TIP3    H112956   3.813   1.583   6.421
 4337TIP3    H212957   3.912   1.600   6.534
 4338TIP3   OH212958   0.292   7.000   3.251
 4338TIP3    H112959   0.326   7.054   3.322
 4338TIP3    H212960   0.218   7.050   3.216
 4339TIP3   OH212961   1.830   3.919   3.974
 4339TIP3    H112962   1.780   3.958   3.902
 4339TIP3    H212963   1.793   3.831   3.984
 4340TIP3   OH212964   4.082   6.236   4.765
 4340TIP3    H112965   4.013   6.232   4.832
 4340TIP3    H212966   4.163   6.225   4.814
 4341TIP3   OH212967   4.129   3.044   3.466
 4341TIP3    H112968   4.128   3.084   3.553
 4341TIP3    H212969   4.059   3.088   3.419
 4342TIP3   OH212970   4.212   1.395   3.915
 4342TIP3    H112971   4.136   1.424   3.865
 4342TIP3    H212972   4.180   1.321   3.967
 4343TIP3   OH212973   2.344   5.196   4.821
 4343TIP3    H112974   2.311   5.109   4.797
 4343TIP3    H212975   2.350   5.243   4.738
 4344TIP3   OH212976   6.984   1.461   2.892
 4344TIP3    H112977   6.949   1.545   2.859
 4344TIP3    H212978   7.045   1.433   2.824
 4345TIP3   OH212979   6.423   5.845   2.558
 4345TIP3    H112980   6.478   5.824   2.633
 4345TIP3    H212981   6.483   5.886   2.495
 4346TIP3   OH212982   6.496   6.703   0.921
 4346TIP3    H112983   6.480   6.716   1.015
 4346TIP3    H212984   6.542   6.782   0.893
 4347TIP3   OH212985   8.257   1.665   6.670
 4347TIP3    H112986   8.270   1.653   6.576
 4347TIP3    H212987   8.333   1.622   6.710
 4348TIP3   OH212988   5.575   5.287   1.144
 4348TIP3    H112989   5.548   5.307   1.054
 4348TIP3    H212990   5.656   5.238   1.134
 4349TIP3   OH212991   3.173   3.281   6.201
 4349TIP3    H112992   3.103   3.266   6.265
 4349TIP3    H212993   3.169   3.204   6.144
 4350TIP3   OH212994   4.652   7.319   1.119
 4350TIP3    H112995   4.566   7.302   1.081
 4350TIP3    H212996   4.714   7.284   1.055
 4351TIP3   OH212997   6.649   2.278   3.675
 4351TIP3    H112998   6.628   2.345   3.740
 4351TIP3    H212999   6.731   2.306   3.637
 4352TIP3   OH213000   4.590   0.556   3.242
 4352TIP3    H113001   4.653   0.605   3.189
 4352TIP3    H213002   4.561   0.484   3.185
 4353TIP3   OH213003   8.143   6.910   4.638
 4353TIP3    H113004   8.232   6.890   4.608
 4353TIP3    H213005   8.109   6.827   4.670
 4354TIP3   OH213006   4.662   2.022   5.322
 4354TIP3    H113007   4.749   1.987   5.339
 4354TIP3    H213008   4.640   1.992   5.234
 4355TIP3   OH213009   3.346   3.801   0.743
 4355TIP3    H113010   3.384   3.813   0.656
 4355TIP3    H213011   3.273   3.862   0.746
 4356TIP3   OH213012   3.190   0.058   5.207
 4356TIP3    H113013   3.151  -0.010   5.151
 4356TIP3    H213014   3.115   0.108   5.239
 4357TIP3   OH213015   3.900   5.401   1.155
 4357TIP3    H113016   3.811   5.428   1.133
 4357TIP3    H213017   3.942   5.480   1.190
 4358TIP3   OH213018   0.497   6.163   2.499
 4358TIP3    H113019   0.480   6.093   2.563
 4358TIP3    H213020   0.420   6.162   2.442
 4359TIP3   OH213021   0.970   1.623   6.100
 4359TIP3    H113022   1.039   1.686   6.119
 4359TIP3    H213023   1.000   1.576   6.022
 4360TIP3   OH213024   8.094   4.112   1.282
 4360TIP3    H113025   8.149   4.098   1.205
 4360TIP3    H213026   8.149   4.163   1.341
 4361TIP3   OH213027   0.360   6.807   3.090
 4361TIP3    H113028   0.355   6.879   3.152
 4361TIP3    H213029   0.290   6.747   3.117
 4362TIP3   OH213030   1.153   7.811   5.157
 4362TIP3    H113031   1.183   7.811   5.248
 4362TIP3    H213032   1.214   7.754   5.111
 4363TIP3   OH213033   4.713   3.917   2.535
 4363TIP3    H113034   4.808   3.909   2.538
 4363TIP3    H213035   4.696   4.009   2.556
 4364TIP3   OH213036   7.175   6.267   1.923
 4364TIP3    H113037   7.260   6.236   1.956
 4364TIP3    H213038   7.198   6.332   1.857
 4365TIP3   OH213039   3.047   7.150   1.470
 4365TIP3    H113040   2.963   7.143   1.515
 4365TIP3    H213041   3.041   7.086   1.399
 4366TIP3   OH213042   6.551   0.002   1.605
 4366TIP3    H113043   6.625   0.061   1.619
 4366TIP3    H213044   6.541  -0.044   1.688
 4367TIP3   OH213045   6.875   5.275   3.137
 4367TIP3    H113046   6.874   5.311   3.225
 4367TIP3    H213047   6.940   5.327   3.090
 4368TIP3   OH213048   1.710   1.172   3.079
 4368TIP3    H113049   1.733   1.084   3.051
 4368TIP3    H213050   1.659   1.208   3.007
 4369TIP3   OH213051   2.220   1.482   6.396
 4369TIP3    H113052   2.149   1.422   6.420
 4369TIP3    H213053   2.216   1.552   6.461
 4370TIP3   OH213054   6.596   5.679   3.785
 4370TIP3    H113055   6.684   5.714   3.775
 4370TIP3    H213056   6.600   5.625   3.864
 4371TIP3   OH213057   0.896   5.302   0.741
 4371TIP3    H113058   0.808   5.327   0.713
 4371TIP3    H213059   0.899   5.207   0.729
 4372TIP3   OH213060   0.197   7.765   3.033
 4372TIP3    H113061   0.106   7.788   3.020
 4372TIP3    H213062   0.231   7.746   2.946
 4373TIP3   OH213063   0.360   3.600   3.802
 4373TIP3    H113064   0.377   3.593   3.708
 4373TIP3    H213065   0.442   3.631   3.839
 4374TIP3   OH213066   5.425   0.004   2.154
 4374TIP3    H113067   5.380  -0.021   2.072
 4374TIP3    H213068   5.458   0.092   2.137
 4375TIP3   OH213069   8.116   1.741   0.374
 4375TIP3    H113070   8.119   1.731   0.279
 4375TIP3    H213071   8.136   1.834   0.388
 4376TIP3   OH213072   2.479   1.788   4.469
 4376TIP3    H113073   2.488   1.877   4.435
 4376TIP3    H213074   2.445   1.738   4.395
 4377TIP3   OH213075   6.065   3.325   1.581
 4377TIP3    H113076   5.994   3.388   1.578
 4377TIP3    H213077   6.125   3.358   1.647
 4378TIP3   OH213078   1.624   6.841   1.938
 4378TIP3    H113079   1.608   6.935   1.928
 4378TIP3    H213080   1.661   6.831   2.025
 4379TIP3   OH213081   7.277   5.877   2.141
 4379TIP3    H113082   7.210   5.870   2.072
 4379TIP3    H213083   7.358   5.849   2.099
 4380TIP3   OH213084   4.380   7.484   2.128
 4380TIP3    H113085   4.298   7.496   2.175
 4380TIP3    H213086   4.448   7.494   2.195
 4381TIP3   OH213087   2.770   0.400   1.540
 4381TIP3    H113088   2.782   0.308   1.519
 4381TIP3    H213089   2.824   0.415   1.618
 4382TIP3   OH213090   1.201   1.025   3.560
 4382TIP3    H113091   1.177   0.956   3.622
 4382TIP3    H213092   1.147   1.100   3.586
 4383TIP3   OH213093   3.378   7.479   2.628
 4383TIP3    H113094   3.434   7.413   2.588
 4383TIP3    H213095   3.416   7.563   2.601
 4384TIP3   OH213096   6.561   2.382   4.865
 4384TIP3    H113097   6.654   2.397   4.850
 4384TIP3    H213098   6.552   2.380   4.960
 4385TIP3   OH213099   5.661   0.518   5.691
 4385TIP3    H113100   5.718   0.566   5.751
 4385TIP3    H213101   5.684   0.426   5.705
 4386TIP3   OH213102   7.062   3.165   1.288
 4386TIP3    H113103   7.126   3.125   1.229
 4386TIP3    H213104   6.993   3.198   1.231
 4387TIP3   OH213105   7.836   6.882   2.122
 4387TIP3    H113106   7.846   6.834   2.204
 4387TIP3    H213107   7.762   6.840   2.079
 4388TIP3   OH213108   4.628   1.209   3.105
 4388TIP3    H113109   4.558   1.243   3.050
 4388TIP3    H213110   4.612   1.114   3.108
 4389TIP3   OH213111   3.573   2.674   4.016
 4389TIP3    H113112   3.550   2.620   4.092
 4389TIP3    H213113   3.603   2.611   3.950
 4390TIP3   OH213114   2.521   5.717   0.019
 4390TIP3    H113115   2.603   5.676  -0.010
 4390TIP3    H213116   2.523   5.708   0.115
 4391TIP3   OH213117   6.849   3.406   4.756
 4391TIP3    H113118   6.938   3.428   4.727
 4391TIP3    H213119   6.824   3.332   4.701
 4392TIP3   OH213120   5.895   1.790   3.415
 4392TIP3    H113121   5.876   1.725   3.347
 4392TIP3    H213122   5.812   1.797   3.464
 4393TIP3   OH213123   6.731   1.433   3.071
 4393TIP3    H113124   6.645   1.420   3.031
 4393TIP3    H213125   6.786   1.464   3.000
 4394TIP3   OH213126   7.490   5.925   2.870
 4394TIP3    H113127   7.570   5.883   2.899
 4394TIP3    H213128   7.424   5.855   2.872
 4395TIP3   OH213129   7.288   1.458   0.475
 4395TIP3    H113130   7.233   1.463   0.554
 4395TIP3    H213131   7.299   1.550   0.449
 4396TIP3   OH213132   5.272   5.437   4.500
 4396TIP3    H113133   5.256   5.420   4.593
 4396TIP3    H213134   5.278   5.533   4.494
 4397TIP3   OH213135   3.591   1.373   0.538
 4397TIP3    H113136   3.521   1.437   0.530
 4397TIP3    H213137   3.550   1.289   0.515
 4398TIP3   OH213138   5.090   5.281   4.821
 4398TIP3    H113139   5.167   5.319   4.864
 4398TIP3    H213140   5.126   5.220   4.757
 4399TIP3   OH213141   2.372   2.552   5.111
 4399TIP3    H113142   2.420   2.600   5.042
 4399TIP3    H213143   2.354   2.466   5.072
 4400TIP3   OH213144   1.150   7.826   1.989
 4400TIP3    H113145   1.124   7.767   2.060
 4400TIP3    H213146   1.105   7.792   1.912
 4401TIP3   OH213147   2.586   5.017   4.794
 4401TIP3    H113148   2.657   5.029   4.730
 4401TIP3    H213149   2.629   4.976   4.869
 4402TIP3   OH213150   5.548   3.942   5.045
 4402TIP3    H113151   5.633   3.985   5.053
 4402TIP3    H213152   5.562   3.854   5.078
 4403TIP3   OH213153   2.883   2.853   2.161
 4403TIP3    H113154   2.930   2.869   2.243
 4403TIP3    H213155   2.938   2.789   2.115
 4404TIP3   OH213156   3.493   5.889   4.689
 4404TIP3    H113157   3.559   5.873   4.622
 4404TIP3    H213158   3.413   5.907   4.640
 4405TIP3   OH213159   3.988   0.859   1.965
 4405TIP3    H113160   3.901   0.856   1.926
 4405TIP3    H213161   3.973   0.843   2.058
 4406TIP3   OH213162   1.950   7.784   1.952
 4406TIP3    H113163   1.947   7.877   1.973
 4406TIP3    H213164   1.964   7.781   1.858
 4407TIP3   OH213165   3.996   1.139   5.641
 4407TIP3    H113166   3.900   1.146   5.642
 4407TIP3    H213167   4.021   1.160   5.551
 4408TIP3   OH213168   0.818   1.344   0.563
 4408TIP3    H113169   0.782   1.276   0.506
 4408TIP3    H213170   0.907   1.315   0.582
 4409TIP3   OH213171   0.389   0.234   1.872
 4409TIP3    H113172   0.364   0.295   1.803
 4409TIP3    H213173   0.466   0.188   1.838
 4410TIP3   OH213174   0.552   3.734   5.571
 4410TIP3    H113175   0.528   3.826   5.565
 4410TIP3    H213176   0.520   3.706   5.656
 4411TIP3   OH213177   2.770   2.092   5.107
 4411TIP3    H113178   2.837   2.154   5.078
 4411TIP3    H213179   2.787   2.081   5.201
 4412TIP3   OH213180   3.066   4.955   0.023
 4412TIP3    H113181   3.122   4.932   0.096
 4412TIP3    H213182   2.980   4.918   0.045
 4413TIP3   OH213183   0.302   5.596   5.998
 4413TIP3    H113184   0.343   5.538   6.062
 4413TIP3    H213185   0.313   5.550   5.914
 4414TIP3   OH213186   0.330   5.300   1.171
 4414TIP3    H113187   0.245   5.274   1.134
 4414TIP3    H213188   0.336   5.394   1.152
 4415TIP3   OH213189   5.293   6.241   2.598
 4415TIP3    H113190   5.204   6.271   2.616
 4415TIP3    H213191   5.344   6.321   2.584
 4416TIP3   OH213192   4.029   6.696   3.758
 4416TIP3    H113193   4.118   6.707   3.792
 4416TIP3    H213194   4.025   6.756   3.684
 4417TIP3   OH213195   7.442   7.804   4.100
 4417TIP3    H113196   7.469   7.754   4.177
 4417TIP3    H213197   7.356   7.769   4.078
 4418TIP3   OH213198   5.048   1.104   6.400
 4418TIP3    H113199   4.965   1.066   6.428
 4418TIP3    H213200   5.031   1.136   6.311
 4419TIP3   OH213201   3.043   0.831   3.812
 4419TIP3    H113202   3.044   0.799   3.902
 4419TIP3    H213203   2.961   0.797   3.776
 4420TIP3   OH213204   5.713   4.370   2.505
 4420TIP3    H113205   5.652   4.410   2.567
 4420TIP3    H213206   5.696   4.276   2.512
 4421TIP3   OH213207   3.038   4.852   0.751
 4421TIP3    H113208   3.034   4.866   0.846
 4421TIP3    H213209   3.073   4.934   0.716
 4422TIP3   OH213210   2.481   3.497   5.759
 4422TIP3    H113211   2.498   3.555   5.834
 4422TIP3    H213212   2.506   3.410   5.790
 4423TIP3   OH213213   5.726   3.550   0.345
 4423TIP3    H113214   5.729   3.473   0.288
 4423TIP3    H213215   5.791   3.532   0.413
 4424TIP3   OH213216   0.396   0.141   4.960
 4424TIP3    H113217   0.312   0.097   4.972
 4424TIP3    H213218   0.412   0.138   4.866
 4425TIP3   OH213219   0.844   0.835   1.789
 4425TIP3    H113220   0.754   0.804   1.799
 4425TIP3    H213221   0.837   0.913   1.734
 4426TIP3   OH213222   5.510   5.860   5.934
 4426TIP3    H113223   5.414   5.863   5.936
 4426TIP3    H213224   5.536   5.952   5.929
 4427TIP3   OH213225   8.258   2.980   5.425
 4427TIP3    H113226   8.204   2.918   5.375
 4427TIP3    H213227   8.339   2.988   5.374
 4428TIP3   OH213228   6.584   6.909   1.535
 4428TIP3    H113229   6.580   6.946   1.624
 4428TIP3    H213230   6.584   6.985   1.477
 4429TIP3   OH213231   0.301   1.745   6.700
 4429TIP3    H113232   0.262   1.661   6.679
 4429TIP3    H213233   0.333   1.779   6.617
 4430TIP3   OH213234   0.793   1.147   1.074
 4430TIP3    H113235   0.820   1.056   1.061
 4430TIP3    H213236   0.806   1.163   1.168
 4431TIP3   OH213237   4.044   4.486   5.863
 4431TIP3    H113238   4.085   4.496   5.949
 4431TIP3    H213239   4.006   4.398   5.865
 4432TIP3   OH213240   3.166   4.257   3.111
 4432TIP3    H113241   3.138   4.340   3.074
 4432TIP3    H213242   3.094   4.230   3.168
 4433TIP3   OH213243   4.163   3.210   5.917
 4433TIP3    H113244   4.128   3.264   5.846
 4433TIP3    H213245   4.093   3.208   5.983
 4434TIP3   OH213246   2.553   2.856   4.226
 4434TIP3    H113247   2.457   2.853   4.230
 4434TIP3    H213248   2.573   2.916   4.155
 4435TIP3   OH213249   2.692   7.212   0.734
 4435TIP3    H113250   2.644   7.130   0.719
 4435TIP3    H213251   2.633   7.281   0.703
 4436TIP3   OH213252   1.121   6.628   6.697
 4436TIP3    H113253   1.084   6.540   6.707
 4436TIP3    H213254   1.208   6.622   6.736
 4437TIP3   OH213255   2.032   7.678   4.392
 4437TIP3    H113256   2.122   7.676   4.424
 4437TIP3    H213257   1.994   7.596   4.425
 4438TIP3   OH213258   4.910   4.886   6.320
 4438TIP3    H113259   4.971   4.869   6.248
 4438TIP3    H213260   4.870   4.970   6.298
 4439TIP3   OH213261   3.655   5.531   1.108
 4439TIP3    H113262   3.654   5.594   1.180
 4439TIP3    H213263   3.613   5.577   1.036
 4440TIP3   OH213264   7.400   6.334   6.657
 4440TIP3    H113265   7.313   6.299   6.637
 4440TIP3    H213266   7.452   6.256   6.677
 4441TIP3   OH213267   5.503   2.364   3.555
 4441TIP3    H113268   5.489   2.278   3.596
 4441TIP3    H213269   5.439   2.366   3.484
 4442TIP3   OH213270   2.656   6.043   3.752
 4442TIP3    H113271   2.739   6.049   3.800
 4442TIP3    H213272   2.639   5.950   3.745
 4443TIP3   OH213273   6.850   2.861   5.193
 4443TIP3    H113274   6.828   2.946   5.156
 4443TIP3    H213275   6.786   2.801   5.155
 4444TIP3   OH213276   2.650   0.664   3.271
 4444TIP3    H113277   2.681   0.618   3.349
 4444TIP3    H213278   2.600   0.598   3.223
 4445TIP3   OH213279   2.808   4.006   4.210
 4445TIP3    H113280   2.847   3.919   4.209
 4445TIP3    H213281   2.849   4.050   4.284
 4446TIP3   OH213282   6.292   6.974   5.919
 4446TIP3    H113283   6.330   6.987   5.832
 4446TIP3    H213284   6.210   6.927   5.902
 4447TIP3   OH213285   5.001   3.581   1.263
 4447TIP3    H113286   4.957   3.536   1.335
 4447TIP3    H213287   5.082   3.614   1.301
 4448TIP3   OH213288   4.067   5.895   4.548
 4448TIP3    H113289   4.030   5.983   4.543
 4448TIP3    H213290   4.161   5.910   4.561
 4449TIP3   OH213291   2.918   6.089   2.130
 4449TIP3    H113292   2.932   6.155   2.197
 4449TIP3    H213293   2.979   6.018   2.153
 4450TIP3   OH213294   3.214   1.381   2.155
 4450TIP3    H113295   3.215   1.453   2.092
 4450TIP3    H213296   3.122   1.356   2.162
 4451TIP3   OH213297   5.179   5.198   4.024
 4451TIP3    H113298   5.195   5.220   4.116
 4451TIP3    H213299   5.087   5.174   4.020
 4452TIP3   OH213300   2.812   5.077   0.176
 4452TIP3    H113301   2.802   5.030   0.094
 4452TIP3    H213302   2.725   5.112   0.194
 4453TIP3   OH213303   0.660   5.924   1.197
 4453TIP3    H113304   0.576   5.934   1.151
 4453TIP3    H213305   0.650   5.976   1.276
 4454TIP3   OH213306   1.380   0.469   3.881
 4454TIP3    H113307   1.307   0.528   3.863
 4454TIP3    H213308   1.414   0.445   3.795
 4455TIP3   OH213309   1.753   0.090   4.846
 4455TIP3    H113310   1.722   0.104   4.757
 4455TIP3    H213311   1.759   0.179   4.883
 4456TIP3   OH213312   4.769   6.701   1.126
 4456TIP3    H113313   4.785   6.606   1.129
 4456TIP3    H213314   4.839   6.735   1.070
 4457TIP3   OH213315   7.295   6.827   0.963
 4457TIP3    H113316   7.315   6.850   0.873
 4457TIP3    H213317   7.278   6.733   0.961
 4458TIP3   OH213318   5.054   1.179   3.632
 4458TIP3    H113319   5.021   1.235   3.562
 4458TIP3    H213320   5.148   1.195   3.634
 4459TIP3   OH213321   0.311   7.214   4.861
 4459TIP3    H113322   0.297   7.257   4.946
 4459TIP3    H213323   0.277   7.276   4.797
 4460TIP3   OH213324   3.275   6.571   5.108
 4460TIP3    H113325   3.268   6.475   5.104
 4460TIP3    H213326   3.317   6.594   5.025
 4461TIP3   OH213327   2.361   7.402   5.652
 4461TIP3    H113328   2.386   7.329   5.595
 4461TIP3    H213329   2.434   7.464   5.645
 4462TIP3   OH213330   0.294   2.482   4.403
 4462TIP3    H113331   0.283   2.396   4.444
 4462TIP3    H213332   0.311   2.541   4.477
 4463TIP3   OH213333   1.664   0.275   3.270
 4463TIP3    H113334   1.569   0.279   3.260
 4463TIP3    H213335   1.687   0.355   3.318
 4464TIP3   OH213336   8.157   4.125   2.443
 4464TIP3    H113337   8.213   4.132   2.366
 4464TIP3    H213338   8.209   4.161   2.514
 4465TIP3   OH213339   6.583   2.188   5.272
 4465TIP3    H113340   6.670   2.223   5.252
 4465TIP3    H213341   6.600   2.112   5.327
 4466TIP3   OH213342   4.280   6.197   4.963
 4466TIP3    H113343   4.238   6.233   5.041
 4466TIP3    H213344   4.308   6.109   4.989
 4467TIP3   OH213345   6.242   7.232   1.872
 4467TIP3    H113346   6.322   7.271   1.837
 4467TIP3    H213347   6.218   7.289   1.945
 4468TIP3   OH213348   5.564   5.412   6.638
 4468TIP3    H113349   5.536   5.327   6.605
 4468TIP3    H213350   5.563   5.402   6.733
 4469TIP3   OH213351   6.711   3.150   1.584
 4469TIP3    H113352   6.685   3.242   1.579
 4469TIP3    H213353   6.648   3.111   1.645
 4470TIP3   OH213354   0.754   0.536   3.557
 4470TIP3    H113355   0.668   0.575   3.571
 4470TIP3    H213356   0.776   0.558   3.466
 4471TIP3   OH213357   4.204   0.281   0.308
 4471TIP3    H113358   4.180   0.190   0.326
 4471TIP3    H213359   4.204   0.288   0.213
 4472TIP3   OH213360   5.999   2.449   0.164
 4472TIP3    H113361   6.086   2.463   0.128
 4472TIP3    H213362   5.940   2.496   0.104
 4473TIP3   OH213363   0.454   1.290   0.462
 4473TIP3    H113364   0.457   1.250   0.375
 4473TIP3    H213365   0.380   1.247   0.505
 4474TIP3   OH213366   7.227   5.712   2.604
 4474TIP3    H113367   7.268   5.637   2.561
 4474TIP3    H213368   7.229   5.691   2.697
 4475TIP3   OH213369   3.681   0.824   3.540
 4475TIP3    H113370   3.648   0.748   3.492
 4475TIP3    H213371   3.710   0.788   3.624
 4476TIP3   OH213372   0.882   3.323   5.716
 4476TIP3    H113373   0.878   3.349   5.808
 4476TIP3    H213374   0.791   3.313   5.690
 4477TIP3   OH213375   3.711   0.421   0.242
 4477TIP3    H113376   3.710   0.339   0.194
 4477TIP3    H213377   3.641   0.474   0.202
 4478TIP3   OH213378   7.908   2.976   4.701
 4478TIP3    H113379   7.975   2.960   4.634
 4478TIP3    H213380   7.901   3.071   4.705
 4479TIP3   OH213381   2.574   7.599   0.222
 4479TIP3    H113382   2.538   7.688   0.221
 4479TIP3    H213383   2.651   7.604   0.279
 4480TIP3   OH213384   7.084   2.196   2.853
 4480TIP3    H113385   7.054   2.280   2.818
 4480TIP3    H213386   7.161   2.218   2.905
 4481TIP3   OH213387   2.161   4.788   0.691
 4481TIP3    H113388   2.237   4.822   0.644
 4481TIP3    H213389   2.101   4.862   0.697
 4482TIP3   OH213390   6.128   6.292   2.325
 4482TIP3    H113391   6.111   6.379   2.360
 4482TIP3    H213392   6.048   6.271   2.276
 4483TIP3   OH213393   6.412   6.865   2.488
 4483TIP3    H113394   6.374   6.897   2.570
 4483TIP3    H213395   6.369   6.780   2.474
 4484TIP3   OH213396   5.122   4.410   6.042
 4484TIP3    H113397   5.092   4.338   6.097
 4484TIP3    H213398   5.061   4.412   5.969
 4485TIP3   OH213399   6.038   7.159   1.031
 4485TIP3    H113400   6.128   7.147   1.001
 4485TIP3    H213401   6.039   7.125   1.121
 4486TIP3   OH213402   0.493   3.841   1.084
 4486TIP3    H113403   0.454   3.858   0.998
 4486TIP3    H213404   0.527   3.751   1.077
 4487TIP3   OH213405   1.851   0.722   6.111
 4487TIP3    H113406   1.862   0.654   6.045
 4487TIP3    H213407   1.888   0.801   6.071
 4488TIP3   OH213408   1.451   2.101   1.321
 4488TIP3    H113409   1.425   2.014   1.353
 4488TIP3    H213410   1.448   2.157   1.399
 4489TIP3   OH213411   0.844   2.568   1.704
 4489TIP3    H113412   0.927   2.576   1.658
 4489TIP3    H213413   0.862   2.598   1.793
 4490TIP3   OH213414   4.159   1.245   2.946
 4490TIP3    H113415   4.109   1.270   2.868
 4490TIP3    H213416   4.161   1.324   3.000
 4491TIP3   OH213417   4.169   2.176   6.718
 4491TIP3    H113418   4.205   2.258   6.752
 4491TIP3    H213419   4.078   2.176   6.747
 4492TIP3   OH213420   6.215   7.553   2.078
 4492TIP3    H113421   6.131   7.582   2.041
 4492TIP3    H213422   6.197   7.465   2.110
 4493TIP3   OH213423   6.530   5.650   6.546
 4493TIP3    H113424   6.443   5.658   6.586
 4493TIP3    H213425   6.586   5.616   6.616
 4494TIP3   OH213426   5.625   5.045   3.578
 4494TIP3    H113427   5.696   5.066   3.517
 4494TIP3    H213428   5.667   5.046   3.664
 4495TIP3   OH213429   3.546   6.727   0.709
 4495TIP3    H113430   3.560   6.816   0.676
 4495TIP3    H213431   3.553   6.736   0.804
 4496TIP3   OH213432   1.246   4.604   4.675
 4496TIP3    H113433   1.315   4.556   4.722
 4496TIP3    H213434   1.201   4.654   4.743
 4497TIP3   OH213435   5.899   5.025   2.324
 4497TIP3    H113436   5.813   5.050   2.357
 4497TIP3    H213437   5.932   5.103   2.280
 4498TIP3   OH213438   2.200   4.478   0.446
 4498TIP3    H113439   2.277   4.421   0.446
 4498TIP3    H213440   2.126   4.418   0.458
 4499TIP3   OH213441   3.251   3.366   5.306
 4499TIP3    H113442   3.296   3.293   5.264
 4499TIP3    H213443   3.227   3.333   5.393
 4500TIP3   OH213444   6.037   4.247   3.713
 4500TIP3    H113445   6.090   4.214   3.786
 4500TIP3    H213446   5.947   4.248   3.746
 4501TIP3   OH213447   7.271   1.735   2.866
 4501TIP3    H113448   7.287   1.829   2.868
 4501TIP3    H213449   7.278   1.707   2.958
 4502TIP3   OH213450   4.219   6.458   1.884
 4502TIP3    H113451   4.146   6.519   1.892
 4502TIP3    H213452   4.270   6.471   1.964
 4503TIP3   OH213453   2.351   3.711   4.034
 4503TIP3    H113454   2.398   3.672   4.108
 4503TIP3    H213455   2.410   3.780   4.002
 4504TIP3   OH213456   3.382   2.238   5.686
 4504TIP3    H113457   3.448   2.171   5.701
 4504TIP3    H213458   3.391   2.262   5.594
 4505TIP3   OH213459   1.864   6.042   6.282
 4505TIP3    H113460   1.922   6.023   6.208
 4505TIP3    H213461   1.794   6.095   6.245
 4506TIP3   OH213462   4.392   5.757   4.292
 4506TIP3    H113463   4.393   5.844   4.253
 4506TIP3    H213464   4.439   5.767   4.374
 4507TIP3   OH213465   6.377   2.465   0.374
 4507TIP3    H113466   6.330   2.425   0.447
 4507TIP3    H213467   6.468   2.439   0.388
 4508TIP3   OH213468   7.317   7.071   5.511
 4508TIP3    H113469   7.253   7.140   5.493
 4508TIP3    H213470   7.274   7.014   5.574
 4509TIP3   OH213471   1.276   3.306   2.216
 4509TIP3    H113472   1.258   3.373   2.282
 4509TIP3    H213473   1.262   3.351   2.132
 4510TIP3   OH213474   5.344   2.850   4.450
 4510TIP3    H113475   5.356   2.856   4.356
 4510TIP3    H213476   5.264   2.799   4.462
 4511TIP3   OH213477   6.124   3.390   4.711
 4511TIP3    H113478   6.166   3.473   4.732
 4511TIP3    H213479   6.034   3.414   4.689
 4512TIP3   OH213480   4.810   6.112   5.965
 4512TIP3    H113481   4.821   6.197   5.922
 4512TIP3    H213482   4.845   6.049   5.901
 4513TIP3   OH213483   2.371   1.168   5.721
 4513TIP3    H113484   2.380   1.262   5.734
 4513TIP3    H213485   2.439   1.146   5.657
 4514TIP3   OH213486   5.883   6.086   6.425
 4514TIP3    H113487   5.891   6.092   6.330
 4514TIP3    H213488   5.917   6.169   6.458
 4515TIP3   OH213489   4.752   2.346   2.655
 4515TIP3    H113490   4.736   2.439   2.642
 4515TIP3    H213491   4.809   2.321   2.582
 4516TIP3   OH213492   3.777   7.077   0.083
 4516TIP3    H113493   3.717   7.108   0.151
 4516TIP3    H213494   3.781   6.982   0.095
 4517TIP3   OH213495  -0.032   7.352   2.214
 4517TIP3    H113496   0.037   7.286   2.201
 4517TIP3    H213497  -0.009   7.422   2.154
 4518TIP3   OH213498   7.058   0.819   5.620
 4518TIP3    H113499   7.127   0.885   5.619
 4518TIP3    H213500   7.046   0.798   5.712
 4519TIP3   OH213501   4.721   5.320   3.957
 4519TIP3    H113502   4.696   5.407   3.989
 4519TIP3    H213503   4.639   5.271   3.957
 4520TIP3   OH213504   7.384   2.059   2.889
 4520TIP3    H113505   7.465   2.108   2.877
 4520TIP3    H213506   7.331   2.082   2.813
 4521TIP3   OH213507   0.592   2.224   6.457
 4521TIP3    H113508   0.606   2.171   6.378
 4521TIP3    H213509   0.679   2.260   6.477
 4522TIP3   OH213510   1.105   2.057   3.482
 4522TIP3    H113511   1.053   2.136   3.495
 4522TIP3    H213512   1.112   2.019   3.570
 4523TIP3   OH213513   2.765   4.369   3.394
 4523TIP3    H113514   2.834   4.308   3.423
 4523TIP3    H213515   2.687   4.314   3.388
 4524TIP3   OH213516   5.880   7.760   1.150
 4524TIP3    H113517   5.824   7.735   1.224
 4524TIP3    H213518   5.960   7.793   1.190
 4525TIP3   OH213519   7.457   3.655   5.279
 4525TIP3    H113520   7.395   3.725   5.297
 4525TIP3    H213521   7.494   3.634   5.365
 4526TIP3   OH213522   2.081   6.655   2.682
 4526TIP3    H113523   2.034   6.683   2.760
 4526TIP3    H213524   2.148   6.721   2.669
 4527TIP3   OH213525   5.458   2.253   4.121
 4527TIP3    H113526   5.539   2.237   4.169
 4527TIP3    H213527   5.406   2.174   4.135
 4528TIP3   OH213528   8.231   2.633   4.404
 4528TIP3    H113529   8.195   2.558   4.452
 4528TIP3    H213530   8.159   2.696   4.400
 4529TIP3   OH213531   1.191   3.101   3.966
 4529TIP3    H113532   1.115   3.158   3.973
 4529TIP3    H213533   1.183   3.060   3.879
 4530TIP3   OH213534   5.563   0.317   4.154
 4530TIP3    H113535   5.528   0.231   4.177
 4530TIP3    H213536   5.566   0.364   4.237
 4531TIP3   OH213537   7.961   7.406   5.623
 4531TIP3    H113538   7.982   7.374   5.536
 4531TIP3    H213539   7.880   7.456   5.612
 4532TIP3   OH213540   4.663   3.238   0.587
 4532TIP3    H113541   4.589   3.184   0.613
 4532TIP3    H213542   4.624   3.316   0.548
 4533TIP3   OH213543   0.253   6.996   6.237
 4533TIP3    H113544   0.265   6.977   6.330
 4533TIP3    H213545   0.236   7.090   6.234
 4534TIP3   OH213546   4.765   4.699   2.317
 4534TIP3    H113547   4.817   4.655   2.249
 4534TIP3    H213548   4.697   4.746   2.269
 4535TIP3   OH213549   0.385   5.959   6.037
 4535TIP3    H113550   0.436   6.040   6.039
 4535TIP3    H213551   0.295   5.987   6.056
 4536TIP3   OH213552   4.534   7.393   0.338
 4536TIP3    H113553   4.561   7.301   0.329
 4536TIP3    H213554   4.615   7.443   0.331
 4537TIP3   OH213555   3.708   2.441   0.250
 4537TIP3    H113556   3.642   2.475   0.191
 4537TIP3    H213557   3.766   2.389   0.194
 4538TIP3   OH213558   3.660   1.001   6.041
 4538TIP3    H113559   3.684   1.091   6.065
 4538TIP3    H213560   3.648   0.956   6.125
 4539TIP3   OH213561   4.856   3.665   5.641
 4539TIP3    H113562   4.882   3.583   5.600
 4539TIP3    H213563   4.775   3.643   5.688
 4540TIP3   OH213564   3.092   3.436   6.629
 4540TIP3    H113565   3.096   3.343   6.652
 4540TIP3    H213566   3.004   3.448   6.594
 4541TIP3   OH213567   8.017   0.777   5.477
 4541TIP3    H113568   7.924   0.798   5.476
 4541TIP3    H213569   8.061   0.862   5.464
 4542TIP3   OH213570   4.329   2.340   6.036
 4542TIP3    H113571   4.311   2.432   6.055
 4542TIP3    H213572   4.274   2.320   5.960
 4543TIP3   OH213573   7.929   0.734   5.735
 4543TIP3    H113574   7.840   0.754   5.706
 4543TIP3    H213575   7.973   0.701   5.656
 4544TIP3   OH213576   8.093   6.885   0.553
 4544TIP3    H113577   8.027   6.866   0.619
 4544TIP3    H213578   8.174   6.898   0.603
 4545TIP3   OH213579   0.029   1.632   5.103
 4545TIP3    H113580   0.031   1.645   5.198
 4545TIP3    H213581   0.112   1.591   5.082
 4546TIP3   OH213582   7.015   0.878   5.111
 4546TIP3    H113583   6.995   0.896   5.019
 4546TIP3    H213584   7.098   0.923   5.128
 4547TIP3   OH213585   2.734   6.550   5.063
 4547TIP3    H113586   2.694   6.532   4.978
 4547TIP3    H213587   2.825   6.523   5.053
 4548TIP3   OH213588   7.068   0.664   1.364
 4548TIP3    H113589   7.040   0.659   1.272
 4548TIP3    H213590   6.988   0.653   1.414
 4549TIP3   OH213591   5.161   4.124   1.660
 4549TIP3    H113592   5.251   4.109   1.689
 4549TIP3    H213593   5.160   4.092   1.569
 4550TIP3   OH213594   0.439   3.547   4.411
 4550TIP3    H113595   0.383   3.513   4.480
 4550TIP3    H213596   0.527   3.543   4.447
 4551TIP3   OH213597   0.158   5.292   5.800
 4551TIP3    H113598   0.235   5.311   5.855
 4551TIP3    H213599   0.182   5.213   5.752
 4552TIP3   OH213600   5.489   4.279   0.079
 4552TIP3    H113601   5.444   4.347   0.031
 4552TIP3    H213602   5.498   4.207   0.016
 4553TIP3   OH213603   1.714   0.577   3.293
 4553TIP3    H113604   1.739   0.507   3.233
 4553TIP3    H213605   1.760   0.654   3.261
 4554TIP3   OH213606   3.985   5.415   6.567
 4554TIP3    H113607   3.973   5.468   6.646
 4554TIP3    H213608   3.936   5.335   6.584
 4555TIP3   OH213609   4.968   2.744   5.389
 4555TIP3    H113610   5.039   2.735   5.326
 4555TIP3    H213611   4.919   2.820   5.359
 4556TIP3   OH213612   1.940   5.822   4.701
 4556TIP3    H113613   1.936   5.736   4.743
 4556TIP3    H213614   2.020   5.861   4.734
 4557TIP3   OH213615   4.153   4.919   5.104
 4557TIP3    H113616   4.154   4.940   5.010
 4557TIP3    H213617   4.063   4.891   5.121
 4558TIP3   OH213618   3.782   2.532   4.697
 4558TIP3    H113619   3.877   2.546   4.694
 4558TIP3    H213620   3.762   2.525   4.790
 4559TIP3   OH213621   6.227   4.440   6.152
 4559TIP3    H113622   6.146   4.482   6.183
 4559TIP3    H213623   6.248   4.486   6.071
 4560TIP3   OH213624   3.144   2.940   1.836
 4560TIP3    H113625   3.082   2.981   1.898
 4560TIP3    H213626   3.099   2.861   1.808
 4561TIP3   OH213627   2.980   6.105   1.372
 4561TIP3    H113628   2.939   6.019   1.382
 4561TIP3    H213629   3.049   6.107   1.438
 4562TIP3   OH213630   2.230   2.691   2.813
 4562TIP3    H113631   2.164   2.623   2.821
 4562TIP3    H213632   2.251   2.715   2.903
 4563TIP3   OH213633   6.940   7.485   3.914
 4563TIP3    H113634   6.915   7.437   3.992
 4563TIP3    H213635   6.956   7.417   3.848
 4564TIP3   OH213636   5.436   2.655   4.002
 4564TIP3    H113637   5.515   2.606   4.025
 4564TIP3    H213638   5.439   2.661   3.906
 4565TIP3   OH213639   3.775   4.142   4.924
 4565TIP3    H113640   3.689   4.104   4.939
 4565TIP3    H213641   3.789   4.133   4.830
 4566TIP3   OH213642   0.028   6.702   2.439
 4566TIP3    H113643   0.119   6.689   2.465
 4566TIP3    H213644   0.013   6.636   2.372
 4567TIP3   OH213645   1.163   7.631   4.794
 4567TIP3    H113646   1.122   7.625   4.880
 4567TIP3    H213647   1.237   7.571   4.798
 4568TIP3   OH213648   1.918   4.973   3.359
 4568TIP3    H113649   1.853   4.903   3.368
 4568TIP3    H213650   1.910   5.024   3.440
 4569TIP3   OH213651   4.600   4.060   4.845
 4569TIP3    H113652   4.527   4.056   4.783
 4569TIP3    H213653   4.566   4.110   4.919
 4570TIP3   OH213654   2.971   6.850   0.648
 4570TIP3    H113655   2.912   6.830   0.721
 4570TIP3    H213656   2.917   6.902   0.588
 4571TIP3   OH213657   4.784   1.730   0.700
 4571TIP3    H113658   4.875   1.751   0.719
 4571TIP3    H213659   4.737   1.756   0.780
 4572TIP3   OH213660   3.019   3.813   1.665
 4572TIP3    H113661   3.004   3.894   1.617
 4572TIP3    H213662   2.931   3.784   1.691
 4573TIP3   OH213663   3.098   5.059   5.393
 4573TIP3    H113664   3.008   5.029   5.380
 4573TIP3    H213665   3.092   5.122   5.465
 4574TIP3   OH213666   0.991   4.176   2.576
 4574TIP3    H113667   0.965   4.266   2.554
 4574TIP3    H213668   1.042   4.185   2.657
 4575TIP3   OH213669   4.941   2.780   2.649
 4575TIP3    H113670   4.976   2.793   2.737
 4575TIP3    H213671   5.015   2.746   2.598
 4576TIP3   OH213672   4.046   4.830   3.625
 4576TIP3    H113673   4.109   4.887   3.580
 4576TIP3    H213674   4.055   4.745   3.582
 4577TIP3   OH213675   4.790   0.930   3.956
 4577TIP3    H113676   4.829   0.849   3.990
 4577TIP3    H213677   4.861   0.973   3.908
 4578TIP3   OH213678   4.277   4.478   6.392
 4578TIP3    H113679   4.332   4.538   6.440
 4578TIP3    H213680   4.331   4.399   6.380
 4579TIP3   OH213681   5.088   2.510   1.758
 4579TIP3    H113682   5.088   2.524   1.663
 4579TIP3    H213683   5.181   2.507   1.781
 4580TIP3   OH213684   5.629   3.958   0.251
 4580TIP3    H113685   5.702   3.896   0.240
 4580TIP3    H213686   5.643   3.995   0.338
 4581TIP3   OH213687   7.460   0.895   3.990
 4581TIP3    H113688   7.440   0.940   3.908
 4581TIP3    H213689   7.533   0.837   3.968
 4582TIP3   OH213690   0.672   0.682   0.811
 4582TIP3    H113691   0.749   0.720   0.852
 4582TIP3    H213692   0.598   0.730   0.849
 4583TIP3   OH213693   5.057   1.899   6.342
 4583TIP3    H113694   5.119   1.851   6.397
 4583TIP3    H213695   5.072   1.991   6.364
 4584TIP3   OH213696   0.151   2.768   2.164
 4584TIP3    H113697   0.135   2.693   2.220
 4584TIP3    H213698   0.113   2.743   2.079
 4585TIP3   OH213699   8.047   5.155   0.746
 4585TIP3    H113700   7.981   5.185   0.809
 4585TIP3    H213701   8.100   5.232   0.729
 4586TIP3   OH213702   8.006   6.384   6.145
 4586TIP3    H113703   8.040   6.464   6.103
 4586TIP3    H213704   8.010   6.403   6.239
 4587TIP3   OH213705   5.823   7.518   3.261
 4587TIP3    H113706   5.896   7.581   3.261
 4587TIP3    H213707   5.864   7.433   3.244
 4588TIP3   OH213708   0.953   1.997   4.051
 4588TIP3    H113709   0.907   2.025   3.972
 4588TIP3    H213710   0.973   2.078   4.098
 4589TIP3   OH213711   6.123   3.714   4.023
 4589TIP3    H113712   6.054   3.768   3.984
 4589TIP3    H213713   6.182   3.777   4.065
 4590TIP3   OH213714   7.293   6.509   6.156
 4590TIP3    H113715   7.347   6.554   6.091
 4590TIP3    H213716   7.289   6.419   6.125
 4591TIP3   OH213717   5.481   3.585   2.969
 4591TIP3    H113718   5.504   3.575   3.061
 4591TIP3    H213719   5.391   3.553   2.963
 4592TIP3   OH213720   1.845   6.124   1.227
 4592TIP3    H113721   1.865   6.082   1.143
 4592TIP3    H213722   1.925   6.113   1.279
 4593TIP3   OH213723   7.033   3.195   5.567
 4593TIP3    H113724   6.978   3.273   5.571
 4593TIP3    H213725   7.080   3.195   5.651
 4594TIP3   OH213726   0.355   6.683   2.660
 4594TIP3    H113727   0.403   6.754   2.702
 4594TIP3    H213728   0.376   6.691   2.567
 4595TIP3   OH213729   2.114   5.124   5.176
 4595TIP3    H113730   2.072   5.175   5.245
 4595TIP3    H213731   2.114   5.183   5.100
 4596TIP3   OH213732   2.343   5.784   1.702
 4596TIP3    H113733   2.390   5.746   1.776
 4596TIP3    H213734   2.407   5.789   1.632
 4597TIP3   OH213735   6.084   3.563   6.455
 4597TIP3    H113736   6.156   3.546   6.394
 4597TIP3    H213737   6.062   3.655   6.441
 4598TIP3   OH213738   2.066   6.821   0.994
 4598TIP3    H113739   1.977   6.835   0.964
 4598TIP3    H213740   2.066   6.732   1.029
 4599TIP3   OH213741   7.302   0.967  -0.043
 4599TIP3    H113742   7.357   0.891  -0.062
 4599TIP3    H213743   7.252   0.942   0.035
 4600TIP3   OH213744   7.936   2.766   2.870
 4600TIP3    H113745   7.911   2.685   2.914
 4600TIP3    H213746   7.861   2.788   2.815
 4601TIP3   OH213747   4.135   5.150   6.261
 4601TIP3    H113748   4.151   5.171   6.354
 4601TIP3    H213749   4.041   5.132   6.257
 4602TIP3   OH213750   2.399   7.321   0.432
 4602TIP3    H113751   2.407   7.233   0.395
 4602TIP3    H213752   2.442   7.378   0.369
 4603TIP3   OH213753   3.183   1.858   0.975
 4603TIP3    H113754   3.125   1.922   0.933
 4603TIP3    H213755   3.173   1.779   0.922
 4604TIP3   OH213756   2.814   5.033   4.654
 4604TIP3    H113757   2.817   5.110   4.598
 4604TIP3    H213758   2.835   4.960   4.596
 4605TIP3   OH213759   6.161   5.616   0.728
 4605TIP3    H113760   6.222   5.543   0.719
 4605TIP3    H213761   6.212   5.684   0.772
 4606TIP3   OH213762   6.084   5.483   2.287
 4606TIP3    H113763   6.067   5.393   2.315
 4606TIP3    H213764   6.092   5.476   2.191
 4607TIP3   OH213765   3.457   7.521   2.184
 4607TIP3    H113766   3.381   7.469   2.158
 4607TIP3    H213767   3.446   7.604   2.138
 4608TIP3   OH213768   5.346   3.972   1.858
 4608TIP3    H113769   5.301   3.985   1.941
 4608TIP3    H213770   5.349   3.877   1.846
 4609TIP3   OH213771   2.043   3.759   2.755
 4609TIP3    H113772   2.065   3.667   2.748
 4609TIP3    H213773   2.118   3.798   2.801
 4610TIP3   OH213774   3.501   4.045   1.094
 4610TIP3    H113775   3.422   4.059   1.146
 4610TIP3    H213776   3.573   4.056   1.156
 4611TIP3   OH213777   4.054   6.717   4.270
 4611TIP3    H113778   4.125   6.762   4.224
 4611TIP3    H213779   4.014   6.661   4.205
 4612TIP3   OH213780   7.226   1.324   3.182
 4612TIP3    H113781   7.133   1.303   3.184
 4612TIP3    H213782   7.233   1.409   3.226
 4613TIP3   OH213783   5.566   5.340   0.147
 4613TIP3    H113784   5.593   5.248   0.137
 4613TIP3    H213785   5.565   5.374   0.057
 4614TIP3   OH213786   1.524   6.107   3.556
 4614TIP3    H113787   1.511   6.201   3.566
 4614TIP3    H213788   1.544   6.095   3.463
 4615TIP3   OH213789   7.350   0.625   5.765
 4615TIP3    H113790   7.380   0.602   5.678
 4615TIP3    H213791   7.349   0.721   5.766
 4616TIP3   OH213792   1.466   0.179   6.755
 4616TIP3    H113793   1.392   0.221   6.797
 4616TIP3    H213794   1.472   0.220   6.669
 4617TIP3   OH213795   2.312   0.772   5.295
 4617TIP3    H113796   2.217   0.771   5.284
 4617TIP3    H213797   2.341   0.853   5.253
 4618TIP3   OH213798   5.573   4.885   2.659
 4618TIP3    H113799   5.627   4.871   2.581
 4618TIP3    H213800   5.634   4.914   2.726
 4619TIP3   OH213801   2.054   3.650   1.941
 4619TIP3    H113802   1.982   3.587   1.949
 4619TIP3    H213803   2.108   3.634   2.018
 4620TIP3   OH213804   0.720   7.494   6.541
 4620TIP3    H113805   0.759   7.572   6.502
 4620TIP3    H213806   0.688   7.443   6.466
 4621TIP3   OH213807   3.899   0.597   3.979
 4621TIP3    H113808   3.846   0.525   4.013
 4621TIP3    H213809   3.850   0.676   4.003
 4622TIP3   OH213810   2.616   6.700   2.069
 4622TIP3    H113811   2.693   6.743   2.033
 4622TIP3    H213812   2.638   6.685   2.161
 4623TIP3   OH213813   2.787   3.014   3.085
 4623TIP3    H113814   2.874   3.051   3.072
 4623TIP3    H213815   2.727   3.085   3.063
 4624TIP3   OH213816   5.563   0.966   4.465
 4624TIP3    H113817   5.517   1.039   4.423
 4624TIP3    H213818   5.534   0.968   4.556
 4625TIP3   OH213819   7.948   2.777   5.940
 4625TIP3    H113820   7.926   2.869   5.950
 4625TIP3    H213821   7.917   2.754   5.852
 4626TIP3   OH213822   0.975   4.380   0.609
 4626TIP3    H113823   0.954   4.383   0.702
 4626TIP3    H213824   1.056   4.328   0.605
 4627TIP3   OH213825   6.279   6.200   4.432
 4627TIP3    H113826   6.348   6.238   4.486
 4627TIP3    H213827   6.264   6.113   4.469
 4628TIP3   OH213828   4.841   0.946   5.760
 4628TIP3    H113829   4.764   0.944   5.817
 4628TIP3    H213830   4.915   0.941   5.820
 4629TIP3   OH213831   5.416   7.536   2.375
 4629TIP3    H113832   5.335   7.534   2.323
 4629TIP3    H213833   5.430   7.628   2.395
 4630TIP3   OH213834   7.932   4.906   5.896
 4630TIP3    H113835   7.896   4.969   5.833
 4630TIP3    H213836   7.855   4.866   5.936
 4631TIP3   OH213837   8.178   3.203   0.384
 4631TIP3    H113838   8.156   3.290   0.349
 4631TIP3    H213839   8.255   3.176   0.333
 4632TIP3   OH213840   5.681   3.784   2.948
 4632TIP3    H113841   5.656   3.874   2.969
 4632TIP3    H213842   5.599   3.735   2.952
 4633TIP3   OH213843   6.372   0.589   5.627
 4633TIP3    H113844   6.281   0.565   5.609
 4633TIP3    H213845   6.424   0.526   5.576
 4634TIP3   OH213846   2.663   3.239   4.396
 4634TIP3    H113847   2.628   3.188   4.469
 4634TIP3    H213848   2.752   3.205   4.385
 4635TIP3   OH213849   6.005   7.038   0.200
 4635TIP3    H113850   6.056   7.039   0.281
 4635TIP3    H213851   6.023   6.952   0.163
 4636TIP3   OH213852   8.119   3.306   1.790
 4636TIP3    H113853   8.115   3.216   1.759
 4636TIP3    H213854   8.132   3.358   1.710
 4637TIP3   OH213855   0.800   3.603   3.318
 4637TIP3    H113856   0.749   3.525   3.341
 4637TIP3    H213857   0.759   3.674   3.367
 4638TIP3   OH213858   7.503   4.156   4.226
 4638TIP3    H113859   7.456   4.095   4.283
 4638TIP3    H213860   7.563   4.203   4.284
 4639TIP3   OH213861   2.178   3.825   1.124
 4639TIP3    H113862   2.133   3.756   1.173
 4639TIP3    H213863   2.264   3.831   1.166
 4640TIP3   OH213864   2.106   6.142   5.404
 4640TIP3    H113865   2.066   6.096   5.331
 4640TIP3    H213866   2.072   6.231   5.398
 4641TIP3   OH213867   8.193   0.551   4.426
 4641TIP3    H113868   8.250   0.628   4.430
 4641TIP3    H213869   8.122   0.577   4.367
 4642TIP3   OH213870   7.996   5.506   2.386
 4642TIP3    H113871   7.970   5.418   2.361
 4642TIP3    H213872   8.039   5.496   2.470
 4643TIP3   OH213873   2.446   7.127   6.407
 4643TIP3    H113874   2.495   7.205   6.434
 4643TIP3    H213875   2.399   7.100   6.486
 4644TIP3   OH213876   7.634   7.519   5.345
 4644TIP3    H113877   7.678   7.441   5.379
 4644TIP3    H213878   7.633   7.508   5.250
 4645TIP3   OH213879   7.006   5.489   2.477
 4645TIP3    H113880   6.933   5.537   2.516
 4645TIP3    H213881   7.038   5.547   2.407
 4646TIP3   OH213882   5.621   2.107   1.129
 4646TIP3    H113883   5.638   2.124   1.222
 4646TIP3    H213884   5.648   2.016   1.115
 4647TIP3   OH213885   3.089   0.772   0.527
 4647TIP3    H113886   3.042   0.698   0.488
 4647TIP3    H213887   3.180   0.759   0.500
 4648TIP3   OH213888   6.635   6.114   6.710
 4648TIP3    H113889   6.619   6.020   6.717
 4648TIP3    H213890   6.660   6.141   6.798
 4649TIP3   OH213891   6.184   0.222   2.862
 4649TIP3    H113892   6.190   0.127   2.868
 4649TIP3    H213893   6.253   0.247   2.800
 4650TIP3   OH213894   0.491   4.645   1.993
 4650TIP3    H113895   0.529   4.673   1.910
 4650TIP3    H213896   0.547   4.573   2.022
 4651TIP3   OH213897   4.943   5.752   6.608
 4651TIP3    H113898   5.000   5.787   6.677
 4651TIP3    H213899   4.885   5.692   6.654
 4652TIP3   OH213900   7.091   5.604   3.084
 4652TIP3    H113901   7.078   5.516   3.121
 4652TIP3    H213902   7.005   5.645   3.088
 4653TIP3   OH213903   6.797   4.512   5.923
 4653TIP3    H113904   6.861   4.578   5.897
 4653TIP3    H213905   6.837   4.428   5.900
 4654TIP3   OH213906   6.435   0.541   2.945
 4654TIP3    H113907   6.339   0.544   2.942
 4654TIP3    H213908   6.461   0.633   2.954
 4655TIP3   OH213909   3.556   1.510   5.737
 4655TIP3    H113910   3.540   1.574   5.668
 4655TIP3    H213911   3.540   1.425   5.695
 4656TIP3   OH213912   7.965   2.695   4.605
 4656TIP3    H113913   7.958   2.745   4.524
 4656TIP3    H213914   8.046   2.726   4.645
 4657TIP3   OH213915   2.353   0.907   5.934
 4657TIP3    H113916   2.311   0.993   5.939
 4657TIP3    H213917   2.332   0.865   6.017
 4658TIP3   OH213918   2.431   3.681   2.764
 4658TIP3    H113919   2.417   3.776   2.761
 4658TIP3    H213920   2.424   3.653   2.673
 4659TIP3   OH213921   4.653   6.456   4.796
 4659TIP3    H113922   4.622   6.536   4.839
 4659TIP3    H213923   4.748   6.458   4.808
 4660TIP3   OH213924   0.320   4.717   5.302
 4660TIP3    H113925   0.260   4.714   5.377
 4660TIP3    H213926   0.276   4.774   5.239
 4661TIP3   OH213927   7.273   0.960   5.105
 4661TIP3    H113928   7.365   0.949   5.132
 4661TIP3    H213929   7.275   1.030   5.040
 4662TIP3   OH213930   5.487   5.196   2.987
 4662TIP3    H113931   5.558   5.259   2.994
 4662TIP3    H213932   5.433   5.211   3.064
 4663TIP3   OH213933   5.229   5.553   0.032
 4663TIP3    H113934   5.241   5.524  -0.058
 4663TIP3    H213935   5.226   5.472   0.083
 4664TIP3   OH213936   0.923   0.490   3.769
 4664TIP3    H113937   0.877   0.435   3.833
 4664TIP3    H213938   0.856   0.514   3.705
 4665TIP3   OH213939   3.451   1.562   0.154
 4665TIP3    H113940   3.451   1.648   0.113
 4665TIP3    H213941   3.362   1.550   0.186
 4666TIP3   OH213942   4.819   3.157   5.371
 4666TIP3    H113943   4.868   3.206   5.437
 4666TIP3    H213944   4.745   3.121   5.419
 4667TIP3   OH213945   4.733   7.519   5.719
 4667TIP3    H113946   4.820   7.551   5.697
 4667TIP3    H213947   4.726   7.532   5.814
 4668TIP3   OH213948   8.144   0.617   3.124
 4668TIP3    H113949   8.226   0.589   3.083
 4668TIP3    H213950   8.110   0.538   3.166
 4669TIP3   OH213951   4.680   2.634   5.896
 4669TIP3    H113952   4.637   2.586   5.967
 4669TIP3    H213953   4.675   2.575   5.821
 4670TIP3   OH213954   5.368   4.795   6.743
 4670TIP3    H113955   5.394   4.837   6.661
 4670TIP3    H213956   5.325   4.864   6.794
 4671TIP3   OH213957   7.296   4.663   3.921
 4671TIP3    H113958   7.373   4.609   3.904
 4671TIP3    H213959   7.309   4.740   3.865
 4672TIP3   OH213960   7.129   1.158   5.579
 4672TIP3    H113961   7.124   1.251   5.557
 4672TIP3    H213962   7.181   1.120   5.508
 4673TIP3   OH213963   1.432   5.998   2.474
 4673TIP3    H113964   1.341   5.998   2.505
 4673TIP3    H213965   1.484   5.978   2.552
 4674TIP3   OH213966   4.151   7.036   1.778
 4674TIP3    H113967   4.224   7.067   1.725
 4674TIP3    H213968   4.132   7.109   1.838
 4675TIP3   OH213969   1.599   7.207   2.357
 4675TIP3    H113970   1.511   7.201   2.395
 4675TIP3    H213971   1.649   7.138   2.401
 4676TIP3   OH213972   2.029   1.691   1.375
 4676TIP3    H113973   1.979   1.772   1.367
 4676TIP3    H213974   1.967   1.628   1.413
 4677TIP3   OH213975   3.741   3.307   1.669
 4677TIP3    H113976   3.741   3.323   1.763
 4677TIP3    H213977   3.784   3.222   1.658
 4678TIP3   OH213978   8.061   1.928   5.609
 4678TIP3    H113979   8.114   1.875   5.668
 4678TIP3    H213980   7.991   1.870   5.580
 4679TIP3   OH213981   2.194   3.863   3.632
 4679TIP3    H113982   2.104   3.842   3.609
 4679TIP3    H213983   2.229   3.910   3.556
 4680TIP3   OH213984   5.888   0.791   6.395
 4680TIP3    H113985   5.961   0.831   6.346
 4680TIP3    H213986   5.843   0.737   6.330
 4681TIP3   OH213987   0.450   6.679   2.403
 4681TIP3    H113988   0.520   6.640   2.352
 4681TIP3    H213989   0.375   6.622   2.389
 4682TIP3   OH213990   1.126   5.066   3.536
 4682TIP3    H113991   1.146   4.973   3.533
 4682TIP3    H213992   1.210   5.109   3.551
 4683TIP3   OH213993   7.168   7.113   3.240
 4683TIP3    H113994   7.172   7.111   3.144
 4683TIP3    H213995   7.153   7.205   3.261
 4684TIP3   OH213996   3.852   0.882   5.798
 4684TIP3    H113997   3.785   0.940   5.834
 4684TIP3    H213998   3.829   0.795   5.830
 4685TIP3   OH213999   2.846   6.097   0.075
 4685TIP3    H114000   2.847   6.004   0.053
 4685TIP3    H214001   2.835   6.141  -0.009
 4686TIP3   OH214002   5.576   0.112   4.779
 4686TIP3    H114003   5.617   0.085   4.697
 4686TIP3    H214004   5.507   0.173   4.752
 4687TIP3   OH214005   6.635   2.463   0.816
 4687TIP3    H114006   6.556   2.454   0.870
 4687TIP3    H214007   6.642   2.379   0.771
 4688TIP3   OH214008   7.322   6.284   0.884
 4688TIP3    H114009   7.387   6.217   0.906
 4688TIP3    H214010   7.270   6.244   0.814
 4689TIP3   OH214011   0.626   3.155   2.578
 4689TIP3    H114012   0.694   3.135   2.514
 4689TIP3    H214013   0.544   3.145   2.530
 4690TIP3   OH214014   3.470   7.388   3.570
 4690TIP3    H114015   3.496   7.302   3.539
 4690TIP3    H214016   3.375   7.382   3.583
 4691TIP3   OH214017   2.564   1.947   3.600
 4691TIP3    H114018   2.635   1.890   3.570
 4691TIP3    H214019   2.605   2.033   3.609
 4692TIP3   OH214020   2.842   6.668   5.333
 4692TIP3    H114021   2.824   6.761   5.319
 4692TIP3    H214022   2.829   6.628   5.246
 4693TIP3   OH214023   7.943   7.116   3.025
 4693TIP3    H114024   7.881   7.182   2.994
 4693TIP3    H214025   7.889   7.045   3.057
 4694TIP3   OH214026   5.783   3.914   1.228
 4694TIP3    H114027   5.759   3.990   1.175
 4694TIP3    H214028   5.879   3.915   1.230
 4695TIP3   OH214029   3.012   0.474   0.866
 4695TIP3    H114030   3.003   0.488   0.961
 4695TIP3    H214031   3.022   0.563   0.831
 4696TIP3   OH214032   7.719   0.852   4.624
 4696TIP3    H114033   7.703   0.771   4.576
 4696TIP3    H214034   7.808   0.843   4.658
 4697TIP3   OH214035   3.809   2.470   3.787
 4697TIP3    H114036   3.782   2.382   3.813
 4697TIP3    H214037   3.729   2.511   3.755
 4698TIP3   OH214038   3.553   2.382   2.530
 4698TIP3    H114039   3.616   2.398   2.460
 4698TIP3    H214040   3.593   2.423   2.607
 4699TIP3   OH214041   7.162   7.091   5.037
 4699TIP3    H114042   7.219   7.031   5.085
 4699TIP3    H214043   7.133   7.041   4.961
 4700TIP3   OH214044   6.690   5.405   4.051
 4700TIP3    H114045   6.665   5.428   4.140
 4700TIP3    H214046   6.627   5.339   4.024
 4701TIP3   OH214047   3.230   3.354   4.643
 4701TIP3    H114048   3.284   3.356   4.722
 4701TIP3    H214049   3.194   3.265   4.641
 4702TIP3   OH214050   1.902   6.387   0.789
 4702TIP3    H114051   1.901   6.294   0.763
 4702TIP3    H214052   1.950   6.430   0.718
 4703TIP3   OH214053   4.687   2.262   2.141
 4703TIP3    H114054   4.710   2.237   2.231
 4703TIP3    H214055   4.591   2.259   2.139
 4704TIP3   OH214056   4.426   2.716   4.014
 4704TIP3    H114057   4.353   2.743   4.070
 4704TIP3    H214058   4.388   2.648   3.958
 4705TIP3   OH214059   3.461   1.617   6.323
 4705TIP3    H114060   3.471   1.523   6.307
 4705TIP3    H214061   3.513   1.659   6.255
 4706TIP3   OH214062   5.158   1.388   4.793
 4706TIP3    H114063   5.206   1.308   4.816
 4706TIP3    H214064   5.219   1.459   4.811
 4707TIP3   OH214065   1.483   0.634   4.548
 4707TIP3    H114066   1.559   0.579   4.530
 4707TIP3    H214067   1.458   0.612   4.638
 4708TIP3   OH214068   6.867   4.921   4.687
 4708TIP3    H114069   6.811   4.941   4.762
 4708TIP3    H214070   6.886   4.827   4.696
 4709TIP3   OH214071   2.726   7.495   6.180
 4709TIP3    H114072   2.754   7.575   6.135
 4709TIP3    H214073   2.768   7.425   6.130
 4710TIP3   OH214074   7.676   6.606   0.273
 4710TIP3    H114075   7.669   6.617   0.368
 4710TIP3    H214076   7.604   6.659   0.238
 4711TIP3   OH214077   2.607   0.796   1.195
 4711TIP3    H114078   2.527   0.768   1.239
 4711TIP3    H214079   2.649   0.855   1.258
 4712TIP3   OH214080   3.338   7.213   1.525
 4712TIP3    H114081   3.403   7.151   1.559
 4712TIP3    H214082   3.256   7.165   1.525
 4713TIP3   OH214083   6.062   5.114   1.798
 4713TIP3    H114084   6.150   5.112   1.761
 4713TIP3    H214085   6.062   5.188   1.858
 4714TIP3   OH214086   3.528   0.982   5.773
 4714TIP3    H114087   3.437   0.992   5.748
 4714TIP3    H214088   3.528   0.987   5.868
 4715TIP3   OH214089   7.178   6.696   4.743
 4715TIP3    H114090   7.158   6.788   4.761
 4715TIP3    H214091   7.126   6.647   4.806
 4716TIP3   OH214092   6.033   7.053   6.344
 4716TIP3    H114093   5.950   7.095   6.364
 4716TIP3    H214094   6.075   7.112   6.282
 4717TIP3   OH214095   2.403   3.896   4.768
 4717TIP3    H114096   2.446   3.974   4.803
 4717TIP3    H214097   2.420   3.828   4.833
 4718TIP3   OH214098   4.300   1.561   0.272
 4718TIP3    H114099   4.239   1.509   0.220
 4718TIP3    H214100   4.368   1.500   0.299
 4719TIP3   OH214101   7.434   2.237   5.403
 4719TIP3    H114102   7.478   2.160   5.439
 4719TIP3    H214103   7.442   2.303   5.471
 4720TIP3   OH214104   6.554   2.860   3.042
 4720TIP3    H114105   6.589   2.836   3.128
 4720TIP3    H214106   6.459   2.858   3.053
 4721TIP3   OH214107   2.202   6.591   1.156
 4721TIP3    H114108   2.234   6.643   1.230
 4721TIP3    H214109   2.190   6.503   1.192
 4722TIP3   OH214110   0.876   3.827   5.606
 4722TIP3    H114111   0.831   3.761   5.553
 4722TIP3    H214112   0.919   3.884   5.542
 4723TIP3   OH214113   2.069   0.686   5.744
 4723TIP3    H114114   2.159   0.659   5.763
 4723TIP3    H214115   2.015   0.629   5.799
 4724TIP3   OH214116   0.718   4.061   4.521
 4724TIP3    H114117   0.742   4.084   4.431
 4724TIP3    H214118   0.624   4.077   4.526
 4725TIP3   OH214119   1.888   7.646   0.180
 4725TIP3    H114120   1.948   7.572   0.181
 4725TIP3    H214121   1.807   7.611   0.219
 4726TIP3   OH214122   1.442   6.686   1.522
 4726TIP3    H114123   1.439   6.665   1.616
 4726TIP3    H214124   1.447   6.601   1.479
 4727TIP3   OH214125   4.386   0.988   1.277
 4727TIP3    H114126   4.296   0.957   1.288
 4727TIP3    H214127   4.382   1.080   1.303
 4728TIP3   OH214128   7.970   7.480   4.524
 4728TIP3    H114129   7.889   7.526   4.500
 4728TIP3    H214130   7.975   7.407   4.462
 4729TIP3   OH214131   7.613   6.230   0.148
 4729TIP3    H114132   7.545   6.282   0.104
 4729TIP3    H214133   7.580   6.140   0.147
 4730TIP3   OH214134   3.217   1.660   5.673
 4730TIP3    H114135   3.207   1.750   5.704
 4730TIP3    H214136   3.302   1.658   5.630
 4731TIP3   OH214137   1.404   2.762   1.297
 4731TIP3    H114138   1.403   2.667   1.304
 4731TIP3    H214139   1.493   2.783   1.271
 4732TIP3   OH214140   4.239   2.325   1.341
 4732TIP3    H114141   4.328   2.303   1.315
 4732TIP3    H214142   4.212   2.253   1.397
 4733TIP3   OH214143   7.033   0.980   6.375
 4733TIP3    H114144   7.128   0.970   6.381
 4733TIP3    H214145   7.018   1.073   6.393
 4734TIP3   OH214146   3.735   5.946   3.201
 4734TIP3    H114147   3.803   5.913   3.259
 4734TIP3    H214148   3.678   5.871   3.186
 4735TIP3   OH214149   2.948   5.100   3.566
 4735TIP3    H114150   2.884   5.146   3.512
 4735TIP3    H214151   2.996   5.170   3.611
 4736TIP3   OH214152   5.769   7.286   0.668
 4736TIP3    H114153   5.730   7.204   0.639
 4736TIP3    H214154   5.786   7.273   0.761
 4737TIP3   OH214155   7.367   7.496   6.280
 4737TIP3    H114156   7.405   7.480   6.194
 4737TIP3    H214157   7.294   7.555   6.264
 4738TIP3   OH214158   4.978   0.417   4.685
 4738TIP3    H114159   5.011   0.333   4.718
 4738TIP3    H214160   4.958   0.468   4.763
 4739TIP3   OH214161   6.545   1.483   2.724
 4739TIP3    H114162   6.609   1.554   2.727
 4739TIP3    H214163   6.460   1.527   2.723
 4740TIP3   OH214164   1.830   4.728   2.426
 4740TIP3    H114165   1.920   4.697   2.435
 4740TIP3    H214166   1.830   4.778   2.343
 4741TIP3   OH214167   7.084   2.729   4.857
 4741TIP3    H114168   7.093   2.722   4.952
 4741TIP3    H214169   7.160   2.780   4.830
 4742TIP3   OH214170   6.717   3.624   1.237
 4742TIP3    H114171   6.628   3.595   1.256
 4742TIP3    H214172   6.713   3.660   1.148
 4743TIP3   OH214173   5.409   0.978   2.341
 4743TIP3    H114174   5.432   0.965   2.249
 4743TIP3    H214175   5.363   1.062   2.343
 4744TIP3   OH214176   7.401   5.250   2.294
 4744TIP3    H114177   7.339   5.216   2.230
 4744TIP3    H214178   7.472   5.287   2.241
 4745TIP3   OH214179   0.488   7.668   1.077
 4745TIP3    H114180   0.496   7.746   1.131
 4745TIP3    H214181   0.578   7.634   1.072
 4746TIP3   OH214182   7.958   2.643   5.353
 4746TIP3    H114183   7.984   2.731   5.325
 4746TIP3    H214184   7.923   2.602   5.274
 4747TIP3   OH214185   7.534   7.359   0.636
 4747TIP3    H114186   7.541   7.409   0.717
 4747TIP3    H214187   7.609   7.299   0.639
 4748TIP3   OH214188   7.130   0.540   6.149
 4748TIP3    H114189   7.129   0.518   6.055
 4748TIP3    H214190   7.216   0.577   6.164
 4749TIP3   OH214191   3.451   5.490   0.698
 4749TIP3    H114192   3.484   5.404   0.672
 4749TIP3    H214193   3.493   5.551   0.637
 4750TIP3   OH214194   0.918   0.071   5.956
 4750TIP3    H114195   0.962  -0.008   5.986
 4750TIP3    H214196   0.989   0.124   5.919
 4751TIP3   OH214197   5.102   5.192   3.464
 4751TIP3    H114198   5.027   5.148   3.503
 4751TIP3    H214199   5.066   5.240   3.389
 4752TIP3   OH214200   7.136   6.490   3.672
 4752TIP3    H114201   7.155   6.521   3.583
 4752TIP3    H214202   7.092   6.564   3.714
 4753TIP3   OH214203   4.381   4.926   0.915
 4753TIP3    H114204   4.380   4.999   0.976
 4753TIP3    H214205   4.290   4.916   0.887
 4754TIP3   OH214206   1.616   3.414   6.209
 4754TIP3    H114207   1.579   3.496   6.243
 4754TIP3    H214208   1.701   3.407   6.252
 4755TIP3   OH214209   5.310   2.445   4.283
 4755TIP3    H114210   5.366   2.386   4.232
 4755TIP3    H214211   5.234   2.461   4.227
 4756TIP3   OH214212   5.913   5.435   6.113
 4756TIP3    H114213   5.841   5.428   6.049
 4756TIP3    H214214   5.980   5.485   6.067
 4757TIP3   OH214215   3.647   2.547   6.077
 4757TIP3    H114216   3.595   2.628   6.078
 4757TIP3    H214217   3.736   2.576   6.056
 4758TIP3   OH214218   2.877   6.324   4.151
 4758TIP3    H114219   2.841   6.272   4.223
 4758TIP3    H214220   2.802   6.346   4.096
 4759TIP3   OH214221   3.822   5.781   1.322
 4759TIP3    H114222   3.896   5.827   1.280
 4759TIP3    H214223   3.759   5.769   1.252
 4760TIP3   OH214224   7.660   6.109   5.537
 4760TIP3    H114225   7.579   6.161   5.533
 4760TIP3    H214226   7.630   6.019   5.545
 4761TIP3   OH214227   4.106   7.474   4.384
 4761TIP3    H114228   4.184   7.441   4.339
 4761TIP3    H214229   4.141   7.535   4.449
 4762TIP3   OH214230   5.412   4.908   1.786
 4762TIP3    H114231   5.393   4.953   1.703
 4762TIP3    H214232   5.387   4.817   1.769
 4763TIP3   OH214233   5.291   0.681   1.200
 4763TIP3    H114234   5.241   0.682   1.281
 4763TIP3    H214235   5.237   0.730   1.138
 4764TIP3   OH214236   3.209   4.992   4.753
 4764TIP3    H114237   3.124   5.033   4.771
 4764TIP3    H214238   3.189   4.919   4.695
 4765TIP3   OH214239   4.951   1.522   0.361
 4765TIP3    H114240   4.968   1.465   0.285
 4765TIP3    H214241   4.935   1.608   0.323
 4766TIP3   OH214242   7.729   2.818   2.014
 4766TIP3    H114243   7.814   2.773   2.021
 4766TIP3    H214244   7.673   2.756   1.968
 4767TIP3   OH214245   7.679   0.189   0.330
 4767TIP3    H114246   7.614   0.195   0.399
 4767TIP3    H214247   7.744   0.127   0.363
 4768TIP3   OH214248   5.276   5.833   5.592
 4768TIP3    H114249   5.371   5.844   5.590
 4768TIP3    H214250   5.244   5.890   5.522
 4769TIP3   OH214251   3.812   0.136   3.724
 4769TIP3    H114252   3.750   0.070   3.693
 4769TIP3    H214253   3.811   0.126   3.819
 4770TIP3   OH214254   2.350   4.871   4.821
 4770TIP3    H114255   2.351   4.862   4.917
 4770TIP3    H214256   2.436   4.908   4.800
 4771TIP3   OH214257   5.110   4.880   1.207
 4771TIP3    H114258   5.137   4.942   1.140
 4771TIP3    H214259   5.052   4.819   1.161
 4772TIP3   OH214260   7.900   1.070   3.181
 4772TIP3    H114261   7.954   1.149   3.172
 4772TIP3    H214262   7.810   1.101   3.172
 4773TIP3   OH214263   4.651   4.070   4.566
 4773TIP3    H114264   4.639   4.157   4.603
 4773TIP3    H214265   4.638   4.010   4.639
 4774TIP3   OH214266   2.436   5.239   1.418
 4774TIP3    H114267   2.362   5.198   1.373
 4774TIP3    H214268   2.415   5.231   1.511
 4775TIP3   OH214269   1.875   5.744   4.111
 4775TIP3    H114270   1.835   5.791   4.037
 4775TIP3    H214271   1.802   5.723   4.169
 4776TIP3   OH214272   3.874   3.769   6.156
 4776TIP3    H114273   3.888   3.720   6.075
 4776TIP3    H214274   3.940   3.839   6.153
 4777TIP3   OH214275   4.475   0.327   2.577
 4777TIP3    H114276   4.434   0.356   2.495
 4777TIP3    H214277   4.567   0.317   2.555
 4778TIP3   OH214278   3.279   7.196   5.380
 4778TIP3    H114279   3.226   7.117   5.367
 4778TIP3    H214280   3.364   7.164   5.408
 4779TIP3   OH214281   1.045   6.153   2.387
 4779TIP3    H114282   1.131   6.124   2.358
 4779TIP3    H214283   1.033   6.238   2.345
 4780TIP3   OH214284   5.665   0.739   6.688
 4780TIP3    H114285   5.711   0.809   6.641
 4780TIP3    H214286   5.690   0.659   6.642
 4781TIP3   OH214287   1.251   6.048   3.584
 4781TIP3    H114288   1.261   6.077   3.675
 4781TIP3    H214289   1.338   6.062   3.546
 4782TIP3   OH214290   1.976   5.897   0.153
 4782TIP3    H114291   1.935   5.815   0.181
 4782TIP3    H214292   2.069   5.875   0.143
 4783TIP3   OH214293   2.231   2.430   5.328
 4783TIP3    H114294   2.255   2.485   5.254
 4783TIP3    H214295   2.313   2.412   5.373
 4784TIP3   OH214296   4.137   7.188   6.346
 4784TIP3    H114297   4.090   7.115   6.305
 4784TIP3    H214298   4.222   7.189   6.303
 4785TIP3   OH214299   6.748   2.865   3.871
 4785TIP3    H114300   6.731   2.833   3.960
 4785TIP3    H214301   6.729   2.791   3.814
 4786TIP3   OH214302   7.937   0.066   5.806
 4786TIP3    H114303   8.008   0.006   5.785
 4786TIP3    H214304   7.980   0.139   5.851
 4787TIP3   OH214305   1.258   5.366   1.288
 4787TIP3    H114306   1.326   5.412   1.238
 4787TIP3    H214307   1.301   5.288   1.322
 4788TIP3   OH214308   5.955   5.115   5.193
 4788TIP3    H114309   6.041   5.088   5.226
 4788TIP3    H214310   5.893   5.083   5.259
 4789TIP3   OH214311   5.983   2.003   3.242
 4789TIP3    H114312   6.048   1.938   3.214
 4789TIP3    H214313   5.936   1.959   3.313
 4790TIP3   OH214314   6.984   7.650   3.369
 4790TIP3    H114315   6.919   7.672   3.302
 4790TIP3    H214316   7.038   7.729   3.376
 4791TIP3   OH214317   2.947   2.900   6.601
 4791TIP3    H114318   2.885   2.973   6.606
 4791TIP3    H214319   2.987   2.897   6.688
 4792TIP3   OH214320   3.166   3.776   3.721
 4792TIP3    H114321   3.078   3.785   3.686
 4792TIP3    H214322   3.179   3.682   3.730
 4793TIP3   OH214323   5.427   7.013   2.354
 4793TIP3    H114324   5.366   7.082   2.328
 4793TIP3    H214325   5.470   7.047   2.433
 4794TIP3   OH214326   3.370   7.481   1.508
 4794TIP3    H114327   3.335   7.402   1.549
 4794TIP3    H214328   3.458   7.456   1.480
 4795TIP3   OH214329   4.491   0.060   3.471
 4795TIP3    H114330   4.477  -0.034   3.466
 4795TIP3    H214331   4.512   0.076   3.563
 4796TIP3   OH214332   3.096   3.579   4.625
 4796TIP3    H114333   3.107   3.625   4.708
 4796TIP3    H214334   3.146   3.498   4.636
 4797TIP3   OH214335   6.525   6.696   2.957
 4797TIP3    H114336   6.505   6.674   3.048
 4797TIP3    H214337   6.462   6.644   2.906
 4798TIP3   OH214338   4.143   2.088   3.139
 4798TIP3    H114339   4.082   2.039   3.083
 4798TIP3    H214340   4.146   2.038   3.221
 4799TIP3   OH214341   5.761   6.310   0.641
 4799TIP3    H114342   5.666   6.321   0.642
 4799TIP3    H214343   5.796   6.399   0.640
 4800TIP3   OH214344   4.394   0.255   0.935
 4800TIP3    H114345   4.396   0.346   0.966
 4800TIP3    H214346   4.409   0.262   0.840
 4801TIP3   OH214347   5.325   4.583   3.352
 4801TIP3    H114348   5.252   4.581   3.290
 4801TIP3    H214349   5.297   4.527   3.424
 4802TIP3   OH214350   0.715   2.724   0.265
 4802TIP3    H114351   0.669   2.806   0.281
 4802TIP3    H214352   0.808   2.747   0.274
 4803TIP3   OH214353   4.038   3.898   5.352
 4803TIP3    H114354   3.975   3.962   5.320
 4803TIP3    H214355   3.997   3.863   5.431
 4804TIP3   OH214356   4.938   7.603   2.702
 4804TIP3    H114357   4.972   7.645   2.781
 4804TIP3    H214358   4.948   7.509   2.719
 4805TIP3   OH214359   0.762   1.191   5.664
 4805TIP3    H114360   0.723   1.170   5.748
 4805TIP3    H214361   0.767   1.108   5.618
 4806TIP3   OH214362   6.959   3.857   5.821
 4806TIP3    H114363   7.048   3.822   5.824
 4806TIP3    H214364   6.936   3.857   5.728
 4807TIP3   OH214365   8.207   6.677   6.678
 4807TIP3    H114366   8.283   6.664   6.735
 4807TIP3    H214367   8.234   6.744   6.616
 4808TIP3   OH214368   5.271   4.877   5.695
 4808TIP3    H114369   5.185   4.917   5.686
 4808TIP3    H214370   5.255   4.783   5.687
 4809TIP3   OH214371   0.731   7.536   0.040
 4809TIP3    H114372   0.824   7.556   0.048
 4809TIP3    H214373   0.728   7.454  -0.008
 4810TIP3   OH214374   2.543   5.685   0.287
 4810TIP3    H114375   2.503   5.721   0.366
 4810TIP3    H214376   2.637   5.685   0.304
 4811TIP3   OH214377   3.850   1.577   1.829
 4811TIP3    H114378   3.801   1.528   1.895
 4811TIP3    H214379   3.871   1.660   1.871
 4812TIP3   OH214380   6.964   7.149   5.304
 4812TIP3    H114381   6.978   7.073   5.361
 4812TIP3    H214382   7.052   7.170   5.271
 4813TIP3   OH214383   4.873   1.836   4.950
 4813TIP3    H114384   4.915   1.751   4.937
 4813TIP3    H214385   4.920   1.874   5.025
 4814TIP3   OH214386   1.301   2.548   2.947
 4814TIP3    H114387   1.271   2.566   3.036
 4814TIP3    H214388   1.337   2.460   2.950
 4815TIP3   OH214389   0.936   1.448   6.719
 4815TIP3    H114390   0.886   1.469   6.640
 4815TIP3    H214391   0.876   1.464   6.791
 4816TIP3   OH214392   0.991   7.287   2.536
 4816TIP3    H114393   1.005   7.210   2.591
 4816TIP3    H214394   0.899   7.309   2.550
 4817TIP3   OH214395   6.371   7.641   2.745
 4817TIP3    H114396   6.378   7.720   2.691
 4817TIP3    H214397   6.456   7.635   2.790
 4818TIP3   OH214398   3.015   7.411   4.514
 4818TIP3    H114399   3.056   7.449   4.436
 4818TIP3    H214400   3.074   7.434   4.586
 4819TIP3   OH214401   0.295   0.208   0.060
 4819TIP3    H114402   0.352   0.217   0.137
 4819TIP3    H214403   0.271   0.297   0.039
 4820TIP3   OH214404   7.866   6.133   6.463
 4820TIP3    H114405   7.810   6.106   6.535
 4820TIP3    H214406   7.941   6.073   6.467
 4821TIP3   OH214407   4.674   3.400   6.127
 4821TIP3    H114408   4.617   3.371   6.056
 4821TIP3    H214409   4.752   3.435   6.082
 4822TIP3   OH214410   5.208   0.296   6.578
 4822TIP3    H114411   5.298   0.322   6.594
 4822TIP3    H214412   5.156   0.348   6.639
 4823TIP3   OH214413   5.352   2.583   3.006
 4823TIP3    H114414   5.268   2.587   3.053
 4823TIP3    H214415   5.393   2.503   3.038
 4824TIP3   OH214416   3.212   4.182   0.332
 4824TIP3    H114417   3.275   4.234   0.281
 4824TIP3    H214418   3.266   4.122   0.382
 4825TIP3   OH214419   2.585   2.790   2.769
 4825TIP3    H114420   2.595   2.862   2.707
 4825TIP3    H214421   2.557   2.832   2.851
 4826TIP3   OH214422   6.110   6.501   3.833
 4826TIP3    H114423   6.117   6.420   3.884
 4826TIP3    H214424   6.054   6.558   3.887
 4827TIP3   OH214425   4.857   6.011   1.075
 4827TIP3    H114426   4.837   5.931   1.125
 4827TIP3    H214427   4.876   5.980   0.987
 4828TIP3   OH214428   6.330   1.074   4.293
 4828TIP3    H114429   6.373   1.004   4.244
 4828TIP3    H214430   6.249   1.034   4.325
 4829TIP3   OH214431   5.764   7.590   1.626
 4829TIP3    H114432   5.755   7.584   1.531
 4829TIP3    H214433   5.769   7.683   1.644
 4830TIP3   OH214434   4.040   0.916   4.477
 4830TIP3    H114435   4.120   0.948   4.520
 4830TIP3    H214436   4.060   0.921   4.384
 4831TIP3   OH214437   3.358   4.425   2.324
 4831TIP3    H114438   3.390   4.406   2.412
 4831TIP3    H214439   3.335   4.518   2.326
 4832TIP3   OH214440   4.720   6.741   2.755
 4832TIP3    H114441   4.690   6.680   2.823
 4832TIP3    H214442   4.778   6.689   2.700
 4833TIP3   OH214443   2.802   4.130   2.247
 4833TIP3    H114444   2.897   4.144   2.250
 4833TIP3    H214445   2.768   4.189   2.314
 4834TIP3   OH214446   7.596   7.682   1.633
 4834TIP3    H114447   7.649   7.671   1.712
 4834TIP3    H214448   7.506   7.681   1.664
 4835TIP3   OH214449   7.566   1.193   2.435
 4835TIP3    H114450   7.490   1.231   2.479
 4835TIP3    H214451   7.637   1.255   2.452
 4836TIP3   OH214452   7.856   3.149   3.997
 4836TIP3    H114453   7.849   3.139   3.902
 4836TIP3    H214454   7.771   3.186   4.023
 4837TIP3   OH214455   3.962   0.032   0.139
 4837TIP3    H114456   3.958   0.040   0.044
 4837TIP3    H214457   3.965  -0.062   0.156
 4838TIP3   OH214458   5.019   1.682   4.393
 4838TIP3    H114459   4.925   1.673   4.380
 4838TIP3    H214460   5.028   1.729   4.477
 4839TIP3   OH214461   1.217   5.708   1.360
 4839TIP3    H114462   1.286   5.749   1.413
 4839TIP3    H214463   1.136   5.744   1.395
 4840TIP3   OH214464   1.173   2.067   5.114
 4840TIP3    H114465   1.148   2.152   5.079
 4840TIP3    H214466   1.206   2.018   5.039
 4841TIP3   OH214467   4.175   6.551   0.957
 4841TIP3    H114468   4.213   6.463   0.962
 4841TIP3    H214469   4.250   6.609   0.943
 4842TIP3   OH214470   3.181   2.040   2.318
 4842TIP3    H114471   3.096   2.029   2.361
 4842TIP3    H214472   3.196   1.957   2.272
 4843TIP3   OH214473   8.240   6.444   2.272
 4843TIP3    H114474   8.229   6.350   2.259
 4843TIP3    H214475   8.328   6.463   2.237
 4844TIP3   OH214476   7.893   6.379   6.636
 4844TIP3    H114477   7.943   6.348   6.712
 4844TIP3    H214478   7.893   6.305   6.576
 4845TIP3   OH214479   7.432   0.524   4.667
 4845TIP3    H114480   7.504   0.549   4.608
 4845TIP3    H214481   7.475   0.480   4.740
 4846TIP3   OH214482   6.463   4.841   1.927
 4846TIP3    H114483   6.402   4.801   1.865
 4846TIP3    H214484   6.421   4.923   1.952
 4847TIP3   OH214485   4.694   5.501   1.400
 4847TIP3    H114486   4.713   5.594   1.398
 4847TIP3    H214487   4.608   5.493   1.358
 4848TIP3   OH214488   3.734   1.991   6.027
 4848TIP3    H114489   3.768   1.905   6.048
 4848TIP3    H214490   3.673   2.012   6.098
 4849TIP3   OH214491   7.269   5.677   0.434
 4849TIP3    H114492   7.292   5.592   0.472
 4849TIP3    H214493   7.228   5.655   0.350
 4850TIP3   OH214494   6.884   1.895   2.479
 4850TIP3    H114495   6.965   1.935   2.446
 4850TIP3    H214496   6.903   1.801   2.481
 4851TIP3   OH214497   2.206   5.600   1.564
 4851TIP3    H114498   2.229   5.655   1.489
 4851TIP3    H214499   2.225   5.655   1.640
 4852TIP3   OH214500   5.884   2.414   0.972
 4852TIP3    H114501   5.827   2.443   1.043
 4852TIP3    H214502   5.899   2.494   0.920
 4853TIP3   OH214503   0.503   3.067   6.532
 4853TIP3    H114504   0.565   3.120   6.583
 4853TIP3    H214505   0.437   3.040   6.597
 4854TIP3   OH214506   4.725  -0.031   2.398
 4854TIP3    H114507   4.738   0.055   2.358
 4854TIP3    H214508   4.808  -0.050   2.441
 4855TIP3   OH214509   6.256   3.972   4.916
 4855TIP3    H114510   6.194   3.928   4.975
 4855TIP3    H214511   6.274   4.055   4.959
 4856TIP3   OH214512   6.523   3.768   3.280
 4856TIP3    H114513   6.603   3.739   3.324
 4856TIP3    H214514   6.553   3.809   3.199
 4857TIP3   OH214515   1.876   1.084   4.495
 4857TIP3    H114516   1.959   1.102   4.538
 4857TIP3    H214517   1.827   1.166   4.501
 4858TIP3   OH214518   0.840   2.501   4.035
 4858TIP3    H114519   0.799   2.427   4.078
 4858TIP3    H214520   0.781   2.575   4.052
 4859TIP3   OH214521   4.707   6.256   6.191
 4859TIP3    H114522   4.641   6.316   6.156
 4859TIP3    H214523   4.740   6.210   6.113
 4860TIP3   OH214524   0.969   5.579   2.283
 4860TIP3    H114525   1.059   5.597   2.258
 4860TIP3    H214526   0.958   5.622   2.368
 4861TIP3   OH214527   4.621   0.080   0.573
 4861TIP3    H114528   4.635  -0.002   0.620
 4861TIP3    H214529   4.530   0.103   0.591
 4862TIP3   OH214530   0.645   6.898   0.084
 4862TIP3    H114531   0.621   6.825   0.141
 4862TIP3    H214532   0.576   6.901   0.018
 4863TIP3   OH214533   5.768   5.676   5.965
 4863TIP3    H114534   5.723   5.633   6.038
 4863TIP3    H214535   5.705   5.738   5.931
 4864TIP3   OH214536   3.078   2.610   3.680
 4864TIP3    H114537   3.138   2.537   3.664
 4864TIP3    H214538   2.991   2.572   3.673
 4865TIP3   OH214539   5.052   0.688   5.079
 4865TIP3    H114540   5.088   0.616   5.131
 4865TIP3    H214541   5.053   0.763   5.138
 4866TIP3   OH214542   6.888   6.973   5.591
 4866TIP3    H114543   6.901   6.878   5.584
 4866TIP3    H214544   6.793   6.984   5.591
 4867TIP3   OH214545   2.886   4.643   5.043
 4867TIP3    H114546   2.928   4.729   5.049
 4867TIP3    H214547   2.845   4.642   4.957
 4868TIP3   OH214548   5.434   5.146   6.608
 4868TIP3    H114549   5.450   5.137   6.514
 4868TIP3    H214550   5.355   5.095   6.624
 4869TIP3   OH214551   4.163   2.772   4.594
 4869TIP3    H114552   4.132   2.708   4.530
 4869TIP3    H214553   4.171   2.853   4.544
 4870TIP3   OH214554   5.020   1.682   3.269
 4870TIP3    H114555   4.939   1.672   3.319
 4870TIP3    H214556   5.077   1.733   3.327
 4871TIP3   OH214557   5.498   0.832   2.556
 4871TIP3    H114558   5.560   0.769   2.520
 4871TIP3    H214559   5.459   0.874   2.479
 4872TIP3   OH214560   7.723   7.532   6.709
 4872TIP3    H114561   7.810   7.570   6.698
 4872TIP3    H214562   7.664   7.608   6.713
 4873TIP3   OH214563   2.503   4.573   1.091
 4873TIP3    H114564   2.498   4.582   0.996
 4873TIP3    H214565   2.540   4.487   1.105
 4874TIP3   OH214566   4.457   3.393   6.343
 4874TIP3    H114567   4.541   3.347   6.339
 4874TIP3    H214568   4.481   3.484   6.362
 4875TIP3   OH214569   7.038   3.964   3.009
 4875TIP3    H114570   7.025   3.901   3.079
 4875TIP3    H214571   7.130   3.955   2.985
 4876TIP3   OH214572   7.974   4.143   5.959
 4876TIP3    H114573   7.949   4.058   5.994
 4876TIP3    H214574   8.039   4.123   5.891
 4877TIP3   OH214575   1.154   2.078   6.111
 4877TIP3    H114576   1.149   2.066   6.206
 4877TIP3    H214577   1.211   2.155   6.100
 4878TIP3   OH214578   6.790   3.081   6.163
 4878TIP3    H114579   6.700   3.113   6.161
 4878TIP3    H214580   6.844   3.159   6.146
 4879TIP3   OH214581   7.700   6.487   4.757
 4879TIP3    H114582   7.643   6.436   4.699
 4879TIP3    H214583   7.639   6.532   4.816
 4880TIP3   OH214584   2.239   2.760   5.905
 4880TIP3    H114585   2.202   2.838   5.863
 4880TIP3    H214586   2.284   2.793   5.983
 4881TIP3   OH214587   1.388   0.193   3.149
 4881TIP3    H114588   1.385   0.128   3.078
 4881TIP3    H214589   1.323   0.162   3.212
 4882TIP3   OH214590   1.429   1.988   0.723
 4882TIP3    H114591   1.492   2.049   0.761
 4882TIP3    H214592   1.394   2.035   0.647
 4883TIP3   OH214593   1.674   2.519   3.317
 4883TIP3    H114594   1.721   2.461   3.257
 4883TIP3    H214595   1.635   2.585   3.261
 4884TIP3   OH214596   6.740   7.808   3.627
 4884TIP3    H114597   6.651   7.773   3.630
 4884TIP3    H214598   6.795   7.733   3.651
 4885TIP3   OH214599   1.589   6.764   5.930
 4885TIP3    H114600   1.582   6.759   6.026
 4885TIP3    H214601   1.546   6.684   5.899
 4886TIP3   OH214602   2.413   5.126   6.195
 4886TIP3    H114603   2.351   5.053   6.193
 4886TIP3    H214604   2.445   5.133   6.105
 4887TIP3   OH214605   6.720   4.162   0.649
 4887TIP3    H114606   6.769   4.169   0.567
 4887TIP3    H214607   6.781   4.121   0.711
 4888TIP3   OH214608   4.322   4.018   2.630
 4888TIP3    H114609   4.226   4.021   2.630
 4888TIP3    H214610   4.344   3.945   2.688
 4889TIP3   OH214611   6.751   7.505   6.498
 4889TIP3    H114612   6.790   7.431   6.544
 4889TIP3    H214613   6.783   7.582   6.545
 4890TIP3   OH214614   4.798   4.415   1.011
 4890TIP3    H114615   4.712   4.376   0.998
 4890TIP3    H214616   4.846   4.351   1.065
 4891TIP3   OH214617   3.318   5.636   6.195
 4891TIP3    H114618   3.324   5.543   6.176
 4891TIP3    H214619   3.254   5.643   6.266
 4892TIP3   OH214620   4.576   7.479   1.788
 4892TIP3    H114621   4.600   7.395   1.827
 4892TIP3    H214622   4.656   7.509   1.744
 4893TIP3   OH214623   1.127   0.614   2.287
 4893TIP3    H114624   1.039   0.642   2.313
 4893TIP3    H214625   1.132   0.635   2.193
 4894TIP3   OH214626   6.083   0.637   0.646
 4894TIP3    H114627   6.176   0.616   0.633
 4894TIP3    H214628   6.051   0.656   0.558
 4895TIP3   OH214629   1.647   6.150   0.156
 4895TIP3    H114630   1.612   6.090   0.222
 4895TIP3    H214631   1.679   6.092   0.086
 4896TIP3   OH214632   3.142   6.235   4.125
 4896TIP3    H114633   3.059   6.275   4.099
 4896TIP3    H214634   3.199   6.249   4.050
 4897TIP3   OH214635   5.241   2.181   3.556
 4897TIP3    H114636   5.244   2.206   3.464
 4897TIP3    H214637   5.150   2.198   3.582
 4898TIP3   OH214638   2.988   7.578   0.180
 4898TIP3    H114639   2.989   7.498   0.233
 4898TIP3    H214640   2.910   7.625   0.210
 4899TIP3   OH214641   6.793   3.774   6.443
 4899TIP3    H114642   6.849   3.745   6.370
 4899TIP3    H214643   6.807   3.709   6.511
 4900TIP3   OH214644   2.168   1.533   2.872
 4900TIP3    H114645   2.238   1.471   2.895
 4900TIP3    H214646   2.106   1.527   2.945
 4901TIP3   OH214647   5.869   3.755   3.179
 4901TIP3    H114648   5.822   3.766   3.097
 4901TIP3    H214649   5.869   3.843   3.218
 4902TIP3   OH214650   6.247   6.779   5.204
 4902TIP3    H114651   6.173   6.751   5.150
 4902TIP3    H214652   6.211   6.843   5.264
 4903TIP3   OH214653   6.263   2.704   4.126
 4903TIP3    H114654   6.191   2.755   4.090
 4903TIP3    H214655   6.293   2.649   4.054
 4904TIP3   OH214656   3.453   1.284   5.630
 4904TIP3    H114657   3.399   1.357   5.662
 4904TIP3    H214658   3.407   1.206   5.662
 4905TIP3   OH214659   6.324   5.404   6.616
 4905TIP3    H114660   6.247   5.461   6.609
 4905TIP3    H214661   6.308   5.351   6.694
 4906TIP3   OH214662   3.480   0.579   4.781
 4906TIP3    H114663   3.505   0.551   4.868
 4906TIP3    H214664   3.422   0.654   4.795
 4907TIP3   OH214665   5.733   5.747   0.264
 4907TIP3    H114666   5.689   5.694   0.197
 4907TIP3    H214667   5.682   5.733   0.343
 4908TIP3   OH214668   5.428   1.186   3.869
 4908TIP3    H114669   5.512   1.142   3.874
 4908TIP3    H214670   5.373   1.140   3.933
 4909TIP3   OH214671   6.046   6.141   3.739
 4909TIP3    H114672   6.094   6.083   3.680
 4909TIP3    H214673   5.969   6.091   3.766
 4910TIP3   OH214674   1.486   3.107   2.587
 4910TIP3    H114675   1.429   3.137   2.658
 4910TIP3    H214676   1.442   3.030   2.552
 4911TIP3   OH214677   5.606   6.277   1.067
 4911TIP3    H114678   5.675   6.237   1.015
 4911TIP3    H214679   5.611   6.234   1.152
 4912TIP3   OH214680   5.084   0.992   4.780
 4912TIP3    H114681   5.111   0.908   4.818
 4912TIP3    H214682   5.130   0.995   4.696
 4913TIP3   OH214683   2.084   4.744   1.010
 4913TIP3    H114684   2.038   4.720   0.929
 4913TIP3    H214685   2.070   4.838   1.019
 4914TIP3   OH214686   2.451   6.756   1.461
 4914TIP3    H114687   2.482   6.738   1.373
 4914TIP3    H214688   2.359   6.730   1.460
 4915TIP3   OH214689   7.367   5.496   6.188
 4915TIP3    H114690   7.445   5.508   6.243
 4915TIP3    H214691   7.352   5.401   6.189
 4916TIP3   OH214692   5.071   4.719   1.951
 4916TIP3    H114693   5.091   4.812   1.939
 4916TIP3    H214694   4.998   4.702   1.891
 4917TIP3   OH214695   0.014   3.459   4.999
 4917TIP3    H114696   0.008   3.551   4.973
 4917TIP3    H214697   0.025   3.412   4.917
 4918TIP3   OH214698   5.009   5.826   1.991
 4918TIP3    H114699   4.917   5.802   1.990
 4918TIP3    H214700   5.052   5.761   1.935
 4919TIP3   OH214701   3.579   3.887   0.600
 4919TIP3    H114702   3.634   3.814   0.627
 4919TIP3    H214703   3.638   3.961   0.591
 4920TIP3   OH214704   0.505   6.814   4.525
 4920TIP3    H114705   0.572   6.873   4.492
 4920TIP3    H214706   0.433   6.871   4.552
 4921TIP3   OH214707   4.948   3.860   1.048
 4921TIP3    H114708   4.905   3.846   1.133
 4921TIP3    H214709   5.038   3.885   1.070
 4922TIP3   OH214710   7.340   4.955   5.793
 4922TIP3    H114711   7.368   4.949   5.702
 4922TIP3    H214712   7.391   4.887   5.838
 4923TIP3   OH214713   7.615   5.743   1.086
 4923TIP3    H114714   7.572   5.788   1.158
 4923TIP3    H214715   7.553   5.751   1.013
 4924TIP3   OH214716   6.401   0.372   4.426
 4924TIP3    H114717   6.324   0.315   4.428
 4924TIP3    H214718   6.428   0.378   4.518
 4925TIP3   OH214719   5.560   4.491   2.701
 4925TIP3    H114720   5.468   4.472   2.717
 4925TIP3    H214721   5.563   4.586   2.687
 4926TIP3   OH214722   0.036   0.604   6.164
 4926TIP3    H114723   0.078   0.518   6.159
 4926TIP3    H214724   0.051   0.632   6.255
 4927TIP3   OH214725   6.849   4.262   5.041
 4927TIP3    H114726   6.923   4.319   5.019
 4927TIP3    H214727   6.795   4.262   4.962
 4928TIP3   OH214728   2.951   7.379   1.985
 4928TIP3    H114729   2.976   7.471   1.991
 4928TIP3    H214730   2.925   7.355   2.074
 4929TIP3   OH214731   3.811   1.341   5.135
 4929TIP3    H114732   3.754   1.276   5.094
 4929TIP3    H214733   3.766   1.366   5.216
 4930TIP3   OH214734   4.224   6.478   5.148
 4930TIP3    H114735   4.141   6.517   5.176
 4930TIP3    H214736   4.238   6.407   5.211
 4931TIP3   OH214737   2.933   3.278   5.392
 4931TIP3    H114738   2.992   3.347   5.422
 4931TIP3    H214739   2.852   3.323   5.370
 4932TIP3   OH214740   1.866   6.359   4.849
 4932TIP3    H114741   1.869   6.454   4.840
 4932TIP3    H214742   1.917   6.326   4.774
 4933TIP3   OH214743   6.577   0.060   5.281
 4933TIP3    H114744   6.558   0.077   5.373
 4933TIP3    H214745   6.627  -0.021   5.281
 4934TIP3   OH214746   1.648   2.197   6.532
 4934TIP3    H114747   1.619   2.211   6.622
 4934TIP3    H214748   1.710   2.267   6.515
 4935TIP3   OH214749   1.952   2.298   1.278
 4935TIP3    H114750   1.943   2.278   1.371
 4935TIP3    H214751   2.013   2.372   1.276
 4936TIP3   OH214752   1.429   4.831   2.062
 4936TIP3    H114753   1.469   4.901   2.111
 4936TIP3    H214754   1.420   4.759   2.124
 4937TIP3   OH214755   1.967   5.279   5.692
 4937TIP3    H114756   1.975   5.373   5.680
 4937TIP3    H214757   2.048   5.243   5.657
 4938TIP3   OH214758   7.335   3.415   5.408
 4938TIP3    H114759   7.368   3.337   5.453
 4938TIP3    H214760   7.272   3.453   5.470
 4939TIP3   OH214761   3.621   3.365   4.339
 4939TIP3    H114762   3.601   3.275   4.363
 4939TIP3    H214763   3.709   3.361   4.300
 4940TIP3   OH214764   7.464   2.443   5.203
 4940TIP3    H114765   7.492   2.402   5.285
 4940TIP3    H214766   7.430   2.529   5.229
 4941TIP3   OH214767   3.449   2.021   5.300
 4941TIP3    H114768   3.422   1.948   5.245
 4941TIP3    H214769   3.368   2.069   5.317
 4942TIP3   OH214770   7.157   6.059   0.963
 4942TIP3    H114771   7.170   6.151   0.985
 4942TIP3    H214772   7.180   6.012   1.043
 4943TIP3   OH214773   2.555   0.062   3.370
 4943TIP3    H114774   2.627   0.033   3.427
 4943TIP3    H214775   2.492   0.103   3.429
 4944TIP3   OH214776   0.405   6.453   0.175
 4944TIP3    H114777   0.406   6.527   0.236
 4944TIP3    H214778   0.345   6.481   0.106
 4945TIP3   OH214779   7.090   3.577   6.493
 4945TIP3    H114780   7.134   3.492   6.487
 4945TIP3    H214781   7.161   3.641   6.486
 4946TIP3   OH214782   7.323   1.561   4.296
 4946TIP3    H114783   7.337   1.468   4.310
 4946TIP3    H214784   7.279   1.567   4.212
 4947TIP3   OH214785   7.852   3.426   5.858
 4947TIP3    H114786   7.928   3.370   5.841
 4947TIP3    H214787   7.889   3.513   5.870
 4948TIP3   OH214788   4.443   6.437   2.527
 4948TIP3    H114789   4.519   6.412   2.579
 4948TIP3    H214790   4.439   6.371   2.458
 4949TIP3   OH214791   3.058   6.158   3.289
 4949TIP3    H114792   3.087   6.179   3.200
 4949TIP3    H214793   3.139   6.150   3.340
 4950TIP3   OH214794   2.493   7.727   2.766
 4950TIP3    H114795   2.511   7.792   2.834
 4950TIP3    H214796   2.398   7.728   2.755
 4951TIP3   OH214797   5.406   2.077   1.412
 4951TIP3    H114798   5.312   2.089   1.396
 4951TIP3    H214799   5.411   2.049   1.503
 4952TIP3   OH214800   1.656   2.421   6.738
 4952TIP3    H114801   1.733   2.412   6.682
 4952TIP3    H214802   1.589   2.457   6.681
 4953TIP3   OH214803   4.290   6.117   5.518
 4953TIP3    H114804   4.214   6.143   5.569
 4953TIP3    H214805   4.259   6.045   5.462
 4954TIP3   OH214806   7.861   1.007   3.471
 4954TIP3    H114807   7.845   1.037   3.381
 4954TIP3    H214808   7.938   1.057   3.500
 4955TIP3   OH214809   2.300   1.366   1.739
 4955TIP3    H114810   2.331   1.432   1.677
 4955TIP3    H214811   2.359   1.291   1.725
 4956TIP3   OH214812   2.114   1.862   0.136
 4956TIP3    H114813   2.062   1.788   0.106
 4956TIP3    H214814   2.205   1.835   0.123
 4957TIP3   OH214815   5.761   7.251   0.931
 4957TIP3    H114816   5.835   7.301   0.965
 4957TIP3    H214817   5.750   7.179   0.994
 4958TIP3   OH214818   3.839   3.199   0.811
 4958TIP3    H114819   3.883   3.115   0.795
 4958TIP3    H214820   3.747   3.176   0.822
 4959TIP3   OH214821   3.594   4.963   0.343
 4959TIP3    H114822   3.677   4.932   0.379
 4959TIP3    H214823   3.537   4.885   0.345
 4960TIP3   OH214824   1.201   2.149   0.313
 4960TIP3    H114825   1.179   2.096   0.390
 4960TIP3    H214826   1.129   2.212   0.305
 4961TIP3   OH214827   4.178   3.325   0.896
 4961TIP3    H114828   4.127   3.401   0.923
 4961TIP3    H214829   4.252   3.323   0.956
 4962TIP3   OH214830   2.096   2.842   0.978
 4962TIP3    H114831   2.139   2.766   0.937
 4962TIP3    H214832   2.084   2.905   0.907
 4963TIP3   OH214833   5.966   4.364   3.474
 4963TIP3    H114834   5.957   4.290   3.414
 4963TIP3    H214835   5.989   4.324   3.558
 4964TIP3   OH214836   3.072   5.971   1.025
 4964TIP3    H114837   3.079   5.943   0.934
 4964TIP3    H214838   3.011   5.908   1.064
 4965TIP3   OH214839   6.481   2.496   3.543
 4965TIP3    H114840   6.533   2.541   3.610
 4965TIP3    H214841   6.471   2.407   3.577
 4966TIP3   OH214842   3.475   1.762   2.301
 4966TIP3    H114843   3.558   1.810   2.309
 4966TIP3    H214844   3.454   1.768   2.208
 4967TIP3   OH214845   4.775   0.381   3.662
 4967TIP3    H114846   4.692   0.338   3.643
 4967TIP3    H214847   4.766   0.413   3.752
 4968TIP3   OH214848   2.963   4.710   1.619
 4968TIP3    H114849   2.954   4.801   1.590
 4968TIP3    H214850   2.966   4.715   1.715
 4969TIP3   OH214851   0.835   0.014   4.062
 4969TIP3    H114852   0.778  -0.056   4.093
 4969TIP3    H214853   0.811   0.090   4.116
 4970TIP3   OH214854   6.402   7.305   0.697
 4970TIP3    H114855   6.481   7.359   0.689
 4970TIP3    H214856   6.331   7.361   0.663
 4971TIP3   OH214857   4.965   0.725   0.149
 4971TIP3    H114858   4.916   0.741   0.230
 4971TIP3    H214859   4.925   0.645   0.113
 4972TIP3   OH214860   4.226   5.543   3.326
 4972TIP3    H114861   4.218   5.477   3.258
 4972TIP3    H214862   4.152   5.527   3.384
 4973TIP3   OH214863   3.229   0.321   1.574
 4973TIP3    H114864   3.308   0.348   1.527
 4973TIP3    H214865   3.164   0.387   1.550
 4974TIP3   OH214866   1.075   2.688   0.603
 4974TIP3    H114867   1.001   2.646   0.560
 4974TIP3    H214868   1.035   2.755   0.659
 4975TIP3   OH214869   3.295   5.798   4.002
 4975TIP3    H114870   3.346   5.848   4.065
 4975TIP3    H214871   3.360   5.750   3.951
 4976TIP3   OH214872   4.534   2.140   0.230
 4976TIP3    H114873   4.620   2.160   0.266
 4976TIP3    H214874   4.544   2.053   0.191
 4977TIP3   OH214875   2.139   6.590   4.589
 4977TIP3    H114876   2.048   6.598   4.616
 4977TIP3    H214877   2.189   6.589   4.671
 4978TIP3   OH214878   5.452   4.198   1.629
 4978TIP3    H114879   5.531   4.165   1.585
 4978TIP3    H214880   5.480   4.212   1.719
 4979TIP3   OH214881   6.951   5.101   0.238
 4979TIP3    H114882   7.000   5.180   0.261
 4979TIP3    H214883   7.003   5.060   0.169
 4980TIP3   OH214884   5.340   7.149   1.986
 4980TIP3    H114885   5.275   7.152   2.056
 4980TIP3    H214886   5.371   7.059   1.985
 4981TIP3   OH214887   0.085   1.965   0.154
 4981TIP3    H114888   0.118   1.900   0.216
 4981TIP3    H214889   0.096   1.924   0.068
 4982TIP3   OH214890   7.964   4.954   2.017
 4982TIP3    H114891   8.031   4.932   1.952
 4982TIP3    H214892   7.888   4.902   1.991
 4983TIP3   OH214893   1.091   2.520   6.769
 4983TIP3    H114894   1.038   2.598   6.751
 4983TIP3    H214895   1.100   2.478   6.684
 4984TIP3   OH214896   5.439   0.808   5.326
 4984TIP3    H114897   5.373   0.811   5.395
 4984TIP3    H214898   5.504   0.745   5.358
 4985TIP3   OH214899   1.428   3.527   5.096
 4985TIP3    H114900   1.486   3.487   5.031
 4985TIP3    H214901   1.348   3.475   5.093
 4986TIP3   OH214902   0.296   4.374   4.193
 4986TIP3    H114903   0.285   4.318   4.116
 4986TIP3    H214904   0.318   4.460   4.157
 4987TIP3   OH214905   1.238   3.408   0.212
 4987TIP3    H114906   1.321   3.360   0.221
 4987TIP3    H214907   1.217   3.435   0.302
 4988TIP3   OH214908   7.878   3.472   1.687
 4988TIP3    H114909   7.930   3.532   1.632
 4988TIP3    H214910   7.852   3.526   1.762
 4989TIP3   OH214911   1.530   6.082   0.713
 4989TIP3    H114912   1.496   6.116   0.796
 4989TIP3    H214913   1.479   6.127   0.645
 4990TIP3   OH214914   1.336   2.360   6.184
 4990TIP3    H114915   1.254   2.399   6.214
 4990TIP3    H214916   1.403   2.424   6.207
 4991TIP3   OH214917   2.057   1.145   5.457
 4991TIP3    H114918   2.110   1.225   5.454
 4991TIP3    H214919   2.114   1.080   5.497
 4992TIP3   OH214920   5.230   5.824   5.993
 4992TIP3    H114921   5.180   5.840   6.072
 4992TIP3    H214922   5.183   5.754   5.948
 4993TIP3   OH214923   4.709   1.640   5.432
 4993TIP3    H114924   4.654   1.705   5.388
 4993TIP3    H214925   4.794   1.649   5.390
 4994TIP3   OH214926   0.834   0.115   4.337
 4994TIP3    H114927   0.769   0.127   4.406
 4994TIP3    H214928   0.916   0.103   4.384
 4995TIP3   OH214929   8.094   2.012   5.341
 4995TIP3    H114930   8.055   1.992   5.427
 4995TIP3    H214931   8.161   2.077   5.360
 4996TIP3   OH214932   6.733   0.925   2.017
 4996TIP3    H114933   6.728   0.834   2.044
 4996TIP3    H214934   6.822   0.935   1.983
 4997TIP3   OH214935   2.519   0.518   4.314
 4997TIP3    H114936   2.503   0.593   4.257
 4997TIP3    H214937   2.440   0.464   4.307
 4998TIP3   OH214938   1.304   0.882   0.660
 4998TIP3    H114939   1.279   0.963   0.704
 4998TIP3    H214940   1.222   0.833   0.653
 4999TIP3   OH214941   6.058   3.407   3.130
 4999TIP3    H114942   6.010   3.369   3.056
 4999TIP3    H214943   6.141   3.436   3.092
 5000TIP3   OH214944   5.285   1.661   5.931
 5000TIP3    H114945   5.233   1.688   6.007
 5000TIP3    H214946   5.230   1.685   5.856
 5001TIP3   OH214947   1.579   4.014   5.952
 5001TIP3    H114948   1.648   4.021   5.887
 5001TIP3    H214949   1.511   3.963   5.909
 5002TIP3   OH214950   2.619   5.177   6.700
 5002TIP3    H114951   2.637   5.083   6.694
 5002TIP3    H214952   2.622   5.195   6.794
 5003TIP3   OH214953   6.412   7.317   0.120
 5003TIP3    H114954   6.410   7.370   0.040
 5003TIP3    H214955   6.487   7.351   0.169
 5004TIP3   OH214956   3.058   4.765   6.363
 5004TIP3    H114957   2.967   4.736   6.370
 5004TIP3    H214958   3.060   4.848   6.410
 5005TIP3   OH214959   1.689   0.839   0.245
 5005TIP3    H114960   1.708   0.932   0.257
 5005TIP3    H214961   1.665   0.808   0.332
 5006TIP3   OH214962   1.675   1.356   0.499
 5006TIP3    H114963   1.666   1.423   0.431
 5006TIP3    H214964   1.624   1.390   0.573
 5007TIP3   OH214965   1.900   3.405   4.534
 5007TIP3    H114966   1.953   3.449   4.468
 5007TIP3    H214967   1.849   3.340   4.484
 5008TIP3   OH214968   4.989   0.966   3.775
 5008TIP3    H114969   4.980   0.886   3.722
 5008TIP3    H214970   5.033   1.028   3.717
 5009TIP3   OH214971   3.121   3.557   2.960
 5009TIP3    H114972   3.118   3.592   3.049
 5009TIP3    H214973   3.048   3.598   2.915
 5010TIP3   OH214974   1.313   6.230   5.902
 5010TIP3    H114975   1.319   6.234   5.807
 5010TIP3    H214976   1.221   6.246   5.922
 5011TIP3   OH214977   5.421   4.626   5.051
 5011TIP3    H114978   5.378   4.592   4.972
 5011TIP3    H214979   5.416   4.721   5.042
 5012TIP3   OH214980   7.619   1.391   0.526
 5012TIP3    H114981   7.572   1.415   0.446
 5012TIP3    H214982   7.618   1.295   0.527
 5013TIP3   OH214983   3.842   2.855   1.873
 5013TIP3    H114984   3.824   2.781   1.816
 5013TIP3    H214985   3.775   2.849   1.942
 5014TIP3   OH214986   2.434   5.734   4.704
 5014TIP3    H114987   2.391   5.655   4.738
 5014TIP3    H214988   2.525   5.708   4.690
 5015TIP3   OH214989   1.576   6.299   4.589
 5015TIP3    H114990   1.583   6.254   4.673
 5015TIP3    H214991   1.580   6.392   4.612
 5016TIP3   OH214992   2.650   1.450   6.225
 5016TIP3    H114993   2.671   1.532   6.182
 5016TIP3    H214994   2.575   1.471   6.280
 5017TIP3   OH214995   6.591   5.607   2.751
 5017TIP3    H114996   6.602   5.547   2.826
 5017TIP3    H214997   6.504   5.588   2.718
 5018TIP3   OH214998   3.444   3.615   5.123
 5018TIP3    H114999   3.535   3.606   5.151
 5018TIP3    H215000   3.450   3.644   5.032
 5019TIP3   OH215001   7.138   1.683   2.119
 5019TIP3    H115002   7.120   1.775   2.138
 5019TIP3    H215003   7.220   1.664   2.164
 5020TIP3   OH215004   7.431   0.979   6.598
 5020TIP3    H115005   7.427   0.910   6.532
 5020TIP3    H215006   7.507   0.956   6.652
 5021TIP3   OH215007   7.923   4.594   3.673
 5021TIP3    H115008   7.984   4.662   3.647
 5021TIP3    H215009   7.839   4.622   3.636
 5022TIP3   OH215010   3.950   0.407   2.979
 5022TIP3    H115011   3.996   0.328   3.008
 5022TIP3    H215012   4.019   0.468   2.956
 5023TIP3   OH215013   7.463   5.127   1.922
 5023TIP3    H115014   7.497   5.189   1.858
 5023TIP3    H215015   7.540   5.094   1.967
 5024TIP3   OH215016   6.971   2.320   4.986
 5024TIP3    H115017   6.927   2.295   4.904
 5024TIP3    H215018   6.940   2.409   5.003
 5025TIP3   OH215019   1.244   1.923   1.674
 5025TIP3    H115020   1.168   1.885   1.718
 5025TIP3    H215021   1.269   1.997   1.730
 5026TIP3   OH215022   7.079   3.362   2.630
 5026TIP3    H115023   7.069   3.410   2.712
 5026TIP3    H215024   6.994   3.320   2.616
 5027TIP3   OH215025   1.781   3.743   4.892
 5027TIP3    H115026   1.792   3.792   4.810
 5027TIP3    H215027   1.805   3.806   4.960
 5028TIP3   OH215028   4.322   5.873   5.756
 5028TIP3    H115029   4.292   5.940   5.817
 5028TIP3    H215030   4.253   5.807   5.756
 5029TIP3   OH215031   1.945   4.467   1.118
 5029TIP3    H115032   1.874   4.492   1.177
 5029TIP3    H215033   2.000   4.545   1.113
 5030TIP3   OH215034   7.846   7.003   6.591
 5030TIP3    H115035   7.914   6.947   6.630
 5030TIP3    H215036   7.815   6.953   6.516
 5031TIP3   OH215037   6.080   3.608   3.325
 5031TIP3    H115038   6.022   3.675   3.291
 5031TIP3    H215039   6.061   3.530   3.272
 5032TIP3   OH215040   6.160   0.700   4.556
 5032TIP3    H115041   6.097   0.654   4.500
 5032TIP3    H215042   6.108   0.728   4.631
 5033TIP3   OH215043   2.801   6.081   2.630
 5033TIP3    H115044   2.751   6.008   2.594
 5033TIP3    H215045   2.873   6.039   2.678
 5034TIP3   OH215046   2.140   0.497   2.672
 5034TIP3    H115047   2.172   0.492   2.763
 5034TIP3    H215048   2.053   0.457   2.675
 5035TIP3   OH215049   0.651   6.512   3.519
 5035TIP3    H115050   0.617   6.575   3.582
 5035TIP3    H215051   0.599   6.432   3.535
 5036TIP3   OH215052   1.255   2.819   6.140
 5036TIP3    H115053   1.337   2.855   6.172
 5036TIP3    H215054   1.280   2.753   6.076
 5037TIP3   OH215055   4.091   2.766   4.965
 5037TIP3    H115056   4.143   2.806   4.895
 5037TIP3    H215057   4.010   2.817   4.965
 5038TIP3   OH215058   4.952   1.482   0.719
 5038TIP3    H115059   5.004   1.557   0.693
 5038TIP3    H215060   4.987   1.409   0.667
 5039TIP3   OH215061   0.417   2.968   0.594
 5039TIP3    H115062   0.339   2.993   0.644
 5039TIP3    H215063   0.485   3.030   0.623
 5040TIP3   OH215064   2.204   4.545   4.690
 5040TIP3    H115065   2.180   4.637   4.705
 5040TIP3    H215066   2.211   4.508   4.778
 5041TIP3   OH215067   7.676   2.176   4.127
 5041TIP3    H115068   7.601   2.139   4.174
 5041TIP3    H215069   7.688   2.119   4.051
 5042TIP3   OH215070   3.724   2.841   3.778
 5042TIP3    H115071   3.688   2.900   3.844
 5042TIP3    H215072   3.676   2.759   3.790
 5043TIP3   OH215073   5.823   6.797   1.324
 5043TIP3    H115074   5.783   6.749   1.397
 5043TIP3    H215075   5.830   6.887   1.355
 5044TIP3   OH215076   5.002   7.417   0.160
 5044TIP3    H115077   5.051   7.341   0.129
 5044TIP3    H215078   5.007   7.410   0.256
 5045TIP3   OH215079   4.389   7.543   4.787
 5045TIP3    H115080   4.354   7.588   4.710
 5045TIP3    H215081   4.337   7.463   4.793
 5046TIP3   OH215082   7.952   6.770   1.188
 5046TIP3    H115083   7.959   6.861   1.217
 5046TIP3    H215084   8.021   6.760   1.123
 5047TIP3   OH215085   0.976   5.471   0.016
 5047TIP3    H115086   0.925   5.546  -0.016
 5047TIP3    H215087   0.929   5.442   0.094
 5048TIP3   OH215088   1.133   4.677   4.430
 5048TIP3    H115089   1.175   4.641   4.508
 5048TIP3    H215090   1.040   4.665   4.445
 5049TIP3   OH215091   3.842   1.622   2.458
 5049TIP3    H115092   3.756   1.585   2.438
 5049TIP3    H215093   3.874   1.656   2.374
 5050TIP3   OH215094   2.683   3.416   4.644
 5050TIP3    H115095   2.771   3.388   4.618
 5050TIP3    H215096   2.662   3.363   4.721
 5051TIP3   OH215097   6.388   5.271   2.591
 5051TIP3    H115098   6.444   5.236   2.660
 5051TIP3    H215099   6.402   5.213   2.517
 5052TIP3   OH215100   1.721   7.088   0.350
 5052TIP3    H115101   1.742   7.141   0.273
 5052TIP3    H215102   1.804   7.083   0.399
 5053TIP3   OH215103   2.512   3.903   6.180
 5053TIP3    H115104   2.457   3.933   6.107
 5053TIP3    H215105   2.573   3.975   6.195
 5054TIP3   OH215106   4.125   4.969   0.859
 5054TIP3    H115107   4.098   4.956   0.768
 5054TIP3    H215108   4.063   5.033   0.893
 5055TIP3   OH215109   7.212   5.872   3.163
 5055TIP3    H115110   7.121   5.846   3.154
 5055TIP3    H215111   7.256   5.832   3.088
 5056TIP3   OH215112   8.150   1.597   3.995
 5056TIP3    H115113   8.117   1.633   4.077
 5056TIP3    H215114   8.171   1.674   3.942
 5057TIP3   OH215115   2.423   0.397   5.628
 5057TIP3    H115116   2.470   0.342   5.691
 5057TIP3    H215117   2.479   0.474   5.616
 5058TIP3   OH215118   6.285   2.387   5.853
 5058TIP3    H115119   6.259   2.313   5.799
 5058TIP3    H215120   6.354   2.353   5.910
 5059TIP3   OH215121   1.661   7.111   6.512
 5059TIP3    H115122   1.621   7.031   6.479
 5059TIP3    H215123   1.597   7.147   6.573
 5060TIP3   OH215124   7.221   0.614   4.818
 5060TIP3    H115125   7.291   0.595   4.755
 5060TIP3    H215126   7.159   0.542   4.808
 5061TIP3   OH215127   5.949   3.652   5.434
 5061TIP3    H115128   6.006   3.644   5.511
 5061TIP3    H215129   5.898   3.571   5.434
 5062TIP3   OH215130   5.493   5.604   5.738
 5062TIP3    H115131   5.503   5.515   5.706
 5062TIP3    H215132   5.477   5.594   5.832
 5063TIP3   OH215133   5.887   5.665   2.372
 5063TIP3    H115134   5.806   5.614   2.372
 5063TIP3    H215135   5.956   5.603   2.348
 5064TIP3   OH215136   1.196   0.509   6.596
 5064TIP3    H115137   1.194   0.514   6.692
 5064TIP3    H215138   1.216   0.598   6.568
 5065TIP3   OH215139   1.158   5.473   5.843
 5065TIP3    H115140   1.253   5.482   5.845
 5065TIP3    H215141   1.141   5.427   5.761
 5066TIP3   OH215142   6.812   5.515   2.917
 5066TIP3    H115143   6.860   5.460   2.855
 5066TIP3    H215144   6.845   5.603   2.903
 5067TIP3   OH215145   1.782   3.487   5.996
 5067TIP3    H115146   1.843   3.470   6.067
 5067TIP3    H215147   1.696   3.461   6.031
 5068TIP3   OH215148   6.145   5.528   4.749
 5068TIP3    H115149   6.214   5.500   4.689
 5068TIP3    H215150   6.150   5.466   4.822
 5069TIP3   OH215151   1.648   4.132   0.309
 5069TIP3    H115152   1.622   4.196   0.375
 5069TIP3    H215153   1.738   4.157   0.285
 5070TIP3   OH215154   8.201   6.098   1.385
 5070TIP3    H115155   8.174   6.019   1.339
 5070TIP3    H215156   8.148   6.098   1.465
 5071TIP3   OH215157   1.637   2.113   5.865
 5071TIP3    H115158   1.663   2.203   5.883
 5071TIP3    H215159   1.544   2.118   5.844
 5072TIP3   OH215160   5.143   5.063   0.990
 5072TIP3    H115161   5.201   5.096   0.922
 5072TIP3    H215162   5.090   5.139   1.015
 5073TIP3   OH215163   3.836   3.368   0.071
 5073TIP3    H115164   3.774   3.430   0.110
 5073TIP3    H215165   3.800   3.282   0.093
 5074TIP3   OH215166   3.435   3.234   5.170
 5074TIP3    H115167   3.504   3.299   5.157
 5074TIP3    H215168   3.472   3.153   5.135
 5075TIP3   OH215169   1.365   6.007   6.265
 5075TIP3    H115170   1.286   6.055   6.289
 5075TIP3    H215171   1.334   5.931   6.216
 5076TIP3   OH215172   3.509   1.344   6.575
 5076TIP3    H115173   3.476   1.332   6.485
 5076TIP3    H215174   3.438   1.388   6.621
 5077TIP3   OH215175   4.827   0.223   0.673
 5077TIP3    H115176   4.866   0.304   0.639
 5077TIP3    H215177   4.753   0.205   0.614
 5078TIP3   OH215178   2.546   0.916   3.852
 5078TIP3    H115179   2.577   0.998   3.893
 5078TIP3    H215180   2.557   0.931   3.758
 5079TIP3   OH215181   3.080   0.724   1.925
 5079TIP3    H115182   3.142   0.783   1.967
 5079TIP3    H215183   3.124   0.638   1.928
 5080TIP3   OH215184   8.252   3.822   5.217
 5080TIP3    H115185   8.183   3.758   5.236
 5080TIP3    H215186   8.263   3.818   5.122
 5081TIP3   OH215187   4.768   5.223   0.840
 5081TIP3    H115188   4.843   5.267   0.879
 5081TIP3    H215189   4.764   5.256   0.750
 5082TIP3   OH215190   2.854   6.879   6.567
 5082TIP3    H115191   2.869   6.837   6.483
 5082TIP3    H215192   2.759   6.882   6.576
 5083TIP3   OH215193   4.965   5.952   4.177
 5083TIP3    H115194   4.910   5.949   4.255
 5083TIP3    H215195   5.035   6.013   4.199
 5084TIP3   OH215196   5.715   3.079   4.309
 5084TIP3    H115197   5.741   2.992   4.340
 5084TIP3    H215198   5.685   3.065   4.219
 5085TIP3   OH215199   1.243   6.092   2.148
 5085TIP3    H115200   1.255   6.181   2.116
 5085TIP3    H215201   1.226   6.040   2.069
 5086TIP3   OH215202   3.648   2.780   0.129
 5086TIP3    H115203   3.711   2.795   0.059
 5086TIP3    H215204   3.564   2.805   0.091
 5087TIP3   OH215205   8.248   5.601   5.975
 5087TIP3    H115206   8.310   5.543   6.018
 5087TIP3    H215207   8.164   5.581   6.016
 5088TIP3   OH215208   3.233   0.206   3.377
 5088TIP3    H115209   3.245   0.179   3.286
 5088TIP3    H215210   3.277   0.139   3.429
 5089TIP3   OH215211   4.797   6.747   1.410
 5089TIP3    H115212   4.707   6.719   1.428
 5089TIP3    H215213   4.811   6.725   1.318
 5090TIP3   OH215214   0.104   6.153   0.220
 5090TIP3    H115215   0.057   6.227   0.258
 5090TIP3    H215216   0.038   6.084   0.211
 5091TIP3   OH215217   6.272   0.925   1.657
 5091TIP3    H115218   6.324   0.928   1.737
 5091TIP3    H215219   6.266   0.832   1.635
 5092TIP3   OH215220   3.477   0.031   2.081
 5092TIP3    H115221   3.537   0.085   2.133
 5092TIP3    H215222   3.394   0.078   2.083
 5093TIP3   OH215223   0.917   5.330   1.708
 5093TIP3    H115224   0.963   5.399   1.661
 5093TIP3    H215225   0.941   5.343   1.800
 5094TIP3   OH215226   6.967   3.160   0.772
 5094TIP3    H115227   6.956   3.251   0.744
 5094TIP3    H215228   7.044   3.161   0.829
 5095TIP3   OH215229   4.537   2.594   0.812
 5095TIP3    H115230   4.488   2.533   0.757
 5095TIP3    H215231   4.470   2.647   0.855
 5096TIP3   OH215232   0.907   6.812   1.704
 5096TIP3    H115233   0.848   6.808   1.628
 5096TIP3    H215234   0.987   6.769   1.674
 5097TIP3   OH215235   2.548   6.944   4.611
 5097TIP3    H115236   2.561   6.890   4.689
 5097TIP3    H215237   2.469   6.994   4.630
 5098TIP3   OH215238   5.368   5.224   6.342
 5098TIP3    H115239   5.274   5.237   6.328
 5098TIP3    H215240   5.409   5.304   6.309
 5099TIP3   OH215241   0.109   2.505   2.768
 5099TIP3    H115242   0.080   2.574   2.827
 5099TIP3    H215243   0.196   2.481   2.800
 5100TIP3   OH215244   3.588   7.459   5.554
 5100TIP3    H115245   3.590   7.377   5.505
 5100TIP3    H215246   3.552   7.435   5.639
 5101TIP3   OH215247   2.599   6.665   2.611
 5101TIP3    H115248   2.571   6.580   2.575
 5101TIP3    H215249   2.526   6.692   2.667
 5102TIP3   OH215250   3.316   3.060   3.286
 5102TIP3    H115251   3.364   3.037   3.207
 5102TIP3    H215252   3.354   3.006   3.355
 5103TIP3   OH215253   6.240   2.619   5.644
 5103TIP3    H115254   6.259   2.704   5.605
 5103TIP3    H215255   6.294   2.617   5.723
 5104TIP3   OH215256   0.422   0.079   6.576
 5104TIP3    H115257   0.429   0.020   6.652
 5104TIP3    H215258   0.358   0.036   6.519
 5105TIP3   OH215259   0.229   0.793   6.058
 5105TIP3    H115260   0.292   0.742   6.007
 5105TIP3    H215261   0.169   0.728   6.095
 5106TIP3   OH215262   1.081   5.654   1.821
 5106TIP3    H115263   1.020   5.669   1.749
 5106TIP3    H215264   1.071   5.731   1.878
 5107TIP3   OH215265   2.396   7.150   5.900
 5107TIP3    H115266   2.422   7.239   5.924
 5107TIP3    H215267   2.449   7.129   5.824
 5108TIP3   OH215268   1.941   5.496   1.828
 5108TIP3    H115269   1.870   5.521   1.768
 5108TIP3    H215270   1.973   5.579   1.863
 5109TIP3   OH215271   3.310   4.149   4.064
 5109TIP3    H115272   3.402   4.149   4.092
 5109TIP3    H215273   3.295   4.059   4.034
 5110TIP3   OH215274   7.277   3.275   3.667
 5110TIP3    H115275   7.304   3.187   3.696
 5110TIP3    H215276   7.203   3.297   3.724
 5111TIP3   OH215277   1.863   7.110   2.798
 5111TIP3    H115278   1.779   7.066   2.810
 5111TIP3    H215279   1.840   7.202   2.782
 5112TIP3   OH215280   4.573   0.967   6.584
 5112TIP3    H115281   4.648   0.933   6.633
 5112TIP3    H215282   4.599   1.055   6.558
 5113TIP3   OH215283   5.831   2.436   3.481
 5113TIP3    H115284   5.749   2.469   3.519
 5113TIP3    H215285   5.890   2.427   3.556
 5114TIP3   OH215286   7.532   1.553   0.777
 5114TIP3    H115287   7.619   1.584   0.751
 5114TIP3    H215288   7.512   1.484   0.714
 5115TIP3   OH215289   6.619   1.793   2.330
 5115TIP3    H115290   6.661   1.806   2.415
 5115TIP3    H215291   6.625   1.699   2.313
 5116TIP3   OH215292   2.655   3.097   5.040
 5116TIP3    H115293   2.686   3.138   5.121
 5116TIP3    H215294   2.641   3.006   5.063
 5117TIP3   OH215295   0.443   3.985   2.390
 5117TIP3    H115296   0.472   3.994   2.481
 5117TIP3    H215297   0.485   3.905   2.359
 5118TIP3   OH215298   0.083   2.922   3.743
 5118TIP3    H115299   0.068   2.918   3.648
 5118TIP3    H215300   0.142   2.850   3.761
 5119TIP3   OH215301   1.226   4.045   5.225
 5119TIP3    H115302   1.169   3.997   5.166
 5119TIP3    H215303   1.272   4.107   5.168
 5120TIP3   OH215304   0.814   0.439   4.608
 5120TIP3    H115305   0.795   0.416   4.699
 5120TIP3    H215306   0.909   0.449   4.604
 5121TIP3   OH215307   7.649   0.752   3.137
 5121TIP3    H115308   7.613   0.819   3.079
 5121TIP3    H215309   7.744   0.757   3.123
 5122TIP3   OH215310   4.801   7.177   3.858
 5122TIP3    H115311   4.756   7.257   3.832
 5122TIP3    H215312   4.893   7.202   3.863
 5123TIP3   OH215313   2.979   7.297   3.035
 5123TIP3    H115314   2.971   7.240   2.959
 5123TIP3    H215315   2.943   7.381   3.005
 5124TIP3   OH215316   5.690   1.476   1.281
 5124TIP3    H115317   5.597   1.483   1.262
 5124TIP3    H215318   5.696   1.490   1.376
 5125TIP3   OH215319   6.995   3.594   1.661
 5125TIP3    H115320   7.032   3.522   1.611
 5125TIP3    H215321   6.942   3.643   1.598
 5126TIP3   OH215322   4.147   0.675   2.214
 5126TIP3    H115323   4.132   0.768   2.202
 5126TIP3    H215324   4.064   0.634   2.192
 5127TIP3   OH215325   2.218   0.773   0.602
 5127TIP3    H115326   2.313   0.778   0.595
 5127TIP3    H215327   2.201   0.683   0.630
 5128TIP3   OH215328   3.600   0.920   6.318
 5128TIP3    H115329   3.528   0.952   6.371
 5128TIP3    H215330   3.561   0.852   6.263
 5129TIP3   OH215331   5.710   1.827   4.707
 5129TIP3    H115332   5.627   1.796   4.742
 5129TIP3    H215333   5.768   1.750   4.710
 5130TIP3   OH215334   0.151   5.670   4.030
 5130TIP3    H115335   0.166   5.734   4.099
 5130TIP3    H215336   0.063   5.637   4.046
 5131TIP3   OH215337   3.379   0.851   2.375
 5131TIP3    H115338   3.432   0.773   2.359
 5131TIP3    H215339   3.443   0.921   2.390
 5132TIP3   OH215340   7.191   3.349   6.391
 5132TIP3    H115341   7.250   3.276   6.412
 5132TIP3    H215342   7.106   3.307   6.375
 5133TIP3   OH215343   4.168   1.288   0.538
 5133TIP3    H115344   4.102   1.352   0.511
 5133TIP3    H215345   4.210   1.261   0.456
 5134TIP3   OH215346   4.489   6.000   1.776
 5134TIP3    H115347   4.458   5.959   1.856
 5134TIP3    H215348   4.520   5.928   1.722
 5135TIP3   OH215349   4.260   3.044   4.108
 5135TIP3    H115350   4.219   3.052   4.022
 5135TIP3    H215351   4.272   2.949   4.119
 5136TIP3   OH215352   0.211   2.319   2.285
 5136TIP3    H115353   0.182   2.299   2.196
 5136TIP3    H215354   0.287   2.262   2.299
 5137TIP3   OH215355   6.496   6.617   3.210
 5137TIP3    H115356   6.585   6.616   3.245
 5137TIP3    H215357   6.458   6.533   3.237
 5138TIP3   OH215358   5.749   2.156   2.854
 5138TIP3    H115359   5.770   2.178   2.944
 5138TIP3    H215360   5.833   2.132   2.815
 5139TIP3   OH215361   7.314   2.666   5.306
 5139TIP3    H115362   7.327   2.760   5.301
 5139TIP3    H215363   7.229   2.651   5.265
 5140TIP3   OH215364   2.692   7.100   6.744
 5140TIP3    H115365   2.685   7.021   6.691
 5140TIP3    H215366   2.740   7.073   6.823
 5141TIP3   OH215367   7.619   1.724   4.806
 5141TIP3    H115368   7.539   1.735   4.755
 5141TIP3    H215369   7.688   1.762   4.751
 5142TIP3   OH215370   3.324   1.506   0.486
 5142TIP3    H115371   3.269   1.508   0.563
 5142TIP3    H215372   3.267   1.473   0.416
 5143TIP3   OH215373   0.789   3.903   5.865
 5143TIP3    H115374   0.827   3.887   5.778
 5143TIP3    H215375   0.741   3.823   5.886
 5144TIP3   OH215376   0.580   6.396   2.313
 5144TIP3    H115377   0.487   6.387   2.291
 5144TIP3    H215378   0.604   6.311   2.349
 5145TIP3   OH215379   7.802   5.219   0.536
 5145TIP3    H115380   7.877   5.278   0.542
 5145TIP3    H215381   7.767   5.233   0.448
 5146TIP3   OH215382   0.258   3.590   6.333
 5146TIP3    H115383   0.352   3.584   6.353
 5146TIP3    H215384   0.246   3.531   6.259
 5147TIP3   OH215385   2.876   3.046   1.966
 5147TIP3    H115386   2.940   3.108   2.002
 5147TIP3    H215387   2.861   2.984   2.037
 5148TIP3   OH215388   0.352   4.173   1.432
 5148TIP3    H115389   0.416   4.243   1.447
 5148TIP3    H215390   0.293   4.178   1.508
 5149TIP3   OH215391   0.754   2.894   6.522
 5149TIP3    H115392   0.809   2.875   6.446
 5149TIP3    H215393   0.681   2.945   6.487
 5150TIP3   OH215394   3.457   0.005   2.863
 5150TIP3    H115395   3.407  -0.070   2.894
 5150TIP3    H215396   3.391   0.074   2.852
 5151TIP3   OH215397   1.120   4.823   4.887
 5151TIP3    H115398   1.038   4.775   4.895
 5151TIP3    H215399   1.129   4.871   4.969
 5152TIP3   OH215400   6.752   3.366   3.498
 5152TIP3    H115401   6.711   3.381   3.414
 5152TIP3    H215402   6.680   3.361   3.560
 5153TIP3   OH215403   1.870   6.738   1.796
 5153TIP3    H115404   1.896   6.660   1.847
 5153TIP3    H215405   1.791   6.769   1.840
 5154TIP3   OH215406   4.767   4.559   2.655
 5154TIP3    H115407   4.704   4.590   2.591
 5154TIP3    H215408   4.716   4.504   2.715
 5155TIP3   OH215409   4.662   1.237   4.011
 5155TIP3    H115410   4.684   1.206   3.923
 5155TIP3    H215411   4.739   1.213   4.064
 5156TIP3   OH215412   4.920   6.277   4.007
 5156TIP3    H115413   4.944   6.194   3.966
 5156TIP3    H215414   4.912   6.258   4.100
 5157TIP3   OH215415   0.216   7.528   5.166
 5157TIP3    H115416   0.199   7.604   5.221
 5157TIP3    H215417   0.264   7.563   5.091
 5158TIP3   OH215418   1.767   7.263   5.430
 5158TIP3    H115419   1.695   7.326   5.423
 5158TIP3    H215420   1.733   7.193   5.486
 5159TIP3   OH215421   0.918   3.766   1.275
 5159TIP3    H115422   0.951   3.726   1.195
 5159TIP3    H215423   0.965   3.721   1.345
 5160TIP3   OH215424   1.072   1.255   3.661
 5160TIP3    H115425   1.037   1.211   3.738
 5160TIP3    H215426   1.050   1.348   3.673
 5161TIP3   OH215427   0.877   5.978   1.691
 5161TIP3    H115428   0.823   6.056   1.673
 5161TIP3    H215429   0.865   5.962   1.785
 5162TIP3   OH215430   2.418   6.220   5.637
 5162TIP3    H115431   2.344   6.273   5.608
 5162TIP3    H215432   2.427   6.153   5.570
 5163TIP3   OH215433   2.878   4.980   1.276
 5163TIP3    H115434   2.881   5.075   1.263
 5163TIP3    H215435   2.924   4.967   1.359
 5164TIP3   OH215436   5.411   1.417   6.489
 5164TIP3    H115437   5.349   1.349   6.516
 5164TIP3    H215438   5.469   1.373   6.426
 5165TIP3   OH215439   1.452   0.732   5.529
 5165TIP3    H115440   1.432   0.822   5.555
 5165TIP3    H215441   1.390   0.715   5.458
 5166TIP3   OH215442   5.666   0.866   5.930
 5166TIP3    H115443   5.645   0.778   5.964
 5166TIP3    H215444   5.638   0.925   6.000
 5167TIP3   OH215445   6.508   2.015   6.084
 5167TIP3    H115446   6.432   2.039   6.031
 5167TIP3    H215447   6.549   2.099   6.106
 5168TIP3   OH215448   1.035   3.313   5.457
 5168TIP3    H115449   0.995   3.353   5.534
 5168TIP3    H215450   1.048   3.221   5.481
 5169TIP3   OH215451   2.568   3.791   3.100
 5169TIP3    H115452   2.502   3.733   3.062
 5169TIP3    H215453   2.546   3.878   3.067
 5170TIP3   OH215454   3.260   0.911   5.217
 5170TIP3    H115455   3.243   0.835   5.161
 5170TIP3    H215456   3.196   0.904   5.288
 5171TIP3   OH215457   6.789   1.185   0.116
 5171TIP3    H115458   6.799   1.270   0.073
 5171TIP3    H215459   6.835   1.123   0.059
 5172TIP3   OH215460   3.016   5.010   2.186
 5172TIP3    H115461   2.936   5.004   2.134
 5172TIP3    H215462   3.010   5.094   2.230
 5173TIP3   OH215463   3.506   2.646   3.455
 5173TIP3    H115464   3.566   2.687   3.392
 5173TIP3    H215465   3.437   2.711   3.467
 5174TIP3   OH215466   7.822   1.535   0.971
 5174TIP3    H115467   7.749   1.554   1.030
 5174TIP3    H215468   7.832   1.614   0.919
 5175TIP3   OH215469   3.264   0.639   5.107
 5175TIP3    H115470   3.263   0.547   5.078
 5175TIP3    H215471   3.303   0.635   5.194
 5176TIP3   OH215472   4.797   1.925   0.489
 5176TIP3    H115473   4.775   1.847   0.541
 5176TIP3    H215474   4.876   1.959   0.532
 5177TIP3   OH215475   5.147   4.861   0.165
 5177TIP3    H115476   5.079   4.921   0.195
 5177TIP3    H215477   5.145   4.868   0.070
 5178TIP3   OH215478   8.166   3.736   5.962
 5178TIP3    H115479   8.181   3.726   6.056
 5178TIP3    H215480   8.232   3.798   5.934
 5179TIP3   OH215481   1.486   3.542   3.557
 5179TIP3    H115482   1.559   3.482   3.573
 5179TIP3    H215483   1.408   3.495   3.587
 5180TIP3   OH215484   1.002   6.169   3.276
 5180TIP3    H115485   0.976   6.257   3.302
 5180TIP3    H215486   1.073   6.182   3.213
 5181TIP3   OH215487   0.349   2.265   4.161
 5181TIP3    H115488   0.303   2.188   4.127
 5181TIP3    H215489   0.378   2.312   4.083
 5182TIP3   OH215490   1.918   2.420   5.884
 5182TIP3    H115491   1.996   2.444   5.935
 5182TIP3    H215492   1.911   2.325   5.894
 5183TIP3   OH215493   2.739   0.678   0.832
 5183TIP3    H115494   2.715   0.625   0.908
 5183TIP3    H215495   2.805   0.739   0.864
 5184TIP3   OH215496   5.489   4.834   5.535
 5184TIP3    H115497   5.437   4.760   5.503
 5184TIP3    H215498   5.429   4.883   5.591
 5185TIP3   OH215499   2.990   3.288   2.921
 5185TIP3    H115500   3.007   3.200   2.953
 5185TIP3    H215501   3.067   3.338   2.946
 5186TIP3   OH215502   5.434   3.176   1.431
 5186TIP3    H115503   5.521   3.140   1.411
 5186TIP3    H215504   5.378   3.142   1.361
 5187TIP3   OH215505   6.141   0.456   2.484
 5187TIP3    H115506   6.236   0.469   2.484
 5187TIP3    H215507   6.130   0.362   2.466
 5188TIP3   OH215508   6.309   6.726   6.454
 5188TIP3    H115509   6.229   6.678   6.431
 5188TIP3    H215510   6.289   6.768   6.538
 5189TIP3   OH215511   5.444   0.446   1.160
 5189TIP3    H115512   5.401   0.531   1.153
 5189TIP3    H215513   5.375   0.383   1.136
 5190TIP3   OH215514   0.601   1.371   1.425
 5190TIP3    H115515   0.529   1.433   1.418
 5190TIP3    H215516   0.669   1.407   1.367
 5191TIP3   OH215517   3.520   7.001   1.400
 5191TIP3    H115518   3.551   6.913   1.379
 5191TIP3    H215519   3.503   6.998   1.494
 5192TIP3   OH215520   0.261   1.267   2.480
 5192TIP3    H115521   0.291   1.353   2.510
 5192TIP3    H215522   0.195   1.240   2.544
 5193TIP3   OH215523   4.212   3.087   4.813
 5193TIP3    H115524   4.169   3.084   4.899
 5193TIP3    H215525   4.158   3.030   4.758
 5194TIP3   OH215526   6.157   7.011   0.415
 5194TIP3    H115527   6.194   6.935   0.459
 5194TIP3    H215528   6.086   7.040   0.474
 5195TIP3   OH215529   5.854   3.030   1.821
 5195TIP3    H115530   5.908   2.997   1.892
 5195TIP3    H215531   5.768   2.991   1.836
 5196TIP3   OH215532   2.527   4.240   3.397
 5196TIP3    H115533   2.486   4.238   3.484
 5196TIP3    H215534   2.516   4.150   3.364
 5197TIP3   OH215535   7.172   4.864   3.775
 5197TIP3    H115536   7.140   4.954   3.787
 5197TIP3    H215537   7.124   4.832   3.698
 5198TIP3   OH215538   1.469   1.560   4.549
 5198TIP3    H115539   1.500   1.617   4.619
 5198TIP3    H215540   1.381   1.534   4.577
 5199TIP3   OH215541   4.141   2.513   6.468
 5199TIP3    H115542   4.120   2.564   6.546
 5199TIP3    H215543   4.097   2.430   6.480
 5200TIP3   OH215544   1.178   4.264   0.332
 5200TIP3    H115545   1.195   4.177   0.297
 5200TIP3    H215546   1.189   4.255   0.426
 5201TIP3   OH215547   7.837   6.204   4.544
 5201TIP3    H115548   7.744   6.225   4.551
 5201TIP3    H215549   7.839   6.108   4.545
 5202TIP3   OH215550   7.365   1.635   2.268
 5202TIP3    H115551   7.421   1.557   2.266
 5202TIP3    H215552   7.293   1.611   2.327
 5203TIP3   OH215553   1.122   1.329   3.284
 5203TIP3    H115554   1.178   1.367   3.352
 5203TIP3    H215555   1.062   1.400   3.261
 5204TIP3   OH215556   2.592   2.538   2.968
 5204TIP3    H115557   2.529   2.609   2.976
 5204TIP3    H215558   2.666   2.565   3.024
 5205TIP3   OH215559   6.349   2.378   4.206
 5205TIP3    H115560   6.417   2.396   4.271
 5205TIP3    H215561   6.310   2.464   4.187
 5206TIP3   OH215562   7.407   5.085   3.099
 5206TIP3    H115563   7.381   5.087   3.192
 5206TIP3    H215564   7.503   5.076   3.102
 5207TIP3   OH215565   2.299   2.979   5.614
 5207TIP3    H115566   2.267   3.014   5.697
 5207TIP3    H215567   2.285   3.049   5.551
 5208TIP3   OH215568   6.964   2.981   1.466
 5208TIP3    H115569   6.996   3.060   1.424
 5208TIP3    H215570   6.906   3.012   1.536
 5209TIP3   OH215571   4.378   7.030   1.432
 5209TIP3    H115572   4.356   7.106   1.485
 5209TIP3    H215573   4.298   7.010   1.383
 5210TIP3   OH215574   4.669   6.536   5.341
 5210TIP3    H115575   4.678   6.474   5.413
 5210TIP3    H215576   4.611   6.492   5.279
 5211TIP3   OH215577   7.720   7.347   3.217
 5211TIP3    H115578   7.753   7.358   3.128
 5211TIP3    H215579   7.627   7.329   3.205
 5212TIP3   OH215580   5.702   6.867   4.091
 5212TIP3    H115581   5.712   6.784   4.044
 5212TIP3    H215582   5.644   6.847   4.164
 5213TIP3   OH215583   4.055   2.378   0.448
 5213TIP3    H115584   4.115   2.304   0.432
 5213TIP3    H215585   3.990   2.343   0.509
 5214TIP3   OH215586   5.631   2.248   5.783
 5214TIP3    H115587   5.580   2.321   5.748
 5214TIP3    H215588   5.612   2.175   5.724
 5215TIP3   OH215589   3.899   3.939   0.645
 5215TIP3    H115590   3.882   3.887   0.567
 5215TIP3    H215591   3.858   3.890   0.716
 5216TIP3   OH215592   4.907   0.457   6.337
 5216TIP3    H115593   4.997   0.482   6.318
 5216TIP3    H215594   4.875   0.416   6.257
 5217TIP3   OH215595   1.529   3.645   6.313
 5217TIP3    H115596   1.513   3.664   6.406
 5217TIP3    H215597   1.538   3.730   6.272
 5218TIP3   OH215598   7.830   3.956   4.213
 5218TIP3    H115599   7.761   3.952   4.146
 5218TIP3    H215600   7.858   4.048   4.212
 5219TIP3   OH215601   7.066   0.433   3.157
 5219TIP3    H115602   6.991   0.383   3.189
 5219TIP3    H215603   7.114   0.372   3.101
 5220TIP3   OH215604   5.262   3.259   0.288
 5220TIP3    H115605   5.209   3.234   0.364
 5220TIP3    H215606   5.230   3.346   0.264
 5221TIP3   OH215607   1.207   4.522   6.644
 5221TIP3    H115608   1.170   4.487   6.725
 5221TIP3    H215609   1.131   4.537   6.587
 5222TIP3   OH215610   6.924   1.770   1.751
 5222TIP3    H115611   6.927   1.715   1.829
 5222TIP3    H215612   6.991   1.837   1.766
 5223TIP3   OH215613   1.816   1.585   5.598
 5223TIP3    H115614   1.842   1.671   5.565
 5223TIP3    H215615   1.767   1.545   5.526
 5224TIP3   OH215616   2.186   7.246   3.093
 5224TIP3    H115617   2.237   7.250   3.175
 5224TIP3    H215618   2.155   7.336   3.081
 5225TIP3   OH215619   0.121   7.357   2.760
 5225TIP3    H115620   0.156   7.446   2.750
 5225TIP3    H215621   0.093   7.332   2.672
 5226TIP3   OH215622   0.742   0.363   2.646
 5226TIP3    H115623   0.700   0.448   2.657
 5226TIP3    H215624   0.796   0.373   2.568
 5227TIP3   OH215625   4.896   6.640   3.119
 5227TIP3    H115626   4.950   6.611   3.193
 5227TIP3    H215627   4.807   6.642   3.153
 5228TIP3   OH215628   1.759   4.325   1.484
 5228TIP3    H115629   1.695   4.309   1.414
 5228TIP3    H215630   1.809   4.401   1.453
 5229TIP3   OH215631   5.966   0.621   3.841
 5229TIP3    H115632   5.979   0.716   3.851
 5229TIP3    H215633   6.052   0.588   3.816
 5230TIP3   OH215634   0.766   5.914   0.878
 5230TIP3    H115635   0.732   5.975   0.943
 5230TIP3    H215636   0.781   5.968   0.800
 5231TIP3   OH215637   5.768   0.381   3.991
 5231TIP3    H115638   5.829   0.446   4.027
 5231TIP3    H215639   5.688   0.394   4.041
 5232TIP3   OH215640   1.801   5.445   5.050
 5232TIP3    H115641   1.830   5.455   5.141
 5232TIP3    H215642   1.761   5.530   5.029
 5233TIP3   OH215643   0.957   3.060   0.484
 5233TIP3    H115644   1.036   3.092   0.441
 5233TIP3    H215645   0.892   3.128   0.469
 5234TIP3   OH215646   3.813   3.833   4.544
 5234TIP3    H115647   3.829   3.758   4.600
 5234TIP3    H215648   3.841   3.805   4.457
 5235TIP3   OH215649   2.045   0.976   4.290
 5235TIP3    H115650   2.133   1.010   4.308
 5235TIP3    H215651   1.996   0.991   4.371
 5236TIP3   OH215652   4.756   0.308   6.174
 5236TIP3    H115653   4.749   0.214   6.192
 5236TIP3    H215654   4.728   0.317   6.083
 5237TIP3   OH215655   4.462   5.959   0.359
 5237TIP3    H115656   4.513   5.883   0.384
 5237TIP3    H215657   4.396   5.968   0.428
 5238TIP3   OH215658   2.583   3.017   5.546
 5238TIP3    H115659   2.507   2.961   5.556
 5238TIP3    H215660   2.653   2.973   5.594
 5239TIP3   OH215661   4.285   4.138   6.134
 5239TIP3    H115662   4.307   4.231   6.128
 5239TIP3    H215663   4.350   4.102   6.194
 5240TIP3   OH215664   4.457   6.011   2.521
 5240TIP3    H115665   4.462   6.016   2.425
 5240TIP3    H215666   4.548   5.995   2.548
 5241TIP3   OH215667   3.320   5.842   2.684
 5241TIP3    H115668   3.409   5.864   2.712
 5241TIP3    H215669   3.317   5.866   2.592
 5242TIP3   OH215670   4.768   5.855   0.095
 5242TIP3    H115671   4.830   5.783   0.090
 5242TIP3    H215672   4.815   5.925   0.140
 5243TIP3   OH215673   1.078   7.586   0.520
 5243TIP3    H115674   1.005   7.551   0.468
 5243TIP3    H215675   1.036   7.644   0.584
 5244TIP3   OH215676   7.669   0.473   5.203
 5244TIP3    H115677   7.734   0.441   5.140
 5244TIP3    H215678   7.685   0.424   5.283
 5245TIP3   OH215679   8.007   0.930   2.815
 5245TIP3    H115680   7.925   0.973   2.791
 5245TIP3    H215681   8.074   0.996   2.796
 5246TIP3   OH215682   2.986   3.595   2.348
 5246TIP3    H115683   3.045   3.666   2.326
 5246TIP3    H215684   2.996   3.585   2.443
 5247TIP3   OH215685   2.043   7.590   0.557
 5247TIP3    H115686   2.085   7.506   0.534
 5247TIP3    H215687   1.990   7.612   0.480
 5248TIP3   OH215688   1.183   1.179   4.451
 5248TIP3    H115689   1.136   1.096   4.460
 5248TIP3    H215690   1.178   1.200   4.358
 5249TIP3   OH215691   3.658   0.115   6.264
 5249TIP3    H115692   3.630   0.023   6.263
 5249TIP3    H215693   3.633   0.148   6.178
 5250TIP3   OH215694   7.784   7.047   4.712
 5250TIP3    H115695   7.694   7.045   4.746
 5250TIP3    H215696   7.774   7.042   4.617
 5251TIP3   OH215697   6.540   4.681   5.924
 5251TIP3    H115698   6.517   4.734   6.000
 5251TIP3    H215699   6.629   4.649   5.943
 5252TIP3   OH215700   6.839   5.053   3.439
 5252TIP3    H115701   6.883   5.062   3.355
 5252TIP3    H215702   6.817   4.960   3.445
 5253TIP3   OH215703   0.545   3.169   1.488
 5253TIP3    H115704   0.581   3.108   1.422
 5253TIP3    H215705   0.497   3.113   1.548
 5254TIP3   OH215706   0.837   7.722   3.241
 5254TIP3    H115707   0.913   7.685   3.286
 5254TIP3    H215708   0.875   7.770   3.167
 5255TIP3   OH215709   4.515   3.032   1.310
 5255TIP3    H115710   4.579   3.071   1.370
 5255TIP3    H215711   4.558   3.034   1.225
 5256TIP3   OH215712   3.580   3.304   2.185
 5256TIP3    H115713   3.539   3.276   2.103
 5256TIP3    H215714   3.612   3.222   2.224
 5257TIP3   OH215715   3.629   5.255   5.653
 5257TIP3    H115716   3.625   5.331   5.711
 5257TIP3    H215717   3.568   5.192   5.692
 5258TIP3   OH215718   6.217   5.164   0.575
 5258TIP3    H115719   6.240   5.254   0.550
 5258TIP3    H215720   6.177   5.127   0.497
 5259TIP3   OH215721   8.173   2.860   0.851
 5259TIP3    H115722   8.146   2.787   0.795
 5259TIP3    H215723   8.101   2.871   0.913
 5260TIP3   OH215724   5.058   2.624   5.059
 5260TIP3    H115725   5.038   2.549   5.002
 5260TIP3    H215726   5.123   2.590   5.121
 5261TIP3   OH215727   4.701   7.720   2.611
 5261TIP3    H115728   4.783   7.673   2.624
 5261TIP3    H215729   4.633   7.654   2.626
 5262TIP3   OH215730   4.574   4.835   4.754
 5262TIP3    H115731   4.631   4.825   4.678
 5262TIP3    H215732   4.634   4.844   4.828
 5263TIP3   OH215733   6.764   2.996   6.639
 5263TIP3    H115734   6.840   2.959   6.594
 5263TIP3    H215735   6.732   2.924   6.694
 5264TIP3   OH215736   3.203   1.176   3.528
 5264TIP3    H115737   3.214   1.241   3.458
 5264TIP3    H215738   3.293   1.155   3.555
 5265TIP3   OH215739   0.975   2.302   0.362
 5265TIP3    H115740   0.913   2.242   0.320
 5265TIP3    H215741   0.968   2.282   0.455
 5266TIP3   OH215742   3.704   5.713   3.516
 5266TIP3    H115743   3.772   5.683   3.576
 5266TIP3    H215744   3.733   5.682   3.430
 5267TIP3   OH215745   4.021   6.890   3.566
 5267TIP3    H115746   3.991   6.933   3.646
 5267TIP3    H215747   4.037   6.962   3.504
 5268TIP3   OH215748   0.057   5.348   5.160
 5268TIP3    H115749   0.049   5.440   5.136
 5268TIP3    H215750   0.037   5.347   5.254
 5269TIP3   OH215751   6.046   7.720   1.531
 5269TIP3    H115752   6.017   7.629   1.540
 5269TIP3    H215753   6.019   7.745   1.443
 5270TIP3   OH215754   1.821   5.180   6.066
 5270TIP3    H115755   1.886   5.110   6.064
 5270TIP3    H215756   1.871   5.260   6.055
 5271TIP3   OH215757   7.878   1.879   3.437
 5271TIP3    H115758   7.848   1.822   3.365
 5271TIP3    H215759   7.815   1.865   3.507
 5272TIP3   OH215760   7.508   3.443   3.926
 5272TIP3    H115761   7.493   3.377   3.995
 5272TIP3    H215762   7.524   3.391   3.847
 5273TIP3   OH215763   2.527   0.775   0.209
 5273TIP3    H115764   2.552   0.806   0.122
 5273TIP3    H215765   2.542   0.680   0.205
 5274TIP3   OH215766   6.894   6.187   1.959
 5274TIP3    H115767   6.872   6.098   1.987
 5274TIP3    H215768   6.982   6.180   1.922
 5275TIP3   OH215769   3.771   1.301   0.339
 5275TIP3    H115770   3.694   1.323   0.392
 5275TIP3    H215771   3.838   1.365   0.366
 5276TIP3   OH215772   3.163   5.713   0.191
 5276TIP3    H115773   3.138   5.695   0.101
 5276TIP3    H215774   3.257   5.695   0.193
 5277TIP3   OH215775   5.031   0.517   5.527
 5277TIP3    H115776   5.019   0.601   5.571
 5277TIP3    H215777   5.035   0.453   5.598
 5278TIP3   OH215778   5.336   0.140   3.623
 5278TIP3    H115779   5.332   0.207   3.555
 5278TIP3    H215780   5.270   0.166   3.687
 5279TIP3   OH215781   6.000   1.630   6.295
 5279TIP3    H115782   6.017   1.542   6.262
 5279TIP3    H215783   6.082   1.677   6.281
 5280TIP3   OH215784   5.268   7.117   1.610
 5280TIP3    H115785   5.324   7.048   1.645
 5280TIP3    H215786   5.184   7.105   1.655
 5281TIP3   OH215787   5.235   4.755   0.675
 5281TIP3    H115788   5.141   4.746   0.658
 5281TIP3    H215789   5.250   4.849   0.683
 5282TIP3   OH215790   3.422   0.535   0.904
 5282TIP3    H115791   3.442   0.515   0.812
 5282TIP3    H215792   3.365   0.463   0.932
 5283TIP3   OH215793   2.105   3.272   3.377
 5283TIP3    H115794   2.018   3.295   3.410
 5283TIP3    H215795   2.140   3.212   3.443
 5284TIP3   OH215796   0.240   3.332   4.248
 5284TIP3    H115797   0.251   3.356   4.156
 5284TIP3    H215798   0.322   3.357   4.289
 5285TIP3   OH215799   6.683   6.939   0.832
 5285TIP3    H115800   6.693   7.034   0.834
 5285TIP3    H215801   6.772   6.905   0.842
 5286TIP3   OH215802   0.876   0.135   6.623
 5286TIP3    H115803   0.870   0.095   6.710
 5286TIP3    H215804   0.873   0.229   6.640
 5287TIP3   OH215805   5.984   5.791   3.582
 5287TIP3    H115806   5.998   5.704   3.617
 5287TIP3    H215807   5.890   5.806   3.590
 5288TIP3   OH215808   0.855   6.136   3.637
 5288TIP3    H115809   0.921   6.108   3.700
 5288TIP3    H215810   0.811   6.209   3.679
 5289TIP3   OH215811   7.613   0.509   2.876
 5289TIP3    H115812   7.541   0.573   2.881
 5289TIP3    H215813   7.643   0.514   2.785
 5290TIP3   OH215814   4.382   3.373   3.425
 5290TIP3    H115815   4.332   3.340   3.500
 5290TIP3    H215816   4.347   3.460   3.410
 5291TIP3   OH215817   7.406   2.991   4.041
 5291TIP3    H115818   7.447   2.905   4.042
 5291TIP3    H215819   7.325   2.980   4.091
 5292TIP3   OH215820   7.133   6.241   0.120
 5292TIP3    H115821   7.080   6.317   0.143
 5292TIP3    H215822   7.202   6.277   0.063
 5293TIP3   OH215823   6.477   5.216   6.405
 5293TIP3    H115824   6.406   5.152   6.406
 5293TIP3    H215825   6.459   5.274   6.479
 5294TIP3   OH215826   3.451   1.286   4.870
 5294TIP3    H115827   3.363   1.298   4.907
 5294TIP3    H215828   3.444   1.205   4.820
 5295TIP3   OH215829   6.362   1.493   3.343
 5295TIP3    H115830   6.304   1.520   3.272
 5295TIP3    H215831   6.319   1.523   3.423
 5296TIP3   OH215832   1.452   4.865   4.529
 5296TIP3    H115833   1.369   4.862   4.577
 5296TIP3    H215834   1.493   4.946   4.557
 5297TIP3   OH215835   6.138   7.223   4.217
 5297TIP3    H115836   6.069   7.178   4.267
 5297TIP3    H215837   6.114   7.208   4.125
 5298TIP3   OH215838   3.030   0.997   1.128
 5298TIP3    H115839   3.082   1.062   1.080
 5298TIP3    H215840   2.941   1.034   1.129
 5299TIP3   OH215841   4.362   2.751   3.631
 5299TIP3    H115842   4.425   2.819   3.658
 5299TIP3    H215843   4.344   2.703   3.712
 5300TIP3   OH215844   4.216   5.219   5.338
 5300TIP3    H115845   4.196   5.240   5.429
 5300TIP3    H215846   4.304   5.254   5.324
 5301TIP3   OH215847   4.333   1.900   4.061
 5301TIP3    H115848   4.376   1.833   4.113
 5301TIP3    H215849   4.252   1.919   4.108
 5302TIP3   OH215850   7.069   6.768   0.142
 5302TIP3    H115851   7.139   6.795   0.083
 5302TIP3    H215852   7.096   6.802   0.227
 5303TIP3   OH215853   5.722   4.793   3.304
 5303TIP3    H115854   5.718   4.807   3.398
 5303TIP3    H215855   5.802   4.743   3.290
 5304TIP3   OH215856   1.310   4.948   1.465
 5304TIP3    H115857   1.370   5.019   1.443
 5304TIP3    H215858   1.229   4.992   1.492
 5305TIP3   OH215859   3.668   0.352   2.968
 5305TIP3    H115860   3.600   0.400   3.015
 5305TIP3    H215861   3.750   0.384   3.006
 5306TIP3   OH215862   3.163   5.588   2.665
 5306TIP3    H115863   3.134   5.611   2.576
 5306TIP3    H215864   3.223   5.658   2.690
 5307TIP3   OH215865   0.007   2.701   6.173
 5307TIP3    H115866   0.072   2.747   6.227
 5307TIP3    H215867   0.058   2.662   6.102
 5308TIP3   OH215868   3.171   1.340   5.872
 5308TIP3    H115869   3.096   1.391   5.839
 5308TIP3    H215870   3.205   1.392   5.944
 5309TIP3   OH215871   4.228   0.530   2.903
 5309TIP3    H115872   4.245   0.439   2.929
 5309TIP3    H215873   4.314   0.563   2.876
 5310TIP3   OH215874   2.089   7.550   3.979
 5310TIP3    H115875   2.173   7.526   4.018
 5310TIP3    H215876   2.026   7.541   4.050
 5311TIP3   OH215877   4.423   6.041   1.271
 5311TIP3    H115878   4.434   6.095   1.350
 5311TIP3    H215879   4.404   5.954   1.305
 5312TIP3   OH215880   0.835   6.401   6.559
 5312TIP3    H115881   0.776   6.362   6.494
 5312TIP3    H215882   0.921   6.396   6.518
 5313TIP3   OH215883   3.515   1.640   3.663
 5313TIP3    H115884   3.449   1.573   3.676
 5313TIP3    H215885   3.563   1.612   3.585
 5314TIP3   OH215886   3.912   0.285   3.235
 5314TIP3    H115887   3.875   0.237   3.309
 5314TIP3    H215888   3.854   0.359   3.222
 5315TIP3   OH215889   0.855   4.032   1.996
 5315TIP3    H115890   0.811   3.956   1.957
 5315TIP3    H215891   0.924   4.055   1.934
 5316TIP3   OH215892   5.116   5.664   5.456
 5316TIP3    H115893   5.161   5.739   5.495
 5316TIP3    H215894   5.049   5.702   5.399
 5317TIP3   OH215895   1.765   6.749   3.106
 5317TIP3    H115896   1.737   6.790   3.188
 5317TIP3    H215897   1.688   6.699   3.077
 5318TIP3   OH215898   6.879   7.086   3.063
 5318TIP3    H115899   6.887   7.156   3.127
 5318TIP3    H215900   6.969   7.053   3.051
 5319TIP3   OH215901   5.846   4.917   0.281
 5319TIP3    H115902   5.779   4.918   0.350
 5319TIP3    H215903   5.897   4.837   0.298
 5320TIP3   OH215904   5.167   3.416   1.034
 5320TIP3    H115905   5.096   3.378   0.982
 5320TIP3    H215906   5.159   3.511   1.021
 5321TIP3   OH215907   6.769   2.108   2.312
 5321TIP3    H115908   6.682   2.086   2.345
 5321TIP3    H215909   6.811   2.154   2.385
 5322TIP3   OH215910   2.177   5.978   5.601
 5322TIP3    H115911   2.269   5.951   5.592
 5322TIP3    H215912   2.167   6.051   5.539
 5323TIP3   OH215913   4.080   5.203   0.336
 5323TIP3    H115914   4.072   5.237   0.425
 5323TIP3    H215915   4.131   5.269   0.290
 5324TIP3   OH215916   2.929   4.102   3.182
 5324TIP3    H115917   2.904   4.026   3.130
 5324TIP3    H215918   2.973   4.065   3.259
 5325TIP3   OH215919   7.992   5.784   2.603
 5325TIP3    H115920   8.026   5.780   2.514
 5325TIP3    H215921   8.057   5.736   2.655
 5326TIP3   OH215922   1.308   0.873   2.079
 5326TIP3    H115923   1.271   0.793   2.042
 5326TIP3    H215924   1.252   0.892   2.155
 5327TIP3   OH215925   5.300   1.666   4.876
 5327TIP3    H115926   5.333   1.754   4.862
 5327TIP3    H215927   5.295   1.656   4.971
 5328TIP3   OH215928   7.818   7.767   0.188
 5328TIP3    H115929   7.874   7.836   0.225
 5328TIP3    H215930   7.846   7.687   0.231
 5329TIP3   OH215931   6.848   4.856   0.221
 5329TIP3    H115932   6.752   4.863   0.223
 5329TIP3    H215933   6.878   4.938   0.260
 5330TIP3   OH215934   7.827   1.257   5.669
 5330TIP3    H115935   7.761   1.317   5.636
 5330TIP3    H215936   7.896   1.258   5.603
 5331TIP3   OH215937   1.697   4.206   3.831
 5331TIP3    H115938   1.743   4.265   3.771
 5331TIP3    H215939   1.655   4.263   3.895
 5332TIP3   OH215940   3.560   7.404   4.147
 5332TIP3    H115941   3.476   7.360   4.137
 5332TIP3    H215942   3.580   7.397   4.241
 5333TIP3   OH215943   7.447   3.776   0.242
 5333TIP3    H115944   7.353   3.756   0.237
 5333TIP3    H215945   7.470   3.801   0.152
 5334TIP3   OH215946   7.907   0.774   3.046
 5334TIP3    H115947   7.929   0.812   2.961
 5334TIP3    H215948   7.929   0.681   3.038
 5335TIP3   OH215949   6.635   1.267   6.173
 5335TIP3    H115950   6.667   1.264   6.263
 5335TIP3    H215951   6.636   1.176   6.143
 5336TIP3   OH215952   0.647   2.486   5.356
 5336TIP3    H115953   0.718   2.436   5.395
 5336TIP3    H215954   0.689   2.564   5.320
 5337TIP3   OH215955   3.079   7.013   3.797
 5337TIP3    H115956   3.004   6.986   3.744
 5337TIP3    H215957   3.050   7.093   3.841
 5338TIP3   OH215958   5.213   6.777   4.622
 5338TIP3    H115959   5.281   6.717   4.591
 5338TIP3    H215960   5.181   6.737   4.703
 5339TIP3   OH215961   6.211   0.663   1.598
 5339TIP3    H115962   6.118   0.650   1.615
 5339TIP3    H215963   6.218   0.663   1.502
 5340TIP3   OH215964   6.004   2.324   6.031
 5340TIP3    H115965   5.958   2.379   5.968
 5340TIP3    H215966   6.097   2.333   6.008
 5341TIP3   OH215967   4.298   7.401   3.628
 5341TIP3    H115968   4.255   7.389   3.713
 5341TIP3    H215969   4.354   7.478   3.639
 5342TIP3   OH215970   5.870   6.369   3.690
 5342TIP3    H115971   5.805   6.303   3.715
 5342TIP3    H215972   5.954   6.325   3.701
 5343TIP3   OH215973   0.506   7.331   6.146
 5343TIP3    H115974   0.531   7.270   6.077
 5343TIP3    H215975   0.410   7.325   6.149
 5344TIP3   OH215976   8.170   5.987   3.066
 5344TIP3    H115977   8.171   5.967   2.972
 5344TIP3    H215978   8.262   5.996   3.089
 5345TIP3   OH215979   1.391   1.012   5.531
 5345TIP3    H115980   1.464   1.018   5.470
 5345TIP3    H215981   1.419   1.062   5.608
 5346TIP3   OH215982   4.195   6.185   0.805
 5346TIP3    H115983   4.128   6.253   0.817
 5346TIP3    H215984   4.274   6.224   0.843
 5347TIP3   OH215985   2.005   5.043   4.033
 5347TIP3    H115986   2.008   5.041   4.128
 5347TIP3    H215987   1.921   5.085   4.012
 5348TIP3   OH215988   0.319   4.255   3.959
 5348TIP3    H115989   0.374   4.246   3.881
 5348TIP3    H215990   0.239   4.296   3.928
 5349TIP3   OH215991   5.872   5.073   3.403
 5349TIP3    H115992   5.824   5.093   3.323
 5349TIP3    H215993   5.932   5.003   3.378
 5350TIP3   OH215994   0.152   3.815   0.561
 5350TIP3    H115995   0.123   3.846   0.647
 5350TIP3    H215996   0.081   3.840   0.501
 5351TIP3   OH215997   4.035   1.563   1.163
 5351TIP3    H115998   4.063   1.623   1.094
 5351TIP3    H215999   3.964   1.609   1.207
 5352TIP3   OH216000   6.181   2.011   4.427
 5352TIP3    H116001   6.243   2.072   4.467
 5352TIP3    H216002   6.169   1.943   4.493
 5353TIP3   OH216003   7.453   7.344   5.588
 5353TIP3    H116004   7.429   7.268   5.535
 5353TIP3    H216005   7.397   7.414   5.555
 5354TIP3   OH216006   8.180   4.333   4.690
 5354TIP3    H116007   8.217   4.249   4.719
 5354TIP3    H216008   8.213   4.397   4.753
 5355TIP3   OH216009   7.105   0.174   1.023
 5355TIP3    H116010   7.099   0.110   0.951
 5355TIP3    H216011   7.016   0.209   1.031
 5356TIP3   OH216012   1.695   1.643   6.509
 5356TIP3    H116013   1.640   1.624   6.585
 5356TIP3    H216014   1.727   1.732   6.525
 5357TIP3   OH216015   1.557   5.702   3.335
 5357TIP3    H116016   1.642   5.744   3.322
 5357TIP3    H216017   1.542   5.707   3.429
 5358TIP3   OH216018   1.425   0.457   3.114
 5358TIP3    H116019   1.398   0.483   3.026
 5358TIP3    H216020   1.419   0.361   3.113
 5359TIP3   OH216021   3.756   0.355   4.541
 5359TIP3    H116022   3.753   0.347   4.446
 5359TIP3    H216023   3.728   0.269   4.573
 5360TIP3   OH216024   1.761   3.627   0.548
 5360TIP3    H116025   1.727   3.627   0.638
 5360TIP3    H216026   1.724   3.707   0.509
 5361TIP3   OH216027   1.196   0.957   3.288
 5361TIP3    H116028   1.182   0.983   3.379
 5361TIP3    H216029   1.194   0.861   3.290
 5362TIP3   OH216030   6.637   1.833   4.482
 5362TIP3    H116031   6.731   1.849   4.474
 5362TIP3    H216032   6.626   1.797   4.570
 5363TIP3   OH216033   0.396   4.092   6.563
 5363TIP3    H116034   0.345   4.055   6.491
 5363TIP3    H216035   0.487   4.074   6.541
 5364TIP3   OH216036   0.676   2.802   5.119
 5364TIP3    H116037   0.732   2.836   5.049
 5364TIP3    H216038   0.609   2.751   5.073
 5365TIP3   OH216039   3.372   2.992   0.945
 5365TIP3    H116040   3.350   2.929   1.013
 5365TIP3    H216041   3.376   3.076   0.990
 5366TIP3   OH216042   7.068   0.750   0.776
 5366TIP3    H116043   6.994   0.798   0.816
 5366TIP3    H216044   7.046   0.658   0.790
 5367TIP3   OH216045   3.195   6.943   5.684
 5367TIP3    H116046   3.156   7.008   5.744
 5367TIP3    H216047   3.200   6.863   5.736
 5368TIP3   OH216048   5.193   3.846   4.778
 5368TIP3    H116049   5.264   3.899   4.815
 5368TIP3    H216050   5.162   3.792   4.850
 5369TIP3   OH216051   5.544   5.475   2.109
 5369TIP3    H116052   5.531   5.405   2.045
 5369TIP3    H216053   5.462   5.524   2.108
 5370TIP3   OH216054   1.523   1.093   3.596
 5370TIP3    H116055   1.499   1.095   3.503
 5370TIP3    H216056   1.491   1.008   3.627
 5371TIP3   OH216057   5.701   3.593   5.148
 5371TIP3    H116058   5.687   3.614   5.056
 5371TIP3    H216059   5.770   3.652   5.177
 5372TIP3   OH216060   7.184   5.734   4.232
 5372TIP3    H116061   7.221   5.687   4.158
 5372TIP3    H216062   7.094   5.754   4.205
 5373TIP3   OH216063   3.566   4.218   4.161
 5373TIP3    H116064   3.619   4.268   4.224
 5373TIP3    H216065   3.618   4.218   4.081
 5374TIP3   OH216066   2.153   0.750   1.696
 5374TIP3    H116067   2.218   0.707   1.751
 5374TIP3    H216068   2.154   0.842   1.724
 5375TIP3   OH216069   1.800   4.877   3.692
 5375TIP3    H116070   1.825   4.820   3.765
 5375TIP3    H216071   1.866   4.947   3.693
 5376TIP3   OH216072   6.944   2.432   6.592
 5376TIP3    H116073   6.881   2.417   6.522
 5376TIP3    H216074   6.975   2.345   6.616
 5377TIP3   OH216075   1.807   2.606   0.513
 5377TIP3    H116076   1.850   2.616   0.598
 5377TIP3    H216077   1.779   2.514   0.512
 5378TIP3   OH216078   4.787   6.930   4.412
 5378TIP3    H116079   4.763   7.014   4.374
 5378TIP3    H216080   4.786   6.869   4.339
 5379TIP3   OH216081   0.679   3.786   3.730
 5379TIP3    H116082   0.722   3.752   3.652
 5379TIP3    H216083   0.746   3.781   3.798
 5380TIP3   OH216084   6.982   2.870   6.526
 5380TIP3    H116085   6.937   2.824   6.455
 5380TIP3    H216086   7.074   2.846   6.514
 5381TIP3   OH216087   1.706   1.428   1.870
 5381TIP3    H116088   1.635   1.450   1.930
 5381TIP3    H216089   1.677   1.460   1.785
 5382TIP3   OH216090   7.661   2.855   6.310
 5382TIP3    H116091   7.597   2.787   6.291
 5382TIP3    H216092   7.615   2.937   6.295
 5383TIP3   OH216093   3.594   4.772   4.720
 5383TIP3    H116094   3.631   4.700   4.669
 5383TIP3    H216095   3.503   4.778   4.691
 5384TIP3   OH216096   2.373   2.694   6.403
 5384TIP3    H116097   2.437   2.724   6.468
 5384TIP3    H216098   2.422   2.633   6.347
 5385TIP3   OH216099   1.909   1.442   1.552
 5385TIP3    H116100   1.937   1.494   1.628
 5385TIP3    H216101   1.916   1.351   1.582
 5386TIP3   OH216102   1.394   6.947   6.297
 5386TIP3    H116103   1.415   6.874   6.239
 5386TIP3    H216104   1.334   7.002   6.246
 5387TIP3   OH216105   0.773   3.990   3.140
 5387TIP3    H116106   0.725   4.055   3.192
 5387TIP3    H216107   0.708   3.921   3.123
 5388TIP3   OH216108   3.908   0.166   6.122
 5388TIP3    H116109   3.821   0.169   6.083
 5388TIP3    H216110   3.894   0.133   6.211
 5389TIP3   OH216111   3.766   2.195   3.806
 5389TIP3    H116112   3.673   2.172   3.802
 5389TIP3    H216113   3.801   2.168   3.721
 5390TIP3   OH216114   5.969   4.824   1.428
 5390TIP3    H116115   6.060   4.797   1.413
 5390TIP3    H216116   5.961   4.907   1.382
 5391TIP3   OH216117   7.103   0.668   2.806
 5391TIP3    H116118   7.157   0.746   2.817
 5391TIP3    H216119   7.015   0.694   2.834
 5392TIP3   OH216120   5.538   1.189   2.573
 5392TIP3    H116121   5.519   1.095   2.574
 5392TIP3    H216122   5.634   1.194   2.582
 5393TIP3   OH216123   0.271   7.717   2.771
 5393TIP3    H116124   0.352   7.744   2.728
 5393TIP3    H216125   0.205   7.720   2.701
 5394TIP3   OH216126   2.049   0.985   6.750
 5394TIP3    H116127   2.091   1.051   6.695
 5394TIP3    H216128   1.984   1.033   6.801
 5395TIP3   OH216129   5.844   3.033   4.933
 5395TIP3    H116130   5.863   3.077   5.016
 5395TIP3    H216131   5.865   2.941   4.949
 5396TIP3   OH216132   1.558   5.525   6.409
 5396TIP3    H116133   1.559   5.461   6.338
 5396TIP3    H216134   1.545   5.609   6.366
 5397TIP3   OH216135   5.330   6.142   0.505
 5397TIP3    H116136   5.359   6.055   0.535
 5397TIP3    H216137   5.250   6.159   0.555
 5398TIP3   OH216138   5.164   1.900   1.950
 5398TIP3    H116139   5.121   1.967   1.896
 5398TIP3    H216140   5.171   1.940   2.036
 5399TIP3   OH216141   2.649   2.811   5.744
 5399TIP3    H116142   2.581   2.750   5.715
 5399TIP3    H216143   2.670   2.783   5.833
 5400TIP3   OH216144   2.057   5.153   1.481
 5400TIP3    H116145   2.000   5.081   1.509
 5400TIP3    H216146   2.011   5.232   1.510
 5401TIP3   OH216147   7.299   6.804   2.049
 5401TIP3    H116148   7.298   6.712   2.077
 5401TIP3    H216149   7.255   6.851   2.120
 5402TIP3   OH216150   1.116   4.488   2.085
 5402TIP3    H116151   1.124   4.393   2.096
 5402TIP3    H216152   1.126   4.503   1.991
 5403TIP3   OH216153   0.483   6.473   3.839
 5403TIP3    H116154   0.487   6.383   3.809
 5403TIP3    H216155   0.482   6.467   3.935
 5404TIP3   OH216156   7.771   3.212   2.492
 5404TIP3    H116157   7.692   3.227   2.440
 5404TIP3    H216158   7.841   3.257   2.444
 5405TIP3   OH216159   5.620   7.394   1.318
 5405TIP3    H116160   5.546   7.338   1.340
 5405TIP3    H216161   5.693   7.334   1.304
 5406TIP3   OH216162   3.952   2.048   5.872
 5406TIP3    H116163   4.012   2.007   5.935
 5406TIP3    H216164   3.871   2.061   5.921
 5407TIP3   OH216165   3.075   1.238   6.658
 5407TIP3    H116166   3.147   1.268   6.603
 5407TIP3    H216167   3.098   1.267   6.746
 5408TIP3   OH216168   7.107   3.562   2.810
 5408TIP3    H116169   7.169   3.612   2.756
 5408TIP3    H216170   7.139   3.574   2.900
 5409TIP3   OH216171   0.886   5.840   2.145
 5409TIP3    H116172   0.877   5.887   2.228
 5409TIP3    H216173   0.850   5.753   2.163
 5410TIP3   OH216174   6.700   6.389   0.160
 5410TIP3    H116175   6.659   6.436   0.234
 5410TIP3    H216176   6.730   6.459   0.102
 5411TIP3   OH216177   2.917   1.493   2.422
 5411TIP3    H116178   2.939   1.556   2.490
 5411TIP3    H216179   2.872   1.422   2.468
 5412TIP3   OH216180   6.964   2.085   3.227
 5412TIP3    H116181   6.977   2.177   3.201
 5412TIP3    H216182   7.042   2.064   3.278
 5413TIP3   OH216183   2.580   0.894   2.075
 5413TIP3    H116184   2.599   0.984   2.100
 5413TIP3    H216185   2.665   0.852   2.069
 5414TIP3   OH216186   1.874   4.286   5.671
 5414TIP3    H116187   1.965   4.256   5.666
 5414TIP3    H216188   1.869   4.358   5.608
 5415TIP3   OH216189   0.375   3.763   3.076
 5415TIP3    H116190   0.334   3.813   3.148
 5415TIP3    H216191   0.331   3.796   2.997
 5416TIP3   OH216192   0.909   7.733   3.611
 5416TIP3    H116193   0.863   7.650   3.626
 5416TIP3    H216194   0.966   7.716   3.537
 5417TIP3   OH216195   2.813   3.544   4.954
 5417TIP3    H116196   2.757   3.467   4.946
 5417TIP3    H216197   2.769   3.612   4.902
 5418TIP3   OH216198   2.357   6.769   6.521
 5418TIP3    H116199   2.401   6.685   6.509
 5418TIP3    H216200   2.279   6.763   6.466
 5419TIP3   OH216201   4.935   5.794   3.453
 5419TIP3    H116202   4.951   5.701   3.466
 5419TIP3    H216203   5.000   5.839   3.506
 5420TIP3   OH216204   3.338   2.115   2.837
 5420TIP3    H116205   3.255   2.105   2.883
 5420TIP3    H216206   3.316   2.113   2.744
 5421TIP3   OH216207   1.376  -0.001   4.604
 5421TIP3    H116208   1.411   0.065   4.544
 5421TIP3    H216209   1.309  -0.046   4.554
 5422TIP3   OH216210   8.288   6.238   6.083
 5422TIP3    H116211   8.286   6.193   6.167
 5422TIP3    H216212   8.202   6.279   6.075
 5423TIP3   OH216213   0.868   5.846   5.998
 5423TIP3    H116214   0.887   5.915   6.062
 5423TIP3    H216215   0.954   5.817   5.968
 5424TIP3   OH216216   6.313   3.664   1.520
 5424TIP3    H116217   6.273   3.606   1.585
 5424TIP3    H216218   6.387   3.704   1.564
 5425TIP3   OH216219   6.137   3.015   2.979
 5425TIP3    H116220   6.181   2.959   2.915
 5425TIP3    H216221   6.052   3.032   2.941
 5426TIP3   OH216222   2.943   6.523   3.811
 5426TIP3    H116223   2.914   6.515   3.902
 5426TIP3    H216224   2.874   6.482   3.760
 5427TIP3   OH216225   7.940   1.279   4.515
 5427TIP3    H116226   7.926   1.192   4.479
 5427TIP3    H216227   8.031   1.301   4.491
 5428TIP3   OH216228   2.865   5.713   2.749
 5428TIP3    H116229   2.770   5.710   2.741
 5428TIP3    H216230   2.891   5.622   2.767
 5429TIP3   OH216231   1.055   4.844   0.932
 5429TIP3    H116232   1.093   4.762   0.897
 5429TIP3    H216233   1.114   4.869   1.003
 5430TIP3   OH216234   1.727   1.859   3.193
 5430TIP3    H116235   1.798   1.919   3.172
 5430TIP3    H216236   1.659   1.914   3.232
 5431TIP3   OH216237   0.790   7.264   1.633
 5431TIP3    H116238   0.733   7.236   1.562
 5431TIP3    H216239   0.876   7.227   1.610
 5432TIP3   OH216240   6.713   4.298   6.358
 5432TIP3    H116241   6.686   4.292   6.449
 5432TIP3    H216242   6.793   4.350   6.359
 5433TIP3   OH216243   1.521   0.819   3.672
 5433TIP3    H116244   1.473   0.765   3.610
 5433TIP3    H216245   1.566   0.756   3.729
 5434TIP3   OH216246   1.726   2.513   3.588
 5434TIP3    H116247   1.725   2.529   3.494
 5434TIP3    H216248   1.636   2.530   3.616
 5435TIP3   OH216249   3.302   4.419   3.932
 5435TIP3    H116250   3.290   4.349   3.997
 5435TIP3    H216251   3.345   4.376   3.858
 5436TIP3   OH216252   1.914   5.382   2.689
 5436TIP3    H116253   1.913   5.432   2.771
 5436TIP3    H216254   1.821   5.369   2.668
 5437TIP3   OH216255   7.433   1.426   6.354
 5437TIP3    H116256   7.346   1.387   6.360
 5437TIP3    H216257   7.431   1.499   6.416
 5438TIP3   OH216258   1.236   7.535   1.035
 5438TIP3    H116259   1.320   7.495   1.014
 5438TIP3    H216260   1.235   7.542   1.130
 5439TIP3   OH216261   0.278   1.147   4.692
 5439TIP3    H116262   0.363   1.104   4.682
 5439TIP3    H216263   0.244   1.153   4.602
 5440TIP3   OH216264   1.588   6.683   0.319
 5440TIP3    H116265   1.626   6.717   0.401
 5440TIP3    H216266   1.493   6.687   0.334
 5441TIP3   OH216267   6.833  -0.038   6.719
 5441TIP3    H116268   6.898   0.017   6.763
 5441TIP3    H216269   6.807   0.013   6.643
 5442TIP3   OH216270   3.110   1.602   3.425
 5442TIP3    H116271   3.161   1.664   3.373
 5442TIP3    H216272   3.141   1.614   3.515
 5443TIP3   OH216273   4.863   7.483   5.124
 5443TIP3    H116274   4.877   7.410   5.185
 5443TIP3    H216275   4.952   7.514   5.103
 5444TIP3   OH216276   7.138   3.258   0.169
 5444TIP3    H116277   7.203   3.244   0.237
 5444TIP3    H216278   7.135   3.175   0.121
 5445TIP3   OH216279   5.610   2.469   2.862
 5445TIP3    H116280   5.616   2.466   2.958
 5445TIP3    H216281   5.633   2.558   2.839
 5446TIP3   OH216282   6.655   2.648   1.080
 5446TIP3    H116283   6.602   2.700   1.020
 5446TIP3    H216284   6.597   2.579   1.111
 5447TIP3   OH216285   1.453   1.748   0.338
 5447TIP3    H116286   1.496   1.787   0.413
 5447TIP3    H216287   1.415   1.822   0.291
 5448TIP3   OH216288   6.022   3.671   6.045
 5448TIP3    H116289   6.061   3.620   6.116
 5448TIP3    H216290   6.033   3.762   6.072
 5449TIP3   OH216291   2.165   0.810   2.086
 5449TIP3    H116292   2.192   0.901   2.098
 5449TIP3    H216293   2.070   0.811   2.102
 5450TIP3   OH216294   4.429   1.502   5.693
 5450TIP3    H116295   4.346   1.462   5.668
 5450TIP3    H216296   4.490   1.478   5.623
 5451TIP3   OH216297   0.310   5.484   2.485
 5451TIP3    H116298   0.233   5.500   2.541
 5451TIP3    H216299   0.326   5.390   2.494
 5452TIP3   OH216300   7.918   5.731   4.405
 5452TIP3    H116301   7.911   5.779   4.323
 5452TIP3    H216302   7.960   5.792   4.466
 5453TIP3   OH216303   1.067   7.192   1.602
 5453TIP3    H116304   1.120   7.116   1.579
 5453TIP3    H216305   1.129   7.255   1.639
 5454TIP3   OH216306   6.656   1.064   1.370
 5454TIP3    H116307   6.622   1.026   1.289
 5454TIP3    H216308   6.709   0.993   1.408
 5455TIP3   OH216309   1.553   7.237   5.175
 5455TIP3    H116310   1.577   7.309   5.233
 5455TIP3    H216311   1.614   7.166   5.197
 5456TIP3   OH216312   6.025  -0.008   0.734
 5456TIP3    H116313   6.060  -0.063   0.804
 5456TIP3    H216314   6.059   0.080   0.753
 5457TIP3   OH216315   3.055   3.597   0.813
 5457TIP3    H116316   3.148   3.572   0.811
 5457TIP3    H216317   3.009   3.524   0.770
 5458TIP3   OH216318   8.036   7.368   3.724
 5458TIP3    H116319   7.953   7.399   3.687
 5458TIP3    H216320   8.012   7.294   3.780
 5459TIP3   OH216321   4.833   1.106   2.404
 5459TIP3    H116322   4.893   1.181   2.394
 5459TIP3    H216323   4.746   1.144   2.393
 5460TIP3   OH216324   2.010   6.247   0.279
 5460TIP3    H116325   2.089   6.300   0.287
 5460TIP3    H216326   2.013   6.214   0.189
 5461TIP3   OH216327   2.997   2.542   3.132
 5461TIP3    H116328   3.028   2.511   3.217
 5461TIP3    H216329   3.048   2.492   3.068
 5462TIP3   OH216330   3.287   0.076   6.678
 5462TIP3    H116331   3.216   0.126   6.718
 5462TIP3    H216332   3.347   0.058   6.750
 5463TIP3   OH216333   4.859   0.610   4.877
 5463TIP3    H116334   4.907   0.609   4.961
 5463TIP3    H216335   4.801   0.685   4.883
 5464TIP3   OH216336   2.054   5.950   5.117
 5464TIP3    H116337   2.043   5.912   5.030
 5464TIP3    H216338   2.030   6.042   5.106
 5465TIP3   OH216339   6.796   1.886   6.061
 5465TIP3    H116340   6.722   1.849   6.109
 5465TIP3    H216341   6.756   1.948   5.999
 5466TIP3   OH216342   0.574   3.870   6.438
 5466TIP3    H116343   0.643   3.860   6.504
 5466TIP3    H216344   0.620   3.865   6.354
 5467TIP3   OH216345   0.313   5.377   1.552
 5467TIP3    H116346   0.377   5.445   1.572
 5467TIP3    H216347   0.364   5.306   1.514
 5468TIP3   OH216348   7.602   6.715   2.074
 5468TIP3    H116349   7.599   6.620   2.086
 5468TIP3    H216350   7.536   6.732   2.006
 5469TIP3   OH216351   0.823   6.331   3.860
 5469TIP3    H116352   0.844   6.314   3.952
 5469TIP3    H216353   0.732   6.360   3.861
 5470TIP3   OH216354   5.650   2.931   2.373
 5470TIP3    H116355   5.717   2.986   2.332
 5470TIP3    H216356   5.578   2.930   2.310
 5471TIP3   OH216357   1.085   6.386   5.945
 5471TIP3    H116358   1.081   6.466   5.891
 5471TIP3    H216359   1.097   6.418   6.034
 5472TIP3   OH216360   8.044   6.594   2.190
 5472TIP3    H116361   8.063   6.661   2.124
 5472TIP3    H216362   8.129   6.555   2.209
 5473TIP3   OH216363   2.311   3.119   1.778
 5473TIP3    H116364   2.355   3.188   1.729
 5473TIP3    H216365   2.319   3.042   1.723
 5474TIP3   OH216366   7.721   2.573   6.333
 5474TIP3    H116367   7.762   2.607   6.254
 5474TIP3    H216368   7.629   2.599   6.326
 5475TIP3   OH216369   6.626   4.258   6.624
 5475TIP3    H116370   6.662   4.337   6.666
 5475TIP3    H216371   6.683   4.187   6.653
 5476TIP3   OH216372   2.211   1.966   0.382
 5476TIP3    H116373   2.134   1.994   0.431
 5476TIP3    H216374   2.178   1.950   0.293
 5477TIP3   OH216375   5.618   4.560   0.338
 5477TIP3    H116376   5.656   4.568   0.251
 5477TIP3    H216377   5.603   4.466   0.350
 5478TIP3   OH216378   4.858   2.480   6.315
 5478TIP3    H116379   4.867   2.465   6.221
 5478TIP3    H216380   4.840   2.573   6.323
 5479TIP3   OH216381   5.284   4.395   4.323
 5479TIP3    H116382   5.338   4.316   4.323
 5479TIP3    H216383   5.194   4.362   4.331
 5480TIP3   OH216384   7.143   7.589   2.886
 5480TIP3    H116385   7.070   7.527   2.893
 5480TIP3    H216386   7.113   7.653   2.822
 5481TIP3   OH216387   2.412   3.577   3.308
 5481TIP3    H116388   2.406   3.571   3.213
 5481TIP3    H216389   2.349   3.645   3.332
 5482TIP3   OH216390   4.184   5.613   5.826
 5482TIP3    H116391   4.265   5.567   5.846
 5482TIP3    H216392   4.123   5.544   5.801
 5483TIP3   OH216393   3.482   7.722   1.288
 5483TIP3    H116394   3.575   7.719   1.311
 5483TIP3    H216395   3.446   7.793   1.342
 5484TIP3   OH216396   6.046   0.562   3.274
 5484TIP3    H116397   6.037   0.635   3.214
 5484TIP3    H216398   6.109   0.504   3.232
 5485TIP3   OH216399   6.168   6.276   3.965
 5485TIP3    H116400   6.258   6.243   3.968
 5485TIP3    H216401   6.135   6.247   3.880
 5486TIP3   OH216402   5.573   4.310   0.591
 5486TIP3    H116403   5.606   4.399   0.593
 5486TIP3    H216404   5.589   4.281   0.501
 5487TIP3   OH216405   0.897   2.095   6.589
 5487TIP3    H116406   0.840   2.072   6.516
 5487TIP3    H216407   0.910   2.013   6.636
 5488TIP3   OH216408   8.009   2.168   2.638
 5488TIP3    H116409   8.036   2.091   2.588
 5488TIP3    H216410   7.914   2.159   2.647
 5489TIP3   OH216411   2.243   7.051   2.071
 5489TIP3    H116412   2.267   6.963   2.098
 5489TIP3    H216413   2.241   7.048   1.975
 5490TIP3   OH216414   1.783   5.737   1.423
 5490TIP3    H116415   1.770   5.686   1.343
 5490TIP3    H216416   1.732   5.817   1.410
 5491TIP3   OH216417   5.343   7.424   2.639
 5491TIP3    H116418   5.360   7.482   2.565
 5491TIP3    H216419   5.252   7.397   2.628
 5492TIP3   OH216420   0.577   0.121   1.696
 5492TIP3    H116421   0.551   0.049   1.638
 5492TIP3    H216422   0.624   0.078   1.768
 5493TIP3   OH216423   7.790   3.973   1.212
 5493TIP3    H116424   7.806   3.973   1.306
 5493TIP3    H216425   7.735   4.050   1.196
 5494TIP3   OH216426   7.085   3.194   2.080
 5494TIP3    H116427   7.017   3.245   2.124
 5494TIP3    H216428   7.043   3.162   2.000
 5495TIP3   OH216429   6.352   5.122   4.810
 5495TIP3    H116430   6.374   5.032   4.836
 5495TIP3    H216431   6.286   5.150   4.873
 5496TIP3   OH216432   7.379   7.012   6.077
 5496TIP3    H116433   7.424   7.062   6.010
 5496TIP3    H216434   7.415   7.044   6.160
 5497TIP3   OH216435   1.348   2.848   2.472
 5497TIP3    H116436   1.296   2.769   2.486
 5497TIP3    H216437   1.303   2.894   2.401
 5498TIP3   OH216438   5.692   2.101   4.967
 5498TIP3    H116439   5.650   2.125   4.885
 5498TIP3    H216440   5.661   2.013   4.986
 5499TIP3   OH216441   3.159   3.947   4.678
 5499TIP3    H116442   3.074   3.989   4.689
 5499TIP3    H216443   3.172   3.943   4.583
 5500TIP3   OH216444   4.200   0.375   4.949
 5500TIP3    H116445   4.106   0.387   4.956
 5500TIP3    H216446   4.235   0.464   4.939
 5501TIP3   OH216447   6.420   1.291   0.384
 5501TIP3    H116448   6.480   1.241   0.439
 5501TIP3    H216449   6.348   1.232   0.367
 5502TIP3   OH216450   4.832   3.084   3.907
 5502TIP3    H116451   4.816   3.003   3.857
 5502TIP3    H216452   4.748   3.103   3.948
 5503TIP3   OH216453   4.376   7.590   6.628
 5503TIP3    H116454   4.408   7.505   6.598
 5503TIP3    H216455   4.378   7.645   6.549
 5504TIP3   OH216456   5.629   5.915   2.107
 5504TIP3    H116457   5.591   6.001   2.123
 5504TIP3    H216458   5.720   5.924   2.136
 5505TIP3   OH216459   5.072   3.715   5.034
 5505TIP3    H116460   5.043   3.634   5.074
 5505TIP3    H216461   4.992   3.767   5.023
 5506TIP3   OH216462   2.567   4.484   5.959
 5506TIP3    H116463   2.662   4.497   5.962
 5506TIP3    H216464   2.535   4.558   5.908
 5507TIP3   OH216465   2.730   4.361   0.664
 5507TIP3    H116466   2.706   4.398   0.578
 5507TIP3    H216467   2.821   4.387   0.676
 5508TIP3   OH216468   8.155   3.204   4.641
 5508TIP3    H116469   8.059   3.207   4.645
 5508TIP3    H216470   8.174   3.206   4.547
 5509TIP3   OH216471   7.727   5.450   4.102
 5509TIP3    H116472   7.746   5.542   4.115
 5509TIP3    H216473   7.810   5.405   4.118
 5510TIP3   OH216474   7.334   3.125   5.523
 5510TIP3    H116475   7.271   3.108   5.593
 5510TIP3    H216476   7.291   3.096   5.443
 5511TIP3   OH216477   3.362   2.701   6.667
 5511TIP3    H116478   3.397   2.775   6.617
 5511TIP3    H216479   3.282   2.676   6.622
 5512TIP3   OH216480   6.347   0.210   1.270
 5512TIP3    H116481   6.265   0.173   1.303
 5512TIP3    H216482   6.389   0.248   1.346
 5513TIP3   OH216483   3.259   4.092   1.839
 5513TIP3    H116484   3.311   4.014   1.859
 5513TIP3    H216485   3.269   4.148   1.917
 5514TIP3   OH216486   1.131   1.128   5.499
 5514TIP3    H116487   1.093   1.094   5.580
 5514TIP3    H216488   1.224   1.104   5.504
 5515TIP3   OH216489   5.695   0.534   0.947
 5515TIP3    H116490   5.644   0.457   0.972
 5515TIP3    H216491   5.632   0.606   0.950
 5516TIP3   OH216492   1.313   2.427   1.079
 5516TIP3    H116493   1.353   2.443   1.165
 5516TIP3    H216494   1.368   2.360   1.039
 5517TIP3   OH216495   7.853   2.150   0.545
 5517TIP3    H116496   7.944   2.181   0.542
 5517TIP3    H216497   7.817   2.190   0.625
 5518TIP3   OH216498   4.577   1.891   0.034
 5518TIP3    H116499   4.589   1.873  -0.059
 5518TIP3    H216500   4.625   1.820   0.078
 5519TIP3   OH216501   6.102   0.877   3.509
 5519TIP3    H116502   6.013   0.906   3.488
 5519TIP3    H216503   6.112   0.794   3.462
 5520TIP3   OH216504   7.931   5.018   4.748
 5520TIP3    H116505   7.854   5.011   4.804
 5520TIP3    H216506   7.992   5.072   4.798
 5521TIP3   OH216507   4.265   2.157   3.943
 5521TIP3    H116508   4.293   2.067   3.959
 5521TIP3    H216509   4.233   2.157   3.853
 5522TIP3   OH216510   8.070   0.370   3.371
 5522TIP3    H116511   8.152   0.329   3.342
 5522TIP3    H216512   8.098   0.434   3.437
 5523TIP3   OH216513   4.786   5.425   3.313
 5523TIP3    H116514   4.730   5.357   3.351
 5523TIP3    H216515   4.739   5.451   3.233
 5524TIP3   OH216516   8.006   2.571   4.063
 5524TIP3    H116517   8.010   2.626   3.985
 5524TIP3    H216518   7.934   2.510   4.046
 5525TIP3   OH216519   0.758   4.241   1.553
 5525TIP3    H116520   0.845   4.210   1.579
 5525TIP3    H216521   0.704   4.225   1.630
 5526TIP3   OH216522   2.690   1.783   1.188
 5526TIP3    H116523   2.780   1.758   1.164
 5526TIP3    H216524   2.639   1.704   1.173
 5527TIP3   OH216525   0.043   3.904   3.057
 5527TIP3    H116526   0.025   3.813   3.082
 5527TIP3    H216527   0.099   3.896   2.979
 5528TIP3   OH216528   6.711   1.249   4.954
 5528TIP3    H116529   6.796   1.274   4.991
 5528TIP3    H216530   6.721   1.156   4.933
 5529TIP3   OH216531   4.413   5.627   1.279
 5529TIP3    H116532   4.490   5.658   1.230
 5529TIP3    H216533   4.356   5.589   1.212
 5530TIP3   OH216534   3.631   1.711   2.004
 5530TIP3    H116535   3.709   1.743   2.049
 5530TIP3    H216536   3.618   1.772   1.932
 5531TIP3   OH216537   8.114   6.086   5.403
 5531TIP3    H116538   8.091   6.002   5.443
 5531TIP3    H216539   8.052   6.148   5.441
 5532TIP3   OH216540   5.441   5.702   2.543
 5532TIP3    H116541   5.457   5.764   2.615
 5532TIP3    H216542   5.452   5.754   2.464
 5533TIP3   OH216543   6.960   5.738   5.102
 5533TIP3    H116544   6.963   5.771   5.012
 5533TIP3    H216545   6.951   5.816   5.156
 5534TIP3   OH216546   6.403   6.388   2.290
 5534TIP3    H116547   6.314   6.355   2.277
 5534TIP3    H216548   6.459   6.323   2.247
 5535TIP3   OH216549   2.880   7.593   4.698
 5535TIP3    H116550   2.947   7.650   4.662
 5535TIP3    H216551   2.893   7.509   4.653
 5536TIP3   OH216552   3.522   0.702   1.964
 5536TIP3    H116553   3.522   0.612   1.996
 5536TIP3    H216554   3.433   0.733   1.980
 5537TIP3   OH216555   0.791   6.865   0.692
 5537TIP3    H116556   0.780   6.842   0.600
 5537TIP3    H216557   0.701   6.877   0.724
 5538TIP3   OH216558   7.252   7.812   2.228
 5538TIP3    H116559   7.205   7.732   2.205
 5538TIP3    H216560   7.301   7.835   2.149
 5539TIP3   OH216561   0.083   4.253   5.018
 5539TIP3    H116562   0.159   4.217   5.064
 5539TIP3    H216563   0.106   4.344   5.000
 5540TIP3   OH216564   7.321   1.034   5.395
 5540TIP3    H116565   7.386   1.067   5.457
 5540TIP3    H216566   7.340   1.080   5.313
 5541TIP3   OH216567   6.398   0.309   3.613
 5541TIP3    H116568   6.348   0.259   3.677
 5541TIP3    H216569   6.398   0.398   3.646
 5542TIP3   OH216570   8.197   1.651   4.589
 5542TIP3    H116571   8.198   1.590   4.515
 5542TIP3    H216572   8.281   1.637   4.633
 5543TIP3   OH216573   0.411   2.384   6.677
 5543TIP3    H116574   0.349   2.456   6.692
 5543TIP3    H216575   0.419   2.341   6.763
 5544TIP3   OH216576   7.580   1.379   1.143
 5544TIP3    H116577   7.531   1.451   1.104
 5544TIP3    H216578   7.592   1.317   1.071
 5545TIP3   OH216579   0.772   5.022   1.382
 5545TIP3    H116580   0.854   4.980   1.355
 5545TIP3    H216581   0.781   5.113   1.354
 5546TIP3   OH216582   4.565   0.157   3.717
 5546TIP3    H116583   4.608   0.128   3.797
 5546TIP3    H216584   4.482   0.195   3.746
 5547TIP3   OH216585   2.829   5.911   6.547
 5547TIP3    H116586   2.774   5.990   6.542
 5547TIP3    H216587   2.918   5.944   6.549
 5548TIP3   OH216588   6.825   2.835   3.513
 5548TIP3    H116589   6.772   2.893   3.567
 5548TIP3    H216590   6.912   2.875   3.514
 5549TIP3   OH216591   1.610   2.182   5.172
 5549TIP3    H116592   1.564   2.101   5.194
 5549TIP3    H216593   1.702   2.163   5.190
 5550TIP3   OH216594   1.428   4.686   6.577
 5550TIP3    H116595   1.335   4.663   6.576
 5550TIP3    H216596   1.463   4.640   6.653
 5551TIP3   OH216597   1.692   6.630   2.816
 5551TIP3    H116598   1.783   6.615   2.843
 5551TIP3    H216599   1.687   6.597   2.727
 5552TIP3   OH216600   1.205   2.907   4.130
 5552TIP3    H116601   1.174   2.831   4.082
 5552TIP3    H216602   1.204   2.978   4.065
 5553TIP3   OH216603   8.207   4.968   5.540
 5553TIP3    H116604   8.182   5.055   5.508
 5553TIP3    H216605   8.267   4.934   5.474
 5554TIP3   OH216606   2.610   5.575   0.653
 5554TIP3    H116607   2.646   5.640   0.712
 5554TIP3    H216608   2.687   5.530   0.618
 5555TIP3   OH216609   7.787   0.493   1.684
 5555TIP3    H116610   7.765   0.551   1.757
 5555TIP3    H216611   7.705   0.447   1.665
 5556TIP3   OH216612   2.476   2.610   1.107
 5556TIP3    H116613   2.459   2.532   1.053
 5556TIP3    H216614   2.562   2.641   1.079
 5557TIP3   OH216615   4.245   0.849   1.889
 5557TIP3    H116616   4.235   0.806   1.804
 5557TIP3    H216617   4.166   0.826   1.938
 5558TIP3   OH216618   3.031   2.420   0.798
 5558TIP3    H116619   3.099   2.354   0.783
 5558TIP3    H216620   3.079   2.500   0.816
 5559TIP3   OH216621   0.158   0.091   3.066
 5559TIP3    H116622   0.253   0.100   3.060
 5559TIP3    H216623   0.143  -0.003   3.079
 5560TIP3   OH216624   7.575   6.590   5.821
 5560TIP3    H116625   7.534   6.672   5.849
 5560TIP3    H216626   7.529   6.566   5.741
 5561TIP3   OH216627   3.827   4.231   3.906
 5561TIP3    H116628   3.843   4.137   3.912
 5561TIP3    H216629   3.878   4.269   3.978
 5562TIP3   OH216630   2.473   5.631   1.878
 5562TIP3    H116631   2.541   5.571   1.849
 5562TIP3    H216632   2.475   5.625   1.973
 5563TIP3   OH216633   0.255   2.049   6.020
 5563TIP3    H116634   0.317   1.985   6.054
 5563TIP3    H216635   0.298   2.087   5.943
 5564TIP3   OH216636   7.844   0.180   4.865
 5564TIP3    H116637   7.872   0.173   4.774
 5564TIP3    H216638   7.770   0.120   4.872
 5565TIP3   OH216639   0.248   0.711   0.077
 5565TIP3    H116640   0.279   0.663   0.154
 5565TIP3    H216641   0.181   0.770   0.111
 5566TIP3   OH216642   1.337   4.078   4.094
 5566TIP3    H116643   1.370   4.154   4.045
 5566TIP3    H216644   1.371   4.090   4.182
 5567TIP3   OH216645   1.199   4.503   3.031
 5567TIP3    H116646   1.160   4.421   3.003
 5567TIP3    H216647   1.126   4.565   3.035
 5568TIP3   OH216648   2.163   4.072   2.310
 5568TIP3    H116649   2.093   4.114   2.360
 5568TIP3    H216650   2.229   4.140   2.299
 5569TIP3   OH216651   3.709   0.698   4.331
 5569TIP3    H116652   3.630   0.701   4.278
 5569TIP3    H216653   3.678   0.684   4.420
 5570TIP3   OH216654   5.898   0.431   0.767
 5570TIP3    H116655   5.919   0.521   0.743
 5570TIP3    H216656   5.844   0.440   0.846
 5571TIP3   OH216657   3.188   6.920   4.080
 5571TIP3    H116658   3.138   6.906   3.999
 5571TIP3    H216659   3.122   6.918   4.150
 5572TIP3   OH216660   4.009   0.394   2.693
 5572TIP3    H116661   3.930   0.371   2.742
 5572TIP3    H216662   4.078   0.341   2.733
 5573TIP3   OH216663   8.067   1.751   1.297
 5573TIP3    H116664   7.981   1.744   1.257
 5573TIP3    H216665   8.050   1.750   1.391
 5574TIP3   OH216666   0.175   7.068   2.440
 5574TIP3    H116667   0.220   7.065   2.356
 5574TIP3    H216668   0.152   7.160   2.452
 5575TIP3   OH216669   4.027   1.410   4.841
 5575TIP3    H116670   4.003   1.447   4.757
 5575TIP3    H216671   4.058   1.322   4.821
 5576TIP3   OH216672   1.096   2.563   2.219
 5576TIP3    H116673   1.122   2.610   2.298
 5576TIP3    H216674   1.156   2.594   2.152
 5577TIP3   OH216675   2.347   0.727   4.453
 5577TIP3    H116676   2.255   0.753   4.447
 5577TIP3    H216677   2.361   0.709   4.546
 5578TIP3   OH216678   2.674   2.538   1.441
 5578TIP3    H116679   2.719   2.577   1.516
 5578TIP3    H216680   2.669   2.445   1.463
 5579TIP3   OH216681   7.693   4.998   0.124
 5579TIP3    H116682   7.755   4.955   0.182
 5579TIP3    H216683   7.700   4.949   0.042
 5580TIP3   OH216684   3.076   2.187   6.460
 5580TIP3    H116685   3.053   2.117   6.521
 5580TIP3    H216686   3.172   2.183   6.453
 5581TIP3   OH216687   4.482   5.783   5.157
 5581TIP3    H116688   4.565   5.790   5.203
 5581TIP3    H216689   4.468   5.689   5.147
 5582TIP3   OH216690   6.709   6.206   6.347
 5582TIP3    H116691   6.752   6.121   6.357
 5582TIP3    H216692   6.761   6.265   6.401
 5583TIP3   OH216693   3.890   2.444   1.004
 5583TIP3    H116694   3.854   2.501   0.935
 5583TIP3    H216695   3.875   2.355   0.971
 5584TIP3   OH216696   3.695   5.613   5.616
 5584TIP3    H116697   3.684   5.663   5.697
 5584TIP3    H216698   3.774   5.560   5.631
 5585TIP3   OH216699   4.808   3.558   4.767
 5585TIP3    H116700   4.767   3.608   4.838
 5585TIP3    H216701   4.768   3.471   4.774
 5586TIP3   OH216702   4.148   4.901   3.325
 5586TIP3    H116703   4.172   4.810   3.306
 5586TIP3    H216704   4.054   4.904   3.308
 5587TIP3   OH216705   1.587   7.276   6.027
 5587TIP3    H116706   1.675   7.278   6.065
 5587TIP3    H216707   1.573   7.184   6.004
 5588TIP3   OH216708   5.350   1.042   6.331
 5588TIP3    H116709   5.370   1.075   6.419
 5588TIP3    H216710   5.264   1.080   6.311
 5589TIP3   OH216711   7.107   2.750   2.469
 5589TIP3    H116712   7.044   2.815   2.437
 5589TIP3    H216713   7.097   2.676   2.409
 5590TIP3   OH216714   0.132   6.998   3.796
 5590TIP3    H116715   0.077   6.920   3.805
 5590TIP3    H216716   0.085   7.054   3.735
 5591TIP3   OH216717   6.742   5.313   6.204
 5591TIP3    H116718   6.739   5.407   6.221
 5591TIP3    H216719   6.836   5.294   6.196
 5592TIP3   OH216720   2.525   1.076   0.154
 5592TIP3    H116721   2.594   1.059   0.218
 5592TIP3    H216722   2.476   1.149   0.190
 5593TIP3   OH216723   7.506   6.937   4.518
 5593TIP3    H116724   7.551   6.867   4.565
 5593TIP3    H216725   7.416   6.906   4.509
 5594TIP3   OH216726   6.623   2.414   1.322
 5594TIP3    H116727   6.700   2.471   1.330
 5594TIP3    H216728   6.658   2.326   1.330
 5595TIP3   OH216729   5.559   1.587   4.787
 5595TIP3    H116730   5.470   1.610   4.812
 5595TIP3    H216731   5.607   1.581   4.870
 5596TIP3   OH216732   0.871   6.752   3.154
 5596TIP3    H116733   0.839   6.754   3.244
 5596TIP3    H216734   0.797   6.784   3.102
 5597TIP3   OH216735   6.136   5.889   5.685
 5597TIP3    H116736   6.120   5.828   5.613
 5597TIP3    H216737   6.144   5.834   5.763
 5598TIP3   OH216738   4.061   1.567   4.525
 5598TIP3    H116739   4.127   1.498   4.533
 5598TIP3    H216740   4.010   1.542   4.447
 5599TIP3   OH216741   6.593   3.948   5.385
 5599TIP3    H116742   6.541   3.965   5.307
 5599TIP3    H216743   6.684   3.951   5.355
 5600TIP3   OH216744   2.181   0.268   5.629
 5600TIP3    H116745   2.271   0.300   5.628
 5600TIP3    H216746   2.189   0.175   5.605
 5601TIP3   OH216747   1.425   3.184   6.129
 5601TIP3    H116748   1.480   3.242   6.183
 5601TIP3    H216749   1.482   3.110   6.108
 5602TIP3   OH216750   1.717   6.811   4.053
 5602TIP3    H116751   1.807   6.786   4.033
 5602TIP3    H216752   1.689   6.748   4.120
 5603TIP3   OH216753   6.972   3.952   0.502
 5603TIP3    H116754   6.987   3.929   0.411
 5603TIP3    H216755   7.060   3.966   0.538
 5604TIP3   OH216756   7.348   5.497   4.401
 5604TIP3    H116757   7.287   5.438   4.358
 5604TIP3    H216758   7.343   5.578   4.349
 5605TIP3   OH216759   6.851   6.192   0.286
 5605TIP3    H116760   6.814   6.256   0.225
 5605TIP3    H216761   6.775   6.152   0.328
 5606TIP3   OH216762   5.640   2.085   4.634
 5606TIP3    H116763   5.649   2.004   4.684
 5606TIP3    H216764   5.719   2.135   4.656
 5607TIP3   OH216765   0.359   2.926   5.165
 5607TIP3    H116766   0.314   2.869   5.103
 5607TIP3    H216767   0.373   2.871   5.243
 5608TIP3   OH216768   2.496   0.489   3.146
 5608TIP3    H116769   2.413   0.534   3.154
 5608TIP3    H216770   2.474   0.406   3.103
 5609TIP3   OH216771   0.808   2.593   2.783
 5609TIP3    H116772   0.899   2.567   2.800
 5609TIP3    H216773   0.815   2.662   2.717
 5610TIP3   OH216774   4.311   6.575   0.320
 5610TIP3    H116775   4.236   6.585   0.262
 5610TIP3    H216776   4.273   6.577   0.408
 5611TIP3   OH216777   0.172   4.750   3.395
 5611TIP3    H116778   0.119   4.728   3.318
 5611TIP3    H216779   0.133   4.699   3.466
 5612TIP3   OH216780   5.698   0.128   4.476
 5612TIP3    H116781   5.756   0.199   4.503
 5612TIP3    H216782   5.754   0.050   4.476
 5613TIP3   OH216783   1.641   3.836   6.140
 5613TIP3    H116784   1.705   3.795   6.082
 5613TIP3    H216785   1.620   3.919   6.096
 5614TIP3   OH216786   4.365   5.582   6.589
 5614TIP3    H116787   4.364   5.515   6.521
 5614TIP3    H216788   4.321   5.540   6.663
 5615TIP3   OH216789   5.675   1.809   1.546
 5615TIP3    H116790   5.620   1.777   1.618
 5615TIP3    H216791   5.753   1.753   1.549
 5616TIP3   OH216792   6.384   0.931   3.527
 5616TIP3    H116793   6.294   0.918   3.496
 5616TIP3    H216794   6.376   0.932   3.623
 5617TIP3   OH216795   6.808   5.818   0.419
 5617TIP3    H116796   6.755   5.859   0.351
 5617TIP3    H216797   6.786   5.866   0.499
 5618TIP3   OH216798   0.449   5.761   6.695
 5618TIP3    H116799   0.391   5.805   6.632
 5618TIP3    H216800   0.521   5.729   6.642
 5619TIP3   OH216801   6.762   0.528   0.822
 5619TIP3    H116802   6.852   0.500   0.837
 5619TIP3    H216803   6.768   0.621   0.804
 5620TIP3   OH216804   6.737   6.510   5.345
 5620TIP3    H116805   6.641   6.517   5.344
 5620TIP3    H216806   6.759   6.477   5.258
 5621TIP3   OH216807   2.079   2.684   1.454
 5621TIP3    H116808   2.117   2.771   1.436
 5621TIP3    H216809   2.086   2.637   1.371
 5622TIP3   OH216810   4.248   3.094   2.805
 5622TIP3    H116811   4.310   3.126   2.870
 5622TIP3    H216812   4.166   3.138   2.826
 5623TIP3   OH216813   5.063   7.447   0.798
 5623TIP3    H116814   5.158   7.451   0.786
 5623TIP3    H216815   5.028   7.508   0.734
 5624TIP3   OH216816   3.436   1.769   5.137
 5624TIP3    H116817   3.346   1.798   5.149
 5624TIP3    H216818   3.429   1.687   5.088
 5625TIP3   OH216819   3.454   6.567   1.146
 5625TIP3    H116820   3.411   6.595   1.227
 5625TIP3    H216821   3.390   6.509   1.104
 5626TIP3   OH216822   2.251   4.188   3.868
 5626TIP3    H116823   2.240   4.229   3.953
 5626TIP3    H216824   2.206   4.104   3.875
 5627TIP3   OH216825   5.548   4.535   3.188
 5627TIP3    H116826   5.464   4.548   3.232
 5627TIP3    H216827   5.610   4.587   3.238
 5628TIP3   OH216828   5.144   5.004   1.930
 5628TIP3    H116829   5.051   5.021   1.912
 5628TIP3    H216830   5.191   5.046   1.858
 5629TIP3   OH216831   7.771   2.240   0.794
 5629TIP3    H116832   7.828   2.266   0.866
 5629TIP3    H216833   7.684   2.270   0.820
 5630TIP3   OH216834   7.893   6.845   4.488
 5630TIP3    H116835   7.934   6.815   4.406
 5630TIP3    H216836   7.965   6.885   4.537
 5631TIP3   OH216837   0.866   3.503   6.210
 5631TIP3    H116838   0.927   3.466   6.274
 5631TIP3    H216839   0.922   3.549   6.147
 5632TIP3   OH216840   5.605   3.239   3.233
 5632TIP3    H116841   5.531   3.260   3.289
 5632TIP3    H216842   5.652   3.322   3.224
 5633TIP3   OH216843   2.422   6.594   5.540
 5633TIP3    H116844   2.336   6.553   5.539
 5633TIP3    H216845   2.440   6.611   5.632
 5634TIP3   OH216846   5.099   5.153   5.070
 5634TIP3    H116847   5.078   5.179   4.981
 5634TIP3    H216848   5.016   5.119   5.105
 5635TIP3   OH216849   3.200   3.043   6.031
 5635TIP3    H116850   3.287   3.047   5.993
 5635TIP3    H216851   3.203   2.967   6.090
 5636TIP3   OH216852   0.040   5.769   3.787
 5636TIP3    H116853   0.064   5.729   3.871
 5636TIP3    H216854  -0.046   5.808   3.803
 5637TIP3   OH216855   1.637   3.968   3.756
 5637TIP3    H116856   1.563   3.980   3.697
 5637TIP3    H216857   1.666   4.056   3.778
 5638TIP3   OH216858   2.628   7.364   6.430
 5638TIP3    H116859   2.641   7.439   6.372
 5638TIP3    H216860   2.701   7.368   6.492
 5639TIP3   OH216861   1.737   4.452   6.569
 5639TIP3    H116862   1.717   4.488   6.482
 5639TIP3    H216863   1.784   4.523   6.613
 5640TIP3   OH216864   0.128  -0.005   4.182
 5640TIP3    H116865   0.113   0.089   4.198
 5640TIP3    H216866   0.222  -0.011   4.161
 5641TIP3   OH216867   1.715   7.786   4.232
 5641TIP3    H116868   1.622   7.773   4.211
 5641TIP3    H216869   1.715   7.831   4.316
 5642TIP3   OH216870   0.324   0.103   5.807
 5642TIP3    H116871   0.312   0.067   5.894
 5642TIP3    H216872   0.410   0.145   5.810
 5643TIP3   OH216873   4.542   5.767   1.648
 5643TIP3    H116874   4.509   5.691   1.601
 5643TIP3    H216875   4.637   5.762   1.638
 5644TIP3   OH216876   6.993   0.698   2.311
 5644TIP3    H116877   7.020   0.680   2.221
 5644TIP3    H216878   6.920   0.638   2.327
 5645TIP3   OH216879   5.833   5.556   4.391
 5645TIP3    H116880   5.869   5.603   4.466
 5645TIP3    H216881   5.844   5.616   4.317
 5646TIP3   OH216882   6.532   1.533   2.264
 5646TIP3    H116883   6.442   1.567   2.260
 5646TIP3    H216884   6.527   1.449   2.218
 5647TIP3   OH216885   7.327   1.218   3.980
 5647TIP3    H116886   7.402   1.188   3.927
 5647TIP3    H216887   7.363   1.234   4.067
 5648TIP3   OH216888   1.633   1.088   3.878
 5648TIP3    H116889   1.651   1.094   3.784
 5648TIP3    H216890   1.552   1.138   3.890
 5649TIP3   OH216891   0.847   1.710   1.721
 5649TIP3    H116892   0.793   1.762   1.660
 5649TIP3    H216893   0.803   1.625   1.724
 5650TIP3   OH216894   8.063   2.338   3.496
 5650TIP3    H116895   8.103   2.300   3.574
 5650TIP3    H216896   8.135   2.381   3.451
 5651TIP3   OH216897   4.908   1.399   4.667
 5651TIP3    H116898   4.989   1.394   4.718
 5651TIP3    H216899   4.860   1.473   4.704
 5652TIP3   OH216900   4.800   2.226   1.285
 5652TIP3    H116901   4.841   2.278   1.355
 5652TIP3    H216902   4.709   2.255   1.285
 5653TIP3   OH216903   1.442   6.319   1.689
 5653TIP3    H116904   1.460   6.253   1.756
 5653TIP3    H216905   1.512   6.383   1.700
 5654TIP3   OH216906   4.103   5.291   2.672
 5654TIP3    H116907   4.059   5.293   2.757
 5654TIP3    H216908   4.195   5.305   2.692
 5655TIP3   OH216909   6.616   4.042   5.070
 5655TIP3    H116910   6.694   3.987   5.058
 5655TIP3    H216911   6.573   4.040   4.984
 5656TIP3   OH216912   7.111   6.747   1.830
 5656TIP3    H116913   7.050   6.701   1.772
 5656TIP3    H216914   7.113   6.695   1.910
 5657TIP3   OH216915   4.827   3.076   3.213
 5657TIP3    H116916   4.825   3.006   3.278
 5657TIP3    H216917   4.828   3.157   3.264
 5658TIP3   OH216918   0.060   4.220   2.249
 5658TIP3    H116919  -0.016   4.277   2.261
 5658TIP3    H216920   0.136   4.277   2.263
 5659TIP3   OH216921   6.617   1.767   2.786
 5659TIP3    H116922   6.573   1.817   2.855
 5659TIP3    H216923   6.623   1.828   2.713
 5660TIP3   OH216924   0.077   6.933   5.680
 5660TIP3    H116925   0.057   6.966   5.592
 5660TIP3    H216926  -0.002   6.888   5.707
 5661TIP3   OH216927   7.905   0.176   6.592
 5661TIP3    H116928   7.991   0.215   6.576
 5661TIP3    H216929   7.900   0.168   6.687
 5662TIP3   OH216930   8.099   0.934   0.647
 5662TIP3    H116931   8.180   0.963   0.689
 5662TIP3    H216932   8.082   1.001   0.579
 5663TIP3   OH216933   3.820   7.222   2.390
 5663TIP3    H116934   3.758   7.161   2.350
 5663TIP3    H216935   3.790   7.309   2.363
 5664TIP3   OH216936   6.965   6.118   3.591
 5664TIP3    H116937   6.964   6.189   3.526
 5664TIP3    H216938   7.030   6.056   3.559
 5665TIP3   OH216939   3.744   7.664   1.299
 5665TIP3    H116940   3.805   7.594   1.321
 5665TIP3    H216941   3.794   7.745   1.313
 5666TIP3   OH216942   6.143   5.965   3.008
 5666TIP3    H116943   6.224   5.982   3.055
 5666TIP3    H216944   6.164   5.892   2.950
 5667TIP3   OH216945   0.800   3.482   1.566
 5667TIP3    H116946   0.823   3.567   1.604
 5667TIP3    H216947   0.762   3.503   1.481
 5668TIP3   OH216948   1.819   2.078   1.025
 5668TIP3    H116949   1.802   2.073   1.119
 5668TIP3    H216950   1.841   1.988   1.000
 5669TIP3   OH216951   7.056   2.845   0.977
 5669TIP3    H116952   7.105   2.797   1.045
 5669TIP3    H216953   6.970   2.859   1.016
 5670TIP3   OH216954   4.902   2.418   0.154
 5670TIP3    H116955   4.929   2.412   0.245
 5670TIP3    H216956   4.811   2.447   0.158
 5671TIP3   OH216957   0.218   6.036   5.141
 5671TIP3    H116958   0.184   6.092   5.072
 5671TIP3    H216959   0.188   6.078   5.222
 5672TIP3   OH216960   2.234   2.854   0.113
 5672TIP3    H116961   2.148   2.891   0.128
 5672TIP3    H216962   2.241   2.848   0.017
 5673TIP3   OH216963   0.668   5.365   4.756
 5673TIP3    H116964   0.587   5.413   4.774
 5673TIP3    H216965   0.676   5.303   4.829
 5674TIP3   OH216966   5.659   1.828   2.846
 5674TIP3    H116967   5.649   1.868   2.759
 5674TIP3    H216968   5.596   1.876   2.901
 5675TIP3   OH216969   4.933   2.583   3.874
 5675TIP3    H116970   4.985   2.621   3.803
 5675TIP3    H216971   4.942   2.646   3.946
 5676TIP3   OH216972   0.703   7.241   2.633
 5676TIP3    H116973   0.620   7.285   2.615
 5676TIP3    H216974   0.683   7.148   2.619
 5677TIP3   OH216975   0.401   2.447   1.096
 5677TIP3    H116976   0.478   2.489   1.133
 5677TIP3    H216977   0.426   2.426   1.006
 5678TIP3   OH216978   4.356   3.714   1.673
 5678TIP3    H116979   4.296   3.764   1.728
 5678TIP3    H216980   4.419   3.778   1.642
 5679TIP3   OH216981   6.743   2.517   1.905
 5679TIP3    H116982   6.748   2.428   1.870
 5679TIP3    H216983   6.650   2.530   1.925
 5680TIP3   OH216984   7.300   3.953   2.881
 5680TIP3    H116985   7.349   3.902   2.946
 5680TIP3    H216986   7.367   3.986   2.821
 5681TIP3   OH216987   4.311   6.250   1.674
 5681TIP3    H116988   4.318   6.308   1.750
 5681TIP3    H216989   4.232   6.197   1.692
 5682TIP3   OH216990   6.902   5.829   0.924
 5682TIP3    H116991   6.968   5.788   0.868
 5682TIP3    H216992   6.952   5.869   0.995
 5683TIP3   OH216993   2.686   2.302   3.065
 5683TIP3    H116994   2.713   2.267   2.980
 5683TIP3    H216995   2.621   2.369   3.044
 5684TIP3   OH216996   7.585   3.020   2.921
 5684TIP3    H116997   7.656   3.058   2.973
 5684TIP3    H216998   7.583   3.073   2.841
 5685TIP3   OH216999   6.759   5.862   2.426
 5685TIP3    H117000   6.733   5.823   2.342
 5685TIP3    H217001   6.778   5.954   2.404
 5686TIP3   OH217002   3.927   3.774   1.981
 5686TIP3    H117003   4.011   3.729   1.977
 5686TIP3    H217004   3.935   3.833   2.056
 5687TIP3   OH217005   1.000   3.934   5.374
 5687TIP3    H117006   0.993   3.848   5.332
 5687TIP3    H217007   1.010   3.995   5.301
 5688TIP3   OH217008   0.215   7.127   0.569
 5688TIP3    H117009   0.270   7.079   0.630
 5688TIP3    H217010   0.168   7.190   0.623
 5689TIP3   OH217011   1.239   4.346   2.708
 5689TIP3    H117012   1.212   4.272   2.762
 5689TIP3    H217013   1.335   4.343   2.709
 5690TIP3   OH217014   5.742   1.524   5.362
 5690TIP3    H117015   5.786   1.473   5.293
 5690TIP3    H217016   5.799   1.599   5.377
 5691TIP3   OH217017   0.863   5.167   0.056
 5691TIP3    H117018   0.824   5.109   0.122
 5691TIP3    H217019   0.858   5.254   0.094
 5692TIP3   OH217020   1.069   7.329   2.996
 5692TIP3    H117021   1.087   7.240   2.963
 5692TIP3    H217022   0.976   7.343   2.975
 5693TIP3   OH217023   6.274   5.375   1.857
 5693TIP3    H117024   6.358   5.400   1.896
 5693TIP3    H217025   6.210   5.430   1.901
 5694TIP3   OH217026   4.318   7.498   1.855
 5694TIP3    H117027   4.350   7.489   1.945
 5694TIP3    H217028   4.397   7.502   1.802
 5695TIP3   OH217029   6.855   7.464   5.052
 5695TIP3    H117030   6.945   7.467   5.084
 5695TIP3    H217031   6.809   7.531   5.104
 5696TIP3   OH217032   6.569   5.507   2.392
 5696TIP3    H117033   6.568   5.426   2.443
 5696TIP3    H217034   6.493   5.556   2.422
 5697TIP3   OH217035   5.454   5.462   6.240
 5697TIP3    H117036   5.407   5.513   6.305
 5697TIP3    H217037   5.534   5.512   6.222
 5698TIP3   OH217038   7.461   7.318   3.120
 5698TIP3    H117039   7.406   7.394   3.138
 5698TIP3    H217040   7.430   7.285   3.035
 5699TIP3   OH217041   7.205   4.261   5.008
 5699TIP3    H117042   7.156   4.243   5.088
 5699TIP3    H217043   7.293   4.227   5.026
 5700TIP3   OH217044   1.755   7.782   5.705
 5700TIP3    H117045   1.751   7.732   5.786
 5700TIP3    H217046   1.845   7.814   5.701
 5701TIP3   OH217047   2.356   3.177   5.432
 5701TIP3    H117048   2.391   3.245   5.489
 5701TIP3    H217049   2.431   3.150   5.379
 5702TIP3   OH217050   5.260   4.305   2.539
 5702TIP3    H117051   5.255   4.363   2.463
 5702TIP3    H217052   5.179   4.254   2.535
 5703TIP3   OH217053   7.333   6.202   1.561
 5703TIP3    H117054   7.409   6.240   1.605
 5703TIP3    H217055   7.262   6.263   1.579
 5704TIP3   OH217056   1.448   5.911   1.942
 5704TIP3    H117057   1.476   5.878   2.028
 5704TIP3    H217058   1.419   5.833   1.895
 5705TIP3   OH217059   2.212   7.728   2.595
 5705TIP3    H117060   2.205   7.640   2.633
 5705TIP3    H217061   2.191   7.787   2.668
 5706TIP3   OH217062   6.769   3.655   3.349
 5706TIP3    H117063   6.735   3.570   3.323
 5706TIP3    H217064   6.799   3.642   3.439
 5707TIP3   OH217065   7.542   5.466   6.472
 5707TIP3    H117066   7.588   5.505   6.398
 5707TIP3    H217067   7.588   5.383   6.487
 5708TIP3   OH217068   2.084   6.443   4.015
 5708TIP3    H117069   2.087   6.536   4.040
 5708TIP3    H217070   2.005   6.436   3.962
 5709TIP3   OH217071   5.892   4.505   2.077
 5709TIP3    H117072   5.880   4.436   2.141
 5709TIP3    H217073   5.842   4.579   2.112
 5710TIP3   OH217074   0.583   2.864   2.931
 5710TIP3    H117075   0.591   2.777   2.971
 5710TIP3    H217076   0.673   2.886   2.905
 5711TIP3   OH217077   5.203   3.789   5.430
 5711TIP3    H117078   5.268   3.819   5.367
 5711TIP3    H217079   5.119   3.802   5.387
 5712TIP3   OH217080   1.737   4.436   0.124
 5712TIP3    H117081   1.730   4.363   0.062
 5712TIP3    H217082   1.813   4.415   0.178
 5713TIP3   OH217083   4.326   6.491   6.170
 5713TIP3    H117084   4.335   6.429   6.098
 5713TIP3    H217085   4.336   6.437   6.249
 5714TIP3   OH217086   4.512   6.036   6.246
 5714TIP3    H117087   4.596   6.019   6.204
 5714TIP3    H217088   4.468   5.951   6.247
 5715TIP3   OH217089   6.259   2.889   0.825
 5715TIP3    H117090   6.291   2.891   0.735
 5715TIP3    H217091   6.188   2.953   0.827
 5716TIP3   OH217092   8.178   0.299   2.437
 5716TIP3    H117093   8.179   0.328   2.346
 5716TIP3    H217094   8.190   0.379   2.488
 5717TIP3   OH217095   7.421   5.062   4.524
 5717TIP3    H117096   7.412   5.148   4.565
 5717TIP3    H217097   7.488   5.017   4.576
 5718TIP3   OH217098   4.092   5.568   5.491
 5718TIP3    H117099   4.044   5.651   5.490
 5718TIP3    H217100   4.179   5.590   5.525
 5719TIP3   OH217101   1.871   1.638   3.099
 5719TIP3    H117102   1.824   1.701   3.153
 5719TIP3    H217103   1.900   1.688   3.023
 5720TIP3   OH217104   0.589   0.155   0.928
 5720TIP3    H117105   0.578   0.248   0.950
 5720TIP3    H217106   0.653   0.123   0.992
 5721TIP3   OH217107   5.915   7.634   4.743
 5721TIP3    H117108   5.936   7.541   4.756
 5721TIP3    H217109   5.997   7.679   4.762
 5722TIP3   OH217110   6.341   2.348   6.302
 5722TIP3    H117111   6.383   2.307   6.378
 5722TIP3    H217112   6.402   2.332   6.230
 5723TIP3   OH217113   5.334   1.937   3.824
 5723TIP3    H117114   5.364   1.881   3.894
 5723TIP3    H217115   5.238   1.937   3.831
 5724TIP3   OH217116   6.877   4.456   0.351
 5724TIP3    H117117   6.965   4.461   0.388
 5724TIP3    H217118   6.856   4.362   0.353
 5725TIP3   OH217119   2.196   6.947   2.587
 5725TIP3    H117120   2.163   7.033   2.563
 5725TIP3    H217121   2.283   6.943   2.547
 5726TIP3   OH217122   8.007   0.420   4.628
 5726TIP3    H117123   7.939   0.410   4.561
 5726TIP3    H217124   8.083   0.451   4.579
 5727TIP3   OH217125   3.799   6.829   4.506
 5727TIP3    H117126   3.809   6.811   4.412
 5727TIP3    H217127   3.705   6.828   4.521
 5728TIP3   OH217128   4.916   1.069   1.916
 5728TIP3    H117129   4.933   1.110   2.001
 5728TIP3    H217130   4.867   0.990   1.936
 5729TIP3   OH217131   4.255   2.626   1.902
 5729TIP3    H117132   4.199   2.553   1.877
 5729TIP3    H217133   4.323   2.628   1.834
 5730TIP3   OH217134   1.124   4.186   4.352
 5730TIP3    H117135   1.144   4.277   4.372
 5730TIP3    H217136   1.168   4.169   4.268
 5731TIP3   OH217137   1.598   4.273   3.085
 5731TIP3    H117138   1.691   4.288   3.105
 5731TIP3    H217139   1.558   4.359   3.093
 5732TIP3   OH217140   7.880   7.059   1.416
 5732TIP3    H117141   7.843   7.111   1.345
 5732TIP3    H217142   7.805   7.016   1.457
 5733TIP3   OH217143   0.397   3.394   0.032
 5733TIP3    H117144   0.451   3.452  -0.020
 5733TIP3    H217145   0.371   3.324  -0.028
 5734TIP3   OH217146   6.130   3.087   4.328
 5734TIP3    H117147   6.159   3.154   4.390
 5734TIP3    H217148   6.168   3.006   4.360
 5735TIP3   OH217149   4.618   7.673   5.133
 5735TIP3    H117150   4.524   7.660   5.141
 5735TIP3    H217151   4.651   7.668   5.223
 5736TIP3   OH217152   3.238   2.846   2.907
 5736TIP3    H117153   3.283   2.912   2.855
 5736TIP3    H217154   3.287   2.842   2.989
 5737TIP3   OH217155   0.878   1.752   2.950
 5737TIP3    H117156   0.837   1.787   2.871
 5737TIP3    H217157   0.972   1.765   2.936
 5738TIP3   OH217158   6.815   3.584   4.974
 5738TIP3    H117159   6.723   3.600   4.996
 5738TIP3    H217160   6.811   3.528   4.896
 5739TIP3   OH217161   5.505   6.929   1.279
 5739TIP3    H117162   5.541   6.973   1.356
 5739TIP3    H217163   5.486   6.840   1.309
 5740TIP3   OH217164   0.605   3.344   1.688
 5740TIP3    H117165   0.597   3.266   1.632
 5740TIP3    H217166   0.681   3.390   1.652
 5741TIP3   OH217167   0.291   1.000   1.830
 5741TIP3    H117168   0.199   1.020   1.850
 5741TIP3    H217169   0.322   0.951   1.906
 5742TIP3   OH217170   6.196   2.857   4.443
 5742TIP3    H117171   6.275   2.834   4.492
 5742TIP3    H217172   6.147   2.775   4.436
 5743TIP3   OH217173   6.391   2.896   6.736
 5743TIP3    H117174   6.395   2.940   6.651
 5743TIP3    H217175   6.313   2.933   6.778
 5744TIP3   OH217176   0.327   0.890   6.341
 5744TIP3    H117177   0.312   0.887   6.246
 5744TIP3    H217178   0.267   0.823   6.376
 5745TIP3   OH217179   6.961   1.168   0.845
 5745TIP3    H117180   7.007   1.105   0.899
 5745TIP3    H217181   6.886   1.195   0.897
 5746TIP3   OH217182   4.644   7.006   3.682
 5746TIP3    H117183   4.701   7.035   3.753
 5746TIP3    H217184   4.566   7.060   3.690
 5747TIP3   OH217185   8.103   6.986   2.070
 5747TIP3    H117186   8.013   6.983   2.104
 5747TIP3    H217187   8.133   6.896   2.074
 5748TIP3   OH217188   2.972   2.315   5.067
 5748TIP3    H117189   3.000   2.363   4.990
 5748TIP3    H217190   2.956   2.383   5.133
 5749TIP3   OH217191   5.767   2.484   1.212
 5749TIP3    H117192   5.706   2.556   1.199
 5749TIP3    H217193   5.817   2.509   1.290
 5750TIP3   OH217194   7.465   2.086   0.917
 5750TIP3    H117195   7.449   1.999   0.953
 5750TIP3    H217196   7.518   2.130   0.984
 5751TIP3   OH217197   3.467   3.928   1.395
 5751TIP3    H117198   3.536   3.986   1.363
 5751TIP3    H217199   3.431   3.972   1.471
 5752TIP3   OH217200   6.155   4.316   5.832
 5752TIP3    H117201   6.198   4.293   5.749
 5752TIP3    H217202   6.209   4.386   5.869
 5753TIP3   OH217203   6.185   2.144   6.235
 5753TIP3    H117204   6.108   2.121   6.287
 5753TIP3    H217205   6.216   2.227   6.273
 5754TIP3   OH217206   0.142   3.832   1.536
 5754TIP3    H117207   0.157   3.907   1.594
 5754TIP3    H217208   0.074   3.781   1.580
 5755TIP3   OH217209   4.917   0.460   1.710
 5755TIP3    H117210   4.988   0.429   1.655
 5755TIP3    H217211   4.860   0.384   1.720
 5756TIP3   OH217212   5.742   1.646   6.265
 5756TIP3    H117213   5.726   1.605   6.180
 5756TIP3    H217214   5.835   1.631   6.282
 5757TIP3   OH217215   4.578   2.427   6.690
 5757TIP3    H117216   4.553   2.501   6.635
 5757TIP3    H217217   4.611   2.466   6.771
 5758TIP3   OH217218   5.369   4.985   2.403
 5758TIP3    H117219   5.309   4.947   2.468
 5758TIP3    H217220   5.339   4.950   2.319
 5759TIP3   OH217221   3.180   5.310   0.096
 5759TIP3    H117222   3.193   5.279   0.186
 5759TIP3    H217223   3.226   5.247   0.041
 5760TIP3   OH217224   4.560   6.119   5.409
 5760TIP3    H117225   4.600   6.178   5.474
 5760TIP3    H217226   4.470   6.107   5.441
 5761TIP3   OH217227   7.006   4.671   5.813
 5761TIP3    H117228   7.095   4.671   5.849
 5761TIP3    H217229   7.016   4.635   5.724
 5762TIP3   OH217230   3.782   7.169   4.957
 5762TIP3    H117231   3.862   7.183   5.009
 5762TIP3    H217232   3.787   7.234   4.888
 5763TIP3   OH217233   2.686   4.838   5.869
 5763TIP3    H117234   2.753   4.770   5.877
 5763TIP3    H217235   2.728   4.917   5.904
 5764TIP3   OH217236   1.853   1.235   4.020
 5764TIP3    H117237   1.812   1.273   4.098
 5764TIP3    H217238   1.791   1.169   3.990
 5765TIP3   OH217239   7.852   4.583   0.516
 5765TIP3    H117240   7.825   4.499   0.478
 5765TIP3    H217241   7.925   4.612   0.461
 5766TIP3   OH217242   6.557   3.672   5.016
 5766TIP3    H117243   6.565   3.737   5.087
 5766TIP3    H217244   6.488   3.613   5.046
 5767TIP3   OH217245   0.263   0.853   2.351
 5767TIP3    H117246   0.223   0.793   2.288
 5767TIP3    H217247   0.313   0.915   2.298
 5768TIP3   OH217248   3.763   7.547   0.145
 5768TIP3    H117249   3.830   7.561   0.077
 5768TIP3    H217250   3.743   7.635   0.177
 5769TIP3   OH217251   2.996   7.352   0.341
 5769TIP3    H117252   2.908   7.324   0.316
 5769TIP3    H217253   3.055   7.298   0.288
 5770TIP3   OH217254   6.208   6.354   6.587
 5770TIP3    H117255   6.301   6.369   6.573
 5770TIP3    H217256   6.204   6.276   6.643
 5771TIP3   OH217257   1.968   4.208   1.170
 5771TIP3    H117258   2.053   4.163   1.167
 5771TIP3    H217259   1.990   4.300   1.184
 5772TIP3   OH217260   3.504   3.092   5.418
 5772TIP3    H117261   3.462   3.057   5.496
 5772TIP3    H217262   3.432   3.114   5.359
 5773TIP3   OH217263   7.550   7.075   3.313
 5773TIP3    H117264   7.468   7.025   3.309
 5773TIP3    H217265   7.534   7.151   3.258
 5774TIP3   OH217266   6.969   3.278   5.969
 5774TIP3    H117267   6.955   3.309   6.058
 5774TIP3    H217268   6.889   3.300   5.922
 5775TIP3   OH217269   3.199   0.414   6.331
 5775TIP3    H117270   3.291   0.405   6.304
 5775TIP3    H217271   3.190   0.507   6.353
 5776TIP3   OH217272   1.029   6.746   4.301
 5776TIP3    H117273   0.999   6.754   4.392
 5776TIP3    H217274   1.042   6.837   4.272
 5777TIP3   OH217275   3.758   0.811   0.630
 5777TIP3    H117276   3.691   0.788   0.694
 5777TIP3    H217277   3.770   0.731   0.578
 5778TIP3   OH217278   5.378   3.684   4.201
 5778TIP3    H117279   5.284   3.690   4.188
 5778TIP3    H217280   5.399   3.756   4.260
 5779TIP3   OH217281   1.439   6.131   6.530
 5779TIP3    H117282   1.508   6.126   6.596
 5779TIP3    H217283   1.457   6.057   6.471
 5780TIP3   OH217284   6.344   6.990   3.008
 5780TIP3    H117285   6.354   7.085   3.019
 5780TIP3    H217286   6.357   6.954   3.095
 5781TIP3   OH217287   5.339   1.675   1.902
 5781TIP3    H117288   5.301   1.755   1.940
 5781TIP3    H217289   5.368   1.624   1.978
 5782TIP3   OH217290   7.928   1.605   3.145
 5782TIP3    H117291   7.913   1.600   3.240
 5782TIP3    H217292   7.913   1.697   3.123
 5783TIP3   OH217293   0.899   1.752   3.749
 5783TIP3    H117294   0.829   1.775   3.689
 5783TIP3    H217295   0.969   1.814   3.730
 5784TIP3   OH217296   4.693   5.391   6.534
 5784TIP3    H117297   4.776   5.387   6.487
 5784TIP3    H217298   4.626   5.381   6.466
 5785TIP3   OH217299   3.386   7.768   2.873
 5785TIP3    H117300   3.463   7.734   2.827
 5785TIP3    H217301   3.364   7.700   2.936
 5786TIP3   OH217302   4.084   0.307   6.580
 5786TIP3    H117303   4.112   0.282   6.491
 5786TIP3    H217304   4.026   0.381   6.566
 5787TIP3   OH217305   6.378   6.070   3.943
 5787TIP3    H117306   6.380   6.083   3.848
 5787TIP3    H217307   6.322   5.995   3.956
 5788TIP3   OH217308   5.107   3.392   4.273
 5788TIP3    H117309   5.140   3.303   4.287
 5788TIP3    H217310   5.024   3.394   4.321
 5789TIP3   OH217311   3.744   3.041   1.073
 5789TIP3    H117312   3.665   3.028   1.021
 5789TIP3    H217313   3.713   3.076   1.156
 5790TIP3   OH217314   6.869   5.209   4.143
 5790TIP3    H117315   6.866   5.220   4.238
 5790TIP3    H217316   6.834   5.292   4.108
 5791TIP3   OH217317   2.702   1.183   4.628
 5791TIP3    H117318   2.689   1.228   4.544
 5791TIP3    H217319   2.704   1.253   4.693
 5792TIP3   OH217320   2.019   5.305   3.409
 5792TIP3    H117321   2.054   5.392   3.425
 5792TIP3    H217322   2.039   5.287   3.317
 5793TIP3   OH217323   0.901   0.472   3.259
 5793TIP3    H117324   0.989   0.505   3.241
 5793TIP3    H217325   0.915   0.399   3.320
 5794TIP3   OH217326   6.015   1.505   2.733
 5794TIP3    H117327   6.072   1.458   2.673
 5794TIP3    H217328   5.943   1.536   2.678
 5795TIP3   OH217329   2.999   2.719   0.952
 5795TIP3    H117330   3.025   2.699   1.042
 5795TIP3    H217331   2.973   2.811   0.954
 5796TIP3   OH217332   2.261   0.992   1.526
 5796TIP3    H117333   2.205   0.996   1.604
 5796TIP3    H217334   2.294   1.081   1.515
 5797TIP3   OH217335   1.994   5.801   5.744
 5797TIP3    H117336   2.044   5.868   5.698
 5797TIP3    H217337   1.903   5.829   5.738
 5798TIP3   OH217338   8.269   5.104   2.547
 5798TIP3    H117339   8.180   5.097   2.582
 5798TIP3    H217340   8.265   5.064   2.461
 5799TIP3   OH217341   1.239   3.880   2.314
 5799TIP3    H117342   1.150   3.909   2.296
 5799TIP3    H217343   1.239   3.860   2.408
 5800TIP3   OH217344   5.792   4.310   5.633
 5800TIP3    H117345   5.743   4.231   5.655
 5800TIP3    H217346   5.799   4.358   5.715
 5801TIP3   OH217347   0.422   6.250   3.678
 5801TIP3    H117348   0.326   6.249   3.674
 5801TIP3    H217349   0.448   6.162   3.649
 5802TIP3   OH217350   5.150   6.657   2.707
 5802TIP3    H117351   5.235   6.643   2.664
 5802TIP3    H217352   5.125   6.746   2.683
 5803TIP3   OH217353   7.787   0.799   6.561
 5803TIP3    H117354   7.753   0.882   6.595
 5803TIP3    H217355   7.812   0.819   6.470
 5804TIP3   OH217356   3.234   2.769   5.398
 5804TIP3    H117357   3.143   2.760   5.426
 5804TIP3    H217358   3.235   2.735   5.308
 5805TIP3   OH217359   0.949   1.304   2.490
 5805TIP3    H117360   1.012   1.302   2.418
 5805TIP3    H217361   0.875   1.354   2.455
 5806TIP3   OH217362   2.596   4.757   2.512
 5806TIP3    H117363   2.679   4.777   2.555
 5806TIP3    H217364   2.615   4.763   2.418
 5807TIP3   OH217365   4.170   0.325   1.754
 5807TIP3    H117366   4.164   0.391   1.684
 5807TIP3    H217367   4.199   0.374   1.831
 5808TIP3   OH217368   4.411   0.569   4.378
 5808TIP3    H117369   4.506   0.575   4.366
 5808TIP3    H217370   4.376   0.572   4.289
 5809TIP3   OH217371   7.771   1.542   4.069
 5809TIP3    H117372   7.844   1.534   4.130
 5809TIP3    H217373   7.772   1.635   4.043
 5810TIP3   OH217374   3.116   6.606   3.478
 5810TIP3    H117375   3.049   6.545   3.446
 5810TIP3    H217376   3.181   6.549   3.520
 5811TIP3   OH217377   6.465   0.773   1.856
 5811TIP3    H117378   6.395   0.761   1.920
 5811TIP3    H217379   6.544   0.742   1.901
 5812TIP3   OH217380   7.044   2.134   1.320
 5812TIP3    H117381   7.008   2.109   1.405
 5812TIP3    H217382   7.081   2.221   1.334
 5813TIP3   OH217383   2.594   2.198   5.806
 5813TIP3    H117384   2.622   2.285   5.777
 5813TIP3    H217385   2.674   2.145   5.803
 5814TIP3   OH217386   5.517   3.916   6.213
 5814TIP3    H117387   5.565   3.966   6.147
 5814TIP3    H217388   5.436   3.965   6.226
 5815TIP3   OH217389   5.206   6.711   4.189
 5815TIP3    H117390   5.204   6.725   4.094
 5815TIP3    H217391   5.272   6.642   4.202
 5816TIP3   OH217392   1.342   6.271   5.639
 5816TIP3    H117393   1.402   6.341   5.611
 5816TIP3    H217394   1.379   6.191   5.601
 5817TIP3   OH217395   2.485   4.664   0.587
 5817TIP3    H117396   2.392   4.662   0.562
 5817TIP3    H217397   2.514   4.752   0.561
 5818TIP3   OH217398   4.672   2.648   3.562
 5818TIP3    H117399   4.592   2.658   3.510
 5818TIP3    H217400   4.735   2.708   3.523
 5819TIP3   OH217401   6.292   6.654   0.729
 5819TIP3    H117402   6.326   6.722   0.672
 5819TIP3    H217403   6.345   6.661   0.809
 5820TIP3   OH217404   1.884   6.513   3.232
 5820TIP3    H117405   1.945   6.475   3.169
 5820TIP3    H217406   1.797   6.494   3.197
 5821TIP3   OH217407   3.345   2.330   1.122
 5821TIP3    H117408   3.269   2.288   1.083
 5821TIP3    H217409   3.419   2.276   1.095
 5822TIP3   OH217410   6.531   5.910   6.260
 5822TIP3    H117411   6.624   5.891   6.271
 5822TIP3    H217412   6.524   6.005   6.269
 5823TIP3   OH217413   5.315   5.038   0.362
 5823TIP3    H117414   5.335   4.947   0.340
 5823TIP3    H217415   5.351   5.049   0.451
 5824TIP3   OH217416   3.224   1.406   6.469
 5824TIP3    H117417   3.143   1.455   6.455
 5824TIP3    H217418   3.257   1.389   6.381
 5825TIP3   OH217419   7.429   4.226   6.134
 5825TIP3    H117420   7.348   4.186   6.102
 5825TIP3    H217421   7.404   4.315   6.159
 5826TIP3   OH217422   3.685   4.428   3.334
 5826TIP3    H117423   3.652   4.476   3.258
 5826TIP3    H217424   3.776   4.411   3.314
 5827TIP3   OH217425   8.219   7.576   0.587
 5827TIP3    H117426   8.136   7.624   0.591
 5827TIP3    H217427   8.282   7.640   0.552
 5828TIP3   OH217428   2.069   2.654   2.325
 5828TIP3    H117429   2.060   2.652   2.421
 5828TIP3    H217430   1.994   2.705   2.295
 5829TIP3   OH217431   6.364   5.881   2.178
 5829TIP3    H117432   6.431   5.947   2.192
 5829TIP3    H217433   6.286   5.916   2.220
 5830TIP3   OH217434   2.094   1.288   1.252
 5830TIP3    H117435   2.083   1.247   1.166
 5830TIP3    H217436   2.155   1.360   1.237
 5831TIP3   OH217437   0.305   3.467   1.205
 5831TIP3    H117438   0.284   3.390   1.259
 5831TIP3    H217439   0.237   3.530   1.226
 5832TIP3   OH217440   4.301   7.457   0.281
 5832TIP3    H117441   4.389   7.424   0.297
 5832TIP3    H217442   4.302   7.546   0.317
 5833TIP3   OH217443   2.377   1.127   5.429
 5833TIP3    H117444   2.337   1.054   5.477
 5833TIP3    H217445   2.357   1.109   5.338
 5834TIP3   OH217446   1.343   4.903   3.822
 5834TIP3    H117447   1.385   4.961   3.886
 5834TIP3    H217448   1.253   4.895   3.853
 5835TIP3   OH217449   0.986   1.656   5.455
 5835TIP3    H117450   0.924   1.700   5.514
 5835TIP3    H217451   1.025   1.587   5.508
 5836TIP3   OH217452   6.939   0.403   5.449
 5836TIP3    H117453   7.030   0.402   5.477
 5836TIP3    H217454   6.940   0.364   5.362
 5837TIP3   OH217455   3.632   4.485   5.855
 5837TIP3    H117456   3.697   4.552   5.834
 5837TIP3    H217457   3.569   4.529   5.912
 5838TIP3   OH217458   3.960   2.972   0.766
 5838TIP3    H117459   3.974   2.899   0.705
 5838TIP3    H217460   3.971   2.933   0.853
 5839TIP3   OH217461   0.310   0.620   3.228
 5839TIP3    H117462   0.256   0.676   3.172
 5839TIP3    H217463   0.392   0.611   3.180
 5840TIP3   OH217464   7.186   6.488   5.245
 5840TIP3    H117465   7.141   6.416   5.200
 5840TIP3    H217466   7.135   6.502   5.325
 5841TIP3   OH217467   3.658   2.179   1.339
 5841TIP3    H117468   3.659   2.085   1.359
 5841TIP3    H217469   3.622   2.184   1.250
 5842TIP3   OH217470   6.315   6.207   5.501
 5842TIP3    H117471   6.313   6.111   5.494
 5842TIP3    H217472   6.406   6.230   5.488
 5843TIP3   OH217473   5.015   4.045   4.716
 5843TIP3    H117474   5.062   4.107   4.659
 5843TIP3    H217475   5.073   3.970   4.723
 5844TIP3   OH217476   2.158   5.454   0.603
 5844TIP3    H117477   2.214   5.530   0.617
 5844TIP3    H217478   2.145   5.450   0.508
 5845TIP3   OH217479   2.058   6.636   2.377
 5845TIP3    H117480   2.049   6.641   2.472
 5845TIP3    H217481   2.006   6.560   2.351
 5846TIP3   OH217482   4.378   3.553   4.268
 5846TIP3    H117483   4.321   3.478   4.252
 5846TIP3    H217484   4.402   3.546   4.360
 5847TIP3   OH217485   7.913   5.268   2.319
 5847TIP3    H117486   7.914   5.255   2.225
 5847TIP3    H217487   7.930   5.181   2.356
 5848TIP3   OH217488   4.352   0.767   0.845
 5848TIP3    H117489   4.292   0.842   0.849
 5848TIP3    H217490   4.439   0.806   0.857
 5849TIP3   OH217491   2.896   7.547   5.711
 5849TIP3    H117492   2.955   7.472   5.706
 5849TIP3    H217493   2.954   7.623   5.701
 5850TIP3   OH217494   3.393   5.213   4.771
 5850TIP3    H117495   3.430   5.231   4.858
 5850TIP3    H217496   3.352   5.127   4.780
 5851TIP3   OH217497   6.237   5.881   5.217
 5851TIP3    H117498   6.180   5.896   5.142
 5851TIP3    H217499   6.294   5.809   5.190
 5852TIP3   OH217500   0.437   4.461   5.132
 5852TIP3    H117501   0.366   4.508   5.177
 5852TIP3    H217502   0.517   4.506   5.160
 5853TIP3   OH217503   5.108   4.198   3.214
 5853TIP3    H117504   5.105   4.181   3.120
 5853TIP3    H217505   5.016   4.197   3.241
 5854TIP3   OH217506   2.377   1.443   5.753
 5854TIP3    H117507   2.353   1.496   5.678
 5854TIP3    H217508   2.375   1.503   5.828
 5855TIP3   OH217509   8.222   5.372   0.798
 5855TIP3    H117510   8.168   5.450   0.788
 5855TIP3    H217511   8.296   5.386   0.739
 5856TIP3   OH217512   1.784   5.958   3.688
 5856TIP3    H117513   1.764   5.942   3.596
 5856TIP3    H217514   1.731   6.035   3.711
 5857TIP3   OH217515   2.517   7.613   1.936
 5857TIP3    H117516   2.431   7.611   1.895
 5857TIP3    H217517   2.537   7.521   1.954
 5858TIP3   OH217518   3.949   2.482   2.191
 5858TIP3    H117519   4.042   2.499   2.181
 5858TIP3    H217520   3.915   2.478   2.101
 5859TIP3   OH217521   4.690   7.117   6.211
 5859TIP3    H117522   4.746   7.186   6.247
 5859TIP3    H217523   4.721   7.106   6.121
 5860TIP3   OH217524   5.886   1.920   5.550
 5860TIP3    H117525   5.841   1.944   5.631
 5860TIP3    H217526   5.823   1.866   5.502
 5861TIP3   OH217527   3.631   6.747   1.363
 5861TIP3    H117528   3.681   6.757   1.282
 5861TIP3    H217529   3.687   6.695   1.420
 5862TIP3   OH217530   8.025   0.579   2.280
 5862TIP3    H117531   7.972   0.556   2.203
 5862TIP3    H217532   8.088   0.643   2.247
 5863TIP3   OH217533   1.897   5.750   2.627
 5863TIP3    H117534   1.924   5.835   2.595
 5863TIP3    H217535   1.807   5.763   2.658
 5864TIP3   OH217536   6.267   3.806   5.520
 5864TIP3    H117537   6.318   3.887   5.523
 5864TIP3    H217538   6.302   3.752   5.590
 5865TIP3   OH217539   4.050   4.252   4.094
 5865TIP3    H117540   4.044   4.273   4.187
 5865TIP3    H217541   4.044   4.337   4.050
 5866TIP3   OH217542   0.857   0.710   0.382
 5866TIP3    H117543   0.805   0.697   0.461
 5866TIP3    H217544   0.911   0.631   0.376
 5867TIP3   OH217545   8.012   2.918   5.280
 5867TIP3    H117546   7.964   2.997   5.305
 5867TIP3    H217547   7.978   2.896   5.193
 5868TIP3   OH217548   6.146   2.030   4.859
 5868TIP3    H117549   6.061   1.987   4.867
 5868TIP3    H217550   6.193   1.979   4.793
 5869TIP3   OH217551   1.631   4.625   1.054
 5869TIP3    H117552   1.584   4.656   0.976
 5869TIP3    H217553   1.660   4.705   1.098
 5870TIP3   OH217554   7.135   1.459   6.258
 5870TIP3    H117555   7.146   1.432   6.166
 5870TIP3    H217556   7.122   1.554   6.253
 5871TIP3   OH217557   6.394   0.475   5.293
 5871TIP3    H117558   6.490   0.471   5.297
 5871TIP3    H217559   6.371   0.421   5.218
 5872TIP3   OH217560   1.150   4.823   1.997
 5872TIP3    H117561   1.103   4.786   2.072
 5872TIP3    H217562   1.242   4.817   2.022
 5873TIP3   OH217563   1.847   2.478   4.635
 5873TIP3    H117564   1.937   2.493   4.666
 5873TIP3    H217565   1.795   2.476   4.715
 5874TIP3   OH217566   8.035   2.047   1.286
 5874TIP3    H117567   7.989   2.055   1.203
 5874TIP3    H217568   8.076   1.961   1.283
 5875TIP3   OH217569   0.903   7.269   6.673
 5875TIP3    H117570   0.979   7.279   6.616
 5875TIP3    H217571   0.846   7.343   6.650
 5876TIP3   OH217572   2.761   5.697   1.588
 5876TIP3    H117573   2.782   5.647   1.667
 5876TIP3    H217574   2.673   5.670   1.564
 5877TIP3   OH217575   4.822   0.903   5.426
 5877TIP3    H117576   4.770   0.831   5.462
 5877TIP3    H217577   4.837   0.961   5.500
 5878TIP3   OH217578   7.251   1.868   0.538
 5878TIP3    H117579   7.342   1.847   0.561
 5878TIP3    H217580   7.233   1.815   0.461
 5879TIP3   OH217581   7.521   6.956   6.605
 5879TIP3    H117582   7.615   6.970   6.595
 5879TIP3    H217583   7.498   6.899   6.532
 5880TIP3   OH217584   7.369   7.055   1.963
 5880TIP3    H117585   7.299   7.113   1.993
 5880TIP3    H217586   7.345   6.969   1.998
 5881TIP3   OH217587   6.063   7.324   6.520
 5881TIP3    H117588   5.998   7.254   6.526
 5881TIP3    H217589   6.146   7.281   6.541
 5882TIP3   OH217590   0.447   1.770   2.027
 5882TIP3    H117591   0.389   1.779   2.103
 5882TIP3    H217592   0.530   1.808   2.055
 5883TIP3   OH217593   5.919   0.301   2.760
 5883TIP3    H117594   6.012   0.304   2.784
 5883TIP3    H217595   5.912   0.227   2.700
 5884TIP3   OH217596   6.078   3.292   2.179
 5884TIP3    H117597   6.108   3.379   2.203
 5884TIP3    H217598   6.132   3.267   2.104
 5885TIP3   OH217599   6.589   2.212   5.839
 5885TIP3    H117600   6.547   2.126   5.837
 5885TIP3    H217601   6.654   2.208   5.769
 5886TIP3   OH217602   2.570   6.993   1.085
 5886TIP3    H117603   2.639   6.963   1.026
 5886TIP3    H217604   2.610   6.987   1.173
 5887TIP3   OH217605   0.235   4.396   2.348
 5887TIP3    H117606   0.319   4.358   2.323
 5887TIP3    H217607   0.252   4.490   2.356
 5888TIP3   OH217608   7.471   1.198   3.406
 5888TIP3    H117609   7.455   1.114   3.451
 5888TIP3    H217610   7.407   1.257   3.443
 5889TIP3   OH217611   1.239   3.180   4.589
 5889TIP3    H117612   1.160   3.232   4.574
 5889TIP3    H217613   1.309   3.245   4.602
 5890TIP3   OH217614   7.052   3.927   1.294
 5890TIP3    H117615   7.100   3.858   1.339
 5890TIP3    H217616   7.006   3.974   1.365
 5891TIP3   OH217617   4.149   3.739   4.946
 5891TIP3    H117618   4.133   3.833   4.942
 5891TIP3    H217619   4.065   3.698   4.927
 5892TIP3   OH217620   2.146   2.326   0.741
 5892TIP3    H117621   2.114   2.311   0.830
 5892TIP3    H217622   2.200   2.404   0.747
 5893TIP3   OH217623   2.163   5.501   6.296
 5893TIP3    H117624   2.175   5.591   6.325
 5893TIP3    H217625   2.069   5.484   6.307
 5894TIP3   OH217626   7.966   0.653   1.048
 5894TIP3    H117627   8.022   0.579   1.073
 5894TIP3    H217628   8.028   0.719   1.016
 5895TIP3   OH217629   6.013   1.386   6.696
 5895TIP3    H117630   6.089   1.350   6.649
 5895TIP3    H217631   5.956   1.420   6.627
 5896TIP3   OH217632   0.802   0.127   5.699
 5896TIP3    H117633   0.840   0.174   5.625
 5896TIP3    H217634   0.877   0.106   5.755
 5897TIP3   OH217635   0.486   5.774   2.243
 5897TIP3    H117636   0.495   5.866   2.216
 5897TIP3    H217637   0.567   5.732   2.213
 5898TIP3   OH217638   0.686   2.341   3.106
 5898TIP3    H117639   0.645   2.320   3.190
 5898TIP3    H217640   0.729   2.260   3.079
 5899TIP3   OH217641   2.518   5.905   6.336
 5899TIP3    H117642   2.568   5.851   6.274
 5899TIP3    H217643   2.525   5.858   6.419
 5900TIP3   OH217644   7.277   5.749   5.678
 5900TIP3    H117645   7.184   5.729   5.688
 5900TIP3    H217646   7.320   5.699   5.748
 5901TIP3   OH217647   5.656   3.722   5.726
 5901TIP3    H117648   5.718   3.650   5.717
 5901TIP3    H217649   5.612   3.704   5.809
 5902TIP3   OH217650   7.029   2.649   2.238
 5902TIP3    H117651   7.058   2.738   2.219
 5902TIP3    H217652   7.028   2.606   2.152
 5903TIP3   OH217653   5.215   3.595   6.047
 5903TIP3    H117654   5.140   3.612   5.989
 5903TIP3    H217655   5.201   3.505   6.077
 5904TIP3   OH217656   0.069   3.017   2.908
 5904TIP3    H117657   0.017   2.985   2.835
 5904TIP3    H217658   0.118   3.091   2.872
 5905TIP3   OH217659   0.485   1.600   3.909
 5905TIP3    H117660   0.483   1.696   3.905
 5905TIP3    H217661   0.460   1.572   3.820
 5906TIP3   OH217662   7.399   4.940   6.723
 5906TIP3    H117663   7.490   4.912   6.716
 5906TIP3    H217664   7.356   4.907   6.644
 5907TIP3   OH217665   7.926   7.208   3.956
 5907TIP3    H117666   7.842   7.202   3.910
 5907TIP3    H217667   7.965   7.121   3.947
 5908TIP3   OH217668   5.298   0.487   3.070
 5908TIP3    H117669   5.204   0.493   3.050
 5908TIP3    H217670   5.341   0.501   2.986
 5909TIP3   OH217671   5.823   3.291   2.046
 5909TIP3    H117672   5.894   3.228   2.031
 5909TIP3    H217673   5.807   3.286   2.140
 5910TIP3   OH217674   4.557   3.280   2.761
 5910TIP3    H117675   4.550   3.375   2.774
 5910TIP3    H217676   4.548   3.243   2.849
 5911TIP3   OH217677   8.202   4.112   4.874
 5911TIP3    H117678   8.233   4.021   4.874
 5911TIP3    H217679   8.272   4.162   4.916
 5912TIP3   OH217680   7.375   2.811   3.018
 5912TIP3    H117681   7.323   2.860   2.954
 5912TIP3    H217682   7.314   2.745   3.052
 5913TIP3   OH217683   4.889   6.896   4.812
 5913TIP3    H117684   4.957   6.955   4.780
 5913TIP3    H217685   4.829   6.953   4.860
 5914TIP3   OH217686   6.804   3.690   0.966
 5914TIP3    H117687   6.894   3.675   0.997
 5914TIP3    H217688   6.807   3.776   0.925
 5915TIP3   OH217689   4.190   6.087   5.857
 5915TIP3    H117690   4.176   6.155   5.923
 5915TIP3    H217691   4.134   6.113   5.784
 5916TIP3   OH217692   3.046   5.208   4.487
 5916TIP3    H117693   3.087   5.148   4.425
 5916TIP3    H217694   3.116   5.268   4.512
 5917TIP3   OH217695   1.725   1.425   2.518
 5917TIP3    H117696   1.763   1.428   2.606
 5917TIP3    H217697   1.801   1.419   2.459
 5918TIP3   OH217698   6.512   5.342   2.056
 5918TIP3    H117699   6.474   5.300   2.134
 5918TIP3    H217700   6.552   5.270   2.008
 5919TIP3   OH217701   7.382   7.097   6.378
 5919TIP3    H117702   7.445   7.155   6.421
 5919TIP3    H217703   7.405   7.010   6.410
 5920TIP3   OH217704   3.473   1.483   1.216
 5920TIP3    H117705   3.431   1.564   1.187
 5920TIP3    H217706   3.554   1.479   1.165
 5921TIP3   OH217707   6.077   6.529   2.443
 5921TIP3    H117708   6.014   6.518   2.514
 5921TIP3    H217709   6.048   6.607   2.396
 5922TIP3   OH217710   4.356   1.624   1.612
 5922TIP3    H117711   4.356   1.632   1.517
 5922TIP3    H217712   4.265   1.641   1.638
 5923TIP3   OH217713   4.264   6.923   5.724
 5923TIP3    H117714   4.320   7.001   5.730
 5923TIP3    H217715   4.325   6.852   5.704
 5924TIP3   OH217716   6.623   1.640   3.628
 5924TIP3    H117717   6.668   1.604   3.551
 5924TIP3    H217718   6.652   1.584   3.701
 5925TIP3   OH217719   4.258   0.423   2.327
 5925TIP3    H117720   4.291   0.376   2.250
 5925TIP3    H217721   4.220   0.503   2.291
 5926TIP3   OH217722   3.727   4.569   5.433
 5926TIP3    H117723   3.704   4.660   5.417
 5926TIP3    H217724   3.647   4.530   5.469
 5927TIP3   OH217725   4.531   2.374   3.214
 5927TIP3    H117726   4.452   2.422   3.236
 5927TIP3    H217727   4.596   2.442   3.196
 5928TIP3   OH217728   0.424   5.921   1.060
 5928TIP3    H117729   0.335   5.924   1.096
 5928TIP3    H217730   0.438   6.008   1.022
 5929TIP3   OH217731   4.331   2.813   5.100
 5929TIP3    H117732   4.345   2.746   5.167
 5929TIP3    H217733   4.255   2.782   5.051
 5930TIP3   OH217734   7.424   0.344   4.312
 5930TIP3    H117735   7.336   0.351   4.276
 5930TIP3    H217736   7.450   0.434   4.331
 5931TIP3   OH217737   3.868   3.407   2.270
 5931TIP3    H117738   3.880   3.362   2.354
 5931TIP3    H217739   3.780   3.382   2.242
 5932TIP3   OH217740   4.288   6.792   2.381
 5932TIP3    H117741   4.249   6.792   2.468
 5932TIP3    H217742   4.313   6.883   2.366
 5933TIP3   OH217743   6.395   4.032   5.582
 5933TIP3    H117744   6.479   4.076   5.569
 5933TIP3    H217745   6.363   4.064   5.666
 5934TIP3   OH217746   3.062   3.436   4.242
 5934TIP3    H117747   3.110   3.386   4.177
 5934TIP3    H217748   2.974   3.447   4.205
 5935TIP3   OH217749   5.821   1.680   0.481
 5935TIP3    H117750   5.878   1.700   0.407
 5935TIP3    H217751   5.857   1.728   0.555
 5936TIP3   OH217752   7.929   7.594   3.214
 5936TIP3    H117753   8.007   7.551   3.179
 5936TIP3    H217754   7.908   7.544   3.293
 5937TIP3   OH217755   1.048   5.008   5.835
 5937TIP3    H117756   0.993   5.049   5.768
 5937TIP3    H217757   1.122   5.069   5.846
 5938TIP3   OH217758   0.977   5.752   0.841
 5938TIP3    H117759   0.897   5.806   0.839
 5938TIP3    H217760   0.995   5.740   0.934
 5939TIP3   OH217761   5.559   4.013   4.166
 5939TIP3    H117762   5.576   3.954   4.240
 5939TIP3    H217763   5.543   4.098   4.206
 5940TIP3   OH217764   3.979   3.522   3.260
 5940TIP3    H117765   3.892   3.560   3.245
 5940TIP3    H217766   4.031   3.550   3.185
 5941TIP3   OH217767   0.684   6.194   6.323
 5941TIP3    H117768   0.611   6.256   6.328
 5941TIP3    H217769   0.643   6.108   6.316
 5942TIP3   OH217770   3.730   6.909   3.446
 5942TIP3    H117771   3.817   6.870   3.458
 5942TIP3    H217772   3.720   6.916   3.351
 5943TIP3   OH217773   2.522   2.798   6.641
 5943TIP3    H117774   2.594   2.790   6.704
 5943TIP3    H217775   2.497   2.890   6.646
 5944TIP3   OH217776   6.790   3.572   2.731
 5944TIP3    H117777   6.763   3.502   2.791
 5944TIP3    H217778   6.878   3.595   2.761
 5945TIP3   OH217779   0.753   6.969   1.876
 5945TIP3    H117780   0.725   6.892   1.925
 5945TIP3    H217781   0.793   6.934   1.796
 5946TIP3   OH217782   3.658   5.238   6.453
 5946TIP3    H117783   3.665   5.147   6.483
 5946TIP3    H217784   3.649   5.289   6.533
 5947TIP3   OH217785   4.305   3.275   3.694
 5947TIP3    H117786   4.274   3.200   3.743
 5947TIP3    H217787   4.362   3.322   3.756
 5948TIP3   OH217788   0.633   0.625   2.057
 5948TIP3    H117789   0.620   0.720   2.058
 5948TIP3    H217790   0.614   0.598   1.967
 5949TIP3   OH217791   7.363   0.354   3.337
 5949TIP3    H117792   7.289   0.325   3.283
 5949TIP3    H217793   7.435   0.365   3.275
 5950TIP3   OH217794   0.038   1.633   2.255
 5950TIP3    H117795   0.116   1.637   2.311
 5950TIP3    H217796  -0.012   1.712   2.277
 5951TIP3   OH217797   1.649   7.768   6.404
 5951TIP3    H117798   1.736   7.739   6.380
 5951TIP3    H217799   1.591   7.696   6.378
 5952TIP3   OH217800   6.145   7.625   1.239
 5952TIP3    H117801   6.122   7.553   1.181
 5952TIP3    H217802   6.228   7.599   1.279
 5953TIP3   OH217803   5.132   3.652   2.809
 5953TIP3    H117804   5.039   3.677   2.808
 5953TIP3    H217805   5.155   3.651   2.902
 5954TIP3   OH217806   4.689   5.003   4.120
 5954TIP3    H117807   4.598   4.997   4.090
 5954TIP3    H217808   4.692   4.948   4.199
 5955TIP3   OH217809   5.652   7.529   1.907
 5955TIP3    H117810   5.635   7.506   1.998
 5955TIP3    H217811   5.736   7.487   1.886
 5956TIP3   OH217812   1.162   4.383   6.196
 5956TIP3    H117813   1.097   4.352   6.259
 5956TIP3    H217814   1.173   4.310   6.135
 5957TIP3   OH217815   6.365   2.297   5.425
 5957TIP3    H117816   6.393   2.387   5.410
 5957TIP3    H217817   6.371   2.255   5.339
 5958TIP3   OH217818   7.363   6.434   3.802
 5958TIP3    H117819   7.286   6.452   3.749
 5958TIP3    H217820   7.340   6.463   3.890
 5959TIP3   OH217821   0.826   3.103   2.408
 5959TIP3    H117822   0.855   3.192   2.386
 5959TIP3    H217823   0.903   3.062   2.449
 5960TIP3   OH217824   3.608   6.366   1.768
 5960TIP3    H117825   3.628   6.273   1.757
 5960TIP3    H217826   3.539   6.368   1.834
 5961TIP3   OH217827   4.294   4.881   3.033
 5961TIP3    H117828   4.298   4.901   2.939
 5961TIP3    H217829   4.201   4.870   3.051
 5962TIP3   OH217830   5.116   2.008   2.202
 5962TIP3    H117831   5.104   2.098   2.173
 5962TIP3    H217832   5.163   2.016   2.285
 5963TIP3   OH217833   7.535   2.134   3.867
 5963TIP3    H117834   7.599   2.080   3.819
 5963TIP3    H217835   7.496   2.189   3.800
 5964TIP3   OH217836   4.358   3.821   1.061
 5964TIP3    H117837   4.371   3.835   0.967
 5964TIP3    H217838   4.366   3.908   1.100
 5965TIP3   OH217839   0.287   3.198   0.412
 5965TIP3    H117840   0.292   3.104   0.393
 5965TIP3    H217841   0.369   3.234   0.378
 5966TIP3   OH217842   6.568   1.737   6.179
 5966TIP3    H117843   6.535   1.817   6.219
 5966TIP3    H217844   6.613   1.692   6.251
 5967TIP3   OH217845   5.835   4.119   4.718
 5967TIP3    H117846   5.864   4.099   4.807
 5967TIP3    H217847   5.863   4.210   4.704
 5968TIP3   OH217848   4.742   1.535   0.527
 5968TIP3    H117849   4.774   1.595   0.594
 5968TIP3    H217850   4.819   1.517   0.472
 5969TIP3   OH217851   4.601   6.836   3.483
 5969TIP3    H117852   4.608   6.912   3.541
 5969TIP3    H217853   4.567   6.767   3.539
 5970TIP3   OH217854   7.666   2.947   1.552
 5970TIP3    H117855   7.751   2.921   1.516
 5970TIP3    H217856   7.675   3.041   1.570
 5971TIP3   OH217857   2.486   6.702   3.038
 5971TIP3    H117858   2.498   6.639   2.967
 5971TIP3    H217859   2.391   6.708   3.048
 5972TIP3   OH217860   6.132   6.080   0.801
 5972TIP3    H117861   6.065   6.142   0.773
 5972TIP3    H217862   6.215   6.126   0.786
 5973TIP3   OH217863   3.365   4.175   5.242
 5973TIP3    H117864   3.431   4.219   5.188
 5973TIP3    H217865   3.406   4.165   5.328
 5974TIP3   OH217866   0.196   7.211   2.160
 5974TIP3    H117867   0.169   7.131   2.114
 5974TIP3    H217868   0.257   7.254   2.100
 5975TIP3   OH217869   6.485   2.792   4.270
 5975TIP3    H117870   6.398   2.792   4.229
 5975TIP3    H217871   6.473   2.839   4.353
 5976TIP3   OH217872   3.163   7.148   0.246
 5976TIP3    H117873   3.184   7.210   0.176
 5976TIP3    H217874   3.246   7.136   0.292
 5977TIP3   OH217875   6.707   3.922   3.491
 5977TIP3    H117876   6.755   3.843   3.514
 5977TIP3    H217877   6.713   3.978   3.569
 5978TIP3   OH217878   7.670   1.523   5.869
 5978TIP3    H117879   7.611   1.591   5.900
 5978TIP3    H217880   7.749   1.570   5.843
 5979TIP3   OH217881   2.988   6.742   2.344
 5979TIP3    H117882   3.028   6.661   2.375
 5979TIP3    H217883   3.016   6.750   2.253
 5980TIP3   OH217884   5.192   6.953   3.025
 5980TIP3    H117885   5.234   6.868   3.037
 5980TIP3    H217886   5.099   6.932   3.010
 5981TIP3   OH217887   3.009   1.235   2.335
 5981TIP3    H117888   3.042   1.204   2.420
 5981TIP3    H217889   2.973   1.321   2.354
 5982TIP3   OH217890   0.357   2.209   1.238
 5982TIP3    H117891   0.403   2.223   1.321
 5982TIP3    H217892   0.363   2.294   1.194
 5983TIP3   OH217893   1.877   2.647   0.267
 5983TIP3    H117894   1.850   2.630   0.357
 5983TIP3    H217895   1.966   2.681   0.275
 5984TIP3   OH217896   3.935   1.622   5.081
 5984TIP3    H117897   3.871   1.678   5.126
 5984TIP3    H217898   3.992   1.683   5.035
 5985TIP3   OH217899   0.938   3.606   3.906
 5985TIP3    H117900   0.989   3.646   3.836
 5985TIP3    H217901   0.974   3.642   3.987
 5986TIP3   OH217902   2.182   0.275   2.125
 5986TIP3    H117903   2.121   0.336   2.083
 5986TIP3    H217904   2.151   0.267   2.215
 5987TIP3   OH217905   5.263   6.549   1.274
 5987TIP3    H117906   5.346   6.596   1.282
 5987TIP3    H217907   5.286   6.457   1.279
 5988TIP3   OH217908   8.128   7.090   0.221
 5988TIP3    H117909   8.160   7.151   0.287
 5988TIP3    H217910   8.179   7.110   0.143
 5989TIP3   OH217911   4.090   3.042   5.266
 5989TIP3    H117912   4.036   3.074   5.338
 5989TIP3    H217913   4.070   3.099   5.193
 5990TIP3   OH217914   4.195   4.415   0.955
 5990TIP3    H117915   4.237   4.452   1.033
 5990TIP3    H217916   4.101   4.414   0.977
 5991TIP3   OH217917   0.016   0.518   2.561
 5991TIP3    H117918   0.019   0.614   2.557
 5991TIP3    H217919   0.101   0.493   2.597
 5992TIP3   OH217920   2.747   3.519   0.212
 5992TIP3    H117921   2.677   3.565   0.259
 5992TIP3    H217922   2.720   3.427   0.211
 5993TIP3   OH217923   1.397   4.310   3.985
 5993TIP3    H117924   1.479   4.355   4.005
 5993TIP3    H217925   1.332   4.355   4.039
 5994TIP3   OH217926   1.502   3.369   0.721
 5994TIP3    H117927   1.507   3.464   0.731
 5994TIP3    H217928   1.411   3.352   0.700
 5995TIP3   OH217929   6.763   6.780   3.152
 5995TIP3    H117930   6.700   6.721   3.111
 5995TIP3    H217931   6.810   6.820   3.079
 5996TIP3   OH217932   0.049   2.915   1.117
 5996TIP3    H117933   0.041   2.820   1.111
 5996TIP3    H217934   0.007   2.948   1.038
 5997TIP3   OH217935   5.233   1.750   0.207
 5997TIP3    H117936   5.210   1.821   0.148
 5997TIP3    H217937   5.321   1.724   0.180
 5998TIP3   OH217938   3.473   6.876   0.089
 5998TIP3    H117939   3.443   6.919   0.009
 5998TIP3    H217940   3.450   6.936   0.159
 5999TIP3   OH217941   6.636   6.357   1.466
 5999TIP3    H117942   6.655   6.443   1.504
 5999TIP3    H217943   6.712   6.303   1.488
 6000TIP3   OH217944   7.086   6.293   5.115
 6000TIP3    H117945   6.992   6.305   5.122
 6000TIP3    H217946   7.097   6.205   5.079
 6001TIP3   OH217947   6.614   3.770   5.609
 6001TIP3    H117948   6.704   3.746   5.590
 6001TIP3    H217949   6.580   3.806   5.527
 6002TIP3   OH217950   4.526   2.962   2.105
 6002TIP3    H117951   4.473   2.989   2.180
 6002TIP3    H217952   4.483   3.002   2.029
 6003TIP3   OH217953   0.824   5.745   1.328
 6003TIP3    H117954   0.790   5.818   1.276
 6003TIP3    H217955   0.767   5.671   1.307
 6004TIP3   OH217956   0.073   4.305   0.095
 6004TIP3    H117957   0.041   4.313   0.185
 6004TIP3    H217958   0.168   4.307   0.103
 6005TIP3   OH217959   5.805   1.950   0.444
 6005TIP3    H117960   5.898   1.955   0.467
 6005TIP3    H217961   5.805   1.935   0.349
 6006TIP3   OH217962   2.943   2.697   5.984
 6006TIP3    H117963   2.982   2.620   6.023
 6006TIP3    H217964   2.987   2.707   5.899
 6007TIP3   OH217965   0.240   6.699   0.115
 6007TIP3    H117966   0.252   6.672   0.024
 6007TIP3    H217967   0.164   6.650   0.145
 6008TIP3   OH217968   1.375   6.889   1.151
 6008TIP3    H117969   1.352   6.796   1.150
 6008TIP3    H217970   1.299   6.933   1.115
 6009TIP3   OH217971   1.017   3.374   6.385
 6009TIP3    H117972   1.106   3.364   6.418
 6009TIP3    H217973   0.967   3.306   6.430
 6010TIP3   OH217974   3.809   4.123   6.497
 6010TIP3    H117975   3.783   4.209   6.529
 6010TIP3    H217976   3.860   4.141   6.418
 6011TIP3   OH217977   8.133   7.731   2.048
 6011TIP3    H117978   8.156   7.798   2.113
 6011TIP3    H217979   8.208   7.671   2.048
 6012TIP3   OH217980   6.239   6.999   2.170
 6012TIP3    H117981   6.194   6.999   2.255
 6012TIP3    H217982   6.332   6.994   2.193
 6013TIP3   OH217983   7.073   0.915   3.221
 6013TIP3    H117984   7.129   0.979   3.178
 6013TIP3    H217985   7.115   0.831   3.203
 6014TIP3   OH217986   2.664   4.187   1.540
 6014TIP3    H117987   2.705   4.129   1.604
 6014TIP3    H217988   2.679   4.144   1.455
 6015TIP3   OH217989   0.963   3.732   2.069
 6015TIP3    H117990   0.900   3.779   2.014
 6015TIP3    H217991   0.946   3.763   2.158
 6016TIP3   OH217992   5.666   3.237   5.466
 6016TIP3    H117993   5.731   3.305   5.446
 6016TIP3    H217994   5.657   3.188   5.384
 6017TIP3   OH217995   1.115   7.034   2.276
 6017TIP3    H117996   1.161   7.112   2.245
 6017TIP3    H217997   1.023   7.061   2.281
 6018TIP3   OH217998   4.333   7.345   0.022
 6018TIP3    H117999   4.367   7.434   0.010
 6018TIP3    H218000   4.313   7.339   0.115
 6019TIP3   OH218001   0.744   5.753   4.339
 6019TIP3    H118002   0.743   5.842   4.306
 6019TIP3    H218003   0.705   5.701   4.269
 6020TIP3   OH218004   7.942   3.348   4.524
 6020TIP3    H118005   7.927   3.425   4.469
 6020TIP3    H218006   7.920   3.274   4.467
 6021TIP3   OH218007   6.962   1.310   5.063
 6021TIP3    H118008   6.939   1.234   5.116
 6021TIP3    H218009   7.026   1.278   5.000
 6022TIP3   OH218010   2.263   0.651   3.048
 6022TIP3    H118011   2.325   0.724   3.041
 6022TIP3    H218012   2.193   0.673   2.986
 6023TIP3   OH218013   5.372   7.084   3.777
 6023TIP3    H118014   5.460   7.073   3.812
 6023TIP3    H218015   5.381   7.068   3.683
 6024TIP3   OH218016   8.093   0.017   3.968
 6024TIP3    H118017   8.026   0.061   4.019
 6024TIP3    H218018   8.103   0.070   3.889
 6025TIP3   OH218019   0.687   4.235   5.087
 6025TIP3    H118020   0.754   4.303   5.100
 6025TIP3    H218021   0.604   4.281   5.103
 6026TIP3   OH218022   4.887   1.685   5.225
 6026TIP3    H118023   4.941   1.761   5.205
 6026TIP3    H218024   4.878   1.639   5.141
 6027TIP3   OH218025   0.762   1.799   4.749
 6027TIP3    H118026   0.711   1.876   4.725
 6027TIP3    H218027   0.836   1.800   4.689
 6028TIP3   OH218028   1.179   7.247   3.992
 6028TIP3    H118029   1.275   7.250   4.000
 6028TIP3    H218030   1.158   7.154   3.991
 6029TIP3   OH218031   1.446   5.164   1.390
 6029TIP3    H118032   1.536   5.177   1.420
 6029TIP3    H218033   1.452   5.166   1.294
 6030TIP3   OH218034   1.550   7.303   4.486
 6030TIP3    H118035   1.619   7.363   4.514
 6030TIP3    H218036   1.536   7.246   4.562
 6031TIP3   OH218037   3.523   5.659   0.920
 6031TIP3    H118038   3.447   5.696   0.965
 6031TIP3    H218039   3.485   5.606   0.850
 6032TIP3   OH218040   7.125   7.636   3.668
 6032TIP3    H118041   7.173   7.553   3.667
 6032TIP3    H218042   7.150   7.679   3.586
 6033TIP3   OH218043   2.781   5.591   3.186
 6033TIP3    H118044   2.790   5.685   3.202
 6033TIP3    H218045   2.775   5.553   3.274
 6034TIP3   OH218046   4.669   2.145   3.166
 6034TIP3    H118047   4.647   2.238   3.170
 6034TIP3    H218048   4.615   2.110   3.095
 6035TIP3   OH218049   5.652   6.218   5.604
 6035TIP3    H118050   5.677   6.300   5.646
 6035TIP3    H218051   5.557   6.224   5.595
 6036TIP3   OH218052   6.456   2.127   4.803
 6036TIP3    H118053   6.474   2.221   4.808
 6036TIP3    H218054   6.474   2.094   4.891
 6037TIP3   OH218055   0.490   7.546   1.860
 6037TIP3    H118056   0.572   7.595   1.855
 6037TIP3    H218057   0.427   7.608   1.897
 6038TIP3   OH218058   0.492   1.035   6.546
 6038TIP3    H118059   0.447   1.000   6.468
 6038TIP3    H218060   0.422   1.047   6.610
 6039TIP3   OH218061   2.024   4.472   2.689
 6039TIP3    H118062   2.043   4.518   2.607
 6039TIP3    H218063   2.110   4.458   2.728
 6040TIP3   OH218064   7.490   1.111   3.807
 6040TIP3    H118065   7.533   1.054   3.743
 6040TIP3    H218066   7.522   1.198   3.788
 6041TIP3   OH218067   5.363   5.003   3.467
 6041TIP3    H118068   5.452   5.001   3.503
 6041TIP3    H218069   5.356   5.091   3.428
 6042TIP3   OH218070   1.721   4.553   6.333
 6042TIP3    H118071   1.754   4.612   6.265
 6042TIP3    H218072   1.632   4.532   6.304
 6043TIP3   OH218073   4.729   4.179   2.645
 6043TIP3    H118074   4.810   4.190   2.596
 6043TIP3    H218075   4.745   4.222   2.729
 6044TIP3   OH218076   7.062   0.678   2.031
 6044TIP3    H118077   7.125   0.606   2.034
 6044TIP3    H218078   7.114   0.754   2.003
 6045TIP3   OH218079   4.797   3.787   5.083
 6045TIP3    H118080   4.800   3.863   5.025
 6045TIP3    H218081   4.707   3.785   5.116
 6046TIP3   OH218082   1.385   6.216   0.515
 6046TIP3    H118083   1.401   6.310   0.506
 6046TIP3    H218084   1.313   6.198   0.454
 6047TIP3   OH218085   5.034   1.555   0.985
 6047TIP3    H118086   5.119   1.579   0.948
 6047TIP3    H218087   4.993   1.501   0.918
 6048TIP3   OH218088   2.373   0.207   4.086
 6048TIP3    H118089   2.401   0.294   4.060
 6048TIP3    H218090   2.281   0.218   4.110
 6049TIP3   OH218091   0.042   5.601   4.415
 6049TIP3    H118092   0.087   5.660   4.356
 6049TIP3    H218093  -0.048   5.598   4.382
 6050TIP3   OH218094   1.759   3.961   3.164
 6050TIP3    H118095   1.665   3.979   3.152
 6050TIP3    H218096   1.778   3.892   3.101
 6051TIP3   OH218097   3.673   1.428   2.146
 6051TIP3    H118098   3.644   1.488   2.215
 6051TIP3    H218099   3.601   1.429   2.082
 6052TIP3   OH218100   0.214   7.347   5.838
 6052TIP3    H118101   0.279   7.338   5.769
 6052TIP3    H218102   0.193   7.257   5.864
 6053TIP3   OH218103   0.391   3.488   2.951
 6053TIP3    H118104   0.377   3.447   3.036
 6053TIP3    H218105   0.375   3.582   2.966
 6054TIP3   OH218106   1.262   1.818   5.460
 6054TIP3    H118107   1.204   1.744   5.442
 6054TIP3    H218108   1.260   1.871   5.380
 6055TIP3   OH218109   4.816   1.873   2.015
 6055TIP3    H118110   4.733   1.921   2.013
 6055TIP3    H218111   4.867   1.910   1.943
 6056TIP3   OH218112   3.802   3.034   6.188
 6056TIP3    H118113   3.747   2.959   6.166
 6056TIP3    H218114   3.891   2.999   6.188
 6057TIP3   OH218115   8.035   6.558   4.009
 6057TIP3    H118116   8.120   6.601   4.018
 6057TIP3    H218117   7.983   6.593   4.081
 6058TIP3   OH218118   3.252   1.108   6.232
 6058TIP3    H118119   3.159   1.123   6.216
 6058TIP3    H218120   3.294   1.124   6.147
 6059TIP3   OH218121   6.962   7.595   1.293
 6059TIP3    H118122   7.014   7.653   1.349
 6059TIP3    H218123   6.892   7.562   1.349
 6060TIP3   OH218124   3.660   7.117   1.008
 6060TIP3    H118125   3.648   7.171   1.085
 6060TIP3    H218126   3.574   7.116   0.965
 6061TIP3   OH218127   3.898   7.383   2.112
 6061TIP3    H118128   3.824   7.326   2.089
 6061TIP3    H218129   3.877   7.467   2.071
 6062TIP3   OH218130   6.638   2.087   3.874
 6062TIP3    H118131   6.546   2.103   3.893
 6062TIP3    H218132   6.658   2.144   3.800
 6063TIP3   OH218133   0.950   5.315   3.924
 6063TIP3    H118134   0.986   5.238   3.879
 6063TIP3    H218135   0.859   5.292   3.942
 6064TIP3   OH218136   1.104   1.134   5.810
 6064TIP3    H118137   1.076   1.056   5.858
 6064TIP3    H218138   1.086   1.207   5.870
 6065TIP3   OH218139   5.795   0.738   4.967
 6065TIP3    H118140   5.705   0.746   4.935
 6065TIP3    H218141   5.786   0.694   5.051
 6066TIP3   OH218142   2.994   2.155   0.302
 6066TIP3    H118143   2.959   2.205   0.228
 6066TIP3    H218144   3.064   2.209   0.337
 6067TIP3   OH218145   7.266   4.101   1.436
 6067TIP3    H118146   7.256   4.005   1.435
 6067TIP3    H218147   7.266   4.124   1.529
 6068TIP3   OH218148   6.653   4.961   6.698
 6068TIP3    H118149   6.695   4.875   6.711
 6068TIP3    H218150   6.689   4.993   6.616
 6069TIP3   OH218151   6.599   2.570   5.747
 6069TIP3    H118152   6.660   2.547   5.676
 6069TIP3    H218153   6.519   2.522   5.726
 6070TIP3   OH218154   6.138   7.374   0.179
 6070TIP3    H118155   6.102   7.449   0.132
 6070TIP3    H218156   6.229   7.368   0.150
 6071TIP3   OH218157   5.232   6.692   1.823
 6071TIP3    H118158   5.174   6.650   1.887
 6071TIP3    H218159   5.221   6.786   1.838
 6072TIP3   OH218160   7.998   2.629   0.729
 6072TIP3    H118161   7.919   2.657   0.775
 6072TIP3    H218162   8.046   2.577   0.794
 6073TIP3   OH218163   2.788   1.103   1.131
 6073TIP3    H118164   2.732   1.084   1.207
 6073TIP3    H218165   2.731   1.092   1.055
 6074TIP3   OH218166   7.882   7.437   3.449
 6074TIP3    H118167   7.833   7.408   3.526
 6074TIP3    H218168   7.835   7.398   3.375
 6075TIP3   OH218169   1.449   7.203   4.021
 6075TIP3    H118170   1.490   7.130   3.974
 6075TIP3    H218171   1.493   7.204   4.106
 6076TIP3   OH218172   4.229   2.987   0.527
 6076TIP3    H118173   4.156   2.945   0.482
 6076TIP3    H218174   4.193   3.070   0.559
 6077TIP3   OH218175   3.272   0.389   5.527
 6077TIP3    H118176   3.349   0.367   5.579
 6077TIP3    H218177   3.307   0.421   5.444
 6078TIP3   OH218178   2.673   6.059   6.011
 6078TIP3    H118179   2.688   6.123   5.942
 6078TIP3    H218180   2.581   6.034   6.001
 6079TIP3   OH218181   3.180   6.852   1.613
 6079TIP3    H118182   3.240   6.891   1.549
 6079TIP3    H218183   3.207   6.890   1.697
 6080TIP3   OH218184   2.027   5.400   6.088
 6080TIP3    H118185   2.073   5.319   6.110
 6080TIP3    H218186   2.085   5.469   6.121
 6081TIP3   OH218187   6.855   6.442   3.574
 6081TIP3    H118188   6.790   6.422   3.642
 6081TIP3    H218189   6.939   6.431   3.619
 6082TIP3   OH218190   1.335   2.953   4.882
 6082TIP3    H118191   1.290   2.886   4.933
 6082TIP3    H218192   1.383   2.905   4.815
 6083TIP3   OH218193   2.217   1.812   2.581
 6083TIP3    H118194   2.276   1.873   2.625
 6083TIP3    H218195   2.133   1.858   2.579
 6084TIP3   OH218196   5.269   0.272   1.073
 6084TIP3    H118197   5.252   0.299   0.983
 6084TIP3    H218198   5.203   0.206   1.091
 6085TIP3   OH218199   5.976   6.960   2.994
 6085TIP3    H118200   5.994   6.867   3.011
 6085TIP3    H218201   6.031   6.981   2.919
 6086TIP3   OH218202   2.346   4.969   1.955
 6086TIP3    H118203   2.334   5.004   1.867
 6086TIP3    H218204   2.281   5.015   2.008
 6087TIP3   OH218205   0.343   5.510   0.299
 6087TIP3    H118206   0.391   5.578   0.252
 6087TIP3    H218207   0.344   5.539   0.390
 6088TIP3   OH218208   2.651   4.872   1.336
 6088TIP3    H118209   2.676   4.787   1.373
 6088TIP3    H218210   2.734   4.916   1.317
 6089TIP3   OH218211   0.800   6.337   5.559
 6089TIP3    H118212   0.777   6.366   5.470
 6089TIP3    H218213   0.819   6.244   5.550
 6090TIP3   OH218214   6.447   6.657   2.217
 6090TIP3    H118215   6.447   6.562   2.207
 6090TIP3    H218216   6.510   6.688   2.152
 6091TIP3   OH218217   1.474   6.577   6.539
 6091TIP3    H118218   1.474   6.521   6.462
 6091TIP3    H218219   1.489   6.517   6.612
 6092TIP3   OH218220   0.585   3.428   3.309
 6092TIP3    H118221   0.619   3.443   3.220
 6092TIP3    H218222   0.605   3.336   3.327
 6093TIP3   OH218223   3.069   2.134   6.746
 6093TIP3    H118224   3.082   2.039   6.742
 6093TIP3    H218225   2.995   2.145   6.806
 6094TIP3   OH218226   3.607   2.581   5.621
 6094TIP3    H118227   3.663   2.507   5.644
 6094TIP3    H218228   3.668   2.653   5.604
 6095TIP3   OH218229   7.386   5.665   0.081
 6095TIP3    H118230   7.444   5.650   0.155
 6095TIP3    H218231   7.435   5.632   0.005
 6096TIP3   OH218232   1.526   6.674   0.762
 6096TIP3    H118233   1.438   6.702   0.788
 6096TIP3    H218234   1.538   6.590   0.807
 6097TIP3   OH218235   8.094   0.376   1.490
 6097TIP3    H118236   8.101   0.300   1.432
 6097TIP3    H218237   8.011   0.417   1.465
 6098TIP3   OH218238   1.983   4.363   0.858
 6098TIP3    H118239   1.971   4.372   0.953
 6098TIP3    H218240   2.057   4.421   0.838
 6099TIP3   OH218241   7.087   1.425   3.814
 6099TIP3    H118242   6.993   1.419   3.796
 6099TIP3    H218243   7.106   1.519   3.806
 6100TIP3   OH218244   3.612   1.562   3.115
 6100TIP3    H118245   3.619   1.479   3.069
 6100TIP3    H218246   3.688   1.612   3.087
 6101TIP3   OH218247   1.730   6.498   2.583
 6101TIP3    H118248   1.796   6.515   2.516
 6101TIP3    H218249   1.649   6.484   2.534
 6102TIP3   OH218250   6.056   6.903   3.543
 6102TIP3    H118251   6.071   6.809   3.537
 6102TIP3    H218252   6.091   6.939   3.462
 6103TIP3   OH218253   3.508   6.813   0.998
 6103TIP3    H118254   3.588   6.821   1.050
 6103TIP3    H218255   3.466   6.733   1.031
 6104TIP3   OH218256   7.687   7.655   4.725
 6104TIP3    H118257   7.657   7.682   4.812
 6104TIP3    H218258   7.759   7.595   4.741
 6105TIP3   OH218259   6.151   5.197   2.332
 6105TIP3    H118260   6.227   5.188   2.274
 6105TIP3    H218261   6.152   5.116   2.384
 6106TIP3   OH218262   4.538   0.254   1.886
 6106TIP3    H118263   4.623   0.259   1.930
 6106TIP3    H218264   4.514   0.345   1.870
 6107TIP3   OH218265   6.913   0.832   3.888
 6107TIP3    H118266   6.901   0.898   3.820
 6107TIP3    H218267   6.932   0.751   3.840
 6108TIP3   OH218268   7.023   7.270   3.749
 6108TIP3    H118269   7.064   7.193   3.787
 6108TIP3    H218270   6.973   7.237   3.674
 6109TIP3   OH218271   0.550   4.296   3.504
 6109TIP3    H118272   0.606   4.219   3.515
 6109TIP3    H218273   0.484   4.287   3.573
 6110TIP3   OH218274   6.031   6.946   4.950
 6110TIP3    H118275   6.044   6.992   5.033
 6110TIP3    H218276   5.995   6.861   4.975
 6111TIP3   OH218277   1.311   4.768   1.134
 6111TIP3    H118278   1.243   4.759   1.201
 6111TIP3    H218279   1.313   4.683   1.090
 6112TIP3   OH218280   0.317   5.138   0.059
 6112TIP3    H118281   0.408   5.166   0.065
 6112TIP3    H218282   0.307   5.107  -0.031
 6113TIP3   OH218283   2.307   4.141   5.368
 6113TIP3    H118284   2.230   4.116   5.318
 6113TIP3    H218285   2.378   4.088   5.332
 6114TIP3   OH218286   4.598   5.461   4.781
 6114TIP3    H118287   4.687   5.445   4.812
 6114TIP3    H218288   4.572   5.378   4.740
 6115TIP3   OH218289   0.774   1.360   5.048
 6115TIP3    H118290   0.839   1.336   5.114
 6115TIP3    H218291   0.807   1.442   5.011
 6116TIP3   OH218292   6.909   5.467   4.536
 6116TIP3    H118293   6.900   5.443   4.628
 6116TIP3    H218294   6.978   5.410   4.503
 6117TIP3   OH218295   3.083   5.846   0.428
 6117TIP3    H118296   3.098   5.799   0.345
 6117TIP3    H218297   3.068   5.937   0.402
 6118TIP3   OH218298   5.400   4.286   4.960
 6118TIP3    H118299   5.418   4.337   5.039
 6118TIP3    H218300   5.389   4.351   4.891
 6119TIP3   OH218301   6.764   5.149   2.899
 6119TIP3    H118302   6.816   5.226   2.874
 6119TIP3    H218303   6.777   5.141   2.993
 6120TIP3   OH218304   6.108   6.123   0.275
 6120TIP3    H118305   6.168   6.151   0.344
 6120TIP3    H218306   6.029   6.096   0.321
 6121TIP3   OH218307   4.782   6.026   5.696
 6121TIP3    H118308   4.745   6.101   5.649
 6121TIP3    H218309   4.874   6.025   5.671
 6122TIP3   OH218310   1.325   2.784   1.675
 6122TIP3    H118311   1.311   2.863   1.728
 6122TIP3    H218312   1.417   2.788   1.650
 6123TIP3   OH218313   7.961   1.774   4.552
 6123TIP3    H118314   7.892   1.725   4.507
 6123TIP3    H218315   8.038   1.718   4.546
 6124TIP3   OH218316   2.320   3.847   0.409
 6124TIP3    H118317   2.253   3.889   0.464
 6124TIP3    H218318   2.397   3.903   0.418
 6125TIP3   OH218319   4.543   5.258   4.290
 6125TIP3    H118320   4.452   5.262   4.317
 6125TIP3    H218321   4.541   5.215   4.205
 6126TIP3   OH218322   2.173   3.206   6.134
 6126TIP3    H118323   2.164   3.249   6.219
 6126TIP3    H218324   2.157   3.113   6.153
 6127TIP3   OH218325   2.579   4.251   2.116
 6127TIP3    H118326   2.662   4.223   2.155
 6127TIP3    H218327   2.600   4.334   2.073
 6128TIP3   OH218328   5.708   6.546   3.104
 6128TIP3    H118329   5.654   6.620   3.132
 6128TIP3    H218330   5.718   6.557   3.010
 6129TIP3   OH218331   0.955   5.424   1.955
 6129TIP3    H118332   1.006   5.496   1.917
 6129TIP3    H218333   0.903   5.465   2.024
 6130TIP3   OH218334   3.423   3.335   5.636
 6130TIP3    H118335   3.344   3.285   5.616
 6130TIP3    H218336   3.428   3.401   5.567
 6131TIP3   OH218337   6.450   1.321   2.101
 6131TIP3    H118338   6.516   1.331   2.032
 6131TIP3    H218339   6.441   1.226   2.111
 6132TIP3   OH218340   5.460   7.441   5.573
 6132TIP3    H118341   5.451   7.349   5.598
 6132TIP3    H218342   5.375   7.464   5.535
 6133TIP3   OH218343   8.069   5.027   0.506
 6133TIP3    H118344   8.035   5.088   0.441
 6133TIP3    H218345   8.044   5.065   0.591
 6134TIP3   OH218346   2.932   3.150   1.359
 6134TIP3    H118347   2.862   3.099   1.319
 6134TIP3    H218348   2.951   3.219   1.296
 6135TIP3   OH218349   0.062   2.367   3.901
 6135TIP3    H118350   0.032   2.345   3.990
 6135TIP3    H218351   0.051   2.462   3.895
 6136TIP3   OH218352   1.638   4.524   2.407
 6136TIP3    H118353   1.707   4.590   2.411
 6136TIP3    H218354   1.684   4.440   2.412
 6137TIP3   OH218355   6.964   3.639   2.089
 6137TIP3    H118356   7.055   3.627   2.113
 6137TIP3    H218357   6.939   3.722   2.129
 6138TIP3   OH218358   0.657   4.615   2.278
 6138TIP3    H118359   0.648   4.581   2.188
 6138TIP3    H218360   0.697   4.543   2.326
 6139TIP3   OH218361   3.537   2.118   1.085
 6139TIP3    H118362   3.534   2.079   0.998
 6139TIP3    H218363   3.490   2.056   1.141
 6140TIP3   OH218364   0.256   4.903   3.121
 6140TIP3    H118365   0.284   4.918   3.031
 6140TIP3    H218366   0.338   4.888   3.169
 6141TIP3   OH218367   5.270   4.831   1.458
 6141TIP3    H118368   5.258   4.900   1.523
 6141TIP3    H218369   5.222   4.862   1.381
 6142TIP3   OH218370   4.943   5.781   3.783
 6142TIP3    H118371   4.955   5.743   3.870
 6142TIP3    H218372   4.944   5.706   3.724
 6143TIP3   OH218373   3.654   3.533   0.176
 6143TIP3    H118374   3.712   3.608   0.184
 6143TIP3    H218375   3.572   3.561   0.217
 6144TIP3   OH218376   6.462   4.823   0.952
 6144TIP3    H118377   6.397   4.754   0.964
 6144TIP3    H218378   6.469   4.864   1.039
 6145TIP3   OH218379   0.658   3.235   6.722
 6145TIP3    H118380   0.715   3.305   6.752
 6145TIP3    H218381   0.569   3.266   6.743
 6146TIP3   OH218382   2.580   5.407   4.700
 6146TIP3    H118383   2.597   5.494   4.663
 6146TIP3    H218384   2.659   5.356   4.679
 6147TIP3   OH218385   1.940   3.815   4.656
 6147TIP3    H118386   2.000   3.742   4.642
 6147TIP3    H218387   1.996   3.888   4.682
 6148TIP3   OH218388   2.146   7.359   1.938
 6148TIP3    H118389   2.138   7.430   2.003
 6148TIP3    H218390   2.123   7.280   1.986
 6149TIP3   OH218391   0.373   4.650   6.380
 6149TIP3    H118392   0.315   4.723   6.400
 6149TIP3    H218393   0.373   4.644   6.285
 6150TIP3   OH218394   5.721   0.436   0.034
 6150TIP3    H118395   5.685   0.376  -0.030
 6150TIP3    H218396   5.815   0.437   0.016
 6151TIP3   OH218397   7.393   1.252   0.734
 6151TIP3    H118398   7.430   1.219   0.652
 6151TIP3    H218399   7.318   1.306   0.707
 6152TIP3   OH218400   7.012   5.301   0.827
 6152TIP3    H118401   6.985   5.210   0.837
 6152TIP3    H218402   7.056   5.322   0.910
 6153TIP3   OH218403   3.751   5.189   4.880
 6153TIP3    H118404   3.716   5.229   4.959
 6153TIP3    H218405   3.786   5.105   4.908
 6154TIP3   OH218406   5.392   3.244   0.032
 6154TIP3    H118407   5.344   3.281   0.106
 6154TIP3    H218408   5.356   3.157   0.021
 6155TIP3   OH218409   7.025   5.281   5.881
 6155TIP3    H118410   6.980   5.210   5.835
 6155TIP3    H218411   7.101   5.300   5.826
 6156TIP3   OH218412   6.860   5.904   2.048
 6156TIP3    H118413   6.846   5.851   2.127
 6156TIP3    H218414   6.782   5.888   1.995
 6157TIP3   OH218415   0.282   7.751   1.827
 6157TIP3    H118416   0.260   7.705   1.746
 6157TIP3    H218417   0.235   7.834   1.821
 6158TIP3   OH218418   4.736   5.837   1.872
 6158TIP3    H118419   4.747   5.777   1.799
 6158TIP3    H218420   4.651   5.814   1.910
 6159TIP3   OH218421   1.242   1.394   1.961
 6159TIP3    H118422   1.265   1.301   1.963
 6159TIP3    H218423   1.151   1.396   1.991
 6160TIP3   OH218424   2.470   3.060   6.570
 6160TIP3    H118425   2.488   3.142   6.525
 6160TIP3    H218426   2.391   3.077   6.621
 6161TIP3   OH218427   6.991   3.773   3.239
 6161TIP3    H118428   6.914   3.721   3.262
 6161TIP3    H218429   7.008   3.827   3.315
 6162TIP3   OH218430   0.227   1.898   3.185
 6162TIP3    H118431   0.187   1.870   3.267
 6162TIP3    H218432   0.225   1.821   3.129
 6163TIP3   OH218433   7.925   1.560   3.414
 6163TIP3    H118434   7.999   1.592   3.467
 6163TIP3    H218435   7.866   1.518   3.478
 6164TIP3   OH218436   3.383   3.616   6.117
 6164TIP3    H118437   3.289   3.609   6.137
 6164TIP3    H218438   3.396   3.559   6.042
 6165TIP3   OH218439   7.296   3.648   0.964
 6165TIP3    H118440   7.373   3.693   0.999
 6165TIP3    H218441   7.325   3.610   0.881
 6166TIP3   OH218442   7.382   0.200   1.038
 6166TIP3    H118443   7.289   0.185   1.022
 6166TIP3    H218444   7.391   0.198   1.133
 6167TIP3   OH218445   7.294   4.614   5.956
 6167TIP3    H118446   7.346   4.543   5.920
 6167TIP3    H218447   7.356   4.687   5.963
 6168TIP3   OH218448   6.850   0.055   6.195
 6168TIP3    H118449   6.757   0.064   6.172
 6168TIP3    H218450   6.896   0.062   6.111
 6169TIP3   OH218451   4.694   7.459   2.468
 6169TIP3    H118452   4.722   7.433   2.380
 6169TIP3    H218453   4.599   7.450   2.466
 6170TIP3   OH218454   1.944   3.414   6.246
 6170TIP3    H118455   1.949   3.329   6.202
 6170TIP3    H218456   2.036   3.438   6.261
 6171TIP3   OH218457   0.600   5.723   4.689
 6171TIP3    H118458   0.578   5.696   4.778
 6171TIP3    H218459   0.526   5.777   4.662
 6172TIP3   OH218460   1.494   4.992   5.508
 6172TIP3    H118461   1.567   5.046   5.538
 6172TIP3    H218462   1.448   4.966   5.588
 6173TIP3   OH218463   6.383   6.954   3.797
 6173TIP3    H118464   6.396   7.039   3.838
 6173TIP3    H218465   6.395   6.970   3.704
 6174TIP3   OH218466   5.172   0.910   1.810
 6174TIP3    H118467   5.077   0.925   1.815
 6174TIP3    H218468   5.189   0.899   1.717
 6175TIP3   OH218469   5.564   0.661   0.031
 6175TIP3    H118470   5.625   0.591   0.053
 6175TIP3    H218471   5.494   0.617  -0.017
 6176TIP3   OH218472   0.237   6.414   2.946
 6176TIP3    H118473   0.168   6.352   2.970
 6176TIP3    H218474   0.218   6.493   2.998
 6177TIP3   OH218475   4.472   2.646   2.799
 6177TIP3    H118476   4.398   2.652   2.738
 6177TIP3    H218477   4.533   2.713   2.768
 6178TIP3   OH218478   1.145   7.069   1.116
 6178TIP3    H118479   1.192   7.120   1.181
 6178TIP3    H218480   1.135   7.129   1.042
 6179TIP3   OH218481   2.768   3.116   0.313
 6179TIP3    H118482   2.761   3.039   0.257
 6179TIP3    H218483   2.707   3.179   0.275
 6180TIP3   OH218484   0.565   6.267   1.834
 6180TIP3    H118485   0.501   6.224   1.777
 6180TIP3    H218486   0.512   6.308   1.903
 6181TIP3   OH218487   4.761   6.364   1.574
 6181TIP3    H118488   4.801   6.426   1.635
 6181TIP3    H218489   4.822   6.359   1.501
 6182TIP3   OH218490   3.087   5.694   3.137
 6182TIP3    H118491   3.008   5.711   3.086
 6182TIP3    H218492   3.078   5.603   3.167
 6183TIP3   OH218493   3.869   0.832   2.239
 6183TIP3    H118494   3.893   0.881   2.317
 6183TIP3    H218495   3.816   0.759   2.272
 6184TIP3   OH218496   5.595   1.024   6.161
 6184TIP3    H118497   5.669   1.060   6.210
 6184TIP3    H218498   5.518   1.060   6.205
 6185TIP3   OH218499   6.836   6.961   1.250
 6185TIP3    H118500   6.814   6.883   1.199
 6185TIP3    H218501   6.901   7.007   1.197
 6186TIP3   OH218502   7.894   2.986   6.265
 6186TIP3    H118503   7.834   2.911   6.267
 6186TIP3    H218504   7.885   3.022   6.177
 6187TIP3   OH218505   5.797   5.750   1.593
 6187TIP3    H118506   5.880   5.764   1.548
 6187TIP3    H218507   5.730   5.763   1.526
 6188TIP3   OH218508   5.032   6.654   3.370
 6188TIP3    H118509   5.098   6.628   3.434
 6188TIP3    H218510   4.950   6.619   3.405
 6189TIP3   OH218511   5.880   7.775   2.224
 6189TIP3    H118512   5.798   7.755   2.270
 6189TIP3    H218513   5.872   7.729   2.141
 6190TIP3   OH218514   5.156   4.540   5.746
 6190TIP3    H118515   5.114   4.459   5.775
 6190TIP3    H218516   5.235   4.510   5.700
 6191TIP3   OH218517   2.296   7.237   1.259
 6191TIP3    H118518   2.236   7.163   1.262
 6191TIP3    H218519   2.239   7.314   1.248
 6192TIP3   OH218520   7.754   6.608   2.875
 6192TIP3    H118521   7.842   6.614   2.913
 6192TIP3    H218522   7.738   6.515   2.864
 6193TIP3   OH218523   3.440   1.027   3.581
 6193TIP3    H118524   3.363   0.976   3.606
 6193TIP3    H218525   3.496   0.965   3.533
 6194TIP3   OH218526   2.800   7.040   4.598
 6194TIP3    H118527   2.857   6.979   4.553
 6194TIP3    H218528   2.711   7.013   4.573
 6195TIP3   OH218529   6.021   0.819   4.795
 6195TIP3    H118530   5.960   0.786   4.861
 6195TIP3    H218531   6.082   0.874   4.844
 6196TIP3   OH218532   7.366   3.979   3.878
 6196TIP3    H118533   7.349   3.907   3.818
 6196TIP3    H218534   7.295   3.975   3.941
 6197TIP3   OH218535   2.366   0.819   1.358
 6197TIP3    H118536   2.338   0.887   1.420
 6197TIP3    H218537   2.299   0.751   1.366
 6198TIP3   OH218538   6.098   4.500   0.913
 6198TIP3    H118539   6.154   4.573   0.885
 6198TIP3    H218540   6.041   4.539   0.980
 6199TIP3   OH218541   0.789   0.918   4.801
 6199TIP3    H118542   0.778   0.875   4.886
 6199TIP3    H218543   0.884   0.933   4.794
 6200TIP3   OH218544   5.513   4.306   3.711
 6200TIP3    H118545   5.484   4.344   3.794
 6200TIP3    H218546   5.475   4.218   3.711
 6201TIP3   OH218547   8.002   6.992   4.888
 6201TIP3    H118548   7.941   7.004   4.815
 6201TIP3    H218549   8.050   6.913   4.866
 6202TIP3   OH218550   8.234   7.390   5.986
 6202TIP3    H118551   8.274   7.445   5.919
 6202TIP3    H218552   8.290   7.399   6.062
 6203TIP3   OH218553   1.426   1.225   0.394
 6203TIP3    H118554   1.409   1.289   0.464
 6203TIP3    H218555   1.481   1.271   0.331
 6204TIP3   OH218556   4.186   5.756   4.917
 6204TIP3    H118557   4.209   5.719   5.002
 6204TIP3    H218558   4.189   5.682   4.856
 6205TIP3   OH218559   7.100   6.615   2.370
 6205TIP3    H118560   7.010   6.605   2.400
 6205TIP3    H218561   7.102   6.572   2.284
 6206TIP3   OH218562   3.060   6.642   1.708
 6206TIP3    H118563   3.103   6.724   1.681
 6206TIP3    H218564   3.053   6.650   1.803
 6207TIP3   OH218565   2.736   2.725   0.465
 6207TIP3    H118566   2.669   2.791   0.485
 6207TIP3    H218567   2.701   2.644   0.501
 6208TIP3   OH218568   1.638   3.176   6.693
 6208TIP3    H118569   1.584   3.116   6.744
 6208TIP3    H218570   1.612   3.263   6.724
 6209TIP3   OH218571   6.529   1.163   0.690
 6209TIP3    H118572   6.555   1.107   0.617
 6209TIP3    H218573   6.538   1.108   0.768
 6210TIP3   OH218574   0.042   7.766   3.916
 6210TIP3    H118575  -0.001   7.762   4.001
 6210TIP3    H218576  -0.016   7.719   3.857
 6211TIP3   OH218577   8.213   1.827   3.795
 6211TIP3    H118578   8.198   1.756   3.733
 6211TIP3    H218579   8.140   1.887   3.781
 6212TIP3   OH218580   3.195   0.468   1.936
 6212TIP3    H118581   3.142   0.388   1.939
 6212TIP3    H218582   3.277   0.442   1.895
 6213TIP3   OH218583   1.070   0.039   1.379
 6213TIP3    H118584   1.124   0.032   1.301
 6213TIP3    H218585   1.073   0.132   1.402
 6214TIP3   OH218586   6.928   7.748   2.123
 6214TIP3    H118587   6.844   7.794   2.115
 6214TIP3    H218588   6.965   7.751   2.035
 6215TIP3   OH218589   4.336   4.060   5.625
 6215TIP3    H118590   4.295   3.973   5.621
 6215TIP3    H218591   4.313   4.094   5.711
 6216TIP3   OH218592   5.571   7.770   3.602
 6216TIP3    H118593   5.616   7.770   3.686
 6216TIP3    H218594   5.641   7.761   3.537
 6217TIP3   OH218595   1.853   6.871   1.564
 6217TIP3    H118596   1.872   6.831   1.648
 6217TIP3    H218597   1.774   6.923   1.578
 6218TIP3   OH218598   7.896   0.214   4.045
 6218TIP3    H118599   7.819   0.218   4.100
 6218TIP3    H218600   7.928   0.304   4.042
 6219TIP3   OH218601   0.309   2.687   5.937
 6219TIP3    H118602   0.264   2.653   5.860
 6219TIP3    H218603   0.379   2.624   5.955
 6220TIP3   OH218604   5.291   6.210   3.083
 6220TIP3    H118605   5.359   6.261   3.039
 6220TIP3    H218606   5.234   6.275   3.123
 6221TIP3   OH218607   3.082   2.487   3.406
 6221TIP3    H118608   3.121   2.423   3.466
 6221TIP3    H218609   2.990   2.492   3.432
 6222TIP3   OH218610   4.840   2.212   2.864
 6222TIP3    H118611   4.785   2.256   2.800
 6222TIP3    H218612   4.785   2.142   2.899
 6223TIP3   OH218613   7.987   2.385   5.857
 6223TIP3    H118614   7.995   2.290   5.864
 6223TIP3    H218615   7.977   2.402   5.763
 6224TIP3   OH218616   5.885   4.880   0.018
 6224TIP3    H118617   5.864   4.865   0.110
 6224TIP3    H218618   5.827   4.951  -0.009
 6225TIP3   OH218619   6.357   3.218   3.767
 6225TIP3    H118620   6.269   3.228   3.803
 6225TIP3    H218621   6.397   3.150   3.820
 6226TIP3   OH218622   6.955   4.736   3.995
 6226TIP3    H118623   6.949   4.813   4.053
 6226TIP3    H218624   7.020   4.761   3.929
 6227TIP3   OH218625   3.046   2.892   2.368
 6227TIP3    H118626   3.044   2.982   2.401
 6227TIP3    H218627   3.134   2.862   2.387
 6228TIP3   OH218628   0.124   3.730   1.267
 6228TIP3    H118629   0.108   3.779   1.348
 6228TIP3    H218630   0.182   3.787   1.216
 6229TIP3   OH218631   6.939   5.929   5.317
 6229TIP3    H118632   6.877   5.864   5.351
 6229TIP3    H218633   6.884   6.002   5.289
 6230TIP3   OH218634   3.299   6.000   6.374
 6230TIP3    H118635   3.219   5.952   6.398
 6230TIP3    H218636   3.336   6.027   6.458
 6231TIP3   OH218637   5.965   0.780   3.112
 6231TIP3    H118638   5.875   0.779   3.144
 6231TIP3    H218639   5.961   0.829   3.030
 6232TIP3   OH218640   5.035   6.366   3.152
 6232TIP3    H118641   4.948   6.333   3.129
 6232TIP3    H218642   5.055   6.431   3.085
 6233TIP3   OH218643   5.712   1.211   1.182
 6233TIP3    H118644   5.697   1.203   1.088
 6233TIP3    H218645   5.684   1.300   1.203
 6234TIP3   OH218646   1.031   5.571   0.626
 6234TIP3    H118647   1.037   5.481   0.658
 6234TIP3    H218648   1.012   5.623   0.704
 6235TIP3   OH218649   2.640   3.343   0.778
 6235TIP3    H118650   2.710   3.392   0.820
 6235TIP3    H218651   2.684   3.278   0.724
 6236TIP3   OH218652   7.991   2.772   4.298
 6236TIP3    H118653   8.017   2.702   4.238
 6236TIP3    H218654   7.932   2.827   4.246
 6237TIP3   OH218655   3.038   0.578   0.087
 6237TIP3    H118656   2.949   0.612   0.102
 6237TIP3    H218657   3.027   0.482   0.090
 6238TIP3   OH218658   3.709   3.555   3.985
 6238TIP3    H118659   3.694   3.477   4.039
 6238TIP3    H218660   3.804   3.563   3.980
 6239TIP3   OH218661   3.056   4.704   2.365
 6239TIP3    H118662   3.082   4.620   2.403
 6239TIP3    H218663   3.136   4.756   2.365
 6240TIP3   OH218664   5.173   1.586   4.194
 6240TIP3    H118665   5.264   1.584   4.221
 6240TIP3    H218666   5.123   1.596   4.275
 6241TIP3   OH218667   0.141   3.690   2.886
 6241TIP3    H118668   0.078   3.631   2.928
 6241TIP3    H218669   0.098   3.716   2.805
 6242TIP3   OH218670   6.548   2.748   2.453
 6242TIP3    H118671   6.579   2.658   2.444
 6242TIP3    H218672   6.544   2.782   2.364
 6243TIP3   OH218673   3.183   1.847   5.191
 6243TIP3    H118674   3.144   1.930   5.166
 6243TIP3    H218675   3.135   1.781   5.141
 6244TIP3   OH218676   3.254   3.889   3.972
 6244TIP3    H118677   3.233   3.856   3.885
 6244TIP3    H218678   3.348   3.873   3.982
 6245TIP3   OH218679   0.585   2.830   2.430
 6245TIP3    H118680   0.539   2.904   2.391
 6245TIP3    H218681   0.526   2.756   2.417
 6246TIP3   OH218682   2.066   2.601   1.167
 6246TIP3    H118683   1.974   2.582   1.147
 6246TIP3    H218684   2.088   2.675   1.111
 6247TIP3   OH218685   4.514   4.097   1.778
 6247TIP3    H118686   4.433   4.114   1.729
 6247TIP3    H218687   4.545   4.013   1.745
 6248TIP3   OH218688   7.414   3.497   0.738
 6248TIP3    H118689   7.508   3.492   0.722
 6248TIP3    H218690   7.379   3.415   0.704
 6249TIP3   OH218691   7.505   1.918   5.014
 6249TIP3    H118692   7.411   1.936   5.011
 6249TIP3    H218693   7.527   1.890   4.926
 6250TIP3   OH218694   0.480   5.240   6.614
 6250TIP3    H118695   0.414   5.179   6.646
 6250TIP3    H218696   0.559   5.187   6.603
 6251TIP3   OH218697   3.722   4.376   1.299
 6251TIP3    H118698   3.750   4.433   1.371
 6251TIP3    H218699   3.677   4.434   1.238
 6252TIP3   OH218700   0.644   4.910   0.530
 6252TIP3    H118701   0.650   4.822   0.568
 6252TIP3    H218702   0.550   4.929   0.530
 6253TIP3   OH218703   4.032   4.870   4.509
 6253TIP3    H118704   4.000   4.959   4.494
 6253TIP3    H218705   4.096   4.879   4.580
 6254TIP3   OH218706   5.859   2.609   2.162
 6254TIP3    H118707   5.814   2.578   2.241
 6254TIP3    H218708   5.911   2.683   2.192
 6255TIP3   OH218709   0.796   5.148   1.918
 6255TIP3    H118710   0.871   5.093   1.942
 6255TIP3    H218711   0.828   5.238   1.927
 6256TIP3   OH218712   4.835   4.086   3.232
 6256TIP3    H118713   4.752   4.126   3.205
 6256TIP3    H218714   4.816   3.992   3.236
 6257TIP3   OH218715   4.072   1.151   4.012
 6257TIP3    H118716   4.011   1.078   3.997
 6257TIP3    H218717   4.153   1.122   3.970
 6258TIP3   OH218718   1.738   4.770   6.145
 6258TIP3    H118719   1.702   4.738   6.062
 6258TIP3    H218720   1.680   4.841   6.170
 6259TIP3   OH218721   8.291   3.675   1.720
 6259TIP3    H118722   8.299   3.579   1.715
 6259TIP3    H218723   8.208   3.689   1.765
 6260TIP3   OH218724   6.179   5.697   6.514
 6260TIP3    H118725   6.144   5.611   6.536
 6260TIP3    H218726   6.182   5.698   6.418
 6261TIP3   OH218727   3.125   3.011   4.042
 6261TIP3    H118728   3.113   2.974   4.129
 6261TIP3    H218729   3.170   2.943   3.993
 6262TIP3   OH218730   1.993   6.338   6.067
 6262TIP3    H118731   1.915   6.285   6.081
 6262TIP3    H218732   2.026   6.311   5.982
 6263TIP3   OH218733   0.073   6.017   1.702
 6263TIP3    H118734  -0.012   6.060   1.712
 6263TIP3    H218735   0.052   5.923   1.706
 6264TIP3   OH218736   3.187   3.144   0.185
 6264TIP3    H118737   3.178   3.117   0.093
 6264TIP3    H218738   3.188   3.061   0.234
 6265TIP3   OH218739   2.198   1.409   3.132
 6265TIP3    H118740   2.230   1.320   3.114
 6265TIP3    H218741   2.105   1.406   3.111
 6266TIP3   OH218742   3.748   6.853   1.131
 6266TIP3    H118743   3.784   6.941   1.144
 6266TIP3    H218744   3.822   6.801   1.102
 6267TIP3   OH218745   8.205   7.409   4.092
 6267TIP3    H118746   8.214   7.363   4.176
 6267TIP3    H218747   8.185   7.340   4.029
 6268TIP3   OH218748   2.014   0.775   2.392
 6268TIP3    H118749   1.964   0.822   2.460
 6268TIP3    H218750   1.964   0.695   2.378
 6269TIP3   OH218751   1.805   0.602   2.881
 6269TIP3    H118752   1.821   0.527   2.939
 6269TIP3    H218753   1.732   0.649   2.921
 6270TIP3   OH218754   6.934   0.939   4.843
 6270TIP3    H118755   6.840   0.951   4.855
 6270TIP3    H218756   6.951   0.970   4.754
 6271TIP3   OH218757   0.452   1.839   6.026
 6271TIP3    H118758   0.411   1.768   5.976
 6271TIP3    H218759   0.521   1.795   6.076
 6272TIP3   OH218760   2.712   6.470   0.651
 6272TIP3    H118761   2.782   6.425   0.697
 6272TIP3    H218762   2.688   6.411   0.580
 6273TIP3   OH218763   6.066   0.607   6.765
 6273TIP3    H118764   6.135   0.589   6.829
 6273TIP3    H218765   6.108   0.590   6.680
 6274TIP3   OH218766   2.664   2.425   4.947
 6274TIP3    H118767   2.588   2.451   4.895
 6274TIP3    H218768   2.728   2.396   4.883
 6275TIP3   OH218769   2.808   0.533   2.634
 6275TIP3    H118770   2.721   0.497   2.652
 6275TIP3    H218771   2.796   0.585   2.554
 6276TIP3   OH218772   6.661   0.422   6.438
 6276TIP3    H118773   6.746   0.457   6.410
 6276TIP3    H218774   6.681   0.369   6.514
 6277TIP3   OH218775   7.502   2.177   2.538
 6277TIP3    H118776   7.511   2.162   2.444
 6277TIP3    H218777   7.409   2.196   2.550
 6278TIP3   OH218778   0.135   1.686   5.361
 6278TIP3    H118779   0.179   1.602   5.374
 6278TIP3    H218780   0.200   1.751   5.388
 6279TIP3   OH218781   1.189   0.366   4.083
 6279TIP3    H118782   1.228   0.331   4.003
 6279TIP3    H218783   1.096   0.346   4.075
 6280TIP3   OH218784   5.302   0.482   1.721
 6280TIP3    H118785   5.247   0.452   1.649
 6280TIP3    H218786   5.241   0.515   1.787
 6281TIP3   OH218787   4.146   1.337   6.660
 6281TIP3    H118788   4.216   1.347   6.725
 6281TIP3    H218789   4.069   1.315   6.712
 6282TIP3   OH218790   0.669   6.434   0.197
 6282TIP3    H118791   0.575   6.433   0.182
 6282TIP3    H218792   0.708   6.422   0.111
 6283TIP3   OH218793   8.049   0.579   4.987
 6283TIP3    H118794   8.109   0.651   5.005
 6283TIP3    H218795   8.097   0.501   5.016
 6284TIP3   OH218796   3.780   2.327   1.557
 6284TIP3    H118797   3.828   2.285   1.628
 6284TIP3    H218798   3.742   2.255   1.508
 6285TIP3   OH218799   6.504   7.296   4.946
 6285TIP3    H118800   6.436   7.348   4.905
 6285TIP3    H218801   6.476   7.206   4.936
 6286TIP3   OH218802   2.257   2.698   2.139
 6286TIP3    H118803   2.296   2.781   2.167
 6286TIP3    H218804   2.191   2.680   2.206
 6287TIP3   OH218805   0.095   2.116   6.320
 6287TIP3    H118806   0.128   2.094   6.232
 6287TIP3    H218807   0.019   2.171   6.304
 6288TIP3   OH218808   7.887   7.083   0.870
 6288TIP3    H118809   7.821   7.064   0.937
 6288TIP3    H218810   7.901   6.999   0.826
 6289TIP3   OH218811   2.221   6.964   5.096
 6289TIP3    H118812   2.306   6.922   5.086
 6289TIP3    H218813   2.227   7.044   5.044
 6290TIP3   OH218814   5.190   4.324   1.362
 6290TIP3    H118815   5.118   4.287   1.413
 6290TIP3    H218816   5.167   4.416   1.349
 6291TIP3   OH218817   2.172   2.709   4.505
 6291TIP3    H118818   2.202   2.782   4.560
 6291TIP3    H218819   2.139   2.644   4.567
 6292TIP3   OH218820   3.015   6.264   2.312
 6292TIP3    H118821   2.953   6.337   2.311
 6292TIP3    H218822   3.084   6.291   2.372
 6293TIP3   OH218823   4.959   3.446   2.100
 6293TIP3    H118824   5.027   3.382   2.122
 6293TIP3    H218825   4.877   3.398   2.107
 6294TIP3   OH218826   2.394   7.176   5.490
 6294TIP3    H118827   2.374   7.084   5.509
 6294TIP3    H218828   2.321   7.205   5.435
 6295TIP3   OH218829   2.777   3.141   0.608
 6295TIP3    H118830   2.748   3.119   0.520
 6295TIP3    H218831   2.723   3.087   0.666
 6296TIP3   OH218832   5.092   4.072   2.300
 6296TIP3    H118833   5.062   4.016   2.371
 6296TIP3    H218834   5.025   4.141   2.293
 6297TIP3   OH218835   8.176   4.059   1.771
 6297TIP3    H118836   8.194   4.153   1.776
 6297TIP3    H218837   8.210   4.024   1.854
 6298TIP3   OH218838   8.013   0.894   4.580
 6298TIP3    H118839   7.988   0.853   4.497
 6298TIP3    H218840   8.052   0.824   4.631
 6299TIP3   OH218841   6.767   4.370   4.248
 6299TIP3    H118842   6.839   4.413   4.201
 6299TIP3    H218843   6.724   4.441   4.296
 6300TIP3   OH218844   0.344   5.191   2.455
 6300TIP3    H118845   0.350   5.217   2.363
 6300TIP3    H218846   0.318   5.099   2.452
 6301TIP3   OH218847   1.613   3.859   2.113
 6301TIP3    H118848   1.614   3.924   2.042
 6301TIP3    H218849   1.677   3.892   2.177
 6302TIP3   OH218850   3.961   0.396   4.733
 6302TIP3    H118851   3.989   0.305   4.743
 6302TIP3    H218852   3.875   0.390   4.691
 6303TIP3   OH218853   3.496   1.918   4.067
 6303TIP3    H118854   3.521   1.888   3.979
 6303TIP3    H218855   3.547   1.997   4.081
 6304TIP3   OH218856   2.932   1.324   2.074
 6304TIP3    H118857   2.928   1.263   2.147
 6304TIP3    H218858   2.909   1.271   1.998
 6305TIP3   OH218859   0.070   1.494   2.986
 6305TIP3    H118860   0.160   1.509   2.958
 6305TIP3    H218861   0.046   1.574   3.033
 6306TIP3   OH218862   0.714   0.199   2.867
 6306TIP3    H118863   0.744   0.232   2.952
 6306TIP3    H218864   0.747   0.261   2.803
 6307TIP3   OH218865   3.402   1.203   0.475
 6307TIP3    H118866   3.335   1.271   0.463
 6307TIP3    H218867   3.353   1.121   0.479
 6308TIP3   OH218868   2.980   2.424   6.550
 6308TIP3    H118869   3.016   2.340   6.524
 6308TIP3    H218870   2.997   2.429   6.645
 6309TIP3   OH218871   7.252   5.283   3.987
 6309TIP3    H118872   7.345   5.269   4.002
 6309TIP3    H218873   7.224   5.207   3.935
 6310TIP3   OH218874   0.492   5.793   5.133
 6310TIP3    H118875   0.526   5.757   5.214
 6310TIP3    H218876   0.397   5.778   5.138
 6311TIP3   OH218877   7.067   6.307   2.234
 6311TIP3    H118878   7.144   6.273   2.187
 6311TIP3    H218879   7.084   6.288   2.326
 6312TIP3   OH218880   6.653   2.387   4.357
 6312TIP3    H118881   6.702   2.467   4.377
 6312TIP3    H218882   6.689   2.356   4.274
 6313TIP3   OH218883   2.430   1.741   3.372
 6313TIP3    H118884   2.492   1.814   3.379
 6313TIP3    H218885   2.471   1.670   3.421
 6314TIP3   OH218886   5.198   2.852   6.269
 6314TIP3    H118887   5.213   2.926   6.210
 6314TIP3    H218888   5.204   2.775   6.213
 6315TIP3   OH218889   0.827   7.364   4.358
 6315TIP3    H118890   0.845   7.386   4.450
 6315TIP3    H218891   0.911   7.375   4.314
 6316TIP3   OH218892   1.663   4.173   6.552
 6316TIP3    H118893   1.715   4.116   6.496
 6316TIP3    H218894   1.711   4.256   6.552
 6317TIP3   OH218895   7.455   2.656   6.308
 6317TIP3    H118896   7.440   2.563   6.291
 6317TIP3    H218897   7.379   2.699   6.268
 6318TIP3   OH218898   4.867   7.472   1.946
 6318TIP3    H118899   4.940   7.511   1.897
 6318TIP3    H218900   4.814   7.428   1.879
 6319TIP3   OH218901   6.995   3.011   3.944
 6319TIP3    H118902   6.924   2.982   3.887
 6319TIP3    H218903   7.064   2.946   3.933
 6320TIP3   OH218904   5.301   5.755   6.729
 6320TIP3    H118905   5.239   5.699   6.775
 6320TIP3    H218906   5.266   5.844   6.742
 6321TIP3   OH218907   0.042   5.730   1.272
 6321TIP3    H118908   0.071   5.655   1.324
 6321TIP3    H218909   0.081   5.716   1.186
 6322TIP3   OH218910   1.002   3.994   6.027
 6322TIP3    H118911   1.061   3.926   6.061
 6322TIP3    H218912   0.942   3.947   5.968
 6323TIP3   OH218913   6.103   4.404   5.019
 6323TIP3    H118914   6.149   4.366   4.945
 6323TIP3    H218915   6.096   4.333   5.082
 6324TIP3   OH218916   6.033   6.348   0.786
 6324TIP3    H118917   6.027   6.411   0.713
 6324TIP3    H218918   5.946   6.351   0.826
 6325TIP3   OH218919   7.083   0.082   5.543
 6325TIP3    H118920   7.043   0.011   5.493
 6325TIP3    H218921   7.164   0.101   5.496
 6326TIP3   OH218922   1.979   1.124   0.429
 6326TIP3    H118923   1.889   1.105   0.403
 6326TIP3    H218924   2.007   1.194   0.370
 6327TIP3   OH218925   6.389   6.596   3.991
 6327TIP3    H118926   6.365   6.568   4.079
 6327TIP3    H218927   6.320   6.560   3.935
 6328TIP3   OH218928   3.999   1.065   1.184
 6328TIP3    H118929   4.016   1.132   1.117
 6328TIP3    H218930   3.907   1.077   1.207
 6329TIP3   OH218931   0.346   0.636   0.823
 6329TIP3    H118932   0.295   0.676   0.894
 6329TIP3    H218933   0.334   0.696   0.749
 6330TIP3   OH218934   5.229   3.538   0.223
 6330TIP3    H118935   5.167   3.499   0.162
 6330TIP3    H218936   5.235   3.630   0.197
 6331TIP3   OH218937   7.055   5.722   4.482
 6331TIP3    H118938   7.002   5.643   4.488
 6331TIP3    H218939   7.102   5.713   4.398
 6332TIP3   OH218940   0.605   1.387   2.590
 6332TIP3    H118941   0.591   1.343   2.506
 6332TIP3    H218942   0.614   1.316   2.653
 6333TIP3   OH218943   7.353   3.567   1.365
 6333TIP3    H118944   7.421   3.625   1.330
 6333TIP3    H218945   7.388   3.479   1.351
 6334TIP3   OH218946   3.475   3.531   0.561
 6334TIP3    H118947   3.434   3.558   0.480
 6334TIP3    H218948   3.562   3.571   0.559
 6335TIP3   OH218949   2.593   6.370   6.056
 6335TIP3    H118950   2.536   6.337   6.126
 6335TIP3    H218951   2.589   6.465   6.065
 6336TIP3   OH218952   4.979   6.983   5.340
 6336TIP3    H118953   4.900   6.935   5.365
 6336TIP3    H218954   4.965   7.006   5.248
 6337TIP3   OH218955   0.580   0.022   5.416
 6337TIP3    H118956   0.579   0.032   5.321
 6337TIP3    H218957   0.664  -0.019   5.434
 6338TIP3   OH218958   7.186   2.339   1.425
 6338TIP3    H118959   7.191   2.434   1.418
 6338TIP3    H218960   7.270   2.313   1.464
 6339TIP3   OH218961   3.108   6.552   5.621
 6339TIP3    H118962   3.126   6.532   5.529
 6339TIP3    H218963   3.094   6.466   5.661
 6340TIP3   OH218964   0.640   2.442   1.991
 6340TIP3    H118965   0.587   2.364   2.002
 6340TIP3    H218966   0.581   2.515   2.009
 6341TIP3   OH218967   1.339   0.666   0.470
 6341TIP3    H118968   1.332   0.666   0.375
 6341TIP3    H218969   1.322   0.756   0.496
 6342TIP3   OH218970   7.211   5.238   0.283
 6342TIP3    H118971   7.282   5.173   0.282
 6342TIP3    H218972   7.182   5.238   0.374
 6343TIP3   OH218973   5.716   4.818   4.035
 6343TIP3    H118974   5.744   4.892   4.090
 6343TIP3    H218975   5.796   4.768   4.020
 6344TIP3   OH218976   4.010   5.302   0.576
 6344TIP3    H118977   4.075   5.358   0.618
 6344TIP3    H218978   3.937   5.300   0.638
 6345TIP3   OH218979   5.608   3.116   2.977
 6345TIP3    H118980   5.649   3.030   2.983
 6345TIP3    H218981   5.599   3.145   3.068
 6346TIP3   OH218982   7.737   0.444   2.617
 6346TIP3    H118983   7.776   0.394   2.546
 6346TIP3    H218984   7.759   0.394   2.696
 6347TIP3   OH218985   2.327   3.143   0.688
 6347TIP3    H118986   2.362   3.152   0.599
 6347TIP3    H218987   2.261   3.075   0.681
 6348TIP3   OH218988   0.343   1.063   3.017
 6348TIP3    H118989   0.248   1.070   3.022
 6348TIP3    H218990   0.374   1.108   3.096
 6349TIP3   OH218991   0.277   1.944   2.188
 6349TIP3    H118992   0.269   1.881   2.259
 6349TIP3    H218993   0.324   2.018   2.226
 6350TIP3   OH218994   1.416   6.515   2.221
 6350TIP3    H118995   1.372   6.472   2.294
 6350TIP3    H218996   1.496   6.551   2.259
 6351TIP3   OH218997   1.338   7.639   5.688
 6351TIP3    H118998   1.387   7.560   5.663
 6351TIP3    H218999   1.249   7.607   5.704
 6352TIP3   OH219000   2.853   3.358   5.811
 6352TIP3    H119001   2.762   3.326   5.808
 6352TIP3    H219002   2.902   3.288   5.853
 6353TIP3   OH219003   3.581   7.628   5.242
 6353TIP3    H119004   3.621   7.541   5.239
 6353TIP3    H219005   3.612   7.671   5.163
 6354TIP3   OH219006   3.064   4.365   6.768
 6354TIP3    H119007   3.051   4.459   6.781
 6354TIP3    H219008   3.146   4.358   6.720
 6355TIP3   OH219009   0.117   2.248   0.099
 6355TIP3    H119010   0.025   2.274   0.095
 6355TIP3    H219011   0.115   2.155   0.120
 6356TIP3   OH219012   6.842   2.863   4.793
 6356TIP3    H119013   6.914   2.802   4.807
 6356TIP3    H219014   6.880   2.950   4.805
 6357TIP3   OH219015   3.782   1.181   3.300
 6357TIP3    H119016   3.716   1.159   3.234
 6357TIP3    H219017   3.863   1.141   3.269
 6358TIP3   OH219018   4.840   6.680   0.393
 6358TIP3    H119019   4.901   6.615   0.357
 6358TIP3    H219020   4.758   6.633   0.403
 6359TIP3   OH219021   5.063   0.876   4.189
 6359TIP3    H119022   5.125   0.824   4.240
 6359TIP3    H219023   5.021   0.813   4.130
 6360TIP3   OH219024   0.506   4.025   4.035
 6360TIP3    H119025   0.411   4.029   4.048
 6360TIP3    H219026   0.524   3.932   4.019
 6361TIP3   OH219027   1.512   6.854   6.571
 6361TIP3    H119028   1.477   6.870   6.483
 6361TIP3    H219029   1.510   6.759   6.580
 6362TIP3   OH219030   8.144   6.185   4.591
 6362TIP3    H119031   8.061   6.153   4.557
 6362TIP3    H219032   8.163   6.263   4.539
 6363TIP3   OH219033   5.184   3.813   0.164
 6363TIP3    H119034   5.238   3.866   0.106
 6363TIP3    H219035   5.112   3.871   0.189
 6364TIP3   OH219036   0.649   6.014   4.166
 6364TIP3    H119037   0.584   5.945   4.151
 6364TIP3    H219038   0.636   6.076   4.095
 6365TIP3   OH219039   6.703   3.695   0.115
 6365TIP3    H119040   6.636   3.740   0.166
 6365TIP3    H219041   6.692   3.602   0.136
 6366TIP3   OH219042   0.145   1.612   6.214
 6366TIP3    H119043   0.130   1.529   6.168
 6366TIP3    H219044   0.076   1.670   6.182
 6367TIP3   OH219045   7.649   1.455   3.228
 6367TIP3    H119046   7.687   1.367   3.222
 6367TIP3    H219047   7.611   1.458   3.316
 6368TIP3   OH219048   1.371   0.315   6.516
 6368TIP3    H119049   1.312   0.366   6.572
 6368TIP3    H219050   1.418   0.381   6.465
 6369TIP3   OH219051   4.201   0.744   5.964
 6369TIP3    H119052   4.218   0.650   5.960
 6369TIP3    H219053   4.211   0.766   6.057
 6370TIP3   OH219054   7.682   6.169   6.250
 6370TIP3    H119055   7.743   6.176   6.177
 6370TIP3    H219056   7.737   6.169   6.329
 6371TIP3   OH219057   8.086   1.941   0.813
 6371TIP3    H119058   8.095   1.875   0.881
 6371TIP3    H219059   8.166   1.993   0.820
 6372TIP3   OH219060   5.562   3.490   4.140
 6372TIP3    H119061   5.513   3.559   4.184
 6372TIP3    H219062   5.495   3.430   4.108
 6373TIP3   OH219063   0.293   2.844   3.179
 6373TIP3    H119064   0.254   2.782   3.240
 6373TIP3    H219065   0.230   2.850   3.107
 6374TIP3   OH219066   3.121   5.055   4.292
 6374TIP3    H119067   3.213   5.057   4.264
 6374TIP3    H219068   3.074   5.100   4.222
 6375TIP3   OH219069   5.905   2.901   6.292
 6375TIP3    H119070   5.853   2.832   6.333
 6375TIP3    H219071   5.857   2.981   6.311
 6376TIP3   OH219072   5.837   3.780   0.510
 6376TIP3    H119073   5.900   3.708   0.522
 6376TIP3    H219074   5.821   3.782   0.416
 6377TIP3   OH219075   5.265   1.327   6.221
 6377TIP3    H119076   5.200   1.387   6.183
 6377TIP3    H219077   5.237   1.240   6.193
 6378TIP3   OH219078   4.119   7.048   0.910
 6378TIP3    H119079   4.138   7.127   0.859
 6378TIP3    H219080   4.198   7.034   0.963
 6379TIP3   OH219081   6.763   6.359   2.950
 6379TIP3    H119082   6.732   6.376   2.861
 6379TIP3    H219083   6.684   6.362   3.004
 6380TIP3   OH219084   6.293   1.565   2.793
 6380TIP3    H119085   6.311   1.659   2.794
 6380TIP3    H219086   6.198   1.558   2.787
 6381TIP3   OH219087   3.979   6.736   6.348
 6381TIP3    H119088   4.045   6.742   6.279
 6381TIP3    H219089   4.026   6.756   6.429
 6382TIP3   OH219090   7.204   4.410   6.117
 6382TIP3    H119091   7.234   4.485   6.067
 6382TIP3    H219092   7.146   4.362   6.057
 6383TIP3   OH219093   1.050   5.976   1.162
 6383TIP3    H119094   1.068   5.978   1.256
 6383TIP3    H219095   1.036   5.883   1.143
 6384TIP3   OH219096   1.503   6.753   2.957
 6384TIP3    H119097   1.565   6.713   2.897
 6384TIP3    H219098   1.425   6.697   2.951
 6385TIP3   OH219099   4.601   2.953   6.363
 6385TIP3    H119100   4.558   3.014   6.303
 6385TIP3    H219101   4.628   3.007   6.438
 6386TIP3   OH219102   4.587   4.279   4.099
 6386TIP3    H119103   4.588   4.185   4.113
 6386TIP3    H219104   4.592   4.317   4.187
 6387TIP3   OH219105   0.924   2.772   4.679
 6387TIP3    H119106   0.993   2.742   4.738
 6387TIP3    H219107   0.968   2.779   4.594
 6388TIP3   OH219108   5.807   5.597   5.151
 6388TIP3    H119109   5.766   5.611   5.237
 6388TIP3    H219110   5.767   5.516   5.119
 6389TIP3   OH219111   2.353   5.451   2.450
 6389TIP3    H119112   2.442   5.416   2.444
 6389TIP3    H219113   2.297   5.375   2.435
 6390TIP3   OH219114   2.870   2.792   5.105
 6390TIP3    H119115   2.857   2.873   5.154
 6390TIP3    H219116   2.781   2.761   5.087
 6391TIP3   OH219117   2.588   2.898   6.333
 6391TIP3    H119118   2.554   2.896   6.422
 6391TIP3    H219119   2.676   2.861   6.340
 6392TIP3   OH219120   3.493   3.816   0.015
 6392TIP3    H119121   3.562   3.785   0.072
 6392TIP3    H219122   3.419   3.757   0.032
 6393TIP3   OH219123   0.913   1.475   3.697
 6393TIP3    H119124   0.924   1.569   3.713
 6393TIP3    H219125   0.844   1.448   3.758
 6394TIP3   OH219126   5.122   6.028   0.025
 6394TIP3    H119127   5.096   6.119   0.011
 6394TIP3    H219128   5.138   6.022   0.119
 6395TIP3   OH219129   0.165   0.121   6.384
 6395TIP3    H119130   0.200   0.033   6.397
 6395TIP3    H219131   0.183   0.167   6.466
 6396TIP3   OH219132   5.040   6.319   2.675
 6396TIP3    H119133   5.024   6.234   2.718
 6396TIP3    H219134   5.017   6.384   2.742
 6397TIP3   OH219135   1.505   0.315   4.359
 6397TIP3    H119136   1.583   0.368   4.375
 6397TIP3    H219137   1.472   0.293   4.446
 6398TIP3   OH219138   4.578   5.990   3.965
 6398TIP3    H119139   4.568   6.076   4.006
 6398TIP3    H219140   4.612   6.009   3.878
 6399TIP3   OH219141   0.140   6.742   2.829
 6399TIP3    H119142   0.220   6.729   2.778
 6399TIP3    H219143   0.070   6.709   2.773
 6400TIP3   OH219144   4.370   6.339   0.981
 6400TIP3    H119145   4.460   6.333   1.013
 6400TIP3    H219146   4.318   6.296   1.048
 6401TIP3   OH219147   8.056   6.513   2.489
 6401TIP3    H119148   8.123   6.494   2.424
 6401TIP3    H219149   8.016   6.428   2.508
 6402TIP3   OH219150   4.065   1.449   2.244
 6402TIP3    H119151   4.144   1.496   2.270
 6402TIP3    H219152   4.095   1.387   2.177
 6403TIP3   OH219153   1.196   7.467   3.535
 6403TIP3    H119154   1.191   7.410   3.458
 6403TIP3    H219155   1.242   7.414   3.600
 6404TIP3   OH219156   7.267   7.417   3.690
 6404TIP3    H119157   7.350   7.407   3.644
 6404TIP3    H219158   7.227   7.330   3.686
 6405TIP3   OH219159   7.151   2.294   0.566
 6405TIP3    H119160   7.150   2.292   0.471
 6405TIP3    H219161   7.059   2.297   0.591
 6406TIP3   OH219162   7.830   6.463   2.278
 6406TIP3    H119163   7.818   6.504   2.364
 6406TIP3    H219164   7.911   6.501   2.244
 6407TIP3   OH219165   5.537   5.628   3.577
 6407TIP3    H119166   5.445   5.652   3.571
 6407TIP3    H219167   5.543   5.579   3.660
 6408TIP3   OH219168   3.067   0.515   5.849
 6408TIP3    H119169   3.162   0.525   5.852
 6408TIP3    H219170   3.036   0.549   5.933
 6409TIP3   OH219171   6.357   7.779   5.021
 6409TIP3    H119172   6.389   7.740   5.102
 6409TIP3    H219173   6.436   7.802   4.972
 6410TIP3   OH219174   6.390   4.861   4.838
 6410TIP3    H119175   6.393   4.770   4.808
 6410TIP3    H219176   6.331   4.860   4.913
 6411TIP3   OH219177   3.527   0.991   1.314
 6411TIP3    H119178   3.487   1.065   1.361
 6411TIP3    H219179   3.536   0.923   1.380
 6412TIP3   OH219180   4.161   5.820   6.672
 6412TIP3    H119181   4.241   5.797   6.718
 6412TIP3    H219182   4.131   5.901   6.713
 6413TIP3   OH219183   6.324   0.564   0.534
 6413TIP3    H119184   6.271   0.595   0.461
 6413TIP3    H219185   6.397   0.626   0.539
 6414TIP3   OH219186   5.539   3.747   5.988
 6414TIP3    H119187   5.454   3.774   5.953
 6414TIP3    H219188   5.534   3.767   6.081
 6415TIP3   OH219189   7.897   4.565   1.435
 6415TIP3    H119190   7.835   4.589   1.366
 6415TIP3    H219191   7.980   4.552   1.388
 6416TIP3   OH219192   1.821   6.303   1.447
 6416TIP3    H119193   1.837   6.247   1.523
 6416TIP3    H219194   1.797   6.242   1.376
 6417TIP3   OH219195   0.480   0.928   0.528
 6417TIP3    H119196   0.568   0.908   0.559
 6417TIP3    H219197   0.492   0.965   0.441
 6418TIP3   OH219198   2.182   5.046   3.300
 6418TIP3    H119199   2.231   5.062   3.381
 6418TIP3    H219200   2.098   5.010   3.330
 6419TIP3   OH219201   5.922   6.443   0.404
 6419TIP3    H119202   5.997   6.469   0.457
 6419TIP3    H219203   5.952   6.453   0.314
 6420TIP3   OH219204   4.107   3.199   0.642
 6420TIP3    H119205   4.141   3.256   0.711
 6420TIP3    H219206   4.048   3.139   0.687
 6421TIP3   OH219207   5.456   6.719   0.331
 6421TIP3    H119208   5.548   6.720   0.358
 6421TIP3    H219209   5.408   6.744   0.410
 6422TIP3   OH219210   2.198   6.324   4.480
 6422TIP3    H119211   2.179   6.414   4.506
 6422TIP3    H219212   2.163   6.316   4.392
 6423TIP3   OH219213   0.278   4.555   3.015
 6423TIP3    H119214   0.210   4.619   3.035
 6423TIP3    H219215   0.231   4.484   2.971
 6424TIP3   OH219216   3.818   6.098   5.204
 6424TIP3    H119217   3.789   6.171   5.258
 6424TIP3    H219218   3.800   6.020   5.257
 6425TIP3   OH219219   2.822   4.068   1.738
 6425TIP3    H119220   2.903   4.115   1.755
 6425TIP3    H219221   2.808   4.014   1.816
 6426TIP3   OH219222   3.705   5.239   5.170
 6426TIP3    H119223   3.659   5.308   5.122
 6426TIP3    H219224   3.678   5.251   5.261
 6427TIP3   OH219225   3.393   2.350   0.160
 6427TIP3    H119226   3.326   2.410   0.126
 6427TIP3    H219227   3.400   2.373   0.253
 6428TIP3   OH219228   2.674   3.553   3.411
 6428TIP3    H119229   2.651   3.593   3.495
 6428TIP3    H219230   2.591   3.541   3.366
 6429TIP3   OH219231   5.988   3.363   1.117
 6429TIP3    H119232   6.024   3.328   1.035
 6429TIP3    H219233   6.065   3.378   1.172
 6430TIP3   OH219234   8.170   1.904   1.624
 6430TIP3    H119235   8.094   1.848   1.638
 6430TIP3    H219236   8.216   1.905   1.708
 6431TIP3   OH219237   3.507   0.241   3.603
 6431TIP3    H119238   3.464   0.169   3.650
 6431TIP3    H219239   3.486   0.319   3.655
 6432TIP3   OH219240   7.604   7.087   2.869
 6432TIP3    H119241   7.534   7.022   2.858
 6432TIP3    H219242   7.677   7.053   2.817
 6433TIP3   OH219243   1.846   0.231   2.913
 6433TIP3    H119244   1.848   0.150   2.862
 6433TIP3    H219245   1.927   0.276   2.890
 6434TIP3   OH219246   5.402   6.243   5.562
 6434TIP3    H119247   5.378   6.333   5.539
 6434TIP3    H219248   5.367   6.230   5.649
 6435TIP3   OH219249   3.177   4.138   6.564
 6435TIP3    H119250   3.126   4.112   6.641
 6435TIP3    H219251   3.214   4.223   6.586
 6436TIP3   OH219252   4.912   1.660   2.144
 6436TIP3    H119253   4.890   1.748   2.114
 6436TIP3    H219254   4.933   1.671   2.237
 6437TIP3   OH219255   0.642   3.375   6.349
 6437TIP3    H119256   0.582   3.443   6.378
 6437TIP3    H219257   0.715   3.423   6.309
 6438TIP3   OH219258   5.895   2.552   5.306
 6438TIP3    H119259   5.859   2.576   5.220
 6438TIP3    H219260   5.924   2.462   5.295
 6439TIP3   OH219261   5.353   2.869   4.145
 6439TIP3    H119262   5.367   2.783   4.105
 6439TIP3    H219263   5.262   2.889   4.127
 6440TIP3   OH219264   7.241   3.031   6.282
 6440TIP3    H119265   7.271   2.944   6.311
 6440TIP3    H219266   7.315   3.089   6.298
 6441TIP3   OH219267   1.381   6.890   2.579
 6441TIP3    H119268   1.307   6.947   2.602
 6441TIP3    H219269   1.356   6.853   2.494
 6442TIP3   OH219270   7.933   1.369   3.699
 6442TIP3    H119271   7.983   1.339   3.622
 6442TIP3    H219272   7.973   1.323   3.773
 6443TIP3   OH219273   4.619   4.033   6.061
 6443TIP3    H119274   4.680   4.105   6.077
 6443TIP3    H219275   4.562   4.032   6.138
 6444TIP3   OH219276   5.976   6.492   0.146
 6444TIP3    H119277   6.046   6.549   0.116
 6444TIP3    H219278   5.979   6.417   0.086
 6445TIP3   OH219279   4.613   0.918   0.798
 6445TIP3    H119280   4.571   1.004   0.804
 6445TIP3    H219281   4.692   0.926   0.851
 6446TIP3   OH219282   6.735   6.287   4.379
 6446TIP3    H119283   6.737   6.191   4.372
 6446TIP3    H219284   6.789   6.306   4.456
 6447TIP3   OH219285   2.455   4.872   1.121
 6447TIP3    H119286   2.513   4.906   1.189
 6447TIP3    H219287   2.469   4.777   1.123
 6448TIP3   OH219288   7.824   6.248   5.033
 6448TIP3    H119289   7.878   6.261   5.111
 6448TIP3    H219290   7.742   6.213   5.066
 6449TIP3   OH219291   6.017   6.245   0.026
 6449TIP3    H119292   6.034   6.222   0.117
 6449TIP3    H219293   5.940   6.194   0.002
 6450TIP3   OH219294   3.370   0.202   3.117
 6450TIP3    H119295   3.298   0.215   3.055
 6450TIP3    H219296   3.405   0.116   3.093
 6451TIP3   OH219297   5.849   0.779   0.193
 6451TIP3    H119298   5.911   0.708   0.203
 6451TIP3    H219299   5.867   0.816   0.107
 6452TIP3   OH219300   3.829   0.495   1.970
 6452TIP3    H119301   3.845   0.576   1.921
 6452TIP3    H219302   3.749   0.460   1.933
 6453TIP3   OH219303   2.626   0.377   0.416
 6453TIP3    H119304   2.656   0.305   0.471
 6453TIP3    H219305   2.665   0.359   0.330
 6454TIP3   OH219306   5.656   3.080   6.272
 6454TIP3    H119307   5.646   3.135   6.194
 6454TIP3    H219308   5.611   2.998   6.251
 6455TIP3   OH219309   4.872   6.140   0.152
 6455TIP3    H119310   4.963   6.121   0.176
 6455TIP3    H219311   4.879   6.198   0.077
 6456TIP3   OH219312   0.494   2.418   0.831
 6456TIP3    H119313   0.527   2.330   0.818
 6456TIP3    H219314   0.402   2.414   0.804
 6457TIP3   OH219315   0.653   7.762   0.346
 6457TIP3    H119316   0.624   7.842   0.390
 6457TIP3    H219317   0.572   7.716   0.325
 6458TIP3   OH219318   3.605   3.084   4.341
 6458TIP3    H119319   3.576   3.071   4.431
 6458TIP3    H219320   3.696   3.054   4.341
 6459TIP3   OH219321   2.650   5.882   5.576
 6459TIP3    H119322   2.651   5.824   5.499
 6459TIP3    H219323   2.741   5.886   5.604
 6460TIP3   OH219324   4.627   5.711   1.147
 6460TIP3    H119325   4.700   5.745   1.199
 6460TIP3    H219326   4.655   5.623   1.120
 6461TIP3   OH219327   5.023   2.639   5.901
 6461TIP3    H119328   5.096   2.591   5.863
 6461TIP3    H219329   4.977   2.677   5.826
 6462TIP3   OH219330   2.463   2.445   0.903
 6462TIP3    H119331   2.557   2.435   0.915
 6462TIP3    H219332   2.445   2.403   0.819
 6463TIP3   OH219333   0.603   3.363   0.464
 6463TIP3    H119334   0.691   3.346   0.430
 6463TIP3    H219335   0.614   3.441   0.519
 6464TIP3   OH219336   5.569   2.727   0.835
 6464TIP3    H119337   5.628   2.779   0.781
 6464TIP3    H219338   5.592   2.636   0.815
 6465TIP3   OH219339   5.786   1.545   5.841
 6465TIP3    H119340   5.829   1.631   5.833
 6465TIP3    H219341   5.858   1.484   5.855
 6466TIP3   OH219342   3.643   6.428   3.141
 6466TIP3    H119343   3.566   6.430   3.084
 6466TIP3    H219344   3.687   6.346   3.120
 6467TIP3   OH219345   4.495   5.142   6.566
 6467TIP3    H119346   4.536   5.155   6.481
 6467TIP3    H219347   4.401   5.157   6.551
 6468TIP3   OH219348   6.231   2.578   5.035
 6468TIP3    H119349   6.229   2.520   4.959
 6468TIP3    H219350   6.287   2.651   5.008
 6469TIP3   OH219351   5.931   5.822   5.071
 6469TIP3    H119352   5.944   5.809   4.977
 6469TIP3    H219353   5.884   5.744   5.100
 6470TIP3   OH219354   5.595   6.769   0.893
 6470TIP3    H119355   5.549   6.690   0.922
 6470TIP3    H219356   5.528   6.822   0.850
 6471TIP3   OH219357   3.540   1.622   2.802
 6471TIP3    H119358   3.464   1.622   2.861
 6471TIP3    H219359   3.503   1.619   2.714
 6472TIP3   OH219360   1.462   2.519   6.520
 6472TIP3    H119361   1.391   2.455   6.513
 6472TIP3    H219362   1.487   2.536   6.429
 6473TIP3   OH219363   5.836   6.066   1.421
 6473TIP3    H119364   5.922   6.098   1.394
 6473TIP3    H219365   5.801   6.135   1.477
 6474TIP3   OH219366   4.261   5.303   2.394
 6474TIP3    H119367   4.202   5.329   2.465
 6474TIP3    H219368   4.219   5.227   2.355
 6475TIP3   OH219369   3.946   5.796   3.325
 6475TIP3    H119370   4.033   5.804   3.285
 6475TIP3    H219371   3.964   5.794   3.420
 6476TIP3   OH219372   5.332   4.716   2.993
 6476TIP3    H119373   5.297   4.644   3.045
 6476TIP3    H219374   5.381   4.769   3.056
 6477TIP3   OH219375   2.238   6.269   0.074
 6477TIP3    H119376   2.198   6.329   0.011
 6477TIP3    H219377   2.332   6.277   0.058
 6478TIP3   OH219378   6.256   5.596   3.067
 6478TIP3    H119379   6.172   5.610   3.112
 6478TIP3    H219380   6.243   5.633   2.980
 6479TIP3   OH219381   4.352   5.665   5.565
 6479TIP3    H119382   4.389   5.598   5.624
 6479TIP3    H219383   4.373   5.748   5.608
 6480TIP3   OH219384   2.357   2.945   0.999
 6480TIP3    H119385   2.266   2.918   1.012
 6480TIP3    H219386   2.393   2.951   1.087
 6481TIP3   OH219387   2.237   2.500   1.944
 6481TIP3    H119388   2.331   2.489   1.958
 6481TIP3    H219389   2.213   2.574   2.000
 6482TIP3   OH219390   6.106   2.059   2.955
 6482TIP3    H119391   6.075   2.088   3.040
 6482TIP3    H219392   6.057   2.113   2.892
 6483TIP3   OH219393   2.138   2.660   0.331
 6483TIP3    H119394   2.204   2.701   0.275
 6483TIP3    H219395   2.177   2.662   0.418
 6484TIP3   OH219396   6.890   3.667   6.165
 6484TIP3    H119397   6.862   3.659   6.074
 6484TIP3    H219398   6.977   3.627   6.167
 6485TIP3   OH219399   1.035   5.448   3.458
 6485TIP3    H119400   1.052   5.379   3.394
 6485TIP3    H219401   1.100   5.515   3.439
 6486TIP3   OH219402   4.662   6.496   2.906
 6486TIP3    H119403   4.707   6.441   2.971
 6486TIP3    H219404   4.581   6.522   2.950
 6487TIP3   OH219405   8.166   7.811   5.715
 6487TIP3    H119406   8.239   7.773   5.763
 6487TIP3    H219407   8.144   7.746   5.648
 6488TIP3   OH219408   4.223   1.664   6.104
 6488TIP3    H119409   4.193   1.754   6.092
 6488TIP3    H219410   4.152   1.610   6.068
 6489TIP3   OH219411   5.535   6.004   3.366
 6489TIP3    H119412   5.475   5.988   3.293
 6489TIP3    H219413   5.488   6.066   3.423
 6490TIP3   OH219414   1.818   4.872   5.806
 6490TIP3    H119415   1.898   4.900   5.848
 6490TIP3    H219416   1.749   4.885   5.872
 6491TIP3   OH219417   3.405   5.125   6.630
 6491TIP3    H119418   3.444   5.172   6.704
 6491TIP3    H219419   3.403   5.033   6.659
 6492TIP3   OH219420   0.023   0.104   0.832
 6492TIP3    H119421   0.083   0.128   0.762
 6492TIP3    H219422  -0.023   0.185   0.854
 6493TIP3   OH219423   2.030   5.791   6.185
 6493TIP3    H119424   1.955   5.731   6.185
 6493TIP3    H219425   2.065   5.785   6.274
 6494TIP3   OH219426   7.978   4.467   5.389
 6494TIP3    H119427   8.033   4.390   5.376
 6494TIP3    H219428   8.034   4.527   5.439
 6495TIP3   OH219429   1.093  -0.001   2.090
 6495TIP3    H119430   1.101   0.058   2.165
 6495TIP3    H219431   1.045  -0.077   2.123
 6496TIP3   OH219432   8.010   0.070   5.347
 6496TIP3    H119433   8.022   0.078   5.253
 6496TIP3    H219434   8.093   0.099   5.385
 6497TIP3   OH219435   4.230   7.028   4.919
 6497TIP3    H119436   4.273   6.985   4.993
 6497TIP3    H219437   4.136   7.023   4.939
 6498TIP3   OH219438   1.646   3.935   5.455
 6498TIP3    H119439   1.734   3.929   5.417
 6498TIP3    H219440   1.606   3.850   5.435
 6499TIP3   OH219441   5.925   0.392   0.439
 6499TIP3    H119442   5.907   0.401   0.532
 6499TIP3    H219443   5.913   0.299   0.420
 6500TIP3   OH219444   5.259   6.859   5.400
 6500TIP3    H119445   5.185   6.904   5.442
 6500TIP3    H219446   5.333   6.875   5.459
 6501TIP3   OH219447   4.968   4.912   3.852
 6501TIP3    H119448   5.023   4.971   3.800
 6501TIP3    H219449   4.994   4.929   3.943
 6502TIP3   OH219450   2.876   1.463   3.379
 6502TIP3    H119451   2.904   1.373   3.396
 6502TIP3    H219452   2.957   1.513   3.372
 6503TIP3   OH219453   6.206   3.510   1.738
 6503TIP3    H119454   6.261   3.503   1.816
 6503TIP3    H219455   6.117   3.497   1.771
 6504TIP3   OH219456   2.551   4.085   3.015
 6504TIP3    H119457   2.516   4.134   2.940
 6504TIP3    H219458   2.626   4.137   3.044
 6505TIP3   OH219459   4.451   3.400   0.916
 6505TIP3    H119460   4.464   3.444   0.999
 6505TIP3    H219461   4.480   3.463   0.850
 6506TIP3   OH219462   2.151   0.370   2.421
 6506TIP3    H119463   2.089   0.305   2.454
 6506TIP3    H219464   2.169   0.427   2.495
 6507TIP3   OH219465   0.944   1.091   0.146
 6507TIP3    H119466   1.021   1.146   0.128
 6507TIP3    H219467   0.978   1.002   0.142
 6508TIP3   OH219468   2.549   3.211   2.447
 6508TIP3    H119469   2.607   3.138   2.430
 6508TIP3    H219470   2.557   3.228   2.541
 6509TIP3   OH219471   0.446   6.751   5.820
 6509TIP3    H119472   0.489   6.809   5.758
 6509TIP3    H219473   0.462   6.790   5.906
 6510TIP3   OH219474   5.129   2.263   5.285
 6510TIP3    H119475   5.147   2.285   5.376
 6510TIP3    H219476   5.194   2.312   5.235
 6511TIP3   OH219477   3.627   1.881   3.372
 6511TIP3    H119478   3.604   1.800   3.417
 6511TIP3    H219479   3.559   1.943   3.399
 6512TIP3   OH219480   6.073   4.900   4.261
 6512TIP3    H119481   6.074   4.808   4.287
 6512TIP3    H219482   6.148   4.939   4.306
 6513TIP3   OH219483   4.265   5.885   2.277
 6513TIP3    H119484   4.197   5.929   2.328
 6513TIP3    H219485   4.241   5.792   2.281
 6514TIP3   OH219486   1.283   0.297   5.005
 6514TIP3    H119487   1.227   0.357   5.054
 6514TIP3    H219488   1.339   0.354   4.952
 6515TIP3   OH219489   3.657   4.910   0.786
 6515TIP3    H119490   3.596   4.838   0.768
 6515TIP3    H219491   3.744   4.872   0.772
 6516TIP3   OH219492   4.749   1.412   2.997
 6516TIP3    H119493   4.818   1.428   3.061
 6516TIP3    H219494   4.690   1.349   3.039
 6517TIP3   OH219495   1.624   1.705   5.333
 6517TIP3    H119496   1.717   1.712   5.313
 6517TIP3    H219497   1.607   1.611   5.335
 6518TIP3   OH219498   2.896   2.098   3.339
 6518TIP3    H119499   2.905   2.151   3.418
 6518TIP3    H219500   2.878   2.162   3.270
 6519TIP3   OH219501   7.114   6.341   0.692
 6519TIP3    H119502   7.060   6.267   0.719
 6519TIP3    H219503   7.083   6.363   0.604
 6520TIP3   OH219504   8.021   1.589   5.150
 6520TIP3    H119505   8.054   1.533   5.220
 6520TIP3    H219506   8.099   1.629   5.112
 6521TIP3   OH219507   6.466   3.540   1.207
 6521TIP3    H119508   6.472   3.480   1.132
 6521TIP3    H219509   6.373   3.539   1.230
 6522TIP3   OH219510   6.416   6.550   2.741
 6522TIP3    H119511   6.401   6.579   2.651
 6522TIP3    H219512   6.507   6.518   2.740
 6523TIP3   OH219513   1.482   3.778   1.117
 6523TIP3    H119514   1.534   3.815   1.046
 6523TIP3    H219515   1.464   3.688   1.090
 6524TIP3   OH219516   6.420   4.104   0.949
 6524TIP3    H119517   6.470   4.049   1.010
 6524TIP3    H219518   6.451   4.078   0.862
 6525TIP3   OH219519   3.975   6.030   2.318
 6525TIP3    H119520   3.985   6.057   2.227
 6525TIP3    H219521   3.960   6.112   2.366
 6526TIP3   OH219522   2.747   2.742   1.269
 6526TIP3    H119523   2.710   2.690   1.341
 6526TIP3    H219524   2.832   2.772   1.303
 6527TIP3   OH219525   0.353   3.296   3.528
 6527TIP3    H119526   0.299   3.308   3.607
 6527TIP3    H219527   0.412   3.371   3.529
 6528TIP3   OH219528   6.302   6.533   5.894
 6528TIP3    H119529   6.240   6.599   5.862
 6528TIP3    H219530   6.315   6.474   5.820
 6529TIP3   OH219531   6.432   4.367   1.562
 6529TIP3    H119532   6.459   4.392   1.650
 6529TIP3    H219533   6.412   4.273   1.569
 6530TIP3   OH219534   4.687   1.256   0.600
 6530TIP3    H119535   4.700   1.343   0.561
 6530TIP3    H219536   4.655   1.274   0.688
 6531TIP3   OH219537   4.731   3.573   0.522
 6531TIP3    H119538   4.687   3.525   0.452
 6531TIP3    H219539   4.824   3.568   0.500
 6532TIP3   OH219540   6.615   7.737   2.500
 6532TIP3    H119541   6.678   7.754   2.430
 6532TIP3    H219542   6.609   7.819   2.548
 6533TIP3   OH219543   8.002   3.674   5.226
 6533TIP3    H119544   7.969   3.590   5.195
 6533TIP3    H219545   8.013   3.662   5.320
 6534TIP3   OH219546   7.181   2.017   2.632
 6534TIP3    H119547   7.093   1.994   2.660
 6534TIP3    H219548   7.192   1.973   2.548
 6535TIP3   OH219549   1.270   0.163   0.380
 6535TIP3    H119550   1.191   0.213   0.361
 6535TIP3    H219551   1.257   0.080   0.334
 6536TIP3   OH219552   3.141   3.541   6.188
 6536TIP3    H119553   3.067   3.532   6.128
 6536TIP3    H219554   3.170   3.451   6.204
 6537TIP3   OH219555   1.514   2.264   0.156
 6537TIP3    H119556   1.533   2.345   0.203
 6537TIP3    H219557   1.537   2.283   0.065
 6538TIP3   OH219558   2.345   1.903   4.916
 6538TIP3    H119559   2.324   1.823   4.869
 6538TIP3    H219560   2.427   1.884   4.962
 6539TIP3   OH219561   1.484   4.435   5.610
 6539TIP3    H119562   1.510   4.520   5.573
 6539TIP3    H219563   1.535   4.371   5.561
 6540TIP3   OH219564   5.278   1.469   0.259
 6540TIP3    H119565   5.228   1.550   0.269
 6540TIP3    H219566   5.222   1.413   0.205
 6541TIP3   OH219567   0.781   6.512   1.614
 6541TIP3    H119568   0.794   6.566   1.537
 6541TIP3    H219569   0.688   6.522   1.635
 6542TIP3   OH219570   8.023   0.297   1.747
 6542TIP3    H119571   7.932   0.318   1.725
 6542TIP3    H219572   8.072   0.321   1.668
 6543TIP3   OH219573   1.878   6.646   4.776
 6543TIP3    H119574   1.786   6.654   4.801
 6543TIP3    H219575   1.893   6.721   4.718
 6544TIP3   OH219576   6.110   3.842   6.652
 6544TIP3    H119577   6.151   3.844   6.566
 6544TIP3    H219578   6.135   3.757   6.688
 6545TIP3   OH219579   0.768   6.931   4.974
 6545TIP3    H119580   0.735   6.972   5.054
 6545TIP3    H219581   0.757   6.837   4.990
 6546TIP3   OH219582   7.702   0.254   3.334
 6546TIP3    H119583   7.636   0.186   3.332
 6546TIP3    H219584   7.678   0.313   3.262
 6547TIP3   OH219585   2.940   0.725   6.750
 6547TIP3    H119586   2.939   0.675   6.668
 6547TIP3    H219587   2.859   0.776   6.749
 6548TIP3   OH219588   5.926   1.624   4.292
 6548TIP3    H119589   5.843   1.622   4.244
 6548TIP3    H219590   5.992   1.633   4.224
 6549TIP3   OH219591   3.021   5.364   6.710
 6549TIP3    H119592   2.929   5.340   6.704
 6549TIP3    H219593   3.049   5.373   6.619
 6550TIP3   OH219594   3.186   6.694   3.843
 6550TIP3    H119595   3.233   6.769   3.807
 6550TIP3    H219596   3.105   6.691   3.792
 6551TIP3   OH219597   3.648   2.328   5.128
 6551TIP3    H119598   3.689   2.242   5.124
 6551TIP3    H219599   3.565   2.317   5.083
 6552TIP3   OH219600   0.828   7.358   5.407
 6552TIP3    H119601   0.804   7.429   5.466
 6552TIP3    H219602   0.842   7.400   5.322
 6553TIP3   OH219603   1.985   5.610   5.540
 6553TIP3    H119604   1.962   5.673   5.609
 6553TIP3    H219605   1.951   5.650   5.459
 6554TIP3   OH219606   7.574   0.784   0.363
 6554TIP3    H119607   7.484   0.802   0.338
 6554TIP3    H219608   7.602   0.862   0.410
 6555TIP3   OH219609   8.121   5.799   2.369
 6555TIP3    H119610   8.096   5.708   2.357
 6555TIP3    H219611   8.198   5.812   2.314
 6556TIP3   OH219612   1.067   0.944   4.822
 6556TIP3    H119613   1.052   1.003   4.749
 6556TIP3    H219614   1.154   0.908   4.806
 6557TIP3   OH219615   4.774   6.433   0.797
 6557TIP3    H119616   4.815   6.519   0.793
 6557TIP3    H219617   4.780   6.399   0.707
 6558TIP3   OH219618   4.859   1.701   4.071
 6558TIP3    H119619   4.790   1.637   4.053
 6558TIP3    H219620   4.940   1.655   4.050
 6559TIP3   OH219621   2.485   2.594   0.444
 6559TIP3    H119622   2.476   2.523   0.381
 6559TIP3    H219623   2.501   2.672   0.391
 6560TIP3   OH219624   5.915   4.552   1.682
 6560TIP3    H119625   6.000   4.519   1.652
 6560TIP3    H219626   5.892   4.620   1.619
 6561TIP3   OH219627   4.687   1.727   3.041
 6561TIP3    H119628   4.746   1.656   3.066
 6561TIP3    H219629   4.670   1.773   3.123
 6562TIP3   OH219630   3.969   6.401   1.629
 6562TIP3    H119631   4.012   6.408   1.714
 6562TIP3    H219632   3.955   6.307   1.617
 6563TIP3   OH219633   6.917   1.627   4.815
 6563TIP3    H119634   6.978   1.601   4.884
 6563TIP3    H219635   6.959   1.702   4.772
 6564TIP3   OH219636   5.465   0.263   2.639
 6564TIP3    H119637   5.431   0.192   2.585
 6564TIP3    H219638   5.440   0.343   2.592
 6565TIP3   OH219639   3.556   1.288   3.056
 6565TIP3    H119640   3.511   1.220   3.006
 6565TIP3    H219641   3.494   1.314   3.124
 6566TIP3   OH219642   8.184   3.219   5.553
 6566TIP3    H119643   8.090   3.232   5.545
 6566TIP3    H219644   8.200   3.134   5.512
 6567TIP3   OH219645   2.861   3.794   3.359
 6567TIP3    H119646   2.834   3.729   3.424
 6567TIP3    H219647   2.916   3.856   3.407
 6568TIP3   OH219648   6.284   1.978   0.770
 6568TIP3    H119649   6.194   2.006   0.751
 6568TIP3    H219650   6.274   1.898   0.821
 6569TIP3   OH219651   1.003   6.720   5.253
 6569TIP3    H119652   1.007   6.631   5.218
 6569TIP3    H219653   1.084   6.761   5.222
 6570TIP3   OH219654   4.392   1.426   1.168
 6570TIP3    H119655   4.323   1.364   1.145
 6570TIP3    H219656   4.421   1.398   1.255
 6571TIP3   OH219657   7.604   0.162   2.649
 6571TIP3    H119658   7.575   0.079   2.611
 6571TIP3    H219659   7.581   0.228   2.583
 6572TIP3   OH219660   4.863   2.723   1.263
 6572TIP3    H119661   4.784   2.740   1.212
 6572TIP3    H219662   4.894   2.810   1.288
 6573TIP3   OH219663   6.027   2.966   6.063
 6573TIP3    H119664   5.964   2.950   6.134
 6573TIP3    H219665   5.982   3.027   6.005
 6574TIP3   OH219666   0.815   2.523   4.425
 6574TIP3    H119667   0.749   2.575   4.471
 6574TIP3    H219668   0.788   2.432   4.439
 6575TIP3   OH219669   3.608   1.801   0.617
 6575TIP3    H119670   3.527   1.846   0.593
 6575TIP3    H219671   3.621   1.737   0.547
 6576TIP3   OH219672   2.469   1.777   2.901
 6576TIP3    H119673   2.448   1.686   2.925
 6576TIP3    H219674   2.561   1.787   2.924
 6577TIP3   OH219675   5.296   4.435   1.642
 6577TIP3    H119676   5.338   4.352   1.618
 6577TIP3    H219677   5.317   4.494   1.571
 6578TIP3   OH219678   7.122   5.533   6.729
 6578TIP3    H119679   7.121   5.628   6.734
 6578TIP3    H219680   7.160   5.505   6.812
 6579TIP3   OH219681   7.203   7.733   5.771
 6579TIP3    H119682   7.195   7.684   5.689
 6579TIP3    H219683   7.131   7.796   5.769
 6580TIP3   OH219684   2.353   3.391   0.813
 6580TIP3    H119685   2.445   3.416   0.806
 6580TIP3    H219686   2.338   3.336   0.735
 6581TIP3   OH219687   3.378   2.002   6.490
 6581TIP3    H119688   3.464   1.959   6.488
 6581TIP3    H219689   3.395   2.086   6.532
 6582TIP3   OH219690   5.667   1.659   0.926
 6582TIP3    H119691   5.736   1.725   0.930
 6582TIP3    H219692   5.712   1.576   0.936
 6583TIP3   OH219693   3.614   6.099   2.405
 6583TIP3    H119694   3.577   6.117   2.318
 6583TIP3    H219695   3.602   6.005   2.417
 6584TIP3   OH219696   1.843   7.118   6.139
 6584TIP3    H119697   1.770   7.057   6.147
 6584TIP3    H219698   1.841   7.169   6.220
 6585TIP3   OH219699   4.039   2.322   4.457
 6585TIP3    H119700   4.129   2.288   4.451
 6585TIP3    H219701   4.037   2.369   4.541
 6586TIP3   OH219702   4.606   1.045   1.493
 6586TIP3    H119703   4.623   1.139   1.501
 6586TIP3    H219704   4.511   1.038   1.495
 6587TIP3   OH219705   6.337   4.751   2.623
 6587TIP3    H119706   6.419   4.800   2.622
 6587TIP3    H219707   6.324   4.728   2.715
 6588TIP3   OH219708   2.327   3.141   1.264
 6588TIP3    H119709   2.409   3.171   1.302
 6588TIP3    H219710   2.328   3.046   1.275
 6589TIP3   OH219711   4.325   0.596   5.217
 6589TIP3    H119712   4.280   0.609   5.133
 6589TIP3    H219713   4.269   0.537   5.266
 6590TIP3   OH219714   3.326   2.627   5.170
 6590TIP3    H119715   3.339   2.584   5.085
 6590TIP3    H219716   3.414   2.640   5.205
 6591TIP3   OH219717   1.253   6.691   6.369
 6591TIP3    H119718   1.197   6.760   6.406
 6591TIP3    H219719   1.297   6.653   6.445
 6592TIP3   OH219720   3.077   1.066   0.537
 6592TIP3    H119721   3.127   1.085   0.616
 6592TIP3    H219722   3.035   0.982   0.555
 6593TIP3   OH219723   5.162   2.850   2.192
 6593TIP3    H119724   5.108   2.922   2.224
 6593TIP3    H219725   5.104   2.798   2.138
 6594TIP3   OH219726   1.357   1.401   1.329
 6594TIP3    H119727   1.338   1.324   1.275
 6594TIP3    H219728   1.320   1.474   1.281
 6595TIP3   OH219729   5.326   0.578   2.789
 6595TIP3    H119730   5.306   0.492   2.753
 6595TIP3    H219731   5.415   0.596   2.760
 6596TIP3   OH219732   6.764   3.051   3.682
 6596TIP3    H119733   6.782   2.984   3.747
 6596TIP3    H219734   6.765   3.133   3.731
 6597TIP3   OH219735   3.475   6.663   6.411
 6597TIP3    H119736   3.461   6.571   6.388
 6597TIP3    H219737   3.395   6.707   6.384
 6598TIP3   OH219738   7.353   0.445   3.618
 6598TIP3    H119739   7.311   0.382   3.677
 6598TIP3    H219740   7.379   0.393   3.542
 6599TIP3   OH219741   3.841   1.975   5.546
 6599TIP3    H119742   3.866   1.975   5.639
 6599TIP3    H219743   3.827   2.067   5.524
 6600TIP3   OH219744   2.886   5.765   1.087
 6600TIP3    H119745   2.917   5.683   1.049
 6600TIP3    H219746   2.795   5.773   1.057
 6601TIP3   OH219747   5.223   3.323   5.038
 6601TIP3    H119748   5.131   3.297   5.035
 6601TIP3    H219749   5.235   3.377   4.960
 6602TIP3   OH219750   4.144   1.788   1.682
 6602TIP3    H119751   4.152   1.878   1.650
 6602TIP3    H219752   4.120   1.798   1.775
 6603TIP3   OH219753   0.600   0.934   3.295
 6603TIP3    H119754   0.527   0.972   3.344
 6603TIP3    H219755   0.600   0.841   3.320
 6604TIP3   OH219756   6.654   4.239   5.226
 6604TIP3    H119757   6.599   4.171   5.188
 6604TIP3    H219758   6.728   4.248   5.166
 6605TIP3   OH219759   4.440   1.614   0.594
 6605TIP3    H119760   4.492   1.536   0.575
 6605TIP3    H219761   4.482   1.684   0.545
 6606TIP3   OH219762   1.103   3.097   2.304
 6606TIP3    H119763   1.108   3.193   2.301
 6606TIP3    H219764   1.100   3.076   2.397
 6607TIP3   OH219765   7.246   0.820   4.213
 6607TIP3    H119766   7.184   0.891   4.196
 6607TIP3    H219767   7.301   0.817   4.134
 6608TIP3   OH219768   1.124   7.668   1.468
 6608TIP3    H119769   1.135   7.602   1.400
 6608TIP3    H219770   1.198   7.728   1.456
 6609TIP3   OH219771   6.820   6.087   4.936
 6609TIP3    H119772   6.908   6.083   4.973
 6609TIP3    H219773   6.824   6.034   4.857
 6610TIP3   OH219774   1.912   0.937   1.131
 6610TIP3    H119775   1.935   0.946   1.038
 6610TIP3    H219776   1.938   1.020   1.170
 6611TIP3   OH219777   1.454   4.117   5.626
 6611TIP3    H119778   1.483   4.131   5.535
 6611TIP3    H219779   1.453   4.022   5.637
 6612TIP3   OH219780   7.233   5.147   2.878
 6612TIP3    H119781   7.251   5.237   2.851
 6612TIP3    H219782   7.298   5.129   2.946
 6613TIP3   OH219783   5.433   0.725   6.567
 6613TIP3    H119784   5.508   0.736   6.625
 6613TIP3    H219785   5.377   0.662   6.613
 6614TIP3   OH219786   6.484   0.390   1.973
 6614TIP3    H119787   6.475   0.297   1.953
 6614TIP3    H219788   6.569   0.396   2.017
 6615TIP3   OH219789   4.155   5.500   0.735
 6615TIP3    H119790   4.131   5.536   0.821
 6615TIP3    H219791   4.248   5.477   0.744
 6616TIP3   OH219792   7.619   1.613   6.166
 6616TIP3    H119793   7.598   1.641   6.255
 6616TIP3    H219794   7.571   1.530   6.156
 6617TIP3   OH219795   5.864   7.333   6.188
 6617TIP3    H119796   5.905   7.415   6.215
 6617TIP3    H219797   5.840   7.290   6.271
 6618TIP3   OH219798   6.201   2.324   4.817
 6618TIP3    H119799   6.164   2.265   4.883
 6618TIP3    H219800   6.257   2.268   4.763
 6619TIP3   OH219801   2.384   4.293   5.876
 6619TIP3    H119802   2.434   4.369   5.906
 6619TIP3    H219803   2.410   4.281   5.785
 6620TIP3   OH219804   4.992   4.368   1.731
 6620TIP3    H119805   5.075   4.392   1.691
 6620TIP3    H219806   4.980   4.276   1.709
 6621TIP3   OH219807   2.031   2.079   5.576
 6621TIP3    H119808   2.040   2.172   5.555
 6621TIP3    H219809   2.121   2.045   5.577
 6622TIP3   OH219810   1.501   6.871   5.249
 6622TIP3    H119811   1.557   6.889   5.173
 6622TIP3    H219812   1.562   6.850   5.320
 6623TIP3   OH219813   8.274   6.409   0.430
 6623TIP3    H119814   8.182   6.432   0.415
 6623TIP3    H219815   8.277   6.385   0.523
 6624TIP3   OH219816   2.238   2.124   3.071
 6624TIP3    H119817   2.235   2.029   3.057
 6624TIP3    H219818   2.313   2.154   3.019
 6625TIP3   OH219819   3.601   6.102   4.916
 6625TIP3    H119820   3.540   6.079   4.846
 6625TIP3    H219821   3.577   6.044   4.989
 6626TIP3   OH219822   3.994   3.092   2.216
 6626TIP3    H119823   3.936   3.131   2.281
 6626TIP3    H219824   4.081   3.124   2.239
 6627TIP3   OH219825   8.006   5.867   0.618
 6627TIP3    H119826   7.982   5.898   0.530
 6627TIP3    H219827   8.091   5.826   0.606
 6628TIP3   OH219828   6.380   1.700   1.407
 6628TIP3    H119829   6.467   1.706   1.368
 6628TIP3    H219830   6.337   1.629   1.360
 6629TIP3   OH219831   5.156   2.918   1.562
 6629TIP3    H119832   5.234   2.889   1.610
 6629TIP3    H219833   5.179   2.908   1.470
 6630TIP3   OH219834   5.158   7.108   1.330
 6630TIP3    H119835   5.180   7.046   1.399
 6630TIP3    H219836   5.181   7.194   1.365
 6631TIP3   OH219837   5.538   1.312   6.249
 6631TIP3    H119838   5.582   1.360   6.180
 6631TIP3    H219839   5.446   1.337   6.242
 6632TIP3   OH219840   3.931   0.194   1.670
 6632TIP3    H119841   3.995   0.250   1.713
 6632TIP3    H219842   3.869   0.255   1.630
 6633TIP3   OH219843   2.411   7.129   6.718
 6633TIP3    H119844   2.393   7.190   6.789
 6633TIP3    H219845   2.506   7.118   6.719
 6634TIP3   OH219846   2.860   0.083   0.201
 6634TIP3    H119847   2.811   0.136   0.264
 6634TIP3    H219848   2.826  -0.005   0.212
 6635TIP3   OH219849   1.422   0.747   1.659
 6635TIP3    H119850   1.515   0.724   1.660
 6635TIP3    H219851   1.389   0.711   1.577
 6636TIP3   OH219852   6.665   4.890   0.511
 6636TIP3    H119853   6.611   4.844   0.446
 6636TIP3    H219854   6.672   4.829   0.584
 6637TIP3   OH219855   1.237   5.769   2.833
 6637TIP3    H119856   1.157   5.781   2.781
 6637TIP3    H219857   1.211   5.792   2.922
 6638TIP3   OH219858   4.841   1.955   1.192
 6638TIP3    H119859   4.928   1.975   1.157
 6638TIP3    H219860   4.807   2.039   1.223
 6639TIP3   OH219861   4.473   4.469   0.472
 6639TIP3    H119862   4.478   4.384   0.427
 6639TIP3    H219863   4.492   4.533   0.403
 6640TIP3   OH219864   5.772   0.743   0.699
 6640TIP3    H119865   5.834   0.753   0.626
 6640TIP3    H219866   5.700   0.692   0.662
 6641TIP3   OH219867   1.465   0.969   6.721
 6641TIP3    H119868   1.384   0.985   6.673
 6641TIP3    H219869   1.447   0.998   6.811
 6642TIP3   OH219870   5.268   1.417   0.893
 6642TIP3    H119871   5.318   1.485   0.849
 6642TIP3    H219872   5.333   1.352   0.919
 6643TIP3   OH219873   5.692   7.228   2.472
 6643TIP3    H119874   5.699   7.202   2.381
 6643TIP3    H219875   5.738   7.312   2.477
 6644TIP3   OH219876   5.659   1.329   4.278
 6644TIP3    H119877   5.573   1.370   4.292
 6644TIP3    H219878   5.639   1.242   4.245
 6645TIP3   OH219879   2.031   2.098   1.861
 6645TIP3    H119880   1.955   2.148   1.830
 6645TIP3    H219881   2.070   2.152   1.929
 6646TIP3   OH219882   3.246   6.509   4.680
 6646TIP3    H119883   3.324   6.524   4.733
 6646TIP3    H219884   3.277   6.454   4.607
 6647TIP3   OH219885   4.541   2.458   2.425
 6647TIP3    H119886   4.568   2.481   2.336
 6647TIP3    H219887   4.601   2.507   2.482
 6648TIP3   OH219888   0.297   2.513   4.801
 6648TIP3    H119889   0.245   2.571   4.746
 6648TIP3    H219890   0.316   2.438   4.746
 6649TIP3   OH219891   7.622   0.780   1.187
 6649TIP3    H119892   7.626   0.874   1.170
 6649TIP3    H219893   7.619   0.740   1.100
 6650TIP3   OH219894   8.079   5.532   4.319
 6650TIP3    H119895   8.058   5.441   4.338
 6650TIP3    H219896   7.997   5.579   4.334
 6651TIP3   OH219897   2.075   7.612   1.425
 6651TIP3    H119898   2.160   7.609   1.382
 6651TIP3    H219899   2.012   7.621   1.353
 6652TIP3   OH219900   6.607   1.449   1.892
 6652TIP3    H119901   6.684   1.407   1.930
 6652TIP3    H219902   6.597   1.407   1.807
 6653TIP3   OH219903   8.241   2.808   2.769
 6653TIP3    H119904   8.261   2.771   2.683
 6653TIP3    H219905   8.147   2.792   2.780
 6654TIP3   OH219906   0.520   0.314   6.514
 6654TIP3    H119907   0.465   0.239   6.536
 6654TIP3    H219908   0.560   0.290   6.430
 6655TIP3   OH219909   4.956   5.650   0.106
 6655TIP3    H119910   4.927   5.599   0.182
 6655TIP3    H219911   5.046   5.621   0.091
 6656TIP3   OH219912   1.702   6.021   5.275
 6656TIP3    H119913   1.748   6.101   5.250
 6656TIP3    H219914   1.624   6.019   5.218
 6657TIP3   OH219915   4.179   0.014   2.418
 6657TIP3    H119916   4.149   0.099   2.385
 6657TIP3    H219917   4.229  -0.024   2.346
 6658TIP3   OH219918   7.101   6.725   0.647
 6658TIP3    H119919   7.179   6.781   0.644
 6658TIP3    H219920   7.057   6.741   0.564
 6659TIP3   OH219921   3.168   0.828   6.548
 6659TIP3    H119922   3.150   0.862   6.636
 6659TIP3    H219923   3.082   0.812   6.510
 6660TIP3   OH219924   4.803   7.618   0.130
 6660TIP3    H119925   4.797   7.652   0.219
 6660TIP3    H219926   4.879   7.561   0.131
 6661TIP3   OH219927   5.537   3.330   2.845
 6661TIP3    H119928   5.510   3.409   2.892
 6661TIP3    H219929   5.527   3.260   2.909
 6662TIP3   OH219930   2.291   4.847   1.441
 6662TIP3    H119931   2.306   4.920   1.381
 6662TIP3    H219932   2.275   4.772   1.385
 6663TIP3   OH219933   2.246   1.643   0.339
 6663TIP3    H119934   2.159   1.674   0.362
 6663TIP3    H219935   2.272   1.588   0.413
 6664TIP3   OH219936   0.007   0.704   4.991
 6664TIP3    H119937   0.020   0.648   4.914
 6664TIP3    H219938   0.045   0.788   4.966
 6665TIP3   OH219939   8.140   5.340   5.339
 6665TIP3    H119940   8.130   5.414   5.399
 6665TIP3    H219941   8.065   5.348   5.279
 6666TIP3   OH219942   3.769   5.651   1.546
 6666TIP3    H119943   3.681   5.618   1.563
 6666TIP3    H219944   3.761   5.702   1.466
 6667TIP3   OH219945   3.117   0.880   3.546
 6667TIP3    H119946   3.033   0.878   3.500
 6667TIP3    H219947   3.095   0.862   3.637
 6668TIP3   OH219948   4.093   7.710   1.509
 6668TIP3    H119949   4.095   7.791   1.560
 6668TIP3    H219950   4.161   7.722   1.443
 6669TIP3   OH219951   1.417   2.674   5.359
 6669TIP3    H119952   1.400   2.656   5.451
 6669TIP3    H219953   1.379   2.599   5.313
 6670TIP3   OH219954   2.696   0.306   5.359
 6670TIP3    H119955   2.730   0.259   5.283
 6670TIP3    H219956   2.718   0.250   5.434
 6671TIP3   OH219957   7.612   2.447   2.524
 6671TIP3    H119958   7.578   2.358   2.524
 6671TIP3    H219959   7.693   2.442   2.472
 6672TIP3   OH219960   8.236   4.318   1.790
 6672TIP3    H119961   8.168   4.385   1.793
 6672TIP3    H219962   8.308   4.356   1.841
 6673TIP3   OH219963   4.150   2.056   5.674
 6673TIP3    H119964   4.078   2.017   5.625
 6673TIP3    H219965   4.110   2.085   5.756
 6674TIP3   OH219966   3.635   7.422   1.408
 6674TIP3    H119967   3.663   7.491   1.348
 6674TIP3    H219968   3.715   7.393   1.451
 6675TIP3   OH219969   6.730   0.562   3.076
 6675TIP3    H119970   6.644   0.544   3.039
 6675TIP3    H219971   6.775   0.478   3.076
 6676TIP3   OH219972   7.287   1.055   5.923
 6676TIP3    H119973   7.367   1.107   5.912
 6676TIP3    H219974   7.233   1.106   5.984
 6677TIP3   OH219975   5.118   0.699   1.417
 6677TIP3    H119976   5.050   0.632   1.408
 6677TIP3    H219977   5.072   0.777   1.447
 6678TIP3   OH219978   0.590   0.189   5.901
 6678TIP3    H119979   0.632   0.271   5.928
 6678TIP3    H219980   0.642   0.160   5.825
 6679TIP3   OH219981   0.323   3.738   2.131
 6679TIP3    H119982   0.290   3.713   2.045
 6679TIP3    H219983   0.341   3.832   2.124
 6680TIP3   OH219984   5.507   2.482   5.647
 6680TIP3    H119985   5.490   2.549   5.714
 6680TIP3    H219986   5.560   2.528   5.581
 6681TIP3   OH219987   6.403   4.048   3.766
 6681TIP3    H119988   6.363   4.110   3.704
 6681TIP3    H219989   6.333   4.029   3.829
 6682TIP3   OH219990   6.236   2.171   3.622
 6682TIP3    H119991   6.202   2.084   3.603
 6682TIP3    H219992   6.267   2.165   3.713
 6683TIP3   OH219993   8.167   2.240   3.731
 6683TIP3    H119994   8.221   2.311   3.767
 6683TIP3    H219995   8.115   2.209   3.805
 6684TIP3   OH219996   4.026   5.003   5.334
 6684TIP3    H119997   4.068   5.088   5.316
 6684TIP3    H219998   3.973   4.985   5.256
 6685TIP3   OH219999   2.962   4.894   1.042
 6685TIP3    H120000   2.880   4.860   1.007
 6685TIP3    H220001   2.941   4.920   1.132
 6686TIP3   OH220002   3.565   1.531   6.004
 6686TIP3    H120003   3.545   1.551   5.912
 6686TIP3    H220004   3.589   1.438   6.003
 6687TIP3   OH220005   5.656   4.694   2.934
 6687TIP3    H120006   5.661   4.790   2.931
 6687TIP3    H220007   5.581   4.676   2.991
 6688TIP3   OH220008   3.391   2.680   0.832
 6688TIP3    H120009   3.350   2.714   0.753
 6688TIP3    H220010   3.475   2.728   0.837
 6689TIP3   OH220011   7.398   1.498   6.647
 6689TIP3    H120012   7.381   1.472   6.737
 6689TIP3    H220013   7.492   1.512   6.642
 6690TIP3   OH220014   3.220   7.304   2.163
 6690TIP3    H120015   3.142   7.273   2.209
 6690TIP3    H220016   3.292   7.255   2.203
 6691TIP3   OH220017   0.632   1.682   3.399
 6691TIP3    H120018   0.720   1.645   3.406
 6691TIP3    H220019   0.617   1.691   3.305
 6692TIP3   OH220020   4.750   0.283   2.573
 6692TIP3    H120021   4.832   0.323   2.601
 6692TIP3    H220022   4.770   0.245   2.487
 6693TIP3   OH220023   7.051   5.458   3.878
 6693TIP3    H120024   7.045   5.396   3.805
 6693TIP3    H220025   7.036   5.406   3.956
 6694TIP3   OH220026   1.637   2.776   0.290
 6694TIP3    H120027   1.661   2.817   0.373
 6694TIP3    H220028   1.720   2.741   0.256
 6695TIP3   OH220029   2.229   1.937   5.462
 6695TIP3    H120030   2.235   1.841   5.455
 6695TIP3    H220031   2.242   1.968   5.372
 6696TIP3   OH220032   2.926   6.183   5.726
 6696TIP3    H120033   2.912   6.236   5.648
 6696TIP3    H220034   2.848   6.199   5.780
 6697TIP3   OH220035   1.367   0.612   3.566
 6697TIP3    H120036   1.289   0.630   3.619
 6697TIP3    H220037   1.399   0.528   3.599
 6698TIP3   OH220038   3.251   6.718   5.837
 6698TIP3    H120039   3.219   6.644   5.785
 6698TIP3    H220040   3.188   6.726   5.909
 6699TIP3   OH220041   3.041   3.639   5.710
 6699TIP3    H120042   3.085   3.572   5.762
 6699TIP3    H220043   3.091   3.719   5.726
 6700TIP3   OH220044   3.800   7.055   6.719
 6700TIP3    H120045   3.782   6.974   6.671
 6700TIP3    H220046   3.876   7.092   6.674
 6701TIP3   OH220047   0.947   6.182   4.071
 6701TIP3    H120048   0.991   6.125   4.134
 6701TIP3    H220049   0.881   6.228   4.123
 6702TIP3   OH220050   2.723   1.483   0.430
 6702TIP3    H120051   2.767   1.401   0.450
 6702TIP3    H220052   2.685   1.511   0.513
 6703TIP3   OH220053   0.424   0.378   1.626
 6703TIP3    H120054   0.347   0.324   1.612
 6703TIP3    H220055   0.497   0.316   1.627
 6704TIP3   OH220056   3.926   3.784   0.419
 6704TIP3    H120057   4.006   3.831   0.396
 6704TIP3    H220058   3.951   3.691   0.414
 6705TIP3   OH220059   6.139   5.628   5.531
 6705TIP3    H120060   6.101   5.692   5.470
 6705TIP3    H220061   6.064   5.593   5.578
 6706TIP3   OH220062   6.873   3.407   1.862
 6706TIP3    H120063   6.903   3.477   1.803
 6706TIP3    H220064   6.908   3.431   1.948
 6707TIP3   OH220065   2.589   1.057   0.654
 6707TIP3    H120066   2.571   1.137   0.606
 6707TIP3    H220067   2.520   1.053   0.721
 6708TIP3   OH220068   2.226   0.147   6.112
 6708TIP3    H120069   2.207   0.227   6.062
 6708TIP3    H220070   2.230   0.177   6.203
 6709TIP3   OH220071   2.597   0.832   6.743
 6709TIP3    H120072   2.519   0.876   6.711
 6709TIP3    H220073   2.664   0.900   6.745
 6710TIP3   OH220074   5.627   1.575   5.075
 6710TIP3    H120075   5.574   1.528   5.140
 6710TIP3    H220076   5.701   1.517   5.058
 6711TIP3   OH220077   4.418   1.313   2.962
 6711TIP3    H120078   4.428   1.310   2.867
 6711TIP3    H220079   4.337   1.266   2.980
 6712TIP3   OH220080   3.423   1.474   1.648
 6712TIP3    H120081   3.505   1.515   1.620
 6712TIP3    H220082   3.434   1.458   1.741
 6713TIP3   OH220083   7.013   6.374   6.266
 6713TIP3    H120084   7.078   6.334   6.323
 6713TIP3    H220085   6.953   6.419   6.325
 6714TIP3   OH220086   4.559   7.324   6.602
 6714TIP3    H120087   4.603   7.384   6.542
 6714TIP3    H220088   4.557   7.241   6.554
 6715TIP3   OH220089   2.772   4.252   5.906
 6715TIP3    H120090   2.795   4.169   5.864
 6715TIP3    H220091   2.821   4.318   5.857
 6716TIP3   OH220092   5.077   2.660   3.666
 6716TIP3    H120093   5.138   2.732   3.647
 6716TIP3    H220094   5.133   2.592   3.704
 6717TIP3   OH220095   5.185   0.732   4.853
 6717TIP3    H120096   5.268   0.687   4.867
 6717TIP3    H220097   5.127   0.698   4.921
 6718TIP3   OH220098   1.372   1.684   4.872
 6718TIP3    H120099   1.445   1.623   4.877
 6718TIP3    H220100   1.300   1.638   4.915
 6719TIP3   OH220101   8.012   0.037   2.824
 6719TIP3    H120102   8.090   0.087   2.849
 6719TIP3    H220103   8.029  -0.052   2.857
 6720TIP3   OH220104   8.171   3.392   6.115
 6720TIP3    H120105   8.128   3.350   6.041
 6720TIP3    H220106   8.102   3.401   6.181
 6721TIP3   OH220107   1.618   0.811   5.317
 6721TIP3    H120108   1.615   0.749   5.389
 6721TIP3    H220109   1.589   0.761   5.241
 6722TIP3   OH220110   5.911   4.412   4.726
 6722TIP3    H120111   5.870   4.454   4.801
 6722TIP3    H220112   5.877   4.460   4.650
 6723TIP3   OH220113   4.192   5.268   3.249
 6723TIP3    H120114   4.262   5.205   3.267
 6723TIP3    H220115   4.129   5.255   3.320
 6724TIP3   OH220116   3.671   5.980   6.116
 6724TIP3    H120117   3.737   5.974   6.185
 6724TIP3    H220118   3.658   5.889   6.088
 6725TIP3   OH220119   1.790   6.178   2.404
 6725TIP3    H120120   1.789   6.112   2.334
 6725TIP3    H220121   1.716   6.235   2.383
 6726TIP3   OH220122   8.205   7.185   3.169
 6726TIP3    H120123   8.127   7.166   3.117
 6726TIP3    H220124   8.172   7.230   3.246
 6727TIP3   OH220125   0.516   0.205   4.249
 6727TIP3    H120126   0.506   0.119   4.210
 6727TIP3    H220127   0.588   0.196   4.311
 6728TIP3   OH220128   7.719   0.049   6.410
 6728TIP3    H120129   7.776  -0.021   6.378
 6728TIP3    H220130   7.777   0.105   6.462
 6729TIP3   OH220131   7.036   6.966   2.033
 6729TIP3    H120132   7.035   7.048   1.984
 6729TIP3    H220133   7.068   6.901   1.970
 6730TIP3   OH220134   3.009   2.042   0.841
 6730TIP3    H120135   2.921   2.005   0.842
 6730TIP3    H220136   3.012   2.095   0.762
 6731TIP3   OH220137   7.887   5.282   0.934
 6731TIP3    H120138   7.963   5.310   0.984
 6731TIP3    H220139   7.816   5.340   0.961
 6732TIP3   OH220140   1.132   6.743   0.103
 6732TIP3    H120141   1.140   6.816   0.164
 6732TIP3    H220142   1.048   6.757   0.059
 6733TIP3   OH220143   3.361   4.817   5.544
 6733TIP3    H120144   3.372   4.766   5.625
 6733TIP3    H220145   3.449   4.843   5.520
 6734TIP3   OH220146   1.709   1.734   2.039
 6734TIP3    H120147   1.752   1.749   1.954
 6734TIP3    H220148   1.664   1.650   2.029
 6735TIP3   OH220149   4.968   5.471   0.326
 6735TIP3    H120150   4.894   5.413   0.339
 6735TIP3    H220151   5.045   5.415   0.338
 6736TIP3   OH220152   5.393   1.121   0.876
 6736TIP3    H120153   5.488   1.119   0.867
 6736TIP3    H220154   5.378   1.157   0.964
 6737TIP3   OH220155   0.691   4.366   2.439
 6737TIP3    H120156   0.641   4.397   2.514
 6737TIP3    H220157   0.627   4.321   2.384
 6738TIP3   OH220158   8.117   6.004   6.512
 6738TIP3    H120159   8.110   5.911   6.494
 6738TIP3    H220160   8.112   6.011   6.607
 6739TIP3   OH220161   1.793   2.131   2.689
 6739TIP3    H120162   1.732   2.063   2.662
 6739TIP3    H220163   1.770   2.149   2.780
 6740TIP3   OH220164   4.773   2.600   5.220
 6740TIP3    H120165   4.867   2.615   5.213
 6740TIP3    H220166   4.749   2.556   5.139
 6741TIP3   OH220167   1.467   2.027   1.969
 6741TIP3    H120168   1.392   2.083   1.989
 6741TIP3    H220169   1.505   2.009   2.055
 6742TIP3   OH220170   3.322   0.411   4.050
 6742TIP3    H120171   3.264   0.476   4.090
 6742TIP3    H220172   3.266   0.335   4.034
 6743TIP3   OH220173   0.529   1.184   6.196
 6743TIP3    H120174   0.622   1.160   6.205
 6743TIP3    H220175   0.487   1.103   6.165
 6744TIP3   OH220176   5.895   7.565   0.957
 6744TIP3    H120177   5.816   7.599   0.916
 6744TIP3    H220178   5.911   7.624   1.032
 6745TIP3   OH220179   1.848   3.138   6.281
 6745TIP3    H120180   1.824   3.145   6.189
 6745TIP3    H220181   1.775   3.093   6.322
 6746TIP3   OH220182   3.425   2.938   1.783
 6746TIP3    H120183   3.450   2.863   1.729
 6746TIP3    H220184   3.330   2.936   1.785
 6747TIP3   OH220185   3.360   0.849   0.470
 6747TIP3    H120186   3.438   0.847   0.414
 6747TIP3    H220187   3.394   0.866   0.558
 6748TIP3   OH220188   7.176   2.470   5.639
 6748TIP3    H120189   7.264   2.442   5.614
 6748TIP3    H220190   7.140   2.395   5.686
 6749TIP3   OH220191   4.816   2.469   3.305
 6749TIP3    H120192   4.877   2.543   3.295
 6749TIP3    H220193   4.840   2.409   3.234
 6750TIP3   OH220194   4.639   2.858   2.762
 6750TIP3    H120195   4.664   2.911   2.686
 6750TIP3    H220196   4.685   2.897   2.836
 6751TIP3   OH220197   3.807   6.070   2.794
 6751TIP3    H120198   3.898   6.050   2.817
 6751TIP3    H220199   3.808   6.078   2.699
 6752TIP3   OH220200   4.279   1.549   0.862
 6752TIP3    H120201   4.251   1.629   0.907
 6752TIP3    H220202   4.374   1.553   0.862
 6753TIP3   OH220203   5.490   7.269   6.404
 6753TIP3    H120204   5.515   7.268   6.312
 6753TIP3    H220205   5.568   7.237   6.450
 6754TIP3   OH220206   6.273   5.037   6.209
 6754TIP3    H120207   6.289   4.968   6.274
 6754TIP3    H220208   6.206   5.091   6.249
 6755TIP3   OH220209   0.332   1.638   1.658
 6755TIP3    H120210   0.394   1.597   1.719
 6755TIP3    H220211   0.351   1.598   1.573
 6756TIP3   OH220212   7.376   1.719   1.694
 6756TIP3    H120213   7.419   1.648   1.646
 6756TIP3    H220214   7.291   1.729   1.651
 6757TIP3   OH220215   6.321   5.526   2.684
 6757TIP3    H120216   6.259   5.542   2.613
 6757TIP3    H220217   6.344   5.433   2.676
 6758TIP3   OH220218   3.444   0.765   4.275
 6758TIP3    H120219   3.435   0.743   4.367
 6758TIP3    H220220   3.382   0.706   4.230
 6759TIP3   OH220221   1.420   5.080   6.111
 6759TIP3    H120222   1.378   5.006   6.069
 6759TIP3    H220223   1.365   5.099   6.188
 6760TIP3   OH220224   4.026   3.772   4.051
 6760TIP3    H120225   4.084   3.717   3.998
 6760TIP3    H220226   4.070   3.857   4.055
 6761TIP3   OH220227   3.675   3.041   4.628
 6761TIP3    H120228   3.672   2.949   4.602
 6761TIP3    H220229   3.603   3.051   4.690
 6762TIP3   OH220230   0.658   5.096   0.753
 6762TIP3    H120231   0.649   5.040   0.676
 6762TIP3    H220232   0.655   5.037   0.827
 6763TIP3   OH220233   7.187   4.185   0.614
 6763TIP3    H120234   7.257   4.186   0.549
 6763TIP3    H220235   7.233   4.195   0.698
 6764TIP3   OH220236   0.451   7.348   4.578
 6764TIP3    H120237   0.487   7.349   4.490
 6764TIP3    H220238   0.504   7.283   4.625
 6765TIP3   OH220239   1.485   1.984   0.168
 6765TIP3    H120240   1.564   1.940   0.137
 6765TIP3    H220241   1.511   2.075   0.179
 6766TIP3   OH220242   0.565   1.273   2.325
 6766TIP3    H120243   0.476   1.260   2.291
 6766TIP3    H220244   0.615   1.303   2.249
 6767TIP3   OH220245   0.521   5.418   1.989
 6767TIP3    H120246   0.509   5.330   1.952
 6767TIP3    H220247   0.448   5.468   1.953
 6768TIP3   OH220248   2.141   4.191   0.720
 6768TIP3    H120249   2.225   4.224   0.752
 6768TIP3    H220250   2.076   4.228   0.780
 6769TIP3   OH220251   7.492   6.573   1.244
 6769TIP3    H120252   7.578   6.586   1.203
 6769TIP3    H220253   7.510   6.574   1.338
 6770TIP3   OH220254   0.155   2.589   2.375
 6770TIP3    H120255   0.090   2.597   2.444
 6770TIP3    H220256   0.162   2.494   2.359
 6771TIP3   OH220257   2.583   1.149   6.404
 6771TIP3    H120258   2.552   1.213   6.468
 6771TIP3    H220259   2.516   1.080   6.405
 6772TIP3   OH220260   2.426   1.595   0.858
 6772TIP3    H120261   2.336   1.620   0.836
 6772TIP3    H220262   2.462   1.672   0.903
 6773TIP3   OH220263   4.088   1.637   4.145
 6773TIP3    H120264   4.126   1.552   4.166
 6773TIP3    H220265   4.033   1.658   4.221
 6774TIP3   OH220266   2.156   5.211   2.076
 6774TIP3    H120267   2.157   5.234   2.169
 6774TIP3    H220268   2.101   5.133   2.071
 6775TIP3   OH220269   3.667   7.416   3.902
 6775TIP3    H120270   3.721   7.493   3.886
 6775TIP3    H220271   3.624   7.433   3.985
 6776TIP3   OH220272   4.139   3.517   1.171
 6776TIP3    H120273   4.163   3.558   1.254
 6776TIP3    H220274   4.127   3.425   1.191
 6777TIP3   OH220275   1.020   6.881   3.927
 6777TIP3    H120276   1.045   6.942   3.858
 6777TIP3    H220277   1.082   6.899   3.998
 6778TIP3   OH220278   6.684   7.276   4.376
 6778TIP3    H120279   6.652   7.290   4.465
 6778TIP3    H220280   6.644   7.194   4.349
 6779TIP3   OH220281   3.394   4.839   6.068
 6779TIP3    H120282   3.465   4.864   6.126
 6779TIP3    H220283   3.354   4.922   6.041
 6780TIP3   OH220284   2.213   0.619   4.179
 6780TIP3    H120285   2.168   0.681   4.121
 6780TIP3    H220286   2.302   0.651   4.185
 6781TIP3   OH220287   3.725   5.718   2.213
 6781TIP3    H120288   3.717   5.628   2.182
 6781TIP3    H220289   3.750   5.768   2.135
 6782TIP3   OH220290   4.916   6.425   1.917
 6782TIP3    H120291   4.916   6.455   1.826
 6782TIP3    H220292   4.983   6.480   1.959
 6783TIP3   OH220293   5.130   1.143   2.698
 6783TIP3    H120294   5.073   1.171   2.770
 6783TIP3    H220295   5.168   1.060   2.728
 6784TIP3   OH220296   6.455   7.679   4.562
 6784TIP3    H120297   6.516   7.726   4.507
 6784TIP3    H220298   6.404   7.624   4.502
 6785TIP3   OH220299   7.446   2.958   2.213
 6785TIP3    H120300   7.432   2.909   2.132
 6785TIP3    H220301   7.432   3.050   2.188
 6786TIP3   OH220302   1.344   2.432   4.846
 6786TIP3    H120303   1.425   2.384   4.860
 6786TIP3    H220304   1.311   2.399   4.762
 6787TIP3   OH220305   1.004   6.526   4.542
 6787TIP3    H120306   1.066   6.549   4.611
 6787TIP3    H220307   0.929   6.489   4.589
 6788TIP3   OH220308   8.039   6.607   3.694
 6788TIP3    H120309   8.064   6.567   3.777
 6788TIP3    H220310   8.054   6.539   3.629
 6789TIP3   OH220311   3.310   6.262   2.432
 6789TIP3    H120312   3.287   6.309   2.512
 6789TIP3    H220313   3.343   6.330   2.373
 6790TIP3   OH220314   1.761   3.188   4.018
 6790TIP3    H120315   1.824   3.252   3.986
 6790TIP3    H220316   1.774   3.112   3.962
 6791TIP3   OH220317   4.988   7.104   5.759
 6791TIP3    H120318   5.036   7.062   5.830
 6791TIP3    H220319   5.052   7.110   5.688
 6792TIP3   OH220320   4.655   5.076   0.110
 6792TIP3    H120321   4.597   5.059   0.036
 6792TIP3    H220322   4.600   5.120   0.174
 6793TIP3   OH220323   3.605   4.965   3.761
 6793TIP3    H120324   3.541   5.024   3.800
 6793TIP3    H220325   3.620   4.898   3.828
 6794TIP3   OH220326   4.277   2.370   2.761
 6794TIP3    H120327   4.345   2.435   2.780
 6794TIP3    H220328   4.299   2.338   2.674
 6795TIP3   OH220329   4.588   5.789   6.618
 6795TIP3    H120330   4.604   5.865   6.562
 6795TIP3    H220331   4.594   5.714   6.559
 6796TIP3   OH220332   0.135   4.313   3.382
 6796TIP3    H120333   0.079   4.237   3.398
 6796TIP3    H220334   0.220   4.287   3.417
 6797TIP3   OH220335   4.583   3.616   4.957
 6797TIP3    H120336   4.531   3.536   4.966
 6797TIP3    H220337   4.560   3.667   5.035
 6798TIP3   OH220338   2.247   0.360   0.233
 6798TIP3    H120339   2.230   0.453   0.240
 6798TIP3    H220340   2.169   0.324   0.189
 6799TIP3   OH220341   4.148   7.550   4.079
 6799TIP3    H120342   4.195   7.534   3.997
 6799TIP3    H220343   4.059   7.574   4.050
 6800TIP3   OH220344   1.077   2.901   4.462
 6800TIP3    H120345   1.156   2.889   4.515
 6800TIP3    H220346   1.102   2.966   4.396
 6801TIP3   OH220347   4.099   6.069   2.824
 6801TIP3    H120348   4.136   6.021   2.898
 6801TIP3    H220349   4.155   6.047   2.750
 6802TIP3   OH220350   0.979   4.551   5.647
 6802TIP3    H120351   1.007   4.485   5.584
 6802TIP3    H220352   0.994   4.510   5.732
 6803TIP3   OH220353   7.371   2.474   6.705
 6803TIP3    H120354   7.335   2.427   6.629
 6803TIP3    H220355   7.419   2.408   6.754
 6804TIP3   OH220356   5.705   5.972   6.170
 6804TIP3    H120357   5.674   5.997   6.083
 6804TIP3    H220358   5.670   6.040   6.229
 6805TIP3   OH220359   6.487   5.920   4.827
 6805TIP3    H120360   6.524   5.978   4.760
 6805TIP3    H220361   6.507   5.964   4.909
 6806TIP3   OH220362   5.268   5.474   0.524
 6806TIP3    H120363   5.285   5.412   0.595
 6806TIP3    H220364   5.309   5.434   0.447
 6807TIP3   OH220365   1.176   5.896   3.935
 6807TIP3    H120366   1.090   5.929   3.910
 6807TIP3    H220367   1.193   5.824   3.875
 6808TIP3   OH220368   3.414   5.588   5.514
 6808TIP3    H120369   3.372   5.511   5.476
 6808TIP3    H220370   3.503   5.559   5.535
 6809TIP3   OH220371   2.953   5.000   6.482
 6809TIP3    H120372   2.863   4.979   6.459
 6809TIP3    H220373   2.960   5.094   6.469
 6810TIP3   OH220374   2.557   2.943   3.199
 6810TIP3    H120375   2.538   3.024   3.247
 6810TIP3    H220376   2.648   2.953   3.170
 6811TIP3   OH220377   6.451   3.668   5.794
 6811TIP3    H120378   6.511   3.676   5.720
 6811TIP3    H220379   6.382   3.611   5.763
 6812TIP3   OH220380   4.325   6.848   1.887
 6812TIP3    H120381   4.384   6.855   1.812
 6812TIP3    H220382   4.269   6.925   1.881
 6813TIP3   OH220383   2.071   0.334   1.606
 6813TIP3    H120384   2.038   0.423   1.612
 6813TIP3    H220385   2.060   0.298   1.694
 6814TIP3   OH220386   1.163   0.185   2.620
 6814TIP3    H120387   1.161   0.230   2.704
 6814TIP3    H220388   1.147   0.255   2.556
 6815TIP3   OH220389   1.508   1.495   2.048
 6815TIP3    H120390   1.494   1.516   2.140
 6815TIP3    H220391   1.426   1.453   2.020
 6816TIP3   OH220392   2.117   3.343   1.914
 6816TIP3    H120393   2.148   3.385   1.834
 6816TIP3    H220394   2.164   3.388   1.984
 6817TIP3   OH220395   2.337   4.606   2.283
 6817TIP3    H120396   2.381   4.646   2.207
 6817TIP3    H220397   2.408   4.563   2.331
 6818TIP3   OH220398   6.879   4.015   1.488
 6818TIP3    H120399   6.905   3.981   1.574
 6818TIP3    H220400   6.822   4.089   1.507
 6819TIP3   OH220401   4.897   4.488   3.039
 6819TIP3    H120402   4.977   4.466   2.992
 6819TIP3    H220403   4.868   4.571   3.001
 6820TIP3   OH220404   4.017   1.887   6.627
 6820TIP3    H120405   4.033   1.855   6.715
 6820TIP3    H220406   3.922   1.889   6.618
 6821TIP3   OH220407   1.269   4.506   5.754
 6821TIP3    H120408   1.268   4.592   5.712
 6821TIP3    H220409   1.336   4.458   5.706
 6822TIP3   OH220410   4.011   6.067   3.843
 6822TIP3    H120411   3.983   5.988   3.887
 6822TIP3    H220412   3.939   6.129   3.854
 6823TIP3   OH220413   2.855   4.091   1.282
 6823TIP3    H120414   2.905   4.144   1.221
 6823TIP3    H220415   2.919   4.063   1.348
 6824TIP3   OH220416   3.762   4.313   5.559
 6824TIP3    H120417   3.848   4.356   5.554
 6824TIP3    H220418   3.700   4.385   5.555
 6825TIP3   OH220419   6.206   0.254   6.308
 6825TIP3    H120420   6.299   0.258   6.286
 6825TIP3    H220421   6.190   0.162   6.329
 6826TIP3   OH220422   2.063   0.987   0.899
 6826TIP3    H120423   2.056   1.028   0.813
 6826TIP3    H220424   2.155   1.000   0.924
 6827TIP3   OH220425   0.294   6.187   2.300
 6827TIP3    H120426   0.225   6.159   2.360
 6827TIP3    H220427   0.276   6.280   2.285
 6828TIP3   OH220428   7.962   4.860   5.465
 6828TIP3    H120429   8.051   4.893   5.462
 6828TIP3    H220430   7.970   4.772   5.502
 6829TIP3   OH220431   8.194   1.401   2.327
 6829TIP3    H120432   8.111   1.377   2.286
 6829TIP3    H220433   8.219   1.483   2.285
 6830TIP3   OH220434   1.043   0.029   2.913
 6830TIP3    H120435   1.042  -0.065   2.893
 6830TIP3    H220436   1.037   0.072   2.828
 6831TIP3   OH220437   2.595   4.777   3.647
 6831TIP3    H120438   2.583   4.752   3.739
 6831TIP3    H220439   2.520   4.739   3.602
 6832TIP3   OH220440   3.462   6.095   3.189
 6832TIP3    H120441   3.500   6.081   3.275
 6832TIP3    H220442   3.527   6.148   3.142
 6833TIP3   OH220443   5.003   2.315   0.466
 6833TIP3    H120444   5.036   2.403   0.452
 6833TIP3    H220445   5.004   2.303   0.561
 6834TIP3   OH220446   8.107   6.548   5.159
 6834TIP3    H120447   8.163   6.553   5.236
 6834TIP3    H220448   8.168   6.534   5.086
 6835TIP3   OH220449   7.350   1.431   4.695
 6835TIP3    H120450   7.325   1.510   4.648
 6835TIP3    H220451   7.410   1.461   4.763
 6836TIP3   OH220452   3.059   6.257   0.992
 6836TIP3    H120453   3.056   6.162   0.999
 6836TIP3    H220454   3.029   6.288   1.077
 6837TIP3   OH220455   0.786   7.017   2.272
 6837TIP3    H120456   0.692   7.010   2.254
 6837TIP3    H220457   0.805   6.942   2.329
 6838TIP3   OH220458   6.395   4.983   3.161
 6838TIP3    H120459   6.383   4.989   3.066
 6838TIP3    H220460   6.465   5.045   3.180
 6839TIP3   OH220461   0.625   0.414   3.273
 6839TIP3    H120462   0.614   0.328   3.315
 6839TIP3    H220463   0.709   0.407   3.228
 6840TIP3   OH220464   6.716   1.329   1.436
 6840TIP3    H120465   6.706   1.240   1.401
 6840TIP3    H220466   6.713   1.385   1.359
 6841TIP3   OH220467   1.091   4.294   4.909
 6841TIP3    H120468   1.059   4.368   4.857
 6841TIP3    H220469   1.042   4.219   4.876
 6842TIP3   OH220470   0.861   1.203   3.502
 6842TIP3    H120471   0.817   1.133   3.550
 6842TIP3    H220472   0.936   1.227   3.557
 6843TIP3   OH220473   1.615   5.772   2.712
 6843TIP3    H120474   1.558   5.697   2.695
 6843TIP3    H220475   1.555   5.846   2.717
 6844TIP3   OH220476   5.751   2.207   1.371
 6844TIP3    H120477   5.723   2.299   1.371
 6844TIP3    H220478   5.767   2.187   1.463
 6845TIP3   OH220479   2.110   4.138   5.891
 6845TIP3    H120480   2.032   4.140   5.946
 6845TIP3    H220481   2.153   4.222   5.907
 6846TIP3   OH220482   3.638   7.443   6.408
 6846TIP3    H120483   3.585   7.416   6.483
 6846TIP3    H220484   3.626   7.537   6.403
 6847TIP3   OH220485   3.553   6.938   3.680
 6847TIP3    H120486   3.593   6.943   3.594
 6847TIP3    H220487   3.487   6.869   3.672
 6848TIP3   OH220488   2.815   3.390   0.999
 6848TIP3    H120489   2.872   3.358   1.069
 6848TIP3    H220490   2.861   3.367   0.918
 6849TIP3   OH220491   6.637   1.094   0.450
 6849TIP3    H120492   6.722   1.088   0.495
 6849TIP3    H220493   6.639   1.023   0.386
 6850TIP3   OH220494   7.108   7.375   5.075
 6850TIP3    H120495   7.196   7.358   5.109
 6850TIP3    H220496   7.079   7.291   5.041
 6851TIP3   OH220497   5.612   5.384   3.367
 6851TIP3    H120498   5.585   5.394   3.458
 6851TIP3    H220499   5.615   5.289   3.353
 6852TIP3   OH220500   1.195   1.143   0.252
 6852TIP3    H120501   1.275   1.175   0.293
 6852TIP3    H220502   1.224   1.080   0.187
 6853TIP3   OH220503   0.519   7.184   2.387
 6853TIP3    H120504   0.481   7.200   2.473
 6853TIP3    H220505   0.462   7.118   2.348
 6854TIP3   OH220506   6.643   6.097   4.610
 6854TIP3    H120507   6.664   6.072   4.520
 6854TIP3    H220508   6.579   6.167   4.602
 6855TIP3   OH220509   2.030   3.528   0.420
 6855TIP3    H120510   1.977   3.550   0.497
 6855TIP3    H220511   2.055   3.437   0.433
 6856TIP3   OH220512   2.167   6.957   4.688
 6856TIP3    H120513   2.096   6.907   4.647
 6856TIP3    H220514   2.228   6.890   4.719
 6857TIP3   OH220515   1.460   4.531   3.092
 6857TIP3    H120516   1.477   4.625   3.098
 6857TIP3    H220517   1.366   4.525   3.076
 6858TIP3   OH220518   3.275   5.162   0.339
 6858TIP3    H120519   3.190   5.138   0.375
 6858TIP3    H220520   3.339   5.122   0.398
 6859TIP3   OH220521   1.339   1.810   3.784
 6859TIP3    H120522   1.421   1.837   3.745
 6859TIP3    H220523   1.361   1.793   3.876
 6860TIP3   OH220524   1.557   2.125   4.067
 6860TIP3    H120525   1.580   2.118   4.159
 6860TIP3    H220526   1.560   2.035   4.035
 6861TIP3   OH220527   0.671   4.859   1.151
 6861TIP3    H120528   0.717   4.852   1.067
 6861TIP3    H220529   0.716   4.930   1.197
 6862TIP3   OH220530   2.989   7.167   2.290
 6862TIP3    H120531   2.944   7.100   2.239
 6862TIP3    H220532   3.041   7.118   2.354
 6863TIP3   OH220533   6.039   3.772   5.782
 6863TIP3    H120534   6.107   3.712   5.750
 6863TIP3    H220535   6.017   3.739   5.869
 6864TIP3   OH220536   7.734   3.527   4.051
 6864TIP3    H120537   7.744   3.519   4.146
 6864TIP3    H220538   7.652   3.481   4.031
 6865TIP3   OH220539   7.811   2.985   2.706
 6865TIP3    H120540   7.752   2.922   2.666
 6865TIP3    H220541   7.801   3.064   2.653
 6866TIP3   OH220542   7.069   5.675   5.353
 6866TIP3    H120543   7.121   5.748   5.320
 6866TIP3    H220544   7.022   5.643   5.276
 6867TIP3   OH220545   3.270   5.979   2.437
 6867TIP3    H120546   3.293   6.070   2.419
 6867TIP3    H220547   3.251   5.942   2.351
 6868TIP3   OH220548   2.421   2.307   3.448
 6868TIP3    H120549   2.381   2.223   3.470
 6868TIP3    H220550   2.394   2.366   3.518
 6869TIP3   OH220551   4.453   0.363   3.104
 6869TIP3    H120552   4.358   0.357   3.116
 6869TIP3    H220553   4.467   0.343   3.011
 6870TIP3   OH220554   6.237   2.580   4.358
 6870TIP3    H120555   6.260   2.625   4.277
 6870TIP3    H220556   6.146   2.552   4.345
 6871TIP3   OH220557   5.440   2.895   2.000
 6871TIP3    H120558   5.465   2.987   2.008
 6871TIP3    H220559   5.416   2.869   2.089
 6872TIP3   OH220560   2.047   7.424   0.224
 6872TIP3    H120561   2.107   7.498   0.224
 6872TIP3    H220562   2.061   7.381   0.308
 6873TIP3   OH220563   3.134   5.162   2.750
 6873TIP3    H120564   3.045   5.154   2.715
 6873TIP3    H220565   3.122   5.200   2.837
 6874TIP3   OH220566   7.093   7.245   1.132
 6874TIP3    H120567   7.047   7.244   1.049
 6874TIP3    H220568   7.140   7.162   1.136
 6875TIP3   OH220569   8.291   7.449   6.293
 6875TIP3    H120570   8.271   7.449   6.387
 6875TIP3    H220571   8.341   7.529   6.279
 6876TIP3   OH220572   7.651   5.312   5.243
 6876TIP3    H120573   7.653   5.367   5.165
 6876TIP3    H220574   7.695   5.364   5.310
 6877TIP3   OH220575   3.964   6.129   2.065
 6877TIP3    H120576   4.045   6.118   2.015
 6877TIP3    H220577   3.914   6.195   2.017
 6878TIP3   OH220578   5.641   0.786   2.201
 6878TIP3    H120579   5.563   0.738   2.171
 6878TIP3    H220580   5.682   0.817   2.121
 6879TIP3   OH220581   1.290   2.517   5.106
 6879TIP3    H120582   1.201   2.491   5.130
 6879TIP3    H220583   1.296   2.500   5.012
 6880TIP3   OH220584   1.240   7.111   0.630
 6880TIP3    H120585   1.175   7.176   0.659
 6880TIP3    H220586   1.314   7.125   0.689
 6881TIP3   OH220587   6.053   7.202   3.957
 6881TIP3    H120588   5.977   7.156   3.993
 6881TIP3    H220589   6.063   7.166   3.869
 6882TIP3   OH220590   5.019   1.459   6.714
 6882TIP3    H120591   5.016   1.552   6.739
 6882TIP3    H220592   5.066   1.459   6.631
 6883TIP3   OH220593   6.374   4.763   1.687
 6883TIP3    H120594   6.356   4.713   1.607
 6883TIP3    H220595   6.469   4.775   1.688
 6884TIP3   OH220596   3.048   0.827   2.981
 6884TIP3    H120597   2.971   0.841   3.036
 6884TIP3    H220598   3.101   0.762   3.029
 6885TIP3   OH220599   5.886   5.210   0.735
 6885TIP3    H120600   5.919   5.274   0.798
 6885TIP3    H220601   5.830   5.260   0.676
 6886TIP3   OH220602   1.315   1.230   2.866
 6886TIP3    H120603   1.288   1.144   2.898
 6886TIP3    H220604   1.278   1.292   2.930
 6887TIP3   OH220605   2.834   4.041   2.619
 6887TIP3    H120606   2.825   4.077   2.707
 6887TIP3    H220607   2.883   3.960   2.631
 6888TIP3   OH220608   3.386   5.510   3.884
 6888TIP3    H120609   3.459   5.465   3.928
 6888TIP3    H220610   3.309   5.458   3.905
 6889TIP3   OH220611   0.440   6.782   1.742
 6889TIP3    H120612   0.508   6.807   1.680
 6889TIP3    H220613   0.378   6.729   1.691
 6890TIP3   OH220614   5.961   1.946   1.576
 6890TIP3    H120615   5.959   1.991   1.491
 6890TIP3    H220616   6.039   1.890   1.571
 6891TIP3   OH220617   2.328   0.661   5.799
 6891TIP3    H120618   2.414   0.660   5.757
 6891TIP3    H220619   2.336   0.728   5.867
 6892TIP3   OH220620   2.775   3.604   6.758
 6892TIP3    H120621   2.797   3.696   6.772
 6892TIP3    H220622   2.839   3.573   6.694
 6893TIP3   OH220623   3.854   0.887   0.931
 6893TIP3    H120624   3.925   0.918   0.875
 6893TIP3    H220625   3.845   0.955   0.999
 6894TIP3   OH220626   5.402   0.878   2.812
 6894TIP3    H120627   5.464   0.809   2.835
 6894TIP3    H220628   5.414   0.891   2.718
 6895TIP3   OH220629   0.363   6.146   5.748
 6895TIP3    H120630   0.290   6.190   5.793
 6895TIP3    H220631   0.429   6.136   5.816
 6896TIP3   OH220632   4.815   6.249   5.277
 6896TIP3    H120633   4.789   6.234   5.368
 6896TIP3    H220634   4.834   6.343   5.272
 6897TIP3   OH220635   4.069   6.338   6.563
 6897TIP3    H120636   4.082   6.362   6.471
 6897TIP3    H220637   4.052   6.244   6.561
 6898TIP3   OH220638   3.958   1.769   5.422
 6898TIP3    H120639   3.908   1.826   5.480
 6898TIP3    H220640   4.023   1.826   5.381
 6899TIP3   OH220641   1.811   5.388   0.211
 6899TIP3    H120642   1.726   5.358   0.242
 6899TIP3    H220643   1.871   5.317   0.234
 6900TIP3   OH220644   7.382   3.499   4.460
 6900TIP3    H120645   7.411   3.411   4.481
 6900TIP3    H220646   7.463   3.548   4.447
 6901TIP3   OH220647   1.004   3.450   5.948
 6901TIP3    H120648   1.075   3.436   6.010
 6901TIP3    H220649   1.036   3.412   5.866
 6902TIP3   OH220650   7.462   6.656   5.343
 6902TIP3    H120651   7.432   6.587   5.284
 6902TIP3    H220652   7.447   6.620   5.430
 6903TIP3   OH220653   4.475   2.988   4.937
 6903TIP3    H120654   4.401   3.049   4.944
 6903TIP3    H220655   4.445   2.908   4.981
 6904TIP3   OH220656   4.021   6.658   1.509
 6904TIP3    H120657   4.071   6.645   1.428
 6904TIP3    H220658   4.026   6.573   1.554
 6905TIP3   OH220659   0.243   1.431   5.140
 6905TIP3    H120660   0.325   1.391   5.108
 6905TIP3    H220661   0.272   1.492   5.208
 6906TIP3   OH220662   3.555   6.241   6.159
 6906TIP3    H120663   3.548   6.181   6.085
 6906TIP3    H220664   3.612   6.196   6.221
 6907TIP3   OH220665   0.567   5.995   3.712
 6907TIP3    H120666   0.619   6.033   3.782
 6907TIP3    H220667   0.559   5.902   3.735
 6908TIP3   OH220668   7.664   3.954   5.585
 6908TIP3    H120669   7.632   3.872   5.547
 6908TIP3    H220670   7.684   3.931   5.676
 6909TIP3   OH220671   6.475   0.477   4.172
 6909TIP3    H120672   6.458   0.449   4.262
 6909TIP3    H220673   6.562   0.442   4.153
 6910TIP3   OH220674   0.134   4.915   0.049
 6910TIP3    H120675   0.202   4.961   0.000
 6910TIP3    H220676   0.147   4.942   0.140
 6911TIP3   OH220677   0.362   3.499   0.731
 6911TIP3    H120678   0.328   3.411   0.720
 6911TIP3    H220679   0.338   3.545   0.650
 6912TIP3   OH220680   6.217   0.802   1.999
 6912TIP3    H120681   6.157   0.872   1.971
 6912TIP3    H220682   6.240   0.825   2.089
 6913TIP3   OH220683   1.198   2.377   6.554
 6913TIP3    H120684   1.140   2.328   6.496
 6913TIP3    H220685   1.252   2.310   6.597
 6914TIP3   OH220686   6.652   3.096   5.676
 6914TIP3    H120687   6.608   3.015   5.699
 6914TIP3    H220688   6.598   3.165   5.715
 6915TIP3   OH220689   0.933   4.742   5.250
 6915TIP3    H120690   0.937   4.814   5.187
 6915TIP3    H220691   0.916   4.785   5.334
 6916TIP3   OH220692   1.965   4.221   2.005
 6916TIP3    H120693   2.049   4.227   2.051
 6916TIP3    H220694   1.901   4.253   2.068
 6917TIP3   OH220695   1.445   1.366   4.875
 6917TIP3    H120696   1.502   1.436   4.845
 6917TIP3    H220697   1.483   1.337   4.958
 6918TIP3   OH220698   5.131   2.107   3.039
 6918TIP3    H120699   5.142   2.013   3.053
 6918TIP3    H220700   5.060   2.132   3.099
 6919TIP3   OH220701   5.773   7.464   6.579
 6919TIP3    H120702   5.769   7.438   6.671
 6919TIP3    H220703   5.755   7.383   6.531
 6920TIP3   OH220704   3.597   3.644   6.742
 6920TIP3    H120705   3.555   3.623   6.659
 6920TIP3    H220706   3.534   3.699   6.788
 6921TIP3   OH220707   3.086   4.498   3.651
 6921TIP3    H120708   3.100   4.487   3.557
 6921TIP3    H220709   3.150   4.565   3.677
 6922TIP3   OH220710   0.185   6.828   4.783
 6922TIP3    H120711   0.139   6.885   4.845
 6922TIP3    H220712   0.234   6.889   4.727
 6923TIP3   OH220713   3.965   4.484   2.339
 6923TIP3    H120714   4.005   4.475   2.253
 6923TIP3    H220715   4.038   4.506   2.397
 6924TIP3   OH220716   0.876   2.780   3.145
 6924TIP3    H120717   0.891   2.687   3.158
 6924TIP3    H220718   0.802   2.801   3.202
 6925TIP3   OH220719   1.831   1.683   0.190
 6925TIP3    H120720   1.873   1.619   0.133
 6925TIP3    H220721   1.787   1.743   0.129
 6926TIP3   OH220722   7.892   2.800   3.216
 6926TIP3    H120723   7.945   2.848   3.280
 6926TIP3    H220724   7.951   2.788   3.141
 6927TIP3   OH220725   3.926   1.700   0.001
 6927TIP3    H120726   3.919   1.697   0.096
 6927TIP3    H220727   4.003   1.753  -0.017
 6928TIP3   OH220728   0.958   4.298   3.005
 6928TIP3    H120729   0.936   4.209   2.975
 6928TIP3    H220730   0.919   4.356   2.940
 6929TIP3   OH220731   6.132   1.571   2.460
 6929TIP3    H120732   6.172   1.599   2.377
 6929TIP3    H220733   6.112   1.653   2.506
 6930TIP3   OH220734   6.851   6.514   2.294
 6930TIP3    H120735   6.860   6.486   2.203
 6930TIP3    H220736   6.780   6.459   2.328
 6931TIP3   OH220737   5.777   2.374   0.565
 6931TIP3    H120738   5.866   2.348   0.588
 6931TIP3    H220739   5.788   2.454   0.513
 6932TIP3   OH220740   0.920   4.661   1.217
 6932TIP3    H120741   0.854   4.610   1.172
 6932TIP3    H220742   0.938   4.612   1.297
 6933TIP3   OH220743   7.021   2.454   4.332
 6933TIP3    H120744   6.978   2.515   4.391
 6933TIP3    H220745   6.969   2.374   4.337
 6934TIP3   OH220746   1.968   6.816   6.513
 6934TIP3    H120747   2.018   6.890   6.547
 6934TIP3    H220748   2.000   6.805   6.423
 6935TIP3   OH220749   4.757   4.310   0.105
 6935TIP3    H120750   4.754   4.403   0.130
 6935TIP3    H220751   4.836   4.277   0.147
 6936TIP3   OH220752   1.308   3.396   3.351
 6936TIP3    H120753   1.365   3.331   3.309
 6936TIP3    H220754   1.234   3.345   3.385
 6937TIP3   OH220755   4.732   7.008   1.542
 6937TIP3    H120756   4.744   6.934   1.483
 6937TIP3    H220757   4.712   7.082   1.484
 6938TIP3   OH220758   3.913   2.662   3.455
 6938TIP3    H120759   3.929   2.572   3.426
 6938TIP3    H220760   3.999   2.704   3.451
 6939TIP3   OH220761   3.576   6.233   2.154
 6939TIP3    H120762   3.515   6.251   2.083
 6939TIP3    H220763   3.663   6.242   2.114
 6940TIP3   OH220764   0.634   5.859   5.846
 6940TIP3    H120765   0.562   5.886   5.904
 6940TIP3    H220766   0.711   5.857   5.903
 6941TIP3   OH220767   3.449   4.108   3.112
 6941TIP3    H120768   3.418   4.194   3.086
 6941TIP3    H220769   3.502   4.077   3.039
 6942TIP3   OH220770   6.157   4.657   0.682
 6942TIP3    H120771   6.247   4.689   0.688
 6942TIP3    H220772   6.165   4.570   0.641
 6943TIP3   OH220773   3.334   6.171   4.815
 6943TIP3    H120774   3.293   6.176   4.902
 6943TIP3    H220775   3.287   6.101   4.771
 6944TIP3   OH220776   6.873   0.057   4.466
 6944TIP3    H120777   6.916   0.139   4.443
 6944TIP3    H220778   6.857   0.013   4.382
 6945TIP3   OH220779   0.242   3.839   5.457
 6945TIP3    H120780   0.327   3.882   5.464
 6945TIP3    H220781   0.243   3.798   5.370
 6946TIP3   OH220782   0.365   0.438   5.050
 6946TIP3    H120783   0.366   0.465   4.958
 6946TIP3    H220784   0.380   0.343   5.046
 6947TIP3   OH220785   4.778   6.435   1.070
 6947TIP3    H120786   4.697   6.390   1.093
 6947TIP3    H220787   4.787   6.423   0.976
 6948TIP3   OH220788   0.217   2.681   3.719
 6948TIP3    H120789   0.258   2.595   3.721
 6948TIP3    H220790   0.131   2.668   3.761
 6949TIP3   OH220791   2.008   0.132   1.412
 6949TIP3    H120792   2.060   0.182   1.476
 6949TIP3    H220793   1.970   0.198   1.355
 6950TIP3   OH220794   3.353   0.247   6.040
 6950TIP3    H120795   3.373   0.311   6.108
 6950TIP3    H220796   3.333   0.166   6.088
 6951TIP3   OH220797   5.964   7.586   1.977
 6951TIP3    H120798   5.942   7.509   2.029
 6951TIP3    H220799   5.904   7.583   1.903
 6952TIP3   OH220800   7.110   4.231   2.452
 6952TIP3    H120801   7.092   4.322   2.477
 6952TIP3    H220802   7.094   4.181   2.532
 6953TIP3   OH220803   0.614   5.868   2.464
 6953TIP3    H120804   0.704   5.868   2.432
 6953TIP3    H220805   0.568   5.808   2.406
 6954TIP3   OH220806   3.458   0.126   4.081
 6954TIP3    H120807   3.364   0.117   4.098
 6954TIP3    H220808   3.483   0.207   4.126
 6955TIP3   OH220809   6.743   6.534   5.798
 6955TIP3    H120810   6.811   6.601   5.801
 6955TIP3    H220811   6.676   6.564   5.859
 6956TIP3   OH220812   4.151   1.368   0.139
 6956TIP3    H120813   4.169   1.294   0.081
 6956TIP3    H220814   4.057   1.363   0.156
 6957TIP3   OH220815   6.143   4.980   0.833
 6957TIP3    H120816   6.168   4.910   0.894
 6957TIP3    H220817   6.048   4.984   0.839
 6958TIP3   OH220818   0.328   2.378   0.269
 6958TIP3    H120819   0.318   2.471   0.286
 6958TIP3    H220820   0.253   2.355   0.214
 6959TIP3   OH220821   2.739   0.483   6.240
 6959TIP3    H120822   2.657   0.435   6.244
 6959TIP3    H220823   2.807   0.418   6.254
 6960TIP3   OH220824   7.155   3.619   3.063
 6960TIP3    H120825   7.115   3.532   3.069
 6960TIP3    H220826   7.105   3.672   3.124
 6961TIP3   OH220827   1.422   5.998   4.916
 6961TIP3    H120828   1.342   5.991   4.864
 6961TIP3    H220829   1.479   6.054   4.863
 6962TIP3   OH220830   4.978   0.758   6.230
 6962TIP3    H120831   4.897   0.708   6.235
 6962TIP3    H220832   4.961   0.837   6.281
 6963TIP3   OH220833   5.558   1.872   1.299
 6963TIP3    H120834   5.508   1.952   1.316
 6963TIP3    H220835   5.589   1.845   1.386
 6964TIP3   OH220836   0.408   5.176   1.399
 6964TIP3    H120837   0.495   5.139   1.385
 6964TIP3    H220838   0.385   5.215   1.314
 6965TIP3   OH220839   2.312   5.347   4.591
 6965TIP3    H120840   2.268   5.422   4.551
 6965TIP3    H220841   2.404   5.357   4.568
 6966TIP3   OH220842   6.240   1.883   5.097
 6966TIP3    H120843   6.223   1.946   5.027
 6966TIP3    H220844   6.163   1.825   5.096
 6967TIP3   OH220845   0.037   4.062   3.650
 6967TIP3    H120846  -0.021   4.125   3.691
 6967TIP3    H220847   0.079   4.017   3.723
 6968TIP3   OH220848   0.489   1.882   0.363
 6968TIP3    H120849   0.508   1.972   0.389
 6968TIP3    H220850   0.510   1.879   0.270
 6969TIP3   OH220851   2.595   1.943   1.539
 6969TIP3    H120852   2.546   1.957   1.458
 6969TIP3    H220853   2.678   1.989   1.525
 6970TIP3   OH220854   7.007   5.717   2.831
 6970TIP3    H120855   6.975   5.663   2.759
 6970TIP3    H220856   7.055   5.789   2.789
 6971TIP3   OH220857   6.346   6.678   3.485
 6971TIP3    H120858   6.360   6.627   3.565
 6971TIP3    H220859   6.251   6.676   3.472
 6972TIP3   OH220860   1.834   3.882   1.706
 6972TIP3    H120861   1.916   3.928   1.686
 6972TIP3    H220862   1.838   3.801   1.655
 6973TIP3   OH220863   1.889   3.122   2.404
 6973TIP3    H120864   1.874   3.070   2.483
 6973TIP3    H220865   1.803   3.127   2.362
 6974TIP3   OH220866   7.223   3.184   0.973
 6974TIP3    H120867   7.306   3.136   0.979
 6974TIP3    H220868   7.236   3.261   1.028
 6975TIP3   OH220869   0.371   2.467   2.838
 6975TIP3    H120870   0.389   2.534   2.772
 6975TIP3    H220871   0.437   2.481   2.905
 6976TIP3   OH220872   8.031   7.327   2.357
 6976TIP3    H120873   8.039   7.407   2.407
 6976TIP3    H220874   8.100   7.333   2.290
 6977TIP3   OH220875   6.472   7.408   6.549
 6977TIP3    H120876   6.474   7.348   6.474
 6977TIP3    H220877   6.563   7.416   6.576
 6978TIP3   OH220878   6.111   7.094   2.470
 6978TIP3    H120879   6.198   7.100   2.509
 6978TIP3    H220880   6.100   7.178   2.424
 6979TIP3   OH220881   8.107   0.601   1.707
 6979TIP3    H120882   8.085   0.525   1.653
 6979TIP3    H220883   8.039   0.666   1.687
 6980TIP3   OH220884   3.955   5.754   2.397
 6980TIP3    H120885   3.906   5.707   2.329
 6980TIP3    H220886   3.958   5.844   2.366
 6981TIP3   OH220887   5.099   1.747   5.735
 6981TIP3    H120888   5.126   1.706   5.653
 6981TIP3    H220889   5.028   1.806   5.711
 6982TIP3   OH220890   4.835   1.710   2.790
 6982TIP3    H120891   4.777   1.636   2.772
 6982TIP3    H220892   4.827   1.725   2.884
 6983TIP3   OH220893   2.516   4.119   2.736
 6983TIP3    H120894   2.607   4.150   2.739
 6983TIP3    H220895   2.515   4.058   2.661
 6984TIP3   OH220896   1.149   1.616   6.666
 6984TIP3    H120897   1.188   1.635   6.752
 6984TIP3    H220898   1.083   1.549   6.685
 6985TIP3   OH220899   1.410   7.673   3.205
 6985TIP3    H120900   1.353   7.714   3.140
 6985TIP3    H220901   1.441   7.746   3.259
 6986TIP3   OH220902   0.982   4.526   1.473
 6986TIP3    H120903   1.031   4.607   1.489
 6986TIP3    H220904   1.048   4.456   1.481
 6987TIP3   OH220905   4.337   6.051   0.618
 6987TIP3    H120906   4.285   6.075   0.694
 6987TIP3    H220907   4.389   6.128   0.598
 6988TIP3   OH220908   1.061   7.636   3.385
 6988TIP3    H120909   1.108   7.594   3.457
 6988TIP3    H220910   1.127   7.653   3.319
 6989TIP3   OH220911   7.756   3.603   6.641
 6989TIP3    H120912   7.791   3.525   6.686
 6989TIP3    H220913   7.834   3.653   6.617
 6990TIP3   OH220914   8.109   3.239   1.269
 6990TIP3    H120915   8.043   3.299   1.233
 6990TIP3    H220916   8.183   3.295   1.291
 6991TIP3   OH220917   4.441   5.519   4.133
 6991TIP3    H120918   4.439   5.568   4.216
 6991TIP3    H220919   4.530   5.529   4.102
 6992TIP3   OH220920   1.109   5.974   5.446
 6992TIP3    H120921   1.064   5.916   5.385
 6992TIP3    H220922   1.039   6.026   5.486
 6993TIP3   OH220923   2.823   1.580   4.422
 6993TIP3    H120924   2.877   1.635   4.366
 6993TIP3    H220925   2.830   1.492   4.383
 6994TIP3   OH220926   3.670   6.420   5.989
 6994TIP3    H120927   3.615   6.370   6.049
 6994TIP3    H220928   3.623   6.418   5.906
 6995TIP3   OH220929   1.044   4.535   3.701
 6995TIP3    H120930   1.131   4.536   3.662
 6995TIP3    H220931   1.009   4.449   3.679
 6996TIP3   OH220932   0.130   0.848   3.587
 6996TIP3    H120933   0.096   0.759   3.576
 6996TIP3    H220934   0.072   0.903   3.533
 6997TIP3   OH220935   8.291   3.794   4.945
 6997TIP3    H120936   8.200   3.765   4.932
 6997TIP3    H220937   8.319   3.822   4.858
 6998TIP3   OH220938   3.124   3.089   4.998
 6998TIP3    H120939   3.055   3.034   4.960
 6998TIP3    H220940   3.084   3.174   5.010
 6999TIP3   OH220941   2.046   5.000   5.959
 6999TIP3    H120942   2.070   5.062   6.028
 6999TIP3    H220943   2.105   4.926   5.972
 7000TIP3   OH220944   2.523   7.019   3.667
 7000TIP3    H120945   2.601   6.972   3.694
 7000TIP3    H220946   2.552   7.077   3.597
 7001TIP3   OH220947   3.332   4.845   3.267
 7001TIP3    H120948   3.399   4.809   3.326
 7001TIP3    H220949   3.257   4.860   3.324
 7002TIP3   OH220950   1.048   2.107   4.564
 7002TIP3    H120951   1.014   2.136   4.479
 7002TIP3    H220952   1.078   2.187   4.606
 7003TIP3   OH220953   0.493   3.578   1.531
 7003TIP3    H120954   0.562   3.582   1.465
 7003TIP3    H220955   0.499   3.489   1.566
 7004TIP3   OH220956   2.141   4.573   6.613
 7004TIP3    H120957   2.145   4.615   6.527
 7004TIP3    H220958   2.212   4.614   6.663
 7005TIP3   OH220959   6.598   5.909   2.803
 7005TIP3    H120960   6.565   5.974   2.865
 7005TIP3    H220961   6.641   5.843   2.857
 7006TIP3   OH220962   7.315   7.729   0.474
 7006TIP3    H120963   7.273   7.777   0.403
 7006TIP3    H220964   7.361   7.797   0.525
 7007TIP3   OH220965   2.096   2.060   3.347
 7007TIP3    H120966   2.119   2.118   3.275
 7007TIP3    H220967   2.168   2.071   3.410
 7008TIP3   OH220968   3.193   5.958   2.167
 7008TIP3    H120969   3.118   5.910   2.131
 7008TIP3    H220970   3.269   5.910   2.134
 7009TIP3   OH220971   1.897   7.513   3.283
 7009TIP3    H120972   1.936   7.601   3.277
 7009TIP3    H220973   1.871   7.493   3.193
 7010TIP3   OH220974   1.632   5.413   2.657
 7010TIP3    H120975   1.549   5.370   2.679
 7010TIP3    H220976   1.630   5.494   2.707
 7011TIP3   OH220977   5.685   0.472   4.644
 7011TIP3    H120978   5.762   0.415   4.633
 7011TIP3    H220979   5.708   0.551   4.596
 7012TIP3   OH220980   1.737   3.651   1.238
 7012TIP3    H120981   1.670   3.717   1.217
 7012TIP3    H220982   1.705   3.571   1.196
 7013TIP3   OH220983   8.268   7.683   6.530
 7013TIP3    H120984   8.201   7.702   6.465
 7013TIP3    H220985   8.237   7.604   6.573
 7014TIP3   OH220986   2.244   1.678   6.578
 7014TIP3    H120987   2.311   1.741   6.606
 7014TIP3    H220988   2.174   1.731   6.542
 7015TIP3   OH220989   0.837   6.224   5.952
 7015TIP3    H120990   0.807   6.314   5.968
 7015TIP3    H220991   0.927   6.233   5.923
 7016TIP3   OH220992   7.669   0.950   3.663
 7016TIP3    H120993   7.653   0.860   3.634
 7016TIP3    H220994   7.712   0.991   3.588
 7017TIP3   OH220995   4.219   5.399   2.073
 7017TIP3    H120996   4.175   5.324   2.112
 7017TIP3    H220997   4.254   5.367   1.990
 7018TIP3   OH220998   1.727   1.155   2.326
 7018TIP3    H120999   1.811   1.200   2.323
 7018TIP3    H221000   1.731   1.092   2.255
 7019TIP3   OH221001   0.740   4.878   4.130
 7019TIP3    H121002   0.772   4.787   4.130
 7019TIP3    H221003   0.767   4.912   4.045
 7020TIP3   OH221004   1.074   1.934   2.481
 7020TIP3    H121005   1.127   1.945   2.402
 7020TIP3    H221006   1.109   1.854   2.522
 7021TIP3   OH221007   4.889   1.120   4.232
 7021TIP3    H121008   4.943   1.046   4.205
 7021TIP3    H221009   4.939   1.198   4.207
 7022TIP3   OH221010   1.008   6.256   1.115
 7022TIP3    H121011   1.091   6.252   1.068
 7022TIP3    H221012   0.991   6.165   1.141
 7023TIP3   OH221013   5.843   2.205   3.103
 7023TIP3    H121014   5.868   2.296   3.119
 7023TIP3    H221015   5.904   2.154   3.156
 7024TIP3   OH221016   4.265   0.045   5.651
 7024TIP3    H121017   4.203  -0.006   5.703
 7024TIP3    H221018   4.351   0.008   5.674
 7025TIP3   OH221019   1.832   3.353   5.094
 7025TIP3    H121020   1.920   3.316   5.089
 7025TIP3    H221021   1.819   3.396   5.010
 7026TIP3   OH221022   5.611   3.760   0.945
 7026TIP3    H121023   5.653   3.693   0.999
 7026TIP3    H221024   5.683   3.804   0.900
 7027TIP3   OH221025   0.322   6.591   0.663
 7027TIP3    H121026   0.333   6.501   0.633
 7027TIP3    H221027   0.292   6.639   0.586
 7028TIP3   OH221028   4.381   3.004   2.341
 7028TIP3    H121029   4.357   3.002   2.433
 7028TIP3    H221030   4.332   3.078   2.305
 7029TIP3   OH221031   2.507   6.125   4.774
 7029TIP3    H121032   2.437   6.091   4.718
 7029TIP3    H221033   2.542   6.200   4.725
 7030TIP3   OH221034   3.453   2.286   6.590
 7030TIP3    H121035   3.400   2.340   6.649
 7030TIP3    H221036   3.538   2.329   6.588
 7031TIP3   OH221037   5.794   1.514   2.029
 7031TIP3    H121038   5.699   1.524   2.018
 7031TIP3    H221039   5.831   1.583   1.975
 7032TIP3   OH221040   5.679   3.364   0.156
 7032TIP3    H121041   5.588   3.333   0.154
 7032TIP3    H221042   5.731   3.291   0.124
 7033TIP3   OH221043   7.637   4.391   6.500
 7033TIP3    H121044   7.721   4.358   6.532
 7033TIP3    H221045   7.591   4.417   6.579
 7034TIP3   OH221046   3.459   3.043   5.932
 7034TIP3    H121047   3.499   2.973   5.881
 7034TIP3    H221048   3.526   3.110   5.940
 7035TIP3   OH221049   4.237   3.622   3.377
 7035TIP3    H121050   4.148   3.622   3.341
 7035TIP3    H221051   4.229   3.665   3.462
 7036TIP3   OH221052   2.601   0.690   3.983
 7036TIP3    H121053   2.589   0.767   3.929
 7036TIP3    H221054   2.558   0.712   4.066
 7037TIP3   OH221055   6.605   1.767   0.549
 7037TIP3    H121056   6.617   1.791   0.457
 7037TIP3    H221057   6.590   1.850   0.594
 7038TIP3   OH221058   3.826   4.757   3.134
 7038TIP3    H121059   3.743   4.719   3.162
 7038TIP3    H221060   3.865   4.689   3.079
 7039TIP3   OH221061   4.842   0.381   3.242
 7039TIP3    H121062   4.859   0.354   3.332
 7039TIP3    H221063   4.769   0.444   3.249
 7040TIP3   OH221064   1.865   3.221   3.156
 7040TIP3    H121065   1.936   3.275   3.122
 7040TIP3    H221066   1.802   3.284   3.191
 7041TIP3   OH221067   4.808   3.358   4.249
 7041TIP3    H121068   4.731   3.391   4.296
 7041TIP3    H221069   4.776   3.280   4.205
 7042TIP3   OH221070   5.201   2.632   0.899
 7042TIP3    H121071   5.154   2.644   0.816
 7042TIP3    H221072   5.132   2.613   0.963
 7043TIP3   OH221073   0.089   6.454   1.495
 7043TIP3    H121074   0.022   6.488   1.436
 7043TIP3    H221075   0.164   6.436   1.438
 7044TIP3   OH221076   4.409   4.289   5.296
 7044TIP3    H121077   4.445   4.377   5.304
 7044TIP3    H221078   4.315   4.302   5.286
 7045TIP3   OH221079   0.628   5.893   5.563
 7045TIP3    H121080   0.616   5.841   5.643
 7045TIP3    H221081   0.552   5.952   5.561
 7046TIP3   OH221082   0.400   5.529   5.363
 7046TIP3    H121083   0.361   5.582   5.433
 7046TIP3    H221084   0.479   5.577   5.339
 7047TIP3   OH221085   7.266   1.277   1.000
 7047TIP3    H121086   7.239   1.364   0.971
 7047TIP3    H221087   7.286   1.230   0.919
 7048TIP3   OH221088   3.483   3.626   4.333
 7048TIP3    H121089   3.393   3.595   4.346
 7048TIP3    H221090   3.537   3.558   4.373
 7049TIP3   OH221091   6.231   0.409   1.063
 7049TIP3    H121092   6.297   0.430   0.997
 7049TIP3    H221093   6.280   0.365   1.133
 7050TIP3   OH221094   0.183   6.155   5.406
 7050TIP3    H121095   0.184   6.239   5.451
 7050TIP3    H221096   0.090   6.130   5.404
 7051TIP3   OH221097   6.123   4.766   5.803
 7051TIP3    H121098   6.153   4.831   5.866
 7051TIP3    H221099   6.055   4.811   5.753
 7052TIP3   OH221100   5.922   2.436   3.218
 7052TIP3    H121101   5.895   2.418   3.308
 7052TIP3    H221102   6.017   2.444   3.222
 7053TIP3   OH221103   2.804   7.679   0.383
 7053TIP3    H121104   2.860   7.634   0.445
 7053TIP3    H221105   2.718   7.681   0.425
 7054TIP3   OH221106   0.430   3.929   3.728
 7054TIP3    H121107   0.391   3.924   3.641
 7054TIP3    H221108   0.510   3.878   3.722
 7055TIP3   OH221109   6.337   1.876   0.371
 7055TIP3    H121110   6.432   1.876   0.382
 7055TIP3    H221111   6.323   1.898   0.279
 7056TIP3   OH221112   5.035   6.212   6.757
 7056TIP3    H121113   4.971   6.274   6.720
 7056TIP3    H221114   5.004   6.195   6.846
 7057TIP3   OH221115   1.913   7.532   1.192
 7057TIP3    H121116   1.875   7.616   1.166
 7057TIP3    H221117   1.848   7.493   1.251
 7058TIP3   OH221118   0.926   7.702   4.535
 7058TIP3    H121119   0.880   7.625   4.503
 7058TIP3    H221120   0.991   7.722   4.467
 7059TIP3   OH221121   1.021   5.308   2.421
 7059TIP3    H121122   0.949   5.291   2.360
 7059TIP3    H221123   1.057   5.392   2.392
 7060TIP3   OH221124   4.577   4.172   0.869
 7060TIP3    H121125   4.553   4.248   0.922
 7060TIP3    H221126   4.504   4.110   0.880
 7061TIP3   OH221127   7.902   1.150   0.235
 7061TIP3    H121128   7.977   1.116   0.186
 7061TIP3    H221129   7.839   1.175   0.167
 7062TIP3   OH221130   4.995   2.377   4.901
 7062TIP3    H121131   4.899   2.374   4.903
 7062TIP3    H221132   5.022   2.287   4.916
 7063TIP3   OH221133   0.224   1.964   4.024
 7063TIP3    H121134   0.181   2.041   3.988
 7063TIP3    H221135   0.216   1.897   3.956
 7064TIP3   OH221136   2.462   4.167   4.795
 7064TIP3    H121137   2.489   4.191   4.706
 7064TIP3    H221138   2.525   4.213   4.851
 7065TIP3   OH221139   3.480   4.834   1.066
 7065TIP3    H121140   3.467   4.927   1.088
 7065TIP3    H221141   3.501   4.835   0.972
 7066TIP3   OH221142   0.152   7.225   6.578
 7066TIP3    H121143   0.139   7.162   6.649
 7066TIP3    H221144   0.232   7.271   6.602
 7067TIP3   OH221145   7.184   5.353   4.246
 7067TIP3    H121146   7.180   5.311   4.161
 7067TIP3    H221147   7.097   5.389   4.260
 7068TIP3   OH221148   2.633   6.251   5.820
 7068TIP3    H121149   2.554   6.245   5.766
 7068TIP3    H221150   2.605   6.294   5.900
 7069TIP3   OH221151   2.551   0.802   2.333
 7069TIP3    H121152   2.564   0.820   2.240
 7069TIP3    H221153   2.456   0.796   2.343
 7070TIP3   OH221154   8.051   4.036   6.398
 7070TIP3    H121155   8.039   4.102   6.330
 7070TIP3    H221156   7.978   3.976   6.387
 7071TIP3   OH221157   6.815   2.870   1.169
 7071TIP3    H121158   6.770   2.930   1.228
 7071TIP3    H221159   6.755   2.796   1.160
 7072TIP3   OH221160   5.215   0.301   6.279
 7072TIP3    H121161   5.180   0.385   6.308
 7072TIP3    H221162   5.233   0.253   6.360
 7073TIP3   OH221163   8.059   5.020   6.343
 7073TIP3    H121164   8.126   5.048   6.281
 7073TIP3    H221165   8.044   4.927   6.323
 7074TIP3   OH221166   4.505   4.938   6.276
 7074TIP3    H121167   4.433   4.994   6.246
 7074TIP3    H221168   4.467   4.850   6.278
 7075TIP3   OH221169   7.255   4.713   0.906
 7075TIP3    H121170   7.199   4.755   0.840
 7075TIP3    H221171   7.210   4.632   0.928
 7076TIP3   OH221172   7.297   0.923   6.329
 7076TIP3    H121173   7.339   0.991   6.276
 7076TIP3    H221174   7.368   0.863   6.353
 7077TIP3   OH221175   4.140   5.982   0.349
 7077TIP3    H121176   4.179   5.916   0.407
 7077TIP3    H221177   4.116   6.054   0.408
 7078TIP3   OH221178   2.662   7.067   3.415
 7078TIP3    H121179   2.604   7.002   3.375
 7078TIP3    H221180   2.700   7.114   3.341
 7079TIP3   OH221181   0.262   1.202   1.080
 7079TIP3    H121182   0.353   1.181   1.057
 7079TIP3    H221183   0.237   1.272   1.020
 7080TIP3   OH221184   1.770   4.618   5.754
 7080TIP3    H121185   1.794   4.710   5.759
 7080TIP3    H221186   1.727   4.609   5.669
 7081TIP3   OH221187   4.059   4.642   1.581
 7081TIP3    H121188   4.143   4.681   1.604
 7081TIP3    H221189   4.073   4.548   1.586
 7082TIP3   OH221190   1.831   1.405   2.761
 7082TIP3    H121191   1.904   1.366   2.712
 7082TIP3    H221192   1.853   1.389   2.853
 7083TIP3   OH221193   4.556   4.518   2.000
 7083TIP3    H121194   4.554   4.605   2.040
 7083TIP3    H221195   4.471   4.509   1.957
 7084TIP3   OH221196   5.788   7.722   5.543
 7084TIP3    H121197   5.743   7.704   5.625
 7084TIP3    H221198   5.880   7.706   5.562
 7085TIP3   OH221199   0.669   6.405   2.600
 7085TIP3    H121200   0.589   6.353   2.603
 7085TIP3    H221201   0.640   6.491   2.569
 7086TIP3   OH221202   3.351   5.153   6.353
 7086TIP3    H121203   3.413   5.080   6.353
 7086TIP3    H221204   3.327   5.163   6.445
 7087TIP3   OH221205   7.523   1.716   6.401
 7087TIP3    H121206   7.553   1.792   6.451
 7087TIP3    H221207   7.433   1.737   6.377
 7088TIP3   OH221208   6.027   2.826   1.477
 7088TIP3    H121209   6.033   2.894   1.545
 7088TIP3    H221210   6.117   2.814   1.448
 7089TIP3   OH221211   1.289   3.869   5.821
 7089TIP3    H121212   1.206   3.822   5.834
 7089TIP3    H221213   1.293   3.886   5.727
 7090TIP3   OH221214   4.713   4.813   3.904
 7090TIP3    H121215   4.779   4.882   3.902
 7090TIP3    H221216   4.678   4.815   3.993
 7091TIP3   OH221217   1.973   0.656   6.362
 7091TIP3    H121218   1.915   0.682   6.291
 7091TIP3    H221219   2.041   0.604   6.320
 7092TIP3   OH221220   6.813   4.528   3.035
 7092TIP3    H121221   6.824   4.604   3.091
 7092TIP3    H221222   6.741   4.551   2.977
 7093TIP3   OH221223   2.032   2.600   5.672
 7093TIP3    H121224   2.074   2.530   5.723
 7093TIP3    H221225   2.102   2.662   5.654
 7094TIP3   OH221226   0.649   1.197   3.146
 7094TIP3    H121227   0.644   1.253   3.224
 7094TIP3    H221228   0.636   1.257   3.072
 7095TIP3   OH221229   1.593   4.969   6.314
 7095TIP3    H121230   1.556   5.024   6.245
 7095TIP3    H221231   1.572   5.016   6.395
 7096TIP3   OH221232   5.794   6.733   0.088
 7096TIP3    H121233   5.796   6.777   0.173
 7096TIP3    H221234   5.835   6.648   0.104
 7097TIP3   OH221235   1.821   2.916   3.548
 7097TIP3    H121236   1.877   2.838   3.548
 7097TIP3    H221237   1.748   2.893   3.490
 7098TIP3   OH221238   7.038   4.429   4.893
 7098TIP3    H121239   7.118   4.379   4.911
 7098TIP3    H221240   7.026   4.423   4.798
 7099TIP3   OH221241   3.384   2.460   5.493
 7099TIP3    H121242   3.446   2.498   5.556
 7099TIP3    H221243   3.432   2.388   5.452
 7100TIP3   OH221244   0.387   3.863   3.465
 7100TIP3    H121245   0.385   3.922   3.389
 7100TIP3    H221246   0.297   3.831   3.472
 7101TIP3   OH221247   6.960   4.127   4.441
 7101TIP3    H121248   6.918   4.060   4.496
 7101TIP3    H221249   6.894   4.195   4.433
 7102TIP3   OH221250   1.942   6.556   2.000
 7102TIP3    H121251   2.026   6.511   1.993
 7102TIP3    H221252   1.881   6.488   2.030
 7103TIP3   OH221253   7.747   1.866   4.336
 7103TIP3    H121254   7.660   1.838   4.309
 7103TIP3    H221255   7.806   1.826   4.273
 7104TIP3   OH221256   1.452   4.006   6.405
 7104TIP3    H121257   1.440   4.091   6.447
 7104TIP3    H221258   1.465   4.026   6.313
 7105TIP3   OH221259   7.254   7.667   3.931
 7105TIP3    H121260   7.197   7.660   3.854
 7105TIP3    H221261   7.193   7.679   4.004
 7106TIP3   OH221262   1.338   2.370   2.422
 7106TIP3    H121263   1.356   2.294   2.478
 7106TIP3    H221264   1.249   2.357   2.392
 7107TIP3   OH221265   1.582   3.269   5.605
 7107TIP3    H121266   1.560   3.316   5.525
 7107TIP3    H221267   1.553   3.179   5.588
 7108TIP3   OH221268   8.152   1.940   3.473
 7108TIP3    H121269   8.105   2.022   3.462
 7108TIP3    H221270   8.084   1.872   3.470
 7109TIP3   OH221271   4.219   6.472   6.766
 7109TIP3    H121272   4.314   6.477   6.769
 7109TIP3    H221273   4.201   6.387   6.726
 7110TIP3   OH221274   1.867   6.993   3.822
 7110TIP3    H121275   1.907   6.906   3.833
 7110TIP3    H221276   1.898   7.023   3.737
 7111TIP3   OH221277   0.032   1.306   4.749
 7111TIP3    H121278  -0.007   1.306   4.836
 7111TIP3    H221279   0.088   1.228   4.747
 7112TIP3   OH221280   4.345   1.417   6.182
 7112TIP3    H121281   4.321   1.498   6.138
 7112TIP3    H221282   4.433   1.434   6.217
 7113TIP3   OH221283   0.578   1.043   5.046
 7113TIP3    H121284   0.497   0.993   5.033
 7113TIP3    H221285   0.549   1.130   5.072
 7114TIP3   OH221286   1.023   5.272   1.008
 7114TIP3    H121287   0.959   5.252   0.939
 7114TIP3    H221288   1.105   5.288   0.961
 7115TIP3   OH221289   5.968   0.271   5.192
 7115TIP3    H121290   5.944   0.312   5.275
 7115TIP3    H221291   5.902   0.303   5.130
 7116TIP3   OH221292   7.865   2.344   4.025
 7116TIP3    H121293   7.788   2.287   4.033
 7116TIP3    H221294   7.938   2.289   4.052
 7117TIP3   OH221295   1.428   7.101   4.700
 7117TIP3    H121296   1.335   7.100   4.678
 7117TIP3    H221297   1.432   7.136   4.789
 7118TIP3   OH221298   7.583   2.199   6.560
 7118TIP3    H121299   7.596   2.264   6.492
 7118TIP3    H221300   7.656   2.138   6.551
 7119TIP3   OH221301   4.578   6.968   0.558
 7119TIP3    H121302   4.536   7.054   0.569
 7119TIP3    H221303   4.524   6.923   0.494
 7120TIP3   OH221304   2.076   2.395   0.295
 7120TIP3    H121305   1.989   2.400   0.255
 7120TIP3    H221306   2.108   2.485   0.294
 7121TIP3   OH221307   5.705   3.574   3.458
 7121TIP3    H121308   5.643   3.631   3.504
 7121TIP3    H221309   5.786   3.581   3.509
 7122TIP3   OH221310   2.780   4.532   0.163
 7122TIP3    H121311   2.777   4.471   0.236
 7122TIP3    H221312   2.743   4.613   0.198
 7123TIP3   OH221313   5.532   5.894   5.342
 7123TIP3    H121314   5.500   5.893   5.432
 7123TIP3    H221315   5.617   5.852   5.347
 7124TIP3   OH221316   5.374   1.496   5.713
 7124TIP3    H121317   5.460   1.525   5.683
 7124TIP3    H221318   5.359   1.546   5.794
 7125TIP3   OH221319   0.851   7.173   1.033
 7125TIP3    H121320   0.810   7.251   0.996
 7125TIP3    H221321   0.945   7.185   1.015
 7126TIP3   OH221322   1.800   0.955   6.255
 7126TIP3    H121323   1.796   0.885   6.189
 7126TIP3    H221324   1.775   0.912   6.337
 7127TIP3   OH221325   2.142   4.005   4.728
 7127TIP3    H121326   2.132   4.063   4.804
 7127TIP3    H221327   2.232   3.974   4.733
 7128TIP3   OH221328   1.332   5.346   2.414
 7128TIP3    H121329   1.313   5.369   2.505
 7128TIP3    H221330   1.386   5.419   2.383
 7129TIP3   OH221331   7.295   2.352   3.278
 7129TIP3    H121332   7.289   2.276   3.221
 7129TIP3    H221333   7.384   2.385   3.266
 7130TIP3   OH221334   2.411   3.006   4.935
 7130TIP3    H121335   2.375   2.989   5.022
 7130TIP3    H221336   2.474   3.077   4.948
 7131TIP3   OH221337   2.334   0.907   1.099
 7131TIP3    H121338   2.328   0.894   1.193
 7131TIP3    H221339   2.299   0.826   1.061
 7132TIP3   OH221340   5.719   3.644   6.586
 7132TIP3    H121341   5.782   3.682   6.647
 7132TIP3    H221342   5.702   3.714   6.523
 7133TIP3   OH221343   1.405   5.083   2.470
 7133TIP3    H121344   1.362   5.060   2.552
 7133TIP3    H221345   1.382   5.175   2.455
 7134TIP3   OH221346   3.505   0.875   3.927
 7134TIP3    H121347   3.471   0.960   3.953
 7134TIP3    H221348   3.453   0.851   3.850
 7135TIP3   OH221349   5.336   2.042   2.708
 7135TIP3    H121350   5.247   2.017   2.732
 7135TIP3    H221351   5.371   2.083   2.787
 7136TIP3   OH221352   3.683   3.125   0.394
 7136TIP3    H121353   3.685   3.098   0.486
 7136TIP3    H221354   3.590   3.136   0.374
 7137TIP3   OH221355   2.335   3.942   2.862
 7137TIP3    H121356   2.380   4.008   2.811
 7137TIP3    H221357   2.243   3.969   2.862
 7138TIP3   OH221358   4.931   2.002   5.926
 7138TIP3    H121359   4.978   1.999   5.843
 7138TIP3    H221360   4.853   1.948   5.911
 7139TIP3   OH221361   0.566   4.935   6.568
 7139TIP3    H121362   0.471   4.924   6.565
 7139TIP3    H221363   0.598   4.857   6.613
 7140TIP3   OH221364   8.191   1.380   6.657
 7140TIP3    H121365   8.242   1.421   6.586
 7140TIP3    H221366   8.174   1.452   6.718
 7141TIP3   OH221367   5.780   2.474   1.664
 7141TIP3    H121368   5.690   2.503   1.670
 7141TIP3    H221369   5.796   2.427   1.745
 7142TIP3   OH221370   0.619   2.949   4.505
 7142TIP3    H121371   0.655   3.037   4.498
 7142TIP3    H221372   0.596   2.924   4.415
 7143TIP3   OH221373   5.130   1.661   5.468
 7143TIP3    H121374   5.187   1.737   5.456
 7143TIP3    H221375   5.100   1.639   5.380
 7144TIP3   OH221376   5.071   2.784   2.882
 7144TIP3    H121377   5.154   2.826   2.862
 7144TIP3    H221378   5.087   2.737   2.964
 7145TIP3   OH221379   3.938   3.901   0.058
 7145TIP3    H121380   3.881   3.845   0.111
 7145TIP3    H221381   3.997   3.840   0.014
 7146TIP3   OH221382   2.621   2.021   2.961
 7146TIP3    H121383   2.686   2.061   2.904
 7146TIP3    H221384   2.661   1.940   2.991
 7147TIP3   OH221385   3.907   0.757   1.526
 7147TIP3    H121386   3.819   0.794   1.516
 7147TIP3    H221387   3.963   0.834   1.538
 7148TIP3   OH221388   0.405   6.024   4.898
 7148TIP3    H121389   0.411   5.997   4.990
 7148TIP3    H221390   0.341   6.095   4.899
 7149TIP3   OH221391   2.753   7.310   4.485
 7149TIP3    H121392   2.725   7.316   4.576
 7149TIP3    H221393   2.848   7.316   4.488
 7150TIP3   OH221394   2.327   0.682   2.616
 7150TIP3    H121395   2.307   0.730   2.536
 7150TIP3    H221396   2.257   0.618   2.624
 7151TIP3   OH221397   5.660   1.028   0.557
 7151TIP3    H121398   5.605   1.000   0.484
 7151TIP3    H221399   5.654   0.956   0.620
 7152TIP3   OH221400   0.593   4.062   0.898
 7152TIP3    H121401   0.586   4.107   0.813
 7152TIP3    H221402   0.507   4.023   0.912
 7153TIP3   OH221403   7.816   7.171   6.267
 7153TIP3    H121404   7.801   7.224   6.189
 7153TIP3    H221405   7.826   7.235   6.338
 7154TIP3   OH221406   1.804   4.750   2.007
 7154TIP3    H121407   1.839   4.662   2.015
 7154TIP3    H221408   1.712   4.737   1.981
 7155TIP3   OH221409   1.870   7.576   4.862
 7155TIP3    H121410   1.807   7.638   4.824
 7155TIP3    H221411   1.919   7.627   4.925
 7156TIP3   OH221412   1.859   6.454   3.851
 7156TIP3    H121413   1.899   6.533   3.816
 7156TIP3    H221414   1.782   6.486   3.900
 7157TIP3   OH221415   2.065   0.363   5.392
 7157TIP3    H121416   2.113   0.329   5.468
 7157TIP3    H221417   2.091   0.306   5.320
 7158TIP3   OH221418   0.478   7.435   0.089
 7158TIP3    H121419   0.496   7.345   0.114
 7158TIP3    H221420   0.563   7.480   0.096
 7159TIP3   OH221421   3.467   0.411   6.235
 7159TIP3    H121422   3.526   0.445   6.302
 7159TIP3    H221423   3.488   0.463   6.157
 7160TIP3   OH221424   3.623   1.978   6.700
 7160TIP3    H121425   3.543   1.997   6.749
 7160TIP3    H221426   3.603   1.900   6.649
 7161TIP3   OH221427   7.417   2.185   5.742
 7161TIP3    H121428   7.495   2.144   5.705
 7161TIP3    H221429   7.447   2.270   5.774
 7162TIP3   OH221430   7.499   5.914   5.984
 7162TIP3    H121431   7.525   5.862   5.908
 7162TIP3    H221432   7.475   5.999   5.948
 7163TIP3   OH221433   6.304   5.970   6.548
 7163TIP3    H121434   6.276   5.880   6.532
 7163TIP3    H221435   6.377   5.962   6.610
 7164TIP3   OH221436   8.151   4.292   5.230
 7164TIP3    H121437   8.205   4.286   5.152
 7164TIP3    H221438   8.157   4.206   5.270
 7165TIP3   OH221439   2.110   3.967   3.925
 7165TIP3    H121440   2.017   3.945   3.915
 7165TIP3    H221441   2.147   3.894   3.973
 7166TIP3   OH221442   4.615   3.631   1.318
 7166TIP3    H121443   4.672   3.557   1.294
 7166TIP3    H221444   4.527   3.603   1.293
 7167TIP3   OH221445   4.848   1.663   1.179
 7167TIP3    H121446   4.920   1.639   1.121
 7167TIP3    H221447   4.845   1.758   1.176
 7168TIP3   OH221448   6.717   4.177   2.770
 7168TIP3    H121449   6.772   4.255   2.765
 7168TIP3    H221450   6.779   4.104   2.779
 7169TIP3   OH221451   5.174   5.606   3.720
 7169TIP3    H121452   5.181   5.582   3.627
 7169TIP3    H221453   5.098   5.557   3.752
 7170TIP3   OH221454   5.127   5.087   4.365
 7170TIP3    H121455   5.071   5.042   4.302
 7170TIP3    H221456   5.094   5.177   4.366
 7171TIP3   OH221457   1.772   6.299   0.412
 7171TIP3    H121458   1.707   6.310   0.342
 7171TIP3    H221459   1.856   6.293   0.366
 7172TIP3   OH221460   2.726   2.238   3.586
 7172TIP3    H121461   2.821   2.234   3.593
 7172TIP3    H221462   2.710   2.272   3.498
 7173TIP3   OH221463   3.106   3.443   5.534
 7173TIP3    H121464   3.137   3.367   5.583
 7173TIP3    H221465   3.092   3.511   5.601
 7174TIP3   OH221466   4.884   5.186   6.064
 7174TIP3    H121467   4.835   5.104   6.058
 7174TIP3    H221468   4.822   5.253   6.036
 7175TIP3   OH221469   1.573   0.561   0.772
 7175TIP3    H121470   1.665   0.555   0.800
 7175TIP3    H221471   1.569   0.641   0.719
 7176TIP3   OH221472   1.919   6.346   5.464
 7176TIP3    H121473   1.857   6.380   5.399
 7176TIP3    H221474   1.867   6.287   5.518
 7177TIP3   OH221475   1.900   0.331   1.255
 7177TIP3    H121476   1.832   0.264   1.244
 7177TIP3    H221477   1.856   0.403   1.299
 7178TIP3   OH221478   5.228   1.016   5.080
 7178TIP3    H121479   5.186   0.962   5.147
 7178TIP3    H221480   5.212   1.106   5.107
 7179TIP3   OH221481   1.391   5.233   1.832
 7179TIP3    H121482   1.308   5.279   1.823
 7179TIP3    H221483   1.367   5.142   1.846
 7180TIP3   OH221484   0.056   1.051   3.007
 7180TIP3    H121485  -0.022   1.009   3.042
 7180TIP3    H221486   0.023   1.126   2.957
 7181TIP3   OH221487   7.937   0.454   5.883
 7181TIP3    H121488   7.885   0.485   5.957
 7181TIP3    H221489   7.956   0.532   5.832
 7182TIP3   OH221490   6.315   6.517   1.643
 7182TIP3    H121491   6.319   6.600   1.691
 7182TIP3    H221492   6.232   6.478   1.668
 7183TIP3   OH221493   4.430   6.654   3.615
 7183TIP3    H121494   4.390   6.668   3.701
 7183TIP3    H221495   4.361   6.679   3.553
 7184TIP3   OH221496   1.289   3.038   1.813
 7184TIP3    H121497   1.271   3.116   1.760
 7184TIP3    H221498   1.384   3.038   1.825
 7185TIP3   OH221499   4.974   0.446   2.282
 7185TIP3    H121500   5.045   0.382   2.271
 7185TIP3    H221501   5.014   0.530   2.258
 7186TIP3   OH221502   3.988   0.651   4.402
 7186TIP3    H121503   3.906   0.632   4.356
 7186TIP3    H221504   3.972   0.733   4.448
 7187TIP3   OH221505   7.087   2.061   1.058
 7187TIP3    H121506   7.149   2.127   1.028
 7187TIP3    H221507   7.046   2.101   1.135
 7188TIP3   OH221508   2.093   5.623   5.172
 7188TIP3    H121509   2.175   5.631   5.220
 7188TIP3    H221510   2.029   5.671   5.224
 7189TIP3   OH221511   7.722   5.489   1.020
 7189TIP3    H121512   7.701   5.566   1.072
 7189TIP3    H221513   7.651   5.484   0.956
 7190TIP3   OH221514   3.146   3.584   2.654
 7190TIP3    H121515   3.238   3.596   2.631
 7190TIP3    H221516   3.149   3.541   2.740
 7191TIP3   OH221517   3.060   2.978   1.137
 7191TIP3    H121518   3.028   2.990   1.227
 7191TIP3    H221519   3.148   3.014   1.137
 7192TIP3   OH221520   6.218   7.277   5.330
 7192TIP3    H121521   6.208   7.333   5.252
 7192TIP3    H221522   6.270   7.203   5.300
 7193TIP3   OH221523   4.515   6.529   5.889
 7193TIP3    H121524   4.598   6.571   5.867
 7193TIP3    H221525   4.453   6.601   5.897
 7194TIP3   OH221526   2.126   6.292   2.430
 7194TIP3    H121527   2.090   6.221   2.376
 7194TIP3    H221528   2.189   6.336   2.372
 7195TIP3   OH221529   2.548   2.247   2.335
 7195TIP3    H121530   2.608   2.319   2.312
 7195TIP3    H221531   2.573   2.175   2.279
 7196TIP3   OH221532   1.954   6.230   1.967
 7196TIP3    H121533   1.940   6.291   1.895
 7196TIP3    H221534   1.919   6.147   1.936
 7197TIP3   OH221535   5.760   7.695   6.447
 7197TIP3    H121536   5.757   7.636   6.523
 7197TIP3    H221537   5.702   7.654   6.383
 7198TIP3   OH221538   2.536   1.615   6.539
 7198TIP3    H121539   2.499   1.623   6.451
 7198TIP3    H221540   2.616   1.666   6.536
 7199TIP3   OH221541   0.498   5.328   3.851
 7199TIP3    H121542   0.429   5.268   3.880
 7199TIP3    H221543   0.480   5.409   3.899
 7200TIP3   OH221544   4.487   2.144   1.033
 7200TIP3    H121545   4.563   2.177   0.984
 7200TIP3    H221546   4.516   2.060   1.069
 7201TIP3   OH221547   8.137   6.967   1.307
 7201TIP3    H121548   8.054   7.001   1.341
 7201TIP3    H221549   8.185   7.044   1.278
 7202TIP3   OH221550   0.413   2.151   2.363
 7202TIP3    H121551   0.415   2.177   2.455
 7202TIP3    H221552   0.505   2.152   2.336
 7203TIP3   OH221553   3.742   7.708   2.302
 7203TIP3    H121554   3.730   7.615   2.286
 7203TIP3    H221555   3.809   7.736   2.240
 7204TIP3   OH221556   4.136   0.876   1.333
 7204TIP3    H121557   4.074   0.815   1.373
 7204TIP3    H221558   4.080   0.941   1.290
 7205TIP3   OH221559   4.211   0.490  -0.047
 7205TIP3    H121560   4.243   0.400  -0.033
 7205TIP3    H221561   4.246   0.539   0.027
 7206TIP3   OH221562   3.078   3.684   4.959
 7206TIP3    H121563   3.090   3.652   5.049
 7206TIP3    H221564   2.991   3.653   4.935
 7207TIP3   OH221565   6.951   4.370   4.624
 7207TIP3    H121566   6.880   4.309   4.643
 7207TIP3    H221567   7.015   4.318   4.575
 7208TIP3   OH221568   5.481   6.132   2.155
 7208TIP3    H121569   5.392   6.153   2.183
 7208TIP3    H221570   5.503   6.199   2.091
 7209TIP3   OH221571   4.191   3.210   3.179
 7209TIP3    H121572   4.162   3.121   3.197
 7209TIP3    H221573   4.195   3.252   3.265
 7210TIP3   OH221574   5.492   3.095   2.581
 7210TIP3    H121575   5.485   3.187   2.555
 7210TIP3    H221576   5.576   3.066   2.544
 7211TIP3   OH221577   7.814   2.032   3.949
 7211TIP3    H121578   7.757   2.007   3.877
 7211TIP3    H221579   7.903   2.022   3.915
 7212TIP3   OH221580   4.498   7.689   6.311
 7212TIP3    H121581   4.426   7.745   6.340
 7212TIP3    H221582   4.575   7.746   6.318
 7213TIP3   OH221583   8.171   2.286   4.931
 7213TIP3    H121584   8.121   2.244   4.861
 7213TIP3    H221585   8.118   2.272   5.009
 7214TIP3   OH221586   2.437   5.302   2.043
 7214TIP3    H121587   2.359   5.249   2.059
 7214TIP3    H221588   2.403   5.385   2.010
 7215TIP3   OH221589   7.143   6.928   1.192
 7215TIP3    H121590   7.234   6.948   1.172
 7215TIP3    H221591   7.097   6.936   1.108
 7216TIP3   OH221592   0.047   2.883   4.607
 7216TIP3    H121593   0.097   2.964   4.613
 7216TIP3    H221594  -0.032   2.906   4.559
 7217TIP3   OH221595   7.962   1.308   4.890
 7217TIP3    H121596   7.966   1.385   4.832
 7217TIP3    H221597   8.002   1.337   4.971
 7218TIP3   OH221598   2.303   1.766   4.275
 7218TIP3    H121599   2.213   1.786   4.299
 7218TIP3    H221600   2.313   1.804   4.188
 7219TIP3   OH221601   7.591   0.990   6.095
 7219TIP3    H121602   7.500   1.019   6.082
 7219TIP3    H221603   7.642   1.071   6.095
 7220TIP3   OH221604   8.215   2.481   5.556
 7220TIP3    H121605   8.210   2.436   5.472
 7220TIP3    H221606   8.162   2.427   5.615
 7221TIP3   OH221607   0.392   6.174   3.115
 7221TIP3    H121608   0.480   6.200   3.141
 7221TIP3    H221609   0.370   6.232   3.042
 7222TIP3   OH221610   6.224   4.268   0.712
 7222TIP3    H121611   6.186   4.253   0.798
 7222TIP3    H221612   6.151   4.256   0.651
 7223TIP3   OH221613   5.563   1.770   4.013
 7223TIP3    H121614   5.523   1.704   3.955
 7223TIP3    H221615   5.523   1.754   4.099
 7224TIP3   OH221616   0.154   2.222   4.815
 7224TIP3    H121617   0.228   2.238   4.875
 7224TIP3    H221618   0.077   2.231   4.870
 7225TIP3   OH221619   5.756   1.641   6.694
 7225TIP3    H121620   5.778   1.549   6.707
 7225TIP3    H221621   5.662   1.646   6.706
 7226TIP3   OH221622   2.544   7.062   5.253
 7226TIP3    H121623   2.526   7.131   5.317
 7226TIP3    H221624   2.510   6.982   5.292
 7227TIP3   OH221625   8.084   0.722   4.076
 7227TIP3    H121626   8.070   0.747   4.168
 7227TIP3    H221627   8.174   0.750   4.057
 7228TIP3   OH221628   3.825   1.491   5.824
 7228TIP3    H121629   3.830   1.488   5.728
 7228TIP3    H221630   3.749   1.546   5.842
 7229TIP3   OH221631   2.478   0.150   0.017
 7229TIP3    H121632   2.406   0.202  -0.019
 7229TIP3    H221633   2.467   0.157   0.112
 7230TIP3   OH221634   4.273   3.296   2.602
 7230TIP3    H121635   4.365   3.307   2.625
 7230TIP3    H221636   4.242   3.226   2.660
 7231TIP3   OH221637   3.324   6.093   6.680
 7231TIP3    H121638   3.345   6.184   6.659
 7231TIP3    H221639   3.300   6.095   6.773
 7232TIP3   OH221640   5.338   7.657   5.749
 7232TIP3    H121641   5.288   7.586   5.791
 7232TIP3    H221642   5.428   7.625   5.747
 7233TIP3   OH221643   4.244   7.268   2.718
 7233TIP3    H121644   4.296   7.233   2.791
 7233TIP3    H221645   4.159   7.288   2.757
 7234TIP3   OH221646   7.443   5.624   5.472
 7234TIP3    H121647   7.464   5.684   5.543
 7234TIP3    H221648   7.347   5.625   5.467
 7235TIP3   OH221649   0.432   5.861   3.261
 7235TIP3    H121650   0.351   5.851   3.212
 7235TIP3    H221651   0.494   5.897   3.198
 7236TIP3   OH221652   7.601   3.701   3.201
 7236TIP3    H121653   7.540   3.627   3.206
 7236TIP3    H221654   7.634   3.711   3.290
 7237TIP3   OH221655   1.762   4.624   1.615
 7237TIP3    H121656   1.719   4.546   1.650
 7237TIP3    H221657   1.838   4.637   1.670
 7238TIP3   OH221658   4.226   0.659   4.952
 7238TIP3    H121659   4.281   0.735   4.970
 7238TIP3    H221660   4.141   0.696   4.926
 7239TIP3   OH221661   3.340   3.307   4.379
 7239TIP3    H121662   3.423   3.350   4.358
 7239TIP3    H221663   3.305   3.356   4.453
 7240TIP3   OH221664   1.164   3.123   4.312
 7240TIP3    H121665   1.235   3.098   4.253
 7240TIP3    H221666   1.188   3.210   4.342
 7241TIP3   OH221667   1.638   1.166   0.889
 7241TIP3    H121668   1.709   1.200   0.944
 7241TIP3    H221669   1.678   1.154   0.803
 7242TIP3   OH221670   5.163   4.165   2.942
 7242TIP3    H121671   5.237   4.207   2.898
 7242TIP3    H221672   5.123   4.110   2.874
 7243TIP3   OH221673   4.475   0.533   6.253
 7243TIP3    H121674   4.413   0.553   6.323
 7243TIP3    H221675   4.423   0.537   6.173
 7244TIP3   OH221676   4.657   0.889   4.244
 7244TIP3    H121677   4.707   0.965   4.272
 7244TIP3    H221678   4.719   0.835   4.195
 7245TIP3   OH221679   7.478   7.723   6.517
 7245TIP3    H121680   7.395   7.716   6.468
 7245TIP3    H221681   7.534   7.655   6.480
 7246TIP3   OH221682   0.533   0.247   4.720
 7246TIP3    H121683   0.450   0.296   4.721
 7246TIP3    H221684   0.532   0.201   4.636
 7247TIP3   OH221685   6.747   7.632   5.236
 7247TIP3    H121686   6.776   7.722   5.224
 7247TIP3    H221687   6.657   7.639   5.268
 7248TIP3   OH221688   0.497   5.344   3.241
 7248TIP3    H121689   0.589   5.354   3.262
 7248TIP3    H221690   0.458   5.306   3.321
 7249TIP3   OH221691   3.037   4.039   0.150
 7249TIP3    H121692   3.099   4.005   0.215
 7249TIP3    H221693   3.008   4.123   0.186
 7250TIP3   OH221694   7.629   3.639   4.467
 7250TIP3    H121695   7.667   3.579   4.403
 7250TIP3    H221696   7.700   3.656   4.529
 7251TIP3   OH221697   3.634   2.831   6.090
 7251TIP3    H121698   3.540   2.834   6.108
 7251TIP3    H221699   3.640   2.835   5.995
 7252TIP3   OH221700   1.764   0.370   3.756
 7252TIP3    H121701   1.732   0.443   3.704
 7252TIP3    H221702   1.821   0.410   3.822
 7253TIP3   OH221703   1.176   0.392   2.445
 7253TIP3    H121704   1.171   0.445   2.366
 7253TIP3    H221705   1.206   0.454   2.513
 7254TIP3   OH221706   6.653   7.580   1.915
 7254TIP3    H121707   6.734   7.547   1.952
 7254TIP3    H221708   6.594   7.590   1.990
 7255TIP3   OH221709   6.887   2.663   0.689
 7255TIP3    H121710   6.825   2.629   0.753
 7255TIP3    H221711   6.885   2.758   0.702
 7256TIP3   OH221712   3.403   1.125   3.947
 7256TIP3    H121713   3.391   1.211   3.988
 7256TIP3    H221714   3.437   1.144   3.860
 7257TIP3   OH221715   6.087   3.821   0.706
 7257TIP3    H121716   6.135   3.895   0.743
 7257TIP3    H221717   6.153   3.753   0.695
 7258TIP3   OH221718   6.009   7.188   2.772
 7258TIP3    H121719   5.984   7.191   2.680
 7258TIP3    H221720   6.062   7.109   2.781
 7259TIP3   OH221721   3.424   3.668   2.849
 7259TIP3    H121722   3.476   3.643   2.773
 7259TIP3    H221723   3.489   3.676   2.920
 7260TIP3   OH221724   6.675   4.622   3.721
 7260TIP3    H121725   6.689   4.717   3.717
 7260TIP3    H221726   6.705   4.597   3.808
 7261TIP3   OH221727   6.500   5.621   4.182
 7261TIP3    H121728   6.483   5.572   4.101
 7261TIP3    H221729   6.413   5.650   4.211
 7262TIP3   OH221730   3.958   7.599   6.060
 7262TIP3    H121731   3.975   7.627   5.970
 7262TIP3    H221732   3.917   7.675   6.102
 7263TIP3   OH221733   3.115   6.672   0.868
 7263TIP3    H121734   3.106   6.631   0.782
 7263TIP3    H221735   3.158   6.756   0.851
 7264TIP3   OH221736   0.295   7.505   2.217
 7264TIP3    H121737   0.364   7.455   2.174
 7264TIP3    H221738   0.302   7.480   2.309
 7265TIP3   OH221739   1.154   1.765   5.740
 7265TIP3    H121740   1.186   1.776   5.650
 7265TIP3    H221741   1.157   1.671   5.755
 7266TIP3   OH221742   7.521   4.040   2.681
 7266TIP3    H121743   7.615   4.040   2.663
 7266TIP3    H221744   7.480   4.061   2.597
 7267TIP3   OH221745   4.361   4.464   1.815
 7267TIP3    H121746   4.336   4.374   1.793
 7267TIP3    H221747   4.447   4.476   1.774
 7268TIP3   OH221748   1.732   6.096   1.798
 7268TIP3    H121749   1.721   6.001   1.806
 7268TIP3    H221750   1.662   6.133   1.852
 7269TIP3   OH221751   4.594   4.184   3.824
 7269TIP3    H121752   4.614   4.246   3.893
 7269TIP3    H221753   4.678   4.164   3.784
 7270TIP3   OH221754   6.145   6.777   0.269
 7270TIP3    H121755   6.104   6.765   0.355
 7270TIP3    H221756   6.204   6.702   0.261
 7271TIP3   OH221757   8.235   5.945   2.057
 7271TIP3    H121758   8.299   5.932   1.987
 7271TIP3    H221759   8.258   6.030   2.094
 7272TIP3   OH221760   6.833   7.391   6.229
 7272TIP3    H121761   6.784   7.452   6.285
 7272TIP3    H221762   6.873   7.447   6.162
 7273TIP3   OH221763   1.758   5.917   4.917
 7273TIP3    H121764   1.754   5.886   4.826
 7273TIP3    H221765   1.717   6.004   4.914
 7274TIP3   OH221766   6.346   5.082   1.613
 7274TIP3    H121767   6.441   5.073   1.610
 7274TIP3    H221768   6.316   5.001   1.655
 7275TIP3   OH221769   7.885   3.373   0.198
 7275TIP3    H121770   7.790   3.383   0.195
 7275TIP3    H221771   7.906   3.369   0.291
 7276TIP3   OH221772   1.858   7.392   3.015
 7276TIP3    H121773   1.837   7.298   3.020
 7276TIP3    H221774   1.852   7.412   2.921
 7277TIP3   OH221775   7.983   3.777   1.892
 7277TIP3    H121776   8.028   3.851   1.851
 7277TIP3    H221777   8.054   3.720   1.921
 7278TIP3   OH221778   6.894   0.221   2.936
 7278TIP3    H121779   6.943   0.152   2.981
 7278TIP3    H221780   6.926   0.302   2.976
 7279TIP3   OH221781   1.521   6.549   1.193
 7279TIP3    H121782   1.494   6.537   1.284
 7279TIP3    H221783   1.567   6.469   1.170
 7280TIP3   OH221784   7.716   5.903   3.320
 7280TIP3    H121785   7.795   5.924   3.270
 7280TIP3    H221786   7.720   5.808   3.332
 7281TIP3   OH221787   5.265   2.866   3.647
 7281TIP3    H121788   5.331   2.797   3.638
 7281TIP3    H221789   5.306   2.944   3.610
 7282TIP3   OH221790   3.433   2.750   3.104
 7282TIP3    H121791   3.382   2.716   3.178
 7282TIP3    H221792   3.494   2.680   3.083
 7283TIP3   OH221793   6.878   0.433   4.004
 7283TIP3    H121794   6.900   0.458   3.914
 7283TIP3    H221795   6.820   0.503   4.034
 7284TIP3   OH221796   0.958   1.611   2.371
 7284TIP3    H121797   0.887   1.633   2.430
 7284TIP3    H221798   0.915   1.584   2.290
 7285TIP3   OH221799   6.986   7.293   0.890
 7285TIP3    H121800   6.966   7.357   0.822
 7285TIP3    H221801   6.951   7.210   0.857
 7286TIP3   OH221802   1.798   4.739   3.457
 7286TIP3    H121803   1.853   4.661   3.454
 7286TIP3    H221804   1.802   4.769   3.548
 7287TIP3   OH221805   6.562   6.509   6.455
 7287TIP3    H121806   6.525   6.438   6.403
 7287TIP3    H221807   6.496   6.579   6.452
 7288TIP3   OH221808   5.285   6.421   4.507
 7288TIP3    H121809   5.343   6.370   4.563
 7288TIP3    H221810   5.217   6.453   4.566
 7289TIP3   OH221811   0.143   1.860   0.391
 7289TIP3    H121812   0.215   1.898   0.442
 7289TIP3    H221813   0.068   1.917   0.410
 7290TIP3   OH221814   2.551   4.408   4.917
 7290TIP3    H121815   2.618   4.463   4.876
 7290TIP3    H221816   2.576   4.403   5.009
 7291TIP3   OH221817   1.211   4.406   4.205
 7291TIP3    H121818   1.137   4.458   4.175
 7291TIP3    H221819   1.259   4.464   4.264
 7292TIP3   OH221820   6.680   6.090   3.771
 7292TIP3    H121821   6.611   6.068   3.709
 7292TIP3    H221822   6.757   6.105   3.716
 7293TIP3   OH221823   3.107   1.321   0.395
 7293TIP3    H121824   3.152   1.311   0.311
 7293TIP3    H221825   3.085   1.231   0.421
 7294TIP3   OH221826   2.638   5.140   2.969
 7294TIP3    H121827   2.642   5.162   2.876
 7294TIP3    H221828   2.710   5.189   3.008
 7295TIP3   OH221829   7.103   1.159   6.095
 7295TIP3    H121830   7.166   1.197   6.155
 7295TIP3    H221831   7.033   1.223   6.089
 7296TIP3   OH221832   6.807   5.354   0.532
 7296TIP3    H121833   6.881   5.294   0.522
 7296TIP3    H221834   6.821   5.422   0.467
 7297TIP3   OH221835   8.248   2.078   6.000
 7297TIP3    H121836   8.278   2.165   6.024
 7297TIP3    H221837   8.292   2.060   5.917
 7298TIP3   OH221838   6.895   7.674   6.661
 7298TIP3    H121839   6.982   7.706   6.635
 7298TIP3    H221840   6.914   7.601   6.720
 7299TIP3   OH221841   8.281   6.482   5.386
 7299TIP3    H121842   8.205   6.501   5.441
 7299TIP3    H221843   8.341   6.434   5.444
 7300TIP3   OH221844   6.517   6.445   0.782
 7300TIP3    H121845   6.434   6.401   0.802
 7300TIP3    H221846   6.515   6.524   0.836
 7301TIP3   OH221847   2.909   0.745   3.219
 7301TIP3    H121848   2.923   0.832   3.258
 7301TIP3    H221849   2.818   0.725   3.237
 7302TIP3   OH221850   6.400   0.094   2.589
 7302TIP3    H121851   6.321   0.127   2.547
 7302TIP3    H221852   6.417   0.155   2.660
 7303TIP3   OH221853   1.121   7.056   4.668
 7303TIP3    H121854   1.031   7.045   4.698
 7303TIP3    H221855   1.162   6.971   4.684
 7304TIP3   OH221856   6.269   1.547   5.651
 7304TIP3    H121857   6.255   1.533   5.745
 7304TIP3    H221858   6.204   1.614   5.627
 7305TIP3   OH221859   0.034   5.378   1.063
 7305TIP3    H121860  -0.051   5.392   1.104
 7305TIP3    H221861   0.014   5.333   0.981
 7306TIP3   OH221862   2.544   2.146   0.236
 7306TIP3    H121863   2.619   2.088   0.253
 7306TIP3    H221864   2.519   2.127   0.145
 7307TIP3   OH221865   5.317   4.374   2.794
 7307TIP3    H121866   5.325   4.349   2.702
 7307TIP3    H221867   5.269   4.457   2.792
 7308TIP3   OH221868   7.390   3.189   1.313
 7308TIP3    H121869   7.366   3.190   1.405
 7308TIP3    H221870   7.330   3.252   1.272
 7309TIP3   OH221871   7.627   0.894   0.757
 7309TIP3    H121872   7.666   0.809   0.778
 7309TIP3    H221873   7.559   0.907   0.824
 7310TIP3   OH221874   4.884   6.781   5.086
 7310TIP3    H121875   4.851   6.711   5.030
 7310TIP3    H221876   4.875   6.860   5.034
 7311TIP3   OH221877   7.117   3.718   3.725
 7311TIP3    H121878   7.030   3.726   3.764
 7311TIP3    H221879   7.172   3.685   3.797
 7312TIP3   OH221880   6.734   6.626   1.623
 7312TIP3    H121881   6.674   6.699   1.609
 7312TIP3    H221882   6.693   6.575   1.694
 7313TIP3   OH221883   0.449   5.262   5.377
 7313TIP3    H121884   0.368   5.236   5.333
 7313TIP3    H221885   0.437   5.355   5.397
 7314TIP3   OH221886   7.293  -0.009   3.959
 7314TIP3    H121887   7.367   0.049   3.937
 7314TIP3    H221888   7.224   0.050   3.987
 7315TIP3   OH221889   0.061   3.880   4.670
 7315TIP3    H121890   0.015   3.833   4.602
 7315TIP3    H221891   0.124   3.935   4.624
 7316TIP3   OH221892   0.297   2.307   6.385
 7316TIP3    H121893   0.236   2.234   6.378
 7316TIP3    H221894   0.291   2.351   6.300
 7317TIP3   OH221895   3.834   6.651   5.781
 7317TIP3    H121896   3.744   6.655   5.748
 7317TIP3    H221897   3.836   6.714   5.853
 7318TIP3   OH221898   5.891   6.629   5.743
 7318TIP3    H121899   5.873   6.710   5.695
 7318TIP3    H221900   5.939   6.574   5.681
 7319TIP3   OH221901   7.323   5.246   5.477
 7319TIP3    H121902   7.299   5.304   5.405
 7319TIP3    H221903   7.417   5.260   5.488
 7320TIP3   OH221904   1.845   5.184   6.379
 7320TIP3    H121905   1.793   5.164   6.457
 7320TIP3    H221906   1.814   5.270   6.351
 7321TIP3   OH221907   2.842   7.379   2.602
 7321TIP3    H121908   2.773   7.444   2.611
 7321TIP3    H221909   2.922   7.431   2.591
 7322TIP3   OH221910   0.459   6.378   6.331
 7322TIP3    H121911   0.465   6.461   6.379
 7322TIP3    H221912   0.379   6.386   6.278
 7323TIP3   OH221913   1.998   6.212   5.087
 7323TIP3    H121914   2.044   6.236   5.006
 7323TIP3    H221915   1.914   6.257   5.081
 7324TIP3   OH221916   5.411   4.582   6.344
 7324TIP3    H121917   5.420   4.486   6.340
 7324TIP3    H221918   5.479   4.610   6.405
 7325TIP3   OH221919   0.524   3.552   4.949
 7325TIP3    H121920   0.577   3.521   5.022
 7325TIP3    H221921   0.458   3.609   4.989
 7326TIP3   OH221922   6.634   2.695   4.637
 7326TIP3    H121923   6.644   2.686   4.542
 7326TIP3    H221924   6.718   2.730   4.667
 7327TIP3   OH221925   4.811   4.257   6.127
 7327TIP3    H121926   4.862   4.338   6.120
 7327TIP3    H221927   4.790   4.249   6.220
 7328TIP3   OH221928   4.324   1.718   4.425
 7328TIP3    H121929   4.387   1.740   4.494
 7328TIP3    H221930   4.298   1.628   4.444
 7329TIP3   OH221931   1.089   5.322   0.360
 7329TIP3    H121932   1.021   5.293   0.422
 7329TIP3    H221933   1.117   5.241   0.316
 7330TIP3   OH221934   5.618   2.668   4.934
 7330TIP3    H121935   5.613   2.763   4.943
 7330TIP3    H221936   5.611   2.653   4.839
 7331TIP3   OH221937   4.659   7.815   2.903
 7331TIP3    H121938   4.713   7.831   2.825
 7331TIP3    H221939   4.583   7.873   2.892
 7332TIP3   OH221940   6.585   2.001   5.038
 7332TIP3    H121941   6.576   2.063   5.111
 7332TIP3    H221942   6.574   1.915   5.079
 7333TIP3   OH221943   6.516   5.171   6.093
 7333TIP3    H121944   6.568   5.224   6.153
 7333TIP3    H221945   6.448   5.132   6.148
 7334TIP3   OH221946   3.437   0.748   6.135
 7334TIP3    H121947   3.481   0.674   6.092
 7334TIP3    H221948   3.372   0.777   6.071
 7335TIP3   OH221949   3.639   5.681   5.005
 7335TIP3    H121950   3.695   5.734   4.948
 7335TIP3    H221951   3.593   5.745   5.059
 7336TIP3   OH221952   7.382   2.668   3.841
 7336TIP3    H121953   7.468   2.627   3.853
 7336TIP3    H221954   7.325   2.597   3.812
 7337TIP3   OH221955   7.182   0.787   5.989
 7337TIP3    H121956   7.235   0.771   6.067
 7337TIP3    H221957   7.215   0.871   5.955
 7338TIP3   OH221958   4.713   2.508   0.389
 7338TIP3    H121959   4.676   2.446   0.452
 7338TIP3    H221960   4.657   2.501   0.312
 7339TIP3   OH221961   4.489   3.281   2.207
 7339TIP3    H121962   4.413   3.265   2.263
 7339TIP3    H221963   4.511   3.373   2.223
 7340TIP3   OH221964   6.293   2.649   5.915
 7340TIP3    H121965   6.290   2.557   5.889
 7340TIP3    H221966   6.205   2.682   5.899
 7341TIP3   OH221967   0.288   0.897   5.263
 7341TIP3    H121968   0.273   0.840   5.187
 7341TIP3    H221969   0.363   0.858   5.308
 7342TIP3   OH221970   7.117   7.137   4.412
 7342TIP3    H121971   7.045   7.088   4.372
 7342TIP3    H221972   7.110   7.119   4.505
 7343TIP3   OH221973   4.822   5.295   1.292
 7343TIP3    H121974   4.893   5.305   1.228
 7343TIP3    H221975   4.792   5.384   1.309
 7344TIP3   OH221976   2.461   1.840   0.442
 7344TIP3    H121977   2.399   1.767   0.436
 7344TIP3    H221978   2.414   1.914   0.403
 7345TIP3   OH221979   6.796   2.764   1.498
 7345TIP3    H121980   6.868   2.729   1.551
 7345TIP3    H221981   6.836   2.838   1.451
 7346TIP3   OH221982   3.729   6.180   3.050
 7346TIP3    H121983   3.738   6.152   2.959
 7346TIP3    H221984   3.737   6.099   3.100
 7347TIP3   OH221985   8.200   2.663   5.176
 7347TIP3    H121986   8.248   2.612   5.110
 7347TIP3    H221987   8.145   2.598   5.220
 7348TIP3   OH221988   1.878   5.679   3.105
 7348TIP3    H121989   1.847   5.591   3.085
 7348TIP3    H221990   1.894   5.719   3.019
 7349TIP3   OH221991   7.850   3.982   2.272
 7349TIP3    H121992   7.835   4.033   2.192
 7349TIP3    H221993   7.913   4.033   2.321
 7350TIP3   OH221994   5.161   4.234  -0.015
 7350TIP3    H121995   5.187   4.320  -0.047
 7350TIP3    H221996   5.140   4.247   0.078
 7351TIP3   OH221997   4.201   0.224   4.568
 7351TIP3    H121998   4.163   0.286   4.505
 7351TIP3    H221999   4.135   0.155   4.575
 7352TIP3   OH222000   7.874   0.835   2.333
 7352TIP3    H122001   7.884   0.923   2.370
 7352TIP3    H222002   7.899   0.777   2.404
 7353TIP3   OH222003   5.940   0.359   1.350
 7353TIP3    H122004   5.845   0.372   1.357
 7353TIP3    H222005   5.965   0.407   1.272
 7354TIP3   OH222006   7.407   6.450   0.592
 7354TIP3    H122007   7.423   6.387   0.522
 7354TIP3    H222008   7.324   6.421   0.632
 7355TIP3   OH222009   7.311   6.941   2.820
 7355TIP3    H122010   7.390   6.885   2.816
 7355TIP3    H222011   7.254   6.906   2.751
 7356TIP3   OH222012   1.818   2.786   2.281
 7356TIP3    H122013   1.859   2.872   2.291
 7356TIP3    H222014   1.758   2.780   2.356
 7357TIP3   OH222015   4.669   5.739   2.881
 7357TIP3    H122016   4.754   5.781   2.870
 7357TIP3    H222017   4.654   5.739   2.976
 7358TIP3   OH222018   7.737   1.053   2.201
 7358TIP3    H122019   7.789   0.972   2.199
 7358TIP3    H222020   7.800   1.122   2.178
 7359TIP3   OH222021   3.818   4.763   2.034
 7359TIP3    H122022   3.867   4.842   2.055
 7359TIP3    H222023   3.880   4.707   1.987
 7360TIP3   OH222024   4.152   4.760   4.792
 7360TIP3    H122025   4.216   4.767   4.863
 7360TIP3    H222026   4.203   4.771   4.712
 7361TIP3   OH222027   7.399   2.400   2.958
 7361TIP3    H122028   7.439   2.380   3.043
 7361TIP3    H222029   7.472   2.394   2.896
 7362TIP3   OH222030   5.439   6.115   0.866
 7362TIP3    H122031   5.382   6.126   0.942
 7362TIP3    H222032   5.516   6.069   0.900
 7363TIP3   OH222033   3.801   6.774   4.951
 7363TIP3    H122034   3.835   6.705   4.893
 7363TIP3    H222035   3.872   6.837   4.957
 7364TIP3   OH222036   4.837   3.152   2.755
 7364TIP3    H122037   4.799   3.238   2.773
 7364TIP3    H222038   4.837   3.108   2.840
 7365TIP3   OH222039   0.967   3.253   3.923
 7365TIP3    H122040   0.911   3.324   3.954
 7365TIP3    H222041   0.991   3.280   3.834
 7366TIP3   OH222042   6.735   0.032   1.222
 7366TIP3    H122043   6.830   0.043   1.222
 7366TIP3    H222044   6.717  -0.025   1.147
 7367TIP3   OH222045   4.760   3.962   5.428
 7367TIP3    H122046   4.753   3.899   5.500
 7367TIP3    H222047   4.692   4.026   5.446
 7368TIP3   OH222048   0.353   0.790   5.694
 7368TIP3    H122049   0.398   0.776   5.777
 7368TIP3    H222050   0.326   0.702   5.667
 7369TIP3   OH222051   7.982   2.342   1.301
 7369TIP3    H122052   8.025   2.257   1.305
 7369TIP3    H222053   7.929   2.346   1.381
 7370TIP3   OH222054   7.751   1.702   0.698
 7370TIP3    H122055   7.814   1.687   0.627
 7370TIP3    H222056   7.761   1.795   0.720
 7371TIP3   OH222057   6.265   3.053   6.502
 7371TIP3    H122058   6.220   2.975   6.471
 7371TIP3    H222059   6.200   3.097   6.558
 7372TIP3   OH222060   1.598   3.177   0.991
 7372TIP3    H122061   1.635   3.147   0.908
 7372TIP3    H222062   1.517   3.127   1.001
 7373TIP3   OH222063   1.269   6.437   0.792
 7373TIP3    H122064   1.257   6.522   0.834
 7373TIP3    H222065   1.292   6.458   0.702
 7374TIP3   OH222066   7.930   2.376   6.492
 7374TIP3    H122067   7.865   2.309   6.471
 7374TIP3    H222068   7.923   2.440   6.421
 7375TIP3   OH222069   2.860   7.598   5.437
 7375TIP3    H122070   2.868   7.563   5.526
 7375TIP3    H222071   2.882   7.524   5.380
 7376TIP3   OH222072   2.447   6.363   4.585
 7376TIP3    H122073   2.451   6.458   4.573
 7376TIP3    H222074   2.364   6.337   4.545
 7377TIP3   OH222075   2.021   3.648   1.246
 7377TIP3    H122076   2.054   3.563   1.219
 7377TIP3    H222077   1.926   3.636   1.253
 7378TIP3   OH222078   2.736   6.696   1.102
 7378TIP3    H122079   2.814   6.644   1.123
 7378TIP3    H222080   2.768   6.765   1.045
 7379TIP3   OH222081   2.343   3.760   4.503
 7379TIP3    H122082   2.378   3.671   4.512
 7379TIP3    H222083   2.373   3.805   4.582
 7380TIP3   OH222084   5.999   5.167   3.772
 7380TIP3    H122085   5.983   5.191   3.863
 7380TIP3    H222086   5.935   5.098   3.754
 7381TIP3   OH222087   5.122   7.241   2.548
 7381TIP3    H122088   5.031   7.256   2.520
 7381TIP3    H222089   5.115   7.221   2.641
 7382TIP3   OH222090   1.467   6.065   5.480
 7382TIP3    H122091   1.461   6.065   5.385
 7382TIP3    H222092   1.451   5.974   5.505
 7383TIP3   OH222093   7.689   1.974   2.031
 7383TIP3    H122094   7.732   2.048   1.988
 7383TIP3    H222095   7.614   1.955   1.975
 7384TIP3   OH222096   1.055   1.487   0.880
 7384TIP3    H122097   1.122   1.555   0.884
 7384TIP3    H222098   1.033   1.470   0.972
 7385TIP3   OH222099   1.044   4.731   1.714
 7385TIP3    H122100   0.979   4.797   1.689
 7385TIP3    H222101   1.099   4.774   1.779
 7386TIP3   OH222102   7.323   1.511   5.108
 7386TIP3    H122103   7.359   1.433   5.149
 7386TIP3    H222104   7.373   1.522   5.028
 7387TIP3   OH222105   7.895   5.889   2.133
 7387TIP3    H122106   7.925   5.965   2.083
 7387TIP3    H222107   7.862   5.925   2.215
 7388TIP3   OH222108   2.273   7.507   6.689
 7388TIP3    H122109   2.296   7.525   6.597
 7388TIP3    H222110   2.203   7.442   6.683
 7389TIP3   OH222111   6.679   6.227   5.756
 7389TIP3    H122112   6.677   6.284   5.833
 7389TIP3    H222113   6.605   6.167   5.770
 7390TIP3   OH222114   3.206   1.795   6.409
 7390TIP3    H122115   3.264   1.739   6.357
 7390TIP3    H222116   3.263   1.829   6.479
 7391TIP3   OH222117   8.156   4.415   2.299
 7391TIP3    H122118   8.104   4.413   2.219
 7391TIP3    H222119   8.114   4.482   2.353
 7392TIP3   OH222120   7.817   0.264   2.441
 7392TIP3    H122121   7.762   0.239   2.367
 7392TIP3    H222122   7.900   0.219   2.425
 7393TIP3   OH222123   1.711   4.190   4.718
 7393TIP3    H122124   1.756   4.272   4.697
 7393TIP3    H222125   1.733   4.131   4.645
 7394TIP3   OH222126   7.460   4.010   5.204
 7394TIP3    H122127   7.496   4.035   5.289
 7394TIP3    H222128   7.520   3.943   5.171
 7395TIP3   OH222129   7.128   2.430   1.931
 7395TIP3    H122130   7.073   2.505   1.956
 7395TIP3    H222131   7.074   2.354   1.952
 7396TIP3   OH222132   0.689   4.207   3.284
 7396TIP3    H122133   0.778   4.229   3.258
 7396TIP3    H222134   0.649   4.291   3.307
 7397TIP3   OH222135   2.092   3.642   4.450
 7397TIP3    H122136   2.135   3.558   4.465
 7397TIP3    H222137   2.161   3.707   4.456
 7398TIP3   OH222138   7.361   1.753   2.588
 7398TIP3    H122139   7.367   1.791   2.676
 7398TIP3    H222140   7.314   1.671   2.601
 7399TIP3   OH222141   3.300   7.549   1.178
 7399TIP3    H122142   3.382   7.595   1.195
 7399TIP3    H222143   3.241   7.580   1.246
 7400TIP3   OH222144   7.202   2.626   1.066
 7400TIP3    H122145   7.163   2.634   0.979
 7400TIP3    H222146   7.271   2.693   1.069
 7401TIP3   OH222147   6.305   0.947   6.149
 7401TIP3    H122148   6.359   1.008   6.198
 7401TIP3    H222149   6.361   0.870   6.136
 7402TIP3   OH222150   7.123   3.026   3.272
 7402TIP3    H122151   7.051   2.969   3.247
 7402TIP3    H222152   7.084   3.088   3.334
 7403TIP3   OH222153   6.615   4.001   0.238
 7403TIP3    H122154   6.628   3.980   0.146
 7403TIP3    H222155   6.614   3.916   0.282
 7404TIP3   OH222156   6.291   0.878   3.790
 7404TIP3    H122157   6.285   0.785   3.767
 7404TIP3    H222158   6.200   0.907   3.793
 7405TIP3   OH222159   5.163   1.708   3.956
 7405TIP3    H122160   5.254   1.682   3.948
 7405TIP3    H222161   5.142   1.697   4.049
 7406TIP3   OH222162   0.370   3.888   0.842
 7406TIP3    H122163   0.275   3.883   0.830
 7406TIP3    H222164   0.406   3.868   0.755
 7407TIP3   OH222165   0.535   6.764   0.746
 7407TIP3    H122166   0.605   6.744   0.808
 7407TIP3    H222167   0.492   6.679   0.730
 7408TIP3   OH222168   1.701   0.149   1.187
 7408TIP3    H122169   1.649   0.097   1.249
 7408TIP3    H222170   1.676   0.116   1.101
 7409TIP3   OH222171   5.308   7.633   1.244
 7409TIP3    H122172   5.364   7.677   1.180
 7409TIP3    H222173   5.362   7.625   1.322
 7410TIP3   OH222174   8.075   1.035   4.089
 7410TIP3    H122175   8.154   0.987   4.064
 7410TIP3    H222176   8.023   1.039   4.009
 7411TIP3   OH222177   1.083   1.688   4.765
 7411TIP3    H122178   1.049   1.744   4.695
 7411TIP3    H222179   1.177   1.705   4.765
 7412TIP3   OH222180   8.079   2.169   1.634
 7412TIP3    H122181   8.073   2.075   1.622
 7412TIP3    H222182   8.015   2.190   1.702
 7413TIP3   OH222183   1.500   0.965   3.187
 7413TIP3    H122184   1.423   0.978   3.132
 7413TIP3    H222185   1.481   1.013   3.268
 7414TIP3   OH222186   0.044   1.107   1.932
 7414TIP3    H122187  -0.040   1.068   1.912
 7414TIP3    H222188   0.046   1.112   2.028
 7415TIP3   OH222189   5.708   6.662   1.541
 7415TIP3    H122190   5.725   6.571   1.518
 7415TIP3    H222191   5.613   6.667   1.551
 7416TIP3   OH222192   7.481   6.511   1.808
 7416TIP3    H122193   7.558   6.555   1.771
 7416TIP3    H222194   7.490   6.420   1.781
 7417TIP3   OH222195   1.084   2.703   2.458
 7417TIP3    H122196   1.143   2.675   2.528
 7417TIP3    H222197   0.999   2.712   2.500
 7418TIP3   OH222198   7.889   1.114   6.572
 7418TIP3    H122199   7.892   1.097   6.666
 7418TIP3    H222200   7.795   1.115   6.551
 7419TIP3   OH222201   1.244   3.915   3.165
 7419TIP3    H122202   1.196   3.924   3.083
 7419TIP3    H222203   1.182   3.943   3.233
 7420TIP3   OH222204   1.076   2.047   3.017
 7420TIP3    H122205   1.100   1.984   2.950
 7420TIP3    H222206   0.983   2.063   3.003
 7421TIP3   OH222207   3.297   6.914   1.239
 7421TIP3    H122208   3.377   6.961   1.216
 7421TIP3    H222209   3.227   6.962   1.196
 7422TIP3   OH222210   5.655   7.103   3.867
 7422TIP3    H122211   5.678   7.096   3.960
 7422TIP3    H222212   5.721   7.162   3.830
 7423TIP3   OH222213   5.167   6.120   6.196
 7423TIP3    H122214   5.120   6.192   6.153
 7423TIP3    H222215   5.257   6.129   6.165
 7424TIP3   OH222216   7.406   7.429   5.063
 7424TIP3    H122217   7.489   7.471   5.041
 7424TIP3    H222218   7.410   7.344   5.019
 7425TIP3   OH222219   1.149   1.252   4.185
 7425TIP3    H122220   1.157   1.181   4.122
 7425TIP3    H222221   1.236   1.291   4.189
 7426TIP3   OH222222   1.672   2.268   6.216
 7426TIP3    H122223   1.628   2.226   6.289
 7426TIP3    H222224   1.606   2.324   6.177
 7427TIP3   OH222225   4.554   5.206   1.021
 7427TIP3    H122226   4.570   5.123   1.064
 7427TIP3    H222227   4.633   5.222   0.969
 7428TIP3   OH222228   3.417   4.754   4.092
 7428TIP3    H122229   3.418   4.722   4.183
 7428TIP3    H222230   3.486   4.702   4.049
 7429TIP3   OH222231   4.671   5.990   0.678
 7429TIP3    H122232   4.648   6.083   0.679
 7429TIP3    H222233   4.589   5.945   0.657
 7430TIP3   OH222234   4.276   1.344   2.446
 7430TIP3    H122235   4.295   1.408   2.378
 7430TIP3    H222236   4.200   1.381   2.493
 7431TIP3   OH222237   0.857   1.563   0.361
 7431TIP3    H122238   0.855   1.484   0.414
 7431TIP3    H222239   0.782   1.556   0.303
 7432TIP3   OH222240   4.278   3.637   0.235
 7432TIP3    H122241   4.299   3.577   0.306
 7432TIP3    H222242   4.184   3.624   0.220
 7433TIP3   OH222243   6.369   1.739   3.578
 7433TIP3    H122244   6.276   1.746   3.554
 7433TIP3    H222245   6.378   1.649   3.610
 7434TIP3   OH222246   1.151   6.480   5.129
 7434TIP3    H122247   1.199   6.404   5.097
 7434TIP3    H222248   1.186   6.496   5.216
 7435TIP3   OH222249   1.172   5.577   4.243
 7435TIP3    H122250   1.089   5.599   4.201
 7435TIP3    H222251   1.182   5.483   4.228
 7436TIP3   OH222252   3.295  -0.021   5.928
 7436TIP3    H122253   3.276   0.071   5.910
 7436TIP3    H222254   3.271  -0.033   6.020
 7437TIP3   OH222255   4.465   4.824   5.666
 7437TIP3    H122256   4.385   4.827   5.614
 7437TIP3    H222257   4.437   4.795   5.753
 7438TIP3   OH222258   3.339   2.115   4.944
 7438TIP3    H122259   3.385   2.176   4.885
 7438TIP3    H222260   3.407   2.054   4.972
 7439TIP3   OH222261   1.339   7.610   0.578
 7439TIP3    H122262   1.245   7.600   0.562
 7439TIP3    H222263   1.344   7.663   0.657
 7440TIP3   OH222264   4.016   5.879   5.705
 7440TIP3    H122265   4.011   5.965   5.664
 7440TIP3    H222266   4.022   5.817   5.632
 7441TIP3   OH222267   4.615   5.203   3.359
 7441TIP3    H122268   4.632   5.132   3.421
 7441TIP3    H222269   4.538   5.173   3.309
 7442TIP3   OH222270   1.533   3.316   2.825
 7442TIP3    H122271   1.565   3.278   2.907
 7442TIP3    H222272   1.447   3.276   2.813
 7443TIP3   OH222273   1.864   6.307   3.453
 7443TIP3    H122274   1.891   6.358   3.377
 7443TIP3    H222275   1.814   6.234   3.416
 7444TIP3   OH222276   3.820   3.636   2.472
 7444TIP3    H122277   3.881   3.598   2.408
 7444TIP3    H222278   3.756   3.683   2.419
 7445TIP3   OH222279   3.267   0.754   1.067
 7445TIP3    H122280   3.187   0.767   1.016
 7445TIP3    H222281   3.309   0.677   1.027
 7446TIP3   OH222282   0.295   2.394   3.750
 7446TIP3    H122283   0.353   2.352   3.814
 7446TIP3    H222284   0.214   2.344   3.754
 7447TIP3   OH222285   0.799   5.529   3.056
 7447TIP3    H122286   0.792   5.610   3.106
 7447TIP3    H222287   0.782   5.459   3.120
 7448TIP3   OH222288   7.142   5.496   3.413
 7448TIP3    H122289   7.225   5.545   3.405
 7448TIP3    H222290   7.141   5.439   3.336
 7449TIP3   OH222291   0.681   1.681   6.099
 7449TIP3    H122292   0.777   1.680   6.095
 7449TIP3    H222293   0.659   1.612   6.161
 7450TIP3   OH222294   5.438   0.355   3.847
 7450TIP3    H122295   5.391   0.379   3.767
 7450TIP3    H222296   5.376   0.372   3.918
 7451TIP3   OH222297   0.846   2.262   6.783
 7451TIP3    H122298   0.901   2.199   6.737
 7451TIP3    H222299   0.777   2.284   6.721
 7452TIP3   OH222300   5.757   4.759   1.191
 7452TIP3    H122301   5.709   4.764   1.274
 7452TIP3    H222302   5.690   4.764   1.124
 7453TIP3   OH222303   0.907   6.394   3.381
 7453TIP3    H122304   0.957   6.373   3.459
 7453TIP3    H222305   0.830   6.440   3.413
 7454TIP3   OH222306   5.495   3.159   1.955
 7454TIP3    H122307   5.526   3.242   1.992
 7454TIP3    H222308   5.576   3.112   1.933
 7455TIP3   OH222309   8.111   0.952   2.539
 7455TIP3    H122310   8.034   1.003   2.563
 7455TIP3    H222311   8.077   0.865   2.517
 7456TIP3   OH222312   7.280   0.298   4.570
 7456TIP3    H122313   7.357   0.243   4.553
 7456TIP3    H222314   7.317   0.384   4.593
 7457TIP3   OH222315   5.405   4.455   5.659
 7457TIP3    H122316   5.467   4.471   5.588
 7457TIP3    H222317   5.403   4.359   5.668
 7458TIP3   OH222318   3.195   2.184   3.244
 7458TIP3    H122319   3.126   2.187   3.311
 7458TIP3    H222320   3.202   2.090   3.223
 7459TIP3   OH222321   6.099   3.426   2.859
 7459TIP3    H122322   6.030   3.401   2.798
 7459TIP3    H222323   6.138   3.504   2.821
 7460TIP3   OH222324   5.107   1.347   1.687
 7460TIP3    H122325   5.094   1.434   1.726
 7460TIP3    H222326   5.169   1.304   1.747
 7461TIP3   OH222327   1.810   3.450   1.997
 7461TIP3    H122328   1.865   3.379   2.030
 7461TIP3    H222329   1.784   3.422   1.910
 7462TIP3   OH222330   1.378   3.496   5.976
 7462TIP3    H122331   1.347   3.485   6.066
 7462TIP3    H222332   1.329   3.432   5.925
 7463TIP3   OH222333   4.798   2.616   1.545
 7463TIP3    H122334   4.843   2.627   1.462
 7463TIP3    H222335   4.845   2.674   1.606
 7464TIP3   OH222336   6.080   2.252   5.407
 7464TIP3    H122337   6.119   2.187   5.348
 7464TIP3    H222338   6.153   2.303   5.439
 7465TIP3   OH222339   2.617   0.197   1.841
 7465TIP3    H122340   2.576   0.284   1.843
 7465TIP3    H222341   2.622   0.175   1.748
 7466TIP3   OH222342   2.789   5.758   4.247
 7466TIP3    H122343   2.723   5.778   4.180
 7466TIP3    H222344   2.842   5.838   4.253
 7467TIP3   OH222345   8.063   2.123   2.901
 7467TIP3    H122346   8.054   2.194   2.964
 7467TIP3    H222347   8.028   2.158   2.819
 7468TIP3   OH222348   7.057   1.269   1.204
 7468TIP3    H122349   7.059   1.173   1.195
 7468TIP3    H222350   7.133   1.299   1.155
 7469TIP3   OH222351   6.502   2.123   0.419
 7469TIP3    H122352   6.486   2.030   0.436
 7469TIP3    H222353   6.448   2.143   0.343
 7470TIP3   OH222354   4.535   0.508   1.816
 7470TIP3    H122355   4.595   0.518   1.742
 7470TIP3    H222356   4.571   0.565   1.884
 7471TIP3   OH222357   1.328   5.852   6.036
 7471TIP3    H122358   1.240   5.846   5.998
 7471TIP3    H222359   1.377   5.907   5.975
 7472TIP3   OH222360   7.989   5.634   3.702
 7472TIP3    H122361   8.074   5.595   3.720
 7472TIP3    H222362   7.940   5.623   3.784
 7473TIP3   OH222363   3.490   6.334   6.695
 7473TIP3    H122364   3.576   6.314   6.658
 7473TIP3    H222365   3.486   6.429   6.697
 7474TIP3   OH222366   7.972   7.454   6.216
 7474TIP3    H122367   7.951   7.541   6.250
 7474TIP3    H222368   8.068   7.450   6.218
 7475TIP3   OH222369   4.593   4.173   3.131
 7475TIP3    H122370   4.562   4.246   3.079
 7475TIP3    H222371   4.547   4.097   3.096
 7476TIP3   OH222372   0.403   5.648   4.449
 7476TIP3    H122373   0.355   5.726   4.421
 7476TIP3    H222374   0.376   5.633   4.539
 7477TIP3   OH222375   6.374   2.202   3.944
 7477TIP3    H122376   6.353   2.293   3.965
 7477TIP3    H222377   6.373   2.157   4.028
 7478TIP3   OH222378   5.954   2.483   6.257
 7478TIP3    H122379   6.029   2.524   6.215
 7478TIP3    H222380   5.943   2.400   6.211
 7479TIP3   OH222381   1.568   5.660   0.048
 7479TIP3    H122382   1.575   5.577   0.001
 7479TIP3    H222383   1.534   5.635   0.135
 7480TIP3   OH222384   1.835   5.145   4.497
 7480TIP3    H122385   1.810   5.097   4.576
 7480TIP3    H222386   1.754   5.186   4.467
 7481TIP3   OH222387   1.776   6.838   0.141
 7481TIP3    H122388   1.812   6.916   0.099
 7481TIP3    H222389   1.808   6.843   0.231
 7482TIP3   OH222390   4.008   3.607   3.603
 7482TIP3    H122391   3.928   3.556   3.590
 7482TIP3    H222392   3.983   3.696   3.582
 7483TIP3   OH222393   5.072   3.858   2.511
 7483TIP3    H122394   5.152   3.823   2.550
 7483TIP3    H222395   5.027   3.782   2.475
 7484TIP3   OH222396   3.727   6.240   0.919
 7484TIP3    H122397   3.813   6.274   0.939
 7484TIP3    H222398   3.719   6.248   0.824
 7485TIP3   OH222399   6.519   2.999   5.392
 7485TIP3    H122400   6.577   2.924   5.382
 7485TIP3    H222401   6.577   3.075   5.391
 7486TIP3   OH222402   5.916   0.557   4.153
 7486TIP3    H122403   6.006   0.577   4.129
 7486TIP3    H222404   5.865   0.631   4.119
 7487TIP3   OH222405   0.153   6.771   2.053
 7487TIP3    H122406   0.146   6.727   1.968
 7487TIP3    H222407   0.125   6.705   2.117
 7488TIP3   OH222408   1.481   6.133   0.977
 7488TIP3    H122409   1.393   6.102   1.001
 7488TIP3    H222410   1.539   6.090   1.039
 7489TIP3   OH222411   0.938   6.023   3.862
 7489TIP3    H122412   0.948   6.090   3.930
 7489TIP3    H222413   0.876   5.960   3.899
 7490TIP3   OH222414   1.719   7.407   5.811
 7490TIP3    H122415   1.793   7.346   5.813
 7490TIP3    H222416   1.683   7.404   5.900
 7491TIP3   OH222417   0.639   4.460   5.914
 7491TIP3    H122418   0.679   4.408   5.844
 7491TIP3    H222419   0.663   4.550   5.892
 7492TIP3   OH222420   4.667   5.630   6.328
 7492TIP3    H122421   4.714   5.546   6.325
 7492TIP3    H222422   4.719   5.689   6.274
 7493TIP3   OH222423   8.055   2.996   3.330
 7493TIP3    H122424   8.070   3.001   3.236
 7493TIP3    H222425   8.002   3.074   3.350
 7494TIP3   OH222426   6.885   0.018   5.346
 7494TIP3    H122427   6.847   0.092   5.393
 7494TIP3    H222428   6.937   0.058   5.276
 7495TIP3   OH222429   8.071   3.973   2.664
 7495TIP3    H122430   8.086   4.024   2.585
 7495TIP3    H222431   8.138   3.905   2.662
 7496TIP3   OH222432   6.012   2.908   4.150
 7496TIP3    H122433   6.070   2.973   4.191
 7496TIP3    H222434   5.950   2.884   4.219
 7497TIP3   OH222435   6.747   5.368   2.221
 7497TIP3    H122436   6.687   5.371   2.146
 7497TIP3    H222437   6.706   5.423   2.287
 7498TIP3   OH222438   8.230   1.269   6.309
 7498TIP3    H122439   8.228   1.257   6.214
 7498TIP3    H222440   8.196   1.187   6.344
 7499TIP3   OH222441   6.547   0.415   5.985
 7499TIP3    H122442   6.487   0.344   5.962
 7499TIP3    H222443   6.517   0.446   6.070
 7500TIP3   OH222444   0.058   7.120   4.630
 7500TIP3    H122445   0.052   7.061   4.554
 7500TIP3    H222446  -0.021   7.101   4.681
 7501TIP3   OH222447   1.824   5.298   2.054
 7501TIP3    H122448   1.791   5.215   2.019
 7501TIP3    H222449   1.832   5.355   1.977
 7502TIP3   OH222450   4.105   2.738   0.007
 7502TIP3    H122451   4.100   2.663  -0.053
 7502TIP3    H222452   4.132   2.700   0.091
 7503TIP3   OH222453   1.916   6.468   2.882
 7503TIP3    H122454   1.996   6.511   2.852
 7503TIP3    H222455   1.896   6.403   2.814
 7504TIP3   OH222456   3.417   5.104   1.185
 7504TIP3    H122457   3.335   5.152   1.191
 7504TIP3    H222458   3.480   5.158   1.234
 7505TIP3   OH222459   7.925   0.969   0.876
 7505TIP3    H122460   7.848   0.983   0.821
 7505TIP3    H222461   7.992   0.939   0.815
 7506TIP3   OH222462   2.053   4.472   5.199
 7506TIP3    H122463   2.007   4.414   5.138
 7506TIP3    H222464   2.112   4.523   5.144
 7507TIP3   OH222465   2.019  -0.035   6.008
 7507TIP3    H122466   2.090   0.016   6.048
 7507TIP3    H222467   2.006   0.005   5.922
 7508TIP3   OH222468   0.585   2.830   5.470
 7508TIP3    H122469   0.508   2.775   5.457
 7508TIP3    H222470   0.616   2.850   5.381
 7509TIP3   OH222471   5.345   2.334   0.894
 7509TIP3    H122472   5.335   2.367   0.805
 7509TIP3    H222473   5.365   2.412   0.946
 7510TIP3   OH222474   7.066   0.749   4.585
 7510TIP3    H122475   7.045   0.702   4.665
 7510TIP3    H222476   7.022   0.833   4.594
 7511TIP3   OH222477   0.475   7.719   3.033
 7511TIP3    H122478   0.387   7.751   3.050
 7511TIP3    H222479   0.475   7.629   3.066
 7512TIP3   OH222480   8.089   1.784   4.198
 7512TIP3    H122481   8.057   1.874   4.192
 7512TIP3    H222482   8.180   1.793   4.224
 7513TIP3   OH222483   1.308   4.480   5.398
 7513TIP3    H122484   1.333   4.413   5.462
 7513TIP3    H222485   1.368   4.466   5.325
 7514TIP3   OH222486   2.892   1.163   1.864
 7514TIP3    H122487   2.827   1.101   1.830
 7514TIP3    H222488   2.975   1.132   1.829
 7515TIP3   OH222489   5.279   7.467   6.186
 7515TIP3    H122490   5.330   7.442   6.109
 7515TIP3    H222491   5.190   7.479   6.153
 7516TIP3   OH222492   5.171   7.419   4.178
 7516TIP3    H122493   5.209   7.355   4.238
 7516TIP3    H222494   5.243   7.444   4.120
 7517TIP3   OH222495   4.495   4.170   5.048
 7517TIP3    H122496   4.411   4.192   5.086
 7517TIP3    H222497   4.556   4.168   5.122
 7518TIP3   OH222498   3.737   1.084   1.141
 7518TIP3    H122499   3.666   1.085   1.205
 7518TIP3    H222500   3.740   1.173   1.107
 7519TIP3   OH222501   3.974   3.672   4.304
 7519TIP3    H122502   3.943   3.586   4.275
 7519TIP3    H222503   4.000   3.716   4.222
 7520TIP3   OH222504   0.452   5.213   5.749
 7520TIP3    H122505   0.446   5.160   5.828
 7520TIP3    H222506   0.386   5.176   5.690
 7521TIP3   OH222507   0.162   0.345   1.719
 7521TIP3    H122508   0.153   0.436   1.691
 7521TIP3    H222509   0.096   0.333   1.786
 7522TIP3   OH222510   3.918   4.064   1.469
 7522TIP3    H122511   4.011   4.054   1.448
 7522TIP3    H222512   3.881   3.977   1.452
 7523TIP3   OH222513   3.446   1.893   0.901
 7523TIP3    H122514   3.389   1.884   0.977
 7523TIP3    H222515   3.453   1.805   0.864
 7524TIP3   OH222516   0.548   4.000   2.652
 7524TIP3    H122517   0.640   3.977   2.666
 7524TIP3    H222518   0.532   4.073   2.713
 7525TIP3   OH222519   4.333   1.577   1.925
 7525TIP3    H122520   4.363   1.605   1.839
 7525TIP3    H222521   4.285   1.652   1.960
 7526TIP3   OH222522   7.702   7.432   2.387
 7526TIP3    H122523   7.732   7.496   2.323
 7526TIP3    H222524   7.778   7.419   2.444
 7527TIP3   OH222525   0.730   1.634   2.635
 7527TIP3    H122526   0.677   1.714   2.638
 7527TIP3    H222527   0.677   1.573   2.583
 7528TIP3   OH222528   2.617   0.554   6.683
 7528TIP3    H122529   2.605   0.645   6.709
 7528TIP3    H222530   2.583   0.550   6.594
 7529TIP3   OH222531   3.025   2.615   5.241
 7529TIP3    H122532   3.104   2.602   5.188
 7529TIP3    H222533   2.975   2.680   5.193
 7530TIP3   OH222534   0.275   5.854   2.405
 7530TIP3    H122535   0.194   5.838   2.356
 7530TIP3    H222536   0.345   5.825   2.347
 7531TIP3   OH222537   1.706   5.007   0.894
 7531TIP3    H122538   1.627   4.957   0.875
 7531TIP3    H222539   1.764   4.988   0.820
 7532TIP3   OH222540   4.371   2.805   5.531
 7532TIP3    H122541   4.405   2.797   5.620
 7532TIP3    H222542   4.336   2.894   5.527
 7533TIP3   OH222543   7.505   1.808   1.907
 7533TIP3    H122544   7.522   1.735   1.967
 7533TIP3    H222545   7.472   1.766   1.827
 7534TIP3   OH222546   2.173   1.904   1.200
 7534TIP3    H122547   2.196   1.985   1.246
 7534TIP3    H222548   2.121   1.854   1.262
 7535TIP3   OH222549   3.436   0.589   5.310
 7535TIP3    H122550   3.517   0.539   5.317
 7535TIP3    H222551   3.463   0.680   5.322
 7536TIP3   OH222552   6.229   0.086   0.335
 7536TIP3    H122553   6.174   0.031   0.392
 7536TIP3    H222554   6.226   0.173   0.375
 7537TIP3   OH222555   8.196   4.058   5.327
 7537TIP3    H122556   8.247   4.053   5.407
 7537TIP3    H222557   8.223   3.982   5.276
 7538TIP3   OH222558   6.278   3.463   6.300
 7538TIP3    H122559   6.264   3.392   6.237
 7538TIP3    H222560   6.320   3.533   6.250
 7539TIP3   OH222561   0.327   0.970   1.568
 7539TIP3    H122562   0.330   0.978   1.663
 7539TIP3    H222563   0.285   0.886   1.552
 7540TIP3   OH222564   8.192   1.279   2.907
 7540TIP3    H122565   8.248   1.339   2.956
 7540TIP3    H222566   8.103   1.307   2.929
 7541TIP3   OH222567   1.596   2.065   1.723
 7541TIP3    H122568   1.542   2.115   1.662
 7541TIP3    H222569   1.543   2.061   1.803
 7542TIP3   OH222570   7.822   0.729   0.163
 7542TIP3    H122571   7.838   0.778   0.082
 7542TIP3    H222572   7.739   0.765   0.196
 7543TIP3   OH222573   2.684   1.731   6.162
 7543TIP3    H122574   2.777   1.719   6.142
 7543TIP3    H222575   2.683   1.793   6.234
 7544TIP3   OH222576   2.933   3.132   2.443
 7544TIP3    H122577   2.862   3.147   2.506
 7544TIP3    H222578   2.910   3.186   2.367
 7545TIP3   OH222579   6.303   4.611   4.651
 7545TIP3    H122580   6.258   4.549   4.594
 7545TIP3    H222581   6.233   4.670   4.681
 7546TIP3   OH222582   3.765   2.806   5.570
 7546TIP3    H122583   3.781   2.875   5.635
 7546TIP3    H222584   3.714   2.849   5.502
 7547TIP3   OH222585   2.934   0.169   0.931
 7547TIP3    H122586   2.847   0.191   0.964
 7547TIP3    H222587   2.992   0.236   0.968
 7548TIP3   OH222588   2.850   2.979   2.738
 7548TIP3    H122589   2.806   3.049   2.690
 7548TIP3    H222590   2.822   2.899   2.694
 7549TIP3   OH222591   5.638   2.553   6.007
 7549TIP3    H122592   5.607   2.464   5.990
 7549TIP3    H222593   5.733   2.547   5.998
 7550TIP3   OH222594   0.432   2.040   6.671
 7550TIP3    H122595   0.525   2.030   6.694
 7550TIP3    H222596   0.430   2.027   6.576
 7551TIP3   OH222597   2.576   3.730   5.917
 7551TIP3    H122598   2.537   3.811   5.950
 7551TIP3    H222599   2.670   3.748   5.916
 7552TIP3   OH222600   0.268   2.469   3.298
 7552TIP3    H122601   0.233   2.533   3.360
 7552TIP3    H222602   0.335   2.516   3.249
 7553TIP3   OH222603   2.417   6.309   1.843
 7553TIP3    H122604   2.374   6.369   1.782
 7553TIP3    H222605   2.501   6.351   1.861
 7554TIP3   OH222606   5.350   1.152   3.621
 7554TIP3    H122607   5.412   1.195   3.563
 7554TIP3    H222608   5.376   1.179   3.709
 7555TIP3   OH222609   2.544   6.793   5.370
 7555TIP3    H122610   2.568   6.723   5.309
 7555TIP3    H222611   2.481   6.752   5.429
 7556TIP3   OH222612   7.111   0.014   5.137
 7556TIP3    H122613   7.161   0.024   5.218
 7556TIP3    H222614   7.170   0.045   5.069
 7557TIP3   OH222615   8.064   5.019   2.264
 7557TIP3    H122616   8.043   4.989   2.175
 7557TIP3    H222617   8.159   5.032   2.263
 7558TIP3   OH222618   1.291   5.739   4.709
 7558TIP3    H122619   1.244   5.657   4.725
 7558TIP3    H222620   1.251   5.802   4.769
 7559TIP3   OH222621   0.469   1.529   2.185
 7559TIP3    H122622   0.419   1.551   2.264
 7559TIP3    H222623   0.441   1.595   2.120
 7560TIP3   OH222624   3.295   2.697   6.043
 7560TIP3    H122625   3.283   2.611   6.083
 7560TIP3    H222626   3.277   2.759   6.114
 7561TIP3   OH222627   4.580   5.025   3.762
 7561TIP3    H122628   4.612   4.944   3.803
 7561TIP3    H222629   4.543   4.996   3.679
 7562TIP3   OH222630   1.999   3.841   2.189
 7562TIP3    H122631   1.944   3.918   2.172
 7562TIP3    H222632   2.080   3.877   2.226
 7563TIP3   OH222633   4.607   0.198   6.622
 7563TIP3    H122634   4.697   0.228   6.638
 7563TIP3    H222635   4.587   0.230   6.534
 7564TIP3   OH222636   7.549   6.223   2.291
 7564TIP3    H122637   7.622   6.166   2.315
 7564TIP3    H222638   7.471   6.173   2.317
 7565TIP3   OH222639   5.017   6.067   5.597
 7565TIP3    H122640   5.096   6.050   5.545
 7565TIP3    H222641   5.004   6.161   5.591
 7566TIP3   OH222642   1.959   1.787   2.864
 7566TIP3    H122643   2.044   1.828   2.849
 7566TIP3    H222644   1.947   1.730   2.788
 7567TIP3   OH222645   0.648   5.001   4.343
 7567TIP3    H122646   0.743   4.994   4.352
 7567TIP3    H222647   0.630   4.963   4.256
 7568TIP3   OH222648   5.785   2.094   2.450
 7568TIP3    H122649   5.726   2.019   2.441
 7568TIP3    H222650   5.838   2.074   2.527
 7569TIP3   OH222651   4.068   1.214   3.696
 7569TIP3    H122652   4.031   1.156   3.629
 7569TIP3    H222653   3.996   1.227   3.758
 7570TIP3   OH222654   2.080   3.822   5.035
 7570TIP3    H122655   2.104   3.828   4.943
 7570TIP3    H222656   2.164   3.825   5.081
 7571TIP3   OH222657   0.086   4.544   3.548
 7571TIP3    H122658  -0.005   4.517   3.558
 7571TIP3    H222659   0.118   4.493   3.473
 7572TIP3   OH222660   0.565   1.459   3.108
 7572TIP3    H122661   0.494   1.459   3.044
 7572TIP3    H222662   0.597   1.549   3.108
 7573TIP3   OH222663   0.970   4.303   0.154
 7573TIP3    H122664   1.041   4.322   0.216
 7573TIP3    H222665   0.919   4.233   0.195
 7574TIP3   OH222666   4.202   3.809   6.807
 7574TIP3    H122667   4.153   3.782   6.729
 7574TIP3    H222668   4.287   3.837   6.774
 7575TIP3   OH222669   5.789   0.101   5.365
 7575TIP3    H122670   5.837   0.182   5.386
 7575TIP3    H222671   5.843   0.031   5.400
 7576TIP3   OH222672   0.553   3.571   1.113
 7576TIP3    H122673   0.468   3.540   1.144
 7576TIP3    H222674   0.602   3.491   1.094
 7577TIP3   OH222675   8.220   0.811   2.231
 7577TIP3    H122676   8.238   0.903   2.213
 7577TIP3    H222677   8.231   0.802   2.326
 7578TIP3   OH222678   3.257   2.311   1.388
 7578TIP3    H122679   3.304   2.341   1.310
 7578TIP3    H222680   3.189   2.377   1.402
 7579TIP3   OH222681   2.221   7.079   1.637
 7579TIP3    H122682   2.224   7.174   1.632
 7579TIP3    H222683   2.180   7.051   1.555
 7580TIP3   OH222684   0.307   6.973   0.081
 7580TIP3    H122685   0.284   7.030   0.155
 7580TIP3    H222686   0.270   6.888   0.103
 7581TIP3   OH222687   6.993   1.997   0.611
 7581TIP3    H122688   7.088   1.997   0.599
 7581TIP3    H222689   6.960   2.050   0.538
 7582TIP3   OH222690   7.837   6.571   5.237
 7582TIP3    H122691   7.867   6.638   5.298
 7582TIP3    H222692   7.915   6.550   5.185
 7583TIP3   OH222693   2.814   7.754   5.041
 7583TIP3    H122694   2.894   7.761   5.092
 7583TIP3    H222695   2.827   7.814   4.967
 7584TIP3   OH222696   7.063   3.904   3.468
 7584TIP3    H122697   7.109   3.950   3.538
 7584TIP3    H222698   6.973   3.896   3.500
 7585TIP3   OH222699   4.177   1.359   3.419
 7585TIP3    H122700   4.163   1.266   3.437
 7585TIP3    H222701   4.194   1.364   3.325
 7586TIP3   OH222702   0.940   4.360   5.118
 7586TIP3    H122703   1.014   4.318   5.074
 7586TIP3    H222704   0.978   4.406   5.192
 7587TIP3   OH222705   0.045   2.725   6.476
 7587TIP3    H122706   0.126   2.773   6.457
 7587TIP3    H222707  -0.025   2.780   6.441
 7588TIP3   OH222708   0.844   0.786   3.264
 7588TIP3    H122709   0.765   0.731   3.271
 7588TIP3    H222710   0.875   0.796   3.354
 7589TIP3   OH222711   1.978   6.552   6.540
 7589TIP3    H122712   2.003   6.544   6.448
 7589TIP3    H222713   1.961   6.645   6.553
 7590TIP3   OH222714   5.323   2.520   2.736
 7590TIP3    H122715   5.284   2.438   2.765
 7590TIP3    H222716   5.342   2.567   2.816
 7591TIP3   OH222717   7.619   5.386   2.195
 7591TIP3    H122718   7.662   5.401   2.279
 7591TIP3    H222719   7.686   5.345   2.140
 7592TIP3   OH222720   1.724   0.085   6.662
 7592TIP3    H122721   1.705   0.005   6.613
 7592TIP3    H222722   1.766   0.143   6.599
 7593TIP3   OH222723   1.746   6.827   2.178
 7593TIP3    H122724   1.690   6.844   2.254
 7593TIP3    H222725   1.821   6.885   2.190
 7594TIP3   OH222726   6.421   1.849   4.090
 7594TIP3    H122727   6.406   1.916   4.157
 7594TIP3    H222728   6.470   1.780   4.136
 7595TIP3   OH222729   4.267   0.482   3.405
 7595TIP3    H122730   4.202   0.447   3.466
 7595TIP3    H222731   4.349   0.481   3.455
 7596TIP3   OH222732   5.276   0.668   4.614
 7596TIP3    H122733   5.214   0.706   4.677
 7596TIP3    H222734   5.348   0.636   4.668
 7597TIP3   OH222735   7.231   0.214   3.067
 7597TIP3    H122736   7.282   0.256   2.998
 7597TIP3    H222737   7.194   0.135   3.026
 7598TIP3   OH222738   4.771   2.965   2.544
 7598TIP3    H122739   4.818   3.042   2.575
 7598TIP3    H222740   4.825   2.891   2.573
 7599TIP3   OH222741   6.170   6.706   5.744
 7599TIP3    H122742   6.124   6.790   5.744
 7599TIP3    H222743   6.159   6.674   5.654
 7600TIP3   OH222744   7.428   2.710   2.318
 7600TIP3    H122745   7.432   2.804   2.299
 7600TIP3    H222746   7.514   2.677   2.293
 7601TIP3   OH222747   3.272   4.486   2.772
 7601TIP3    H122748   3.253   4.547   2.701
 7601TIP3    H222749   3.194   4.491   2.828
 7602TIP3   OH222750   5.211   5.086   4.629
 7602TIP3    H122751   5.137   5.041   4.669
 7602TIP3    H222752   5.189   5.089   4.536
 7603TIP3   OH222753   7.822   0.954   4.199
 7603TIP3    H122754   7.904   0.993   4.169
 7603TIP3    H222755   7.776   1.026   4.243
 7604TIP3   OH222756   7.441   7.497   2.028
 7604TIP3    H122757   7.400   7.551   2.096
 7604TIP3    H222758   7.429   7.548   1.948
 7605TIP3   OH222759   4.304   5.882   4.698
 7605TIP3    H122760   4.246   5.878   4.774
 7605TIP3    H222761   4.379   5.829   4.722
 7606TIP3   OH222762   5.863   1.712   1.870
 7606TIP3    H122763   5.909   1.726   1.787
 7606TIP3    H222764   5.852   1.800   1.907
 7607TIP3   OH222765   7.368   1.836   1.377
 7607TIP3    H122766   7.423   1.758   1.369
 7607TIP3    H222767   7.302   1.813   1.442
 7608TIP3   OH222768   1.554   3.460   5.347
 7608TIP3    H122769   1.485   3.484   5.285
 7608TIP3    H222770   1.586   3.376   5.315
 7609TIP3   OH222771   8.160   4.995   6.072
 7609TIP3    H122772   8.184   5.082   6.040
 7609TIP3    H222773   8.110   4.956   6.000
 7610TIP3   OH222774   5.996   5.323   3.521
 7610TIP3    H122775   5.998   5.295   3.612
 7610TIP3    H222776   5.984   5.242   3.471
 7611TIP3   OH222777   5.497   4.053   5.435
 7611TIP3    H122778   5.546   3.974   5.456
 7611TIP3    H222779   5.492   4.101   5.518
 7612TIP3   OH222780   0.216   6.143   4.158
 7612TIP3    H122781   0.229   6.048   4.166
 7612TIP3    H222782   0.137   6.160   4.207
 7613TIP3   OH222783   0.640   0.640   2.596
 7613TIP3    H122784   0.645   0.731   2.624
 7613TIP3    H222785   0.548   0.627   2.574
 7614TIP3   OH222786   3.977   0.128   4.813
 7614TIP3    H122787   3.982   0.060   4.745
 7614TIP3    H222788   4.051   0.110   4.870
 7615TIP3   OH222789   6.568   1.344   4.630
 7615TIP3    H122790   6.498   1.304   4.578
 7615TIP3    H222791   6.523   1.395   4.697
 7616TIP3   OH222792   0.908   6.300   0.399
 7616TIP3    H122793   0.917   6.395   0.391
 7616TIP3    H222794   0.893   6.269   0.310
 7617TIP3   OH222795   5.169   3.362   5.427
 7617TIP3    H122796   5.101   3.394   5.486
 7617TIP3    H222797   5.165   3.267   5.433
 7618TIP3   OH222798   0.820   3.994   2.679
 7618TIP3    H122799   0.826   4.089   2.689
 7618TIP3    H222800   0.909   3.966   2.657
 7619TIP3   OH222801   1.837   2.350   0.178
 7619TIP3    H122802   1.778   2.423   0.201
 7619TIP3    H222803   1.783   2.272   0.188
 7620TIP3   OH222804   2.105   3.002   1.935
 7620TIP3    H122805   2.095   2.914   1.898
 7620TIP3    H222806   2.180   3.039   1.889
 7621TIP3   OH222807   6.538   0.590   2.290
 7621TIP3    H122808   6.593   0.514   2.309
 7621TIP3    H222809   6.535   0.638   2.373
 7622TIP3   OH222810   1.125   5.147   2.965
 7622TIP3    H122811   1.044   5.098   2.981
 7622TIP3    H222812   1.096   5.227   2.920
 7623TIP3   OH222813   5.096   5.887   5.058
 7623TIP3    H122814   5.114   5.977   5.085
 7623TIP3    H222815   5.090   5.837   5.139
 7624TIP3   OH222816   7.881   3.808   5.696
 7624TIP3    H122817   7.819   3.742   5.664
 7624TIP3    H222818   7.873   3.804   5.791
 7625TIP3   OH222819   4.944   4.296   2.506
 7625TIP3    H122820   4.981   4.384   2.493
 7625TIP3    H222821   4.901   4.275   2.424
 7626TIP3   OH222822   0.171   1.496   4.339
 7626TIP3    H122823   0.221   1.575   4.321
 7626TIP3    H222824   0.233   1.437   4.380
 7627TIP3   OH222825   6.638   6.384   2.444
 7627TIP3    H122826   6.550   6.406   2.411
 7627TIP3    H222827   6.625   6.305   2.496
 7628TIP3   OH222828   2.503   3.985   2.216
 7628TIP3    H122829   2.593   3.955   2.202
 7628TIP3    H222830   2.504   4.076   2.186
 7629TIP3   OH222831   7.834   5.906   3.888
 7629TIP3    H122832   7.881   5.983   3.858
 7629TIP3    H222833   7.776   5.883   3.815
 7630TIP3   OH222834   5.309   7.549   4.460
 7630TIP3    H122835   5.226   7.552   4.412
 7630TIP3    H222836   5.366   7.608   4.411
 7631TIP3   OH222837   1.100   6.389   6.409
 7631TIP3    H122838   1.129   6.421   6.323
 7631TIP3    H222839   1.181   6.385   6.461
 7632TIP3   OH222840   0.495   0.799   1.347
 7632TIP3    H122841   0.432   0.872   1.346
 7632TIP3    H222842   0.453   0.733   1.403
 7633TIP3   OH222843   3.969   7.492   1.365
 7633TIP3    H122844   3.967   7.416   1.424
 7633TIP3    H222845   3.983   7.567   1.423
 7634TIP3   OH222846   6.636   2.185   0.997
 7634TIP3    H122847   6.689   2.222   1.068
 7634TIP3    H222848   6.700   2.145   0.938
 7635TIP3   OH222849   3.117   1.826   2.169
 7635TIP3    H122850   3.104   1.864   2.082
 7635TIP3    H222851   3.036   1.846   2.216
 7636TIP3   OH222852   6.029   6.046   6.659
 7636TIP3    H122853   5.966   6.020   6.592
 7636TIP3    H222854   6.114   6.039   6.616
 7637TIP3   OH222855   4.539   7.103   3.118
 7637TIP3    H122856   4.634   7.096   3.127
 7637TIP3    H222857   4.504   7.025   3.163
 7638TIP3   OH222858   4.928   7.308   5.506
 7638TIP3    H122859   4.914   7.297   5.412
 7638TIP3    H222860   4.940   7.219   5.539
 7639TIP3   OH222861   5.484   2.672   3.660
 7639TIP3    H122862   5.524   2.686   3.574
 7639TIP3    H222863   5.505   2.581   3.682
 7640TIP3   OH222864   4.704   2.138   5.640
 7640TIP3    H122865   4.688   2.104   5.552
 7640TIP3    H222866   4.713   2.233   5.628
 7641TIP3   OH222867   3.437   7.741   3.982
 7641TIP3    H122868   3.517   7.709   4.023
 7641TIP3    H222869   3.465   7.812   3.925
 7642TIP3   OH222870   7.097   4.409   1.527
 7642TIP3    H122871   7.036   4.427   1.456
 7642TIP3    H222872   7.054   4.341   1.578
 7643TIP3   OH222873   1.616   2.810   2.768
 7643TIP3    H122874   1.573   2.725   2.762
 7643TIP3    H222875   1.663   2.808   2.851
 7644TIP3   OH222876   7.213   2.738   6.252
 7644TIP3    H122877   7.186   2.686   6.328
 7644TIP3    H222878   7.136   2.738   6.195
 7645TIP3   OH222879   0.302   5.474   3.682
 7645TIP3    H122880   0.340   5.387   3.687
 7645TIP3    H222881   0.320   5.513   3.768
 7646TIP3   OH222882   2.849   1.404   1.718
 7646TIP3    H122883   2.828   1.316   1.747
 7646TIP3    H222884   2.944   1.405   1.711
 7647TIP3   OH222885   7.598   6.005   0.678
 7647TIP3    H122886   7.611   5.918   0.641
 7647TIP3    H222887   7.507   6.026   0.659
 7648TIP3   OH222888   2.180   6.909   1.840
 7648TIP3    H122889   2.188   6.980   1.775
 7648TIP3    H222890   2.086   6.896   1.850
 7649TIP3   OH222891   2.392   5.643   3.491
 7649TIP3    H122892   2.432   5.577   3.434
 7649TIP3    H222893   2.388   5.601   3.577
 7650TIP3   OH222894   5.353   0.591   0.411
 7650TIP3    H122895   5.402   0.542   0.477
 7650TIP3    H222896   5.374   0.549   0.328
 7651TIP3   OH222897   5.823   1.328   4.674
 7651TIP3    H122898   5.841   1.234   4.684
 7651TIP3    H222899   5.842   1.346   4.582
 7652TIP3   OH222900   5.519   5.257   1.948
 7652TIP3    H122901   5.582   5.241   1.878
 7652TIP3    H222902   5.532   5.184   2.009
 7653TIP3   OH222903   7.030   6.585   2.029
 7653TIP3    H122904   7.109   6.531   2.036
 7653TIP3    H222905   6.959   6.523   2.012
 7654TIP3   OH222906   2.239   2.611   0.876
 7654TIP3    H122907   2.278   2.528   0.902
 7654TIP3    H222908   2.311   2.661   0.838
 7655TIP3   OH222909   1.060   7.168   3.727
 7655TIP3    H122910   1.153   7.143   3.722
 7655TIP3    H222911   1.032   7.174   3.636
 7656TIP3   OH222912   1.995   6.708   5.761
 7656TIP3    H122913   1.961   6.760   5.834
 7656TIP3    H222914   2.069   6.759   5.727
 7657TIP3   OH222915   3.695   5.678   6.151
 7657TIP3    H122916   3.788   5.689   6.169
 7657TIP3    H222917   3.673   5.592   6.188
 7658TIP3   OH222918   1.748   5.883   5.718
 7658TIP3    H122919   1.749   5.956   5.657
 7658TIP3    H222920   1.664   5.839   5.700
 7659TIP3   OH222921   4.217   2.078   2.676
 7659TIP3    H122922   4.153   2.124   2.730
 7659TIP3    H222923   4.295   2.133   2.678
 7660TIP3   OH222924   6.834   5.938   6.145
 7660TIP3    H122925   6.825   5.933   6.240
 7660TIP3    H222926   6.876   6.023   6.129
 7661TIP3   OH222927   6.494   0.748   6.101
 7661TIP3    H122928   6.515   0.719   6.013
 7661TIP3    H222929   6.481   0.667   6.151
 7662TIP3   OH222930   6.601   1.536   3.927
 7662TIP3    H122931   6.620   1.480   4.003
 7662TIP3    H222932   6.669   1.602   3.928
 7663TIP3   OH222933   6.848   7.126   4.562
 7663TIP3    H122934   6.875   7.217   4.577
 7663TIP3    H222935   6.772   7.134   4.504
 7664TIP3   OH222936   1.048   2.705   4.040
 7664TIP3    H122937   1.009   2.617   4.038
 7664TIP3    H222938   0.975   2.764   4.057
 7665TIP3   OH222939   6.336   0.934   0.766
 7665TIP3    H122940   6.312   0.926   0.674
 7665TIP3    H222941   6.266   0.986   0.805
 7666TIP3   OH222942   7.053   4.837   1.145
 7666TIP3    H122943   7.086   4.888   1.071
 7666TIP3    H222944   7.049   4.900   1.217
 7667TIP3   OH222945   7.840   2.852   3.725
 7667TIP3    H122946   7.901   2.924   3.733
 7667TIP3    H222947   7.754   2.894   3.716
 7668TIP3   OH222948   7.796   7.519   0.930
 7668TIP3    H122949   7.818   7.562   0.847
 7668TIP3    H222950   7.701   7.528   0.938
 7669TIP3   OH222951   0.771   6.544   5.735
 7669TIP3    H122952   0.779   6.454   5.702
 7669TIP3    H222953   0.859   6.580   5.727
 7670TIP3   OH222954   4.470   0.237   2.832
 7670TIP3    H122955   4.496   0.254   2.741
 7670TIP3    H222956   4.504   0.149   2.850
 7671TIP3   OH222957   0.880   5.369   6.258
 7671TIP3    H122958   0.788   5.390   6.239
 7671TIP3    H222959   0.928   5.410   6.186
 7672TIP3   OH222960   7.558   7.813   0.224
 7672TIP3    H122961   7.503   7.738   0.201
 7672TIP3    H222962   7.647   7.779   0.223
 7673TIP3   OH222963   7.266   7.337   5.339
 7673TIP3    H122964   7.311   7.420   5.352
 7673TIP3    H222965   7.320   7.290   5.276
 7674TIP3   OH222966   6.293   4.638   5.638
 7674TIP3    H122967   6.387   4.650   5.649
 7674TIP3    H222968   6.253   4.704   5.694
 7675TIP3   OH222969   4.153   5.072   1.469
 7675TIP3    H122970   4.088   5.094   1.536
 7675TIP3    H222971   4.107   5.086   1.386
 7676TIP3   OH222972   2.451   5.342   0.487
 7676TIP3    H122973   2.394   5.301   0.552
 7676TIP3    H222974   2.488   5.418   0.533
 7677TIP3   OH222975   7.626   6.391   6.041
 7677TIP3    H122976   7.584   6.464   5.995
 7677TIP3    H222977   7.622   6.417   6.133
 7678TIP3   OH222978   7.772   5.991   5.312
 7678TIP3    H122979   7.703   6.035   5.361
 7678TIP3    H222980   7.736   5.980   5.224
 7679TIP3   OH222981   2.966   4.485   0.465
 7679TIP3    H122982   3.044   4.535   0.440
 7679TIP3    H222983   2.908   4.550   0.505
 7680TIP3   OH222984   1.553   7.768   3.879
 7680TIP3    H122985   1.544   7.816   3.962
 7680TIP3    H222986   1.577   7.680   3.905
 7681TIP3   OH222987   7.907   2.889   4.975
 7681TIP3    H122988   7.896   2.892   4.880
 7681TIP3    H222989   7.898   2.796   4.997
 7682TIP3   OH222990   3.125   1.151   1.720
 7682TIP3    H122991   3.214   1.118   1.710
 7682TIP3    H222992   3.085   1.142   1.634
 7683TIP3   OH222993   1.140   7.458   1.293
 7683TIP3    H122994   1.052   7.425   1.309
 7683TIP3    H222995   1.197   7.383   1.311
 7684TIP3   OH222996   3.013   0.520   0.448
 7684TIP3    H122997   3.010   0.459   0.522
 7684TIP3    H222998   2.924   0.555   0.443
 7685TIP3   OH222999   0.150   3.189   6.557
 7685TIP3    H123000   0.239   3.155   6.544
 7685TIP3    H223001   0.163   3.269   6.608
 7686TIP3   OH223002   1.923   6.156   3.880
 7686TIP3    H123003   1.914   6.114   3.795
 7686TIP3    H223004   1.903   6.248   3.864
 7687TIP3   OH223005   3.840   5.856   6.344
 7687TIP3    H123006   3.907   5.816   6.399
 7687TIP3    H223007   3.887   5.886   6.267
 7688TIP3   OH223008   6.728   6.723   5.565
 7688TIP3    H123009   6.642   6.683   5.549
 7688TIP3    H223010   6.785   6.680   5.501
 7689TIP3   OH223011   8.228   6.263   4.282
 7689TIP3    H123012   8.242   6.339   4.226
 7689TIP3    H223013   8.157   6.214   4.239
 7690TIP3   OH223014   1.046   5.094   3.798
 7690TIP3    H123015   1.041   5.014   3.850
 7690TIP3    H223016   1.095   5.068   3.720
 7691TIP3   OH223017   8.263   5.224   2.098
 7691TIP3    H123018   8.253   5.130   2.087
 7691TIP3    H223019   8.290   5.235   2.190
 7692TIP3   OH223020   0.073   7.625   2.587
 7692TIP3    H123021   0.058   7.623   2.493
 7692TIP3    H223022  -0.008   7.588   2.625
 7693TIP3   OH223023   0.625   2.984   0.349
 7693TIP3    H123024   0.574   3.058   0.316
 7693TIP3    H223025   0.630   2.998   0.443
 7694TIP3   OH223026   1.393   5.037   3.509
 7694TIP3    H123027   1.419   5.037   3.416
 7694TIP3    H223028   1.476   5.027   3.556
 7695TIP3   OH223029   1.232   1.682   0.015
 7695TIP3    H123030   1.149   1.696   0.061
 7695TIP3    H223031   1.279   1.764   0.024
 7696TIP3   OH223032   6.205   0.629   6.329
 7696TIP3    H123033   6.194   0.567   6.401
 7696TIP3    H223034   6.189   0.715   6.369
 7697TIP3   OH223035   4.436   5.115   0.305
 7697TIP3    H123036   4.479   5.169   0.370
 7697TIP3    H223037   4.383   5.053   0.357
 7698TIP3   OH223038   5.029   4.619   2.541
 7698TIP3    H123039   4.937   4.632   2.561
 7698TIP3    H223040   5.058   4.551   2.602
 7699TIP3   OH223041   7.807   4.159   2.038
 7699TIP3    H123042   7.713   4.143   2.027
 7699TIP3    H223043   7.846   4.133   1.955
 7700TIP3   OH223044   6.292   2.381   0.644
 7700TIP3    H123045   6.380   2.344   0.641
 7700TIP3    H223046   6.285   2.418   0.732
 7701TIP3   OH223047   8.266   1.318   5.017
 7701TIP3    H123048   8.306   1.388   5.070
 7701TIP3    H223049   8.231   1.257   5.082
 7702TIP3   OH223050   7.634   0.416   0.714
 7702TIP3    H123051   7.696   0.417   0.641
 7702TIP3    H223052   7.665   0.484   0.773
 7703TIP3   OH223053   2.769   3.828   1.126
 7703TIP3    H123054   2.844   3.885   1.109
 7703TIP3    H223055   2.775   3.809   1.220
 7704TIP3   OH223056   6.522   1.580   5.532
 7704TIP3    H123057   6.514   1.538   5.447
 7704TIP3    H223058   6.432   1.591   5.562
 7705TIP3   OH223059   2.948   6.852   4.477
 7705TIP3    H123060   2.993   6.814   4.553
 7705TIP3    H223061   2.931   6.777   4.420
 7706TIP3   OH223062   6.917   7.448   0.684
 7706TIP3    H123063   7.012   7.460   0.687
 7706TIP3    H223064   6.888   7.508   0.615
 7707TIP3   OH223065   5.756   6.516   1.867
 7707TIP3    H123066   5.835   6.556   1.904
 7707TIP3    H223067   5.687   6.580   1.883
 7708TIP3   OH223068   1.859   0.341   4.040
 7708TIP3    H123069   1.780   0.393   4.053
 7708TIP3    H223070   1.902   0.342   4.125
 7709TIP3   OH223071   8.262   2.441   3.284
 7709TIP3    H123072   8.324   2.403   3.347
 7709TIP3    H223073   8.305   2.431   3.199
 7710TIP3   OH223074   0.005   5.177   3.244
 7710TIP3    H123075   0.002   5.272   3.255
 7710TIP3    H223076   0.096   5.153   3.263
 7711TIP3   OH223077   5.955   1.887   3.983
 7711TIP3    H123078   6.022   1.933   3.931
 7711TIP3    H223079   6.002   1.855   4.060
 7712TIP3   OH223080   1.307   1.969   4.909
 7712TIP3    H123081   1.324   1.961   4.815
 7712TIP3    H223082   1.314   1.879   4.942
 7713TIP3   OH223083   0.707   3.172   3.336
 7713TIP3    H123084   0.690   3.198   3.426
 7713TIP3    H223085   0.699   3.077   3.336
 7714TIP3   OH223086   2.684   2.995   2.385
 7714TIP3    H123087   2.675   2.906   2.419
 7714TIP3    H223088   2.733   2.986   2.304
 7715TIP3   OH223089   2.615   3.324   3.715
 7715TIP3    H123090   2.706   3.310   3.742
 7715TIP3    H223091   2.571   3.351   3.796
 7716TIP3   OH223092   2.214   4.598   3.042
 7716TIP3    H123093   2.213   4.580   3.136
 7716TIP3    H223094   2.212   4.694   3.036
 7717TIP3   OH223095   3.816   1.303   4.516
 7717TIP3    H123096   3.766   1.221   4.518
 7717TIP3    H223097   3.905   1.276   4.537
 7718TIP3   OH223098   3.043   4.160   5.054
 7718TIP3    H123099   3.090   4.204   4.983
 7718TIP3    H223100   2.957   4.203   5.056
 7719TIP3   OH223101   6.497   4.537   4.980
 7719TIP3    H123102   6.540   4.564   5.062
 7719TIP3    H223103   6.485   4.443   4.990
 7720TIP3   OH223104   7.660   2.748   3.077
 7720TIP3    H123105   7.725   2.702   3.024
 7720TIP3    H223106   7.699   2.755   3.164
 7721TIP3   OH223107   3.959   2.423   6.220
 7721TIP3    H123108   4.038   2.414   6.274
 7721TIP3    H223109   3.919   2.504   6.250
 7722TIP3   OH223110   6.787   5.086   2.316
 7722TIP3    H123111   6.781   5.171   2.273
 7722TIP3    H223112   6.844   5.034   2.258
 7723TIP3   OH223113   6.071   2.017   5.789
 7723TIP3    H123114   6.004   2.085   5.786
 7723TIP3    H223115   6.138   2.045   5.727
 7724TIP3   OH223116   1.507   3.716   1.740
 7724TIP3    H123117   1.476   3.631   1.708
 7724TIP3    H223118   1.602   3.708   1.740
 7725TIP3   OH223119   4.624   1.268   4.436
 7725TIP3    H123120   4.653   1.231   4.519
 7725TIP3    H223121   4.588   1.353   4.459
 7726TIP3   OH223122   0.931   3.248   1.909
 7726TIP3    H123123   0.991   3.224   1.980
 7726TIP3    H223124   0.900   3.336   1.932
 7727TIP3   OH223125   0.196   5.128   5.347
 7727TIP3    H123126   0.101   5.140   5.352
 7727TIP3    H223127   0.215   5.129   5.253
 7728TIP3   OH223128   2.648   3.318   2.199
 7728TIP3    H123129   2.638   3.243   2.141
 7728TIP3    H223130   2.600   3.292   2.278
 7729TIP3   OH223131   4.481   5.968   4.465
 7729TIP3    H123132   4.450   5.957   4.555
 7729TIP3    H223133   4.559   6.022   4.473
 7730TIP3   OH223134   0.383   7.371   6.641
 7730TIP3    H123135   0.463   7.329   6.673
 7730TIP3    H223136   0.408   7.462   6.625
 7731TIP3   OH223137   7.850   5.216   3.856
 7731TIP3    H123138   7.903   5.224   3.935
 7731TIP3    H223139   7.785   5.149   3.877
 7732TIP3   OH223140   3.994   2.489   3.264
 7732TIP3    H123141   4.079   2.534   3.271
 7732TIP3    H223142   4.005   2.409   3.314
 7733TIP3   OH223143   5.637   7.186   2.000
 7733TIP3    H123144   5.566   7.122   2.007
 7733TIP3    H223145   5.592   7.269   1.984
 7734TIP3   OH223146   7.580   4.733   1.707
 7734TIP3    H123147   7.532   4.809   1.673
 7734TIP3    H223148   7.524   4.658   1.686
 7735TIP3   OH223149   6.835   7.360   6.737
 7735TIP3    H123150   6.758   7.306   6.751
 7735TIP3    H223151   6.909   7.306   6.765
 7736TIP3   OH223152   4.545   5.870   5.963
 7736TIP3    H123153   4.498   5.831   5.889
 7736TIP3    H223154   4.552   5.962   5.941
 7737TIP3   OH223155   0.853   0.802   6.520
 7737TIP3    H123156   0.927   0.805   6.580
 7737TIP3    H223157   0.843   0.709   6.499
 7738TIP3   OH223158   1.172   6.628   2.202
 7738TIP3    H123159   1.175   6.716   2.164
 7738TIP3    H223160   1.262   6.596   2.196
 7739TIP3   OH223161   4.355   4.709   0.575
 7739TIP3    H123162   4.311   4.670   0.651
 7739TIP3    H223163   4.398   4.636   0.531
 7740TIP3   OH223164   3.616   2.829   0.804
 7740TIP3    H123165   3.707   2.800   0.817
 7740TIP3    H223166   3.623   2.906   0.748
 7741TIP3   OH223167   7.252   2.270   2.575
 7741TIP3    H123168   7.178   2.311   2.530
 7741TIP3    H223169   7.220   2.183   2.600
 7742TIP3   OH223170   2.298   5.036   4.148
 7742TIP3    H123171   2.344   5.094   4.087
 7742TIP3    H223172   2.238   5.094   4.195
 7743TIP3   OH223173   7.270   6.893   5.163
 7743TIP3    H123174   7.315   6.844   5.232
 7743TIP3    H223175   7.190   6.844   5.146
 7744TIP3   OH223176   5.945   4.240   1.288
 7744TIP3    H123177   5.897   4.320   1.311
 7744TIP3    H223178   5.901   4.207   1.210
 7745TIP3   OH223179   3.629   3.705   4.907
 7745TIP3    H123180   3.724   3.691   4.906
 7745TIP3    H223181   3.618   3.796   4.932
 7746TIP3   OH223182   5.528   0.759   1.040
 7746TIP3    H123183   5.464   0.744   1.110
 7746TIP3    H223184   5.478   0.803   0.971
 7747TIP3   OH223185   0.509   0.432   4.096
 7747TIP3    H123186   0.548   0.499   4.153
 7747TIP3    H223187   0.552   0.351   4.123
 7748TIP3   OH223188   7.577   4.143   4.970
 7748TIP3    H123189   7.654   4.194   4.992
 7748TIP3    H223190   7.539   4.119   5.055
 7749TIP3   OH223191   4.317   3.446   1.555
 7749TIP3    H123192   4.254   3.433   1.484
 7749TIP3    H223193   4.312   3.540   1.574
 7750TIP3   OH223194   7.245   6.580   5.722
 7750TIP3    H123195   7.275   6.595   5.812
 7750TIP3    H223196   7.320   6.537   5.679
 7751TIP3   OH223197   8.010   4.714   2.305
 7751TIP3    H123198   7.972   4.802   2.299
 7751TIP3    H223199   7.938   4.659   2.337
 7752TIP3   OH223200   4.520   1.509   2.471
 7752TIP3    H123201   4.464   1.539   2.399
 7752TIP3    H223202   4.603   1.488   2.430
 7753TIP3   OH223203   6.404   0.976   2.230
 7753TIP3    H123204   6.480   0.945   2.181
 7753TIP3    H223205   6.434   0.979   2.321
 7754TIP3   OH223206   4.497   3.146   5.483
 7754TIP3    H123207   4.460   3.113   5.401
 7754TIP3    H223208   4.499   3.241   5.471
 7755TIP3   OH223209   2.491   2.539   2.055
 7755TIP3    H123210   2.579   2.503   2.042
 7755TIP3    H223211   2.506   2.619   2.105
 7756TIP3   OH223212   7.430   3.669   6.089
 7756TIP3    H123213   7.423   3.743   6.030
 7756TIP3    H223214   7.456   3.707   6.173
 7757TIP3   OH223215   7.039   1.865   4.753
 7757TIP3    H123216   6.966   1.900   4.805
 7757TIP3    H223217   7.117   1.893   4.801
 7758TIP3   OH223218   6.613   1.024   4.549
 7758TIP3    H123219   6.669   1.012   4.625
 7758TIP3    H223220   6.618   0.941   4.502
 7759TIP3   OH223221   2.558   7.214   1.288
 7759TIP3    H123222   2.465   7.236   1.287
 7759TIP3    H223223   2.600   7.286   1.240
 7760TIP3   OH223224   0.207   5.968   0.879
 7760TIP3    H123225   0.135   5.911   0.854
 7760TIP3    H223226   0.253   5.919   0.948
 7761TIP3   OH223227   1.227   5.235   4.561
 7761TIP3    H123228   1.303   5.287   4.538
 7761TIP3    H223229   1.262   5.158   4.605
 7762TIP3   OH223230   6.543   1.263   5.795
 7762TIP3    H123231   6.549   1.333   5.860
 7762TIP3    H223232   6.482   1.200   5.833
 7763TIP3   OH223233   5.514   1.464   1.985
 7763TIP3    H123234   5.539   1.402   2.054
 7763TIP3    H223235   5.552   1.428   1.905
 7764TIP3   OH223236   2.234   5.789   0.187
 7764TIP3    H123237   2.212   5.777   0.279
 7764TIP3    H223238   2.322   5.754   0.178
 7765TIP3   OH223239   2.114   1.274   1.909
 7765TIP3    H123240   2.041   1.268   1.848
 7765TIP3    H223241   2.187   1.308   1.857
 7766TIP3   OH223242   7.201   3.409   5.906
 7766TIP3    H123243   7.174   3.454   5.985
 7766TIP3    H223244   7.132   3.343   5.891
 7767TIP3   OH223245   2.231   0.393   5.942
 7767TIP3    H123246   2.273   0.444   5.873
 7767TIP3    H223247   2.149   0.362   5.902
 7768TIP3   OH223248   1.176   7.561   2.873
 7768TIP3    H123249   1.161   7.509   2.952
 7768TIP3    H223250   1.191   7.497   2.805
 7769TIP3   OH223251   5.595   6.682   2.853
 7769TIP3    H123252   5.654   6.714   2.784
 7769TIP3    H223253   5.528   6.750   2.860
 7770TIP3   OH223254   7.002   1.803   6.490
 7770TIP3    H123255   6.963   1.867   6.550
 7770TIP3    H223256   6.973   1.718   6.524
 7771TIP3   OH223257   5.388   5.022   4.055
 7771TIP3    H123258   5.324   4.968   4.102
 7771TIP3    H223259   5.337   5.097   4.025
 7772TIP3   OH223260   2.422   6.381   3.494
 7772TIP3    H123261   2.361   6.419   3.558
 7772TIP3    H223262   2.456   6.456   3.445
 7773TIP3   OH223263   4.555   4.159   5.512
 7773TIP3    H123264   4.524   4.178   5.424
 7773TIP3    H223265   4.497   4.089   5.543
 7774TIP3   OH223266   3.858   0.128   0.421
 7774TIP3    H123267   3.952   0.118   0.413
 7774TIP3    H223268   3.821   0.080   0.348
 7775TIP3   OH223269   2.880   2.332   1.759
 7775TIP3    H123270   2.879   2.237   1.757
 7775TIP3    H223271   2.840   2.355   1.844
 7776TIP3   OH223272   0.154   3.453   2.000
 7776TIP3    H123273   0.143   3.380   1.938
 7776TIP3    H223274   0.064   3.480   2.020
 7777TIP3   OH223275   1.758   7.064   4.959
 7777TIP3    H123276   1.783   7.154   4.942
 7777TIP3    H223277   1.759   7.056   5.055
 7778TIP3   OH223278   4.405   3.088   0.921
 7778TIP3    H123279   4.429   3.054   0.834
 7778TIP3    H223280   4.414   3.183   0.913
 7779TIP3   OH223281   4.320   4.601   2.950
 7779TIP3    H123282   4.243   4.578   3.001
 7779TIP3    H223283   4.343   4.689   2.979
 7780TIP3   OH223284   4.253   4.173   2.154
 7780TIP3    H123285   4.258   4.230   2.231
 7780TIP3    H223286   4.320   4.106   2.169
 7781TIP3   OH223287   6.563   0.815   4.383
 7781TIP3    H123288   6.544   0.788   4.293
 7781TIP3    H223289   6.484   0.792   4.432
 7782TIP3   OH223290   7.769   4.992   2.567
 7782TIP3    H123291   7.760   4.974   2.473
 7782TIP3    H223292   7.782   4.906   2.607
 7783TIP3   OH223293   5.459   3.938   3.218
 7783TIP3    H123294   5.426   3.927   3.307
 7783TIP3    H223295   5.545   3.980   3.229
 7784TIP3   OH223296   4.553   6.161   4.763
 7784TIP3    H123297   4.472   6.148   4.812
 7784TIP3    H223298   4.580   6.250   4.785
 7785TIP3   OH223299   7.019   2.691   1.654
 7785TIP3    H123300   7.108   2.686   1.687
 7785TIP3    H223301   6.998   2.601   1.630
 7786TIP3   OH223302   7.994   0.064   5.072
 7786TIP3    H123303   8.070   0.038   5.019
 7786TIP3    H223304   7.939   0.115   5.012
 7787TIP3   OH223305   3.488   4.429   5.557
 7787TIP3    H123306   3.420   4.459   5.496
 7787TIP3    H223307   3.465   4.470   5.641
 7788TIP3   OH223308   7.535   1.410   1.669
 7788TIP3    H123309   7.452   1.406   1.622
 7788TIP3    H223310   7.601   1.390   1.603
 7789TIP3   OH223311   0.870   7.525   0.378
 7789TIP3    H123312   0.860   7.606   0.327
 7789TIP3    H223313   0.795   7.472   0.353
 7790TIP3   OH223314   1.928   2.587   0.755
 7790TIP3    H123315   2.014   2.603   0.795
 7790TIP3    H223316   1.885   2.528   0.816
 7791TIP3   OH223317   3.262   5.672   2.930
 7791TIP3    H123318   3.245   5.701   3.019
 7791TIP3    H223319   3.229   5.743   2.875
 7792TIP3   OH223320   1.786   1.374   6.015
 7792TIP3    H123321   1.745   1.458   5.996
 7792TIP3    H223322   1.757   1.316   5.944
 7793TIP3   OH223323   3.994   6.382   0.763
 7793TIP3    H123324   3.943   6.428   0.829
 7793TIP3    H223325   3.950   6.402   0.681
 7794TIP3   OH223326   2.997   6.589   2.697
 7794TIP3    H123327   2.925   6.528   2.687
 7794TIP3    H223328   2.955   6.674   2.708
 7795TIP3   OH223329   3.528   7.763   1.617
 7795TIP3    H123330   3.535   7.840   1.674
 7795TIP3    H223331   3.608   7.764   1.565
 7796TIP3   OH223332   4.966   3.117   0.087
 7796TIP3    H123333   4.981   3.209   0.064
 7796TIP3    H223334   4.985   3.070   0.006
 7797TIP3   OH223335   0.028   6.462   4.108
 7797TIP3    H123336   0.093   6.531   4.103
 7797TIP3    H223337  -0.006   6.453   4.018
 7798TIP3   OH223338   3.556   5.883   1.567
 7798TIP3    H123339   3.509   5.887   1.483
 7798TIP3    H223340   3.577   5.790   1.577
 7799TIP3   OH223341   7.654   1.161   3.200
 7799TIP3    H123342   7.584   1.166   3.265
 7799TIP3    H223343   7.624   1.095   3.137
 7800TIP3   OH223344   1.964   6.148   0.032
 7800TIP3    H123345   2.011   6.118  -0.046
 7800TIP3    H223346   1.952   6.069   0.084
 7801TIP3   OH223347   4.746   7.833   3.306
 7801TIP3    H123348   4.732   7.762   3.369
 7801TIP3    H223349   4.763   7.788   3.223
 7802TIP3   OH223350   3.912   3.447   0.649
 7802TIP3    H123351   3.985   3.482   0.699
 7802TIP3    H223352   3.871   3.384   0.708
 7803TIP3   OH223353   3.938   5.653   2.689
 7803TIP3    H123354   3.977   5.728   2.645
 7803TIP3    H223355   3.845   5.658   2.667
 7804TIP3   OH223356   0.649   7.136   3.064
 7804TIP3    H123357   0.568   7.135   3.013
 7804TIP3    H223358   0.626   7.180   3.146
 7805TIP3   OH223359   4.289   7.124   4.256
 7805TIP3    H123360   4.313   7.204   4.209
 7805TIP3    H223361   4.276   7.152   4.346
 7806TIP3   OH223362   6.396   7.037   4.414
 7806TIP3    H123363   6.339   6.988   4.355
 7806TIP3    H223364   6.427   7.111   4.362
 7807TIP3   OH223365   4.076   7.017   1.368
 7807TIP3    H123366   4.066   6.961   1.291
 7807TIP3    H223367   3.987   7.041   1.392
 7808TIP3   OH223368   5.838   1.047   4.371
 7808TIP3    H123369   5.748   1.021   4.390
 7808TIP3    H223370   5.842   1.139   4.400
 7809TIP3   OH223371   6.645   5.765   0.799
 7809TIP3    H123372   6.725   5.794   0.843
 7809TIP3    H223373   6.646   5.670   0.806
 7810TIP3   OH223374   1.187   3.419   5.016
 7810TIP3    H123375   1.227   3.342   4.976
 7810TIP3    H223376   1.122   3.384   5.076
 7811TIP3   OH223377   8.277   3.646   6.225
 7811TIP3    H123378   8.355   3.667   6.276
 7811TIP3    H223379   8.292   3.558   6.192
 7812TIP3   OH223380   6.046   2.452   3.678
 7812TIP3    H123381   6.098   2.531   3.691
 7812TIP3    H223382   6.099   2.398   3.619
 7813TIP3   OH223383   4.281   4.567   2.503
 7813TIP3    H123384   4.297   4.556   2.410
 7813TIP3    H223385   4.366   4.550   2.544
 7814TIP3   OH223386   4.175   4.664   1.888
 7814TIP3    H123387   4.189   4.650   1.982
 7814TIP3    H223388   4.233   4.601   1.845
 7815TIP3   OH223389   6.905   7.597   1.025
 7815TIP3    H123390   6.955   7.522   0.991
 7815TIP3    H223391   6.919   7.594   1.119
 7816TIP3   OH223392   4.408   1.911   2.801
 7816TIP3    H123393   4.425   1.824   2.766
 7816TIP3    H223394   4.328   1.940   2.757
 7817TIP3   OH223395   6.478   0.500   1.721
 7817TIP3    H123396   6.466   0.472   1.812
 7817TIP3    H223397   6.487   0.596   1.727
 7818TIP3   OH223398   1.252   1.007   1.481
 7818TIP3    H123399   1.296   0.933   1.438
 7818TIP3    H223400   1.159   0.984   1.479
 7819TIP3   OH223401   5.651   7.154   5.738
 7819TIP3    H123402   5.698   7.177   5.658
 7819TIP3    H223403   5.712   7.174   5.809
 7820TIP3   OH223404   1.724   5.157   5.283
 7820TIP3    H123405   1.803   5.166   5.336
 7820TIP3    H223406   1.741   5.081   5.228
 7821TIP3   OH223407   1.104   1.448   3.903
 7821TIP3    H123408   1.064   1.374   3.948
 7821TIP3    H223409   1.046   1.522   3.920
 7822TIP3   OH223410   5.650   2.193   0.373
 7822TIP3    H123411   5.677   2.101   0.382
 7822TIP3    H223412   5.665   2.231   0.460
 7823TIP3   OH223413   1.041   2.250   2.174
 7823TIP3    H123414   1.015   2.270   2.264
 7823TIP3    H223415   1.013   2.327   2.123
 7824TIP3   OH223416   3.430   6.774   3.067
 7824TIP3    H123417   3.350   6.820   3.092
 7824TIP3    H223418   3.408   6.682   3.076
 7825TIP3   OH223419   6.013   6.754   5.979
 7825TIP3    H123420   5.958   6.731   5.904
 7825TIP3    H223421   6.051   6.671   6.007
 7826TIP3   OH223422   3.505   2.633   2.281
 7826TIP3    H123423   3.555   2.557   2.253
 7826TIP3    H223424   3.428   2.597   2.325
 7827TIP3   OH223425   7.282   5.134   3.337
 7827TIP3    H123426   7.286   5.038   3.334
 7827TIP3    H223427   7.275   5.154   3.430
 7828TIP3   OH223428   7.104   5.629   0.216
 7828TIP3    H123429   7.168   5.584   0.161
 7828TIP3    H223430   7.069   5.698   0.160
 7829TIP3   OH223431   6.068   1.972   3.541
 7829TIP3    H123432   6.019   2.044   3.500
 7829TIP3    H223433   6.013   1.895   3.525
 7830TIP3   OH223434   8.004   3.060   6.720
 7830TIP3    H123435   8.057   3.130   6.683
 7830TIP3    H223436   8.050   2.980   6.695
 7831TIP3   OH223437   2.820   1.475   6.637
 7831TIP3    H123438   2.755   1.409   6.614
 7831TIP3    H223439   2.887   1.467   6.568
 7832TIP3   OH223440   3.266   4.080   6.306
 7832TIP3    H123441   3.212   4.094   6.383
 7832TIP3    H223442   3.325   4.008   6.331
 7833TIP3   OH223443   6.654   5.500   5.327
 7833TIP3    H123444   6.566   5.498   5.364
 7833TIP3    H223445   6.708   5.453   5.390
 7834TIP3   OH223446   1.961   4.376   0.261
 7834TIP3    H123447   1.962   4.333   0.346
 7834TIP3    H223448   2.053   4.377   0.233
 7835TIP3   OH223449   5.147   3.247   2.172
 7835TIP3    H123450   5.197   3.187   2.117
 7835TIP3    H223451   5.072   3.195   2.201
 7836TIP3   OH223452   2.616   4.254   4.565
 7836TIP3    H123453   2.694   4.270   4.512
 7836TIP3    H223454   2.573   4.340   4.570
 7837TIP3   OH223455   3.653   3.794   3.498
 7837TIP3    H123456   3.639   3.870   3.442
 7837TIP3    H223457   3.567   3.775   3.536
 7838TIP3   OH223458   0.587   0.081   5.141
 7838TIP3    H123459   0.510   0.092   5.085
 7838TIP3    H223460   0.658   0.060   5.080
 7839TIP3   OH223461   6.394   5.491   4.634
 7839TIP3    H123462   6.402   5.399   4.609
 7839TIP3    H223463   6.471   5.533   4.596
 7840TIP3   OH223464   1.582   4.102   5.184
 7840TIP3    H123465   1.496   4.133   5.157
 7840TIP3    H223466   1.563   4.036   5.251
 7841TIP3   OH223467   1.264   0.447   4.349
 7841TIP3    H123468   1.297   0.369   4.394
 7841TIP3    H223469   1.249   0.417   4.259
 7842TIP3   OH223470   7.316   0.260   6.011
 7842TIP3    H123471   7.256   0.250   6.085
 7842TIP3    H223472   7.262   0.297   5.941
 7843TIP3   OH223473   6.753   4.144   1.012
 7843TIP3    H123474   6.695   4.220   1.004
 7843TIP3    H223475   6.762   4.131   1.107
 7844TIP3   OH223476   5.195   5.393   5.531
 7844TIP3    H123477   5.157   5.465   5.480
 7844TIP3    H223478   5.261   5.354   5.474
 7845TIP3   OH223479   3.424   7.818   2.241
 7845TIP3    H123480   3.476   7.765   2.302
 7845TIP3    H223481   3.350   7.762   2.217
 7846TIP3   OH223482   2.944   6.214   4.525
 7846TIP3    H123483   3.011   6.190   4.461
 7846TIP3    H223484   2.956   6.152   4.597
 7847TIP3   OH223485   2.206   2.765   4.957
 7847TIP3    H123486   2.226   2.827   4.888
 7847TIP3    H223487   2.223   2.679   4.918
 7848TIP3   OH223488   0.304   7.474   0.708
 7848TIP3    H123489   0.348   7.550   0.670
 7848TIP3    H223490   0.291   7.498   0.800
 7849TIP3   OH223491   2.596   2.736   3.381
 7849TIP3    H123492   2.605   2.813   3.325
 7849TIP3    H223493   2.670   2.680   3.357
 7850TIP3   OH223494   5.251   5.272   2.477
 7850TIP3    H123495   5.280   5.239   2.392
 7850TIP3    H223496   5.165   5.231   2.490
 7851TIP3   OH223497   3.394   1.922   1.222
 7851TIP3    H123498   3.399   1.835   1.263
 7851TIP3    H223499   3.317   1.918   1.166
 7852TIP3   OH223500   3.216   5.927   5.604
 7852TIP3    H123501   3.301   5.924   5.646
 7852TIP3    H223502   3.221   5.862   5.533
 7853TIP3   OH223503   8.312   1.281   2.657
 7853TIP3    H123504   8.248   1.253   2.592
 7853TIP3    H223505   8.269   1.266   2.741
 7854TIP3   OH223506   8.283   1.137   2.222
 7854TIP3    H123507   8.193   1.164   2.203
 7854TIP3    H223508   8.304   1.181   2.305
 7855TIP3   OH223509   0.255   0.685   5.096
 7855TIP3    H123510   0.167   0.687   5.059
 7855TIP3    H223511   0.281   0.593   5.089
 7856TIP3   OH223512   1.194   3.521   4.603
 7856TIP3    H123513   1.149   3.543   4.684
 7856TIP3    H223514   1.248   3.598   4.584
 7857TIP3   OH223515   3.349   3.079   2.470
 7857TIP3    H123516   3.418   3.028   2.511
 7857TIP3    H223517   3.298   3.114   2.543
 7858TIP3   OH223518   3.041   5.874   4.550
 7858TIP3    H123519   3.004   5.943   4.496
 7858TIP3    H223520   3.045   5.797   4.492
 7859TIP3   OH223521   4.028   5.261   5.082
 7859TIP3    H123522   3.940   5.282   5.112
 7859TIP3    H223523   4.083   5.266   5.160
 7860TIP3   OH223524   0.652   0.608   5.057
 7860TIP3    H123525   0.677   0.700   5.064
 7860TIP3    H223526   0.607   0.589   5.140
 7861TIP3   OH223527   3.987   5.970   6.144
 7861TIP3    H123528   4.071   5.926   6.154
 7861TIP3    H223529   4.009   6.062   6.129
 7862TIP3   OH223530   5.210   1.560   1.209
 7862TIP3    H123531   5.282   1.608   1.169
 7862TIP3    H223532   5.141   1.561   1.143
 7863TIP3   OH223533   0.608   2.676   6.669
 7863TIP3    H123534   0.677   2.739   6.648
 7863TIP3    H223535   0.654   2.606   6.715
 7864TIP3   OH223536   2.184   2.108   2.508
 7864TIP3    H123537   2.243   2.069   2.443
 7864TIP3    H223538   2.223   2.193   2.527
 7865TIP3   OH223539   7.801   1.597   1.792
 7865TIP3    H123540   7.842   1.549   1.719
 7865TIP3    H223541   7.721   1.547   1.810
 7866TIP3   OH223542   8.130   2.292   1.963
 7866TIP3    H123543   8.114   2.199   1.948
 7866TIP3    H223544   8.193   2.317   1.895
 7867TIP3   OH223545   5.901   2.256   5.750
 7867TIP3    H123546   5.813   2.277   5.781
 7867TIP3    H223547   5.924   2.331   5.694
 7868TIP3   OH223548   4.927   4.481   6.581
 7868TIP3    H123549   4.984   4.513   6.651
 7868TIP3    H223550   4.885   4.559   6.546
 7869TIP3   OH223551   5.665   2.255   0.105
 7869TIP3    H123552   5.641   2.240   0.197
 7869TIP3    H223553   5.749   2.209   0.095
 7870TIP3   OH223554   4.865   3.593   1.021
 7870TIP3    H123555   4.911   3.576   1.104
 7870TIP3    H223556   4.890   3.682   0.997
 7871TIP3   OH223557   0.636   3.807   5.100
 7871TIP3    H123558   0.543   3.785   5.105
 7871TIP3    H223559   0.644   3.863   5.023
 7872TIP3   OH223560   2.980   1.216   0.772
 7872TIP3    H123561   2.946   1.135   0.809
 7872TIP3    H223562   3.073   1.200   0.760
 7873TIP3   OH223563   4.011   6.647   5.192
 7873TIP3    H123564   4.006   6.712   5.261
 7873TIP3    H223565   3.946   6.674   5.127
 7874TIP3   OH223566   3.431   1.006   1.037
 7874TIP3    H123567   3.500   1.022   1.101
 7874TIP3    H223568   3.389   0.925   1.068
 7875TIP3   OH223569   3.606   4.966   1.946
 7875TIP3    H123570   3.676   4.907   1.973
 7875TIP3    H223571   3.598   5.028   2.018
 7876TIP3   OH223572   2.076   0.182   4.886
 7876TIP3    H123573   2.037   0.098   4.913
 7876TIP3    H223574   2.112   0.165   4.799
 7877TIP3   OH223575   1.942   0.495   4.272
 7877TIP3    H123576   2.017   0.554   4.279
 7877TIP3    H223577   1.871   0.551   4.240
 7878TIP3   OH223578   0.110   2.147   1.143
 7878TIP3    H123579   0.072   2.064   1.174
 7878TIP3    H223580   0.202   2.141   1.169
 7879TIP3   OH223581   6.875   0.748   2.919
 7879TIP3    H123582   6.860   0.683   2.987
 7879TIP3    H223583   6.794   0.799   2.916
 7880TIP3   OH223584   4.930   6.578   5.527
 7880TIP3    H123585   4.977   6.659   5.549
 7880TIP3    H223586   4.840   6.594   5.555
 7881TIP3   OH223587   5.564   5.693   3.298
 7881TIP3    H123588   5.568   5.656   3.386
 7881TIP3    H223589   5.655   5.715   3.277
 7882TIP3   OH223590   1.238   0.932   6.572
 7882TIP3    H123591   1.260   0.873   6.501
 7882TIP3    H223592   1.164   0.889   6.616
 7883TIP3   OH223593   0.791   2.257   5.201
 7883TIP3    H123594   0.781   2.286   5.292
 7883TIP3    H223595   0.705   2.272   5.161
 7884TIP3   OH223596   2.352   3.182   3.860
 7884TIP3    H123597   2.387   3.270   3.877
 7884TIP3    H223598   2.279   3.174   3.922
 7885TIP3   OH223599   0.137   3.607   2.318
 7885TIP3    H123600   0.170   3.539   2.377
 7885TIP3    H223601   0.215   3.649   2.283
 7886TIP3   OH223602   7.667   0.432   3.676
 7886TIP3    H123603   7.742   0.472   3.631
 7886TIP3    H223604   7.673   0.339   3.653
 7887TIP3   OH223605   0.254   0.649   4.256
 7887TIP3    H123606   0.337   0.694   4.240
 7887TIP3    H223607   0.279   0.559   4.277
 7888TIP3   OH223608   5.479   6.841   6.090
 7888TIP3    H123609   5.531   6.899   6.034
 7888TIP3    H223610   5.473   6.887   6.174
 7889TIP3   OH223611   6.051   4.263   1.840
 7889TIP3    H123612   6.113   4.276   1.768
 7889TIP3    H223613   5.980   4.324   1.822
 7890TIP3   OH223614   7.904   4.318   1.247
 7890TIP3    H123615   7.974   4.375   1.280
 7890TIP3    H223616   7.929   4.230   1.276
 7891TIP3   OH223617   1.129   5.041   0.318
 7891TIP3    H123618   1.163   4.963   0.275
 7891TIP3    H223619   1.056   5.009   0.371
 7892TIP3   OH223620   5.420   0.389   2.193
 7892TIP3    H123621   5.478   0.371   2.119
 7892TIP3    H223622   5.396   0.481   2.183
 7893TIP3   OH223623   6.635   2.473   6.716
 7893TIP3    H123624   6.660   2.470   6.624
 7893TIP3    H223625   6.718   2.460   6.764
 7894TIP3   OH223626   0.073   0.366   5.926
 7894TIP3    H123627   0.166   0.359   5.905
 7894TIP3    H223628   0.067   0.346   6.019
 7895TIP3   OH223629   3.764   2.068   5.196
 7895TIP3    H123630   3.858   2.081   5.184
 7895TIP3    H223631   3.756   1.981   5.234
 7896TIP3   OH223632   0.865   3.147   4.321
 7896TIP3    H123633   0.952   3.126   4.286
 7896TIP3    H223634   0.879   3.157   4.415
 7897TIP3   OH223635   6.145   3.875   6.388
 7897TIP3    H123636   6.166   3.967   6.375
 7897TIP3    H223637   6.221   3.828   6.355
 7898TIP3   OH223638   4.473   2.016   4.471
 7898TIP3    H123639   4.407   2.059   4.415
 7898TIP3    H223640   4.557   2.039   4.431
 7899TIP3   OH223641   2.490   1.890   5.757
 7899TIP3    H123642   2.531   1.826   5.698
 7899TIP3    H223643   2.473   1.840   5.837
 7900TIP3   OH223644   7.230   5.616   1.766
 7900TIP3    H123645   7.135   5.613   1.773
 7900TIP3    H223646   7.257   5.524   1.771
 7901TIP3   OH223647   1.667   0.202   1.644
 7901TIP3    H123648   1.687   0.289   1.681
 7901TIP3    H223649   1.584   0.178   1.685
 7902TIP3   OH223650   3.094   1.434   1.029
 7902TIP3    H123651   3.023   1.414   1.089
 7902TIP3    H223652   3.150   1.356   1.031
 7903TIP3   OH223653   4.312   2.392   4.406
 7903TIP3    H123654   4.312   2.355   4.318
 7903TIP3    H223655   4.402   2.419   4.422
 7904TIP3   OH223656   5.975   6.407   2.728
 7904TIP3    H123657   6.053   6.441   2.772
 7904TIP3    H223658   5.996   6.316   2.710
 7905TIP3   OH223659   6.284   2.999   0.176
 7905TIP3    H123660   6.282   3.083   0.222
 7905TIP3    H223661   6.376   2.971   0.180
 7906TIP3   OH223662   0.185   5.770   6.167
 7906TIP3    H123663   0.147   5.834   6.107
 7906TIP3    H223664   0.241   5.715   6.113
 7907TIP3   OH223665   5.205   5.659   2.893
 7907TIP3    H123666   5.152   5.602   2.949
 7907TIP3    H223667   5.283   5.677   2.944
 7908TIP3   OH223668   1.194   7.086   2.957
 7908TIP3    H123669   1.172   6.994   2.971
 7908TIP3    H223670   1.254   7.108   3.028
 7909TIP3   OH223671   5.045   5.073   2.585
 7909TIP3    H123672   5.110   5.005   2.568
 7909TIP3    H223673   4.966   5.043   2.539
 7910TIP3   OH223674   0.307   1.856   1.302
 7910TIP3    H123675   0.279   1.939   1.341
 7910TIP3    H223676   0.283   1.863   1.210
 7911TIP3   OH223677   3.333   4.102   0.590
 7911TIP3    H123678   3.241   4.097   0.618
 7911TIP3    H223679   3.382   4.120   0.670
 7912TIP3   OH223680   3.336   7.130   6.116
 7912TIP3    H123681   3.288   7.052   6.144
 7912TIP3    H223682   3.419   7.096   6.083
 7913TIP3   OH223683   4.398   4.715   3.680
 7913TIP3    H123684   4.485   4.694   3.647
 7913TIP3    H223685   4.363   4.777   3.617
 7914TIP3   OH223686   6.754   0.780   2.626
 7914TIP3    H123687   6.704   0.796   2.706
 7914TIP3    H223688   6.833   0.833   2.636
 7915TIP3   OH223689   7.672   4.330   6.232
 7915TIP3    H123690   7.656   4.325   6.327
 7915TIP3    H223691   7.593   4.294   6.193
 7916TIP3   OH223692   5.385   3.992   2.965
 7916TIP3    H123693   5.405   3.959   3.052
 7916TIP3    H223694   5.302   4.040   2.976
 7917TIP3   OH223695   4.265   5.951   1.557
 7917TIP3    H123696   4.236   5.883   1.618
 7917TIP3    H223697   4.348   5.982   1.593
 7918TIP3   OH223698   1.752   3.990   2.304
 7918TIP3    H123699   1.742   4.077   2.344
 7918TIP3    H223700   1.807   3.942   2.365
 7919TIP3   OH223701   3.049   2.513   4.865
 7919TIP3    H123702   3.028   2.520   4.772
 7919TIP3    H223703   3.041   2.602   4.898
 7920TIP3   OH223704   7.374   5.947   1.510
 7920TIP3    H123705   7.320   5.898   1.572
 7920TIP3    H223706   7.358   6.039   1.530
 7921TIP3   OH223707   1.163   4.727   1.412
 7921TIP3    H123708   1.214   4.647   1.396
 7921TIP3    H223709   1.229   4.792   1.436
 7922TIP3   OH223710   5.863   1.918   2.651
 7922TIP3    H123711   5.863   1.861   2.574
 7922TIP3    H223712   5.854   1.859   2.725
 7923TIP3   OH223713   6.443   0.379   3.212
 7923TIP3    H123714   6.364   0.330   3.236
 7923TIP3    H223715   6.463   0.350   3.123
 7924TIP3   OH223716   1.307   6.919   5.675
 7924TIP3    H123717   1.213   6.922   5.657
 7924TIP3    H223718   1.324   6.998   5.727
 7925TIP3   OH223719   5.611   7.715   2.782
 7925TIP3    H123720   5.671   7.685   2.851
 7925TIP3    H223721   5.616   7.648   2.715
 7926TIP3   OH223722   7.307   2.597   4.632
 7926TIP3    H123723   7.318   2.601   4.727
 7926TIP3    H223724   7.361   2.670   4.599
 7927TIP3   OH223725   2.660   5.049   2.299
 7927TIP3    H123726   2.662   4.954   2.291
 7927TIP3    H223727   2.580   5.068   2.346
 7928TIP3   OH223728   5.475   3.467   6.078
 7928TIP3    H123729   5.538   3.518   6.130
 7928TIP3    H223730   5.415   3.532   6.043
 7929TIP3   OH223731   3.019   5.961   4.908
 7929TIP3    H123732   2.933   5.929   4.881
 7929TIP3    H223733   3.011   6.056   4.901
 7930TIP3   OH223734   3.381   4.102   1.597
 7930TIP3    H123735   3.469   4.132   1.618
 7930TIP3    H223736   3.328   4.129   1.672
 7931TIP3   OH223737   5.471   3.690   0.076
 7931TIP3    H123738   5.480   3.783   0.095
 7931TIP3    H223739   5.456   3.649   0.161
 7932TIP3   OH223740   2.761   2.002   0.267
 7932TIP3    H123741   2.791   1.934   0.206
 7932TIP3    H223742   2.841   2.038   0.305
 7933TIP3   OH223743   5.897   6.387   3.292
 7933TIP3    H123744   5.823   6.387   3.231
 7933TIP3    H223745   5.888   6.304   3.340
 7934TIP3   OH223746   1.071   7.636   1.744
 7934TIP3    H123747   1.082   7.659   1.652
 7934TIP3    H223748   0.979   7.613   1.753
 7935TIP3   OH223749   2.570   4.715   4.978
 7935TIP3    H123750   2.642   4.692   4.920
 7935TIP3    H223751   2.542   4.631   5.016
 7936TIP3   OH223752   2.791   0.184   0.480
 7936TIP3    H123753   2.819   0.095   0.502
 7936TIP3    H223754   2.840   0.240   0.539
 7937TIP3   OH223755   7.495   6.172   5.888
 7937TIP3    H123756   7.410   6.215   5.884
 7937TIP3    H223757   7.550   6.233   5.937
 7938TIP3   OH223758   7.194   7.235   6.224
 7938TIP3    H123759   7.223   7.259   6.136
 7938TIP3    H223760   7.270   7.193   6.264
 7939TIP3   OH223761   4.484   6.569   3.993
 7939TIP3    H123762   4.459   6.542   4.081
 7939TIP3    H223763   4.538   6.497   3.960
 7940TIP3   OH223764   7.072   5.006   0.703
 7940TIP3    H123765   7.127   4.929   0.720
 7940TIP3    H223766   6.983   4.971   0.698
 7941TIP3   OH223767   1.593   6.035   4.454
 7941TIP3    H123768   1.579   6.130   4.458
 7941TIP3    H223769   1.539   6.007   4.380
 7942TIP3   OH223770   1.201   2.016   2.229
 7942TIP3    H123771   1.285   2.064   2.231
 7942TIP3    H223772   1.139   2.079   2.193
 7943TIP3   OH223773   6.627   6.433   3.745
 7943TIP3    H123774   6.598   6.381   3.820
 7943TIP3    H223775   6.611   6.524   3.772
 7944TIP3   OH223776   5.864   3.965   2.571
 7944TIP3    H123777   5.778   4.002   2.591
 7944TIP3    H223778   5.872   3.890   2.630
 7945TIP3   OH223779   5.929   5.540   0.241
 7945TIP3    H123780   5.995   5.511   0.304
 7945TIP3    H223781   5.896   5.623   0.276
 7946TIP3   OH223782   5.440   6.008   4.779
 7946TIP3    H123783   5.426   6.058   4.699
 7946TIP3    H223784   5.459   6.075   4.845
 7947TIP3   OH223785   0.571   6.602   4.747
 7947TIP3    H123786   0.486   6.572   4.781
 7947TIP3    H223787   0.551   6.684   4.701
 7948TIP3   OH223788   1.414   4.240  -0.002
 7948TIP3    H123789   1.450   4.157   0.030
 7948TIP3    H223790   1.491   4.293  -0.022
 7949TIP3   OH223791   4.174   0.494   5.602
 7949TIP3    H123792   4.140   0.441   5.674
 7949TIP3    H223793   4.265   0.511   5.625
 7950TIP3   OH223794   2.945   4.145   3.514
 7950TIP3    H123795   2.987   4.061   3.495
 7950TIP3    H223796   2.989   4.177   3.593
 7951TIP3   OH223797   8.189   4.077   4.438
 7951TIP3    H123798   8.158   3.990   4.415
 7951TIP3    H223799   8.111   4.125   4.464
 7952TIP3   OH223800   5.834   3.317   0.682
 7952TIP3    H123801   5.885   3.315   0.764
 7952TIP3    H223802   5.876   3.385   0.630
 7953TIP3   OH223803   7.160   5.333   1.602
 7953TIP3    H123804   7.067   5.311   1.595
 7953TIP3    H223805   7.179   5.382   1.522
 7954TIP3   OH223806   4.631   2.413   5.616
 7954TIP3    H123807   4.590   2.433   5.532
 7954TIP3    H223808   4.718   2.453   5.610
 7955TIP3   OH223809   2.522   6.795   1.750
 7955TIP3    H123810   2.542   6.828   1.662
 7955TIP3    H223811   2.599   6.744   1.774
 7956TIP3   OH223812   4.051   4.024   2.722
 7956TIP3    H123813   4.012   3.989   2.642
 7956TIP3    H223814   4.072   3.946   2.775
 7957TIP3   OH223815   1.822   2.814   6.119
 7957TIP3    H123816   1.764   2.743   6.092
 7957TIP3    H223817   1.823   2.810   6.214
 7958TIP3   OH223818   6.918   1.497   0.360
 7958TIP3    H123819   7.009   1.479   0.336
 7958TIP3    H223820   6.921   1.583   0.401
 7959TIP3   OH223821   6.783   1.967   4.081
 7959TIP3    H123822   6.751   2.013   4.004
 7959TIP3    H223823   6.735   2.007   4.154
 7960TIP3   OH223824   1.220   6.031   0.946
 7960TIP3    H123825   1.198   6.103   0.888
 7960TIP3    H223826   1.140   6.016   0.997
 7961TIP3   OH223827   2.301   5.495   4.833
 7961TIP3    H123828   2.396   5.484   4.824
 7961TIP3    H223829   2.265   5.411   4.806
 7962TIP3   OH223830   7.865   5.612   2.128
 7962TIP3    H123831   7.861   5.708   2.135
 7962TIP3    H223832   7.901   5.584   2.212
 7963TIP3   OH223833   7.802   4.772   1.869
 7963TIP3    H123834   7.730   4.757   1.807
 7963TIP3    H223835   7.867   4.706   1.845
 7964TIP3   OH223836   3.712   0.198   4.860
 7964TIP3    H123837   3.808   0.196   4.857
 7964TIP3    H223838   3.685   0.129   4.799
 7965TIP3   OH223839   5.459   3.861   4.405
 7965TIP3    H123840   5.438   3.927   4.471
 7965TIP3    H223841   5.499   3.789   4.455
 7966TIP3   OH223842   6.968   4.768   0.539
 7966TIP3    H123843   6.932   4.688   0.577
 7966TIP3    H223844   6.892   4.816   0.507
 7967TIP3   OH223845   8.230   3.474   2.912
 7967TIP3    H123846   8.179   3.394   2.920
 7967TIP3    H223847   8.164   3.544   2.910
 7968TIP3   OH223848   3.232   2.736   4.127
 7968TIP3    H123849   3.247   2.695   4.041
 7968TIP3    H223850   3.316   2.776   4.149
 7969TIP3   OH223851   4.692   4.966   6.063
 7969TIP3    H123852   4.641   4.960   6.144
 7969TIP3    H223853   4.649   5.035   6.013
 7970TIP3   OH223854   4.395   0.908   5.045
 7970TIP3    H123855   4.469   0.856   5.075
 7970TIP3    H223856   4.328   0.895   5.112
 7971TIP3   OH223857   5.439   1.183   0.166
 7971TIP3    H123858   5.482   1.100   0.188
 7971TIP3    H223859   5.459   1.241   0.240
 7972TIP3   OH223860   2.686   0.313   0.152
 7972TIP3    H123861   2.639   0.260   0.088
 7972TIP3    H223862   2.686   0.402   0.116
 7973TIP3   OH223863   0.971   7.180   3.455
 7973TIP3    H123864   0.906   7.135   3.401
 7973TIP3    H223865   1.024   7.230   3.393
 7974TIP3   OH223866   0.122   6.207   4.912
 7974TIP3    H123867   0.103   6.150   4.838
 7974TIP3    H223868   0.037   6.242   4.938
 7975TIP3   OH223869   5.739   2.602   4.191
 7975TIP3    H123870   5.785   2.533   4.143
 7975TIP3    H223871   5.759   2.682   4.141
 7976TIP3   OH223872   7.056   3.426   0.775
 7976TIP3    H123873   7.095   3.471   0.851
 7976TIP3    H223874   6.991   3.488   0.742
 7977TIP3   OH223875   7.518   5.503   1.937
 7977TIP3    H123876   7.572   5.494   2.016
 7977TIP3    H223877   7.429   5.486   1.968
 7978TIP3   OH223878   5.507   2.092   2.233
 7978TIP3    H123879   5.415   2.064   2.238
 7978TIP3    H223880   5.553   2.034   2.293
 7979TIP3   OH223881   5.122   1.209   3.147
 7979TIP3    H123882   5.171   1.235   3.225
 7979TIP3    H223883   5.158   1.122   3.125
 7980TIP3   OH223884   0.100   4.648   1.048
 7980TIP3    H123885   0.060   4.634   0.962
 7980TIP3    H223886   0.191   4.622   1.037
 7981TIP3   OH223887   6.177   1.824   4.640
 7981TIP3    H123888   6.089   1.818   4.602
 7981TIP3    H223889   6.198   1.734   4.666
 7982TIP3   OH223890   6.557   2.252   3.031
 7982TIP3    H123891   6.533   2.338   2.997
 7982TIP3    H223892   6.652   2.251   3.030
 7983TIP3   OH223893   6.412   3.298   1.403
 7983TIP3    H123894   6.474   3.300   1.476
 7983TIP3    H223895   6.446   3.230   1.345
 7984TIP3   OH223896   5.837   6.078   5.453
 7984TIP3    H123897   5.747   6.093   5.425
 7984TIP3    H223898   5.871   6.165   5.474
 7985TIP3   OH223899   2.051   7.318   0.983
 7985TIP3    H123900   2.104   7.380   1.033
 7985TIP3    H223901   1.972   7.367   0.959
 7986TIP3   OH223902   6.103   0.242   6.574
 7986TIP3    H123903   6.129   0.173   6.636
 7986TIP3    H223904   6.174   0.245   6.510
 7987TIP3   OH223905   4.892   0.591   2.508
 7987TIP3    H123906   4.906   0.680   2.476
 7987TIP3    H223907   4.912   0.535   2.432
 7988TIP3   OH223908   2.875   1.722   5.348
 7988TIP3    H123909   2.930   1.651   5.316
 7988TIP3    H223910   2.806   1.731   5.282
 7989TIP3   OH223911   6.749   3.661   5.900
 7989TIP3    H123912   6.673   3.714   5.924
 7989TIP3    H223913   6.814   3.723   5.868
 7990TIP3   OH223914   4.564   3.406   0.355
 7990TIP3    H123915   4.552   3.336   0.290
 7990TIP3    H223916   4.478   3.415   0.397
 7991TIP3   OH223917   0.339   6.050   4.491
 7991TIP3    H123918   0.360   5.981   4.554
 7991TIP3    H223919   0.320   6.004   4.409
 7992TIP3   OH223920   7.198   6.021   5.480
 7992TIP3    H123921   7.103   6.011   5.482
 7992TIP3    H223922   7.231   5.954   5.540
 7993TIP3   OH223923   4.831   3.830   1.359
 7993TIP3    H123924   4.862   3.823   1.449
 7993TIP3    H223925   4.774   3.755   1.346
 7994TIP3   OH223926   1.272   2.136   0.031
 7994TIP3    H123927   1.354   2.141   0.080
 7994TIP3    H223928   1.205   2.165   0.093
 7995TIP3   OH223929   1.968   5.557   0.808
 7995TIP3    H123930   2.052   5.521   0.781
 7995TIP3    H223931   1.971   5.649   0.781
 7996TIP3   OH223932   5.867   4.658   2.671
 7996TIP3    H123933   5.895   4.568   2.655
 7996TIP3    H223934   5.882   4.671   2.765
 7997TIP3   OH223935   1.598   1.574   3.740
 7997TIP3    H123936   1.644   1.619   3.670
 7997TIP3    H223937   1.666   1.527   3.787
 7998TIP3   OH223938   1.951   1.030   3.036
 7998TIP3    H123939   1.958   1.041   3.131
 7998TIP3    H223940   1.872   0.978   3.024
 7999TIP3   OH223941   3.938   3.240   3.067
 7999TIP3    H123942   4.032   3.237   3.084
 7999TIP3    H223943   3.900   3.274   3.148
 8000TIP3   OH223944   3.973   6.401   4.302
 8000TIP3    H123945   3.986   6.460   4.377
 8000TIP3    H223946   3.881   6.414   4.276
 8001TIP3   OH223947   8.090   1.651   2.675
 8001TIP3    H123948   8.173   1.604   2.678
 8001TIP3    H223949   8.105   1.723   2.613
 8002TIP3   OH223950   5.149   2.478   2.037
 8002TIP3    H123951   5.122   2.533   1.963
 8002TIP3    H223952   5.245   2.486   2.039
 8003TIP3   OH223953   8.042   6.093   5.777
 8003TIP3    H123954   8.084   6.013   5.808
 8003TIP3    H223955   7.961   6.099   5.829
 8004TIP3   OH223956   0.138   4.707   2.686
 8004TIP3    H123957   0.069   4.719   2.621
 8004TIP3    H223958   0.097   4.731   2.769
 8005TIP3   OH223959   4.583   3.224   5.210
 8005TIP3    H123960   4.648   3.168   5.168
 8005TIP3    H223961   4.510   3.165   5.230
 8006TIP3   OH223962   0.588   7.226   5.177
 8006TIP3    H123963   0.680   7.203   5.167
 8006TIP3    H223964   0.540   7.153   5.138
 8007TIP3   OH223965   8.048   5.743   6.434
 8007TIP3    H123966   7.963   5.754   6.391
 8007TIP3    H223967   8.037   5.667   6.491
 8008TIP3   OH223968   3.513   7.243   1.216
 8008TIP3    H123969   3.548   7.330   1.237
 8008TIP3    H223970   3.505   7.200   1.301
 8009TIP3   OH223971   2.103   6.146   2.188
 8009TIP3    H123972   2.178   6.205   2.177
 8009TIP3    H223973   2.050   6.160   2.110
 8010TIP3   OH223974   4.143   6.653   4.553
 8010TIP3    H123975   4.105   6.683   4.471
 8010TIP3    H223976   4.227   6.697   4.558
 8011TIP3   OH223977   4.776   4.742   6.529
 8011TIP3    H123978   4.691   4.777   6.505
 8011TIP3    H223979   4.839   4.807   6.497
 8012TIP3   OH223980   2.275   6.613   1.703
 8012TIP3    H123981   2.348   6.669   1.728
 8012TIP3    H223982   2.221   6.668   1.646
 8013TIP3   OH223983   0.918   6.607   0.761
 8013TIP3    H123984   0.862   6.659   0.819
 8013TIP3    H223985   0.970   6.671   0.713
 8014TIP3   OH223986   5.662   3.790   3.987
 8014TIP3    H123987   5.626   3.844   4.057
 8014TIP3    H223988   5.606   3.809   3.912
 8015TIP3   OH223989   6.718   3.282   2.368
 8015TIP3    H123990   6.680   3.360   2.407
 8015TIP3    H223991   6.644   3.238   2.326
 8016TIP3   OH223992   2.034   4.963   2.063
 8016TIP3    H123993   2.019   4.882   2.014
 8016TIP3    H223994   1.976   4.956   2.139
 8017TIP3   OH223995   2.945   1.913   6.420
 8017TIP3    H123996   3.038   1.897   6.440
 8017TIP3    H223997   2.907   1.938   6.504
 8018TIP3   OH223998   6.800   6.440   2.033
 8018TIP3    H123999   6.831   6.351   2.016
 8018TIP3    H224000   6.740   6.458   1.961
 8019TIP3   OH224001   1.093   4.851   3.932
 8019TIP3    H124002   1.118   4.839   4.023
 8019TIP3    H224003   1.020   4.790   3.918
 8020TIP3   OH224004   2.540   0.409   2.643
 8020TIP3    H124005   2.494   0.430   2.563
 8020TIP3    H224006   2.589   0.329   2.622
 8021TIP3   OH224007   2.376   2.108   4.709
 8021TIP3    H124008   2.401   2.027   4.753
 8021TIP3    H224009   2.299   2.139   4.756
 8022TIP3   OH224010   3.763   0.802   4.083
 8022TIP3    H124011   3.759   0.796   4.178
 8022TIP3    H224012   3.681   0.844   4.058
 8023TIP3   OH224013   6.373   5.216   4.540
 8023TIP3    H124014   6.316   5.168   4.600
 8023TIP3    H224015   6.446   5.157   4.523
 8024TIP3   OH224016   4.545   6.038   0.053
 8024TIP3    H124017   4.564   6.109  -0.009
 8024TIP3    H224018   4.628   5.990   0.061
 8025TIP3   OH224019   1.710   1.630   5.889
 8025TIP3    H124020   1.788   1.682   5.909
 8025TIP3    H224021   1.708   1.624   5.793
 8026TIP3   OH224022   0.122   3.568   3.400
 8026TIP3    H124023   0.064   3.503   3.439
 8026TIP3    H224024   0.066   3.645   3.387
 8027TIP3   OH224025   7.431   5.601   3.357
 8027TIP3    H124026   7.415   5.524   3.303
 8027TIP3    H224027   7.523   5.594   3.383
 8028TIP3   OH224028   3.968   7.434   6.385
 8028TIP3    H124029   4.052   7.391   6.371
 8028TIP3    H224030   3.984   7.496   6.456
 8029TIP3   OH224031   2.601   3.634   6.168
 8029TIP3    H124032   2.518   3.587   6.170
 8029TIP3    H224033   2.595   3.691   6.091
 8030TIP3   OH224034   5.651   0.980   3.773
 8030TIP3    H124035   5.679   0.901   3.819
 8030TIP3    H224036   5.611   0.949   3.693
 8031TIP3   OH224037   8.145   2.477   6.632
 8031TIP3    H124038   8.139   2.571   6.611
 8031TIP3    H224039   8.064   2.440   6.599
 8032TIP3   OH224040   7.090   3.499   4.669
 8032TIP3    H124041   7.159   3.480   4.733
 8032TIP3    H224042   7.097   3.593   4.653
 8033TIP3   OH224043   0.310   7.597   6.017
 8033TIP3    H124044   0.330   7.644   5.936
 8033TIP3    H224045   0.324   7.505   5.995
 8034TIP3   OH224046   2.877   7.386   5.222
 8034TIP3    H124047   2.850   7.328   5.294
 8034TIP3    H224048   2.971   7.397   5.234
 8035TIP3   OH224049   8.008   1.582   2.053
 8035TIP3    H124050   8.014   1.496   2.093
 8035TIP3    H224051   7.925   1.580   2.004
 8036TIP3   OH224052   4.347   2.592   6.309
 8036TIP3    H124053   4.305   2.606   6.224
 8036TIP3    H224054   4.277   2.557   6.365
 8037TIP3   OH224055   1.892   1.451   6.260
 8037TIP3    H124056   1.892   1.546   6.251
 8037TIP3    H224057   1.841   1.420   6.186
 8038TIP3   OH224058   1.685   3.033   1.406
 8038TIP3    H124059   1.634   2.966   1.361
 8038TIP3    H224060   1.746   3.066   1.340
 8039TIP3   OH224061   7.173   1.891   5.548
 8039TIP3    H124062   7.188   1.909   5.455
 8039TIP3    H224063   7.080   1.907   5.561
 8040TIP3   OH224064   5.500   1.984   1.983
 8040TIP3    H124065   5.504   2.064   1.930
 8040TIP3    H224066   5.507   2.015   2.073
 8041TIP3   OH224067   5.930   1.840   4.508
 8041TIP3    H124068   5.839   1.854   4.535
 8041TIP3    H224069   5.926   1.767   4.447
 8042TIP3   OH224070   1.955   1.831   2.523
 8042TIP3    H124071   1.909   1.838   2.439
 8042TIP3    H224072   1.885   1.841   2.588
 8043TIP3   OH224073   0.541   2.515   5.604
 8043TIP3    H124074   0.602   2.472   5.663
 8043TIP3    H224075   0.573   2.495   5.516
 8044TIP3   OH224076   1.387   3.780   1.966
 8044TIP3    H124077   1.458   3.805   2.025
 8044TIP3    H224078   1.425   3.782   1.879
 8045TIP3   OH224079   1.437   3.814   1.378
 8045TIP3    H124080   1.446   3.784   1.287
 8045TIP3    H224081   1.526   3.834   1.406
 8046TIP3   OH224082   0.847   6.672   4.808
 8046TIP3    H124083   0.878   6.584   4.784
 8046TIP3    H224084   0.774   6.657   4.867
 8047TIP3   OH224085   5.111   3.715   4.179
 8047TIP3    H124086   5.064   3.741   4.259
 8047TIP3    H224087   5.068   3.634   4.152
 8048TIP3   OH224088   7.245   0.441   1.451
 8048TIP3    H124089   7.283   0.517   1.407
 8048TIP3    H224090   7.155   0.467   1.470
 8049TIP3   OH224091   4.142   1.761   1.963
 8049TIP3    H124092   4.055   1.783   1.997
 8049TIP3    H224093   4.201   1.778   2.036
 8050TIP3   OH224094   8.056   3.012   3.765
 8050TIP3    H124095   8.041   3.071   3.691
 8050TIP3    H224096   8.084   3.071   3.836
 8051TIP3   OH224097   5.396   2.487   1.853
 8051TIP3    H124098   5.450   2.522   1.925
 8051TIP3    H224099   5.451   2.496   1.776
 8052TIP3   OH224100   0.558   3.846   1.571
 8052TIP3    H124101   0.511   3.767   1.542
 8052TIP3    H224102   0.514   3.872   1.651
 8053TIP3   OH224103   4.727   6.798   6.613
 8053TIP3    H124104   4.708   6.876   6.561
 8053TIP3    H224105   4.683   6.813   6.696
 8054TIP3   OH224106   5.222   5.678   4.948
 8054TIP3    H124107   5.205   5.770   4.969
 8054TIP3    H224108   5.184   5.667   4.860
 8055TIP3   OH224109   0.084   6.877   4.486
 8055TIP3    H124110   0.135   6.808   4.529
 8055TIP3    H224111   0.144   6.914   4.421
 8056TIP3   OH224112   2.021   6.941   6.054
 8056TIP3    H124113   2.063   6.977   5.976
 8056TIP3    H224114   1.972   7.014   6.091
 8057TIP3   OH224115   7.909   4.241   0.954
 8057TIP3    H124116   7.957   4.163   0.926
 8057TIP3    H224117   7.935   4.255   1.045
 8058TIP3   OH224118   4.531   1.343   2.110
 8058TIP3    H124119   4.468   1.313   2.044
 8058TIP3    H224120   4.612   1.354   2.061
 8059TIP3   OH224121   6.821   7.762   4.852
 8059TIP3    H124122   6.905   7.770   4.897
 8059TIP3    H224123   6.843   7.775   4.759
 8060TIP3   OH224124   4.833   2.826   3.397
 8060TIP3    H124125   4.768   2.817   3.327
 8060TIP3    H224126   4.818   2.914   3.432
 8061TIP3   OH224127   3.700   5.429   2.071
 8061TIP3    H124128   3.786   5.427   2.112
 8061TIP3    H224129   3.717   5.407   1.979
 8062TIP3   OH224130   5.308   4.048   3.678
 8062TIP3    H124131   5.360   4.027   3.756
 8062TIP3    H224132   5.267   4.132   3.699
 8063TIP3   OH224133   5.589   1.968   6.633
 8063TIP3    H124134   5.626   1.925   6.556
 8063TIP3    H224135   5.545   2.046   6.599
 8064TIP3   OH224136   0.539   7.186   0.173
 8064TIP3    H124137   0.456   7.140   0.186
 8064TIP3    H224138   0.592   7.125   0.121
 8065TIP3   OH224139   1.476   5.441   5.269
 8065TIP3    H124140   1.508   5.530   5.255
 8065TIP3    H224141   1.466   5.406   5.180
 8066TIP3   OH224142   6.443   5.150   2.269
 8066TIP3    H124143   6.419   5.073   2.218
 8066TIP3    H224144   6.523   5.125   2.315
 8067TIP3   OH224145   0.818   2.769   2.574
 8067TIP3    H124146   0.856   2.857   2.564
 8067TIP3    H224147   0.751   2.765   2.506
 8068TIP3   OH224148   7.724   0.814   5.542
 8068TIP3    H124149   7.749   0.899   5.506
 8068TIP3    H224150   7.660   0.780   5.479
 8069TIP3   OH224151   4.674   0.813   2.474
 8069TIP3    H124152   4.663   0.872   2.549
 8069TIP3    H224153   4.767   0.817   2.454
 8070TIP3   OH224154   2.457   3.324   1.658
 8070TIP3    H124155   2.477   3.391   1.593
 8070TIP3    H224156   2.467   3.368   1.743
 8071TIP3   OH224157   2.013   5.942   2.989
 8071TIP3    H124158   2.022   5.940   3.084
 8071TIP3    H224159   2.068   6.016   2.961
 8072TIP3   OH224160   1.091   2.395   3.484
 8072TIP3    H124161   1.031   2.371   3.555
 8072TIP3    H224162   1.085   2.490   3.479
 8073TIP3   OH224163   0.894   7.056   2.981
 8073TIP3    H124164   0.949   7.046   3.059
 8073TIP3    H224165   0.815   7.099   3.013
 8074TIP3   OH224166   7.877   2.079   3.259
 8074TIP3    H124167   7.860   2.165   3.296
 8074TIP3    H224168   7.873   2.019   3.334
 8075TIP3   OH224169   5.833   0.256   6.598
 8075TIP3    H124170   5.928   0.245   6.591
 8075TIP3    H224171   5.800   0.168   6.617
 8076TIP3   OH224172   1.759   6.944   1.269
 8076TIP3    H124173   1.683   6.947   1.327
 8076TIP3    H224174   1.764   6.853   1.240
 8077TIP3   OH224175   6.637   6.053   5.353
 8077TIP3    H124176   6.555   6.084   5.392
 8077TIP3    H224177   6.664   5.981   5.410
 8078TIP3   OH224178   4.979   5.503   3.890
 8078TIP3    H124179   5.015   5.561   3.958
 8078TIP3    H224180   4.893   5.477   3.923
 8079TIP3   OH224181   3.692   5.491   5.334
 8079TIP3    H124182   3.741   5.428   5.386
 8079TIP3    H224183   3.686   5.569   5.390
 8080TIP3   OH224184   2.671   5.127   1.506
 8080TIP3    H124185   2.599   5.183   1.477
 8080TIP3    H224186   2.650   5.040   1.472
 8081TIP3   OH224187   2.705   4.141   5.146
 8081TIP3    H124188   2.759   4.203   5.097
 8081TIP3    H224189   2.695   4.180   5.232
 8082TIP3   OH224190   0.646   3.680   1.337
 8082TIP3    H124191   0.649   3.638   1.251
 8082TIP3    H224192   0.708   3.753   1.329
 8083TIP3   OH224193   6.628   3.617   6.232
 8083TIP3    H124194   6.631   3.597   6.326
 8083TIP3    H224195   6.717   3.641   6.209
 8084TIP3   OH224196   2.109   6.233   4.733
 8084TIP3    H124197   2.117   6.139   4.749
 8084TIP3    H224198   2.123   6.242   4.638
 8085TIP3   OH224199   4.412   7.345   5.075
 8085TIP3    H124200   4.336   7.339   5.018
 8085TIP3    H224201   4.384   7.404   5.146
 8086TIP3   OH224202   2.141   1.780   2.312
 8086TIP3    H124203   2.117   1.785   2.404
 8086TIP3    H224204   2.068   1.820   2.266
 8087TIP3   OH224205   7.745   7.729   4.201
 8087TIP3    H124206   7.805   7.768   4.265
 8087TIP3    H224207   7.729   7.641   4.234
 8088TIP3   OH224208   5.640   3.764   3.692
 8088TIP3    H124209   5.695   3.702   3.740
 8088TIP3    H224210   5.551   3.743   3.718
 8089TIP3   OH224211   0.416   7.071   1.815
 8089TIP3    H124212   0.459   6.986   1.826
 8089TIP3    H224213   0.484   7.135   1.832
 8090TIP3   OH224214   5.097   7.603   3.379
 8090TIP3    H124215   5.059   7.533   3.325
 8090TIP3    H224216   5.087   7.682   3.326
 8091TIP3   OH224217   4.825   2.764   0.220
 8091TIP3    H124218   4.771   2.816   0.161
 8091TIP3    H224219   4.763   2.707   0.266
 8092TIP3   OH224220   2.994   3.207   6.401
 8092TIP3    H124221   2.919   3.238   6.451
 8092TIP3    H224222   3.054   3.172   6.467
 8093TIP3   OH224223   2.431   4.716   5.762
 8093TIP3    H124224   2.415   4.706   5.668
 8093TIP3    H224225   2.526   4.730   5.769
 8094TIP3   OH224226   1.834   3.639   4.345
 8094TIP3    H124227   1.762   3.640   4.409
 8094TIP3    H224228   1.911   3.663   4.396
 8095TIP3   OH224229   4.924   3.616   2.451
 8095TIP3    H124230   4.884   3.638   2.366
 8095TIP3    H224231   4.909   3.523   2.461
 8096TIP3   OH224232   5.842   2.131   2.151
 8096TIP3    H124233   5.931   2.099   2.163
 8096TIP3    H224234   5.804   2.130   2.240
 8097TIP3   OH224235   1.155   0.879   2.525
 8097TIP3    H124236   1.061   0.895   2.529
 8097TIP3    H224237   1.195   0.958   2.561
 8098TIP3   OH224238   2.938   1.070   5.838
 8098TIP3    H124239   2.960   1.062   5.745
 8098TIP3    H224240   2.918   0.981   5.865
 8099TIP3   OH224241   5.030   1.655   2.402
 8099TIP3    H124242   5.016   1.569   2.442
 8099TIP3    H224243   5.047   1.713   2.476
 8100TIP3   OH224244   5.218   6.536   0.487
 8100TIP3    H124245   5.149   6.479   0.519
 8100TIP3    H224246   5.227   6.514   0.394
 8101TIP3   OH224247   1.265   6.634   1.170
 8101TIP3    H124248   1.243   6.562   1.228
 8101TIP3    H224249   1.357   6.620   1.148
 8102TIP3   OH224250   3.505   3.108   4.824
 8102TIP3    H124251   3.438   3.177   4.823
 8102TIP3    H224252   3.456   3.027   4.836
 8103TIP3   OH224253   1.636   1.796   0.055
 8103TIP3    H124254   1.647   1.774  -0.038
 8103TIP3    H224255   1.584   1.724   0.091
 8104TIP3   OH224256   6.159   5.773   4.849
 8104TIP3    H124257   6.155   5.684   4.816
 8104TIP3    H224258   6.252   5.793   4.854
 8105TIP3   OH224259   3.227   6.866   2.184
 8105TIP3    H124260   3.202   6.839   2.096
 8105TIP3    H224261   3.185   6.952   2.196
 8106TIP3   OH224262   1.587   5.832   4.647
 8106TIP3    H124263   1.495   5.821   4.673
 8106TIP3    H224264   1.585   5.894   4.575
 8107TIP3   OH224265   2.353   0.197   4.482
 8107TIP3    H124266   2.327   0.251   4.408
 8107TIP3    H224267   2.447   0.184   4.470
 8108TIP3   OH224268   7.648   7.314   4.821
 8108TIP3    H124269   7.584   7.275   4.880
 8108TIP3    H224270   7.623   7.282   4.734
 8109TIP3   OH224271   4.500   7.726   1.392
 8109TIP3    H124272   4.534   7.673   1.320
 8109TIP3    H224273   4.563   7.713   1.463
 8110TIP3   OH224274   7.817   3.089   0.375
 8110TIP3    H124275   7.795   3.134   0.293
 8110TIP3    H224276   7.902   3.049   0.359
 8111TIP3   OH224277   1.853   0.845   5.679
 8111TIP3    H124278   1.936   0.808   5.708
 8111TIP3    H224279   1.796   0.769   5.666
 8112TIP3   OH224280   1.308   6.606   0.278
 8112TIP3    H124281   1.278   6.663   0.207
 8112TIP3    H224282   1.337   6.526   0.235
 8113TIP3   OH224283   5.584   6.718   1.963
 8113TIP3    H124284   5.539   6.768   2.031
 8113TIP3    H224285   5.529   6.729   1.885
 8114TIP3   OH224286   0.564   0.998   4.442
 8114TIP3    H124287   0.494   0.980   4.504
 8114TIP3    H224288   0.586   1.090   4.456
 8115TIP3   OH224289   1.761   4.797   4.806
 8115TIP3    H124290   1.805   4.749   4.876
 8115TIP3    H224291   1.772   4.743   4.729
 8116TIP3   OH224292   1.037   2.446   5.260
 8116TIP3    H124293   1.012   2.390   5.186
 8116TIP3    H224294   0.972   2.516   5.260
 8117TIP3   OH224295   5.694   1.133   3.447
 8117TIP3    H124296   5.756   1.170   3.510
 8117TIP3    H224297   5.626   1.200   3.438
 8118TIP3   OH224298   5.249   1.015   5.668
 8118TIP3    H124299   5.200   1.090   5.701
 8118TIP3    H224300   5.333   1.019   5.713
 8119TIP3   OH224301   0.411   3.999   4.647
 8119TIP3    H124302   0.467   3.923   4.632
 8119TIP3    H224303   0.326   3.973   4.609
 8120TIP3   OH224304   2.840   6.667   0.099
 8120TIP3    H124305   2.844   6.578   0.066
 8120TIP3    H224306   2.928   6.684   0.134
 8121TIP3   OH224307   4.478   0.569   1.221
 8121TIP3    H124308   4.427   0.549   1.142
 8121TIP3    H224309   4.514   0.657   1.204
 8122TIP3   OH224310   8.200   5.479   3.884
 8122TIP3    H124311   8.245   5.404   3.923
 8122TIP3    H224312   8.221   5.553   3.942
 8123TIP3   OH224313   0.797   3.644   4.680
 8123TIP3    H124314   0.847   3.710   4.633
 8123TIP3    H224315   0.823   3.654   4.772
 8124TIP3   OH224316   6.322   3.579   3.135
 8124TIP3    H124317   6.375   3.659   3.131
 8124TIP3    H224318   6.265   3.591   3.210
 8125TIP3   OH224319   7.162   3.519   6.157
 8125TIP3    H124320   7.255   3.506   6.141
 8125TIP3    H224321   7.153   3.515   6.252
 8126TIP3   OH224322   2.825   6.809   2.700
 8126TIP3    H124323   2.750   6.766   2.659
 8126TIP3    H224324   2.808   6.902   2.688
 8127TIP3   OH224325   4.646   3.575   0.837
 8127TIP3    H124326   4.701   3.564   0.759
 8127TIP3    H224327   4.709   3.580   0.909
 8128TIP3   OH224328   7.383   0.740   2.635
 8128TIP3    H124329   7.462   0.704   2.594
 8128TIP3    H224330   7.311   0.689   2.598
 8129TIP3   OH224331   3.795   2.461   5.339
 8129TIP3    H124332   3.828   2.550   5.321
 8129TIP3    H224333   3.742   2.440   5.262
 8130TIP3   OH224334   6.885   2.531   1.301
 8130TIP3    H124335   6.940   2.506   1.375
 8130TIP3    H224336   6.845   2.614   1.328
 8131TIP3   OH224337   7.137   0.304   4.809
 8131TIP3    H124338   7.202   0.303   4.739
 8131TIP3    H224339   7.179   0.256   4.881
 8132TIP3   OH224340   0.625   4.834   6.255
 8132TIP3    H124341   0.541   4.817   6.213
 8132TIP3    H224342   0.690   4.806   6.190
 8133TIP3   OH224343   1.160   5.864   2.318
 8133TIP3    H124344   1.180   5.927   2.250
 8133TIP3    H224345   1.177   5.779   2.279
 8134TIP3   OH224346   4.178   0.771   5.475
 8134TIP3    H124347   4.194   0.680   5.502
 8134TIP3    H224348   4.168   0.819   5.557
 8135TIP3   OH224349   7.993   7.469   2.958
 8135TIP3    H124350   7.943   7.397   2.996
 8135TIP3    H224351   8.044   7.429   2.888
 8136TIP3   OH224352   2.681   5.153   0.660
 8136TIP3    H124353   2.713   5.234   0.622
 8136TIP3    H224354   2.678   5.170   0.754
 8137TIP3   OH224355   1.873   2.104   5.152
 8137TIP3    H124356   1.884   2.105   5.057
 8137TIP3    H224357   1.928   2.175   5.184
 8138TIP3   OH224358   7.766   0.657   0.826
 8138TIP3    H124359   7.780   0.613   0.742
 8138TIP3    H224360   7.846   0.640   0.876
 8139TIP3   OH224361   7.653   0.701   3.893
 8139TIP3    H124362   7.605   0.680   3.812
 8139TIP3    H224363   7.673   0.616   3.931
 8140TIP3   OH224364   8.293   6.281   0.677
 8140TIP3    H124365   8.372   6.292   0.730
 8140TIP3    H224366   8.223   6.270   0.741
 8141TIP3   OH224367   0.846   5.020   4.973
 8141TIP3    H124368   0.844   5.019   4.878
 8141TIP3    H224369   0.841   5.113   4.996
 8142TIP3   OH224370   3.592   4.815   6.509
 8142TIP3    H124371   3.687   4.812   6.502
 8142TIP3    H224372   3.564   4.726   6.486
 8143TIP3   OH224373   4.754   0.293   0.970
 8143TIP3    H124374   4.818   0.244   0.918
 8143TIP3    H224375   4.756   0.251   1.056
 8144TIP3   OH224376   4.329   6.217   6.636
 8144TIP3    H124377   4.345   6.128   6.606
 8144TIP3    H224378   4.340   6.271   6.558
 8145TIP3   OH224379   7.527   0.809   6.391
 8145TIP3    H124380   7.534   0.726   6.439
 8145TIP3    H224381   7.615   0.825   6.357
 8146TIP3   OH224382   8.170   2.220   5.634
 8146TIP3    H124383   8.240   2.167   5.671
 8146TIP3    H224384   8.091   2.167   5.644
 8147TIP3   OH224385   5.561   0.023   5.574
 8147TIP3    H124386   5.610   0.087   5.522
 8147TIP3    H224387   5.567  -0.058   5.524
 8148TIP3   OH224388   2.216   5.156   2.345
 8148TIP3    H124389   2.175   5.193   2.423
 8148TIP3    H224390   2.240   5.067   2.371
 8149TIP3   OH224391   3.075   4.811   5.626
 8149TIP3    H124392   3.146   4.833   5.566
 8149TIP3    H224393   3.099   4.855   5.708
 8150TIP3   OH224394   8.276   2.819   5.633
 8150TIP3    H124395   8.300   2.874   5.559
 8150TIP3    H224396   8.321   2.736   5.616
 8151TIP3   OH224397   1.911   1.411   2.330
 8151TIP3    H124398   1.893   1.418   2.237
 8151TIP3    H224399   1.985   1.470   2.345
 8152TIP3   OH224400   1.834   6.250   4.337
 8152TIP3    H124401   1.817   6.165   4.378
 8152TIP3    H224402   1.921   6.240   4.298
 8153TIP3   OH224403   7.294   7.123   2.306
 8153TIP3    H124404   7.380   7.143   2.341
 8153TIP3    H224405   7.279   7.031   2.330
 8154TIP3   OH224406   4.642   3.617   5.802
 8154TIP3    H124407   4.563   3.568   5.826
 8154TIP3    H224408   4.631   3.702   5.843
 8155TIP3   OH224409   4.943   6.514   4.823
 8155TIP3    H124410   4.894   6.557   4.753
 8155TIP3    H224411   5.009   6.578   4.849
 8156TIP3   OH224412   7.919   0.824   2.054
 8156TIP3    H124413   7.982   0.754   2.041
 8156TIP3    H224414   7.893   0.816   2.146
 8157TIP3   OH224415   0.237   1.389   1.297
 8157TIP3    H124416   0.221   1.337   1.376
 8157TIP3    H224417   0.232   1.325   1.225
 8158TIP3   OH224418   5.829   4.458   3.019
 8158TIP3    H124419   5.758   4.398   2.998
 8158TIP3    H224420   5.814   4.534   2.963
 8159TIP3   OH224421   3.728   0.204   4.271
 8159TIP3    H124422   3.683   0.270   4.219
 8159TIP3    H224423   3.657   0.151   4.309
 8160TIP3   OH224424   1.007   1.760   5.206
 8160TIP3    H124425   0.985   1.850   5.232
 8160TIP3    H224426   0.978   1.706   5.279
 8161TIP3   OH224427   6.669   7.384   2.678
 8161TIP3    H124428   6.724   7.361   2.602
 8161TIP3    H224429   6.688   7.316   2.742
 8162TIP3   OH224430   4.714   1.904   5.807
 8162TIP3    H124431   4.716   1.981   5.750
 8162TIP3    H224432   4.644   1.849   5.770
 8163TIP3   OH224433   0.578   3.382   1.987
 8163TIP3    H124434   0.557   3.335   1.907
 8163TIP3    H224435   0.673   3.395   1.984
 8164TIP3   OH224436   6.361   5.779   1.851
 8164TIP3    H124437   6.359   5.710   1.917
 8164TIP3    H224438   6.416   5.847   1.889
 8165TIP3   OH224439   5.229   7.206   6.330
 8165TIP3    H124440   5.219   7.297   6.359
 8165TIP3    H224441   5.322   7.186   6.345
 8166TIP3   OH224442   1.924   7.109   3.565
 8166TIP3    H124443   1.953   7.195   3.534
 8166TIP3    H224444   1.889   7.067   3.486
 8167TIP3   OH224445   0.367   0.976   2.128
 8167TIP3    H124446   0.436   0.971   2.062
 8167TIP3    H224447   0.361   1.069   2.149
 8168TIP3   OH224448   7.139   5.728   3.816
 8168TIP3    H124449   7.131   5.636   3.840
 8168TIP3    H224450   7.216   5.730   3.759
 8169TIP3   OH224451   7.011   0.586   3.752
 8169TIP3    H124452   7.077   0.586   3.822
 8169TIP3    H224453   7.061   0.601   3.672
 8170TIP3   OH224454   1.350   1.150   0.879
 8170TIP3    H124455   1.445   1.159   0.882
 8170TIP3    H224456   1.316   1.225   0.928
 8171TIP3   OH224457   4.972   3.351   2.448
 8171TIP3    H124458   4.921   3.316   2.522
 8171TIP3    H224459   5.051   3.386   2.488
 8172TIP3   OH224460   5.804   3.155   1.199
 8172TIP3    H124461   5.835   3.237   1.163
 8172TIP3    H224462   5.811   3.166   1.294
 8173TIP3   OH224463   4.953   2.795   2.020
 8173TIP3    H124464   4.918   2.749   1.944
 8173TIP3    H224465   4.891   2.865   2.038
 8174TIP3   OH224466   2.201   3.386   4.636
 8174TIP3    H124467   2.203   3.300   4.594
 8174TIP3    H224468   2.292   3.418   4.629
 8175TIP3   OH224469   2.409   3.653   3.729
 8175TIP3    H124470   2.350   3.584   3.698
 8175TIP3    H224471   2.363   3.735   3.710
 8176TIP3   OH224472   3.523   2.934   3.936
 8176TIP3    H124473   3.488   2.966   4.019
 8176TIP3    H224474   3.568   2.853   3.960
 8177TIP3   OH224475   4.931   7.727   4.005
 8177TIP3    H124476   4.970   7.739   4.092
 8177TIP3    H224477   4.975   7.651   3.968
 8178TIP3   OH224478   8.178   4.818   0.139
 8178TIP3    H124479   8.247   4.753   0.156
 8178TIP3    H224480   8.225   4.892   0.100
 8179TIP3   OH224481   3.248   1.130   0.751
 8179TIP3    H124482   3.299   1.051   0.735
 8179TIP3    H224483   3.312   1.196   0.776
 8180TIP3   OH224484   7.220   7.490   2.556
 8180TIP3    H124485   7.148   7.530   2.604
 8180TIP3    H224486   7.227   7.402   2.593
 8181TIP3   OH224487   1.947   2.117   4.490
 8181TIP3    H124488   1.862   2.073   4.485
 8181TIP3    H224489   1.943   2.185   4.423
 8182TIP3   OH224490   5.144   7.692   4.238
 8182TIP3    H124491   5.233   7.721   4.258
 8182TIP3    H224492   5.153   7.599   4.217
 8183TIP3   OH224493   1.270   1.948   4.629
 8183TIP3    H124494   1.186   1.992   4.642
 8183TIP3    H224495   1.287   1.955   4.535
 8184TIP3   OH224496   7.099   5.251   0.554
 8184TIP3    H124497   7.060   5.295   0.630
 8184TIP3    H224498   7.099   5.158   0.578
 8185TIP3   OH224499   7.628   3.686   5.821
 8185TIP3    H124500   7.592   3.613   5.770
 8185TIP3    H224501   7.706   3.649   5.864
 8186TIP3   OH224502   2.963   3.897   5.103
 8186TIP3    H124503   2.992   3.985   5.126
 8186TIP3    H224504   3.038   3.858   5.058
 8187TIP3   OH224505   7.339   0.761   5.378
 8187TIP3    H124506   7.247   0.737   5.373
 8187TIP3    H224507   7.338   0.855   5.398
 8188TIP3   OH224508   3.896   2.076   1.710
 8188TIP3    H124509   3.973   2.060   1.655
 8188TIP3    H224510   3.933   2.099   1.796
 8189TIP3   OH224511   4.452   2.209   5.306
 8189TIP3    H124512   4.381   2.196   5.369
 8189TIP3    H224513   4.526   2.159   5.342
 8190TIP3   OH224514   6.919   5.001   6.107
 8190TIP3    H124515   6.834   4.970   6.078
 8190TIP3    H224516   6.933   5.083   6.059
 8191TIP3   OH224517   3.765   1.807   5.241
 8191TIP3    H124518   3.842   1.794   5.297
 8191TIP3    H224519   3.692   1.773   5.292
 8192TIP3   OH224520   3.808   4.820   2.473
 8192TIP3    H124521   3.829   4.774   2.555
 8192TIP3    H224522   3.731   4.774   2.439
 8193TIP3   OH224523   4.183   0.447   2.015
 8193TIP3    H124524   4.152   0.517   2.073
 8193TIP3    H224525   4.128   0.372   2.037
 8194TIP3   OH224526   7.280   0.098   4.951
 8194TIP3    H124527   7.356   0.118   5.005
 8194TIP3    H224528   7.316   0.058   4.872
 8195TIP3   OH224529   4.747   3.984   6.612
 8195TIP3    H124530   4.668   3.941   6.645
 8195TIP3    H224531   4.818   3.925   6.635
 8196TIP3   OH224532   2.928   0.077   2.468
 8196TIP3    H124533   2.855   0.100   2.411
 8196TIP3    H224534   2.921  -0.018   2.479
 8197TIP3   OH224535   5.267   3.703   1.325
 8197TIP3    H124536   5.265   3.735   1.235
 8197TIP3    H224537   5.335   3.635   1.325
 8198TIP3   OH224538   5.003   7.468   2.347
 8198TIP3    H124539   4.951   7.549   2.342
 8198TIP3    H224540   4.938   7.398   2.337
 8199TIP3   OH224541   0.054   1.788   5.666
 8199TIP3    H124542   0.085   1.706   5.704
 8199TIP3    H224543   0.012   1.763   5.584
 8200TIP3   OH224544   0.538   2.726   4.875
 8200TIP3    H124545   0.457   2.692   4.912
 8200TIP3    H224546   0.585   2.648   4.843
 8201TIP3   OH224547   3.019   0.845   6.049
 8201TIP3    H124548   2.993   0.761   6.086
 8201TIP3    H224549   2.998   0.909   6.116
 8202TIP3   OH224550   2.107   2.833   5.369
 8202TIP3    H124551   2.154   2.839   5.453
 8202TIP3    H224552   2.056   2.913   5.365
 8203TIP3   OH224553   4.935   0.694   2.860
 8203TIP3    H124554   5.003   0.644   2.906
 8203TIP3    H224555   4.898   0.632   2.798
 8204TIP3   OH224556   0.533   1.540   5.748
 8204TIP3    H124557   0.468   1.547   5.818
 8204TIP3    H224558   0.617   1.529   5.793
 8205TIP3   OH224559   7.489   3.595   6.578
 8205TIP3    H124560   7.494   3.594   6.482
 8205TIP3    H224561   7.581   3.593   6.606
 8206TIP3   OH224562   8.175   5.667   4.095
 8206TIP3    H124563   8.136   5.620   4.168
 8206TIP3    H224564   8.178   5.758   4.124
 8207TIP3   OH224565   2.482   6.544   5.195
 8207TIP3    H124566   2.460   6.524   5.285
 8207TIP3    H224567   2.565   6.500   5.179
 8208TIP3   OH224568   8.057   4.890   0.886
 8208TIP3    H124569   8.016   4.868   0.802
 8208TIP3    H224570   8.034   4.981   0.901
 8209TIP3   OH224571   1.398   2.733   4.222
 8209TIP3    H124572   1.442   2.751   4.139
 8209TIP3    H224573   1.323   2.794   4.223
 8210TIP3   OH224574   2.361   6.811   2.042
 8210TIP3    H124575   2.438   6.762   2.069
 8210TIP3    H224576   2.378   6.835   1.951
 8211TIP3   OH224577   3.915   3.854   2.967
 8211TIP3    H124578   3.858   3.930   2.953
 8211TIP3    H224579   3.861   3.779   2.940
 8212TIP3   OH224580   4.642   6.875   6.046
 8212TIP3    H124581   4.582   6.815   6.092
 8212TIP3    H224582   4.592   6.956   6.036
 8213TIP3   OH224583   2.763   0.620   0.418
 8213TIP3    H124584   2.714   0.685   0.469
 8213TIP3    H224585   2.698   0.554   0.395
 8214TIP3   OH224586   7.870   6.511   0.663
 8214TIP3    H124587   7.944   6.542   0.715
 8214TIP3    H224588   7.816   6.462   0.724
 8215TIP3   OH224589   1.077   0.372   2.825
 8215TIP3    H124590   1.011   0.337   2.885
 8215TIP3    H224591   1.074   0.466   2.838
 8216TIP3   OH224592   2.932   2.921   0.451
 8216TIP3    H124593   2.892   3.000   0.414
 8216TIP3    H224594   2.866   2.852   0.439
 8217TIP3   OH224595   3.691   2.714   3.295
 8217TIP3    H124596   3.733   2.679   3.216
 8217TIP3    H224597   3.755   2.700   3.365
 8218TIP3   OH224598   1.124   6.203   0.776
 8218TIP3    H124599   1.188   6.275   0.780
 8218TIP3    H224600   1.047   6.241   0.734
 8219TIP3   OH224601   0.901   4.525   6.581
 8219TIP3    H124602   0.810   4.538   6.552
 8219TIP3    H224603   0.929   4.612   6.609
 8220TIP3   OH224604   7.669   6.735   4.626
 8220TIP3    H124605   7.685   6.660   4.683
 8220TIP3    H224606   7.755   6.758   4.590
 8221TIP3   OH224607   7.355   0.487   0.237
 8221TIP3    H124608   7.445   0.462   0.216
 8221TIP3    H224609   7.303   0.452   0.165
 8222TIP3   OH224610   5.343   5.429   4.957
 8222TIP3    H124611   5.308   5.518   4.963
 8222TIP3    H224612   5.433   5.440   4.927
 8223TIP3   OH224613   2.467   4.488   4.603
 8223TIP3    H124614   2.385   4.522   4.639
 8223TIP3    H224615   2.535   4.528   4.657
 8224TIP3   OH224616   0.395   4.294   1.803
 8224TIP3    H124617   0.344   4.317   1.725
 8224TIP3    H224618   0.335   4.309   1.876
 8225TIP3   OH224619   7.949   5.879   5.476
 8225TIP3    H124620   7.993   5.815   5.420
 8225TIP3    H224621   7.886   5.923   5.419
 8226TIP3   OH224622   7.770   6.569   1.215
 8226TIP3    H124623   7.828   6.644   1.203
 8226TIP3    H224624   7.822   6.494   1.187
 8227TIP3   OH224625   7.693   5.248   6.483
 8227TIP3    H124626   7.788   5.241   6.477
 8227TIP3    H224627   7.662   5.228   6.395
 8228TIP3   OH224628   2.199   0.040   0.894
 8228TIP3    H124629   2.116   0.041   0.845
 8228TIP3    H224630   2.173   0.021   0.984
 8229TIP3   OH224631   7.504   1.340   6.021
 8229TIP3    H124632   7.423   1.387   6.000
 8229TIP3    H224633   7.570   1.381   5.966
 8230TIP3   OH224634   5.610   1.792   6.435
 8230TIP3    H124635   5.664   1.759   6.363
 8230TIP3    H224636   5.618   1.726   6.503
 8231TIP3   OH224637   1.240   1.511   2.965
 8231TIP3    H124638   1.192   1.476   3.039
 8231TIP3    H224639   1.172   1.549   2.908
 8232TIP3   OH224640   3.951   6.033   6.525
 8232TIP3    H124641   3.880   5.969   6.523
 8232TIP3    H224642   3.990   6.024   6.612
 8233TIP3   OH224643   1.121   6.039   4.255
 8233TIP3    H124644   1.131   6.028   4.350
 8233TIP3    H224645   1.185   5.980   4.217
 8234TIP3   OH224646   1.300   0.709   1.400
 8234TIP3    H124647   1.337   0.752   1.322
 8234TIP3    H224648   1.280   0.620   1.371
 8235TIP3   OH224649   7.761   7.299   2.940
 8235TIP3    H124650   7.702   7.232   2.904
 8235TIP3    H224651   7.746   7.376   2.885
 8236TIP3   OH224652   5.412   4.277   6.574
 8236TIP3    H124653   5.452   4.205   6.624
 8236TIP3    H224654   5.327   4.243   6.547
 8237TIP3   OH224655   6.970   6.784   0.409
 8237TIP3    H124656   6.875   6.770   0.414
 8237TIP3    H224657   6.979   6.879   0.398
 8238TIP3   OH224658   5.908   0.761   0.458
 8238TIP3    H124659   5.845   0.720   0.399
 8238TIP3    H224660   5.934   0.842   0.413
 8239TIP3   OH224661   2.815   4.843   0.018
 8239TIP3    H124662   2.743   4.861  -0.042
 8239TIP3    H224663   2.771   4.814   0.099
 8240TIP3   OH224664   5.250   0.990   3.027
 8240TIP3    H124665   5.277   0.965   2.938
 8240TIP3    H224666   5.325   0.968   3.082
 8241TIP3   OH224667   3.397   3.288   6.615
 8241TIP3    H124668   3.374   3.381   6.607
 8241TIP3    H224669   3.419   3.276   6.708
 8242TIP3   OH224670   6.772   2.532   5.525
 8242TIP3    H124671   6.837   2.501   5.462
 8242TIP3    H224672   6.823   2.554   5.603
 8243TIP3   OH224673   8.205   1.484   1.405
 8243TIP3    H124674   8.177   1.543   1.335
 8243TIP3    H224675   8.274   1.532   1.451
 8244TIP3   OH224676   4.557   0.850   1.830
 8244TIP3    H124677   4.528   0.779   1.888
 8244TIP3    H224678   4.642   0.822   1.798
 8245TIP3   OH224679   0.926   3.226   1.314
 8245TIP3    H124680   0.852   3.165   1.317
 8245TIP3    H224681   0.957   3.231   1.404
 8246TIP3   OH224682   4.324   6.586   1.630
 8246TIP3    H124683   4.341   6.676   1.657
 8246TIP3    H224684   4.310   6.538   1.712
 8247TIP3   OH224685   7.324   6.519   2.088
 8247TIP3    H124686   7.337   6.460   2.014
 8247TIP3    H224687   7.407   6.515   2.136
 8248TIP3   OH224688   7.244   4.467   3.201
 8248TIP3    H124689   7.204   4.407   3.264
 8248TIP3    H224690   7.274   4.541   3.254
 8249TIP3   OH224691   6.882   0.123   4.146
 8249TIP3    H124692   6.862   0.196   4.204
 8249TIP3    H224693   6.799   0.103   4.102
 8250TIP3   OH224694   5.583   4.552   6.541
 8250TIP3    H124695   5.649   4.599   6.592
 8250TIP3    H224696   5.629   4.476   6.505
 8251TIP3   OH224697   5.823   2.270   4.679
 8251TIP3    H124698   5.897   2.261   4.619
 8251TIP3    H224699   5.755   2.313   4.627
 8252TIP3   OH224700   1.758   0.545   1.346
 8252TIP3    H124701   1.690   0.556   1.281
 8252TIP3    H224702   1.789   0.633   1.365
 8253TIP3   OH224703   6.619   2.566   6.028
 8253TIP3    H124704   6.585   2.566   5.938
 8253TIP3    H224705   6.609   2.656   6.058
 8254TIP3   OH224706   1.535   2.977   3.052
 8254TIP3    H124707   1.593   2.902   3.038
 8254TIP3    H224708   1.572   3.047   2.998
 8255TIP3   OH224709   5.376   3.241   6.195
 8255TIP3    H124710   5.414   3.327   6.176
 8255TIP3    H224711   5.418   3.182   6.133
 8256TIP3   OH224712   7.923   4.108   1.706
 8256TIP3    H124713   7.934   4.199   1.677
 8256TIP3    H224714   8.012   4.077   1.721
 8257TIP3   OH224715   3.981   1.512   3.813
 8257TIP3    H124716   3.942   1.428   3.835
 8257TIP3    H224717   3.920   1.577   3.848
 8258TIP3   OH224718   8.197   3.667   3.152
 8258TIP3    H124719   8.124   3.697   3.098
 8258TIP3    H224720   8.161   3.594   3.202
 8259TIP3   OH224721   2.163   6.708   1.441
 8259TIP3    H124722   2.078   6.666   1.454
 8259TIP3    H224723   2.142   6.800   1.425
 8260TIP3   OH224724   7.435   0.474   5.073
 8260TIP3    H124725   7.384   0.546   5.109
 8260TIP3    H224726   7.522   0.484   5.110
 8261TIP3   OH224727   3.561   4.908   3.101
 8261TIP3    H124728   3.473   4.906   3.139
 8261TIP3    H224729   3.612   4.960   3.163
 8262TIP3   OH224730   3.501   2.113   3.699
 8262TIP3    H124731   3.452   2.039   3.735
 8262TIP3    H224732   3.484   2.110   3.605
 8263TIP3   OH224733   0.605   3.664   0.723
 8263TIP3    H124734   0.539   3.604   0.759
 8263TIP3    H224735   0.556   3.744   0.704
 8264TIP3   OH224736   7.047   1.958   2.049
 8264TIP3    H124737   6.951   1.948   2.050
 8264TIP3    H224738   7.066   2.000   1.966
 8265TIP3   OH224739   3.610   4.281   0.710
 8265TIP3    H124740   3.577   4.371   0.716
 8265TIP3    H224741   3.536   4.226   0.736
 8266TIP3   OH224742   3.226   4.306   4.534
 8266TIP3    H124743   3.166   4.287   4.606
 8266TIP3    H224744   3.176   4.283   4.455
 8267TIP3   OH224745   5.867   3.794   0.226
 8267TIP3    H124746   5.829   3.725   0.171
 8267TIP3    H224747   5.961   3.788   0.210
 8268TIP3   OH224748   6.677   5.494   0.744
 8268TIP3    H124749   6.709   5.435   0.677
 8268TIP3    H224750   6.723   5.467   0.824
 8269TIP3   OH224751   6.446   1.058   6.359
 8269TIP3    H124752   6.536   1.038   6.385
 8269TIP3    H224753   6.444   1.154   6.353
 8270TIP3   OH224754   7.303   5.718   2.919
 8270TIP3    H124755   7.339   5.645   2.970
 8270TIP3    H224756   7.208   5.705   2.925
 8271TIP3   OH224757   4.887   3.559   3.426
 8271TIP3    H124758   4.919   3.584   3.513
 8271TIP3    H224759   4.868   3.642   3.383
 8272TIP3   OH224760   1.807   2.973   3.862
 8272TIP3    H124761   1.884   2.916   3.855
 8272TIP3    H224762   1.744   2.937   3.800
 8273TIP3   OH224763   1.702   3.145   2.944
 8273TIP3    H124764   1.780   3.146   3.000
 8273TIP3    H224765   1.737   3.148   2.855
 8274TIP3   OH224766   3.287   5.505   5.886
 8274TIP3    H124767   3.234   5.563   5.830
 8274TIP3    H224768   3.261   5.527   5.975
 8275TIP3   OH224769   3.836   4.735   6.252
 8275TIP3    H124770   3.901   4.669   6.278
 8275TIP3    H224771   3.878   4.784   6.182
 8276TIP3   OH224772   4.914   2.455   6.631
 8276TIP3    H124773   5.010   2.455   6.629
 8276TIP3    H224774   4.888   2.480   6.542
 8277TIP3   OH224775   2.192   2.360   5.724
 8277TIP3    H124776   2.158   2.332   5.809
 8277TIP3    H224777   2.265   2.419   5.745
 8278TIP3   OH224778   1.733   4.395   6.067
 8278TIP3    H124779   1.659   4.431   6.116
 8278TIP3    H224780   1.699   4.378   5.980
 8279TIP3   OH224781   6.622   5.651   0.068
 8279TIP3    H124782   6.629   5.563   0.104
 8279TIP3    H224783   6.544   5.647   0.011
 8280TIP3   OH224784   0.842   5.133   3.528
 8280TIP3    H124785   0.798   5.209   3.568
 8280TIP3    H224786   0.935   5.147   3.545
 8281TIP3   OH224787   7.274   2.750   0.563
 8281TIP3    H124788   7.205   2.807   0.598
 8281TIP3    H224789   7.328   2.809   0.510
 8282TIP3   OH224790   6.931   7.051   0.751
 8282TIP3    H124791   6.866   7.059   0.682
 8282TIP3    H224792   7.014   7.038   0.705
 8283TIP3   OH224793   6.102   7.453   6.788
 8283TIP3    H124794   6.079   7.414   6.704
 8283TIP3    H224795   6.129   7.380   6.843
 8284TIP3   OH224796   1.658   3.054   5.801
 8284TIP3    H124797   1.584   3.042   5.742
 8284TIP3    H224798   1.733   3.068   5.743
 8285TIP3   OH224799   8.035   6.264   0.789
 8285TIP3    H124800   7.987   6.279   0.871
 8285TIP3    H224801   7.978   6.207   0.738
 8286TIP3   OH224802   8.132   2.259   2.295
 8286TIP3    H124803   8.169   2.332   2.245
 8286TIP3    H224804   8.202   2.234   2.356
 8287TIP3   OH224805   7.021   1.244   4.000
 8287TIP3    H124806   6.936   1.233   3.958
 8287TIP3    H224807   7.072   1.296   3.938
 8288TIP3   OH224808   1.072   7.772   5.906
 8288TIP3    H124809   1.048   7.810   5.822
 8288TIP3    H224810   1.008   7.702   5.920
 8289TIP3   OH224811   2.397   1.652   5.951
 8289TIP3    H124812   2.317   1.648   6.003
 8289TIP3    H224813   2.467   1.637   6.014
 8290TIP3   OH224814   1.012   6.418   2.361
 8290TIP3    H124815   1.085   6.459   2.315
 8290TIP3    H224816   0.936   6.472   2.339
 8291TIP3   OH224817   7.818   4.530   2.431
 8291TIP3    H124818   7.794   4.441   2.459
 8291TIP3    H224819   7.734   4.577   2.428
 8292TIP3   OH224820   4.055   7.507   3.006
 8292TIP3    H124821   4.067   7.422   3.049
 8292TIP3    H224822   3.995   7.555   3.064
 8293TIP3   OH224823   2.293   4.319   1.853
 8293TIP3    H124824   2.211   4.312   1.804
 8293TIP3    H224825   2.299   4.236   1.900
 8294TIP3   OH224826   5.552   2.892   0.190
 8294TIP3    H124827   5.501   2.953   0.243
 8294TIP3    H224828   5.576   2.822   0.251
 8295TIP3   OH224829   0.463   4.278   4.665
 8295TIP3    H124830   0.442   4.185   4.673
 8295TIP3    H224831   0.417   4.306   4.586
 8296TIP3   OH224832   6.813   4.586   2.079
 8296TIP3    H124833   6.746   4.651   2.100
 8296TIP3    H224834   6.801   4.568   1.986
 8297TIP3   OH224835   4.691   4.499   3.951
 8297TIP3    H124836   4.642   4.439   4.006
 8297TIP3    H224837   4.652   4.584   3.967
 8298TIP3   OH224838   2.030   4.986   6.569
 8298TIP3    H124839   1.946   4.981   6.614
 8298TIP3    H224840   2.007   4.984   6.476
 8299TIP3   OH224841   0.226   3.470   5.828
 8299TIP3    H124842   0.230   3.384   5.785
 8299TIP3    H224843   0.138   3.502   5.809
 8300TIP3   OH224844   4.179   2.594   6.109
 8300TIP3    H124845   4.085   2.582   6.120
 8300TIP3    H224846   4.188   2.646   6.029
 8301TIP3   OH224847   6.389   4.261   0.119
 8301TIP3    H124848   6.410   4.283   0.028
 8301TIP3    H224849   6.395   4.344   0.165
 8302TIP3   OH224850   6.002   2.804   5.039
 8302TIP3    H124851   6.059   2.833   4.967
 8302TIP3    H224852   5.989   2.711   5.023
 8303TIP3   OH224853   7.576   4.021   6.015
 8303TIP3    H124854   7.503   3.975   5.974
 8303TIP3    H224855   7.534   4.081   6.077
 8304TIP3   OH224856   7.439   2.435   0.088
 8304TIP3    H124857   7.381   2.450   0.014
 8304TIP3    H224858   7.391   2.372   0.143
 8305TIP3   OH224859   0.480   6.420   5.428
 8305TIP3    H124860   0.520   6.350   5.480
 8305TIP3    H224861   0.546   6.442   5.363
 8306TIP3   OH224862   2.760   3.294   3.306
 8306TIP3    H124863   2.850   3.269   3.288
 8306TIP3    H224864   2.763   3.389   3.320
 8307TIP3   OH224865   6.217   1.115   5.102
 8307TIP3    H124866   6.258   1.168   5.170
 8307TIP3    H224867   6.150   1.064   5.148
 8308TIP3   OH224868   6.075   4.400   1.533
 8308TIP3    H124869   6.024   4.332   1.489
 8308TIP3    H224870   6.146   4.420   1.472
 8309TIP3   OH224871   4.515   7.616   4.371
 8309TIP3    H124872   4.503   7.637   4.279
 8309TIP3    H224873   4.436   7.649   4.414
 8310TIP3   OH224874   0.274   0.486   5.577
 8310TIP3    H124875   0.287   0.497   5.483
 8310TIP3    H224876   0.264   0.392   5.590
 8311TIP3   OH224877   6.413   5.487   3.948
 8311TIP3    H124878   6.428   5.411   3.891
 8311TIP3    H224879   6.384   5.556   3.888
 8312TIP3   OH224880   2.263   0.917   3.229
 8312TIP3    H124881   2.230   0.850   3.289
 8312TIP3    H224882   2.358   0.905   3.231
 8313TIP3   OH224883   5.471   4.616   0.612
 8313TIP3    H124884   5.474   4.606   0.517
 8313TIP3    H224885   5.391   4.667   0.627
 8314TIP3   OH224886   6.632   2.809   3.315
 8314TIP3    H124887   6.573   2.756   3.369
 8314TIP3    H224888   6.701   2.836   3.376
 8315TIP3   OH224889   6.888   2.942   4.516
 8315TIP3    H124890   6.978   2.911   4.528
 8315TIP3    H224891   6.858   2.962   4.604
 8316TIP3   OH224892   5.195   6.854   2.170
 8316TIP3    H124893   5.109   6.849   2.128
 8316TIP3    H224894   5.177   6.842   2.263
 8317TIP3   OH224895   0.733   7.613   0.615
 8317TIP3    H124896   0.780   7.637   0.536
 8317TIP3    H224897   0.783   7.653   0.686
 8318TIP3   OH224898   0.719   1.018   5.390
 8318TIP3    H124899   0.736   0.925   5.404
 8318TIP3    H224900   0.798   1.049   5.345
 8319TIP3   OH224901   5.436   4.611   1.493
 8319TIP3    H124902   5.357   4.651   1.530
 8319TIP3    H224903   5.495   4.685   1.477
 8320TIP3   OH224904   6.481   4.887   5.523
 8320TIP3    H124905   6.502   4.797   5.548
 8320TIP3    H224906   6.386   4.887   5.512
 8321TIP3   OH224907   5.094   7.177   3.833
 8321TIP3    H124908   5.105   7.247   3.769
 8321TIP3    H224909   5.179   7.134   3.837
 8322TIP3   OH224910   1.483   3.690   3.326
 8322TIP3    H124911   1.551   3.754   3.343
 8322TIP3    H224912   1.483   3.632   3.402
 8323TIP3   OH224913   4.217   1.754   6.503
 8323TIP3    H124914   4.141   1.790   6.549
 8323TIP3    H224915   4.186   1.670   6.469
 8324TIP3   OH224916   7.101   3.180   5.301
 8324TIP3    H124917   7.099   3.084   5.303
 8324TIP3    H224918   7.079   3.206   5.391
 8325TIP3   OH224919   2.644   0.171   4.506
 8325TIP3    H124920   2.714   0.185   4.442
 8325TIP3    H224921   2.648   0.078   4.527
 8326TIP3   OH224922   6.193   7.538   3.585
 8326TIP3    H124923   6.175   7.481   3.510
 8326TIP3    H224924   6.276   7.505   3.621
 8327TIP3   OH224925   6.715   4.641   6.613
 8327TIP3    H124926   6.787   4.587   6.578
 8327TIP3    H224927   6.713   4.621   6.706
 8328TIP3   OH224928   1.221   6.865   2.104
 8328TIP3    H124929   1.248   6.907   2.022
 8328TIP3    H224930   1.202   6.938   2.163
 8329TIP3   OH224931   7.800   2.862   0.551
 8329TIP3    H124932   7.786   2.949   0.514
 8329TIP3    H224933   7.875   2.828   0.503
 8330TIP3   OH224934   2.574   3.897   3.538
 8330TIP3    H124935   2.558   3.832   3.606
 8330TIP3    H224936   2.646   3.951   3.571
 8331TIP3   OH224937   0.378   7.035   0.880
 8331TIP3    H124938   0.412   7.052   0.792
 8331TIP3    H224939   0.453   7.001   0.928
 8332TIP3   OH224940   0.334   0.640   1.597
 8332TIP3    H124941   0.363   0.549   1.603
 8332TIP3    H224942   0.253   0.643   1.648
 8333TIP3   OH224943   5.100   5.690   4.241
 8333TIP3    H124944   5.099   5.771   4.189
 8333TIP3    H224945   5.174   5.701   4.301
 8334TIP3   OH224946   4.668   6.657   4.235
 8334TIP3    H124947   4.673   6.620   4.323
 8334TIP3    H224948   4.721   6.598   4.181
 8335TIP3   OH224949   7.781   5.838   2.970
 8335TIP3    H124950   7.747   5.749   2.977
 8335TIP3    H224951   7.836   5.849   3.047
 8336TIP3   OH224952   2.861   6.535   6.352
 8336TIP3    H124953   2.838   6.447   6.323
 8336TIP3    H224954   2.945   6.524   6.396
 8337TIP3   OH224955   3.975   4.552   4.233
 8337TIP3    H124956   3.979   4.630   4.176
 8337TIP3    H224957   3.901   4.569   4.291
 8338TIP3   OH224958   5.257   1.584   0.648
 8338TIP3    H124959   5.346   1.590   0.682
 8338TIP3    H224960   5.248   1.660   0.590
 8339TIP3   OH224961   2.378   7.422   0.101
 8339TIP3    H124962   2.305   7.459   0.150
 8339TIP3    H224963   2.453   7.477   0.124
 8340TIP3   OH224964   6.267   4.573   5.937
 8340TIP3    H124965   6.210   4.648   5.921
 8340TIP3    H224966   6.355   4.605   5.915
 8341TIP3   OH224967   8.240   3.153   3.938
 8341TIP3    H124968   8.276   3.242   3.945
 8341TIP3    H224969   8.316   3.097   3.923
 8342TIP3   OH224970   3.050   5.074   3.048
 8342TIP3    H124971   3.109   5.031   2.986
 8342TIP3    H224972   3.106   5.103   3.119
 8343TIP3   OH224973   3.831   3.397   5.422
 8343TIP3    H124974   3.769   3.402   5.495
 8343TIP3    H224975   3.903   3.455   5.448
 8344TIP3   OH224976   6.542   1.837   3.823
 8344TIP3    H124977   6.502   1.805   3.905
 8344TIP3    H224978   6.596   1.911   3.851
 8345TIP3   OH224979   1.234   4.276   0.608
 8345TIP3    H124980   1.303   4.342   0.608
 8345TIP3    H224981   1.236   4.239   0.696
 8346TIP3   OH224982   3.763   5.568   3.262
 8346TIP3    H124983   3.725   5.564   3.174
 8346TIP3    H224984   3.843   5.620   3.251
 8347TIP3   OH224985   1.508   1.560   2.908
 8347TIP3    H124986   1.521   1.471   2.875
 8347TIP3    H224987   1.416   1.562   2.934
 8348TIP3   OH224988   7.727   4.501   1.825
 8348TIP3    H124989   7.672   4.545   1.760
 8348TIP3    H224990   7.815   4.504   1.788
 8349TIP3   OH224991   3.820   4.219   2.616
 8349TIP3    H124992   3.901   4.248   2.657
 8349TIP3    H224993   3.799   4.136   2.659
 8350TIP3   OH224994   6.699   4.745   0.752
 8350TIP3    H124995   6.761   4.673   0.766
 8350TIP3    H224996   6.633   4.732   0.820
 8351TIP3   OH224997   3.821   4.665   2.688
 8351TIP3    H124998   3.742   4.613   2.705
 8351TIP3    H224999   3.891   4.601   2.678
 8352TIP3   OH225000   5.317   5.409   2.752
 8352TIP3    H125001   5.338   5.490   2.798
 8352TIP3    H225002   5.256   5.364   2.810
 8353TIP3   OH225003   1.228   6.921   5.322
 8353TIP3    H125004   1.312   6.879   5.341
 8353TIP3    H225005   1.199   6.956   5.407
 8354TIP3   OH225006   8.249   5.746   1.781
 8354TIP3    H125007   8.189   5.718   1.851
 8354TIP3    H225008   8.335   5.715   1.810
 8355TIP3   OH225009   1.003   3.131   0.830
 8355TIP3    H125010   1.033   3.040   0.827
 8355TIP3    H225011   1.083   3.182   0.847
 8356TIP3   OH225012   1.738   2.793   2.999
 8356TIP3    H125013   1.705   2.725   3.058
 8356TIP3    H225014   1.803   2.839   3.052
 8357TIP3   OH225015   5.486   4.196   1.041
 8357TIP3    H125016   5.481   4.290   1.026
 8357TIP3    H225017   5.470   4.186   1.135
 8358TIP3   OH225018   2.464   6.763   0.545
 8358TIP3    H125019   2.372   6.741   0.531
 8358TIP3    H225020   2.512   6.703   0.488
 8359TIP3   OH225021   0.886   6.020   5.593
 8359TIP3    H125022   0.905   6.047   5.683
 8359TIP3    H225023   0.806   5.968   5.600
 8360TIP3   OH225024   1.526   3.647   0.734
 8360TIP3    H125025   1.489   3.733   0.714
 8360TIP3    H225026   1.572   3.659   0.817
 8361TIP3   OH225027   6.457   5.998   4.224
 8361TIP3    H125028   6.404   6.017   4.147
 8361TIP3    H225029   6.455   5.903   4.231
 8362TIP3   OH225030   6.514   0.104   0.076
 8362TIP3    H125031   6.442   0.168   0.071
 8362TIP3    H225032   6.580   0.147   0.130
 8363TIP3   OH225033   6.963   3.171   3.453
 8363TIP3    H125034   6.958   3.257   3.411
 8363TIP3    H225035   6.877   3.158   3.492
 8364TIP3   OH225036   6.697   3.817   1.896
 8364TIP3    H125037   6.716   3.725   1.912
 8364TIP3    H225038   6.656   3.847   1.977
 8365TIP3   OH225039   2.826   1.621   2.200
 8365TIP3    H125040   2.884   1.558   2.242
 8365TIP3    H225041   2.798   1.578   2.120
 8366TIP3   OH225042   2.806   2.660   1.658
 8366TIP3    H125043   2.860   2.651   1.736
 8366TIP3    H225044   2.787   2.753   1.652
 8367TIP3   OH225045   4.460   0.779   5.843
 8367TIP3    H125046   4.536   0.768   5.900
 8367TIP3    H225047   4.385   0.778   5.902
 8368TIP3   OH225048   6.680   1.603   6.391
 8368TIP3    H125049   6.774   1.609   6.409
 8368TIP3    H225050   6.647   1.542   6.457
 8369TIP3   OH225051   7.387   6.873   1.325
 8369TIP3    H125052   7.371   6.780   1.313
 8369TIP3    H225053   7.336   6.896   1.402
 8370TIP3   OH225054   3.410   2.368   3.141
 8370TIP3    H125055   3.340   2.326   3.192
 8370TIP3    H225056   3.451   2.429   3.201
 8371TIP3   OH225057   2.064   4.172   4.925
 8371TIP3    H125058   1.981   4.220   4.925
 8371TIP3    H225059   2.130   4.239   4.904
 8372TIP3   OH225060   3.699   3.693   5.225
 8372TIP3    H125061   3.742   3.743   5.155
 8372TIP3    H225062   3.646   3.757   5.271
 8373TIP3   OH225063   6.476   6.368   6.691
 8373TIP3    H125064   6.518   6.282   6.691
 8373TIP3    H225065   6.531   6.421   6.633
 8374TIP3   OH225066   0.507   2.870   5.970
 8374TIP3    H125067   0.453   2.791   5.965
 8374TIP3    H225068   0.470   2.919   6.043
 8375TIP3   OH225069   6.014   7.557   6.382
 8375TIP3    H125070   5.939   7.615   6.396
 8375TIP3    H225071   6.012   7.496   6.456
 8376TIP3   OH225072   0.895   2.227   0.875
 8376TIP3    H125073   0.872   2.313   0.910
 8376TIP3    H225074   0.958   2.192   0.939
 8377TIP3   OH225075   2.656   1.653   5.757
 8377TIP3    H125076   2.593   1.582   5.769
 8377TIP3    H225077   2.727   1.633   5.817
 8378TIP3   OH225078   2.614   1.253   2.092
 8378TIP3    H125079   2.663   1.336   2.088
 8378TIP3    H225080   2.574   1.254   2.179
 8379TIP3   OH225081   4.094   2.458   3.732
 8379TIP3    H125082   4.005   2.476   3.762
 8379TIP3    H225083   4.085   2.442   3.638
 8380TIP3   OH225084   6.814   2.041   0.815
 8380TIP3    H125085   6.854   1.975   0.872
 8380TIP3    H225086   6.863   2.035   0.733
 8381TIP3   OH225087   4.520   1.139   5.408
 8381TIP3    H125088   4.498   1.078   5.339
 8381TIP3    H225089   4.446   1.134   5.469
 8382TIP3   OH225090   6.590   6.289   5.514
 8382TIP3    H125091   6.661   6.265   5.454
 8382TIP3    H225092   6.630   6.284   5.601
 8383TIP3   OH225093   4.750   1.143   3.746
 8383TIP3    H125094   4.694   1.103   3.680
 8383TIP3    H225095   4.839   1.125   3.716
 8384TIP3   OH225096   2.756   6.190   1.607
 8384TIP3    H125097   2.676   6.169   1.655
 8384TIP3    H225098   2.827   6.155   1.660
 8385TIP3   OH225099   7.891   3.372   2.684
 8385TIP3    H125100   7.832   3.355   2.610
 8385TIP3    H225101   7.948   3.443   2.653
 8386TIP3   OH225102   7.787   5.749   6.312
 8386TIP3    H125103   7.748   5.664   6.294
 8386TIP3    H225104   7.720   5.812   6.288
 8387TIP3   OH225105   4.051   1.901   1.253
 8387TIP3    H125106   4.091   1.971   1.304
 8387TIP3    H225107   4.038   1.830   1.316
 8388TIP3   OH225108   2.176   1.996   1.475
 8388TIP3    H125109   2.228   1.925   1.513
 8388TIP3    H225110   2.238   2.069   1.465
 8389TIP3   OH225111   8.268   2.194   1.445
 8389TIP3    H125112   8.205   2.171   1.512
 8389TIP3    H225113   8.251   2.133   1.373
 8390TIP3   OH225114   0.677   4.929   3.469
 8390TIP3    H125115   0.720   4.844   3.458
 8390TIP3    H225116   0.745   4.993   3.450
 8391TIP3   OH225117   1.475   3.649   5.764
 8391TIP3    H125118   1.413   3.715   5.794
 8391TIP3    H225119   1.469   3.579   5.830
 8392TIP3   OH225120   1.113   2.491   6.259
 8392TIP3    H125121   1.057   2.447   6.324
 8392TIP3    H225122   1.055   2.554   6.217
 8393TIP3   OH225123   7.453   7.568   1.184
 8393TIP3    H125124   7.362   7.543   1.168
 8393TIP3    H225125   7.485   7.502   1.245
 8394TIP3   OH225126   1.189   6.552   5.391
 8394TIP3    H125127   1.136   6.630   5.373
 8394TIP3    H225128   1.200   6.553   5.486
 8395TIP3   OH225129   5.440   7.766   4.326
 8395TIP3    H125130   5.419   7.852   4.361
 8395TIP3    H225131   5.512   7.782   4.264
 8396TIP3   OH225132   5.858   7.653   2.985
 8396TIP3    H125133   5.932   7.710   3.007
 8396TIP3    H225134   5.891   7.564   3.000
 8397TIP3   OH225135   2.660   7.431   3.317
 8397TIP3    H125136   2.701   7.352   3.282
 8397TIP3    H225137   2.676   7.427   3.412
 8398TIP3   OH225138   4.114   1.466   1.789
 8398TIP3    H125139   4.036   1.519   1.808
 8398TIP3    H225140   4.187   1.518   1.821
 8399TIP3   OH225141   3.060   4.162   2.317
 8399TIP3    H125142   3.126   4.147   2.249
 8399TIP3    H225143   3.110   4.172   2.397
 8400TIP3   OH225144   3.901   3.462   5.042
 8400TIP3    H125145   3.924   3.514   4.965
 8400TIP3    H225146   3.920   3.519   5.116
 8401TIP3   OH225147   4.515   5.064   5.485
 8401TIP3    H125148   4.511   5.053   5.390
 8401TIP3    H225149   4.483   4.981   5.520
 8402TIP3   OH225150   1.304   4.708   5.575
 8402TIP3    H125151   1.291   4.800   5.552
 8402TIP3    H225152   1.286   4.661   5.494
 8403TIP3   OH225153   2.454   3.359   6.510
 8403TIP3    H125154   2.382   3.404   6.465
 8403TIP3    H225155   2.507   3.431   6.546
 8404TIP3   OH225156   2.487   0.490   2.379
 8404TIP3    H125157   2.538   0.571   2.385
 8404TIP3    H225158   2.409   0.514   2.328
 8405TIP3   OH225159   0.928   3.170   3.200
 8405TIP3    H125160   0.838   3.161   3.231
 8405TIP3    H225161   0.922   3.234   3.129
 8406TIP3   OH225162   8.206   1.137   5.280
 8406TIP3    H125163   8.188   1.058   5.229
 8406TIP3    H225164   8.277   1.113   5.339
 8407TIP3   OH225165   2.957   2.371   2.764
 8407TIP3    H125166   2.914   2.457   2.767
 8407TIP3    H225167   3.014   2.370   2.841
 8408TIP3   OH225168   0.985   4.574   4.839
 8408TIP3    H125169   0.960   4.544   4.752
 8408TIP3    H225170   0.902   4.590   4.884
 8409TIP3   OH225171   2.241   1.754   1.639
 8409TIP3    H125172   2.152   1.733   1.610
 8409TIP3    H225173   2.229   1.796   1.724
 8410TIP3   OH225174   6.384   2.609   3.320
 8410TIP3    H125175   6.366   2.692   3.364
 8410TIP3    H225176   6.432   2.558   3.385
 8411TIP3   OH225177   4.836   6.559   0.028
 8411TIP3    H125178   4.874   6.479  -0.008
 8411TIP3    H225179   4.846   6.551   0.123
 8412TIP3   OH225180   6.517   7.022   3.511
 8412TIP3    H125181   6.557   7.082   3.448
 8412TIP3    H225182   6.579   6.950   3.518
 8413TIP3   OH225183   1.900   5.412   1.038
 8413TIP3    H125184   1.979   5.396   1.089
 8413TIP3    H225185   1.919   5.492   0.988
 8414TIP3   OH225186   6.586   4.546   4.739
 8414TIP3    H125187   6.525   4.616   4.716
 8414TIP3    H225188   6.575   4.535   4.834
 8415TIP3   OH225189   3.113   4.734   4.069
 8415TIP3    H125190   3.124   4.703   4.158
 8415TIP3    H225191   3.197   4.775   4.047
 8416TIP3   OH225192   6.135   4.992   2.526
 8416TIP3    H125193   6.044   5.015   2.546
 8416TIP3    H225194   6.129   4.932   2.451
 8417TIP3   OH225195   2.776   2.265   4.411
 8417TIP3    H125196   2.716   2.190   4.403
 8417TIP3    H225197   2.855   2.237   4.363
 8418TIP3   OH225198   4.430   0.523   4.662
 8418TIP3    H125199   4.523   0.544   4.648
 8418TIP3    H225200   4.431   0.431   4.690
 8419TIP3   OH225201   2.968   0.461   4.002
 8419TIP3    H125202   3.008   0.547   3.988
 8419TIP3    H225203   2.936   0.463   4.092
 8420TIP3   OH225204   3.463   1.684   5.541
 8420TIP3    H125205   3.513   1.637   5.474
 8420TIP3    H225206   3.463   1.775   5.513
 8421TIP3   OH225207   4.310   5.562   4.754
 8421TIP3    H125208   4.405   5.563   4.765
 8421TIP3    H225209   4.290   5.474   4.722
 8422TIP3   OH225210   4.914   4.642   1.513
 8422TIP3    H125211   4.844   4.611   1.455
 8422TIP3    H225212   4.995   4.619   1.467
 8423TIP3   OH225213   4.366   6.995   1.073
 8423TIP3    H125214   4.432   6.941   1.030
 8423TIP3    H225215   4.359   6.959   1.161
 8424TIP3   OH225216   7.644   5.340   1.275
 8424TIP3    H125217   7.696   5.368   1.200
 8424TIP3    H225218   7.557   5.324   1.240
 8425TIP3   OH225219   0.567   0.562   6.433
 8425TIP3    H125220   0.542   0.487   6.486
 8425TIP3    H225221   0.626   0.527   6.367
 8426TIP3   OH225222   7.516   2.436   5.825
 8426TIP3    H125223   7.581   2.465   5.761
 8426TIP3    H225224   7.449   2.504   5.824
 8427TIP3   OH225225   1.275   6.159   3.818
 8427TIP3    H125226   1.231   6.094   3.874
 8427TIP3    H225227   1.238   6.243   3.846
 8428TIP3   OH225228   0.442   3.198   2.836
 8428TIP3    H125229   0.391   3.267   2.878
 8428TIP3    H225230   0.380   3.154   2.778
 8429TIP3   OH225231   0.613   6.267   3.289
 8429TIP3    H125232   0.594   6.183   3.329
 8429TIP3    H225233   0.704   6.261   3.260
 8430TIP3   OH225234   8.022   7.753   1.317
 8430TIP3    H125235   7.945   7.810   1.310
 8430TIP3    H225236   7.991   7.667   1.287
 8431TIP3   OH225237   6.904   4.909   5.014
 8431TIP3    H125238   6.911   4.814   5.007
 8431TIP3    H225239   6.811   4.928   5.000
 8432TIP3   OH225240   6.273   0.549   6.594
 8432TIP3    H125241   6.347   0.609   6.603
 8432TIP3    H225242   6.312   0.462   6.601
 8433TIP3   OH225243   7.513   7.332   0.065
 8433TIP3    H125244   7.566   7.257   0.092
 8433TIP3    H225245   7.458   7.298  -0.005
 8434TIP3   OH225246   6.187   0.201   4.556
 8434TIP3    H125247   6.234   0.132   4.509
 8434TIP3    H225248   6.228   0.204   4.642
 8435TIP3   OH225249   5.120   2.696   4.736
 8435TIP3    H125250   5.212   2.715   4.750
 8435TIP3    H225251   5.094   2.755   4.664
 8436TIP3   OH225252   2.812   1.931   2.272
 8436TIP3    H125253   2.794   1.838   2.275
 8436TIP3    H225254   2.747   1.967   2.211
 8437TIP3   OH225255   7.654   3.507   6.330
 8437TIP3    H125256   7.684   3.451   6.259
 8437TIP3    H225257   7.606   3.578   6.287
 8438TIP3   OH225258   7.103   4.052   2.071
 8438TIP3    H125259   7.151   4.099   2.139
 8438TIP3    H225260   7.167   3.992   2.033
 8439TIP3   OH225261   5.853   4.167   4.057
 8439TIP3    H125262   5.766   4.166   4.099
 8439TIP3    H225263   5.835   4.192   3.966
 8440TIP3   OH225264   6.152   6.908   5.413
 8440TIP3    H125265   6.133   6.929   5.504
 8440TIP3    H225266   6.075   6.939   5.364
 8441TIP3   OH225267   7.137   3.661   0.409
 8441TIP3    H125268   7.118   3.572   0.380
 8441TIP3    H225269   7.064   3.713   0.375
 8442TIP3   OH225270   2.044   0.781   5.267
 8442TIP3    H125271   1.971   0.831   5.230
 8442TIP3    H225272   2.007   0.739   5.345
 8443TIP3   OH225273   0.098   0.396   1.085
 8443TIP3    H125274   0.129   0.473   1.133
 8443TIP3    H225275   0.110   0.418   0.993
 8444TIP3   OH225276   0.730   6.364   4.218
 8444TIP3    H125277   0.804   6.349   4.278
 8444TIP3    H225278   0.659   6.313   4.256
 8445TIP3   OH225279   5.414   4.469   2.323
 8445TIP3    H125280   5.332   4.510   2.298
 8445TIP3    H225281   5.467   4.540   2.361
 8446TIP3   OH225282   2.696   0.963   0.381
 8446TIP3    H125283   2.652   0.888   0.340
 8446TIP3    H225284   2.642   0.983   0.458
 8447TIP3   OH225285   3.584   1.530   2.387
 8447TIP3    H125286   3.515   1.464   2.381
 8447TIP3    H225287   3.541   1.612   2.364
 8448TIP3   OH225288   6.608   6.582   4.660
 8448TIP3    H125289   6.675   6.636   4.617
 8448TIP3    H225290   6.642   6.565   4.747
 8449TIP3   OH225291   0.025   1.029   3.357
 8449TIP3    H125292   0.055   1.105   3.308
 8449TIP3    H225293  -0.030   0.981   3.296
 8450TIP3   OH225294   0.978   0.687   0.774
 8450TIP3    H125295   0.998   0.765   0.722
 8450TIP3    H225296   0.962   0.721   0.862
 8451TIP3   OH225297   3.036   5.847   4.061
 8451TIP3    H125298   2.983   5.779   4.020
 8451TIP3    H225299   3.125   5.814   4.057
 8452TIP3   OH225300   2.511   3.925   4.159
 8452TIP3    H125301   2.600   3.961   4.159
 8452TIP3    H225302   2.465   3.977   4.225
 8453TIP3   OH225303   6.794   3.699   3.648
 8453TIP3    H125304   6.840   3.699   3.732
 8453TIP3    H225305   6.707   3.665   3.668
 8454TIP3   OH225306   3.797   2.391   1.961
 8454TIP3    H125307   3.882   2.361   1.929
 8454TIP3    H225308   3.740   2.315   1.955
 8455TIP3   OH225309   4.144   5.597   6.113
 8455TIP3    H125310   4.179   5.677   6.151
 8455TIP3    H225311   4.129   5.618   6.021
 8456TIP3   OH225312   6.122   6.524   0.570
 8456TIP3    H125313   6.185   6.535   0.642
 8456TIP3    H225314   6.105   6.612   0.539
 8457TIP3   OH225315   1.257   6.322   4.438
 8457TIP3    H125316   1.265   6.412   4.407
 8457TIP3    H225317   1.341   6.282   4.417
 8458TIP3   OH225318   4.152   4.815   6.360
 8458TIP3    H125319   4.072   4.840   6.314
 8458TIP3    H225320   4.205   4.769   6.295
 8459TIP3   OH225321   2.797   6.244   5.479
 8459TIP3    H125322   2.726   6.259   5.542
 8459TIP3    H225323   2.753   6.203   5.404
 8460TIP3   OH225324   7.924   2.583   5.083
 8460TIP3    H125325   7.974   2.586   5.002
 8460TIP3    H225326   7.846   2.531   5.061
 8461TIP3   OH225327   7.807   4.126   3.857
 8461TIP3    H125328   7.751   4.050   3.843
 8461TIP3    H225329   7.838   4.149   3.769
 8462TIP3   OH225330   0.723   3.495   4.469
 8462TIP3    H125331   0.748   3.541   4.549
 8462TIP3    H225332   0.797   3.509   4.409
 8463TIP3   OH225333   2.770   3.925   1.980
 8463TIP3    H125334   2.847   3.868   1.985
 8463TIP3    H225335   2.784   3.990   2.049
 8464TIP3   OH225336   4.465   2.602   1.218
 8464TIP3    H125337   4.539   2.645   1.174
 8464TIP3    H225338   4.417   2.674   1.259
 8465TIP3   OH225339   2.608   0.094   4.143
 8465TIP3    H125340   2.586   0.007   4.177
 8465TIP3    H225341   2.524   0.134   4.123
 8466TIP3   OH225342   6.367   5.910   0.254
 8466TIP3    H125343   6.318   5.917   0.336
 8466TIP3    H225344   6.299   5.905   0.187
 8467TIP3   OH225345   2.622   3.519   1.570
 8467TIP3    H125346   2.658   3.431   1.583
 8467TIP3    H225347   2.605   3.552   1.658
 8468TIP3   OH225348   0.036   2.183   4.560
 8468TIP3    H125349   0.089   2.194   4.639
 8468TIP3    H225350   0.002   2.094   4.565
 8469TIP3   OH225351   4.074   7.131   6.627
 8469TIP3    H125352   4.116   7.196   6.684
 8469TIP3    H225353   4.103   7.155   6.539
 8470TIP3   OH225354   7.132   7.727   4.169
 8470TIP3    H125355   7.091   7.813   4.156
 8470TIP3    H225356   7.060   7.665   4.167
 8471TIP3   OH225357   4.585   4.744   2.932
 8471TIP3    H125358   4.662   4.799   2.923
 8471TIP3    H225359   4.519   4.786   2.876
 8472TIP3   OH225360   4.913   1.058   4.500
 8472TIP3    H125361   5.006   1.063   4.479
 8472TIP3    H225362   4.868   1.086   4.421
 8473TIP3   OH225363   0.994   4.009   2.339
 8473TIP3    H125364   0.919   3.950   2.348
 8473TIP3    H225365   0.992   4.062   2.420
 8474TIP3   OH225366   4.994   1.362   5.465
 8474TIP3    H125367   4.915   1.323   5.427
 8474TIP3    H225368   4.982   1.456   5.456
 8475TIP3   OH225369   4.917   3.595   3.721
 8475TIP3    H125370   4.914   3.680   3.767
 8475TIP3    H225371   5.008   3.566   3.731
 8476TIP3   OH225372   3.001   5.383   1.990
 8476TIP3    H125373   3.012   5.348   2.079
 8476TIP3    H225374   3.085   5.367   1.948
 8477TIP3   OH225375   2.804   4.659   6.435
 8477TIP3    H125376   2.718   4.700   6.424
 8477TIP3    H225377   2.813   4.645   6.529
 8478TIP3   OH225378   5.240   2.239   3.269
 8478TIP3    H125379   5.170   2.236   3.203
 8478TIP3    H225380   5.319   2.215   3.221
 8479TIP3   OH225381   3.675   1.004   2.175
 8479TIP3    H125382   3.644   1.012   2.085
 8479TIP3    H225383   3.745   0.939   2.170
 8480TIP3   OH225384   4.094   7.597   5.444
 8480TIP3    H125385   3.999   7.604   5.454
 8480TIP3    H225386   4.120   7.680   5.404
 8481TIP3   OH225387   6.958   2.069   3.709
 8481TIP3    H125388   7.014   2.050   3.634
 8481TIP3    H225389   7.008   2.133   3.760
 8482TIP3   OH225390   3.359   4.747   4.442
 8482TIP3    H125391   3.374   4.657   4.413
 8482TIP3    H225392   3.350   4.741   4.537
 8483TIP3   OH225393   7.751   3.447   5.304
 8483TIP3    H125394   7.810   3.441   5.229
 8483TIP3    H225395   7.667   3.412   5.271
 8484TIP3   OH225396   3.848   1.337   2.996
 8484TIP3    H125397   3.881   1.394   3.066
 8484TIP3    H225398   3.759   1.314   3.023
 8485TIP3   OH225399   4.239   4.590   2.167
 8485TIP3    H125400   4.150   4.568   2.140
 8485TIP3    H225401   4.289   4.509   2.157
 8486TIP3   OH225402   6.282   3.132   5.751
 8486TIP3    H125403   6.283   3.056   5.693
 8486TIP3    H225404   6.190   3.155   5.760
 8487TIP3   OH225405   5.848   5.186   4.959
 8487TIP3    H125406   5.769   5.232   4.989
 8487TIP3    H225407   5.883   5.147   5.039
 8488TIP3   OH225408   5.091   6.942   6.480
 8488TIP3    H125409   5.182   6.969   6.470
 8488TIP3    H225410   5.096   6.860   6.528
 8489TIP3   OH225411   0.526   2.518   5.961
 8489TIP3    H125412   0.597   2.537   5.900
 8489TIP3    H225413   0.552   2.437   6.005
 8490TIP3   OH225414   7.304   0.395   0.484
 8490TIP3    H125415   7.317   0.438   0.400
 8490TIP3    H225416   7.294   0.302   0.462
 8491TIP3   OH225417   6.219   5.819   3.990
 8491TIP3    H125418   6.210   5.737   3.941
 8491TIP3    H225419   6.240   5.792   4.079
 8492TIP3   OH225420   3.242   6.498   2.121
 8492TIP3    H125421   3.224   6.407   2.097
 8492TIP3    H225422   3.178   6.549   2.070
 8493TIP3   OH225423   2.411   5.700   1.290
 8493TIP3    H125424   2.386   5.778   1.339
 8493TIP3    H225425   2.486   5.665   1.337
 8494TIP3   OH225426   0.850   6.625   6.193
 8494TIP3    H125427   0.835   6.694   6.128
 8494TIP3    H225428   0.799   6.550   6.162
 8495TIP3   OH225429   6.167   1.353   1.365
 8495TIP3    H125430   6.079   1.316   1.365
 8495TIP3    H225431   6.182   1.381   1.455
 8496TIP3   OH225432   5.686   1.826   2.088
 8496TIP3    H125433   5.644   1.759   2.142
 8496TIP3    H225434   5.616   1.858   2.031
 8497TIP3   OH225435   6.617   4.392   0.938
 8497TIP3    H125436   6.575   4.369   0.856
 8497TIP3    H225437   6.710   4.373   0.924
 8498TIP3   OH225438   3.138   4.515   1.503
 8498TIP3    H125439   3.171   4.465   1.577
 8498TIP3    H225440   3.090   4.588   1.542
 8499TIP3   OH225441   1.951   1.755   0.631
 8499TIP3    H125442   1.868   1.740   0.677
 8499TIP3    H225443   1.937   1.838   0.584
 8500TIP3   OH225444   4.845   4.898   1.576
 8500TIP3    H125445   4.873   4.933   1.491
 8500TIP3    H225446   4.874   4.807   1.575
 8501TIP3   OH225447   4.281   5.033   3.573
 8501TIP3    H125448   4.238   5.048   3.488
 8501TIP3    H225449   4.276   5.117   3.618
 8502TIP3   OH225450   6.201   4.889   5.032
 8502TIP3    H125451   6.175   4.822   5.095
 8502TIP3    H225452   6.118   4.924   4.999
 8503TIP3   OH225453   7.598   6.457   2.156
 8503TIP3    H125454   7.672   6.489   2.207
 8503TIP3    H225455   7.575   6.373   2.197
 8504TIP3   OH225456   0.666   3.246   4.548
 8504TIP3    H125457   0.627   3.267   4.632
 8504TIP3    H225458   0.705   3.329   4.519
 8505TIP3   OH225459   3.975   3.254   6.096
 8505TIP3    H125460   3.928   3.184   6.140
 8505TIP3    H225461   4.059   3.258   6.141
 8506TIP3   OH225462   3.942   4.337   0.986
 8506TIP3    H125463   3.900   4.420   0.965
 8506TIP3    H225464   3.919   4.280   0.913
 8507TIP3   OH225465   5.347   1.694   3.628
 8507TIP3    H125466   5.264   1.661   3.593
 8507TIP3    H225467   5.321   1.763   3.690
 8508TIP3   OH225468   1.720   4.333   4.136
 8508TIP3    H125469   1.736   4.240   4.148
 8508TIP3    H225470   1.699   4.366   4.224
 8509TIP3   OH225471   2.545   6.226   3.932
 8509TIP3    H125472   2.453   6.246   3.913
 8509TIP3    H225473   2.560   6.141   3.891
 8510TIP3   OH225474   0.175   2.532   2.029
 8510TIP3    H125475   0.211   2.444   2.042
 8510TIP3    H225476   0.185   2.548   1.935
 8511TIP3   OH225477   7.752   6.640   3.387
 8511TIP3    H125478   7.795   6.559   3.415
 8511TIP3    H225479   7.784   6.706   3.449
 8512TIP3   OH225480   2.703   6.800   3.803
 8512TIP3    H125481   2.679   6.738   3.872
 8512TIP3    H225482   2.711   6.746   3.725
 8513TIP3   OH225483   1.791   2.077   5.459
 8513TIP3    H125484   1.853   2.139   5.419
 8513TIP3    H225485   1.839   2.039   5.533
 8514TIP3   OH225486   3.427   4.320   2.922
 8514TIP3    H125487   3.475   4.273   2.853
 8514TIP3    H225488   3.376   4.386   2.875
 8515TIP3   OH225489   1.033   6.586   2.628
 8515TIP3    H125490   0.971   6.519   2.599
 8515TIP3    H225491   1.012   6.598   2.721
 8516TIP3   OH225492   5.630   0.114   3.646
 8516TIP3    H125493   5.630   0.178   3.575
 8516TIP3    H225494   5.537   0.097   3.662
 8517TIP3   OH225495   6.666   2.650   3.691
 8517TIP3    H125496   6.741   2.629   3.634
 8517TIP3    H225497   6.676   2.592   3.766
 8518TIP3   OH225498   5.215   1.228   6.578
 8518TIP3    H125499   5.257   1.152   6.619
 8518TIP3    H225500   5.154   1.190   6.515
 8519TIP3   OH225501   7.438   0.014   5.985
 8519TIP3    H125502   7.400   0.093   6.024
 8519TIP3    H225503   7.517   0.044   5.942
 8520TIP3   OH225504   1.573  -0.019   1.414
 8520TIP3    H125505   1.647   0.004   1.470
 8520TIP3    H225506   1.506   0.044   1.436
 8521TIP3   OH225507   6.256   3.939   2.494
 8521TIP3    H125508   6.349   3.959   2.493
 8521TIP3    H225509   6.219   4.002   2.556
 8522TIP3   OH225510   2.120   6.810   5.507
 8522TIP3    H125511   2.114   6.736   5.446
 8522TIP3    H225512   2.129   6.886   5.450
 8523TIP3   OH225513   2.915   2.127   0.582
 8523TIP3    H125514   2.831   2.172   0.591
 8523TIP3    H225515   2.939   2.140   0.490
 8524TIP3   OH225516   6.987   2.004   6.200
 8524TIP3    H125517   6.933   1.963   6.133
 8524TIP3    H225518   7.002   1.934   6.264
 8525TIP3   OH225519   4.542   3.342   3.209
 8525TIP3    H125520   4.591   3.422   3.194
 8525TIP3    H225521   4.521   3.343   3.303
 8526TIP3   OH225522   1.701   2.145   2.274
 8526TIP3    H125523   1.793   2.133   2.298
 8526TIP3    H225524   1.659   2.063   2.301
 8527TIP3   OH225525   0.046   0.855   4.099
 8527TIP3    H125526   0.108   0.928   4.096
 8527TIP3    H225527   0.041   0.833   4.192
 8528TIP3   OH225528   7.507   2.736   4.501
 8528TIP3    H125529   7.564   2.777   4.566
 8528TIP3    H225530   7.556   2.659   4.472
 8529TIP3   OH225531   0.196   5.380   3.366
 8529TIP3    H125532   0.131   5.387   3.436
 8529TIP3    H225533   0.255   5.310   3.396
 8530TIP3   OH225534   1.168   2.205   1.514
 8530TIP3    H125535   1.106   2.267   1.553
 8530TIP3    H225536   1.113   2.146   1.462
 8531TIP3   OH225537   4.926   6.324   1.365
 8531TIP3    H125538   4.901   6.232   1.355
 8531TIP3    H225539   4.979   6.343   1.288
 8532TIP3   OH225540   7.443   4.326   5.413
 8532TIP3    H125541   7.499   4.249   5.407
 8532TIP3    H225542   7.415   4.329   5.504
 8533TIP3   OH225543   6.688   5.665   1.877
 8533TIP3    H125544   6.667   5.751   1.838
 8533TIP3    H225545   6.647   5.667   1.963
 8534TIP3   OH225546   2.938   4.835   2.945
 8534TIP3    H125547   2.932   4.926   2.915
 8534TIP3    H225548   3.029   4.825   2.973
 8535TIP3   OH225549   4.509   3.373   3.874
 8535TIP3    H125550   4.571   3.412   3.812
 8535TIP3    H225551   4.472   3.448   3.921
 8536TIP3   OH225552   8.032   3.091   2.209
 8536TIP3    H125553   8.073   3.156   2.265
 8536TIP3    H225554   7.939   3.095   2.231
 8537TIP3   OH225555   7.329   3.168   4.568
 8537TIP3    H125556   7.243   3.207   4.584
 8537TIP3    H225557   7.339   3.171   4.473
 8538TIP3   OH225558   4.509   1.590   5.028
 8538TIP3    H125559   4.523   1.508   5.077
 8538TIP3    H225560   4.556   1.576   4.946
 8539TIP3   OH225561   2.162   1.288   4.830
 8539TIP3    H125562   2.152   1.195   4.807
 8539TIP3    H225563   2.234   1.289   4.893
 8540TIP3   OH225564   7.568   5.803   4.005
 8540TIP3    H125565   7.503   5.747   3.963
 8540TIP3    H225566   7.590   5.757   4.086
 8541TIP3   OH225567   0.862   2.180   3.573
 8541TIP3    H125568   0.823   2.266   3.554
 8541TIP3    H225569   0.818   2.151   3.653
 8542TIP3   OH225570   3.304   0.781   1.348
 8542TIP3    H125571   3.230   0.761   1.291
 8542TIP3    H225572   3.379   0.739   1.307
 8543TIP3   OH225573   2.859   4.350   5.041
 8543TIP3    H125574   2.825   4.429   5.085
 8543TIP3    H225575   2.903   4.383   4.963
 8544TIP3   OH225576   1.817   5.627   6.088
 8544TIP3    H125577   1.794   5.693   6.022
 8544TIP3    H225578   1.832   5.547   6.037
 8545TIP3   OH225579   6.151   5.951   2.607
 8545TIP3    H125580   6.096   5.975   2.532
 8545TIP3    H225581   6.227   5.909   2.568
 8546TIP3   OH225582   2.040   6.764   2.131
 8546TIP3    H125583   1.997   6.717   2.060
 8546TIP3    H225584   2.016   6.716   2.210
 8547TIP3   OH225585   5.572   2.454   3.157
 8547TIP3    H125586   5.544   2.363   3.147
 8547TIP3    H225587   5.663   2.448   3.185
 8548TIP3   OH225588   6.641   1.718   4.736
 8548TIP3    H125589   6.607   1.775   4.805
 8548TIP3    H225590   6.734   1.707   4.757
 8549TIP3   OH225591   4.805   3.929   2.133
 8549TIP3    H125592   4.759   4.010   2.110
 8549TIP3    H225593   4.873   3.920   2.066
 8550TIP3   OH225594   1.488   4.681   1.509
 8550TIP3    H125595   1.477   4.756   1.451
 8550TIP3    H225596   1.482   4.718   1.597
 8551TIP3   OH225597   6.302   5.723   1.014
 8551TIP3    H125598   6.324   5.630   1.010
 8551TIP3    H225599   6.247   5.732   1.092
 8552TIP3   OH225600   4.854   2.711   6.751
 8552TIP3    H125601   4.880   2.625   6.719
 8552TIP3    H225602   4.799   2.693   6.827
 8553TIP3   OH225603   7.495   4.921   5.570
 8553TIP3    H125604   7.524   4.973   5.495
 8553TIP3    H225605   7.447   4.847   5.530
 8554TIP3   OH225606   4.851   3.309   3.307
 8554TIP3    H125607   4.823   3.389   3.351
 8554TIP3    H225608   4.890   3.340   3.225
 8555TIP3   OH225609   5.353   7.635   3.458
 8555TIP3    H125610   5.405   7.565   3.419
 8555TIP3    H225611   5.267   7.627   3.417
 8556TIP3   OH225612   4.077   2.754   5.302
 8556TIP3    H125613   4.100   2.845   5.284
 8556TIP3    H225614   4.002   2.736   5.245
 8557TIP3   OH225615   4.193   6.706   3.466
 8557TIP3    H125616   4.149   6.780   3.508
 8557TIP3    H225617   4.125   6.663   3.415
 8558TIP3   OH225618   2.768   3.727   6.387
 8558TIP3    H125619   2.699   3.696   6.329
 8558TIP3    H225620   2.823   3.783   6.332
 8559TIP3   OH225621   7.793   3.866   0.954
 8559TIP3    H125622   7.797   3.882   1.048
 8559TIP3    H225623   7.875   3.822   0.933
 8560TIP3   OH225624   0.056   4.901   4.487
 8560TIP3    H125625   0.006   4.823   4.511
 8560TIP3    H225626   0.093   4.880   4.401
 8561TIP3   OH225627   7.441   6.447   0.199
 8561TIP3    H125628   7.398   6.406   0.274
 8561TIP3    H225629   7.426   6.541   0.211
 8562TIP3   OH225630   6.098   3.697   2.413
 8562TIP3    H125631   6.126   3.786   2.435
 8562TIP3    H225632   6.065   3.661   2.496
 8563TIP3   OH225633   0.969   4.648   3.059
 8563TIP3    H125634   0.926   4.613   2.981
 8563TIP3    H225635   0.955   4.743   3.053
 8564TIP3   OH225636   8.079   5.218   4.988
 8564TIP3    H125637   8.031   5.143   5.024
 8564TIP3    H225638   8.012   5.282   4.966
 8565TIP3   OH225639   7.935   7.106   0.423
 8565TIP3    H125640   7.962   7.016   0.441
 8565TIP3    H225641   7.972   7.126   0.337
 8566TIP3   OH225642   3.741   5.342   3.596
 8566TIP3    H125643   3.787   5.259   3.602
 8566TIP3    H225644   3.771   5.392   3.671
 8567TIP3   OH225645   5.309   3.607   5.610
 8567TIP3    H125646   5.253   3.665   5.559
 8567TIP3    H225647   5.373   3.574   5.547
 8568TIP3   OH225648   2.637   3.176   5.318
 8568TIP3    H125649   2.649   3.126   5.399
 8568TIP3    H225650   2.646   3.267   5.344
 8569TIP3   OH225651   2.528   3.063   2.051
 8569TIP3    H125652   2.587   2.994   2.022
 8569TIP3    H225653   2.459   3.065   1.984
 8570TIP3   OH225654   7.717   6.636   1.708
 8570TIP3    H125655   7.754   6.651   1.621
 8570TIP3    H225656   7.748   6.710   1.761
 8571TIP3   OH225657   1.972   6.557   1.032
 8571TIP3    H125658   2.048   6.552   1.089
 8571TIP3    H225659   1.965   6.469   0.993
 8572TIP3   OH225660   5.393   0.679   2.140
 8572TIP3    H125661   5.363   0.669   2.049
 8572TIP3    H225662   5.312   0.692   2.190
 8573TIP3   OH225663   0.651   1.843   1.045
 8573TIP3    H125664   0.602   1.783   1.101
 8573TIP3    H225665   0.611   1.928   1.059
 8574TIP3   OH225666   5.618   1.554   5.611
 8574TIP3    H125667   5.670   1.587   5.684
 8574TIP3    H225668   5.681   1.519   5.550
 8575TIP3   OH225669   7.865   2.383   0.181
 8575TIP3    H125670   7.829   2.406   0.266
 8575TIP3    H225671   7.862   2.465   0.131
 8576TIP3   OH225672   2.098   5.148   6.221
 8576TIP3    H125673   2.177   5.158   6.273
 8576TIP3    H225674   2.027   5.140   6.285
 8577TIP3   OH225675   1.767   5.222   3.467
 8577TIP3    H125676   1.778   5.190   3.557
 8577TIP3    H225677   1.856   5.245   3.440
 8578TIP3   OH225678   6.940   6.187   6.091
 8578TIP3    H125679   6.865   6.228   6.049
 8578TIP3    H225680   6.978   6.255   6.146
 8579TIP3   OH225681   4.539   0.270   6.337
 8579TIP3    H125682   4.451   0.308   6.343
 8579TIP3    H225683   4.587   0.330   6.280
 8580TIP3   OH225684   5.038   3.374   0.780
 8580TIP3    H125685   5.072   3.361   0.692
 8580TIP3    H225686   4.954   3.328   0.781
 8581TIP3   OH225687   4.643   0.584   1.551
 8581TIP3    H125688   4.679   0.636   1.622
 8581TIP3    H225689   4.572   0.637   1.515
 8582TIP3   OH225690   0.194   1.482   6.716
 8582TIP3    H125691   0.165   1.401   6.673
 8582TIP3    H225692   0.269   1.455   6.769
 8583TIP3   OH225693   1.927   1.801   5.886
 8583TIP3    H125694   1.869   1.860   5.838
 8583TIP3    H225695   1.995   1.778   5.823
 8584TIP3   OH225696  -0.008   2.450   1.757
 8584TIP3    H125697   0.077   2.494   1.759
 8584TIP3    H225698  -0.038   2.459   1.667
 8585TIP3   OH225699   3.617   4.234   3.519
 8585TIP3    H125700   3.530   4.229   3.558
 8585TIP3    H225701   3.613   4.312   3.463
 8586TIP3   OH225702   0.478   4.236   2.294
 8586TIP3    H125703   0.518   4.235   2.207
 8586TIP3    H225704   0.482   4.145   2.324
 8587TIP3   OH225705   3.451   7.021   4.087
 8587TIP3    H125706   3.366   6.978   4.073
 8587TIP3    H225707   3.464   7.073   4.008
 8588TIP3   OH225708   0.151   3.417   5.522
 8588TIP3    H125709   0.135   3.385   5.433
 8588TIP3    H225710   0.143   3.339   5.577
 8589TIP3   OH225711   4.698   4.513   5.196
 8589TIP3    H125712   4.761   4.481   5.260
 8589TIP3    H225713   4.613   4.504   5.238
 8590TIP3   OH225714   1.209   5.849   0.307
 8590TIP3    H125715   1.263   5.841   0.385
 8590TIP3    H225716   1.122   5.819   0.335
 8591TIP3   OH225717   6.573   6.165   3.510
 8591TIP3    H125718   6.543   6.079   3.482
 8591TIP3    H225719   6.642   6.188   3.449
 8592TIP3   OH225720   2.112   7.484   5.992
 8592TIP3    H125721   2.176   7.413   5.995
 8592TIP3    H225722   2.080   7.483   5.902
 8593TIP3   OH225723   2.169   5.573   2.300
 8593TIP3    H125724   2.198   5.539   2.385
 8593TIP3    H225725   2.244   5.622   2.267
 8594TIP3   OH225726   5.025   5.903   3.079
 8594TIP3    H125727   5.008   5.945   2.994
 8594TIP3    H225728   4.980   5.819   3.074
 8595TIP3   OH225729   2.315   3.744   5.225
 8595TIP3    H125730   2.245   3.716   5.286
 8595TIP3    H225731   2.363   3.811   5.273
 8596TIP3   OH225732   1.691   2.284   0.616
 8596TIP3    H125733   1.645   2.228   0.554
 8596TIP3    H225734   1.779   2.294   0.579
 8597TIP3   OH225735   2.607   1.819   0.678
 8597TIP3    H125736   2.541   1.837   0.611
 8597TIP3    H225737   2.688   1.805   0.630
 8598TIP3   OH225738   2.448   4.317   1.433
 8598TIP3    H125739   2.406   4.231   1.424
 8598TIP3    H225740   2.519   4.302   1.495
 8599TIP3   OH225741   5.967   7.760   3.272
 8599TIP3    H125742   6.038   7.790   3.216
 8599TIP3    H225743   6.004   7.758   3.360
 8600TIP3   OH225744   7.095   2.053   1.774
 8600TIP3    H125745   7.084   2.026   1.683
 8600TIP3    H225746   7.190   2.063   1.784
 8601TIP3   OH225747   0.055   4.936   2.299
 8601TIP3    H125748   0.150   4.945   2.290
 8601TIP3    H225749   0.038   4.843   2.281
 8602TIP3   OH225750   2.681   3.032   1.230
 8602TIP3    H125751   2.683   2.936   1.230
 8602TIP3    H225752   2.652   3.055   1.141
 8603TIP3   OH225753   3.589   6.782   4.112
 8603TIP3    H125754   3.656   6.804   4.177
 8603TIP3    H225755   3.534   6.860   4.107
 8604TIP3   OH225756   3.363   4.811   3.534
 8604TIP3    H125757   3.355   4.860   3.616
 8604TIP3    H225758   3.450   4.771   3.538
 8605TIP3   OH225759   2.161   0.550   5.139
 8605TIP3    H125760   2.104   0.619   5.175
 8605TIP3    H225761   2.196   0.506   5.216
 8606TIP3   OH225762   2.004   0.949   3.805
 8606TIP3    H125763   2.100   0.950   3.810
 8606TIP3    H225764   1.981   1.037   3.775
 8607TIP3   OH225765   2.135   0.489   6.196
 8607TIP3    H125766   2.179   0.460   6.116
 8607TIP3    H225767   2.080   0.415   6.221
 8608TIP3   OH225768   0.463   2.034   1.042
 8608TIP3    H125769   0.412   2.035   0.961
 8608TIP3    H225770   0.419   2.098   1.098
 8609TIP3   OH225771   2.625   0.251   1.277
 8609TIP3    H125772   2.591   0.323   1.330
 8609TIP3    H225773   2.624   0.284   1.187
 8610TIP3   OH225774   2.415   1.159   1.130
 8610TIP3    H125775   2.413   1.218   1.055
 8610TIP3    H225776   2.387   1.075   1.095
 8611TIP3   OH225777   5.505   1.181   2.140
 8611TIP3    H125778   5.589   1.144   2.112
 8611TIP3    H225779   5.440   1.132   2.089
 8612TIP3   OH225780   5.611   0.283   0.249
 8612TIP3    H125781   5.621   0.312   0.159
 8612TIP3    H225782   5.696   0.244   0.271
 8613TIP3   OH225783   3.485   5.166   0.170
 8613TIP3    H125784   3.398   5.165   0.210
 8613TIP3    H225785   3.537   5.106   0.223
 8614TIP3   OH225786   6.541   1.086   1.926
 8614TIP3    H125787   6.622   1.040   1.947
 8614TIP3    H225788   6.495   1.027   1.865
 8615TIP3   OH225789   2.183   3.188   4.068
 8615TIP3    H125790   2.239   3.130   4.119
 8615TIP3    H225791   2.151   3.252   4.132
 8616TIP3   OH225792   4.133   3.692   3.019
 8616TIP3    H125793   4.163   3.661   2.934
 8616TIP3    H225794   4.052   3.740   3.000
 8617TIP3   OH225795   0.954   1.515   5.844
 8617TIP3    H125796   0.883   1.550   5.790
 8617TIP3    H225797   1.022   1.490   5.780
 8618TIP3   OH225798   2.599   6.315   0.404
 8618TIP3    H125799   2.517   6.336   0.449
 8618TIP3    H225800   2.616   6.224   0.428
 8619TIP3   OH225801   6.364   7.202   2.401
 8619TIP3    H125802   6.407   7.287   2.394
 8619TIP3    H225803   6.426   7.140   2.362
 8620TIP3   OH225804   7.277   0.799   0.576
 8620TIP3    H125805   7.199   0.783   0.629
 8620TIP3    H225806   7.341   0.735   0.608
 8621TIP3   OH225807   0.359   1.914   5.649
 8621TIP3    H125808   0.448   1.905   5.613
 8621TIP3    H225809   0.304   1.865   5.588
 8622TIP3   OH225810   7.575   7.683   3.878
 8622TIP3    H125811   7.606   7.717   3.962
 8622TIP3    H225812   7.480   7.677   3.889
 8623TIP3   OH225813   5.031   1.951   0.128
 8623TIP3    H125814   5.073   2.015   0.185
 8623TIP3    H225815   5.035   1.991   0.041
 8624TIP3   OH225816   0.350   5.777   1.765
 8624TIP3    H125817   0.443   5.791   1.744
 8624TIP3    H225818   0.341   5.806   1.855
 8625TIP3   OH225819   3.132   2.108   5.116
 8625TIP3    H125820   3.215   2.129   5.074
 8625TIP3    H225821   3.074   2.180   5.094
 8626TIP3   OH225822   3.238   1.929   5.693
 8626TIP3    H125823   3.174   1.929   5.622
 8626TIP3    H225824   3.200   1.986   5.759
 8627TIP3   OH225825   3.986   2.912   2.511
 8627TIP3    H125826   3.927   2.898   2.585
 8627TIP3    H225827   4.074   2.900   2.548
 8628TIP3   OH225828   4.130   4.453   4.460
 8628TIP3    H125829   4.081   4.515   4.406
 8628TIP3    H225830   4.221   4.482   4.453
 8629TIP3   OH225831   1.524   1.039   4.242
 8629TIP3    H125832   1.459   1.109   4.242
 8629TIP3    H225833   1.493   0.977   4.176
 8630TIP3   OH225834   7.071   6.306   3.896
 8630TIP3    H125835   7.147   6.283   3.950
 8630TIP3    H225836   7.107   6.327   3.810
 8631TIP3   OH225837  -0.008   2.004   6.540
 8631TIP3    H125838   0.021   2.057   6.465
 8631TIP3    H225839  -0.091   2.042   6.565
 8632TIP3   OH225840   6.142   6.442   1.139
 8632TIP3    H125841   6.089   6.486   1.073
 8632TIP3    H225842   6.104   6.354   1.145
 8633TIP3   OH225843   2.789   6.600   4.049
 8633TIP3    H125844   2.764   6.678   4.099
 8633TIP3    H225845   2.834   6.544   4.112
 8634TIP3   OH225846   8.009   2.537   1.811
 8634TIP3    H125847   8.100   2.506   1.820
 8634TIP3    H225848   8.017   2.631   1.799
 8635TIP3   OH225849   6.958   6.960   4.286
 8635TIP3    H125850   6.916   6.915   4.213
 8635TIP3    H225851   6.892   6.962   4.355
 8636TIP3   OH225852   6.598   3.089   1.002
 8636TIP3    H125853   6.548   3.103   1.083
 8636TIP3    H225854   6.555   3.145   0.938
 8637TIP3   OH225855   7.123   5.035   1.356
 8637TIP3    H125856   7.202   5.003   1.311
 8637TIP3    H225857   7.146   5.032   1.449
 8638TIP3   OH225858   7.370   4.851   0.127
 8638TIP3    H125859   7.296   4.825   0.182
 8638TIP3    H225860   7.386   4.942   0.148
 8639TIP3   OH225861   3.873   1.297   1.970
 8639TIP3    H125862   3.813   1.345   2.027
 8639TIP3    H225863   3.955   1.294   2.018
 8640TIP3   OH225864   0.348   1.963   0.629
 8640TIP3    H125865   0.311   1.890   0.678
 8640TIP3    H225866   0.425   1.926   0.585
 8641TIP3   OH225867   8.247   4.119   1.006
 8641TIP3    H125868   8.275   4.201   0.966
 8641TIP3    H225869   8.180   4.085   0.947
 8642TIP3   OH225870   1.336   4.181   5.013
 8642TIP3    H125871   1.379   4.135   4.941
 8642TIP3    H225872   1.263   4.227   4.971
 8643TIP3   OH225873   6.045   7.330   0.724
 8643TIP3    H125874   6.064   7.246   0.765
 8643TIP3    H225875   5.976   7.311   0.660
 8644TIP3   OH225876   2.640   4.610   4.047
 8644TIP3    H125877   2.671   4.697   4.072
 8644TIP3    H225878   2.683   4.551   4.108
 8645TIP3   OH225879   2.705   4.853   0.943
 8645TIP3    H125880   2.618   4.843   0.981
 8645TIP3    H225881   2.707   4.942   0.909
 8646TIP3   OH225882   5.306   4.081   6.261
 8646TIP3    H125883   5.226   4.076   6.208
 8646TIP3    H225884   5.277   4.062   6.350
 8647TIP3   OH225885   5.262   0.782   4.374
 8647TIP3    H125886   5.270   0.709   4.312
 8647TIP3    H225887   5.279   0.743   4.460
 8648TIP3   OH225888   0.504   7.179   5.901
 8648TIP3    H125889   0.502   7.093   5.943
 8648TIP3    H225890   0.427   7.181   5.845
 8649TIP3   OH225891   7.673   2.493   5.019
 8649TIP3    H125892   7.650   2.499   4.926
 8649TIP3    H225893   7.608   2.435   5.056
 8650TIP3   OH225894   1.496   0.174   4.129
 8650TIP3    H125895   1.506   0.229   4.050
 8650TIP3    H225896   1.493   0.237   4.201
 8651TIP3   OH225897   2.408   6.177   6.597
 8651TIP3    H125898   2.371   6.094   6.628
 8651TIP3    H225899   2.333   6.232   6.579
 8652TIP3   OH225900   1.129   4.482   1.779
 8652TIP3    H125901   1.208   4.449   1.736
 8652TIP3    H225902   1.106   4.561   1.730
 8653TIP3   OH225903   4.638   5.531   5.464
 8653TIP3    H125904   4.660   5.527   5.371
 8653TIP3    H225905   4.618   5.623   5.480
 8654TIP3   OH225906   6.798   7.769   0.745
 8654TIP3    H125907   6.893   7.773   0.740
 8654TIP3    H225908   6.769   7.853   0.708
 8655TIP3   OH225909   3.641   3.153   0.079
 8655TIP3    H125910   3.587   3.148   0.158
 8655TIP3    H225911   3.659   3.061   0.057
 8656TIP3   OH225912   6.474   3.404   4.741
 8656TIP3    H125913   6.403   3.458   4.773
 8656TIP3    H225914   6.488   3.338   4.810
 8657TIP3   OH225915   3.021   5.900   0.735
 8657TIP3    H125916   3.026   5.987   0.694
 8657TIP3    H225917   3.103   5.857   0.710
 8658TIP3   OH225918   8.159   3.497   2.240
 8658TIP3    H125919   8.247   3.503   2.278
 8658TIP3    H225920   8.113   3.574   2.273
 8659TIP3   OH225921   5.771   6.521   2.575
 8659TIP3    H125922   5.795   6.464   2.648
 8659TIP3    H225923   5.780   6.610   2.611
 8660TIP3   OH225924   5.207   3.054   1.951
 8660TIP3    H125925   5.217   2.967   1.990
 8660TIP3    H225926   5.288   3.067   1.901
 8661TIP3   OH225927   2.813   3.679   3.123
 8661TIP3    H125928   2.724   3.714   3.120
 8661TIP3    H225929   2.852   3.718   3.201
 8662TIP3   OH225930   1.761   2.307   3.159
 8662TIP3    H125931   1.737   2.224   3.118
 8662TIP3    H225932   1.850   2.325   3.128
 8663TIP3   OH225933   3.291   7.562   3.016
 8663TIP3    H125934   3.315   7.479   2.973
 8663TIP3    H225935   3.199   7.574   2.994
 8664TIP3   OH225936   6.682   4.778   6.178
 8664TIP3    H125937   6.727   4.827   6.109
 8664TIP3    H225938   6.730   4.799   6.258
 8665TIP3   OH225939   0.352   7.381   0.476
 8665TIP3    H125940   0.352   7.286   0.461
 8665TIP3    H225941   0.326   7.391   0.567
 8666TIP3   OH225942   6.137   5.398   1.629
 8666TIP3    H125943   6.210   5.406   1.568
 8666TIP3    H225944   6.177   5.370   1.711
 8667TIP3   OH225945   1.444   6.359   4.018
 8667TIP3    H125946   1.349   6.355   4.027
 8667TIP3    H225947   1.459   6.362   3.924
 8668TIP3   OH225948   6.609   2.448   3.887
 8668TIP3    H125949   6.660   2.452   3.968
 8668TIP3    H225950   6.526   2.491   3.908
 8669TIP3   OH225951   7.900   2.148   6.204
 8669TIP3    H125952   7.915   2.065   6.249
 8669TIP3    H225953   7.843   2.198   6.262
 8670TIP3   OH225954   3.111   2.151   2.642
 8670TIP3    H125955   3.051   2.111   2.579
 8670TIP3    H225956   3.071   2.235   2.664
 8671TIP3   OH225957   1.544   6.064   3.862
 8671TIP3    H125958   1.558   6.150   3.902
 8671TIP3    H225959   1.478   6.080   3.795
 8672TIP3   OH225960   1.467   1.560   4.274
 8672TIP3    H125961   1.515   1.577   4.356
 8672TIP3    H225962   1.378   1.590   4.292
 8673TIP3   OH225963   3.292   2.890   6.248
 8673TIP3    H125964   3.264   2.854   6.332
 8673TIP3    H225965   3.358   2.955   6.271
 8674TIP3   OH225966   1.717   5.402   4.076
 8674TIP3    H125967   1.632   5.442   4.097
 8674TIP3    H225968   1.744   5.445   3.995
 8675TIP3   OH225969   2.836   7.402   4.019
 8675TIP3    H125970   2.821   7.404   3.924
 8675TIP3    H225971   2.870   7.314   4.036
 8676TIP3   OH225972   3.771   7.615   5.780
 8676TIP3    H125973   3.825   7.538   5.795
 8676TIP3    H225974   3.746   7.609   5.688
 8677TIP3   OH225975   1.412   4.318   6.483
 8677TIP3    H125976   1.377   4.397   6.442
 8677TIP3    H225977   1.507   4.330   6.481
 8678TIP3   OH225978   4.948   3.818   5.308
 8678TIP3    H125979   4.905   3.801   5.224
 8678TIP3    H225980   4.897   3.890   5.345
 8679TIP3   OH225981   3.542   4.451   2.646
 8679TIP3    H125982   3.467   4.501   2.679
 8679TIP3    H225983   3.508   4.364   2.629
 8680TIP3   OH225984   7.088   3.787   4.669
 8680TIP3    H125985   7.179   3.817   4.671
 8680TIP3    H225986   7.039   3.857   4.711
 8681TIP3   OH225987   6.849   4.632   5.029
 8681TIP3    H125988   6.764   4.594   5.007
 8681TIP3    H225989   6.909   4.595   4.964
 8682TIP3   OH225990   8.259   0.625   0.853
 8682TIP3    H125991   8.187   0.658   0.799
 8682TIP3    H225992   8.277   0.697   0.914
 8683TIP3   OH225993   2.743   3.626   2.526
 8683TIP3    H125994   2.747   3.546   2.578
 8683TIP3    H225995   2.649   3.642   2.514
 8684TIP3   OH225996   2.476   2.290   6.200
 8684TIP3    H125997   2.415   2.223   6.168
 8684TIP3    H225998   2.449   2.305   6.291
 8685TIP3   OH225999   7.130   6.949   5.690
 8685TIP3    H126000   7.045   6.982   5.662
 8685TIP3    H226001   7.144   6.987   5.776
 8686TIP3   OH226002   3.903   0.088   1.044
 8686TIP3    H126003   3.950   0.156   0.996
 8686TIP3    H226004   3.811   0.104   1.024
 8687TIP3   OH226005   5.440   7.134   2.617
 8687TIP3    H126006   5.535   7.142   2.615
 8687TIP3    H226007   5.408   7.215   2.577
 8688TIP3   OH226008   0.182   0.727   6.505
 8688TIP3    H126009   0.202   0.760   6.592
 8688TIP3    H226010   0.227   0.643   6.500
 8689TIP3   OH226011   6.478   6.199   6.215
 8689TIP3    H126012   6.447   6.289   6.212
 8689TIP3    H226013   6.568   6.205   6.248
 8690TIP3   OH226014   1.291   1.129   2.603
 8690TIP3    H126015   1.328   1.200   2.551
 8690TIP3    H226016   1.289   1.163   2.692
 8691TIP3   OH226017   1.185   0.207   3.810
 8691TIP3    H126018   1.277   0.224   3.790
 8691TIP3    H226019   1.158   0.140   3.748
 8692TIP3   OH226020   4.971   2.044   0.682
 8692TIP3    H126021   5.017   1.973   0.726
 8692TIP3    H226022   5.024   2.122   0.699
 8693TIP3   OH226023   3.850   3.303   1.961
 8693TIP3    H126024   3.875   3.253   2.038
 8693TIP3    H226025   3.913   3.277   1.893
 8694TIP3   OH226026   6.227   7.624   4.183
 8694TIP3    H126027   6.204   7.570   4.107
 8694TIP3    H226028   6.149   7.621   4.239
 8695TIP3   OH226029   4.447   7.064   6.089
 8695TIP3    H126030   4.379   7.129   6.074
 8695TIP3    H226031   4.505   7.104   6.155
 8696TIP3   OH226032   5.239   6.262   5.809
 8696TIP3    H126033   5.215   6.197   5.876
 8696TIP3    H226034   5.162   6.268   5.753
 8697TIP3   OH226035   1.923   0.377   0.545
 8697TIP3    H126036   1.923   0.456   0.491
 8697TIP3    H226037   1.945   0.408   0.633
 8698TIP3   OH226038   6.776   7.497   4.718
 8698TIP3    H126039   6.787   7.531   4.806
 8698TIP3    H226040   6.855   7.444   4.703
 8699TIP3   OH226041   2.386   1.671   0.103
 8699TIP3    H126042   2.341   1.669   0.187
 8699TIP3    H226043   2.431   1.586   0.098
 8700TIP3   OH226044   7.745   7.383   1.359
 8700TIP3    H126045   7.747   7.479   1.368
 8700TIP3    H226046   7.683   7.354   1.426
 8701TIP3   OH226047   1.420   3.746   6.744
 8701TIP3    H126048   1.356   3.787   6.686
 8701TIP3    H226049   1.504   3.786   6.721
 8702TIP3   OH226050   1.424   7.230   0.950
 8702TIP3    H126051   1.512   7.260   0.973
 8702TIP3    H226052   1.407   7.270   0.864
 8703TIP3   OH226053   7.129   4.125   4.775
 8703TIP3    H126054   7.040   4.106   4.806
 8703TIP3    H226055   7.171   4.168   4.850
 8704TIP3   OH226056   3.905   3.612   4.808
 8704TIP3    H126057   3.981   3.586   4.757
 8704TIP3    H226058   3.837   3.549   4.785
 8705TIP3   OH226059   7.889   1.346   0.720
 8705TIP3    H126060   7.796   1.351   0.699
 8705TIP3    H226061   7.933   1.343   0.635
 8706TIP3   OH226062   6.030   6.791   0.834
 8706TIP3    H126063   6.118   6.758   0.849
 8706TIP3    H226064   5.986   6.782   0.919
 8707TIP3   OH226065   8.147   3.601   4.030
 8707TIP3    H126066   8.112   3.673   3.977
 8707TIP3    H226067   8.114   3.618   4.118
 8708TIP3   OH226068   1.979   1.569   6.651
 8708TIP3    H126069   2.025   1.648   6.681
 8708TIP3    H226070   1.888   1.598   6.640
 8709TIP3   OH226071   8.109   0.928   1.641
 8709TIP3    H126072   8.022   0.889   1.634
 8709TIP3    H226073   8.113   0.964   1.729
 8710TIP3   OH226074   5.554   0.944   0.052
 8710TIP3    H126075   5.629   0.984   0.010
 8710TIP3    H226076   5.575   0.851   0.056
 8711TIP3   OH226077   5.818   4.453   0.529
 8711TIP3    H126078   5.767   4.487   0.456
 8711TIP3    H226079   5.838   4.530   0.583
 8712TIP3   OH226080   5.750   2.202   0.866
 8712TIP3    H126081   5.808   2.273   0.891
 8712TIP3    H226082   5.687   2.196   0.938
 8713TIP3   OH226083   4.183   6.574   5.805
 8713TIP3    H126084   4.216   6.491   5.769
 8713TIP3    H226085   4.256   6.609   5.856
 8714TIP3   OH226086   7.195   1.658   4.529
 8714TIP3    H126087   7.106   1.622   4.518
 8714TIP3    H226088   7.233   1.653   4.441
 8715TIP3   OH226089   3.878   2.687   6.049
 8715TIP3    H126090   3.879   2.691   6.145
 8715TIP3    H226091   3.899   2.777   6.022
 8716TIP3   OH226092   5.465   4.367   2.048
 8716TIP3    H126093   5.535   4.412   2.002
 8716TIP3    H226094   5.472   4.396   2.138
 8717TIP3   OH226095   2.937   0.309   6.322
 8717TIP3    H126096   2.937   0.239   6.386
 8717TIP3    H226097   3.030   0.322   6.301
 8718TIP3   OH226098   3.182   4.311   5.963
 8718TIP3    H126099   3.136   4.257   5.899
 8718TIP3    H226100   3.142   4.397   5.955
 8719TIP3   OH226101   2.981   1.522   5.746
 8719TIP3    H126102   3.055   1.547   5.691
 8719TIP3    H226103   2.922   1.476   5.687
 8720TIP3   OH226104   1.958   1.874   5.270
 8720TIP3    H126105   1.919   1.961   5.260
 8720TIP3    H226106   1.949   1.854   5.363
 8721TIP3   OH226107   0.619   2.001   3.845
 8721TIP3    H126108   0.695   2.055   3.868
 8721TIP3    H226109   0.578   1.980   3.930
 8722TIP3   OH226110   3.426   6.911   1.952
 8722TIP3    H126111   3.440   6.936   2.043
 8722TIP3    H226112   3.426   6.815   1.953
 8723TIP3   OH226113   6.528   2.308   6.090
 8723TIP3    H126114   6.562   2.286   6.004
 8723TIP3    H226115   6.555   2.399   6.104
 8724TIP3   OH226116   4.205   0.383   5.358
 8724TIP3    H126117   4.203   0.409   5.450
 8724TIP3    H226118   4.277   0.321   5.352
 8725TIP3   OH226119   2.575   2.593   4.196
 8725TIP3    H126120   2.558   2.686   4.205
 8725TIP3    H226121   2.567   2.558   4.284
 8726TIP3   OH226122   3.216   6.726   6.253
 8726TIP3    H126123   3.212   6.700   6.161
 8726TIP3    H226124   3.184   6.816   6.253
 8727TIP3   OH226125   2.196   6.970   6.650
 8727TIP3    H126126   2.251   7.045   6.675
 8727TIP3    H226127   2.258   6.907   6.614
 8728TIP3   OH226128   5.064   1.367   0.149
 8728TIP3    H126129   4.984   1.331   0.109
 8728TIP3    H226130   5.097   1.295   0.202
 8729TIP3   OH226131   1.785   1.779   3.668
 8729TIP3    H126132   1.835   1.814   3.595
 8729TIP3    H226133   1.843   1.788   3.744
 8730TIP3   OH226134   3.090   7.280   5.692
 8730TIP3    H126135   3.166   7.305   5.640
 8730TIP3    H226136   3.116   7.296   5.783
 8731TIP3   OH226137   7.816   0.435   4.986
 8731TIP3    H126138   7.883   0.501   4.967
 8731TIP3    H226139   7.858   0.352   4.966
 8732TIP3   OH226140   6.522   5.138   5.387
 8732TIP3    H126141   6.581   5.080   5.434
 8732TIP3    H226142   6.477   5.188   5.456
 8733TIP3   OH226143   2.013   4.362   6.342
 8733TIP3    H126144   1.936   4.307   6.327
 8733TIP3    H226145   2.044   4.339   6.429
 8734TIP3   OH226146   4.490   7.415   5.440
 8734TIP3    H126147   4.544   7.491   5.424
 8734TIP3    H226148   4.540   7.362   5.502
 8735TIP3   OH226149   7.420   5.236   1.559
 8735TIP3    H126150   7.359   5.300   1.596
 8735TIP3    H226151   7.505   5.279   1.562
 8736TIP3   OH226152   1.131   4.142   4.619
 8736TIP3    H126153   1.212   4.183   4.649
 8736TIP3    H226154   1.143   4.131   4.524
 8737TIP3   OH226155   6.103   7.821   4.516
 8737TIP3    H126156   6.059   7.742   4.487
 8737TIP3    H226157   6.165   7.792   4.583
 8738TIP3   OH226158   7.097   2.384   0.309
 8738TIP3    H126159   7.129   2.459   0.259
 8738TIP3    H226160   7.040   2.421   0.376
 8739TIP3   OH226161   7.009   0.912   3.520
 8739TIP3    H126162   7.014   0.817   3.526
 8739TIP3    H226163   7.059   0.934   3.441
 8740TIP3   OH226164   4.630   6.224   1.804
 8740TIP3    H126165   4.687   6.231   1.728
 8740TIP3    H226166   4.575   6.148   1.785
 8741TIP3   OH226167   3.035   7.788   6.715
 8741TIP3    H126168   3.014   7.721   6.651
 8741TIP3    H226169   2.950   7.817   6.748
 8742TIP3   OH226170   6.485   2.908   2.776
 8742TIP3    H126171   6.509   2.910   2.869
 8742TIP3    H226172   6.392   2.886   2.776
 8743TIP3   OH226173   3.566   7.233   5.405
 8743TIP3    H126174   3.610   7.155   5.372
 8743TIP3    H226175   3.571   7.296   5.333
 8744TIP3   OH226176   4.795   7.263   4.562
 8744TIP3    H126177   4.786   7.194   4.628
 8744TIP3    H226178   4.739   7.235   4.490
 8745TIP3   OH226179   4.036   2.495   2.806
 8745TIP3    H126180   4.131   2.497   2.794
 8745TIP3    H226181   4.014   2.402   2.803
 8746TIP3   OH226182   5.569   0.285   5.374
 8746TIP3    H126183   5.647   0.233   5.353
 8746TIP3    H226184   5.603   0.362   5.420
 8747TIP3   OH226185   5.187   4.028   1.055
 8747TIP3    H126186   5.239   3.953   1.084
 8747TIP3    H226187   5.215   4.044   0.965
 8748TIP3   OH226188   4.533   4.662   6.394
 8748TIP3    H126189   4.603   4.632   6.336
 8748TIP3    H226190   4.534   4.600   6.467
 8749TIP3   OH226191   7.518   1.266   4.516
 8749TIP3    H126192   7.456   1.314   4.570
 8749TIP3    H226193   7.515   1.176   4.549
 8750TIP3   OH226194   3.142   3.412   5.845
 8750TIP3    H126195   3.105   3.342   5.898
 8750TIP3    H226196   3.221   3.439   5.891
 8751TIP3   OH226197   6.658   5.961   0.619
 8751TIP3    H126198   6.618   5.891   0.671
 8751TIP3    H226199   6.662   6.036   0.679
 8752TIP3   OH226200   6.037   3.986   1.096
 8752TIP3    H126201   6.050   4.068   1.049
 8752TIP3    H226202   6.101   3.926   1.057
 8753TIP3   OH226203   1.563   1.501   0.735
 8753TIP3    H126204   1.600   1.508   0.824
 8753TIP3    H226205   1.507   1.579   0.727
 8754TIP3   OH226206   1.826   1.388   0.070
 8754TIP3    H126207   1.811   1.372  -0.023
 8754TIP3    H226208   1.893   1.324   0.095
 8755TIP3   OH226209   0.587   2.686   4.576
 8755TIP3    H126210   0.546   2.671   4.661
 8755TIP3    H226211   0.583   2.781   4.564
 8756TIP3   OH226212   6.618   0.487   0.370
 8756TIP3    H126213   6.628   0.429   0.446
 8756TIP3    H226214   6.662   0.568   0.396
 8757TIP3   OH226215   2.982   1.043   3.287
 8757TIP3    H126216   3.058   1.054   3.230
 8757TIP3    H226217   3.017   1.056   3.375
 8758TIP3   OH226218   6.131   2.218   2.485
 8758TIP3    H126219   6.127   2.163   2.407
 8758TIP3    H226220   6.129   2.308   2.452
 8759TIP3   OH226221   4.721   5.602   5.213
 8759TIP3    H126222   4.724   5.629   5.122
 8759TIP3    H226223   4.783   5.529   5.219
 8760TIP3   OH226224   8.160   1.432   5.661
 8760TIP3    H126225   8.227   1.498   5.673
 8760TIP3    H226226   8.197   1.352   5.698
 8761TIP3   OH226227   6.516   2.890   2.209
 8761TIP3    H126228   6.610   2.887   2.191
 8761TIP3    H226229   6.503   2.972   2.258
 8762TIP3   OH226230   3.129   3.909   6.049
 8762TIP3    H126231   3.165   3.995   6.067
 8762TIP3    H226232   3.184   3.874   5.979
 8763TIP3   OH226233   5.140   2.648   6.533
 8763TIP3    H126234   5.141   2.695   6.449
 8763TIP3    H226235   5.163   2.558   6.510
 8764TIP3   OH226236   5.682   7.644   0.809
 8764TIP3    H126237   5.706   7.628   0.717
 8764TIP3    H226238   5.659   7.737   0.812
 8765TIP3   OH226239   6.107   2.168   5.160
 8765TIP3    H126240   6.047   2.208   5.098
 8765TIP3    H226241   6.189   2.214   5.148
 8766TIP3   OH226242   0.109   0.579   4.008
 8766TIP3    H126243   0.169   0.597   4.081
 8766TIP3    H226244   0.085   0.665   3.974
 8767TIP3   OH226245   6.552   1.271   3.245
 8767TIP3    H126246   6.518   1.290   3.158
 8767TIP3    H226247   6.498   1.325   3.303
 8768TIP3   OH226248   1.010   5.471   5.211
 8768TIP3    H126249   0.967   5.440   5.290
 8768TIP3    H226250   1.089   5.418   5.204
 8769TIP3   OH226251   5.530   2.363   2.292
 8769TIP3    H126252   5.624   2.347   2.304
 8769TIP3    H226253   5.499   2.286   2.243
 8770TIP3   OH226254   4.629   3.189   4.089
 8770TIP3    H126255   4.599   3.264   4.036
 8770TIP3    H226256   4.565   3.120   4.071
 8771TIP3   OH226257   3.082   1.696   2.925
 8771TIP3    H126258   3.017   1.628   2.946
 8771TIP3    H226259   3.159   1.672   2.976
 8772TIP3   OH226260   7.105   4.436   0.502
 8772TIP3    H126261   7.104   4.345   0.530
 8772TIP3    H226262   7.193   4.467   0.524
 8773TIP3   OH226263   0.266   0.794   0.598
 8773TIP3    H126264   0.236   0.803   0.508
 8773TIP3    H226265   0.347   0.846   0.602
 8774TIP3   OH226266   1.684   7.574   3.450
 8774TIP3    H126267   1.618   7.551   3.384
 8774TIP3    H226268   1.768   7.557   3.408
 8775TIP3   OH226269   2.570   2.125   6.456
 8775TIP3    H126270   2.563   2.203   6.510
 8775TIP3    H226271   2.480   2.092   6.449
 8776TIP3   OH226272   6.641   0.881   2.873
 8776TIP3    H126273   6.607   0.968   2.852
 8776TIP3    H226274   6.574   0.841   2.928
 8777TIP3   OH226275   7.529   4.009   0.385
 8777TIP3    H126276   7.613   4.012   0.340
 8777TIP3    H226277   7.501   3.918   0.377
 8778TIP3   OH226278   7.066   4.001   5.136
 8778TIP3    H126279   7.140   3.956   5.095
 8778TIP3    H226280   6.990   3.974   5.083
 8779TIP3   OH226281   7.710   1.747   0.009
 8779TIP3    H126282   7.735   1.695   0.086
 8779TIP3    H226283   7.643   1.695  -0.035
 8780TIP3   OH226284   0.923   7.508   2.744
 8780TIP3    H126285   1.006   7.527   2.788
 8780TIP3    H226286   0.890   7.429   2.786
 8781TIP3   OH226287   7.203   1.061   4.819
 8781TIP3    H126288   7.201   1.157   4.818
 8781TIP3    H226289   7.112   1.035   4.835
 8782TIP3   OH226290   1.171   2.576   0.186
 8782TIP3    H126291   1.211   2.508   0.240
 8782TIP3    H226292   1.229   2.652   0.197
 8783TIP3   OH226293   7.395   5.216   0.901
 8783TIP3    H126294   7.455   5.145   0.877
 8783TIP3    H226295   7.438   5.295   0.870
 8784TIP3   OH226296   4.838   7.556   6.040
 8784TIP3    H126297   4.869   7.639   6.075
 8784TIP3    H226298   4.743   7.560   6.050
 8785TIP3   OH226299   6.949   1.289   3.218
 8785TIP3    H126300   6.870   1.328   3.181
 8785TIP3    H226301   6.918   1.210   3.262
 8786TIP3   OH226302   2.365   7.022   2.816
 8786TIP3    H126303   2.311   7.001   2.892
 8786TIP3    H226304   2.312   6.992   2.741
 8787TIP3   OH226305   5.974   2.501   5.632
 8787TIP3    H126306   5.937   2.523   5.546
 8787TIP3    H226307   6.066   2.526   5.626
 8788TIP3   OH226308   7.471   7.705   5.715
 8788TIP3    H126309   7.384   7.720   5.752
 8788TIP3    H226310   7.489   7.613   5.733
 8789TIP3   OH226311   0.251   5.114   5.616
 8789TIP3    H126312   0.221   5.128   5.526
 8789TIP3    H226313   0.240   5.020   5.630
 8790TIP3   OH226314   7.439   3.002   3.473
 8790TIP3    H126315   7.403   3.039   3.392
 8790TIP3    H226316   7.486   2.924   3.445
 8791TIP3   OH226317   1.250   5.606   6.174
 8791TIP3    H126318   1.317   5.548   6.138
 8791TIP3    H226319   1.261   5.688   6.126
 8792TIP3   OH226320   2.398   3.785   0.832
 8792TIP3    H126321   2.303   3.780   0.841
 8792TIP3    H226322   2.432   3.733   0.904
 8793TIP3   OH226323   4.842   6.777   6.278
 8793TIP3    H126324   4.875   6.704   6.226
 8793TIP3    H226325   4.797   6.833   6.215
 8794TIP3   OH226326   3.307   1.253   0.183
 8794TIP3    H126327   3.293   1.266   0.089
 8794TIP3    H226328   3.385   1.198   0.188
 8795TIP3   OH226329   4.137   4.527   6.113
 8795TIP3    H126330   4.212   4.469   6.127
 8795TIP3    H226331   4.084   4.517   6.192
 8796TIP3   OH226332   5.673   7.221   4.696
 8796TIP3    H126333   5.694   7.256   4.609
 8796TIP3    H226334   5.681   7.296   4.754
 8797TIP3   OH226335   6.012   1.356   3.564
 8797TIP3    H126336   5.916   1.351   3.562
 8797TIP3    H226337   6.033   1.382   3.653
 8798TIP3   OH226338   7.424   4.940   3.700
 8798TIP3    H126339   7.329   4.926   3.705
 8798TIP3    H226340   7.450   4.900   3.617
 8799TIP3   OH226341   3.601   2.060   2.682
 8799TIP3    H126342   3.552   2.087   2.604
 8799TIP3    H226343   3.539   2.068   2.754
 8800TIP3   OH226344   7.663   2.875   5.326
 8800TIP3    H126345   7.599   2.886   5.397
 8800TIP3    H226346   7.699   2.963   5.313
 8801TIP3   OH226347   5.862   6.203   2.221
 8801TIP3    H126348   5.841   6.168   2.135
 8801TIP3    H226349   5.841   6.132   2.282
 8802TIP3   OH226350   8.037   6.509   0.378
 8802TIP3    H126351   7.975   6.501   0.450
 8802TIP3    H226352   7.986   6.493   0.299
 8803TIP3   OH226353   2.491   2.269   5.354
 8803TIP3    H126354   2.468   2.228   5.271
 8803TIP3    H226355   2.545   2.344   5.330
 8804TIP3   OH226356   6.454   1.252   1.018
 8804TIP3    H126357   6.447   1.302   1.099
 8804TIP3    H226358   6.396   1.177   1.031
 8805TIP3   OH226359   2.405   2.185   2.874
 8805TIP3    H126360   2.434   2.257   2.818
 8805TIP3    H226361   2.486   2.144   2.904
 8806TIP3   OH226362   1.695   5.803   0.453
 8806TIP3    H126363   1.655   5.879   0.412
 8806TIP3    H226364   1.734   5.837   0.533
 8807TIP3   OH226365   4.944   6.291   2.420
 8807TIP3    H126366   4.975   6.311   2.509
 8807TIP3    H226367   5.020   6.306   2.364
 8808TIP3   OH226368   7.426   0.856   3.278
 8808TIP3    H126369   7.494   0.793   3.255
 8808TIP3    H226370   7.344   0.811   3.259
 8809TIP3   OH226371   1.519   0.478   5.278
 8809TIP3    H126372   1.520   0.550   5.215
 8809TIP3    H226373   1.511   0.399   5.225
 8810TIP3   OH226374   0.838   5.374   5.398
 8810TIP3    H126375   0.802   5.401   5.482
 8810TIP3    H226376   0.837   5.278   5.402
 8811TIP3   OH226377   6.395   5.456   0.694
 8811TIP3    H126378   6.405   5.440   0.600
 8811TIP3    H226379   6.481   5.484   0.724
 8812TIP3   OH226380   4.903   6.559   1.683
 8812TIP3    H126381   4.991   6.566   1.647
 8812TIP3    H226382   4.877   6.649   1.702
 8813TIP3   OH226383   6.027   7.759   0.345
 8813TIP3    H126384   5.939   7.794   0.359
 8813TIP3    H226385   6.020   7.666   0.364
 8814TIP3   OH226386   6.228   2.811   2.789
 8814TIP3    H126387   6.176   2.796   2.710
 8814TIP3    H226388   6.184   2.760   2.857
 8815TIP3   OH226389   8.096   4.639   5.194
 8815TIP3    H126390   8.030   4.576   5.223
 8815TIP3    H226391   8.068   4.723   5.231
 8816TIP3   OH226392   3.304   4.673   3.849
 8816TIP3    H126393   3.348   4.720   3.919
 8816TIP3    H226394   3.292   4.584   3.882
 8817TIP3   OH226395   5.219   7.190   6.045
 8817TIP3    H126396   5.150   7.250   6.016
 8817TIP3    H226397   5.231   7.212   6.138
 8818TIP3   OH226398   1.246   7.701   3.813
 8818TIP3    H126399   1.232   7.677   3.904
 8818TIP3    H226400   1.182   7.649   3.764
 8819TIP3   OH226401   0.810   0.197   1.367
 8819TIP3    H126402   0.785   0.288   1.347
 8819TIP3    H226403   0.877   0.206   1.435
 8820TIP3   OH226404   6.568   1.840   3.392
 8820TIP3    H126405   6.521   1.870   3.315
 8820TIP3    H226406   6.586   1.747   3.374
 8821TIP3   OH226407   0.615   2.004   4.655
 8821TIP3    H126408   0.605   1.937   4.588
 8821TIP3    H226409   0.657   2.078   4.610
 8822TIP3   OH226410   1.311   0.788   6.367
 8822TIP3    H126411   1.385   0.729   6.352
 8822TIP3    H226412   1.255   0.776   6.291
 8823TIP3   OH226413   6.513   2.167   2.459
 8823TIP3    H126414   6.453   2.150   2.531
 8823TIP3    H226415   6.460   2.210   2.392
 8824TIP3   OH226416   4.753   3.284   5.747
 8824TIP3    H126417   4.665   3.314   5.770
 8824TIP3    H226418   4.741   3.194   5.717
 8825TIP3   OH226419   3.082   7.483   6.154
 8825TIP3    H126420   2.996   7.488   6.196
 8825TIP3    H226421   3.144   7.471   6.226
 8826TIP3   OH226422   5.321   0.625   3.501
 8826TIP3    H126423   5.324   0.668   3.416
 8826TIP3    H226424   5.331   0.532   3.481
 8827TIP3   OH226425   3.136   1.821   0.130
 8827TIP3    H126426   3.187   1.901   0.146
 8827TIP3    H226427   3.046   1.846   0.152
 8828TIP3   OH226428   6.708   6.823   0.541
 8828TIP3    H126429   6.689   6.855   0.630
 8828TIP3    H226430   6.660   6.883   0.484
 8829TIP3   OH226431   4.024   4.875   1.832
 8829TIP3    H126432   3.951   4.865   1.771
 8829TIP3    H226433   4.089   4.810   1.803
 8830TIP3   OH226434   7.952   1.349   3.032
 8830TIP3    H126435   7.866   1.336   2.990
 8830TIP3    H226436   7.935   1.413   3.101
 8831TIP3   OH226437   0.102   3.209   6.224
 8831TIP3    H126438   0.126   3.218   6.316
 8831TIP3    H226439   0.053   3.289   6.204
 8832TIP3   OH226440   2.244   7.162   0.073
 8832TIP3    H126441   2.276   7.250   0.092
 8832TIP3    H226442   2.205   7.170  -0.015
 8833TIP3   OH226443   3.985   4.376   3.681
 8833TIP3    H126444   3.958   4.366   3.772
 8833TIP3    H226445   3.979   4.287   3.645
 8834TIP3   OH226446   3.604   6.381   4.950
 8834TIP3    H126447   3.608   6.285   4.942
 8834TIP3    H226448   3.642   6.400   5.035
 8835TIP3   OH226449   0.065   0.934   4.841
 8835TIP3    H126450   0.111   0.958   4.760
 8835TIP3    H226451  -0.023   0.970   4.831
 8836TIP3   OH226452   6.801   0.126   2.693
 8836TIP3    H126453   6.757   0.200   2.652
 8836TIP3    H226454   6.841   0.163   2.772
 8837TIP3   OH226455   4.341   7.246   2.987
 8837TIP3    H126456   4.421   7.231   3.038
 8837TIP3    H226457   4.274   7.264   3.053
 8838TIP3   OH226458   3.811   7.573   3.172
 8838TIP3    H126459   3.755   7.584   3.249
 8838TIP3    H226460   3.830   7.663   3.143
 8839TIP3   OH226461   4.444   6.868   3.255
 8839TIP3    H126462   4.352   6.841   3.251
 8839TIP3    H226463   4.479   6.821   3.331
 8840TIP3   OH226464   0.553   3.922  -0.008
 8840TIP3    H126465   0.586   3.900   0.079
 8840TIP3    H226466   0.460   3.900  -0.004
 8841TIP3   OH226467   7.240   0.667   5.090
 8841TIP3    H126468   7.202   0.749   5.119
 8841TIP3    H226469   7.211   0.657   4.999
 8842TIP3   OH226470   2.503   6.968   4.337
 8842TIP3    H126471   2.514   7.062   4.325
 8842TIP3    H226472   2.520   6.953   4.430
 8843TIP3   OH226473   1.927   0.412   4.648
 8843TIP3    H126474   1.939   0.430   4.741
 8843TIP3    H226475   1.991   0.467   4.603
 8844TIP3   OH226476   0.241   0.049   3.453
 8844TIP3    H126477   0.335   0.064   3.460
 8844TIP3    H226478   0.229   0.012   3.365
 8845TIP3   OH226479   6.959   5.485   4.139
 8845TIP3    H126480   6.869   5.495   4.172
 8845TIP3    H226481   6.979   5.570   4.098
 8846TIP3   OH226482   2.330   0.961   6.664
 8846TIP3    H126483   2.272   1.036   6.648
 8846TIP3    H226484   2.288   0.888   6.617
 8847TIP3   OH226485   0.261   5.029   4.617
 8847TIP3    H126486   0.306   4.945   4.624
 8847TIP3    H226487   0.185   5.012   4.562
 8848TIP3   OH226488   2.823   5.873   3.234
 8848TIP3    H126489   2.761   5.934   3.275
 8848TIP3    H226490   2.836   5.907   3.146
 8849TIP3   OH226491   4.460   4.357   2.962
 8849TIP3    H126492   4.410   4.438   2.975
 8849TIP3    H226493   4.492   4.363   2.872
 8850TIP3   OH226494   1.898   1.235   1.770
 8850TIP3    H126495   1.875   1.144   1.785
 8850TIP3    H226496   1.818   1.284   1.789
 8851TIP3   OH226497   7.460   7.205   2.635
 8851TIP3    H126498   7.527   7.186   2.701
 8851TIP3    H226499   7.506   7.196   2.551
 8852TIP3   OH226500   4.192   0.152   3.674
 8852TIP3    H126501   4.129   0.223   3.663
 8852TIP3    H226502   4.275   0.196   3.693
 8853TIP3   OH226503   7.061   4.274   1.915
 8853TIP3    H126504   7.051   4.337   1.985
 8853TIP3    H226505   7.075   4.190   1.959
 8854TIP3   OH226506   3.155   4.746   5.319
 8854TIP3    H126507   3.168   4.788   5.234
 8854TIP3    H226508   3.129   4.818   5.377
 8855TIP3   OH226509   1.058   3.595   4.835
 8855TIP3    H126510   0.994   3.646   4.884
 8855TIP3    H226511   1.126   3.573   4.899
 8856TIP3   OH226512   7.689   2.593   5.408
 8856TIP3    H126513   7.784   2.584   5.414
 8856TIP3    H226514   7.675   2.684   5.385
 8857TIP3   OH226515   3.109   2.921   4.298
 8857TIP3    H126516   3.184   2.952   4.349
 8857TIP3    H226517   3.136   2.835   4.265
 8858TIP3   OH226518   0.918   1.064   3.257
 8858TIP3    H126519   0.918   1.125   3.331
 8858TIP3    H226520   0.993   1.008   3.272
 8859TIP3   OH226521   1.197   0.913   0.086
 8859TIP3    H126522   1.228   0.897  -0.003
 8859TIP3    H226523   1.232   0.840   0.137
 8860TIP3   OH226524   0.702   4.298   2.802
 8860TIP3    H126525   0.645   4.310   2.879
 8860TIP3    H226526   0.656   4.343   2.731
 8861TIP3   OH226527   2.001   4.254   0.502
 8861TIP3    H126528   2.047   4.233   0.583
 8861TIP3    H226529   1.930   4.190   0.497
 8862TIP3   OH226530   7.333   2.210   0.202
 8862TIP3    H126531   7.267   2.224   0.270
 8862TIP3    H226532   7.379   2.131   0.229
 8863TIP3   OH226533   6.868   5.873   3.045
 8863TIP3    H126534   6.903   5.826   2.969
 8863TIP3    H226535   6.874   5.965   3.020
 8864TIP3   OH226536   3.922   7.815   3.463
 8864TIP3    H126537   3.871   7.895   3.477
 8864TIP3    H226538   3.858   7.744   3.467
 8865TIP3   OH226539   5.703   3.850   6.408
 8865TIP3    H126540   5.783   3.903   6.414
 8865TIP3    H226541   5.650   3.893   6.341
 8866TIP3   OH226542   3.436   1.908   5.881
 8866TIP3    H126543   3.507   1.972   5.887
 8866TIP3    H226544   3.376   1.945   5.817
 8867TIP3   OH226545   2.378   5.390   0.906
 8867TIP3    H126546   2.419   5.325   0.963
 8867TIP3    H226547   2.288   5.358   0.895
 8868TIP3   OH226548   3.401   6.384   4.467
 8868TIP3    H126549   3.447   6.455   4.421
 8868TIP3    H226550   3.448   6.375   4.550
 8869TIP3   OH226551   3.068   3.900   1.922
 8869TIP3    H126552   3.117   3.981   1.914
 8869TIP3    H226553   3.096   3.847   1.848
 8870TIP3   OH226554   3.838   6.645   0.366
 8870TIP3    H126555   3.750   6.679   0.353
 8870TIP3    H226556   3.825   6.561   0.411
 8871TIP3   OH226557   2.496   3.996   1.037
 8871TIP3    H126558   2.567   3.934   1.017
 8871TIP3    H226559   2.418   3.957   0.996
 8872TIP3   OH226560   0.237   1.221   1.517
 8872TIP3    H126561   0.272   1.135   1.540
 8872TIP3    H226562   0.233   1.267   1.601
 8873TIP3   OH226563   1.908   0.926   2.136
 8873TIP3    H126564   1.891   0.969   2.052
 8873TIP3    H226565   1.985   0.971   2.170
 8874TIP3   OH226566   6.648   3.377   3.246
 8874TIP3    H126567   6.623   3.444   3.183
 8874TIP3    H226568   6.646   3.295   3.197
 8875TIP3   OH226569   3.437   5.020   5.298
 8875TIP3    H126570   3.489   5.088   5.342
 8875TIP3    H226571   3.348   5.033   5.331
 8876TIP3   OH226572   8.085   0.410   1.124
 8876TIP3    H126573   8.107   0.322   1.154
 8876TIP3    H226574   8.150   0.466   1.165
 8877TIP3   OH226575   5.249   2.534   3.829
 8877TIP3    H126576   5.314   2.466   3.814
 8877TIP3    H226577   5.276   2.577   3.910
 8878TIP3   OH226578   1.378   7.224   4.944
 8878TIP3    H126579   1.432   7.244   5.021
 8878TIP3    H226580   1.302   7.178   4.980
 8879TIP3   OH226581   3.559   0.463   2.153
 8879TIP3    H126582   3.480   0.487   2.201
 8879TIP3    H226583   3.625   0.526   2.182
 8880TIP3   OH226584   5.082   4.400   5.472
 8880TIP3    H126585   5.151   4.393   5.407
 8880TIP3    H226586   5.078   4.493   5.494
 8881TIP3   OH226587   6.128   1.169   3.372
 8881TIP3    H126588   6.077   1.239   3.412
 8881TIP3    H226589   6.074   1.091   3.383
 8882TIP3   OH226590   7.237   1.149   2.688
 8882TIP3    H126591   7.265   1.227   2.640
 8882TIP3    H226592   7.188   1.183   2.763
 8883TIP3   OH226593   4.935   4.573   2.126
 8883TIP3    H126594   4.932   4.500   2.065
 8883TIP3    H226595   4.975   4.645   2.076
 8884TIP3   OH226596   6.056   2.215   0.314
 8884TIP3    H126597   6.065   2.138   0.259
 8884TIP3    H226598   6.006   2.277   0.261
 8885TIP3   OH226599   3.901   0.325   0.604
 8885TIP3    H126600   3.966   0.372   0.552
 8885TIP3    H226601   3.873   0.253   0.548
 8886TIP3   OH226602   2.378   5.458   0.196
 8886TIP3    H126603   2.368   5.391   0.264
 8886TIP3    H226604   2.462   5.500   0.216
 8887TIP3   OH226605   5.541   7.571   6.332
 8887TIP3    H126606   5.502   7.486   6.310
 8887TIP3    H226607   5.512   7.629   6.262
 8888TIP3   OH226608   6.003   2.592   0.762
 8888TIP3    H126609   6.010   2.641   0.680
 8888TIP3    H226610   6.081   2.537   0.764
 8889TIP3   OH226611   7.114   3.591   4.969
 8889TIP3    H126612   7.018   3.592   4.965
 8889TIP3    H226613   7.134   3.521   5.031
 8890TIP3   OH226614   1.446   0.225   2.836
 8890TIP3    H126615   1.452   0.139   2.876
 8890TIP3    H226616   1.533   0.263   2.846
 8891TIP3   OH226617   0.809   7.117   3.820
 8891TIP3    H126618   0.896   7.151   3.800
 8891TIP3    H226619   0.770   7.099   3.734
 8892TIP3   OH226620   5.637   0.310   0.674
 8892TIP3    H126621   5.660   0.235   0.619
 8892TIP3    H226622   5.702   0.308   0.744
 8893TIP3   OH226623   5.141   4.276   4.626
 8893TIP3    H126624   5.104   4.317   4.704
 8893TIP3    H226625   5.083   4.304   4.554
 8894TIP3   OH226626   3.312   3.069   3.802
 8894TIP3    H126627   3.246   3.003   3.825
 8894TIP3    H226628   3.394   3.034   3.836
 8895TIP3   OH226629   2.500   4.508   6.256
 8895TIP3    H126630   2.561   4.552   6.315
 8895TIP3    H226631   2.541   4.514   6.170
 8896TIP3   OH226632   0.835   4.120   5.533
 8896TIP3    H126633   0.810   4.088   5.447
 8896TIP3    H226634   0.918   4.077   5.552
 8897TIP3   OH226635   1.614   2.823   4.686
 8897TIP3    H126636   1.620   2.763   4.612
 8897TIP3    H226637   1.647   2.906   4.652
 8898TIP3   OH226638   4.065   5.279   0.061
 8898TIP3    H126639   4.044   5.226  -0.016
 8898TIP3    H226640   4.008   5.356   0.054
 8899TIP3   OH226641   1.270   4.805   0.277
 8899TIP3    H126642   1.330   4.796   0.203
 8899TIP3    H226643   1.257   4.716   0.308
 8900TIP3   OH226644   5.668   1.914   3.521
 8900TIP3    H126645   5.616   1.981   3.564
 8900TIP3    H226646   5.619   1.833   3.534
 8901TIP3   OH226647   0.042   2.633   0.443
 8901TIP3    H126648   0.093   2.649   0.522
 8901TIP3    H226649  -0.018   2.562   0.467
 8902TIP3   OH226650   1.514   5.717   5.236
 8902TIP3    H126651   1.438   5.760   5.197
 8902TIP3    H226652   1.530   5.767   5.316
 8903TIP3   OH226653   2.552   3.897   1.538
 8903TIP3    H126654   2.537   3.913   1.445
 8903TIP3    H226655   2.507   3.969   1.582
 8904TIP3   OH226656   8.200   7.714   3.003
 8904TIP3    H126657   8.128   7.651   2.996
 8904TIP3    H226658   8.157   7.799   3.007
 8905TIP3   OH226659   2.944   6.873   1.320
 8905TIP3    H126660   2.934   6.820   1.241
 8905TIP3    H226661   2.917   6.961   1.294
 8906TIP3   OH226662   3.183   6.323   6.144
 8906TIP3    H126663   3.274   6.336   6.171
 8906TIP3    H226664   3.159   6.238   6.181
 8907TIP3   OH226665   7.131   5.666   0.917
 8907TIP3    H126666   7.183   5.604   0.969
 8907TIP3    H226667   7.146   5.641   0.826
 8908TIP3   OH226668   5.327   5.216   2.177
 8908TIP3    H126669   5.310   5.122   2.183
 8908TIP3    H226670   5.420   5.225   2.198
 8909TIP3   OH226671   0.227   4.616   1.852
 8909TIP3    H126672   0.305   4.613   1.907
 8909TIP3    H226673   0.260   4.635   1.764
 8910TIP3   OH226674   0.734   3.448   5.067
 8910TIP3    H126675   0.737   3.358   5.034
 8910TIP3    H226676   0.713   3.440   5.160
 8911TIP3   OH226677   2.978   3.799   2.589
 8911TIP3    H126678   2.897   3.757   2.558
 8911TIP3    H226679   3.023   3.730   2.638
 8912TIP3   OH226680   2.131   1.081   5.817
 8912TIP3    H126681   2.079   1.150   5.859
 8912TIP3    H226682   2.205   1.127   5.779
 8913TIP3   OH226683   5.392   1.138   4.316
 8913TIP3    H126684   5.361   1.228   4.326
 8913TIP3    H226685   5.373   1.115   4.225
 8914TIP3   OH226686   5.010   2.207   6.699
 8914TIP3    H126687   4.926   2.188   6.740
 8914TIP3    H226688   4.993   2.281   6.642
 8915TIP3   OH226689   7.355   2.125   4.580
 8915TIP3    H126690   7.313   2.062   4.520
 8915TIP3    H226691   7.326   2.210   4.549
 8916TIP3   OH226692   3.465   2.880   4.235
 8916TIP3    H126693   3.515   2.799   4.238
 8916TIP3    H226694   3.527   2.948   4.263
 8917TIP3   OH226695   0.924   1.919   0.322
 8917TIP3    H126696   0.876   2.000   0.306
 8917TIP3    H226697   0.883   1.882   0.401
 8918TIP3   OH226698   6.971   1.955   2.802
 8918TIP3    H126699   6.957   1.924   2.891
 8918TIP3    H226700   7.001   2.045   2.813
 8919TIP3   OH226701   6.960   6.371   0.461
 8919TIP3    H126702   6.917   6.288   0.437
 8919TIP3    H226703   6.901   6.411   0.524
 8920TIP3   OH226704   6.325   2.245   0.180
 8920TIP3    H126705   6.348   2.337   0.181
 8920TIP3    H226706   6.237   2.242   0.220
 8921TIP3   OH226707   6.836   5.925   4.717
 8921TIP3    H126708   6.790   5.841   4.718
 8921TIP3    H226709   6.768   5.990   4.697
 8922TIP3   OH226710   4.751   2.017   4.384
 8922TIP3    H126711   4.766   1.936   4.338
 8922TIP3    H226712   4.734   2.082   4.315
 8923TIP3   OH226713   4.538   1.745   5.692
 8923TIP3    H126714   4.576   1.729   5.605
 8923TIP3    H226715   4.504   1.659   5.719
 8924TIP3   OH226716   2.963   1.820   6.159
 8924TIP3    H126717   2.942   1.856   6.245
 8924TIP3    H226718   3.058   1.807   6.162
 8925TIP3   OH226719   6.555   3.763   1.636
 8925TIP3    H126720   6.566   3.746   1.730
 8925TIP3    H226721   6.639   3.740   1.598
 8926TIP3   OH226722   8.021   3.511   4.757
 8926TIP3    H126723   8.004   3.447   4.688
 8926TIP3    H226724   7.987   3.593   4.723
 8927TIP3   OH226725   6.177   2.584   6.495
 8927TIP3    H126726   6.121   2.583   6.417
 8927TIP3    H226727   6.140   2.517   6.552
 8928TIP3   OH226728   4.779   3.829   3.279
 8928TIP3    H126729   4.749   3.854   3.367
 8928TIP3    H226730   4.873   3.816   3.289
 8929TIP3   OH226731   2.184   6.150   0.883
 8929TIP3    H126732   2.162   6.242   0.868
 8929TIP3    H226733   2.241   6.152   0.960
 8930TIP3   OH226734   7.151   7.638   6.554
 8930TIP3    H126735   7.129   7.624   6.462
 8930TIP3    H226736   7.185   7.553   6.582
 8931TIP3   OH226737   2.751   5.389   0.489
 8931TIP3    H126738   2.844   5.392   0.468
 8931TIP3    H226739   2.708   5.373   0.405
 8932TIP3   OH226740   4.244   1.465   5.310
 8932TIP3    H126741   4.333   1.438   5.330
 8932TIP3    H226742   4.255   1.546   5.259
 8933TIP3   OH226743   3.680   5.057   4.624
 8933TIP3    H126744   3.705   4.966   4.639
 8933TIP3    H226745   3.681   5.097   4.711
 8934TIP3   OH226746   5.521   4.859   1.042
 8934TIP3    H126747   5.466   4.911   1.100
 8934TIP3    H226748   5.459   4.804   0.993
 8935TIP3   OH226749   5.805   4.736   6.164
 8935TIP3    H126750   5.878   4.707   6.219
 8935TIP3    H226751   5.758   4.656   6.141
 8936TIP3   OH226752   7.085   2.031   2.315
 8936TIP3    H126753   7.169   1.990   2.339
 8936TIP3    H226754   7.067   1.998   2.227
 8937TIP3   OH226755   5.247   6.425   4.004
 8937TIP3    H126756   5.244   6.333   4.030
 8937TIP3    H226757   5.310   6.465   4.064
 8938TIP3   OH226758   7.263   6.924   4.239
 8938TIP3    H126759   7.208   7.002   4.250
 8938TIP3    H226760   7.258   6.879   4.323
 8939TIP3   OH226761   4.939   4.761   4.257
 8939TIP3    H126762   4.852   4.722   4.262
 8939TIP3    H226763   4.978   4.745   4.343
 8940TIP3   OH226764   2.803   4.832   5.512
 8940TIP3    H126765   2.883   4.794   5.549
 8940TIP3    H226766   2.832   4.879   5.435
 8941TIP3   OH226767   3.571   0.629   0.115
 8941TIP3    H126768   3.479   0.634   0.139
 8941TIP3    H226769   3.571   0.630   0.019
 8942TIP3   OH226770   5.103   0.913   0.550
 8942TIP3    H126771   5.037   0.973   0.585
 8942TIP3    H226772   5.186   0.960   0.561
 8943TIP3   OH226773   3.891   5.730   0.594
 8943TIP3    H126774   3.885   5.687   0.679
 8943TIP3    H226775   3.981   5.764   0.591
 8944TIP3   OH226776   6.562   0.160   5.544
 8944TIP3    H126777   6.601   0.247   5.544
 8944TIP3    H226778   6.556   0.137   5.637
 8945TIP3   OH226779   2.038   2.416   5.049
 8945TIP3    H126780   1.966   2.382   4.997
 8945TIP3    H226781   2.001   2.491   5.096
 8946TIP3   OH226782   1.774   0.255   0.357
 8946TIP3    H126783   1.827   0.277   0.434
 8946TIP3    H226784   1.687   0.289   0.378
 8947TIP3   OH226785   5.042   2.882   4.260
 8947TIP3    H126786   5.028   2.952   4.197
 8947TIP3    H226787   4.992   2.808   4.225
 8948TIP3   OH226788   6.609   5.131   2.683
 8948TIP3    H126789   6.616   5.052   2.629
 8948TIP3    H226790   6.665   5.114   2.759
 8949TIP3   OH226791   2.342   3.957   1.730
 8949TIP3    H126792   2.403   3.912   1.787
 8949TIP3    H226793   2.260   3.959   1.779
 8950TIP3   OH226794   6.750   5.680   6.391
 8950TIP3    H126795   6.731   5.635   6.308
 8950TIP3    H226796   6.674   5.662   6.446
 8951TIP3   OH226797   7.323   4.642   1.936
 8951TIP3    H126798   7.367   4.561   1.963
 8951TIP3    H226799   7.273   4.617   1.858
 8952TIP3   OH226800   1.368   1.838   2.343
 8952TIP3    H126801   1.328   1.757   2.309
 8952TIP3    H226802   1.309   1.907   2.313
 8953TIP3   OH226803   2.501   2.733   2.308
 8953TIP3    H126804   2.448   2.810   2.291
 8953TIP3    H226805   2.481   2.710   2.399
 8954TIP3   OH226806   7.323   3.230   2.591
 8954TIP3    H126807   7.335   3.142   2.554
 8954TIP3    H226808   7.229   3.247   2.581
 8955TIP3   OH226809   1.675   3.848   3.411
 8955TIP3    H126810   1.723   3.906   3.351
 8955TIP3    H226811   1.601   3.901   3.442
 8956TIP3   OH226812   7.305   0.813   3.733
 8956TIP3    H126813   7.396   0.794   3.713
 8956TIP3    H226814   7.255   0.757   3.673
 8957TIP3   OH226815   2.786   7.000   0.482
 8957TIP3    H126816   2.703   7.043   0.506
 8957TIP3    H226817   2.768   6.960   0.397
 8958TIP3   OH226818   5.410   1.585   3.879
 8958TIP3    H126819   5.475   1.538   3.826
 8958TIP3    H226820   5.330   1.533   3.871
 8959TIP3   OH226821   4.174   6.247   3.699
 8959TIP3    H126822   4.133   6.164   3.723
 8959TIP3    H226823   4.254   6.251   3.753
 8960TIP3   OH226824   4.728   2.845   3.797
 8960TIP3    H126825   4.725   2.751   3.814
 8960TIP3    H226826   4.691   2.855   3.709
 8961TIP3   OH226827   1.642   1.849   4.970
 8961TIP3    H126828   1.682   1.921   4.922
 8961TIP3    H226829   1.603   1.891   5.047
 8962TIP3   OH226830   1.933   1.372   3.038
 8962TIP3    H126831   1.878   1.296   3.057
 8962TIP3    H226832   1.887   1.446   3.077
 8963TIP3   OH226833   7.808   6.883   4.165
 8963TIP3    H126834   7.789   6.803   4.214
 8963TIP3    H226835   7.752   6.949   4.207
 8964TIP3   OH226836   6.723   2.176   0.201
 8964TIP3    H126837   6.668   2.102   0.226
 8964TIP3    H226838   6.728   2.170   0.105
 8965TIP3   OH226839   4.301   5.897   4.036
 8965TIP3    H126840   4.294   5.967   4.101
 8965TIP3    H226841   4.378   5.921   3.984
 8966TIP3   OH226842   8.084   5.376   2.920
 8966TIP3    H126843   8.136   5.298   2.939
 8966TIP3    H226844   8.054   5.407   3.005
 8967TIP3   OH226845   6.431   0.775   6.715
 8967TIP3    H126846   6.512   0.756   6.668
 8967TIP3    H226847   6.460   0.799   6.803
 8968TIP3   OH226848   1.747   3.716   5.701
 8968TIP3    H126849   1.669   3.674   5.739
 8968TIP3    H226850   1.715   3.799   5.666
 8969TIP3   OH226851   3.644   3.922   4.133
 8969TIP3    H126852   3.576   3.858   4.109
 8969TIP3    H226853   3.598   3.985   4.188
 8970TIP3   OH226854   4.971   3.330   3.059
 8970TIP3    H126855   5.053   3.337   3.011
 8970TIP3    H226856   4.952   3.236   3.060
 8971TIP3   OH226857   7.156   4.031   4.027
 8971TIP3    H126858   7.074   4.080   4.012
 8971TIP3    H226859   7.144   3.990   4.113
 8972TIP3   OH226860   2.797   4.222   2.814
 8972TIP3    H126861   2.770   4.259   2.898
 8972TIP3    H226862   2.880   4.265   2.794
 8973TIP3   OH226863   7.411   3.828   5.855
 8973TIP3    H126864   7.347   3.807   5.788
 8973TIP3    H226865   7.491   3.782   5.828
 8974TIP3   OH226866   5.392   6.526   2.567
 8974TIP3    H126867   5.408   6.605   2.515
 8974TIP3    H226868   5.480   6.490   2.581
 8975TIP3   OH226869   6.772   6.218   3.306
 8975TIP3    H126870   6.768   6.126   3.283
 8975TIP3    H226871   6.866   6.238   3.311
 8976TIP3   OH226872   4.447   7.128   5.750
 8976TIP3    H126873   4.509   7.176   5.696
 8976TIP3    H226874   4.409   7.194   5.808
 8977TIP3   OH226875   7.716   7.652   1.385
 8977TIP3    H126876   7.687   7.671   1.474
 8977TIP3    H226877   7.677   7.722   1.332
 8978TIP3   OH226878   5.261   4.272   3.838
 8978TIP3    H126879   5.328   4.258   3.905
 8978TIP3    H226880   5.228   4.360   3.855
 8979TIP3   OH226881   0.415   0.093   0.612
 8979TIP3    H126882   0.463   0.014   0.636
 8979TIP3    H226883   0.357   0.109   0.687
 8980TIP3   OH226884   7.307   0.506   1.784
 8980TIP3    H126885   7.225   0.458   1.772
 8980TIP3    H226886   7.306   0.574   1.717
 8981TIP3   OH226887   7.802   2.350   4.779
 8981TIP3    H126888   7.775   2.269   4.824
 8981TIP3    H226889   7.859   2.321   4.709
 8982TIP3   OH226890   0.045   0.472   5.220
 8982TIP3    H126891   0.135   0.474   5.254
 8982TIP3    H226892  -0.008   0.505   5.292
 8983TIP3   OH226893   1.534   5.581   3.072
 8983TIP3    H126894   1.524   5.622   3.158
 8983TIP3    H226895   1.627   5.558   3.067
 8984TIP3   OH226896   2.427   1.840   0.982
 8984TIP3    H126897   2.364   1.861   1.051
 8984TIP3    H226898   2.411   1.906   0.914
 8985TIP3   OH226899   4.586   6.504   4.507
 8985TIP3    H126900   4.662   6.485   4.562
 8985TIP3    H226901   4.516   6.449   4.543
 8986TIP3   OH226902   1.533   4.455   5.233
 8986TIP3    H126903   1.576   4.404   5.164
 8986TIP3    H226904   1.525   4.543   5.196
 8987TIP3   OH226905   7.299   3.744   2.680
 8987TIP3    H126906   7.373   3.686   2.698
 8987TIP3    H226907   7.320   3.824   2.728
 8988TIP3   OH226908   0.506   7.835   6.187
 8988TIP3    H126909   0.450   7.772   6.232
 8988TIP3    H226910   0.566   7.867   6.254
 8989TIP3   OH226911   5.525   2.558   5.156
 8989TIP3    H126912   5.547   2.619   5.085
 8989TIP3    H226913   5.567   2.476   5.131
 8990TIP3   OH226914   4.963   1.881   1.428
 8990TIP3    H126915   4.972   1.976   1.438
 8990TIP3    H226916   4.931   1.869   1.339
 8991TIP3   OH226917   0.543   6.807   6.356
 8991TIP3    H126918   0.514   6.880   6.410
 8991TIP3    H226919   0.637   6.802   6.370
 8992TIP3   OH226920   3.476   6.074   5.966
 8992TIP3    H126921   3.393   6.031   5.988
 8992TIP3    H226922   3.541   6.031   6.021
 8993TIP3   OH226923   6.405   4.226   4.507
 8993TIP3    H126924   6.335   4.164   4.485
 8993TIP3    H226925   6.376   4.309   4.470
 8994TIP3   OH226926   1.851   3.784   2.971
 8994TIP3    H126927   1.825   3.693   2.984
 8994TIP3    H226928   1.894   3.785   2.886
 8995TIP3   OH226929   1.571   5.504   1.427
 8995TIP3    H126930   1.550   5.443   1.498
 8995TIP3    H226931   1.564   5.451   1.348
 8996TIP3   OH226932   6.121   2.075   2.207
 8996TIP3    H126933   6.213   2.098   2.191
 8996TIP3    H226934   6.113   1.986   2.174
 8997TIP3   OH226935   5.602   4.291   3.351
 8997TIP3    H126936   5.608   4.381   3.322
 8997TIP3    H226937   5.536   4.251   3.295
 8998TIP3   OH226938   4.279   6.872   4.164
 8998TIP3    H126939   4.314   6.879   4.075
 8998TIP3    H226940   4.271   6.962   4.194
 8999TIP3   OH226941   1.718   6.103   3.303
 8999TIP3    H126942   1.626   6.084   3.284
 8999TIP3    H226943   1.758   6.016   3.316
 9000TIP3   OH226944   4.868   0.912   1.497
 9000TIP3    H126945   4.797   0.973   1.518
 9000TIP3    H226946   4.853   0.838   1.556
 9001TIP3   OH226947   0.740   3.638   5.950
 9001TIP3    H126948   0.816   3.580   5.951
 9001TIP3    H226949   0.665   3.580   5.962
 9002TIP3   OH226950   3.361   5.291   3.537
 9002TIP3    H126951   3.387   5.383   3.548
 9002TIP3    H226952   3.279   5.283   3.586
 9003TIP3   OH226953   2.579   7.469   4.121
 9003TIP3    H126954   2.672   7.447   4.120
 9003TIP3    H226955   2.574   7.555   4.078
 9004TIP3   OH226956   2.986   4.553   2.567
 9004TIP3    H126957   2.949   4.467   2.547
 9004TIP3    H226958   3.073   4.533   2.602
 9005TIP3   OH226959   7.547   5.811   2.499
 9005TIP3    H126960   7.548   5.728   2.451
 9005TIP3    H226961   7.611   5.799   2.569
 9006TIP3   OH226962   6.066   4.192   2.094
 9006TIP3    H126963   5.991   4.134   2.104
 9006TIP3    H226964   6.055   4.229   2.006
 9007TIP3   OH226965   7.566   6.255   1.709
 9007TIP3    H126966   7.612   6.174   1.688
 9007TIP3    H226967   7.583   6.268   1.803
 9008TIP3   OH226968   2.326   5.508   3.994
 9008TIP3    H126969   2.370   5.504   4.078
 9008TIP3    H226970   2.235   5.487   4.013
 9009TIP3   OH226971   5.802   5.398   0.536
 9009TIP3    H126972   5.745   5.397   0.459
 9009TIP3    H226973   5.890   5.415   0.502
 9010TIP3   OH226974   5.481   1.865   0.320
 9010TIP3    H126975   5.515   1.843   0.234
 9010TIP3    H226976   5.476   1.781   0.366
 9011TIP3   OH226977   3.038   1.588   4.613
 9011TIP3    H126978   2.947   1.599   4.585
 9011TIP3    H226979   3.075   1.524   4.552
 9012TIP3   OH226980   5.330   3.109   1.685
 9012TIP3    H126981   5.252   3.164   1.680
 9012TIP3    H226982   5.385   3.139   1.612
 9013TIP3   OH226983   4.792   6.578   3.472
 9013TIP3    H126984   4.718   6.637   3.461
 9013TIP3    H226985   4.758   6.491   3.449
 9014TIP3   OH226986   3.514   7.689   2.466
 9014TIP3    H126987   3.517   7.724   2.555
 9014TIP3    H226988   3.604   7.700   2.433
 9015TIP3   OH226989   2.569   3.667   2.111
 9015TIP3    H126990   2.645   3.618   2.080
 9015TIP3    H226991   2.604   3.729   2.175
 9016TIP3   OH226992   4.688   0.754   0.587
 9016TIP3    H126993   4.701   0.668   0.628
 9016TIP3    H226994   4.648   0.808   0.655
 9017TIP3   OH226995   6.606   2.094   4.273
 9017TIP3    H126996   6.592   2.040   4.351
 9017TIP3    H226997   6.519   2.098   4.231
 9018TIP3   OH226998   7.395   3.537   3.295
 9018TIP3    H126999   7.307   3.562   3.324
 9018TIP3    H227000   7.418   3.462   3.349
 9019TIP3   OH227001   4.857   3.127   4.454
 9019TIP3    H127002   4.864   3.208   4.404
 9019TIP3    H227003   4.946   3.110   4.486
 9020TIP3   OH227004   4.508   1.328   3.670
 9020TIP3    H127005   4.532   1.352   3.581
 9020TIP3    H227006   4.585   1.283   3.705
 9021TIP3   OH227007   3.358   4.226   2.646
 9021TIP3    H127008   3.337   4.137   2.619
 9021TIP3    H227009   3.278   4.257   2.688
 9022TIP3   OH227010   1.060   7.506   5.706
 9022TIP3    H127011   0.978   7.537   5.668
 9022TIP3    H227012   1.064   7.413   5.682
 9023TIP3   OH227013   4.227   1.291   0.793
 9023TIP3    H127014   4.191   1.288   0.705
 9023TIP3    H227015   4.238   1.385   0.811
 9024TIP3   OH227016   1.581   1.277   2.865
 9024TIP3    H127017   1.627   1.238   2.791
 9024TIP3    H227018   1.490   1.250   2.854
 9025TIP3   OH227019   4.912   7.586   5.462
 9025TIP3    H127020   4.945   7.651   5.524
 9025TIP3    H227021   4.939   7.502   5.499
 9026TIP3   OH227022   3.159   5.838   1.369
 9026TIP3    H127023   3.159   5.930   1.343
 9026TIP3    H227024   3.207   5.837   1.451
 9027TIP3   OH227025   6.459   5.571   4.893
 9027TIP3    H127026   6.514   5.507   4.938
 9027TIP3    H227027   6.433   5.528   4.812
 9028TIP3   OH227028   1.175   4.103   2.810
 9028TIP3    H127029   1.131   4.054   2.880
 9028TIP3    H227030   1.256   4.054   2.795
 9029TIP3   OH227031   5.952   1.790   6.539
 9029TIP3    H127032   5.999   1.727   6.483
 9029TIP3    H227033   5.904   1.735   6.601
 9030TIP3   OH227034   2.102   3.047   2.227
 9030TIP3    H127035   2.101   3.046   2.131
 9030TIP3    H227036   2.017   3.086   2.251
 9031TIP3   OH227037   7.193   5.341   3.195
 9031TIP3    H127038   7.190   5.256   3.238
 9031TIP3    H227039   7.273   5.339   3.143
 9032TIP3   OH227040   4.290   2.216   0.320
 9032TIP3    H127041   4.293   2.304   0.357
 9032TIP3    H227042   4.381   2.189   0.313
 9033TIP3   OH227043   1.965   4.438   4.916
 9033TIP3    H127044   1.908   4.454   4.841
 9033TIP3    H227045   1.995   4.525   4.942
 9034TIP3   OH227046   6.746   7.211   1.559
 9034TIP3    H127047   6.827   7.225   1.510
 9034TIP3    H227048   6.686   7.173   1.495
 9035TIP3   OH227049   0.871   4.722   2.508
 9035TIP3    H127050   0.826   4.744   2.590
 9035TIP3    H227051   0.873   4.804   2.459
 9036TIP3   OH227052   7.831   4.221   5.202
 9036TIP3    H127053   7.879   4.201   5.121
 9036TIP3    H227054   7.896   4.265   5.257
 9037TIP3   OH227055   0.803   3.165   5.991
 9037TIP3    H127056   0.887   3.204   6.014
 9037TIP3    H227057   0.823   3.109   5.916
 9038TIP3   OH227058   6.765   7.253   1.180
 9038TIP3    H127059   6.811   7.176   1.214
 9038TIP3    H227060   6.784   7.323   1.242
 9039TIP3   OH227061   0.349   5.519   5.107
 9039TIP3    H127062   0.357   5.465   5.185
 9039TIP3    H227063   0.314   5.602   5.140
 9040TIP3   OH227064   1.219   1.601   0.321
 9040TIP3    H127065   1.302   1.643   0.300
 9040TIP3    H227066   1.152   1.666   0.300
 9041TIP3   OH227067   3.839   6.418   0.552
 9041TIP3    H127068   3.758   6.374   0.576
 9041TIP3    H227069   3.865   6.378   0.470
 9042TIP3   OH227070   4.514   5.495   4.424
 9042TIP3    H127071   4.526   5.421   4.365
 9042TIP3    H227072   4.428   5.481   4.463
 9043TIP3   OH227073   2.191   4.534   0.808
 9043TIP3    H127074   2.285   4.518   0.812
 9043TIP3    H227075   2.183   4.626   0.783
 9044TIP3   OH227076   7.633   2.502   3.457
 9044TIP3    H127077   7.551   2.549   3.475
 9044TIP3    H227078   7.702   2.562   3.486
 9045TIP3   OH227079   1.761   6.015   2.184
 9045TIP3    H127080   1.665   6.018   2.189
 9045TIP3    H227081   1.781   5.929   2.149
 9046TIP3   OH227082   1.338   5.826   0.561
 9046TIP3    H127083   1.275   5.889   0.596
 9046TIP3    H227084   1.412   5.830   0.621
 9047TIP3   OH227085   3.948   0.374   5.262
 9047TIP3    H127086   4.043   0.384   5.259
 9047TIP3    H227087   3.920   0.388   5.172
 9048TIP3   OH227088   1.286   6.717   0.875
 9048TIP3    H127089   1.255   6.804   0.849
 9048TIP3    H227090   1.261   6.710   0.967
 9049TIP3   OH227091   2.143   4.881   0.010
 9049TIP3    H127092   2.080   4.945   0.041
 9049TIP3    H227093   2.227   4.910   0.047
 9050TIP3   OH227094   2.932   4.561   5.297
 9050TIP3    H127095   2.921   4.590   5.207
 9050TIP3    H227096   3.022   4.588   5.320
 9051TIP3   OH227097   5.573   2.743   3.032
 9051TIP3    H127098   5.563   2.815   2.969
 9051TIP3    H227099   5.487   2.701   3.033
 9052TIP3   OH227100   4.838   5.995   3.268
 9052TIP3    H127101   4.913   6.018   3.213
 9052TIP3    H227102   4.876   5.941   3.338
 9053TIP3   OH227103   2.051   5.359   3.689
 9053TIP3    H127104   2.037   5.305   3.611
 9053TIP3    H227105   2.124   5.417   3.665
 9054TIP3   OH227106   7.647   4.972   5.814
 9054TIP3    H127107   7.653   5.067   5.806
 9054TIP3    H227108   7.592   4.945   5.741
 9055TIP3   OH227109   1.965   1.810   5.530
 9055TIP3    H127110   1.923   1.890   5.561
 9055TIP3    H227111   2.055   1.816   5.563
 9056TIP3   OH227112   2.020   2.787   3.831
 9056TIP3    H127113   2.029   2.697   3.862
 9056TIP3    H227114   2.042   2.783   3.739
 9057TIP3   OH227115   6.726   3.997   6.600
 9057TIP3    H127116   6.651   4.024   6.546
 9057TIP3    H227117   6.765   3.925   6.551
 9058TIP3   OH227118   4.256   7.241   6.024
 9058TIP3    H127119   4.243   7.334   6.040
 9058TIP3    H227120   4.169   7.206   6.006
 9059TIP3   OH227121   7.232   5.170   2.054
 9059TIP3    H127122   7.296   5.126   1.998
 9059TIP3    H227123   7.202   5.102   2.114
 9060TIP3   OH227124   3.863   2.624   5.764
 9060TIP3    H127125   3.911   2.657   5.688
 9060TIP3    H227126   3.841   2.702   5.815
 9061TIP3   OH227127   4.735   1.374   0.865
 9061TIP3    H127128   4.803   1.414   0.810
 9061TIP3    H227129   4.780   1.301   0.908
 9062TIP3   OH227130   3.758   4.670   0.684
 9062TIP3    H127131   3.799   4.653   0.768
 9062TIP3    H227132   3.671   4.630   0.691
 9063TIP3   OH227133   6.340   2.102   4.219
 9063TIP3    H127134   6.328   2.196   4.216
 9063TIP3    H227135   6.302   2.075   4.302
 9064TIP3   OH227136   4.329   6.440   4.638
 9064TIP3    H127137   4.253   6.463   4.584
 9064TIP3    H227138   4.318   6.492   4.717
 9065TIP3   OH227139   0.103   3.239   2.359
 9065TIP3    H127140   0.047   3.252   2.282
 9065TIP3    H227141   0.044   3.206   2.426
 9066TIP3   OH227142   5.085   0.648   0.505
 9066TIP3    H127143   5.175   0.616   0.496
 9066TIP3    H227144   5.093   0.742   0.519
 9067TIP3   OH227145   7.264   0.577   3.936
 9067TIP3    H127146   7.337   0.518   3.918
 9067TIP3    H227147   7.293   0.662   3.905
 9068TIP3   OH227148   3.608   5.466   4.020
 9068TIP3    H127149   3.630   5.435   4.108
 9068TIP3    H227150   3.648   5.553   4.015
 9069TIP3   OH227151   4.887   2.470   5.570
 9069TIP3    H127152   4.922   2.559   5.561
 9069TIP3    H227153   4.958   2.413   5.540
 9070TIP3   OH227154  -0.017   3.828   2.271
 9070TIP3    H127155   0.007   3.739   2.295
 9070TIP3    H227156   0.057   3.881   2.298
 9071TIP3   OH227157   5.587   0.631   3.513
 9071TIP3    H127158   5.492   0.619   3.516
 9071TIP3    H227159   5.610   0.657   3.602
 9072TIP3   OH227160   6.835   1.059   5.178
 9072TIP3    H127161   6.914   1.007   5.161
 9072TIP3    H227162   6.765   1.009   5.137
 9073TIP3   OH227163   2.573   5.923   2.249
 9073TIP3    H127164   2.615   5.999   2.209
 9073TIP3    H227165   2.611   5.848   2.203
 9074TIP3   OH227166   0.432   6.152   6.493
 9074TIP3    H127167   0.437   6.231   6.439
 9074TIP3    H227168   0.463   6.082   6.435
 9075TIP3   OH227169   4.710   7.158   0.205
 9075TIP3    H127170   4.724   7.064   0.198
 9075TIP3    H227171   4.724   7.191   0.116
 9076TIP3   OH227172   8.222   6.204   5.152
 9076TIP3    H127173   8.194   6.142   5.219
 9076TIP3    H227174   8.174   6.178   5.074
 9077TIP3   OH227175   1.752   0.390   5.425
 9077TIP3    H127176   1.817   0.395   5.355
 9077TIP3    H227177   1.669   0.410   5.382
 9078TIP3   OH227178   5.206   1.581   5.170
 9078TIP3    H127179   5.182   1.674   5.172
 9078TIP3    H227180   5.300   1.580   5.191
 9079TIP3   OH227181   6.300   7.484   3.089
 9079TIP3    H127182   6.276   7.430   3.013
 9079TIP3    H227183   6.264   7.438   3.164
 9080TIP3   OH227184   5.304   7.260   0.906
 9080TIP3    H127185   5.265   7.288   0.989
 9080TIP3    H227186   5.391   7.299   0.906
 9081TIP3   OH227187   6.510   6.079   2.249
 9081TIP3    H127188   6.466   6.118   2.325
 9081TIP3    H227189   6.603   6.097   2.264
 9082TIP3   OH227190   6.418   4.454   4.212
 9082TIP3    H127191   6.356   4.526   4.210
 9082TIP3    H227192   6.469   4.468   4.292
 9083TIP3   OH227193   5.565   3.215   3.928
 9083TIP3    H127194   5.557   3.306   3.957
 9083TIP3    H227195   5.561   3.219   3.833
 9084TIP3   OH227196   6.537   1.358   1.657
 9084TIP3    H127197   6.567   1.338   1.569
 9084TIP3    H227198   6.510   1.450   1.653
 9085TIP3   OH227199   0.337   2.215   3.369
 9085TIP3    H127200   0.284   2.162   3.428
 9085TIP3    H227201   0.277   2.284   3.339
 9086TIP3   OH227202   4.210   5.547   5.162
 9086TIP3    H127203   4.289   5.535   5.108
 9086TIP3    H227204   4.234   5.511   5.247
 9087TIP3   OH227205   2.751   0.832   4.939
 9087TIP3    H127206   2.763   0.879   5.022
 9087TIP3    H227207   2.831   0.781   4.929
 9088TIP3   OH227208   6.671   0.132   3.964
 9088TIP3    H127209   6.594   0.164   3.917
 9088TIP3    H227210   6.734   0.204   3.957
 9089TIP3   OH227211   5.973   4.701   6.540
 9089TIP3    H127212   5.975   4.610   6.567
 9089TIP3    H227213   5.892   4.736   6.576
 9090TIP3   OH227214   3.720   5.093   1.337
 9090TIP3    H127215   3.671   5.175   1.338
 9090TIP3    H227216   3.660   5.029   1.376
 9091TIP3   OH227217   3.445   6.592   6.685
 9091TIP3    H127218   3.474   6.674   6.727
 9091TIP3    H227219   3.359   6.614   6.648
 9092TIP3   OH227220   6.640   5.136   0.600
 9092TIP3    H127221   6.667   5.050   0.567
 9092TIP3    H227222   6.709   5.196   0.573
 9093TIP3   OH227223   3.878   3.982   3.256
 9093TIP3    H127224   3.888   3.887   3.256
 9093TIP3    H227225   3.783   3.996   3.262
 9094TIP3   OH227226   6.378   6.762   0.492
 9094TIP3    H127227   6.429   6.784   0.414
 9094TIP3    H227228   6.374   6.666   0.492
 9095TIP3   OH227229   5.012   7.401   6.494
 9095TIP3    H127230   5.095   7.392   6.540
 9095TIP3    H227231   4.963   7.464   6.546
 9096TIP3   OH227232   1.557   7.211   3.366
 9096TIP3    H127233   1.645   7.177   3.349
 9096TIP3    H227234   1.562   7.304   3.342
 9097TIP3   OH227235   7.860   6.379   3.546
 9097TIP3    H127236   7.829   6.375   3.637
 9097TIP3    H227237   7.945   6.334   3.548
 9098TIP3   OH227238   5.285   1.655   4.478
 9098TIP3    H127239   5.198   1.645   4.441
 9098TIP3    H227240   5.281   1.736   4.530
 9099TIP3   OH227241   6.055   2.936   2.025
 9099TIP3    H127242   6.144   2.967   2.039
 9099TIP3    H227243   6.032   2.891   2.107
 9100TIP3   OH227244   4.813   4.738   5.732
 9100TIP3    H127245   4.759   4.816   5.717
 9100TIP3    H227246   4.785   4.676   5.666
 9101TIP3   OH227247   3.447   4.434   4.898
 9101TIP3    H127248   3.462   4.527   4.883
 9101TIP3    H227249   3.452   4.395   4.811
 9102TIP3   OH227250   3.746   0.186   3.447
 9102TIP3    H127251   3.660   0.201   3.486
 9102TIP3    H227252   3.804   0.175   3.523
 9103TIP3   OH227253   7.759   2.252   5.601
 9103TIP3    H127254   7.733   2.200   5.525
 9103TIP3    H227255   7.735   2.197   5.677
 9104TIP3   OH227256   4.395   7.330   4.066
 9104TIP3    H127257   4.388   7.359   4.157
 9104TIP3    H227258   4.396   7.410   4.015
 9105TIP3   OH227259   4.525   3.047   1.679
 9105TIP3    H127260   4.507   3.111   1.610
 9105TIP3    H227261   4.532   3.100   1.759
 9106TIP3   OH227262   8.054   2.428   2.575
 9106TIP3    H127263   8.022   2.350   2.619
 9106TIP3    H227264   8.141   2.403   2.542
 9107TIP3   OH227265   0.259   0.298   2.135
 9107TIP3    H127266   0.292   0.269   2.051
 9107TIP3    H227267   0.334   0.294   2.194
 9108TIP3   OH227268   6.136   4.409   2.272
 9108TIP3    H127269   6.103   4.330   2.229
 9108TIP3    H227270   6.216   4.430   2.224
 9109TIP3   OH227271   7.029   5.116   1.862
 9109TIP3    H127272   7.097   5.139   1.924
 9109TIP3    H227273   6.948   5.120   1.912
 9110TIP3   OH227274   1.521   2.672   3.116
 9110TIP3    H127275   1.450   2.718   3.159
 9110TIP3    H227276   1.481   2.633   3.038
 9111TIP3   OH227277   1.507   4.070   6.768
 9111TIP3    H127278   1.543   4.078   6.680
 9111TIP3    H227279   1.415   4.093   6.758
 9112TIP3   OH227280   6.421   2.111   1.459
 9112TIP3    H127281   6.385   2.152   1.381
 9112TIP3    H227282   6.516   2.119   1.450
 9113TIP3   OH227283   0.350   1.980   6.415
 9113TIP3    H127284   0.359   1.886   6.398
 9113TIP3    H227285   0.257   1.991   6.437
 9114TIP3   OH227286   6.551   6.537   6.013
 9114TIP3    H127287   6.455   6.532   6.004
 9114TIP3    H227288   6.566   6.625   6.046
 9115TIP3   OH227289   2.884   5.084   2.714
 9115TIP3    H127290   2.841   5.017   2.661
 9115TIP3    H227291   2.828   5.162   2.705
 9116TIP3   OH227292   6.690   6.154   0.026
 9116TIP3    H127293   6.609   6.109   0.050
 9116TIP3    H227294   6.682   6.241   0.066
 9117TIP3   OH227295   4.834   1.192   6.190
 9117TIP3    H127296   4.869   1.181   6.101
 9117TIP3    H227297   4.740   1.204   6.177
 9118TIP3   OH227298   7.843   4.194   5.525
 9118TIP3    H127299   7.929   4.226   5.551
 9118TIP3    H227300   7.859   4.106   5.490
 9119TIP3   OH227301   6.692   2.895   0.766
 9119TIP3    H127302   6.704   2.954   0.692
 9119TIP3    H227303   6.719   2.946   0.842
 9120TIP3   OH227304   3.035   2.592   4.591
 9120TIP3    H127305   2.979   2.652   4.541
 9120TIP3    H227306   3.124   2.610   4.561
 9121TIP3   OH227307   4.091   0.214   0.822
 9121TIP3    H127308   4.166   0.211   0.762
 9121TIP3    H227309   4.022   0.256   0.771
 9122TIP3   OH227310   7.214   3.825   0.653
 9122TIP3    H127311   7.129   3.826   0.698
 9122TIP3    H227312   7.201   3.764   0.581
 9123TIP3   OH227313   4.593   1.357   1.505
 9123TIP3    H127314   4.606   1.358   1.599
 9123TIP3    H227315   4.662   1.413   1.470
 9124TIP3   OH227316   5.602   1.256   5.820
 9124TIP3    H127317   5.593   1.302   5.737
 9124TIP3    H227318   5.681   1.293   5.861
 9125TIP3   OH227319   2.740   3.517   4.376
 9125TIP3    H127320   2.733   3.423   4.359
 9125TIP3    H227321   2.776   3.523   4.464
 9126TIP3   OH227322   0.359   5.834   4.667
 9126TIP3    H127323   0.270   5.800   4.667
 9126TIP3    H227324   0.363   5.891   4.744
 9127TIP3   OH227325   0.118   1.292   5.390
 9127TIP3    H127326   0.161   1.301   5.305
 9127TIP3    H227327   0.123   1.198   5.409
 9128TIP3   OH227328   1.093   1.806   2.799
 9128TIP3    H127329   1.127   1.765   2.720
 9128TIP3    H227330   1.005   1.837   2.775
 9129TIP3   OH227331   5.142   6.618   1.532
 9129TIP3    H127332   5.181   6.567   1.461
 9129TIP3    H227333   5.188   6.587   1.611
 9130TIP3   OH227334   3.542   3.831   0.927
 9130TIP3    H127335   3.540   3.906   0.987
 9130TIP3    H227336   3.461   3.838   0.877
 9131TIP3   OH227337   2.035   4.020   6.658
 9131TIP3    H127338   2.019   3.953   6.725
 9131TIP3    H227339   2.129   4.036   6.663
 9132TIP3   OH227340   5.270   3.098   3.092
 9132TIP3    H127341   5.310   3.060   3.170
 9132TIP3    H227342   5.225   3.025   3.049
 9133TIP3   OH227343   7.885   4.031   4.611
 9133TIP3    H127344   7.814   4.095   4.610
 9133TIP3    H227345   7.871   3.981   4.692
 9134TIP3   OH227346   3.576   0.990   6.658
 9134TIP3    H127347   3.511   1.015   6.592
 9134TIP3    H227348   3.525   0.970   6.736
 9135TIP3   OH227349   3.982   3.388   1.540
 9135TIP3    H127350   4.003   3.347   1.625
 9135TIP3    H227351   3.887   3.389   1.537
 9136TIP3   OH227352   0.089   5.270   2.356
 9136TIP3    H127353   0.170   5.318   2.374
 9136TIP3    H227354   0.058   5.245   2.443
 9137TIP3   OH227355   6.582   1.490   1.233
 9137TIP3    H127356   6.592   1.498   1.138
 9137TIP3    H227357   6.538   1.407   1.246
 9138TIP3   OH227358   0.174   3.104   4.364
 9138TIP3    H127359   0.209   3.170   4.304
 9138TIP3    H227360   0.249   3.078   4.417
 9139TIP3   OH227361   7.890   3.276   5.517
 9139TIP3    H127362   7.842   3.345   5.471
 9139TIP3    H227363   7.823   3.231   5.568
 9140TIP3   OH227364   1.939   0.155   3.363
 9140TIP3    H127365   1.913   0.143   3.454
 9140TIP3    H227366   1.875   0.104   3.313
 9141TIP3   OH227367   5.445   5.405   0.890
 9141TIP3    H127368   5.364   5.456   0.898
 9141TIP3    H227369   5.437   5.360   0.806
 9142TIP3   OH227370   5.348   1.839   3.231
 9142TIP3    H127371   5.313   1.870   3.315
 9142TIP3    H227372   5.374   1.749   3.248
 9143TIP3   OH227373   6.298   3.159   1.061
 9143TIP3    H127374   6.209   3.127   1.044
 9143TIP3    H227375   6.324   3.202   0.979
 9144TIP3   OH227376   4.276   2.781   2.993
 9144TIP3    H127377   4.331   2.714   2.953
 9144TIP3    H227378   4.336   2.854   3.009
 9145TIP3   OH227379   4.770   5.979   4.887
 9145TIP3    H127380   4.854   6.014   4.859
 9145TIP3    H227381   4.707   6.011   4.823
 9146TIP3   OH227382   4.153   6.942   3.267
 9146TIP3    H127383   4.086   6.875   3.255
 9146TIP3    H227384   4.191   6.953   3.180
 9147TIP3   OH227385   1.342   6.586   5.897
 9147TIP3    H127386   1.290   6.655   5.936
 9147TIP3    H227387   1.399   6.555   5.968
 9148TIP3   OH227388   5.287   3.122   0.733
 9148TIP3    H127389   5.324   3.043   0.773
 9148TIP3    H227390   5.325   3.194   0.782
 9149TIP3   OH227391   7.891   3.059   1.354
 9149TIP3    H127392   7.947   3.122   1.309
 9149TIP3    H227393   7.802   3.087   1.335
 9150TIP3   OH227394   4.176   4.760   4.302
 9150TIP3    H127395   4.108   4.770   4.236
 9150TIP3    H227396   4.144   4.810   4.377
 9151TIP3   OH227397   8.236   5.671   2.751
 9151TIP3    H127398   8.290   5.640   2.823
 9151TIP3    H227399   8.204   5.591   2.709
 9152TIP3   OH227400   8.217   6.835   5.416
 9152TIP3    H127401   8.200   6.746   5.449
 9152TIP3    H227402   8.133   6.863   5.380
 9153TIP3   OH227403   5.943   1.074   4.102
 9153TIP3    H127404   5.927   1.078   4.196
 9153TIP3    H227405   5.993   0.994   4.089
 9154TIP3   OH227406   3.525   7.254   2.540
 9154TIP3    H127407   3.533   7.161   2.563
 9154TIP3    H227408   3.579   7.300   2.604
 9155TIP3   OH227409   4.779   6.782   5.327
 9155TIP3    H127410   4.842   6.793   5.256
 9155TIP3    H227411   4.772   6.687   5.338
 9156TIP3   OH227412   0.348   2.860   2.796
 9156TIP3    H127413   0.324   2.943   2.754
 9156TIP3    H227414   0.433   2.878   2.838
 9157TIP3   OH227415   0.727   6.717   0.945
 9157TIP3    H127416   0.778   6.795   0.966
 9157TIP3    H227417   0.682   6.695   1.027
 9158TIP3   OH227418   3.532   0.078   1.669
 9158TIP3    H127419   3.547   0.169   1.643
 9158TIP3    H227420   3.445   0.078   1.709
 9159TIP3   OH227421   2.119   0.333   2.971
 9159TIP3    H127422   2.214   0.342   2.961
 9159TIP3    H227423   2.106   0.240   2.992
 9160TIP3   OH227424   3.071   7.032   4.302
 9160TIP3    H127425   3.132   7.091   4.345
 9160TIP3    H227426   3.041   6.974   4.373
 9161TIP3   OH227427   0.697   7.129   4.074
 9161TIP3    H127428   0.739   7.174   4.001
 9161TIP3    H227429   0.730   7.039   4.069
 9162TIP3   OH227430   3.322   1.798   0.512
 9162TIP3    H127431   3.342   1.735   0.443
 9162TIP3    H227432   3.227   1.809   0.507
 9163TIP3   OH227433   6.050   4.053   5.365
 9163TIP3    H127434   5.998   4.019   5.439
 9163TIP3    H227435   6.010   4.137   5.344
 9164TIP3   OH227436   3.602   2.144   5.809
 9164TIP3    H127437   3.656   2.144   5.888
 9164TIP3    H227438   3.648   2.201   5.748
 9165TIP3   OH227439   4.092   0.926   0.308
 9165TIP3    H127440   4.167   0.950   0.254
 9165TIP3    H227441   4.024   0.990   0.284
 9166TIP3   OH227442   5.185   6.850   3.665
 9166TIP3    H127443   5.188   6.772   3.610
 9166TIP3    H227444   5.252   6.908   3.629
 9167TIP3   OH227445   2.027   1.507   5.385
 9167TIP3    H127446   2.050   1.514   5.477
 9167TIP3    H227447   1.931   1.501   5.384
 9168TIP3   OH227448   3.546   7.716   5.968
 9168TIP3    H127449   3.468   7.688   5.920
 9168TIP3    H227450   3.619   7.697   5.908
 9169TIP3   OH227451   0.529   4.193   4.264
 9169TIP3    H127452   0.563   4.155   4.183
 9169TIP3    H227453   0.438   4.215   4.244
 9170TIP3   OH227454   2.298   6.849   3.838
 9170TIP3    H127455   2.220   6.807   3.804
 9170TIP3    H227456   2.341   6.781   3.891
 9171TIP3   OH227457   4.514   1.530   6.512
 9171TIP3    H127458   4.441   1.520   6.451
 9171TIP3    H227459   4.576   1.587   6.467
 9172TIP3   OH227460   0.368   2.803   6.525
 9172TIP3    H127461   0.335   2.870   6.585
 9172TIP3    H227462   0.426   2.750   6.579
 9173TIP3   OH227463   7.939   0.033   2.549
 9173TIP3    H127464   7.856   0.077   2.569
 9173TIP3    H227465   7.984   0.029   2.634
 9174TIP3   OH227466   5.891   3.533   3.807
 9174TIP3    H127467   5.902   3.539   3.712
 9174TIP3    H227468   5.969   3.577   3.843
 9175TIP3   OH227469   6.043   0.656   1.004
 9175TIP3    H127470   5.992   0.686   0.929
 9175TIP3    H227471   6.099   0.586   0.970
 9176TIP3   OH227472   7.657   3.757   0.744
 9176TIP3    H127473   7.580   3.809   0.721
 9176TIP3    H227474   7.689   3.795   0.826
 9177TIP3   OH227475   5.560   0.551   0.615
 9177TIP3    H127476   5.610   0.565   0.534
 9177TIP3    H227477   5.591   0.466   0.647
 9178TIP3   OH227478   1.309   3.678   2.686
 9178TIP3    H127479   1.225   3.633   2.699
 9178TIP3    H227480   1.303   3.756   2.742
 9179TIP3   OH227481   4.072   2.224   6.461
 9179TIP3    H127482   3.989   2.178   6.473
 9179TIP3    H227483   4.123   2.202   6.539
 9180TIP3   OH227484   1.918   2.119   2.454
 9180TIP3    H127485   1.864   2.114   2.533
 9180TIP3    H227486   2.006   2.096   2.483
 9181TIP3   OH227487   4.634   2.525   0.138
 9181TIP3    H127488   4.570   2.596   0.140
 9181TIP3    H227489   4.641   2.501   0.046
 9182TIP3   OH227490   5.098   4.848   6.541
 9182TIP3    H127491   5.164   4.913   6.517
 9182TIP3    H227492   5.032   4.855   6.472
 9183TIP3   OH227493   3.133   4.240   3.722
 9183TIP3    H127494   3.091   4.211   3.802
 9183TIP3    H227495   3.134   4.336   3.728
 9184TIP3   OH227496   4.585   3.263   1.892
 9184TIP3    H127497   4.643   3.339   1.893
 9184TIP3    H227498   4.564   3.248   1.984
 9185TIP3   OH227499   2.534   5.940   2.870
 9185TIP3    H127500   2.626   5.954   2.892
 9185TIP3    H227501   2.494   5.910   2.952
 9186TIP3   OH227502   5.943   3.244   3.380
 9186TIP3    H127503   5.931   3.316   3.317
 9186TIP3    H227504   6.029   3.260   3.419
 9187TIP3   OH227505   7.912   7.296   6.560
 9187TIP3    H127506   7.861   7.321   6.638
 9187TIP3    H227507   7.910   7.201   6.560
 9188TIP3   OH227508   0.223   1.224   6.604
 9188TIP3    H127509   0.249   1.176   6.683
 9188TIP3    H227510   0.133   1.196   6.587
 9189TIP3   OH227511   1.753   4.256   2.403
 9189TIP3    H127512   1.675   4.230   2.452
 9189TIP3    H227513   1.827   4.233   2.460
 9190TIP3   OH227514   3.308   4.165   2.155
 9190TIP3    H127515   3.365   4.089   2.170
 9190TIP3    H227516   3.347   4.234   2.209
 9191TIP3   OH227517   4.388   2.172   0.768
 9191TIP3    H127518   4.466   2.122   0.745
 9191TIP3    H227519   4.396   2.186   0.863
 9192TIP3   OH227520   3.757   7.179   6.373
 9192TIP3    H127521   3.682   7.132   6.410
 9192TIP3    H227522   3.799   7.114   6.316
 9193TIP3   OH227523   7.045   6.729   6.012
 9193TIP3    H127524   6.951   6.736   5.995
 9193TIP3    H227525   7.070   6.815   6.047
 9194TIP3   OH227526   0.959   4.715   2.167
 9194TIP3    H127527   0.993   4.626   2.156
 9194TIP3    H227528   0.902   4.729   2.092
 9195TIP3   OH227529   7.789   2.361   5.281
 9195TIP3    H127530   7.733   2.286   5.303
 9195TIP3    H227531   7.732   2.437   5.289
 9196TIP3   OH227532   0.575   4.195   0.227
 9196TIP3    H127533   0.535   4.108   0.228
 9196TIP3    H227534   0.532   4.240   0.155
 9197TIP3   OH227535   3.814   2.112   6.534
 9197TIP3    H127536   3.768   2.193   6.510
 9197TIP3    H227537   3.774   2.087   6.618
 9198TIP3   OH227538   0.737   0.375   4.852
 9198TIP3    H127539   0.713   0.458   4.894
 9198TIP3    H227540   0.653   0.334   4.831
 9199TIP3   OH227541   6.015   3.719   2.072
 9199TIP3    H127542   6.006   3.813   2.088
 9199TIP3    H227543   6.070   3.687   2.144
 9200TIP3   OH227544   4.749   2.881   5.999
 9200TIP3    H127545   4.713   2.846   6.080
 9200TIP3    H227546   4.744   2.809   5.937
 9201TIP3   OH227547   3.463   3.532   1.807
 9201TIP3    H127548   3.540   3.544   1.862
 9201TIP3    H227549   3.399   3.489   1.864
 9202TIP3   OH227550   6.563   2.144   3.346
 9202TIP3    H127551   6.645   2.183   3.379
 9202TIP3    H227552   6.577   2.135   3.252
 9203TIP3   OH227553   8.249   1.474   0.412
 9203TIP3    H127554   8.316   1.464   0.480
 9203TIP3    H227555   8.240   1.569   0.402
 9204TIP3   OH227556   5.546   4.468   1.054
 9204TIP3    H127557   5.537   4.438   1.144
 9204TIP3    H227558   5.631   4.433   1.026
 9205TIP3   OH227559   7.428   1.763   5.594
 9205TIP3    H127560   7.342   1.799   5.574
 9205TIP3    H227561   7.454   1.715   5.515
 9206TIP3   OH227562   2.733   3.694   1.399
 9206TIP3    H127563   2.698   3.764   1.454
 9206TIP3    H227564   2.695   3.614   1.435
 9207TIP3   OH227565   0.834   1.077   6.484
 9207TIP3    H127566   0.840   0.987   6.516
 9207TIP3    H227567   0.822   1.069   6.390
 9208TIP3   OH227568   5.482   1.292   3.396
 9208TIP3    H127569   5.388   1.307   3.385
 9208TIP3    H227570   5.523   1.349   3.332
 9209TIP3   OH227571   7.655   3.165   0.164
 9209TIP3    H127572   7.637   3.157   0.070
 9209TIP3    H227573   7.599   3.237   0.193
 9210TIP3   OH227574   7.386   2.910   5.242
 9210TIP3    H127575   7.439   2.990   5.241
 9210TIP3    H227576   7.424   2.856   5.172
 9211TIP3   OH227577   2.989   3.521   3.558
 9211TIP3    H127578   2.980   3.437   3.604
 9211TIP3    H227579   2.918   3.574   3.593
 9212TIP3   OH227580   2.204   2.378   1.457
 9212TIP3    H127581   2.189   2.304   1.516
 9212TIP3    H227582   2.194   2.455   1.513
 9213TIP3   OH227583   7.724   1.941   0.437
 9213TIP3    H127584   7.785   1.869   0.419
 9213TIP3    H227585   7.779   2.009   0.476
 9214TIP3   OH227586   8.261   0.271   1.913
 9214TIP3    H127587   8.175   0.278   1.873
 9214TIP3    H227588   8.275   0.178   1.926
 9215TIP3   OH227589   7.583   1.666   1.049
 9215TIP3    H127590   7.504   1.702   1.090
 9215TIP3    H227591   7.555   1.642   0.960
 9216TIP3   OH227592   3.609   3.019   2.580
 9216TIP3    H127593   3.617   2.948   2.516
 9216TIP3    H227594   3.643   2.983   2.661
 9217TIP3   OH227595   7.481   1.018   4.596
 9217TIP3    H127596   7.399   0.975   4.573
 9217TIP3    H227597   7.543   0.946   4.610
 9218TIP3   OH227598   2.016   3.184   1.712
 9218TIP3    H127599   2.072   3.208   1.637
 9218TIP3    H227600   2.078   3.165   1.782
 9219TIP3   OH227601   0.111   3.807   0.890
 9219TIP3    H127602   0.141   3.717   0.902
 9219TIP3    H227603   0.064   3.827   0.971
 9220TIP3   OH227604   5.598   0.511   2.925
 9220TIP3    H127605   5.662   0.500   2.856
 9220TIP3    H227606   5.538   0.437   2.916
 9221TIP3   OH227607   7.408   1.751   3.732
 9221TIP3    H127608   7.444   1.695   3.801
 9221TIP3    H227609   7.484   1.798   3.697
 9222TIP3   OH227610   4.755   5.886   6.197
 9222TIP3    H127611   4.793   5.939   6.126
 9222TIP3    H227612   4.815   5.898   6.270
 9223TIP3   OH227613   5.172   6.423   6.419
 9223TIP3    H127614   5.226   6.374   6.482
 9223TIP3    H227615   5.097   6.366   6.402
 9224TIP3   OH227616   6.271   1.063   1.397
 9224TIP3    H127617   6.253   0.993   1.459
 9224TIP3    H227618   6.206   1.131   1.417
 9225TIP3   OH227619   1.802   4.930   2.208
 9225TIP3    H127620   1.719   4.918   2.255
 9225TIP3    H227621   1.803   4.859   2.144
 9226TIP3   OH227622   2.544   7.413   0.653
 9226TIP3    H127623   2.564   7.487   0.597
 9226TIP3    H227624   2.502   7.349   0.595
 9227TIP3   OH227625   7.521   5.072   5.340
 9227TIP3    H127626   7.538   5.162   5.309
 9227TIP3    H227627   7.594   5.021   5.306
 9228TIP3   OH227628   4.255   1.811   0.753
 9228TIP3    H127629   4.336   1.811   0.805
 9228TIP3    H227630   4.269   1.743   0.687
 9229TIP3   OH227631   7.374   3.820   6.679
 9229TIP3    H127632   7.414   3.761   6.615
 9229TIP3    H227633   7.403   3.787   6.764
 9230TIP3   OH227634   0.197   3.272   0.659
 9230TIP3    H127635   0.225   3.246   0.571
 9230TIP3    H227636   0.166   3.192   0.700
 9231TIP3   OH227637   0.334   5.734   5.536
 9231TIP3    H127638   0.349   5.823   5.503
 9231TIP3    H227639   0.338   5.744   5.631
 9232TIP3   OH227640   3.237   2.489   2.609
 9232TIP3    H127641   3.240   2.516   2.701
 9232TIP3    H227642   3.317   2.437   2.598
 9233TIP3   OH227643   3.384   4.825   2.283
 9233TIP3    H127644   3.395   4.882   2.359
 9233TIP3    H227645   3.471   4.790   2.265
 9234TIP3   OH227646   6.461   7.758   3.641
 9234TIP3    H127647   6.402   7.829   3.667
 9234TIP3    H227648   6.445   7.747   3.547
 9235TIP3   OH227649   0.505   1.162   1.853
 9235TIP3    H127650   0.412   1.142   1.846
 9235TIP3    H227651   0.533   1.181   1.763
 9236TIP3   OH227652   5.069   4.019   5.882
 9236TIP3    H127653   5.130   3.998   5.811
 9236TIP3    H227654   5.014   3.942   5.890
 9237TIP3   OH227655   6.683   1.982   2.636
 9237TIP3    H127656   6.658   2.074   2.624
 9237TIP3    H227657   6.763   1.973   2.585
 9238TIP3   OH227658   5.454   0.956   0.398
 9238TIP3    H127659   5.445   0.861   0.404
 9238TIP3    H227660   5.411   0.989   0.477
 9239TIP3   OH227661   3.800   2.726   5.215
 9239TIP3    H127662   3.806   2.781   5.137
 9239TIP3    H227663   3.707   2.728   5.238
 9240TIP3   OH227664   4.951   3.813   3.935
 9240TIP3    H127665   4.941   3.881   4.001
 9240TIP3    H227666   4.994   3.740   3.981
 9241TIP3   OH227667   5.138   6.206   0.714
 9241TIP3    H127668   5.157   6.167   0.799
 9241TIP3    H227669   5.128   6.300   0.732
 9242TIP3   OH227670   5.863   1.425   0.521
 9242TIP3    H127671   5.830   1.512   0.502
 9242TIP3    H227672   5.785   1.375   0.549
 9243TIP3   OH227673   5.782   4.203   3.803
 9243TIP3    H127674   5.759   4.154   3.724
 9243TIP3    H227675   5.718   4.275   3.805
 9244TIP3   OH227676   1.825   7.302   4.651
 9244TIP3    H127677   1.786   7.214   4.657
 9244TIP3    H227678   1.879   7.309   4.729
 9245TIP3   OH227679   7.879   1.749   6.167
 9245TIP3    H127680   7.937   1.684   6.207
 9245TIP3    H227681   7.791   1.713   6.180
 9246TIP3   OH227682   7.835   5.484   1.897
 9246TIP3    H127683   7.866   5.517   1.981
 9246TIP3    H227684   7.797   5.560   1.853
 9247TIP3   OH227685   8.222   7.159   1.127
 9247TIP3    H127686   8.277   7.152   1.049
 9247TIP3    H227687   8.145   7.208   1.098
 9248TIP3   OH227688   7.309   1.364   3.590
 9248TIP3    H127689   7.237   1.375   3.652
 9248TIP3    H227690   7.388   1.371   3.642
 9249TIP3   OH227691   1.066   4.630   0.568
 9249TIP3    H127692   1.110   4.646   0.651
 9249TIP3    H227693   1.025   4.544   0.578
 9250TIP3   OH227694   4.877   0.199   0.115
 9250TIP3    H127695   4.847   0.168   0.200
 9250TIP3    H227696   4.908   0.120   0.071
 9251TIP3   OH227697   7.422   7.156   3.878
 9251TIP3    H127698   7.394   7.122   3.793
 9251TIP3    H227699   7.351   7.214   3.904
 9252TIP3   OH227700   1.107   1.280   2.259
 9252TIP3    H127701   1.201   1.291   2.241
 9252TIP3    H227702   1.063   1.314   2.181
 9253TIP3   OH227703   1.384   5.592   2.696
 9253TIP3    H127704   1.317   5.646   2.737
 9253TIP3    H227705   1.354   5.502   2.708
 9254TIP3   OH227706   3.391   1.278   1.473
 9254TIP3    H127707   3.301   1.301   1.447
 9254TIP3    H227708   3.416   1.346   1.535
 9255TIP3   OH227709   0.039   5.774   6.419
 9255TIP3    H127710   0.074   5.787   6.331
 9255TIP3    H227711  -0.052   5.747   6.405
 9256TIP3   OH227712   0.600   6.507   0.479
 9256TIP3    H127713   0.632   6.476   0.563
 9256TIP3    H227714   0.662   6.473   0.415
 9257TIP3   OH227715   5.316   3.365   4.080
 9257TIP3    H127716   5.240   3.377   4.136
 9257TIP3    H227717   5.289   3.297   4.018
 9258TIP3   OH227718   1.851   7.141   4.136
 9258TIP3    H127719   1.868   7.095   4.053
 9258TIP3    H227720   1.925   7.201   4.146
 9259TIP3   OH227721   7.617   3.381   1.058
 9259TIP3    H127722   7.602   3.326   1.135
 9259TIP3    H227723   7.537   3.434   1.051
 9260TIP3   OH227724   7.543   7.629   3.321
 9260TIP3    H127725   7.569   7.621   3.229
 9260TIP3    H227726   7.613   7.681   3.360
 9261TIP3   OH227727   3.554   5.718   1.287
 9261TIP3    H127728   3.509   5.657   1.346
 9261TIP3    H227729   3.488   5.785   1.267
 9262TIP3   OH227730   3.538   2.625   4.276
 9262TIP3    H127731   3.456   2.631   4.324
 9262TIP3    H227732   3.573   2.539   4.297
 9263TIP3   OH227733   3.966   6.435   3.681
 9263TIP3    H127734   4.035   6.370   3.696
 9263TIP3    H227735   4.007   6.519   3.698
 9264TIP3   OH227736   2.214   4.195   6.179
 9264TIP3    H127737   2.301   4.183   6.139
 9264TIP3    H227738   2.192   4.109   6.214
 9265TIP3   OH227739   0.970   5.869   2.783
 9265TIP3    H127740   0.970   5.905   2.871
 9265TIP3    H227741   0.881   5.884   2.751
 9266TIP3   OH227742   7.212   6.237   4.120
 9266TIP3    H127743   7.135   6.230   4.177
 9266TIP3    H227744   7.256   6.317   4.148
 9267TIP3   OH227745   6.673   1.184   5.366
 9267TIP3    H127746   6.581   1.176   5.338
 9267TIP3    H227747   6.723   1.152   5.291
 9268TIP3   OH227748   7.221   1.577   3.284
 9268TIP3    H127749   7.140   1.606   3.242
 9268TIP3    H227750   7.223   1.624   3.367
 9269TIP3   OH227751   4.414   4.463   4.643
 9269TIP3    H127752   4.380   4.503   4.564
 9269TIP3    H227753   4.336   4.446   4.696
 9270TIP3   OH227754   6.826   5.657   2.610
 9270TIP3    H127755   6.825   5.732   2.552
 9270TIP3    H227756   6.740   5.658   2.652
 9271TIP3   OH227757   5.463   6.446   5.845
 9271TIP3    H127758   5.406   6.453   5.768
 9271TIP3    H227759   5.429   6.371   5.893
 9272TIP3   OH227760   6.168   4.409   0.429
 9272TIP3    H127761   6.145   4.394   0.338
 9272TIP3    H227762   6.264   4.407   0.430
 9273TIP3   OH227763   3.413   3.890   0.374
 9273TIP3    H127764   3.446   3.917   0.460
 9273TIP3    H227765   3.455   3.950   0.313
 9274TIP3   OH227766   6.880   2.033   0.364
 9274TIP3    H127767   6.850   2.106   0.310
 9274TIP3    H227768   6.815   1.964   0.348
 9275TIP3   OH227769   5.619   5.248   4.654
 9275TIP3    H127770   5.635   5.340   4.678
 9275TIP3    H227771   5.604   5.250   4.560
 9276TIP3   OH227772   2.639   6.109   6.473
 9276TIP3    H127773   2.574   6.133   6.539
 9276TIP3    H227774   2.591   6.055   6.411
 9277TIP3   OH227775   7.938   3.239   3.407
 9277TIP3    H127776   7.999   3.303   3.445
 9277TIP3    H227777   7.893   3.287   3.338
 9278TIP3   OH227778   3.871   2.596   2.418
 9278TIP3    H127779   3.872   2.521   2.358
 9278TIP3    H227780   3.872   2.673   2.362
 9279TIP3   OH227781   5.276   1.929   4.551
 9279TIP3    H127782   5.317   1.987   4.487
 9279TIP3    H227783   5.200   1.978   4.583
 9280TIP3   OH227784   0.275   1.546   3.240
 9280TIP3    H127785   0.323   1.510   3.166
 9280TIP3    H227786   0.321   1.514   3.317
 9281TIP3   OH227787   3.435   3.382   6.321
 9281TIP3    H127788   3.357   3.376   6.266
 9281TIP3    H227789   3.406   3.354   6.407
 9282TIP3   OH227790   1.520   6.553   4.651
 9282TIP3    H127791   1.574   6.585   4.723
 9282TIP3    H227792   1.500   6.631   4.600
 9283TIP3   OH227793   4.686   7.491   0.674
 9283TIP3    H127794   4.721   7.509   0.761
 9283TIP3    H227795   4.759   7.452   0.626
 9284TIP3   OH227796   1.092   3.645   0.654
 9284TIP3    H127797   1.027   3.709   0.626
 9284TIP3    H227798   1.095   3.653   0.749
 9285TIP3   OH227799   0.725   6.057   4.520
 9285TIP3    H127800   0.720   6.109   4.599
 9285TIP3    H227801   0.664   6.099   4.459
 9286TIP3   OH227802   3.815   6.334   1.962
 9286TIP3    H127803   3.757   6.381   1.903
 9286TIP3    H227804   3.883   6.398   1.985
 9287TIP3   OH227805   3.452   7.180   2.291
 9287TIP3    H127806   3.493   7.212   2.371
 9287TIP3    H227807   3.522   7.131   2.246
 9288TIP3   OH227808   5.676   2.402   4.484
 9288TIP3    H127809   5.719   2.487   4.493
 9288TIP3    H227810   5.584   2.419   4.499
 9289TIP3   OH227811   2.592   4.962   3.264
 9289TIP3    H127812   2.574   4.992   3.354
 9289TIP3    H227813   2.687   4.973   3.254
 9290TIP3   OH227814   6.767   4.894   2.821
 9290TIP3    H127815   6.849   4.854   2.790
 9290TIP3    H227816   6.792   4.982   2.847
 9291TIP3   OH227817   3.721   3.811   0.215
 9291TIP3    H127818   3.790   3.764   0.262
 9291TIP3    H227819   3.699   3.885   0.272
 9292TIP3   OH227820   5.856   3.204   5.143
 9292TIP3    H127821   5.930   3.243   5.189
 9292TIP3    H227822   5.785   3.267   5.154
 9293TIP3   OH227823   8.215   0.203   3.578
 9293TIP3    H127824   8.205   0.248   3.662
 9293TIP3    H227825   8.308   0.185   3.571
 9294TIP3   OH227826   1.589   6.980   3.887
 9294TIP3    H127827   1.598   6.895   3.929
 9294TIP3    H227828   1.679   7.011   3.876
 9295TIP3   OH227829   5.520   5.495   3.811
 9295TIP3    H127830   5.452   5.532   3.868
 9295TIP3    H227831   5.593   5.476   3.870
 9296TIP3   OH227832   0.838   4.138   4.277
 9296TIP3    H127833   0.926   4.128   4.315
 9296TIP3    H227834   0.844   4.218   4.224
 9297TIP3   OH227835   1.551   2.560   2.725
 9297TIP3    H127836   1.560   2.506   2.803
 9297TIP3    H227837   1.580   2.504   2.653
 9298TIP3   OH227838   4.294   7.292   1.550
 9298TIP3    H127839   4.241   7.353   1.498
 9298TIP3    H227840   4.363   7.347   1.587
 9299TIP3   OH227841   7.654   1.046   1.405
 9299TIP3    H127842   7.716   1.007   1.342
 9299TIP3    H227843   7.573   0.996   1.393
 9300TIP3   OH227844   7.902   5.065   2.943
 9300TIP3    H127845   7.978   5.090   2.995
 9300TIP3    H227846   7.920   4.975   2.915
 9301TIP3   OH227847   4.498   1.174   0.821
 9301TIP3    H127848   4.477   1.265   0.842
 9301TIP3    H227849   4.424   1.124   0.856
 9302TIP3   OH227850   8.044   1.294   2.516
 9302TIP3    H127851   8.109   1.315   2.449
 9302TIP3    H227852   8.028   1.377   2.561
 9303TIP3   OH227853   6.815   2.637   2.742
 9303TIP3    H127854   6.870   2.715   2.751
 9303TIP3    H227855   6.772   2.647   2.657
 9304TIP3   OH227856   4.775   5.301   0.393
 9304TIP3    H127857   4.755   5.213   0.424
 9304TIP3    H227858   4.692   5.336   0.362
 9305TIP3   OH227859   3.258   7.283   1.103
 9305TIP3    H127860   3.338   7.234   1.126
 9305TIP3    H227861   3.268   7.367   1.147
 9306TIP3   OH227862   7.466   7.141   5.259
 9306TIP3    H127863   7.445   7.096   5.176
 9306TIP3    H227864   7.443   7.077   5.326
 9307TIP3   OH227865   5.622   4.549   6.101
 9307TIP3    H127866   5.531   4.544   6.131
 9307TIP3    H227867   5.639   4.463   6.062
 9308TIP3   OH227868   1.605   0.488   1.883
 9308TIP3    H127869   1.602   0.528   1.796
 9308TIP3    H227870   1.513   0.479   1.908
 9309TIP3   OH227871   7.295   4.728   2.849
 9309TIP3    H127872   7.301   4.637   2.879
 9309TIP3    H227873   7.359   4.775   2.902
 9310TIP3   OH227874   1.767   6.711   1.165
 9310TIP3    H127875   1.832   6.664   1.113
 9310TIP3    H227876   1.687   6.658   1.157
 9311TIP3   OH227877   2.123   2.437   2.807
 9311TIP3    H127878   2.207   2.443   2.762
 9311TIP3    H227879   2.063   2.399   2.742
 9312TIP3   OH227880   3.458   7.155   3.859
 9312TIP3    H127881   3.507   7.229   3.824
 9312TIP3    H227882   3.471   7.085   3.795
 9313TIP3   OH227883   7.407   5.672   3.684
 9313TIP3    H127884   7.418   5.577   3.693
 9313TIP3    H227885   7.399   5.686   3.589
 9314TIP3   OH227886   0.119   5.717   3.084
 9314TIP3    H127887   0.039   5.664   3.076
 9314TIP3    H227888   0.150   5.700   3.172
 9315TIP3   OH227889   5.318   4.099   4.306
 9315TIP3    H127890   5.285   4.071   4.392
 9315TIP3    H227891   5.348   4.019   4.264
 9316TIP3   OH227892   8.004   5.267   3.621
 9316TIP3    H127893   8.078   5.209   3.608
 9316TIP3    H227894   7.984   5.260   3.715
 9317TIP3   OH227895   3.665   5.449   6.287
 9317TIP3    H127896   3.760   5.458   6.293
 9317TIP3    H227897   3.646   5.369   6.337
 9318TIP3   OH227898   5.774   5.141   1.867
 9318TIP3    H127899   5.796   5.062   1.818
 9318TIP3    H227900   5.786   5.212   1.804
 9319TIP3   OH227901   8.101   7.723   6.300
 9319TIP3    H127902   8.076   7.815   6.307
 9319TIP3    H227903   8.161   7.720   6.225
 9320TIP3   OH227904   7.541   7.206   2.381
 9320TIP3    H127905   7.583   7.292   2.384
 9320TIP3    H227906   7.609   7.148   2.347
 9321TIP3   OH227907   6.954   2.370   0.827
 9321TIP3    H127908   6.979   2.293   0.879
 9321TIP3    H227909   6.927   2.435   0.893
 9322TIP3   OH227910   7.970   6.239   2.518
 9322TIP3    H127911   7.958   6.200   2.431
 9322TIP3    H227912   8.055   6.207   2.548
 9323TIP3   OH227913   0.998   1.342   1.119
 9323TIP3    H127914   1.066   1.288   1.160
 9323TIP3    H227915   0.939   1.278   1.078
 9324TIP3   OH227916   7.488   4.816   3.044
 9324TIP3    H127917   7.493   4.793   3.137
 9324TIP3    H227918   7.438   4.898   3.042
 9325TIP3   OH227919   6.926   0.994   2.766
 9325TIP3    H127920   6.924   1.071   2.823
 9325TIP3    H227921   6.943   0.921   2.825
 9326TIP3   OH227922   5.103   0.854   2.724
 9326TIP3    H127923   5.195   0.845   2.750
 9326TIP3    H227924   5.059   0.781   2.768
 9327TIP3   OH227925   4.202   4.391   4.806
 9327TIP3    H127926   4.127   4.429   4.759
 9327TIP3    H227927   4.199   4.433   4.892
 9328TIP3   OH227928   6.581   6.762   4.194
 9328TIP3    H127929   6.571   6.668   4.208
 9328TIP3    H227930   6.531   6.781   4.115
 9329TIP3   OH227931   5.479   6.462   0.192
 9329TIP3    H127932   5.474   6.546   0.238
 9329TIP3    H227933   5.404   6.463   0.133
 9330TIP3   OH227934   2.313   2.366   2.263
 9330TIP3    H127935   2.359   2.422   2.202
 9330TIP3    H227936   2.382   2.324   2.315
 9331TIP3   OH227937   2.822   4.626   3.291
 9331TIP3    H127938   2.792   4.557   3.350
 9331TIP3    H227939   2.774   4.610   3.210
 9332TIP3   OH227940   2.361   7.058   4.081
 9332TIP3    H127941   2.442   7.084   4.126
 9332TIP3    H227942   2.339   6.973   4.120
 9333TIP3   OH227943   7.721   2.640   2.289
 9333TIP3    H127944   7.784   2.580   2.327
 9333TIP3    H227945   7.738   2.637   2.195
 9334TIP3   OH227946   5.696   0.639   2.427
 9334TIP3    H127947   5.783   0.646   2.466
 9334TIP3    H227948   5.706   0.673   2.339
 9335TIP3   OH227949   2.355   0.165   1.274
 9335TIP3    H127950   2.312   0.208   1.200
 9335TIP3    H227951   2.449   0.169   1.253
 9336TIP3   OH227952   1.943   1.993   0.510
 9336TIP3    H127953   1.902   1.969   0.427
 9336TIP3    H227954   1.945   2.089   0.510
 9337TIP3   OH227955   6.769   2.930   2.130
 9337TIP3    H127956   6.748   2.995   2.063
 9337TIP3    H227957   6.864   2.923   2.129
 9338TIP3   OH227958   4.289   7.586   2.895
 9338TIP3    H127959   4.338   7.593   2.977
 9338TIP3    H227960   4.199   7.567   2.923
 9339TIP3   OH227961   6.573   3.232   6.150
 9339TIP3    H127962   6.568   3.319   6.110
 9339TIP3    H227963   6.530   3.243   6.235
 9340TIP3   OH227964   0.214   2.048   3.576
 9340TIP3    H127965   0.292   2.018   3.621
 9340TIP3    H227966   0.197   1.980   3.510
 9341TIP3   OH227967   3.932   5.250   2.430
 9341TIP3    H127968   3.996   5.262   2.501
 9341TIP3    H227969   3.847   5.259   2.472
 9342TIP3   OH227970   7.351   3.288   4.920
 9342TIP3    H127971   7.370   3.348   4.848
 9342TIP3    H227972   7.260   3.261   4.905
 9343TIP3   OH227973   6.391   7.138   0.304
 9343TIP3    H127974   6.305   7.154   0.344
 9343TIP3    H227975   6.401   7.208   0.239
 9344TIP3   OH227976   0.195   7.136   4.044
 9344TIP3    H127977   0.181   7.065   3.981
 9344TIP3    H227978   0.116   7.189   4.039
 9345TIP3   OH227979   4.534   3.179   0.197
 9345TIP3    H127980   4.475   3.109   0.223
 9345TIP3    H227981   4.529   3.180   0.101
 9346TIP3   OH227982   1.377   7.473   4.818
 9346TIP3    H127983   1.464   7.478   4.777
 9346TIP3    H227984   1.374   7.385   4.856
 9347TIP3   OH227985   2.311   7.613   0.587
 9347TIP3    H127986   2.226   7.657   0.593
 9347TIP3    H227987   2.316   7.561   0.667
 9348TIP3   OH227988   0.858   4.055   0.564
 9348TIP3    H127989   0.852   4.082   0.473
 9348TIP3    H227990   0.838   4.134   0.614
 9349TIP3   OH227991   3.614   5.294   2.929
 9349TIP3    H127992   3.696   5.247   2.945
 9349TIP3    H227993   3.642   5.381   2.898
 9350TIP3   OH227994   7.746   1.480   4.463
 9350TIP3    H127995   7.687   1.546   4.498
 9350TIP3    H227996   7.799   1.527   4.398
 9351TIP3   OH227997   5.532   4.232   5.224
 9351TIP3    H127998   5.566   4.183   5.300
 9351TIP3    H227999   5.537   4.169   5.152
 9352TIP3   OH228000   5.272   0.879   6.018
 9352TIP3    H128001   5.322   0.798   6.030
 9352TIP3    H228002   5.338   0.947   6.007
 9353TIP3   OH228003   1.329   0.476   0.679
 9353TIP3    H128004   1.315   0.530   0.601
 9353TIP3    H228005   1.397   0.523   0.728
 9354TIP3   OH228006   5.098   4.631   5.077
 9354TIP3    H128007   5.035   4.565   5.106
 9354TIP3    H228008   5.130   4.671   5.159
 9355TIP3   OH228009   7.795   2.920   4.172
 9355TIP3    H128010   7.724   2.981   4.193
 9355TIP3    H228011   7.849   2.967   4.109
 9356TIP3   OH228012   7.858   1.539   0.192
 9356TIP3    H128013   7.793   1.520   0.123
 9356TIP3    H228014   7.942   1.523   0.149
 9357TIP3   OH228015   8.136   7.599   4.842
 9357TIP3    H128016   8.075   7.569   4.774
 9357TIP3    H228017   8.164   7.686   4.813
 9358TIP3   OH228018   2.626   5.647   2.960
 9358TIP3    H128019   2.563   5.701   3.008
 9358TIP3    H228020   2.695   5.628   3.024
 9359TIP3   OH228021   0.834   7.043   3.283
 9359TIP3    H128022   0.820   6.949   3.278
 9359TIP3    H228023   0.746   7.081   3.280
 9360TIP3   OH228024   2.141   1.079   2.114
 9360TIP3    H128025   2.188   1.132   2.178
 9360TIP3    H228026   2.125   1.139   2.040
 9361TIP3   OH228027   3.977   5.146   1.265
 9361TIP3    H128028   3.946   5.226   1.221
 9361TIP3    H228029   3.899   5.111   1.308
 9362TIP3   OH228030   3.805   0.550   3.228
 9362TIP3    H128031   3.886   0.586   3.265
 9362TIP3    H228032   3.799   0.591   3.141
 9363TIP3   OH228033   4.825   7.706   4.341
 9363TIP3    H128034   4.869   7.626   4.368
 9363TIP3    H228035   4.734   7.681   4.328
 9364TIP3   OH228036   8.112   7.672   0.320
 9364TIP3    H128037   8.037   7.615   0.301
 9364TIP3    H228038   8.078   7.738   0.380
 9365TIP3   OH228039   4.978   5.432   1.663
 9365TIP3    H128040   4.924   5.354   1.649
 9365TIP3    H228041   5.063   5.409   1.624
 9366TIP3   OH228042   4.202   5.034   1.141
 9366TIP3    H128043   4.135   5.077   1.195
 9366TIP3    H228044   4.170   5.045   1.051
 9367TIP3   OH228045   5.194   6.674   3.118
 9367TIP3    H128046   5.139   6.674   3.196
 9367TIP3    H228047   5.157   6.605   3.063
 9368TIP3   OH228048   6.193   6.966   6.569
 9368TIP3    H128049   6.157   6.977   6.480
 9368TIP3    H228050   6.243   7.047   6.584
 9369TIP3   OH228051   5.370   6.848   4.919
 9369TIP3    H128052   5.388   6.859   5.012
 9369TIP3    H228053   5.402   6.930   4.879
 9370TIP3   OH228054   6.380   3.317   0.500
 9370TIP3    H128055   6.467   3.346   0.472
 9370TIP3    H228056   6.341   3.395   0.540
 9371TIP3   OH228057   1.931   2.141   5.920
 9371TIP3    H128058   1.949   2.064   5.974
 9371TIP3    H228059   1.869   2.110   5.854
 9372TIP3   OH228060   0.364   7.483   2.503
 9372TIP3    H128061   0.389   7.431   2.579
 9372TIP3    H228062   0.394   7.571   2.524
 9373TIP3   OH228063   3.445   0.158   5.438
 9373TIP3    H128064   3.492   0.229   5.395
 9373TIP3    H228065   3.485   0.078   5.403
 9374TIP3   OH228066   0.091   1.260   3.490
 9374TIP3    H128067   0.103   1.298   3.403
 9374TIP3    H228068   0.075   1.167   3.474
 9375TIP3   OH228069   7.081   5.869   6.614
 9375TIP3    H128070   7.159   5.903   6.658
 9375TIP3    H228071   7.061   5.933   6.546
 9376TIP3   OH228072   6.764   0.804   5.767
 9376TIP3    H128073   6.699   0.738   5.743
 9376TIP3    H228074   6.840   0.753   5.796
 9377TIP3   OH228075   7.213   0.456   2.188
 9377TIP3    H128076   7.160   0.392   2.234
 9377TIP3    H228077   7.253   0.509   2.257
 9378TIP3   OH228078   0.301   4.702   1.583
 9378TIP3    H128079   0.373   4.762   1.602
 9378TIP3    H228080   0.276   4.722   1.493
 9379TIP3   OH228081   6.433   0.107   2.015
 9379TIP3    H128082   6.391   0.021   2.003
 9379TIP3    H228083   6.427   0.123   2.109
 9380TIP3   OH228084   6.270   6.308   0.886
 9380TIP3    H128085   6.186   6.324   0.844
 9380TIP3    H228086   6.254   6.323   0.979
 9381TIP3   OH228087   6.515   1.114   2.835
 9381TIP3    H128088   6.482   1.163   2.760
 9381TIP3    H228089   6.535   1.181   2.901
 9382TIP3   OH228090   5.241   2.861   5.978
 9382TIP3    H128091   5.241   2.770   5.949
 9382TIP3    H228092   5.149   2.887   5.975
 9383TIP3   OH228093   3.054   6.928   1.076
 9383TIP3    H128094   2.980   6.964   1.028
 9383TIP3    H228095   3.119   6.906   1.009
 9384TIP3   OH228096   4.407   6.187   3.799
 9384TIP3    H128097   4.496   6.213   3.776
 9384TIP3    H228098   4.408   6.180   3.895
 9385TIP3   OH228099   1.512   3.987   3.065
 9385TIP3    H128100   1.430   3.955   3.104
 9385TIP3    H228101   1.513   4.080   3.084
 9386TIP3   OH228102   3.093   5.612   3.596
 9386TIP3    H128103   3.145   5.637   3.520
 9386TIP3    H228104   3.099   5.687   3.655
 9387TIP3   OH228105   5.630   1.051   4.095
 9387TIP3    H128106   5.718   1.065   4.059
 9387TIP3    H228107   5.623   0.956   4.107
 9388TIP3   OH228108   5.207   0.814   5.497
 9388TIP3    H128109   5.238   0.764   5.572
 9388TIP3    H228110   5.203   0.904   5.528
 9389TIP3   OH228111   5.524   1.237   5.519
 9389TIP3    H128112   5.430   1.219   5.529
 9389TIP3    H228113   5.527   1.319   5.469
 9390TIP3   OH228114   6.044   1.468   1.098
 9390TIP3    H128115   6.061   1.405   1.168
 9390TIP3    H228116   5.974   1.524   1.132
 9391TIP3   OH228117   1.612   2.761   2.481
 9391TIP3    H128118   1.520   2.787   2.475
 9391TIP3    H228119   1.638   2.783   2.570
 9392TIP3   OH228120   7.699   3.318   6.094
 9392TIP3    H128121   7.609   3.346   6.074
 9392TIP3    H228122   7.753   3.369   6.034
 9393TIP3   OH228123   6.625   6.462   1.821
 9393TIP3    H128124   6.538   6.461   1.780
 9393TIP3    H228125   6.667   6.382   1.790
 9394TIP3   OH228126   4.130   2.588   4.385
 9394TIP3    H128127   4.193   2.520   4.405
 9394TIP3    H228128   4.051   2.541   4.357
 9395TIP3   OH228129   0.908   7.228   0.494
 9395TIP3    H128130   0.882   7.278   0.417
 9395TIP3    H228131   0.915   7.138   0.463
 9396TIP3   OH228132   0.972   1.432   6.306
 9396TIP3    H128133   0.977   1.502   6.240
 9396TIP3    H228134   1.061   1.424   6.340
 9397TIP3   OH228135   1.135   4.600   2.732
 9397TIP3    H128136   1.181   4.526   2.772
 9397TIP3    H228137   1.044   4.573   2.728
 9398TIP3   OH228138   0.853   1.110   0.754
 9398TIP3    H128139   0.940   1.083   0.782
 9398TIP3    H228140   0.793   1.050   0.800
 9399TIP3   OH228141   3.459   4.752   0.225
 9399TIP3    H128142   3.487   4.664   0.198
 9399TIP3    H228143   3.464   4.804   0.144
 9400TIP3   OH228144   0.789   1.418   0.830
 9400TIP3    H128145   0.786   1.381   0.742
 9400TIP3    H228146   0.883   1.431   0.847
 9401TIP3   OH228147   3.609   5.146   4.205
 9401TIP3    H128148   3.629   5.052   4.213
 9401TIP3    H228149   3.690   5.190   4.231
 9402TIP3   OH228150   0.540   3.183   3.939
 9402TIP3    H128151   0.463   3.232   3.968
 9402TIP3    H228152   0.503   3.111   3.886
 9403TIP3   OH228153   1.789   0.594   0.403
 9403TIP3    H128154   1.703   0.563   0.377
 9403TIP3    H228155   1.830   0.623   0.321
 9404TIP3   OH228156   1.771   6.688   5.154
 9404TIP3    H128157   1.779   6.760   5.216
 9404TIP3    H228158   1.846   6.698   5.095
 9405TIP3   OH228159   0.101   3.725   4.073
 9405TIP3    H128160   0.139   3.661   4.133
 9405TIP3    H228161   0.028   3.679   4.032
 9406TIP3   OH228162   5.750   5.680   3.033
 9406TIP3    H128163   5.785   5.769   3.034
 9406TIP3    H228164   5.664   5.688   2.991
 9407TIP3   OH228165   4.786   1.541   1.436
 9407TIP3    H128166   4.802   1.602   1.364
 9407TIP3    H228167   4.871   1.532   1.479
 9408TIP3   OH228168   1.308   3.883   5.538
 9408TIP3    H128169   1.241   3.911   5.477
 9408TIP3    H228170   1.382   3.855   5.483
 9409TIP3   OH228171   6.311   2.238   3.347
 9409TIP3    H128172   6.407   2.237   3.347
 9409TIP3    H228173   6.287   2.221   3.438
 9410TIP3   OH228174   7.214   7.377   4.802
 9410TIP3    H128175   7.198   7.418   4.888
 9410TIP3    H228176   7.266   7.441   4.755
 9411TIP3   OH228177   7.941   5.387   6.222
 9411TIP3    H128178   7.915   5.295   6.219
 9411TIP3    H228179   8.023   5.388   6.272
 9412TIP3   OH228180   6.723   4.730   2.361
 9412TIP3    H128181   6.661   4.772   2.421
 9412TIP3    H228182   6.716   4.637   2.381
 9413TIP3   OH228183   3.040   7.607   2.933
 9413TIP3    H128184   3.033   7.698   2.904
 9413TIP3    H228185   2.951   7.571   2.923
 9414TIP3   OH228186   1.458   2.175   0.460
 9414TIP3    H128187   1.400   2.202   0.531
 9414TIP3    H228188   1.414   2.205   0.380
 9415TIP3   OH228189   5.129   3.307   3.419
 9415TIP3    H128190   5.141   3.216   3.391
 9415TIP3    H228191   5.056   3.339   3.367
 9416TIP3   OH228192   6.802   6.164   2.293
 9416TIP3    H128193   6.804   6.242   2.348
 9416TIP3    H228194   6.890   6.158   2.256
 9417TIP3   OH228195   4.045   3.226   1.763
 9417TIP3    H128196   4.124   3.279   1.778
 9417TIP3    H228197   4.074   3.156   1.705
 9418TIP3   OH228198   1.158   5.051   1.105
 9418TIP3    H128199   1.139   5.145   1.109
 9418TIP3    H228200   1.082   5.009   1.145
 9419TIP3   OH228201   5.699   6.698   0.455
 9419TIP3    H128202   5.642   6.705   0.532
 9419TIP3    H228203   5.755   6.622   0.474
 9420TIP3   OH228204   7.388   7.585   4.738
 9420TIP3    H128205   7.314   7.637   4.707
 9420TIP3    H228206   7.450   7.650   4.770
 9421TIP3   OH228207   1.787   6.999   0.626
 9421TIP3    H128208   1.847   7.050   0.572
 9421TIP3    H228209   1.826   7.000   0.713
 9422TIP3   OH228210   6.042   2.549   4.777
 9422TIP3    H128211   6.015   2.465   4.814
 9422TIP3    H228212   6.127   2.530   4.735
 9423TIP3   OH228213   8.052   7.041   1.730
 9423TIP3    H128214   7.996   7.097   1.676
 9423TIP3    H228215   8.102   7.103   1.784
 9424TIP3   OH228216   1.706   2.908   0.507
 9424TIP3    H128217   1.680   2.982   0.562
 9424TIP3    H228218   1.799   2.922   0.491
 9425TIP3   OH228219   0.541   4.933   4.801
 9425TIP3    H128220   0.585   5.010   4.835
 9425TIP3    H228221   0.499   4.893   4.878
 9426TIP3   OH228222   7.563   6.312   4.562
 9426TIP3    H128223   7.513   6.232   4.542
 9426TIP3    H228224   7.558   6.364   4.482
 9427TIP3   OH228225   5.463   6.147   4.345
 9427TIP3    H128226   5.441   6.152   4.252
 9427TIP3    H228227   5.545   6.099   4.347
 9428TIP3   OH228228   6.583   7.660   6.028
 9428TIP3    H128229   6.525   7.588   6.052
 9428TIP3    H228230   6.665   7.618   6.004
 9429TIP3   OH228231   2.699   1.499   1.967
 9429TIP3    H128232   2.632   1.495   1.899
 9429TIP3    H228233   2.781   1.512   1.919
 9430TIP3   OH228234   6.303   2.659   2.110
 9430TIP3    H128235   6.283   2.710   2.189
 9430TIP3    H228236   6.218   2.627   2.079
 9431TIP3   OH228237   7.867   1.493   5.497
 9431TIP3    H128238   7.951   1.470   5.458
 9431TIP3    H228239   7.889   1.520   5.586
 9432TIP3   OH228240   5.304   7.422   6.532
 9432TIP3    H128241   5.367   7.371   6.480
 9432TIP3    H228242   5.345   7.508   6.541
 9433TIP3   OH228243   5.571   0.200   5.980
 9433TIP3    H128244   5.525   0.158   5.908
 9433TIP3    H228245   5.662   0.208   5.949
 9434TIP3   OH228246   3.547   5.942   0.758
 9434TIP3    H128247   3.581   5.858   0.729
 9434TIP3    H228248   3.624   5.990   0.787
 9435TIP3   OH228249   1.103   7.401   5.955
 9435TIP3    H128250   1.189   7.443   5.951
 9435TIP3    H228251   1.051   7.449   5.891
 9436TIP3   OH228252   1.401   4.713   5.109
 9436TIP3    H128253   1.453   4.686   5.033
 9436TIP3    H228254   1.319   4.663   5.100
 9437TIP3   OH228255   4.057   0.705   3.056
 9437TIP3    H128256   4.116   0.646   3.009
 9437TIP3    H228257   4.071   0.685   3.149
 9438TIP3   OH228258   2.711   6.109   5.228
 9438TIP3    H128259   2.794   6.060   5.228
 9438TIP3    H228260   2.695   6.129   5.136
 9439TIP3   OH228261   7.932   3.427   5.100
 9439TIP3    H128262   7.987   3.388   5.168
 9439TIP3    H228263   7.902   3.352   5.048
 9440TIP3   OH228264   6.344   3.824   2.270
 9440TIP3    H128265   6.264   3.852   2.314
 9440TIP3    H228266   6.398   3.787   2.339
 9441TIP3   OH228267   1.234   1.843   0.944
 9441TIP3    H128268   1.146   1.877   0.926
 9441TIP3    H228269   1.290   1.920   0.945
 9442TIP3   OH228270   5.312   4.237   5.889
 9442TIP3    H128271   5.283   4.325   5.912
 9442TIP3    H228272   5.240   4.181   5.915
 9443TIP3   OH228273   5.733   7.500   5.128
 9443TIP3    H128274   5.750   7.594   5.126
 9443TIP3    H228275   5.673   7.488   5.202
 9444TIP3   OH228276   5.410   6.429   6.203
 9444TIP3    H128277   5.480   6.482   6.241
 9444TIP3    H228278   5.343   6.426   6.272
 9445TIP3   OH228279   1.428   1.477   3.943
 9445TIP3    H128280   1.507   1.501   3.893
 9445TIP3    H228281   1.416   1.550   4.004
 9446TIP3   OH228282   3.840   5.844   1.758
 9446TIP3    H128283   3.777   5.788   1.712
 9446TIP3    H228284   3.913   5.853   1.696
 9447TIP3   OH228285   1.699   0.877   4.409
 9447TIP3    H128286   1.773   0.928   4.442
 9447TIP3    H228287   1.643   0.941   4.366
 9448TIP3   OH228288   0.995   4.305   3.309
 9448TIP3    H128289   0.989   4.250   3.231
 9448TIP3    H228290   1.015   4.393   3.276
 9449TIP3   OH228291   5.617   0.159   1.800
 9449TIP3    H128292   5.641   0.190   1.713
 9449TIP3    H228293   5.597   0.066   1.787
 9450TIP3   OH228294   3.580   2.117   0.200
 9450TIP3    H128295   3.490   2.095   0.177
 9450TIP3    H228296   3.580   2.212   0.207
 9451TIP3   OH228297   0.604   2.105   0.512
 9451TIP3    H128298   0.619   2.127   0.604
 9451TIP3    H228299   0.597   2.190   0.469
 9452TIP3   OH228300   6.433   0.495   6.233
 9452TIP3    H128301   6.352   0.519   6.278
 9452TIP3    H228302   6.483   0.447   6.299
 9453TIP3   OH228303   0.607   0.284   0.653
 9453TIP3    H128304   0.636   0.273   0.743
 9453TIP3    H228305   0.527   0.232   0.647
 9454TIP3   OH228306   7.417   6.813   0.656
 9454TIP3    H128307   7.488   6.837   0.716
 9454TIP3    H228308   7.426   6.718   0.646
 9455TIP3   OH228309   6.898   0.446   2.354
 9455TIP3    H128310   6.860   0.365   2.319
 9455TIP3    H228311   6.903   0.432   2.448
 9456TIP3   OH228312   8.037   6.533   5.517
 9456TIP3    H128313   8.036   6.497   5.606
 9456TIP3    H228314   7.963   6.593   5.514
 9457TIP3   OH228315   2.693   0.861   4.404
 9457TIP3    H128316   2.669   0.943   4.362
 9457TIP3    H228317   2.764   0.826   4.350
 9458TIP3   OH228318   0.149   3.014   0.761
 9458TIP3    H128319   0.176   2.922   0.761
 9458TIP3    H228320   0.055   3.012   0.781
 9459TIP3   OH228321   2.001   2.113   3.689
 9459TIP3    H128322   1.959   2.199   3.681
 9459TIP3    H228323   1.954   2.058   3.626
 9460TIP3   OH228324   5.395   4.258   3.165
 9460TIP3    H128325   5.376   4.338   3.116
 9460TIP3    H228326   5.314   4.208   3.163
 9461TIP3   OH228327   7.117   2.095   4.996
 9461TIP3    H128328   7.040   2.152   4.996
 9461TIP3    H228329   7.192   2.155   4.996
 9462TIP3   OH228330   4.767   3.614   5.339
 9462TIP3    H128331   4.803   3.552   5.276
 9462TIP3    H228332   4.840   3.673   5.359
 9463TIP3   OH228333   7.313   6.057   0.630
 9463TIP3    H128334   7.260   6.011   0.695
 9463TIP3    H228335   7.255   6.071   0.556
 9464TIP3   OH228336   7.782   4.000   0.284
 9464TIP3    H128337   7.829   4.049   0.216
 9464TIP3    H228338   7.793   3.908   0.259
 9465TIP3   OH228339   3.357   4.477   4.358
 9465TIP3    H128340   3.431   4.422   4.331
 9465TIP3    H228341   3.299   4.417   4.404
 9466TIP3   OH228342   4.981   6.823   1.023
 9466TIP3    H128343   4.931   6.905   1.027
 9466TIP3    H228344   5.064   6.844   1.065
 9467TIP3   OH228345   5.041   6.275   0.481
 9467TIP3    H128346   4.946   6.268   0.487
 9467TIP3    H228347   5.074   6.229   0.558
 9468TIP3   OH228348   3.399   0.064   3.811
 9468TIP3    H128349   3.441  -0.022   3.799
 9468TIP3    H228350   3.401   0.078   3.906
 9469TIP3   OH228351   0.776   5.048   3.096
 9469TIP3    H128352   0.850   5.078   3.149
 9469TIP3    H228353   0.796   5.078   3.008
 9470TIP3   OH228354   7.162   7.365   6.489
 9470TIP3    H128355   7.218   7.370   6.411
 9470TIP3    H228356   7.093   7.303   6.464
 9471TIP3   OH228357   8.111   7.672   5.477
 9471TIP3    H128358   8.016   7.662   5.475
 9471TIP3    H228359   8.144   7.602   5.421
 9472TIP3   OH228360   3.159   4.298   4.861
 9472TIP3    H128361   3.208   4.370   4.901
 9472TIP3    H228362   3.088   4.341   4.813
 9473TIP3   OH228363   1.055   3.878   1.671
 9473TIP3    H128364   1.147   3.890   1.646
 9473TIP3    H228365   1.054   3.888   1.766
 9474TIP3   OH228366   4.753   2.590   2.555
 9474TIP3    H128367   4.827   2.575   2.497
 9474TIP3    H228368   4.789   2.645   2.625
 9475TIP3   OH228369   7.421   3.771   4.129
 9475TIP3    H128370   7.398   3.722   4.050
 9475TIP3    H228371   7.486   3.835   4.100
 9476TIP3   OH228372   6.702   5.150   0.070
 9476TIP3    H128373   6.627   5.136   0.013
 9476TIP3    H228374   6.724   5.063   0.103
 9477TIP3   OH228375   6.487   0.159   2.969
 9477TIP3    H128376   6.515   0.069   2.949
 9477TIP3    H228377   6.433   0.150   3.047
 9478TIP3   OH228378   3.446   0.225   5.757
 9478TIP3    H128379   3.379   0.257   5.817
 9478TIP3    H228380   3.481   0.304   5.716
 9479TIP3   OH228381   4.503   1.667   3.655
 9479TIP3    H128382   4.419   1.646   3.613
 9479TIP3    H228383   4.491   1.641   3.747
 9480TIP3   OH228384   3.647   3.677   1.594
 9480TIP3    H128385   3.647   3.762   1.639
 9480TIP3    H228386   3.624   3.614   1.662
 9481TIP3   OH228387   2.935   4.364   1.704
 9481TIP3    H128388   3.016   4.399   1.742
 9481TIP3    H228389   2.865   4.405   1.755
 9482TIP3   OH228390   4.566   0.300   4.098
 9482TIP3    H128391   4.540   0.298   4.190
 9482TIP3    H228392   4.483   0.305   4.050
 9483TIP3   OH228393   3.647   0.683   2.324
 9483TIP3    H128394   3.672   0.753   2.384
 9483TIP3    H228395   3.659   0.603   2.375
 9484TIP3   OH228396   6.404   1.752   4.368
 9484TIP3    H128397   6.355   1.775   4.447
 9484TIP3    H228398   6.488   1.798   4.377
 9485TIP3   OH228399   5.494   7.483   1.626
 9485TIP3    H128400   5.587   7.474   1.647
 9485TIP3    H228401   5.451   7.492   1.711
 9486TIP3   OH228402   5.084   5.936   1.301
 9486TIP3    H128403   5.037   5.998   1.245
 9486TIP3    H228404   5.016   5.878   1.335
 9487TIP3   OH228405   1.394   3.295   3.747
 9487TIP3    H128406   1.432   3.312   3.833
 9487TIP3    H228407   1.313   3.346   3.746
 9488TIP3   OH228408   4.612   7.031   1.281
 9488TIP3    H128409   4.528   7.008   1.322
 9488TIP3    H228410   4.619   7.126   1.293
 9489TIP3   OH228411   3.596   6.416   5.744
 9489TIP3    H128412   3.567   6.326   5.732
 9489TIP3    H228413   3.558   6.464   5.670
 9490TIP3   OH228414   0.660   3.001   4.235
 9490TIP3    H128415   0.727   3.062   4.266
 9490TIP3    H228416   0.701   2.956   4.162
 9491TIP3   OH228417   1.358   0.042   1.081
 9491TIP3    H128418   1.394  -0.039   1.043
 9491TIP3    H228419   1.264   0.026   1.086
 9492TIP3   OH228420   1.856   0.528   2.366
 9492TIP3    H128421   1.821   0.449   2.325
 9492TIP3    H228422   1.792   0.597   2.343
 9493TIP3   OH228423   1.562   1.385   3.176
 9493TIP3    H128424   1.538   1.401   3.085
 9493TIP3    H228425   1.602   1.298   3.176
 9494TIP3   OH228426   5.753   4.708   1.498
 9494TIP3    H128427   5.707   4.791   1.487
 9494TIP3    H228428   5.844   4.727   1.475
 9495TIP3   OH228429   4.690   4.360   3.480
 9495TIP3    H128430   4.740   4.377   3.560
 9495TIP3    H228431   4.728   4.419   3.415
 9496TIP3   OH228432   2.219   6.431   0.812
 9496TIP3    H128433   2.159   6.483   0.759
 9496TIP3    H228434   2.255   6.494   0.876
 9497TIP3   OH228435   5.597   7.633   4.675
 9497TIP3    H128436   5.631   7.644   4.586
 9497TIP3    H228437   5.673   7.606   4.727
 9498TIP3   OH228438   1.274   1.094   6.168
 9498TIP3    H128439   1.264   1.189   6.181
 9498TIP3    H228440   1.184   1.061   6.167
 9499TIP3   OH228441   8.144   0.917   3.755
 9499TIP3    H128442   8.185   0.830   3.756
 9499TIP3    H228443   8.050   0.899   3.763
 9500TIP3   OH228444   8.153   6.332   5.729
 9500TIP3    H128445   8.113   6.245   5.729
 9500TIP3    H228446   8.090   6.388   5.775
 9501TIP3   OH228447   7.140   6.371   2.656
 9501TIP3    H128448   7.088   6.292   2.642
 9501TIP3    H228449   7.107   6.406   2.739
 9502TIP3   OH228450   7.109   6.122   0.472
 9502TIP3    H128451   7.054   6.092   0.545
 9502TIP3    H228452   7.060   6.097   0.393
 9503TIP3   OH228453   4.629   3.157   3.029
 9503TIP3    H128454   4.621   3.221   3.100
 9503TIP3    H228455   4.689   3.091   3.064
 9504TIP3   OH228456   4.194   7.327   3.209
 9504TIP3    H128457   4.281   7.309   3.246
 9504TIP3    H228458   4.136   7.332   3.285
 9505TIP3   OH228459   2.526   3.014   4.543
 9505TIP3    H128460   2.521   2.919   4.546
 9505TIP3    H228461   2.438   3.044   4.567
 9506TIP3   OH228462   5.763   0.627   3.307
 9506TIP3    H128463   5.711   0.653   3.383
 9506TIP3    H228464   5.710   0.653   3.232
 9507TIP3   OH228465   2.850   2.214   0.028
 9507TIP3    H128466   2.888   2.293  -0.010
 9507TIP3    H228467   2.865   2.146  -0.038
 9508TIP3   OH228468   6.712   0.353   0.611
 9508TIP3    H128469   6.711   0.427   0.672
 9508TIP3    H228470   6.631   0.306   0.629
 9509TIP3   OH228471   5.035   1.786   4.720
 9509TIP3    H128472   5.127   1.813   4.728
 9509TIP3    H228473   4.988   1.845   4.779
 9510TIP3   OH228474   3.047   4.855   3.608
 9510TIP3    H128475   3.034   4.944   3.575
 9510TIP3    H228476   3.040   4.799   3.531
 9511TIP3   OH228477   4.479   5.825   2.005
 9511TIP3    H128478   4.487   5.836   2.100
 9511TIP3    H228479   4.439   5.739   1.994
 9512TIP3   OH228480   3.770   1.345   1.079
 9512TIP3    H128481   3.707   1.410   1.047
 9512TIP3    H228482   3.853   1.369   1.038
 9513TIP3   OH228483   6.685   4.984   6.002
 9513TIP3    H128484   6.627   5.045   6.048
 9513TIP3    H228485   6.638   4.964   5.921
 9514TIP3   OH228486   2.717   4.926   6.700
 9514TIP3    H128487   2.716   4.830   6.697
 9514TIP3    H228488   2.808   4.948   6.721
 9515TIP3   OH228489   1.717   0.906   2.972
 9515TIP3    H128490   1.669   0.844   3.026
 9515TIP3    H228491   1.696   0.882   2.882
 9516TIP3   OH228492   5.472   1.672   1.654
 9516TIP3    H128493   5.516   1.587   1.663
 9516TIP3    H228494   5.427   1.684   1.738
 9517TIP3   OH228495   4.082   2.581   0.233
 9517TIP3    H128496   4.048   2.630   0.308
 9517TIP3    H228497   4.122   2.503   0.271
 9518TIP3   OH228498   7.513   7.194   4.608
 9518TIP3    H128499   7.470   7.243   4.537
 9518TIP3    H228500   7.528   7.107   4.571
 9519TIP3   OH228501   1.414   5.406   4.169
 9519TIP3    H128502   1.349   5.336   4.170
 9519TIP3    H228503   1.383   5.467   4.102
 9520TIP3   OH228504   3.760   3.687   0.659
 9520TIP3    H128505   3.785   3.647   0.742
 9520TIP3    H228506   3.795   3.629   0.592
 9521TIP3   OH228507   6.887   4.192   2.272
 9521TIP3    H128508   6.959   4.229   2.323
 9521TIP3    H228509   6.840   4.136   2.333
 9522TIP3   OH228510   3.509   5.611   1.869
 9522TIP3    H128511   3.491   5.598   1.776
 9522TIP3    H228512   3.601   5.588   1.879
 9523TIP3   OH228513   0.461   3.297   4.812
 9523TIP3    H128514   0.442   3.379   4.857
 9523TIP3    H228515   0.547   3.271   4.845
 9524TIP3   OH228516   1.109   6.358   3.554
 9524TIP3    H128517   1.172   6.428   3.542
 9524TIP3    H228518   1.162   6.278   3.560
 9525TIP3   OH228519   6.556   7.335   4.626
 9525TIP3    H128520   6.594   7.384   4.699
 9525TIP3    H228521   6.505   7.400   4.578
 9526TIP3   OH228522   5.926   4.590   3.240
 9526TIP3    H128523   5.889   4.548   3.163
 9526TIP3    H228524   5.935   4.520   3.304
 9527TIP3   OH228525   2.813   4.535   2.298
 9527TIP3    H128526   2.878   4.497   2.238
 9527TIP3    H228527   2.864   4.592   2.355
 9528TIP3   OH228528   2.786   4.449   6.209
 9528TIP3    H128529   2.876   4.419   6.193
 9528TIP3    H228530   2.793   4.504   6.287
 9529TIP3   OH228531   1.555  -0.003   0.751
 9529TIP3    H128532   1.601   0.071   0.712
 9529TIP3    H228533   1.595  -0.014   0.837
 9530TIP3   OH228534   1.540   0.954   6.071
 9530TIP3    H128535   1.603   1.026   6.071
 9530TIP3    H228536   1.469   0.985   6.128
 9531TIP3   OH228537   6.988   5.390   6.120
 9531TIP3    H128538   7.008   5.482   6.106
 9531TIP3    H228539   7.012   5.347   6.038
 9532TIP3   OH228540   2.318   3.469   1.441
 9532TIP3    H128541   2.306   3.558   1.472
 9532TIP3    H228542   2.276   3.467   1.355
 9533TIP3   OH228543   6.265   1.511   1.975
 9533TIP3    H128544   6.336   1.453   2.003
 9533TIP3    H228545   6.251   1.488   1.883
 9534TIP3   OH228546   6.161   0.309   3.143
 9534TIP3    H128547   6.142   0.260   3.064
 9534TIP3    H228548   6.122   0.257   3.214
 9535TIP3   OH228549   5.155   1.021   1.556
 9535TIP3    H128550   5.066   1.055   1.549
 9535TIP3    H228551   5.193   1.037   1.470
 9536TIP3   OH228552   4.417   7.139   3.694
 9536TIP3    H128553   4.368   7.092   3.627
 9536TIP3    H228554   4.376   7.226   3.698
 9537TIP3   OH228555   7.516   2.357   2.154
 9537TIP3    H128556   7.480   2.428   2.208
 9537TIP3    H228557   7.439   2.318   2.112
 9538TIP3   OH228558   2.430   1.590   6.296
 9538TIP3    H128559   2.357   1.539   6.331
 9538TIP3    H228560   2.396   1.679   6.288
 9539TIP3   OH228561   5.146   2.607   6.144
 9539TIP3    H128562   5.206   2.534   6.131
 9539TIP3    H228563   5.101   2.617   6.060
 9540TIP3   OH228564   7.529   2.449   4.218
 9540TIP3    H128565   7.569   2.469   4.303
 9540TIP3    H228566   7.533   2.354   4.211
 9541TIP3   OH228567   4.804   0.288   5.819
 9541TIP3    H128568   4.895   0.310   5.800
 9541TIP3    H228569   4.790   0.202   5.779
 9542TIP3   OH228570   4.803   1.668   6.051
 9542TIP3    H128571   4.833   1.734   5.989
 9542TIP3    H228572   4.707   1.671   6.045
 9543TIP3   OH228573   5.594   7.583   3.095
 9543TIP3    H128574   5.564   7.492   3.103
 9543TIP3    H228575   5.680   7.584   3.136
 9544TIP3   OH228576   7.411   2.978   0.108
 9544TIP3    H128577   7.406   2.883   0.119
 9544TIP3    H228578   7.449   3.010   0.190
 9545TIP3   OH228579   4.879   4.938   1.841
 9545TIP3    H128580   4.888   4.919   1.748
 9545TIP3    H228581   4.868   5.033   1.846
 9546TIP3   OH228582   1.042   3.737   5.812
 9546TIP3    H128583   1.014   3.651   5.844
 9546TIP3    H228584   0.980   3.758   5.742
 9547TIP3   OH228585   0.391   4.785   4.132
 9547TIP3    H128586   0.377   4.704   4.083
 9547TIP3    H228587   0.411   4.756   4.221
 9548TIP3   OH228588   5.225   5.967   3.499
 9548TIP3    H128589   5.247   5.980   3.407
 9548TIP3    H228590   5.166   6.039   3.520
 9549TIP3   OH228591   3.306   0.364   6.591
 9549TIP3    H128592   3.212   0.348   6.600
 9549TIP3    H228593   3.315   0.414   6.510
 9550TIP3   OH228594   2.407   5.406   6.235
 9550TIP3    H128595   2.409   5.310   6.231
 9550TIP3    H228596   2.315   5.427   6.250
 9551TIP3   OH228597   0.068   2.353   3.054
 9551TIP3    H128598   0.091   2.391   2.969
 9551TIP3    H228599   0.124   2.276   3.062
 9552TIP3   OH228600   6.838   4.033   2.536
 9552TIP3    H128601   6.831   3.938   2.526
 9552TIP3    H228602   6.911   4.046   2.596
 9553TIP3   OH228603   4.025   4.165   6.310
 9553TIP3    H128604   4.014   4.221   6.234
 9553TIP3    H228605   4.095   4.104   6.286
 9554TIP3   OH228606   7.464   0.598   6.570
 9554TIP3    H128607   7.430   0.613   6.658
 9554TIP3    H228608   7.540   0.541   6.582
 9555TIP3   OH228609   7.638   7.082   0.373
 9555TIP3    H128610   7.670   7.005   0.420
 9555TIP3    H228611   7.717   7.126   0.343
 9556TIP3   OH228612   2.659   5.802   6.116
 9556TIP3    H128613   2.680   5.891   6.086
 9556TIP3    H228614   2.576   5.781   6.073
 9557TIP3   OH228615   0.771   1.475   1.239
 9557TIP3    H128616   0.718   1.462   1.160
 9557TIP3    H228617   0.858   1.444   1.216
 9558TIP3   OH228618   6.158   6.014   2.303
 9558TIP3    H128619   6.142   6.106   2.324
 9558TIP3    H228620   6.073   5.971   2.316
 9559TIP3   OH228621   1.532   1.832   2.936
 9559TIP3    H128622   1.537   1.739   2.917
 9559TIP3    H228623   1.556   1.839   3.028
 9560TIP3   OH228624   4.451   1.612   2.973
 9560TIP3    H128625   4.541   1.633   2.998
 9560TIP3    H228626   4.451   1.518   2.960
 9561TIP3   OH228627   1.179   1.466   5.017
 9561TIP3    H128628   1.092   1.502   5.035
 9561TIP3    H228629   1.163   1.395   4.955
 9562TIP3   OH228630   3.367   2.392   3.457
 9562TIP3    H128631   3.295   2.367   3.516
 9562TIP3    H228632   3.392   2.480   3.487
 9563TIP3   OH228633   5.845   4.920   2.587
 9563TIP3    H128634   5.831   4.923   2.492
 9563TIP3    H228635   5.856   4.826   2.606
 9564TIP3   OH228636   1.987   7.020   0.355
 9564TIP3    H128637   2.073   7.034   0.394
 9564TIP3    H228638   2.006   6.978   0.271
 9565TIP3   OH228639   7.600   2.188   2.808
 9565TIP3    H128640   7.673   2.128   2.824
 9565TIP3    H228641   7.581   2.178   2.715
 9566TIP3   OH228642   0.033   2.312   4.205
 9566TIP3    H128643  -0.011   2.351   4.280
 9566TIP3    H228644   0.125   2.307   4.230
 9567TIP3   OH228645   4.665   4.503   4.765
 9567TIP3    H128646   4.575   4.481   4.740
 9567TIP3    H228647   4.681   4.450   4.843
 9568TIP3   OH228648   1.713   7.565   1.384
 9568TIP3    H128649   1.627   7.590   1.352
 9568TIP3    H228650   1.737   7.632   1.447
 9569TIP3   OH228651   0.011   3.421   1.324
 9569TIP3    H128652   0.093   3.407   1.371
 9569TIP3    H228653   0.014   3.513   1.298
 9570TIP3   OH228654   8.283   4.105   3.396
 9570TIP3    H128655   8.198   4.094   3.355
 9570TIP3    H228656   8.273   4.066   3.483
 9571TIP3   OH228657   7.489   5.808   0.501
 9571TIP3    H128658   7.405   5.763   0.490
 9571TIP3    H228659   7.500   5.858   0.421
 9572TIP3   OH228660   4.278   1.611   1.338
 9572TIP3    H128661   4.184   1.600   1.354
 9572TIP3    H228662   4.293   1.568   1.254
 9573TIP3   OH228663   1.075   7.304   5.510
 9573TIP3    H128664   1.127   7.367   5.460
 9573TIP3    H228665   0.985   7.318   5.480
 9574TIP3   OH228666   4.947   7.309   1.302
 9574TIP3    H128667   4.910   7.313   1.214
 9574TIP3    H228668   5.015   7.241   1.296
 9575TIP3   OH228669   5.531   6.827   4.301
 9575TIP3    H128670   5.569   6.779   4.374
 9575TIP3    H228671   5.457   6.874   4.340
 9576TIP3   OH228672   5.946   6.493   4.649
 9576TIP3    H128673   5.916   6.583   4.636
 9576TIP3    H228674   5.988   6.470   4.566
 9577TIP3   OH228675   6.701   6.015   4.324
 9577TIP3    H128676   6.736   6.032   4.236
 9577TIP3    H228677   6.614   5.978   4.309
 9578TIP3   OH228678   2.625   4.319   4.215
 9578TIP3    H128679   2.688   4.271   4.270
 9578TIP3    H228680   2.646   4.291   4.126
 9579TIP3   OH228681   0.744   1.027   3.675
 9579TIP3    H128682   0.653   1.052   3.692
 9579TIP3    H228683   0.790   1.044   3.757
 9580TIP3   OH228684   2.122   3.811   0.859
 9580TIP3    H128685   2.076   3.728   0.866
 9580TIP3    H228686   2.155   3.828   0.948
 9581TIP3   OH228687   6.657   2.761   5.405
 9581TIP3    H128688   6.707   2.681   5.420
 9581TIP3    H228689   6.715   2.831   5.432
 9582TIP3   OH228690   4.769   1.676   3.410
 9582TIP3    H128691   4.749   1.749   3.353
 9582TIP3    H228692   4.687   1.655   3.454
 9583TIP3   OH228693   2.060   0.012   0.507
 9583TIP3    H128694   2.051   0.017   0.412
 9583TIP3    H228695   2.127   0.077   0.528
 9584TIP3   OH228696   7.249   1.806   6.378
 9584TIP3    H128697   7.278   1.896   6.393
 9584TIP3    H228698   7.172   1.797   6.434
 9585TIP3   OH228699   0.868   2.887   2.886
 9585TIP3    H128700   0.910   2.827   2.823
 9585TIP3    H228701   0.896   2.854   2.972
 9586TIP3   OH228702   2.629   6.646   6.388
 9586TIP3    H128703   2.722   6.638   6.366
 9586TIP3    H228704   2.607   6.565   6.433
 9587TIP3   OH228705   5.730   0.667   1.596
 9587TIP3    H128706   5.744   0.756   1.630
 9587TIP3    H228707   5.697   0.680   1.508
 9588TIP3   OH228708   6.943   0.556   4.875
 9588TIP3    H128709   6.937   0.643   4.916
 9588TIP3    H228710   6.854   0.536   4.848
 9589TIP3   OH228711   2.554   4.470   2.343
 9589TIP3    H128712   2.638   4.477   2.296
 9589TIP3    H228713   2.577   4.432   2.427
 9590TIP3   OH228714   7.796   3.203   4.783
 9590TIP3    H128715   7.768   3.290   4.811
 9590TIP3    H228716   7.744   3.143   4.837
 9591TIP3   OH228717   4.134   2.989   0.133
 9591TIP3    H128718   4.137   2.913   0.075
 9591TIP3    H228719   4.052   2.980   0.181
 9592TIP3   OH228720   7.172   1.849   3.135
 9592TIP3    H128721   7.157   1.833   3.228
 9592TIP3    H228722   7.093   1.892   3.104
 9593TIP3   OH228723   2.983   2.567   6.325
 9593TIP3    H128724   3.023   2.531   6.246
 9593TIP3    H228725   2.987   2.496   6.388
 9594TIP3   OH228726   0.787   4.686   5.812
 9594TIP3    H128727   0.759   4.761   5.759
 9594TIP3    H228728   0.868   4.656   5.770
 9595TIP3   OH228729   3.762   7.632   3.759
 9595TIP3    H128730   3.673   7.661   3.740
 9595TIP3    H228731   3.792   7.592   3.677
 9596TIP3   OH228732   1.761   1.996   4.218
 9596TIP3    H128733   1.847   2.039   4.218
 9596TIP3    H228734   1.760   1.944   4.298
 9597TIP3   OH228735   2.799   0.501   4.223
 9597TIP3    H128736   2.712   0.499   4.262
 9597TIP3    H228737   2.821   0.594   4.217
 9598TIP3   OH228738   0.104   5.617   5.405
 9598TIP3    H128739   0.047   5.560   5.455
 9598TIP3    H228740   0.169   5.648   5.468
 9599TIP3   OH228741   0.400   0.733   2.556
 9599TIP3    H128742   0.362   0.775   2.479
 9599TIP3    H228743   0.359   0.777   2.630
 9600TIP3   OH228744   0.656   0.697   6.694
 9600TIP3    H128745   0.649   0.673   6.602
 9600TIP3    H228746   0.675   0.791   6.692
 9601TIP3   OH228747   4.254   5.324   4.058
 9601TIP3    H128748   4.323   5.374   4.100
 9601TIP3    H228749   4.181   5.385   4.049
 9602TIP3   OH228750   1.263   4.193   6.668
 9602TIP3    H128751   1.219   4.229   6.745
 9602TIP3    H228752   1.312   4.266   6.631
 9603TIP3   OH228753   8.040   2.632   6.336
 9603TIP3    H128754   7.981   2.599   6.269
 9603TIP3    H228755   8.102   2.688   6.288
 9604TIP3   OH228756   2.120   3.935   0.599
 9604TIP3    H128757   2.109   3.861   0.659
 9604TIP3    H228758   2.131   4.011   0.656
 9605TIP3   OH228759   1.318   4.972   0.896
 9605TIP3    H128760   1.354   5.057   0.868
 9605TIP3    H228761   1.235   4.995   0.939
 9606TIP3   OH228762   5.810   4.094  -0.006
 9606TIP3    H128763   5.719   4.075  -0.028
 9606TIP3    H228764   5.804   4.160   0.063
 9607TIP3   OH228765   2.085   3.962   6.350
 9607TIP3    H128766   2.085   3.998   6.439
 9607TIP3    H228767   2.173   3.927   6.338
 9608TIP3   OH228768   0.313   4.677   0.321
 9608TIP3    H128769   0.349   4.738   0.385
 9608TIP3    H228770   0.383   4.613   0.308
 9609TIP3   OH228771   1.536   2.903   1.898
 9609TIP3    H128772   1.575   2.986   1.925
 9609TIP3    H228773   1.549   2.845   1.974
 9610TIP3   OH228774   5.791   1.609   3.168
 9610TIP3    H128775   5.722   1.661   3.126
 9610TIP3    H228776   5.858   1.599   3.101
 9611TIP3   OH228777   4.154   3.747   0.758
 9611TIP3    H128778   4.248   3.754   0.779
 9611TIP3    H228779   4.129   3.836   0.732
 9612TIP3   OH228780   7.245   1.708   0.307
 9612TIP3    H128781   7.282   1.630   0.265
 9612TIP3    H228782   7.181   1.741   0.244
 9613TIP3   OH228783   6.218   5.497   4.410
 9613TIP3    H128784   6.188   5.407   4.397
 9613TIP3    H228785   6.267   5.494   4.492
 9614TIP3   OH228786   4.293   1.795   3.134
 9614TIP3    H128787   4.364   1.752   3.086
 9614TIP3    H228788   4.214   1.774   3.085
 9615TIP3   OH228789   4.307   2.954   6.057
 9615TIP3    H128790   4.360   2.878   6.035
 9615TIP3    H228791   4.301   3.003   5.975
 9616TIP3   OH228792  -0.011   5.377   6.197
 9616TIP3    H128793   0.066   5.321   6.209
 9616TIP3    H228794  -0.024   5.418   6.282
 9617TIP3   OH228795   1.277   4.269   2.442
 9617TIP3    H128796   1.183   4.250   2.444
 9617TIP3    H228797   1.294   4.314   2.525
 9618TIP3   OH228798   7.700   2.647   1.622
 9618TIP3    H128799   7.700   2.739   1.595
 9618TIP3    H228800   7.761   2.604   1.563
 9619TIP3   OH228801   5.157   0.573   6.286
 9619TIP3    H128802   5.091   0.631   6.249
 9619TIP3    H228803   5.235   0.628   6.296
 9620TIP3   OH228804   4.378   0.222   4.763
 9620TIP3    H128805   4.316   0.224   4.690
 9620TIP3    H228806   4.335   0.272   4.833
 9621TIP3   OH228807   2.840   4.034   6.434
 9621TIP3    H128808   2.935   4.027   6.427
 9621TIP3    H228809   2.810   3.943   6.440
 9622TIP3   OH228810   2.202   0.749   3.448
 9622TIP3    H128811   2.119   0.718   3.484
 9622TIP3    H228812   2.266   0.683   3.475
 9623TIP3   OH228813   6.926   0.674   1.112
 9623TIP3    H128814   6.847   0.629   1.144
 9623TIP3    H228815   6.976   0.606   1.067
 9624TIP3   OH228816   1.785   0.707   4.214
 9624TIP3    H128817   1.768   0.756   4.294
 9624TIP3    H228818   1.812   0.773   4.150
 9625TIP3   OH228819   0.257   7.373   1.217
 9625TIP3    H128820   0.208   7.304   1.261
 9625TIP3    H228821   0.342   7.374   1.263
 9626TIP3   OH228822   1.047   1.858   1.835
 9626TIP3    H128823   1.089   1.808   1.905
 9626TIP3    H228824   0.986   1.796   1.795
 9627TIP3   OH228825   5.755   6.323   6.704
 9627TIP3    H128826   5.690   6.389   6.680
 9627TIP3    H228827   5.823   6.331   6.638
 9628TIP3   OH228828   4.976   2.897   6.424
 9628TIP3    H128829   4.998   2.907   6.517
 9628TIP3    H228830   5.061   2.887   6.381
 9629TIP3   OH228831   2.754   3.410   3.022
 9629TIP3    H128832   2.844   3.389   2.997
 9629TIP3    H228833   2.763   3.472   3.094
 9630TIP3   OH228834   1.122   4.016   0.586
 9630TIP3    H128835   1.169   4.076   0.645
 9630TIP3    H228836   1.030   4.039   0.596
 9631TIP3   OH228837   2.552   4.211   3.898
 9631TIP3    H128838   2.524   4.291   3.854
 9631TIP3    H228839   2.470   4.170   3.926
 9632TIP3   OH228840   3.123   4.737   0.511
 9632TIP3    H128841   3.214   4.750   0.539
 9632TIP3    H228842   3.071   4.786   0.575
 9633TIP3   OH228843   5.373   3.388   5.249
 9633TIP3    H128844   5.309   3.372   5.318
 9633TIP3    H228845   5.331   3.358   5.169
 9634TIP3   OH228846   1.043   2.974   6.034
 9634TIP3    H128847   1.092   3.028   5.972
 9634TIP3    H228848   1.110   2.919   6.075
 9635TIP3   OH228849   6.792   2.604   4.432
 9635TIP3    H128850   6.839   2.628   4.511
 9635TIP3    H228851   6.827   2.663   4.364
 9636TIP3   OH228852   0.770   1.158   0.348
 9636TIP3    H128853   0.838   1.137   0.284
 9636TIP3    H228854   0.711   1.083   0.346
 9637TIP3   OH228855   5.537   3.582   4.614
 9637TIP3    H128856   5.447   3.575   4.584
 9637TIP3    H228857   5.530   3.596   4.708
 9638TIP3   OH228858   5.704   6.298   2.817
 9638TIP3    H128859   5.706   6.209   2.852
 9638TIP3    H228860   5.797   6.322   2.809
 9639TIP3   OH228861   2.141   1.514   1.001
 9639TIP3    H128862   2.154   1.430   0.957
 9639TIP3    H228863   2.147   1.579   0.931
 9640TIP3   OH228864   5.318   7.502   0.750
 9640TIP3    H128865   5.402   7.468   0.781
 9640TIP3    H228866   5.326   7.597   0.760
 9641TIP3   OH228867   0.767   0.869   5.108
 9641TIP3    H128868   0.830   0.928   5.150
 9641TIP3    H228869   0.694   0.926   5.084
 9642TIP3   OH228870   7.325   1.344   2.503
 9642TIP3    H128871   7.299   1.343   2.411
 9642TIP3    H228872   7.275   1.416   2.541
 9643TIP3   OH228873   7.414   7.044   1.106
 9643TIP3    H128874   7.370   6.981   1.049
 9643TIP3    H228875   7.415   7.003   1.192
 9644TIP3   OH228876   0.214   1.159   0.533
 9644TIP3    H128877   0.194   1.123   0.447
 9644TIP3    H228878   0.186   1.251   0.528
 9645TIP3   OH228879   2.261   7.204   3.798
 9645TIP3    H128880   2.327   7.262   3.836
 9645TIP3    H228881   2.207   7.262   3.744
 9646TIP3   OH228882   4.146   3.010   4.505
 9646TIP3    H128883   4.080   3.067   4.545
 9646TIP3    H228884   4.209   3.070   4.466
 9647TIP3   OH228885   4.481   5.710   2.678
 9647TIP3    H128886   4.539   5.737   2.749
 9647TIP3    H228887   4.540   5.681   2.608
 9648TIP3   OH228888   0.403   7.634   6.318
 9648TIP3    H128889   0.324   7.585   6.296
 9648TIP3    H228890   0.387   7.667   6.406
 9649TIP3   OH228891   2.253   0.940   0.209
 9649TIP3    H128892   2.273   1.012   0.148
 9649TIP3    H228893   2.335   0.892   0.217
 9650TIP3   OH228894   1.075   1.851   3.277
 9650TIP3    H128895   1.096   1.915   3.345
 9650TIP3    H228896   1.160   1.829   3.238
 9651TIP3   OH228897   2.686   5.409   3.970
 9651TIP3    H128898   2.647   5.395   4.056
 9651TIP3    H228899   2.611   5.415   3.910
 9652TIP3   OH228900   4.369   5.252   1.501
 9652TIP3    H128901   4.365   5.249   1.596
 9652TIP3    H228902   4.302   5.190   1.471
 9653TIP3   OH228903   6.264   5.754   3.299
 9653TIP3    H128904   6.285   5.689   3.232
 9653TIP3    H228905   6.246   5.703   3.378
 9654TIP3   OH228906   6.434   4.680   0.632
 9654TIP3    H128907   6.485   4.754   0.598
 9654TIP3    H228908   6.500   4.615   0.658
 9655TIP3   OH228909   6.058   0.587   6.091
 9655TIP3    H128910   6.103   0.512   6.053
 9655TIP3    H228911   6.097   0.597   6.178
 9656TIP3   OH228912   5.146   4.539   0.113
 9656TIP3    H128913   5.198   4.619   0.100
 9656TIP3    H228914   5.099   4.528   0.030
 9657TIP3   OH228915   4.107   1.065   4.871
 9657TIP3    H128916   4.055   1.118   4.810
 9657TIP3    H228917   4.198   1.084   4.848
 9658TIP3   OH228918   4.818   1.638   6.379
 9658TIP3    H128919   4.895   1.694   6.377
 9658TIP3    H228920   4.779   1.646   6.292
 9659TIP3   OH228921   8.010   3.648   2.906
 9659TIP3    H128922   7.984   3.589   2.977
 9659TIP3    H228923   7.927   3.685   2.875
 9660TIP3   OH228924   0.264   1.649   4.952
 9660TIP3    H128925   0.271   1.692   5.038
 9660TIP3    H228926   0.327   1.577   4.957
 9661TIP3   OH228927   4.785   6.893   0.210
 9661TIP3    H128928   4.833   6.833   0.267
 9661TIP3    H228929   4.706   6.844   0.185
 9662TIP3   OH228930   0.209   7.043   5.875
 9662TIP3    H128931   0.143   7.004   5.932
 9662TIP3    H228932   0.190   7.006   5.789
 9663TIP3   OH228933   7.894   7.290   2.117
 9663TIP3    H128934   7.832   7.356   2.086
 9663TIP3    H228935   7.921   7.321   2.204
 9664TIP3   OH228936   7.751   7.398   3.683
 9664TIP3    H128937   7.695   7.473   3.665
 9664TIP3    H228938   7.717   7.362   3.766
 9665TIP3   OH228939   7.056   7.778   4.975
 9665TIP3    H128940   7.098   7.739   5.053
 9665TIP3    H228941   7.117   7.847   4.948
 9666TIP3   OH228942   0.485   1.304   5.046
 9666TIP3    H128943   0.429   1.311   4.969
 9666TIP3    H228944   0.570   1.337   5.017
 9667TIP3   OH228945   8.305   4.176   6.663
 9667TIP3    H128946   8.267   4.264   6.665
 9667TIP3    H228947   8.363   4.176   6.588
 9668TIP3   OH228948   2.654   5.538   5.645
 9668TIP3    H128949   2.644   5.605   5.577
 9668TIP3    H228950   2.634   5.456   5.601
 9669TIP3   OH228951   8.000   5.908   4.637
 9669TIP3    H128952   7.950   5.930   4.716
 9669TIP3    H228953   8.049   5.829   4.661
 9670TIP3   OH228954   5.686   2.997   3.715
 9670TIP3    H128955   5.624   2.943   3.765
 9670TIP3    H228956   5.766   2.944   3.713
 9671TIP3   OH228957   3.923   1.762   0.291
 9671TIP3    H128958   4.013   1.783   0.315
 9671TIP3    H228959   3.877   1.846   0.295
 9672TIP3   OH228960   6.864   6.433   0.951
 9672TIP3    H128961   6.801   6.430   1.023
 9672TIP3    H228962   6.944   6.394   0.987
 9673TIP3   OH228963   5.188   3.143   4.338
 9673TIP3    H128964   5.184   3.065   4.284
 9673TIP3    H228965   5.282   3.164   4.341
 9674TIP3   OH228966   5.580   7.511   4.246
 9674TIP3    H128967   5.526   7.437   4.276
 9674TIP3    H228968   5.524   7.558   4.185
 9675TIP3   OH228969   0.468   7.659   0.597
 9675TIP3    H128970   0.560   7.660   0.622
 9675TIP3    H228971   0.464   7.598   0.523
 9676TIP3   OH228972   3.138   5.116   1.712
 9676TIP3    H128973   3.195   5.192   1.700
 9676TIP3    H228974   3.195   5.047   1.745
 9677TIP3   OH228975   2.889   5.278   2.999
 9677TIP3    H128976   2.913   5.330   3.076
 9677TIP3    H228977   2.943   5.199   3.005
 9678TIP3   OH228978   8.265   2.484   0.883
 9678TIP3    H128979   8.184   2.473   0.933
 9678TIP3    H228980   8.335   2.461   0.945
 9679TIP3   OH228981   2.605   3.975   1.293
 9679TIP3    H128982   2.692   3.999   1.262
 9679TIP3    H228983   2.546   3.999   1.222
 9680TIP3   OH228984   1.502   5.996   0.397
 9680TIP3    H128985   1.459   5.920   0.436
 9680TIP3    H228986   1.491   6.065   0.462
 9681TIP3   OH228987   6.417   6.924   6.268
 9681TIP3    H128988   6.331   6.919   6.226
 9681TIP3    H228989   6.413   6.861   6.340
 9682TIP3   OH228990   4.393   5.570   0.513
 9682TIP3    H128991   4.477   5.596   0.477
 9682TIP3    H228992   4.384   5.622   0.593
 9683TIP3   OH228993   1.168   5.989   4.824
 9683TIP3    H128994   1.129   5.996   4.911
 9683TIP3    H228995   1.093   5.992   4.764
 9684TIP3   OH228996   4.927   3.378   1.796
 9684TIP3    H128997   5.022   3.364   1.798
 9684TIP3    H228998   4.889   3.298   1.832
 9685TIP3   OH228999   5.163   3.475   3.647
 9685TIP3    H129000   5.257   3.469   3.630
 9685TIP3    H229001   5.124   3.405   3.594
 9686TIP3   OH229002   2.354   5.452   1.177
 9686TIP3    H129003   2.371   5.446   1.083
 9686TIP3    H229004   2.376   5.543   1.199
 9687TIP3   OH229005   5.828   6.650   3.899
 9687TIP3    H129006   5.901   6.706   3.872
 9687TIP3    H229007   5.778   6.635   3.819
 9688TIP3   OH229008   2.217   5.955   4.419
 9688TIP3    H129009   2.208   5.882   4.357
 9688TIP3    H229010   2.128   5.989   4.428
 9689TIP3   OH229011   5.158   5.981   6.704
 9689TIP3    H129012   5.167   5.973   6.609
 9689TIP3    H229013   5.113   6.065   6.717
 9690TIP3   OH229014   4.877   0.782   4.580
 9690TIP3    H129015   4.874   0.877   4.575
 9690TIP3    H229016   4.895   0.763   4.672
 9691TIP3   OH229017   5.550   0.563   1.776
 9691TIP3    H129018   5.472   0.546   1.723
 9691TIP3    H229019   5.621   0.576   1.713
 9692TIP3   OH229020   1.594   3.696   3.770
 9692TIP3    H129021   1.537   3.664   3.701
 9692TIP3    H229022   1.624   3.781   3.739
 9693TIP3   OH229023   1.005   3.583   3.570
 9693TIP3    H129024   0.910   3.583   3.559
 9693TIP3    H229025   1.039   3.606   3.483
 9694TIP3   OH229026   2.598   2.337   1.732
 9694TIP3    H129027   2.686   2.339   1.695
 9694TIP3    H229028   2.548   2.282   1.671
 9695TIP3   OH229029   7.828   2.647   1.311
 9695TIP3    H129030   7.870   2.563   1.291
 9695TIP3    H229031   7.762   2.658   1.243
 9696TIP3   OH229032   5.326   7.314   0.209
 9696TIP3    H129033   5.276   7.307   0.128
 9696TIP3    H229034   5.262   7.295   0.278
 9697TIP3   OH229035   4.618   2.679   4.856
 9697TIP3    H129036   4.550   2.731   4.813
 9697TIP3    H229037   4.679   2.744   4.890
 9698TIP3   OH229038   5.684   5.116   5.393
 9698TIP3    H129039   5.663   5.035   5.346
 9698TIP3    H229040   5.654   5.099   5.483
 9699TIP3   OH229041   8.036   1.233   5.488
 9699TIP3    H129042   8.102   1.293   5.522
 9699TIP3    H229043   8.074   1.201   5.406
 9700TIP3   OH229044   1.049   4.897   3.193
 9700TIP3    H129045   1.024   4.988   3.209
 9700TIP3    H229046   1.095   4.900   3.109
 9701TIP3   OH229047   1.804   5.356   0.652
 9701TIP3    H129048   1.771   5.392   0.734
 9701TIP3    H229049   1.889   5.399   0.639
 9702TIP3   OH229050   4.929   5.185   5.426
 9702TIP3    H129051   4.906   5.262   5.478
 9702TIP3    H229052   5.025   5.184   5.427
 9703TIP3   OH229053   3.158   6.481   4.344
 9703TIP3    H129054   3.159   6.437   4.259
 9703TIP3    H229055   3.207   6.422   4.402
 9704TIP3   OH229056   0.204   2.833   4.967
 9704TIP3    H129057   0.110   2.848   4.969
 9704TIP3    H229058   0.236   2.890   4.897
 9705TIP3   OH229059   3.759   4.397   6.422
 9705TIP3    H129060   3.820   4.429   6.355
 9705TIP3    H229061   3.689   4.356   6.373
 9706TIP3   OH229062   6.001   3.329   2.592
 9706TIP3    H129063   6.096   3.323   2.605
 9706TIP3    H229064   5.979   3.253   2.538
 9707TIP3   OH229065   3.003   6.625   1.121
 9707TIP3    H129066   3.032   6.650   1.033
 9707TIP3    H229067   3.083   6.616   1.171
 9708TIP3   OH229068   6.135   4.396   4.553
 9708TIP3    H129069   6.101   4.413   4.465
 9708TIP3    H229070   6.058   4.400   4.610
 9709TIP3   OH229071   8.222   2.721   1.559
 9709TIP3    H129072   8.238   2.641   1.508
 9709TIP3    H229073   8.239   2.792   1.497
 9710TIP3   OH229074   7.572   2.233   1.120
 9710TIP3    H129075   7.595   2.316   1.078
 9710TIP3    H229076   7.530   2.258   1.202
 9711TIP3   OH229077   0.805   2.435   3.487
 9711TIP3    H129078   0.781   2.521   3.523
 9711TIP3    H229079   0.726   2.405   3.443
 9712TIP3   OH229080   2.243   5.790   3.744
 9712TIP3    H129081   2.173   5.770   3.806
 9712TIP3    H229082   2.223   5.878   3.712
 9713TIP3   OH229083   6.511   7.663   0.503
 9713TIP3    H129084   6.501   7.737   0.444
 9713TIP3    H229085   6.422   7.631   0.517
 9714TIP3   OH229086   5.168   3.674   0.907
 9714TIP3    H129087   5.101   3.700   0.843
 9714TIP3    H229088   5.241   3.644   0.854
 9715TIP3   OH229089   0.520   3.752   3.978
 9715TIP3    H129090   0.612   3.727   3.982
 9715TIP3    H229091   0.476   3.697   4.043
 9716TIP3   OH229092   1.620   7.752   2.884
 9716TIP3    H129093   1.535   7.778   2.918
 9716TIP3    H229094   1.602   7.715   2.798
 9717TIP3   OH229095   5.479   7.510   6.732
 9717TIP3    H129096   5.500   7.484   6.822
 9717TIP3    H229097   5.560   7.494   6.684
 9718TIP3   OH229098   0.616   4.687   1.728
 9718TIP3    H129099   0.674   4.618   1.696
 9718TIP3    H229100   0.589   4.734   1.649
 9719TIP3   OH229101   7.976   0.963   0.048
 9719TIP3    H129102   8.029   0.973  -0.031
 9719TIP3    H229103   7.886   0.966   0.017
 9720TIP3   OH229104   5.918   5.873   2.192
 9720TIP3    H129105   5.998   5.850   2.145
 9720TIP3    H229106   5.894   5.794   2.240
 9721TIP3   OH229107   3.744   5.984   4.474
 9721TIP3    H129108   3.760   5.890   4.466
 9721TIP3    H229109   3.763   6.004   4.566
 9722TIP3   OH229110   4.915   6.954   3.560
 9722TIP3    H129111   4.839   6.909   3.598
 9722TIP3    H229112   4.990   6.920   3.608
 9723TIP3   OH229113   1.370   3.018   1.041
 9723TIP3    H129114   1.304   3.000   0.974
 9723TIP3    H229115   1.352   2.954   1.109
 9724TIP3   OH229116   1.848   2.588   1.568
 9724TIP3    H129117   1.917   2.636   1.522
 9724TIP3    H229118   1.888   2.561   1.651
 9725TIP3   OH229119   4.783   3.089   3.495
 9725TIP3    H129120   4.849   3.111   3.560
 9725TIP3    H229121   4.736   3.171   3.479
 9726TIP3   OH229122   6.749   6.990   6.495
 9726TIP3    H129123   6.679   7.055   6.493
 9726TIP3    H229124   6.781   6.987   6.405
 9727TIP3   OH229125   4.973   4.610   4.018
 9727TIP3    H129126   4.889   4.597   3.974
 9727TIP3    H229127   4.951   4.659   4.097
 9728TIP3   OH229128   2.994   6.260   5.267
 9728TIP3    H129129   2.949   6.279   5.349
 9728TIP3    H229130   2.943   6.190   5.227
 9729TIP3   OH229131   0.675   6.051   2.976
 9729TIP3    H129132   0.665   6.142   2.950
 9729TIP3    H229133   0.664   6.002   2.895
 9730TIP3   OH229134   4.963   3.518   4.038
 9730TIP3    H129135   4.941   3.454   4.105
 9730TIP3    H229136   4.938   3.476   3.956
 9731TIP3   OH229137   7.988   0.475   4.153
 9731TIP3    H129138   7.987   0.563   4.116
 9731TIP3    H229139   8.074   0.440   4.130
 9732TIP3   OH229140   2.099   3.949   1.845
 9732TIP3    H129141   2.095   4.006   1.922
 9732TIP3    H229142   2.063   3.866   1.875
 9733TIP3   OH229143   7.576   0.373   4.858
 9733TIP3    H129144   7.655   0.399   4.907
 9733TIP3    H229145   7.503   0.403   4.913
 9734TIP3   OH229146   3.556   5.894   3.806
 9734TIP3    H129147   3.499   5.894   3.728
 9734TIP3    H229148   3.523   5.966   3.859
 9735TIP3   OH229149   4.635   7.672   1.140
 9735TIP3    H129150   4.577   7.634   1.074
 9735TIP3    H229151   4.661   7.756   1.104
 9736TIP3   OH229152   7.277   2.580   4.163
 9736TIP3    H129153   7.357   2.535   4.135
 9736TIP3    H229154   7.240   2.523   4.231
 9737TIP3   OH229155   0.140   7.286   3.315
 9737TIP3    H129156   0.139   7.367   3.265
 9737TIP3    H229157   0.084   7.226   3.266
 9738TIP3   OH229158   6.832   7.131   1.808
 9738TIP3    H129159   6.922   7.137   1.775
 9738TIP3    H229160   6.778   7.156   1.733
 9739TIP3   OH229161   4.509   5.659   2.331
 9739TIP3    H129162   4.492   5.753   2.327
 9739TIP3    H229163   4.432   5.619   2.290
 9740TIP3   OH229164   7.325   6.256   3.513
 9740TIP3    H129165   7.272   6.334   3.493
 9740TIP3    H229166   7.267   6.200   3.565
 9741TIP3   OH229167   2.766   3.499   2.003
 9741TIP3    H129168   2.783   3.446   2.081
 9741TIP3    H229169   2.825   3.463   1.936
 9742TIP3   OH229170   1.225   6.845   5.965
 9742TIP3    H129171   1.174   6.868   5.888
 9742TIP3    H229172   1.203   6.911   6.031
 9743TIP3   OH229173   6.879   1.694   2.773
 9743TIP3    H129174   6.920   1.774   2.807
 9743TIP3    H229175   6.785   1.711   2.776
 9744TIP3   OH229176   1.447   6.001   3.302
 9744TIP3    H129177   1.360   5.964   3.314
 9744TIP3    H229178   1.493   5.938   3.247
 9745TIP3   OH229179   0.318   2.173   5.392
 9745TIP3    H129180   0.400   2.124   5.399
 9745TIP3    H229181   0.319   2.231   5.468
 9746TIP3   OH229182   3.795   5.887   2.015
 9746TIP3    H129183   3.806   5.878   1.920
 9746TIP3    H229184   3.837   5.971   2.035
 9747TIP3   OH229185   1.857   3.409   3.462
 9747TIP3    H129186   1.818   3.401   3.375
 9747TIP3    H229187   1.825   3.333   3.510
 9748TIP3   OH229188   0.299   0.341   3.280
 9748TIP3    H129189   0.357   0.289   3.224
 9748TIP3    H229190   0.349   0.419   3.301
 9749TIP3   OH229191   2.373   3.911   0.107
 9749TIP3    H129192   2.467   3.895   0.105
 9749TIP3    H229193   2.337   3.848   0.044
 9750TIP3   OH229194   5.925   0.615   4.446
 9750TIP3    H129195   5.952   0.523   4.455
 9750TIP3    H229196   5.894   0.622   4.356
 9751TIP3   OH229197   6.352   4.505   6.615
 9751TIP3    H129198   6.361   4.468   6.527
 9751TIP3    H229199   6.353   4.600   6.601
 9752TIP3   OH229200   6.409   3.853   3.518
 9752TIP3    H129201   6.436   3.827   3.430
 9752TIP3    H229202   6.472   3.920   3.544
 9753TIP3   OH229203   0.042   2.170   5.395
 9753TIP3    H129204   0.052   2.205   5.484
 9753TIP3    H229205   0.126   2.128   5.377
 9754TIP3   OH229206   1.042   5.695   1.135
 9754TIP3    H129207   1.109   5.734   1.190
 9754TIP3    H229208   1.022   5.611   1.176
 9755TIP3   OH229209   3.125   6.489   6.392
 9755TIP3    H129210   3.130   6.566   6.335
 9755TIP3    H229211   3.199   6.434   6.365
 9756TIP3   OH229212   1.326   2.280   4.026
 9756TIP3    H129213   1.364   2.329   4.099
 9756TIP3    H229214   1.392   2.216   4.002
 9757TIP3   OH229215   3.106   5.927   6.668
 9757TIP3    H129216   3.120   5.867   6.741
 9757TIP3    H229217   3.166   6.000   6.684
 9758TIP3   OH229218   1.818   7.283   6.353
 9758TIP3    H129219   1.749   7.271   6.418
 9758TIP3    H229220   1.889   7.326   6.402
 9759TIP3   OH229221   6.440   0.308   2.744
 9759TIP3    H129222   6.434   0.401   2.765
 9759TIP3    H229223   6.471   0.268   2.826
 9760TIP3   OH229224   3.092   6.320   3.008
 9760TIP3    H129225   3.156   6.279   2.950
 9760TIP3    H229226   3.008   6.302   2.967
 9761TIP3   OH229227   2.989   0.796   1.675
 9761TIP3    H129228   3.070   0.816   1.628
 9761TIP3    H229229   3.019   0.764   1.760
 9762TIP3   OH229230   1.346   7.206   2.445
 9762TIP3    H129231   1.287   7.175   2.514
 9762TIP3    H229232   1.291   7.263   2.391
 9763TIP3   OH229233   6.161   1.107   0.864
 9763TIP3    H129234   6.201   1.194   0.853
 9763TIP3    H229235   6.068   1.122   0.853
 9764TIP3   OH229236   4.814   0.103   1.649
 9764TIP3    H129237   4.874   0.109   1.574
 9764TIP3    H229238   4.810   0.010   1.669
 9765TIP3   OH229239   8.218   2.867   5.011
 9765TIP3    H129240   8.209   2.815   5.091
 9765TIP3    H229241   8.185   2.810   4.942
 9766TIP3   OH229242   8.269   3.461   3.762
 9766TIP3    H129243   8.299   3.551   3.746
 9766TIP3    H229244   8.318   3.433   3.839
 9767TIP3   OH229245   4.958   0.306   3.485
 9767TIP3    H129246   4.931   0.215   3.492
 9767TIP3    H229247   4.902   0.352   3.547
 9768TIP3   OH229248   8.257   4.698   2.206
 9768TIP3    H129249   8.276   4.627   2.144
 9768TIP3    H229250   8.168   4.679   2.237
 9769TIP3   OH229251   6.584   4.913   0.184
 9769TIP3    H129252   6.555   4.841   0.128
 9769TIP3    H229253   6.507   4.970   0.192
 9770TIP3   OH229254   5.258   1.778   2.809
 9770TIP3    H129255   5.218   1.770   2.895
 9770TIP3    H229256   5.186   1.800   2.750
 9771TIP3   OH229257   7.389   2.711   4.886
 9771TIP3    H129258   7.453   2.733   4.954
 9771TIP3    H229259   7.378   2.792   4.836
 9772TIP3   OH229260   5.933   3.841   3.841
 9772TIP3    H129261   5.935   3.868   3.749
 9772TIP3    H229262   5.844   3.859   3.870
 9773TIP3   OH229263   1.485   5.025   0.548
 9773TIP3    H129264   1.495   5.106   0.597
 9773TIP3    H229265   1.402   5.035   0.502
 9774TIP3   OH229266   2.515   2.382   2.714
 9774TIP3    H129267   2.477   2.399   2.628
 9774TIP3    H229268   2.590   2.441   2.720
 9775TIP3   OH229269   6.592   2.698   0.609
 9775TIP3    H129270   6.610   2.764   0.676
 9775TIP3    H229271   6.607   2.615   0.653
 9776TIP3   OH229272   3.333   6.777   3.558
 9776TIP3    H129273   3.283   6.698   3.539
 9776TIP3    H229274   3.290   6.845   3.506
 9777TIP3   OH229275   7.698   2.306   6.283
 9777TIP3    H129276   7.733   2.386   6.245
 9777TIP3    H229277   7.661   2.258   6.209
 9778TIP3   OH229278   3.025   3.268   1.140
 9778TIP3    H129279   3.065   3.182   1.153
 9778TIP3    H229280   3.099   3.328   1.133
 9779TIP3   OH229281   6.797   3.282   6.700
 9779TIP3    H129282   6.774   3.193   6.671
 9779TIP3    H229283   6.867   3.269   6.765
 9780TIP3   OH229284   6.883   4.241   5.865
 9780TIP3    H129285   6.877   4.206   5.954
 9780TIP3    H229286   6.836   4.178   5.811
 9781TIP3   OH229287   3.539   4.155   5.463
 9781TIP3    H129288   3.581   4.231   5.504
 9781TIP3    H229289   3.480   4.122   5.530
 9782TIP3   OH229290   8.057   4.757   0.386
 9782TIP3    H129291   8.144   4.746   0.425
 9782TIP3    H229292   8.073   4.769   0.293
 9783TIP3   OH229293   2.885   6.756   3.567
 9783TIP3    H129294   2.803   6.731   3.525
 9783TIP3    H229295   2.949   6.691   3.537
 9784TIP3   OH229296   0.869   7.586   2.479
 9784TIP3    H129297   0.894   7.557   2.567
 9784TIP3    H229298   0.808   7.519   2.448
 9785TIP3   OH229299   2.534   4.758   6.398
 9785TIP3    H129300   2.452   4.783   6.356
 9785TIP3    H229301   2.593   4.832   6.383
 9786TIP3   OH229302   8.037   7.665   4.174
 9786TIP3    H129303   7.956   7.617   4.155
 9786TIP3    H229304   8.106   7.600   4.159
 9787TIP3   OH229305   3.057   7.784   5.146
 9787TIP3    H129306   3.027   7.854   5.203
 9787TIP3    H229307   3.140   7.756   5.185
 9788TIP3   OH229308   5.923   3.457   4.489
 9788TIP3    H129309   5.974   3.528   4.450
 9788TIP3    H229310   5.896   3.403   4.415
 9789TIP3   OH229311   6.204   4.871   3.804
 9789TIP3    H129312   6.296   4.895   3.788
 9789TIP3    H229313   6.199   4.778   3.781
 9790TIP3   OH229314   7.149   2.036   4.396
 9790TIP3    H129315   7.194   1.975   4.338
 9790TIP3    H229316   7.097   2.092   4.337
 9791TIP3   OH229317   1.207   4.544   0.333
 9791TIP3    H129318   1.162   4.561   0.415
 9791TIP3    H229319   1.196   4.450   0.319
 9792TIP3   OH229320   4.826   7.137   1.785
 9792TIP3    H129321   4.809   7.124   1.691
 9792TIP3    H229322   4.921   7.150   1.790
 9793TIP3   OH229323   0.065   3.105   0.198
 9793TIP3    H129324   0.153   3.136   0.181
 9793TIP3    H229325   0.074   3.010   0.208
 9794TIP3   OH229326   0.880   7.717   6.462
 9794TIP3    H129327   0.948   7.696   6.526
 9794TIP3    H229328   0.876   7.812   6.462
 9795TIP3   OH229329   5.078   0.692   3.240
 9795TIP3    H129330   5.164   0.727   3.262
 9795TIP3    H229331   5.024   0.769   3.224
 9796TIP3   OH229332   7.436   5.481   0.864
 9796TIP3    H129333   7.480   5.518   0.788
 9796TIP3    H229334   7.384   5.553   0.900
 9797TIP3   OH229335   6.567   6.056   5.065
 9797TIP3    H129336   6.579   6.028   5.155
 9797TIP3    H229337   6.655   6.074   5.033
 9798TIP3   OH229338   1.560   0.876   1.970
 9798TIP3    H129339   1.537   0.916   1.886
 9798TIP3    H229340   1.476   0.863   2.014
 9799TIP3   OH229341   3.682   0.217   2.190
 9799TIP3    H129342   3.719   0.214   2.279
 9799TIP3    H229343   3.661   0.309   2.176
 9800TIP3   OH229344   2.190   4.894   3.077
 9800TIP3    H129345   2.263   4.931   3.028
 9800TIP3    H229346   2.202   4.928   3.166
 9801TIP3   OH229347   5.644   3.229   3.594
 9801TIP3    H129348   5.722   3.246   3.541
 9801TIP3    H229349   5.657   3.141   3.629
 9802TIP3   OH229350   0.728   5.293   5.982
 9802TIP3    H129351   0.734   5.386   6.007
 9802TIP3    H229352   0.797   5.250   6.032
 9803TIP3   OH229353   2.396   2.852   1.259
 9803TIP3    H129354   2.397   2.827   1.351
 9803TIP3    H229355   2.421   2.773   1.212
 9804TIP3   OH229356   3.498   3.123   1.988
 9804TIP3    H129357   3.509   3.056   1.920
 9804TIP3    H229358   3.434   3.184   1.951
 9805TIP3   OH229359   5.799   3.710   4.530
 9805TIP3    H129360   5.711   3.721   4.568
 9805TIP3    H229361   5.815   3.616   4.535
 9806TIP3   OH229362   5.997   1.060   5.327
 9806TIP3    H129363   5.935   1.050   5.399
 9806TIP3    H229364   5.945   1.045   5.248
 9807TIP3   OH229365   4.634   4.954   4.408
 9807TIP3    H129366   4.670   5.040   4.386
 9807TIP3    H229367   4.694   4.921   4.476
 9808TIP3   OH229368   5.183   3.696   3.052
 9808TIP3    H129369   5.261   3.670   3.100
 9808TIP3    H229370   5.123   3.729   3.119
 9809TIP3   OH229371   0.931   5.860   0.096
 9809TIP3    H129372   0.969   5.924   0.156
 9809TIP3    H229373   1.004   5.836   0.038
 9810TIP3   OH229374   1.515   1.227   4.658
 9810TIP3    H129375   1.479   1.263   4.739
 9810TIP3    H229376   1.456   1.155   4.636
 9811TIP3   OH229377   0.110   0.510   0.638
 9811TIP3    H129378   0.045   0.562   0.685
 9811TIP3    H229379   0.193   0.553   0.656
 9812TIP3   OH229380   6.364   2.183   1.002
 9812TIP3    H129381   6.330   2.113   0.946
 9812TIP3    H229382   6.458   2.167   1.007
 9813TIP3   OH229383   1.768   3.507   6.458
 9813TIP3    H129384   1.844   3.476   6.409
 9813TIP3    H229385   1.797   3.508   6.549
 9814TIP3   OH229386   4.241   2.631   5.844
 9814TIP3    H129387   4.258   2.540   5.822
 9814TIP3    H229388   4.168   2.657   5.787
 9815TIP3   OH229389   4.671   5.865   5.364
 9815TIP3    H129390   4.700   5.836   5.450
 9815TIP3    H229391   4.649   5.957   5.375
 9816TIP3   OH229392   3.836   2.892   4.980
 9816TIP3    H129393   3.868   2.885   4.890
 9816TIP3    H229394   3.824   2.986   4.994
 9817TIP3   OH229395   4.999   7.086   5.047
 9817TIP3    H129396   4.910   7.067   5.018
 9817TIP3    H229397   5.046   7.107   4.967
 9818TIP3   OH229398   6.162   2.820   4.808
 9818TIP3    H129399   6.154   2.882   4.735
 9818TIP3    H229400   6.109   2.745   4.782
 9819TIP3   OH229401   0.800   5.009   2.671
 9819TIP3    H129402   0.823   5.077   2.734
 9819TIP3    H229403   0.817   5.048   2.585
 9820TIP3   OH229404   4.014   3.273   2.822
 9820TIP3    H129405   3.966   3.261   2.740
 9820TIP3    H229406   3.950   3.256   2.890
 9821TIP3   OH229407   0.617   5.802   3.483
 9821TIP3    H129408   0.559   5.798   3.407
 9821TIP3    H229409   0.688   5.861   3.456
 9822TIP3   OH229410   2.050   2.377   6.205
 9822TIP3    H129411   2.102   2.422   6.138
 9822TIP3    H229412   2.087   2.406   6.288
 9823TIP3   OH229413   4.783   2.190   0.368
 9823TIP3    H129414   4.817   2.101   0.379
 9823TIP3    H229415   4.858   2.247   0.389
 9824TIP3   OH229416   0.417   3.673   0.261
 9824TIP3    H129417   0.348   3.609   0.246
 9824TIP3    H229418   0.498   3.622   0.261
 9825TIP3   OH229419   1.325   0.942   3.825
 9825TIP3    H129420   1.397   0.900   3.777
 9825TIP3    H229421   1.356   0.949   3.915
 9826TIP3   OH229422   8.156   6.817   0.292
 9826TIP3    H129423   8.131   6.891   0.236
 9826TIP3    H229424   8.140   6.848   0.381
 9827TIP3   OH229425   3.611   4.814   5.364
 9827TIP3    H129426   3.542   4.878   5.345
 9827TIP3    H229427   3.689   4.867   5.380
 9828TIP3   OH229428   3.585   5.337   1.330
 9828TIP3    H129429   3.532   5.374   1.401
 9828TIP3    H229430   3.570   5.396   1.256
 9829TIP3   OH229431   2.773   0.127   1.509
 9829TIP3    H129432   2.785   0.040   1.472
 9829TIP3    H229433   2.703   0.166   1.457
 9830TIP3   OH229434   7.347   4.153   1.180
 9830TIP3    H129435   7.417   4.211   1.208
 9830TIP3    H229436   7.290   4.145   1.256
 9831TIP3   OH229437   5.164   5.261   0.723
 9831TIP3    H129438   5.102   5.205   0.676
 9831TIP3    H229439   5.109   5.324   0.769
 9832TIP3   OH229440   6.146   6.338   1.766
 9832TIP3    H129441   6.068   6.321   1.713
 9832TIP3    H229442   6.171   6.253   1.801
 9833TIP3   OH229443   0.692   7.346   0.663
 9833TIP3    H129444   0.732   7.432   0.679
 9833TIP3    H229445   0.752   7.302   0.604
 9834TIP3   OH229446   7.543   0.680   3.603
 9834TIP3    H129447   7.615   0.663   3.543
 9834TIP3    H229448   7.489   0.601   3.598
 9835TIP3   OH229449   4.576   1.466   1.751
 9835TIP3    H129450   4.620   1.539   1.793
 9835TIP3    H229451   4.516   1.507   1.688
 9836TIP3   OH229452   6.853   2.630   6.324
 9836TIP3    H129453   6.787   2.566   6.353
 9836TIP3    H229454   6.807   2.714   6.325
 9837TIP3   OH229455   2.148   7.071   5.351
 9837TIP3    H129456   2.161   7.030   5.266
 9837TIP3    H229457   2.167   7.164   5.336
 9838TIP3   OH229458   2.802   2.764   6.416
 9838TIP3    H129459   2.864   2.716   6.362
 9838TIP3    H229460   2.856   2.821   6.470
 9839TIP3   OH229461   8.072   5.839   1.262
 9839TIP3    H129462   8.159   5.800   1.254
 9839TIP3    H229463   8.014   5.782   1.212
 9840TIP3   OH229464   5.828   1.429   6.477
 9840TIP3    H129465   5.765   1.492   6.442
 9840TIP3    H229466   5.838   1.364   6.408
 9841TIP3   OH229467   1.711   4.138   0.804
 9841TIP3    H129468   1.763   4.134   0.724
 9841TIP3    H229469   1.772   4.108   0.873
 9842TIP3   OH229470   2.862   1.995   5.995
 9842TIP3    H129471   2.909   1.928   6.046
 9842TIP3    H229472   2.796   2.029   6.056
 9843TIP3   OH229473   0.443   5.703   1.376
 9843TIP3    H129474   0.490   5.761   1.436
 9843TIP3    H229475   0.362   5.751   1.355
 9844TIP3   OH229476   1.858   1.268   1.053
 9844TIP3    H129477   1.808   1.261   1.135
 9844TIP3    H229478   1.872   1.362   1.043
 9845TIP3   OH229479   5.097   6.677   6.586
 9845TIP3    H129480   5.014   6.654   6.546
 9845TIP3    H229481   5.149   6.597   6.582
 9846TIP3   OH229482   3.017   2.254   4.267
 9846TIP3    H129483   3.008   2.197   4.191
 9846TIP3    H229484   3.070   2.328   4.236
 9847TIP3   OH229485   3.906   2.181   4.260
 9847TIP3    H129486   3.934   2.241   4.329
 9847TIP3    H229487   3.907   2.233   4.180
 9848TIP3   OH229488   6.231   0.330   5.111
 9848TIP3    H129489   6.183   0.402   5.070
 9848TIP3    H229490   6.163   0.264   5.130
 9849TIP3   OH229491   5.049   6.337   5.583
 9849TIP3    H129492   5.120   6.392   5.549
 9849TIP3    H229493   4.969   6.376   5.546
 9850TIP3   OH229494   1.571   3.181   0.149
 9850TIP3    H129495   1.646   3.195   0.206
 9850TIP3    H229496   1.566   3.260   0.095
 9851TIP3   OH229497   5.935   3.998   5.614
 9851TIP3    H129498   5.947   3.919   5.667
 9851TIP3    H229499   5.854   4.037   5.647
 9852TIP3   OH229500   5.305   3.728   2.170
 9852TIP3    H129501   5.328   3.651   2.118
 9852TIP3    H229502   5.373   3.792   2.151
 9853TIP3   OH229503   3.330   3.280   0.981
 9853TIP3    H129504   3.406   3.324   0.944
 9853TIP3    H229505   3.281   3.348   1.026
 9854TIP3   OH229506   1.918   2.164   6.317
 9854TIP3    H129507   1.830   2.174   6.280
 9854TIP3    H229508   1.973   2.222   6.264
 9855TIP3   OH229509   5.017   3.086   3.633
 9855TIP3    H129510   5.061   3.066   3.550
 9855TIP3    H229511   5.035   3.011   3.689
 9856TIP3   OH229512   3.551   4.350   5.134
 9856TIP3    H129513   3.545   4.413   5.206
 9856TIP3    H229514   3.524   4.400   5.057
 9857TIP3   OH229515   0.290   5.214   5.066
 9857TIP3    H129516   0.203   5.253   5.078
 9857TIP3    H229517   0.315   5.240   4.977
 9858TIP3   OH229518   0.478   2.697   0.485
 9858TIP3    H129519   0.439   2.781   0.508
 9858TIP3    H229520   0.562   2.696   0.531
 9859TIP3   OH229521   1.898   4.970   1.615
 9859TIP3    H129522   1.907   4.881   1.582
 9859TIP3    H229523   1.841   4.963   1.691
 9860TIP3   OH229524   3.760   5.250   3.887
 9860TIP3    H129525   3.740   5.340   3.861
 9860TIP3    H229526   3.853   5.240   3.868
 9861TIP3   OH229527   4.076   5.534   1.367
 9861TIP3    H129528   4.027   5.467   1.415
 9861TIP3    H229529   4.064   5.614   1.417
 9862TIP3   OH229530   5.050   2.105   1.783
 9862TIP3    H129531   4.995   2.157   1.843
 9862TIP3    H229532   5.093   2.170   1.728
 9863TIP3   OH229533   1.646   3.160   1.994
 9863TIP3    H129534   1.742   3.156   1.995
 9863TIP3    H229535   1.626   3.252   1.975
 9864TIP3   OH229536   3.667   4.102   1.288
 9864TIP3    H129537   3.642   4.194   1.296
 9864TIP3    H229538   3.758   4.104   1.259
 9865TIP3   OH229539   1.995   6.004   6.022
 9865TIP3    H129540   2.064   6.055   5.980
 9865TIP3    H229541   2.040   5.929   6.060
 9866TIP3   OH229542   5.017   4.017   2.776
 9866TIP3    H129543   4.940   3.972   2.809
 9866TIP3    H229544   5.046   3.965   2.701
 9867TIP3   OH229545   4.038   3.763   1.666
 9867TIP3    H129546   3.997   3.836   1.713
 9867TIP3    H229547   4.046   3.693   1.731
 9868TIP3   OH229548   6.527   7.003   1.788
 9868TIP3    H129549   6.504   7.095   1.796
 9868TIP3    H229550   6.572   6.983   1.871
 9869TIP3   OH229551   0.521   2.009   2.904
 9869TIP3    H129552   0.500   1.925   2.864
 9869TIP3    H229553   0.503   2.074   2.836
 9870TIP3   OH229554   2.346   0.050   1.972
 9870TIP3    H129555   2.366   0.131   2.019
 9870TIP3    H229556   2.426  -0.001   1.975
 9871TIP3   OH229557   3.162   1.242   5.298
 9871TIP3    H129558   3.153   1.337   5.287
 9871TIP3    H229559   3.113   1.205   5.225
 9872TIP3   OH229560   7.460   0.928   0.975
 9872TIP3    H129561   7.447   0.834   0.989
 9872TIP3    H229562   7.390   0.953   0.915
 9873TIP3   OH229563   0.943   7.049   2.698
 9873TIP3    H129564   0.860   7.018   2.661
 9873TIP3    H229565   0.931   7.042   2.793
 9874TIP3   OH229566   3.046   1.563   1.398
 9874TIP3    H129567   3.095   1.491   1.358
 9874TIP3    H229568   2.971   1.521   1.440
 9875TIP3   OH229569   4.810   3.650   2.205
 9875TIP3    H129570   4.881   3.602   2.164
 9875TIP3    H229571   4.817   3.738   2.168
 9876TIP3   OH229572   2.684   4.342   1.131
 9876TIP3    H129573   2.726   4.328   1.215
 9876TIP3    H229574   2.752   4.321   1.066
 9877TIP3   OH229575   8.139   2.904   3.079
 9877TIP3    H129576   8.209   2.937   3.023
 9877TIP3    H229577   8.177   2.828   3.123
 9878TIP3   OH229578   0.739   4.044   6.132
 9878TIP3    H129579   0.817   4.063   6.079
 9878TIP3    H229580   0.747   3.951   6.153
 9879TIP3   OH229581   1.392   1.438   5.478
 9879TIP3    H129582   1.486   1.419   5.473
 9879TIP3    H229583   1.358   1.413   5.392
 9880TIP3   OH229584   2.887   3.057   4.345
 9880TIP3    H129585   2.840   3.073   4.264
 9880TIP3    H229586   2.965   3.008   4.318
 9881TIP3   OH229587   4.932   5.622   4.522
 9881TIP3    H129588   4.919   5.554   4.457
 9881TIP3    H229589   4.845   5.660   4.537
 9882TIP3   OH229590   7.271   4.286   4.608
 9882TIP3    H129591   7.222   4.254   4.683
 9882TIP3    H229592   7.277   4.211   4.549
 9883TIP3   OH229593   7.856   4.723   2.613
 9883TIP3    H129594   7.839   4.672   2.534
 9883TIP3    H229595   7.813   4.674   2.683
 9884TIP3   OH229596   0.228   2.011   1.521
 9884TIP3    H129597   0.192   1.978   1.603
 9884TIP3    H229598   0.152   2.031   1.467
 9885TIP3   OH229599   1.282   2.643   2.021
 9885TIP3    H129600   1.328   2.723   1.994
 9885TIP3    H229601   1.295   2.582   1.948
 9886TIP3   OH229602   3.888   3.854   3.610
 9886TIP3    H129603   3.803   3.820   3.580
 9886TIP3    H229604   3.879   3.856   3.705
 9887TIP3   OH229605   0.881   1.575   4.318
 9887TIP3    H129606   0.801   1.591   4.269
 9887TIP3    H229607   0.887   1.480   4.324
 9888TIP3   OH229608   1.803   1.227   5.646
 9888TIP3    H129609   1.854   1.175   5.584
 9888TIP3    H229610   1.775   1.303   5.596
 9889TIP3   OH229611   0.682   5.065   4.598
 9889TIP3    H129612   0.677   5.060   4.503
 9889TIP3    H229613   0.603   5.022   4.629
 9890TIP3   OH229614   3.066   6.326   1.620
 9890TIP3    H129615   3.116   6.280   1.552
 9890TIP3    H229616   3.033   6.256   1.677
 9891TIP3   OH229617   6.330   2.947   1.983
 9891TIP3    H129618   6.389   2.925   2.055
 9891TIP3    H229619   6.332   2.870   1.926
 9892TIP3   OH229620   6.199   2.315   2.920
 9892TIP3    H129621   6.254   2.355   2.988
 9892TIP3    H229622   6.195   2.223   2.942
 9893TIP3   OH229623   5.020   5.540   1.292
 9893TIP3    H129624   4.975   5.623   1.306
 9893TIP3    H229625   5.014   5.525   1.198
 9894TIP3   OH229626   1.772   2.864   6.384
 9894TIP3    H129627   1.717   2.938   6.411
 9894TIP3    H229628   1.806   2.829   6.466
 9895TIP3   OH229629   4.167   0.265   3.138
 9895TIP3    H129630   4.084   0.289   3.180
 9895TIP3    H229631   4.208   0.203   3.198
 9896TIP3   OH229632   5.744   0.980   3.014
 9896TIP3    H129633   5.718   0.939   2.931
 9896TIP3    H229634   5.758   1.072   2.992
 9897TIP3   OH229635   0.821   2.758   4.263
 9897TIP3    H129636   0.853   2.834   4.311
 9897TIP3    H229637   0.819   2.688   4.328
 9898TIP3   OH229638   7.918   3.052   5.987
 9898TIP3    H129639   7.897   3.082   5.899
 9898TIP3    H229640   8.014   3.050   5.990
 9899TIP3   OH229641   6.449   3.291   0.168
 9899TIP3    H129642   6.361   3.280   0.205
 9899TIP3    H229643   6.435   3.302   0.074
 9900TIP3   OH229644   0.989   4.105   6.442
 9900TIP3    H129645   1.081   4.131   6.445
 9900TIP3    H229646   0.945   4.175   6.394
 9901TIP3   OH229647   6.127   6.786   2.602
 9901TIP3    H129648   6.157   6.695   2.593
 9901TIP3    H229649   6.092   6.808   2.516
 9902TIP3   OH229650   6.431   7.031   4.881
 9902TIP3    H129651   6.410   7.027   4.788
 9902TIP3    H229652   6.434   6.939   4.909
 9903TIP3   OH229653   4.954   6.488   5.232
 9903TIP3    H129654   5.018   6.559   5.230
 9903TIP3    H229655   4.890   6.516   5.298
 9904TIP3   OH229656   0.135   2.726   2.941
 9904TIP3    H129657   0.219   2.746   2.900
 9904TIP3    H229658   0.073   2.785   2.899
 9905TIP3   OH229659   6.980   6.327   4.530
 9905TIP3    H129660   7.054   6.388   4.537
 9905TIP3    H229661   7.013   6.256   4.475
 9906TIP3   OH229662   7.456   6.921   4.061
 9906TIP3    H129663   7.386   6.932   4.125
 9906TIP3    H229664   7.465   7.007   4.019
 9907TIP3   OH229665   0.616   6.327   2.878
 9907TIP3    H129666   0.582   6.410   2.912
 9907TIP3    H229667   0.641   6.346   2.788
 9908TIP3   OH229668   4.024   6.184   5.635
 9908TIP3    H129669   3.956   6.184   5.703
 9908TIP3    H229670   4.010   6.265   5.587
 9909TIP3   OH229671   1.525   1.080   1.542
 9909TIP3    H129672   1.443   1.067   1.493
 9909TIP3    H229673   1.535   1.176   1.544
 9910TIP3   OH229674   3.532   6.443   3.385
 9910TIP3    H129675   3.612   6.488   3.410
 9910TIP3    H229676   3.540   6.430   3.290
 9911TIP3   OH229677   0.565   1.280   5.470
 9911TIP3    H129678   0.616   1.270   5.550
 9911TIP3    H229679   0.562   1.191   5.433
 9912TIP3   OH229680   3.925   4.947   4.782
 9912TIP3    H129681   3.993   4.879   4.783
 9912TIP3    H229682   3.848   4.904   4.820
 9913TIP3   OH229683   0.831   1.599   1.960
 9913TIP3    H129684   0.796   1.656   2.029
 9913TIP3    H229685   0.848   1.658   1.887
 9914TIP3   OH229686   8.117   0.192   4.721
 9914TIP3    H129687   8.184   0.216   4.786
 9914TIP3    H229688   8.085   0.276   4.688
 9915TIP3   OH229689   4.114   1.296   1.056
 9915TIP3    H129690   4.114   1.293   0.961
 9915TIP3    H229691   4.085   1.385   1.078
 9916TIP3   OH229692   3.212   1.659   2.428
 9916TIP3    H129693   3.277   1.604   2.385
 9916TIP3    H229694   3.227   1.746   2.392
 9917TIP3   OH229695   4.285   2.272   1.885
 9917TIP3    H129696   4.360   2.321   1.919
 9917TIP3    H229697   4.323   2.194   1.844
 9918TIP3   OH229698   7.347   5.492   1.369
 9918TIP3    H129699   7.340   5.408   1.323
 9918TIP3    H229700   7.439   5.497   1.395
 9919TIP3   OH229701   2.394   2.555   6.116
 9919TIP3    H129702   2.418   2.469   6.152
 9919TIP3    H229703   2.471   2.582   6.065
 9920TIP3   OH229704   1.052   0.138   4.490
 9920TIP3    H129705   1.140   0.134   4.452
 9920TIP3    H229706   1.059   0.203   4.559
 9921TIP3   OH229707   2.155   2.698   6.220
 9921TIP3    H129708   2.224   2.688   6.286
 9921TIP3    H229709   2.189   2.652   6.143
 9922TIP3   OH229710   0.870   5.953   2.418
 9922TIP3    H129711   0.921   6.032   2.400
 9922TIP3    H229712   0.920   5.906   2.484
 9923TIP3   OH229713   6.887   6.253   5.468
 9923TIP3    H129714   6.898   6.250   5.563
 9923TIP3    H229715   6.894   6.345   5.445
 9924TIP3   OH229716   6.300   6.994   0.076
 9924TIP3    H129717   6.274   6.918   0.128
 9924TIP3    H229718   6.339   7.054   0.139
 9925TIP3   OH229719   1.027   2.273   5.044
 9925TIP3    H129720   1.040   2.285   4.950
 9925TIP3    H229721   0.932   2.275   5.055
 9926TIP3   OH229722   2.376   0.374   5.011
 9926TIP3    H129723   2.438   0.411   4.949
 9926TIP3    H229724   2.311   0.442   5.024
 9927TIP3   OH229725   5.091   7.636   1.509
 9927TIP3    H129726   5.074   7.643   1.416
 9927TIP3    H229727   5.177   7.677   1.521
 9928TIP3   OH229728   3.002   5.415   4.200
 9928TIP3    H129729   2.971   5.341   4.147
 9928TIP3    H229730   3.085   5.386   4.236
 9929TIP3   OH229731   5.206   2.333   2.894
 9929TIP3    H129732   5.148   2.290   2.957
 9929TIP3    H229733   5.281   2.274   2.886
 9930TIP3   OH229734   7.950   5.896   3.183
 9930TIP3    H129735   7.999   5.860   3.256
 9930TIP3    H229736   8.016   5.937   3.127
 9931TIP3   OH229737   7.295   6.375   4.830
 9931TIP3    H129738   7.320   6.465   4.851
 9931TIP3    H229739   7.216   6.360   4.882
 9932TIP3   OH229740   4.898   6.690   0.792
 9932TIP3    H129741   4.888   6.757   0.724
 9932TIP3    H229742   4.942   6.735   0.864
 9933TIP3   OH229743   6.270   2.233   1.279
 9933TIP3    H129744   6.231   2.320   1.272
 9933TIP3    H229745   6.266   2.198   1.190
 9934TIP3   OH229746   4.718   0.636   6.276
 9934TIP3    H129747   4.768   0.564   6.312
 9934TIP3    H229748   4.632   0.598   6.255
 9935TIP3   OH229749   6.019   2.389   6.670
 9935TIP3    H129750   6.075   2.346   6.734
 9935TIP3    H229751   5.933   2.349   6.682
 9936TIP3   OH229752   2.989   0.217   3.904
 9936TIP3    H129753   2.904   0.175   3.915
 9936TIP3    H229754   2.975   0.307   3.933
 9937TIP3   OH229755   4.245   0.063   4.134
 9937TIP3    H129756   4.275   0.153   4.149
 9937TIP3    H229757   4.154   0.062   4.166
 9938TIP3   OH229758   3.167   2.373   1.799
 9938TIP3    H129759   3.221   2.330   1.733
 9938TIP3    H229760   3.081   2.381   1.758
 9939TIP3   OH229761   0.168   6.333   2.524
 9939TIP3    H129762   0.230   6.343   2.596
 9939TIP3    H229763   0.186   6.407   2.466
 9940TIP3   OH229764   5.486   1.687   2.216
 9940TIP3    H129765   5.503   1.598   2.248
 9940TIP3    H229766   5.391   1.694   2.216
 9941TIP3   OH229767   7.545   6.496   1.507
 9941TIP3    H129768   7.615   6.538   1.556
 9941TIP3    H229769   7.576   6.406   1.494
 9942TIP3   OH229770   5.613   7.421   2.155
 9942TIP3    H129771   5.658   7.461   2.230
 9942TIP3    H229772   5.523   7.452   2.163
 9943TIP3   OH229773   8.295   7.301   1.552
 9943TIP3    H129774   8.203   7.307   1.575
 9943TIP3    H229775   8.340   7.291   1.636
 9944TIP3   OH229776   1.473   1.888   6.673
 9944TIP3    H129777   1.495   1.950   6.743
 9944TIP3    H229778   1.547   1.827   6.670
 9945TIP3   OH229779   1.714   0.481   4.469
 9945TIP3    H129780   1.784   0.488   4.533
 9945TIP3    H229781   1.759   0.478   4.384
 9946TIP3   OH229782   6.252   1.838   2.803
 9946TIP3    H129783   6.305   1.910   2.768
 9946TIP3    H229784   6.178   1.881   2.845
 9947TIP3   OH229785   6.359   1.573   0.337
 9947TIP3    H129786   6.285   1.557   0.396
 9947TIP3    H229787   6.371   1.668   0.338
 9948TIP3   OH229788   5.842   0.049   6.307
 9948TIP3    H129789   5.748   0.051   6.328
 9948TIP3    H229790   5.848  -0.010   6.233
 9949TIP3   OH229791   0.655   5.316   3.638
 9949TIP3    H129792   0.604   5.339   3.716
 9949TIP3    H229793   0.684   5.400   3.602
 9950TIP3   OH229794   7.357   3.510   2.361
 9950TIP3    H129795   7.315   3.434   2.320
 9950TIP3    H229796   7.438   3.522   2.311
 9951TIP3   OH229797   3.553   6.467   0.373
 9951TIP3    H129798   3.549   6.562   0.366
 9951TIP3    H229799   3.623   6.442   0.312
 9952TIP3   OH229800   4.847   2.722   4.099
 9952TIP3    H129801   4.770   2.762   4.139
 9952TIP3    H229802   4.830   2.628   4.103
 9953TIP3   OH229803   1.588   4.390   0.778
 9953TIP3    H129804   1.663   4.449   0.772
 9953TIP3    H229805   1.623   4.308   0.812
 9954TIP3   OH229806   6.930   3.085   0.507
 9954TIP3    H129807   6.942   3.105   0.600
 9954TIP3    H229808   6.902   3.168   0.468
 9955TIP3   OH229809   7.171   5.289  -0.009
 9955TIP3    H129810   7.218   5.239   0.058
 9955TIP3    H229811   7.240   5.321  -0.067
 9956TIP3   OH229812   7.594   3.949   4.053
 9956TIP3    H129813   7.571   4.030   4.097
 9956TIP3    H229814   7.545   3.952   3.971
 9957TIP3   OH229815   8.084   6.817   6.244
 9957TIP3    H129816   8.031   6.871   6.303
 9957TIP3    H229817   8.174   6.835   6.270
 9958TIP3   OH229818   6.937   2.470   5.782
 9958TIP3    H129819   6.906   2.501   5.867
 9958TIP3    H229820   6.984   2.545   5.745
 9959TIP3   OH229821   0.433   1.506   4.149
 9959TIP3    H129822   0.455   1.414   4.160
 9959TIP3    H229823   0.421   1.517   4.055
 9960TIP3   OH229824   5.454   4.975   4.337
 9960TIP3    H129825   5.479   4.993   4.246
 9960TIP3    H229826   5.405   5.053   4.364
 9961TIP3   OH229827   8.068   1.045   6.377
 9961TIP3    H129828   8.024   1.071   6.296
 9961TIP3    H229829   8.008   1.074   6.446
 9962TIP3   OH229830   6.299   2.708   1.478
 9962TIP3    H129831   6.393   2.688   1.473
 9962TIP3    H229832   6.270   2.663   1.557
 9963TIP3   OH229833   3.560   2.793   5.820
 9963TIP3    H129834   3.473   2.804   5.781
 9963TIP3    H229835   3.593   2.712   5.781
 9964TIP3   OH229836   5.412   2.218   1.858
 9964TIP3    H129837   5.414   2.312   1.876
 9964TIP3    H229838   5.367   2.211   1.774
 9965TIP3   OH229839   5.505   1.031   4.732
 9965TIP3    H129840   5.478   0.965   4.796
 9965TIP3    H229841   5.452   1.108   4.754
 9966TIP3   OH229842   4.864   4.592   1.774
 9966TIP3    H129843   4.878   4.603   1.680
 9966TIP3    H229844   4.909   4.510   1.796
 9967TIP3   OH229845   7.160   3.414   5.183
 9967TIP3    H129846   7.109   3.338   5.213
 9967TIP3    H229847   7.245   3.404   5.226
 9968TIP3   OH229848   8.082   7.592   2.474
 9968TIP3    H129849   8.020   7.618   2.542
 9968TIP3    H229850   8.088   7.668   2.416
 9969TIP3   OH229851   5.348   7.560   4.755
 9969TIP3    H129852   5.440   7.577   4.735
 9969TIP3    H229853   5.300   7.593   4.679
 9970TIP3   OH229854   2.029   1.036   3.319
 9970TIP3    H129855   2.109   0.983   3.312
 9970TIP3    H229856   2.060   1.126   3.324
 9971TIP3   OH229857   3.244   1.522   3.082
 9971TIP3    H129858   3.221   1.446   3.135
 9971TIP3    H229859   3.277   1.485   3.000
 9972TIP3   OH229860   7.649   3.755   1.657
 9972TIP3    H129861   7.724   3.763   1.598
 9972TIP3    H229862   7.574   3.741   1.600
 9973TIP3   OH229863   0.050   2.349   2.561
 9973TIP3    H129864   0.138   2.333   2.528
 9973TIP3    H229865   0.064   2.406   2.637
 9974TIP3   OH229866   0.501   0.569   4.560
 9974TIP3    H129867   0.464   0.568   4.471
 9974TIP3    H229868   0.590   0.602   4.548
 9975TIP3   OH229869   0.142   7.649   6.205
 9975TIP3    H129870   0.208   7.629   6.139
 9975TIP3    H229871   0.119   7.741   6.189
 9976TIP3   OH229872   0.153   5.475   2.850
 9976TIP3    H129873   0.206   5.460   2.929
 9976TIP3    H229874   0.132   5.388   2.818
 9977TIP3   OH229875   2.506   3.520   1.872
 9977TIP3    H129876   2.579   3.534   1.931
 9977TIP3    H229877   2.429   3.521   1.929
 9978TIP3   OH229878   7.918   4.400   0.042
 9978TIP3    H129879   7.945   4.491   0.054
 9978TIP3    H229880   7.824   4.400   0.061
 9979TIP3   OH229881   0.494   6.057   3.439
 9979TIP3    H129882   0.515   6.014   3.522
 9979TIP3    H229883   0.458   5.988   3.384
 9980TIP3   OH229884   0.632   6.177   4.767
 9980TIP3    H129885   0.570   6.108   4.794
 9980TIP3    H229886   0.649   6.227   4.847
 9981TIP3   OH229887   2.814   0.343   5.762
 9981TIP3    H129888   2.842   0.349   5.853
 9981TIP3    H229889   2.814   0.433   5.730
 9982TIP3   OH229890   3.856   1.971   2.720
 9982TIP3    H129891   3.768   2.008   2.728
 9982TIP3    H229892   3.842   1.876   2.721
 9983TIP3   OH229893   7.566   2.787   4.051
 9983TIP3    H129894   7.600   2.710   4.005
 9983TIP3    H229895   7.643   2.829   4.088
 9984TIP3   OH229896   1.553   7.714   4.551
 9984TIP3    H129897   1.591   7.770   4.483
 9984TIP3    H229898   1.459   7.728   4.542
 9985TIP3   OH229899   6.031   3.189   6.665
 9985TIP3    H129900   5.978   3.258   6.627
 9985TIP3    H229901   5.968   3.122   6.693
 9986TIP3   OH229902   4.188   3.305   6.289
 9986TIP3    H129903   4.158   3.396   6.287
 9986TIP3    H229904   4.281   3.311   6.309
 9987TIP3   OH229905   3.656   3.149   1.329
 9987TIP3    H129906   3.593   3.098   1.381
 9987TIP3    H229907   3.603   3.213   1.283
 9988TIP3   OH229908   2.740   4.049   0.268
 9988TIP3    H129909   2.798   3.973   0.257
 9988TIP3    H229910   2.788   4.108   0.326
 9989TIP3   OH229911   5.781   2.356   2.396
 9989TIP3    H129912   5.873   2.383   2.385
 9989TIP3    H229913   5.785   2.261   2.401
 9990TIP3   OH229914   2.453   7.720   3.965
 9990TIP3    H129915   2.383   7.655   3.960
 9990TIP3    H229916   2.466   7.733   4.059
 9991TIP3   OH229917   7.444   7.599   0.126
 9991TIP3    H129918   7.350   7.584   0.133
 9991TIP3    H229919   7.483   7.512   0.127
 9992TIP3   OH229920   5.020   7.045   6.218
 9992TIP3    H129921   5.109   7.075   6.234
 9992TIP3    H229922   5.007   6.973   6.280
 9993TIP3   OH229923   7.009   3.146   6.419
 9993TIP3    H129924   6.939   3.085   6.444
 9993TIP3    H229925   7.085   3.089   6.405
 9994TIP3   OH229926   4.867   3.733   2.769
 9994TIP3    H129927   4.845   3.651   2.814
 9994TIP3    H229928   4.891   3.706   2.681
 9995TIP3   OH229929   2.968   3.790   6.239
 9995TIP3    H129930   3.025   3.838   6.180
 9995TIP3    H229931   3.025   3.725   6.280
 9996TIP3   OH229932   1.899   2.661   5.007
 9996TIP3    H129933   1.894   2.681   5.100
 9996TIP3    H229934   1.826   2.710   4.968
 9997TIP3   OH229935   5.995   4.412   2.511
 9997TIP3    H129936   6.047   4.435   2.434
 9997TIP3    H229937   5.907   4.396   2.476
 9998TIP3   OH229938   7.617   0.667   2.520
 9998TIP3    H129939   7.673   0.590   2.530
 9998TIP3    H229940   7.667   0.724   2.462
 9999TIP3   OH229941   4.722   5.395   6.070
 9999TIP3    H129942   4.789   5.441   6.120
 9999TIP3    H229943   4.681   5.463   6.016
10000TIP3   OH229944   5.852   4.287   0.191
10000TIP3    H129945   5.876   4.294   0.284
10000TIP3    H229946   5.929   4.319   0.144
10001TIP3   OH229947   3.269   0.065   1.707
10001TIP3    H129948   3.239   0.150   1.674
10001TIP3    H229949   3.188   0.020   1.734
10002TIP3   OH229950   1.816   2.544   6.517
10002TIP3    H129951   1.864   2.624   6.542
10002TIP3    H229952   1.808   2.551   6.422
10003TIP3   OH229953   4.502   0.795   3.367
10003TIP3    H129954   4.457   0.712   3.352
10003TIP3    H229955   4.553   0.810   3.287
10004TIP3   OH229956   7.468   7.419   4.149
10004TIP3    H129957   7.472   7.499   4.202
10004TIP3    H229958   7.440   7.351   4.211
10005TIP3   OH229959   5.916   1.194   1.362
10005TIP3    H129960   5.869   1.222   1.440
10005TIP3    H229961   5.853   1.203   1.291
10006TIP3   OH229962   2.551   3.929   5.630
10006TIP3    H129963   2.559   3.907   5.538
10006TIP3    H229964   2.470   3.887   5.659
10007TIP3   OH229965   1.900   0.828   0.549
10007TIP3    H129966   1.864   0.771   0.482
10007TIP3    H229967   1.986   0.853   0.515
10008TIP3   OH229968   5.163   5.861   2.220
10008TIP3    H129969   5.124   5.839   2.136
10008TIP3    H229970   5.091   5.900   2.270
10009TIP3   OH229971   5.098   3.186   4.618
10009TIP3    H129972   5.146   3.131   4.680
10009TIP3    H229973   5.138   3.168   4.533
10010TIP3   OH229974   7.468   4.191   0.598
10010TIP3    H129975   7.508   4.135   0.532
10010TIP3    H229976   7.461   4.136   0.676
10011TIP3   OH229977   1.196   4.878   6.541
10011TIP3    H129978   1.258   4.935   6.497
10011TIP3    H229979   1.132   4.855   6.474
10012TIP3   OH229980   5.087   4.507   0.388
10012TIP3    H129981   5.166   4.468   0.425
10012TIP3    H229982   5.111   4.531   0.299
10013TIP3   OH229983   0.773   6.646   1.362
10013TIP3    H129984   0.715   6.687   1.298
10013TIP3    H229985   0.859   6.644   1.319
10014TIP3   OH229986   2.869   7.274   5.465
10014TIP3    H129987   2.856   7.179   5.469
10014TIP3    H229988   2.960   7.287   5.491
10015TIP3   OH229989   2.001   3.307   3.908
10015TIP3    H129990   2.079   3.362   3.895
10015TIP3    H229991   2.035   3.228   3.950
10016TIP3   OH229992   8.121   4.115   2.941
10016TIP3    H129993   8.045   4.084   2.893
10016TIP3    H229994   8.180   4.040   2.945
10017TIP3   OH229995   7.640   5.106   2.793
10017TIP3    H129996   7.705   5.113   2.723
10017TIP3    H229997   7.659   5.022   2.835
10018TIP3   OH229998   6.740   4.478   5.422
10018TIP3    H129999   6.742   4.384   5.438
10018TIP3    H230000   6.689   4.488   5.341
10019TIP3   OH230001   0.257   6.557   4.380
10019TIP3    H130002   0.215   6.476   4.352
10019TIP3    H230003   0.235   6.563   4.473
10020TIP3   OH230004   7.657   3.379   3.513
10020TIP3    H130005   7.563   3.394   3.524
10020TIP3    H230006   7.697   3.427   3.585
10021TIP3   OH230007   6.284   6.894   1.078
10021TIP3    H130008   6.359   6.939   1.117
10021TIP3    H230009   6.259   6.949   1.004
10022TIP3   OH230010   4.280   4.932   0.456
10022TIP3    H130011   4.298   4.855   0.510
10022TIP3    H230012   4.198   4.967   0.491
10023TIP3   OH230013   0.078   5.769   4.637
10023TIP3    H130014  -0.003   5.718   4.645
10023TIP3    H230015   0.101   5.763   4.544
10024TIP3   OH230016   0.238   2.269   5.075
10024TIP3    H130017   0.321   2.305   5.107
10024TIP3    H230018   0.174   2.291   5.144
10025TIP3   OH230019   4.378   0.975   2.914
10025TIP3    H130020   4.282   0.984   2.918
10025TIP3    H230021   4.405   1.044   2.854
10026TIP3   OH230022   1.718   4.618   2.874
10026TIP3    H130023   1.802   4.660   2.895
10026TIP3    H230024   1.675   4.606   2.959
10027TIP3   OH230025   7.577   3.272   2.312
10027TIP3    H130026   7.481   3.274   2.310
10027TIP3    H230027   7.603   3.357   2.276
10028TIP3   OH230028   1.453   0.111   6.355
10028TIP3    H130029   1.425   0.177   6.418
10028TIP3    H230030   1.372   0.074   6.320
10029TIP3   OH230031   4.356   1.094   6.274
10029TIP3    H130032   4.371   1.174   6.325
10029TIP3    H230033   4.328   1.125   6.188
10030TIP3   OH230034   8.173   6.928   2.405
10030TIP3    H130035   8.242   6.989   2.377
10030TIP3    H230036   8.220   6.852   2.439
10031TIP3   OH230037   2.133   6.673   6.752
10031TIP3    H130038   2.089   6.629   6.679
10031TIP3    H230039   2.186   6.741   6.711
10032TIP3   OH230040   3.269   6.914   5.417
10032TIP3    H130041   3.250   6.898   5.510
10032TIP3    H230042   3.213   6.852   5.370
10033TIP3   OH230043   0.443   7.246   3.952
10033TIP3    H130044   0.360   7.240   3.999
10033TIP3    H230045   0.509   7.227   4.019
10034TIP3   OH230046   3.175   5.554   0.830
10034TIP3    H130047   3.202   5.646   0.830
10034TIP3    H230048   3.252   5.506   0.798
10035TIP3   OH230049   5.304   0.261   6.015
10035TIP3    H130050   5.393   0.227   6.013
10035TIP3    H230051   5.284   0.272   6.108
10036TIP3   OH230052   3.942   4.572   1.347
10036TIP3    H130053   3.987   4.606   1.424
10036TIP3    H230054   3.961   4.478   1.349
10037TIP3   OH230055   0.918   2.324   1.301
10037TIP3    H130056   0.946   2.320   1.393
10037TIP3    H230057   0.969   2.256   1.257
10038TIP3   OH230058   7.670   6.291   3.944
10038TIP3    H130059   7.651   6.312   4.036
10038TIP3    H230060   7.646   6.198   3.936
10039TIP3   OH230061   0.305   6.752   3.784
10039TIP3    H130062   0.345   6.746   3.698
10039TIP3    H230063   0.342   6.832   3.823
10040TIP3   OH230064   0.283   5.164   0.328
10040TIP3    H130065   0.187   5.164   0.320
10040TIP3    H230066   0.314   5.183   0.239
10041TIP3   OH230067   2.256   5.196   0.638
10041TIP3    H130068   2.206   5.278   0.637
10041TIP3    H230069   2.257   5.170   0.730
10042TIP3   OH230070   4.223   1.412   4.269
10042TIP3    H130071   4.267   1.415   4.353
10042TIP3    H230072   4.275   1.352   4.216
10043TIP3   OH230073   8.082   4.932   5.077
10043TIP3    H130074   7.992   4.933   5.044
10043TIP3    H230075   8.133   4.897   5.005
10044TIP3   OH230076   5.836   7.472   2.657
10044TIP3    H130077   5.782   7.436   2.728
10044TIP3    H230078   5.898   7.529   2.702
10045TIP3   OH230079   7.510   6.757   2.780
10045TIP3    H130080   7.537   6.700   2.851
10045TIP3    H230081   7.587   6.765   2.724
10046TIP3   OH230082   3.587   4.920   6.236
10046TIP3    H130083   3.679   4.902   6.251
10046TIP3    H230084   3.551   4.938   6.323
10047TIP3   OH230085   3.232   0.211   2.800
10047TIP3    H130086   3.209   0.247   2.714
10047TIP3    H230087   3.241   0.287   2.857
10048TIP3   OH230088   2.811   7.520   3.605
10048TIP3    H130089   2.762   7.579   3.662
10048TIP3    H230090   2.755   7.442   3.599
10049TIP3   OH230091   3.943   2.298   0.201
10049TIP3    H130092   3.987   2.214   0.212
10049TIP3    H230093   3.969   2.350   0.277
10050TIP3   OH230094   0.734   0.434   5.936
10050TIP3    H130095   0.690   0.519   5.938
10050TIP3    H230096   0.780   0.429   6.020
10051TIP3   OH230097   6.042   1.078   4.603
10051TIP3    H130098   5.955   1.067   4.642
10051TIP3    H230099   6.078   1.154   4.647
10052TIP3   OH230100   3.568   1.083   2.418
10052TIP3    H130101   3.617   1.062   2.338
10052TIP3    H230102   3.539   1.173   2.405
10053TIP3   OH230103   6.553   6.907   4.601
10053TIP3    H130104   6.485   6.859   4.647
10053TIP3    H230105   6.506   6.957   4.534
10054TIP3   OH230106   5.406   6.883   1.677
10054TIP3    H130107   5.488   6.932   1.670
10054TIP3    H230108   5.433   6.792   1.684
10055TIP3   OH230109   0.375   0.446   2.582
10055TIP3    H130110   0.386   0.532   2.540
10055TIP3    H230111   0.318   0.398   2.523
10056TIP3   OH230112   2.742   0.374   3.265
10056TIP3    H130113   2.820   0.426   3.243
10056TIP3    H230114   2.670   0.421   3.224
10057TIP3   OH230115   3.315   5.917   6.117
10057TIP3    H130116   3.306   5.822   6.121
10057TIP3    H230117   3.312   5.945   6.208
10058TIP3   OH230118   5.641   4.968   2.923
10058TIP3    H130119   5.576   5.034   2.950
10058TIP3    H230120   5.725   5.005   2.951
10059TIP3   OH230121  -0.002   0.388   2.185
10059TIP3    H130122   0.091   0.378   2.163
10059TIP3    H230123  -0.048   0.342   2.115
10060TIP3   OH230124   8.219   3.609   1.109
10060TIP3    H130125   8.240   3.587   1.019
10060TIP3    H230126   8.303   3.630   1.150
10061TIP3   OH230127   7.929   2.467   4.312
10061TIP3    H130128   7.937   2.497   4.221
10061TIP3    H230129   8.019   2.454   4.341
10062TIP3   OH230130   7.397   5.019   0.520
10062TIP3    H130131   7.460   4.961   0.477
10062TIP3    H230132   7.340   4.960   0.569
10063TIP3   OH230133   7.621   5.076   4.165
10063TIP3    H130134   7.549   5.025   4.203
10063TIP3    H230135   7.700   5.042   4.208
10064TIP3   OH230136   6.249   5.415   1.065
10064TIP3    H130137   6.333   5.454   1.092
10064TIP3    H230138   6.196   5.414   1.145
10065TIP3   OH230139   3.792   5.784   2.973
10065TIP3    H130140   3.748   5.838   3.038
10065TIP3    H230141   3.784   5.834   2.891
10066TIP3   OH230142   3.008   1.745   2.627
10066TIP3    H130143   3.072   1.705   2.569
10066TIP3    H230144   3.056   1.762   2.708
10067TIP3   OH230145   0.007   2.328   6.089
10067TIP3    H130146   0.005   2.374   6.172
10067TIP3    H230147  -0.032   2.389   6.026
10068TIP3   OH230148   8.087   4.673   4.331
10068TIP3    H130149   8.073   4.764   4.355
10068TIP3    H230150   8.180   4.667   4.312
10069TIP3   OH230151   6.011   7.053   4.700
10069TIP3    H130152   6.036   7.005   4.779
10069TIP3    H230153   5.932   7.101   4.724
10070TIP3   OH230154   1.415   1.303   4.291
10070TIP3    H130155   1.416   1.396   4.270
10070TIP3    H230156   1.462   1.296   4.373
10071TIP3   OH230157   0.260   3.381   3.967
10071TIP3    H130158   0.238   3.321   3.896
10071TIP3    H230159   0.301   3.456   3.923
10072TIP3   OH230160   5.402   5.236   5.428
10072TIP3    H130161   5.449   5.202   5.352
10072TIP3    H230162   5.328   5.176   5.439
10073TIP3   OH230163   1.999   2.285   0.958
10073TIP3    H130164   1.969   2.195   0.973
10073TIP3    H230165   1.961   2.335   1.031
10074TIP3   OH230166   1.879   3.873   5.341
10074TIP3    H130167   1.950   3.875   5.405
10074TIP3    H230168   1.890   3.791   5.294
10075TIP3   OH230169   7.097   5.845   3.462
10075TIP3    H130170   7.144   5.876   3.539
10075TIP3    H230171   7.162   5.849   3.391
10076TIP3   OH230172   0.977   0.910   1.460
10076TIP3    H130173   0.905   0.969   1.483
10076TIP3    H230174   0.948   0.824   1.489
10077TIP3   OH230175   0.200   3.390   2.786
10077TIP3    H130176   0.266   3.428   2.844
10077TIP3    H230177   0.117   3.420   2.821
10078TIP3   OH230178   0.867   7.344   1.245
10078TIP3    H130179   0.889   7.281   1.176
10078TIP3    H230180   0.859   7.291   1.324
10079TIP3   OH230181   6.026   1.720   5.087
10079TIP3    H130182   5.983   1.641   5.053
10079TIP3    H230183   5.983   1.792   5.042
10080TIP3   OH230184   1.928   7.441   5.202
10080TIP3    H130185   1.949   7.534   5.214
10080TIP3    H230186   1.863   7.422   5.270
10081TIP3   OH230187   4.235   4.110   3.016
10081TIP3    H130188   4.315   4.065   2.987
10081TIP3    H230189   4.200   4.151   2.938
10082TIP3   OH230190   6.738   0.914   1.614
10082TIP3    H130191   6.694   0.896   1.698
10082TIP3    H230192   6.772   1.003   1.624
10083TIP3   OH230193   7.259   7.413   6.759
10083TIP3    H130194   7.165   7.423   6.772
10083TIP3    H230195   7.267   7.350   6.687
10084TIP3   OH230196   4.276   5.603   2.262
10084TIP3    H130197   4.263   5.542   2.334
10084TIP3    H230198   4.239   5.558   2.186
10085TIP3   OH230199   3.844   0.281   5.597
10085TIP3    H130200   3.804   0.364   5.622
10085TIP3    H230201   3.781   0.214   5.624
10086TIP3   OH230202   3.713   1.160   5.624
10086TIP3    H130203   3.633   1.211   5.620
10086TIP3    H230204   3.700   1.099   5.697
10087TIP3   OH230205   3.435   2.127   3.444
10087TIP3    H130206   3.406   2.076   3.368
10087TIP3    H230207   3.383   2.207   3.440
10088TIP3   OH230208   7.876   1.706   6.570
10088TIP3    H130209   7.933   1.663   6.506
10088TIP3    H230210   7.933   1.728   6.643
10089TIP3   OH230211   5.657   6.531   4.312
10089TIP3    H130212   5.587   6.567   4.257
10089TIP3    H230213   5.716   6.488   4.250
10090TIP3   OH230214   1.287   0.257   3.455
10090TIP3    H130215   1.261   0.170   3.485
10090TIP3    H230216   1.329   0.297   3.531
10091TIP3   OH230217   0.461   0.254   2.308
10091TIP3    H130218   0.488   0.229   2.396
10091TIP3    H230219   0.491   0.182   2.252
10092TIP3   OH230220   3.843   3.373   2.604
10092TIP3    H130221   3.878   3.460   2.587
10092TIP3    H230222   3.803   3.380   2.691
10093TIP3   OH230223   2.876   3.066   5.227
10093TIP3    H130224   2.928   3.123   5.283
10093TIP3    H230225   2.790   3.062   5.268
10094TIP3   OH230226   6.887   6.197   2.624
10094TIP3    H130227   6.795   6.216   2.641
10094TIP3    H230228   6.906   6.119   2.676
10095TIP3   OH230229   2.010   4.278   1.734
10095TIP3    H130230   1.987   4.369   1.716
10095TIP3    H230231   1.975   4.261   1.821
10096TIP3   OH230232   0.651   5.505   6.227
10096TIP3    H130233   0.632   5.596   6.249
10096TIP3    H230234   0.574   5.474   6.179
10097TIP3   OH230235   8.069   1.181   3.507
10097TIP3    H130236   8.148   1.139   3.540
10097TIP3    H230237   8.100   1.246   3.444
10098TIP3   OH230238   1.180   0.687   6.119
10098TIP3    H130239   1.143   0.602   6.097
10098TIP3    H230240   1.269   0.684   6.084
10099TIP3   OH230241   8.159   0.801   1.387
10099TIP3    H130242   8.146   0.849   1.468
10099TIP3    H230243   8.192   0.866   1.325
10100TIP3   OH230244   0.762   4.949   5.694
10100TIP3    H130245   0.808   5.032   5.699
10100TIP3    H230246   0.678   4.965   5.736
10101TIP3   OH230247   4.911   5.022   1.315
10101TIP3    H130248   4.990   4.968   1.308
10101TIP3    H230249   4.944   5.112   1.306
10102TIP3   OH230250   2.327   7.534   3.817
10102TIP3    H130251   2.235   7.515   3.833
10102TIP3    H230252   2.331   7.558   3.725
10103TIP3   OH230253   7.503   4.508   3.821
10103TIP3    H130254   7.561   4.513   3.745
10103TIP3    H230255   7.471   4.418   3.821
10104TIP3   OH230256   4.522   5.656   3.678
10104TIP3    H130257   4.585   5.711   3.631
10104TIP3    H230258   4.450   5.715   3.701
10105TIP3   OH230259   4.220   7.727   2.279
10105TIP3    H130260   4.302   7.762   2.313
10105TIP3    H230261   4.177   7.688   2.355
10106TIP3   OH230262   0.735   5.686   0.282
10106TIP3    H130263   0.750   5.650   0.195
10106TIP3    H230264   0.816   5.733   0.302
10107TIP3   OH230265   2.369   6.402   0.556
10107TIP3    H130266   2.285   6.446   0.547
10107TIP3    H230267   2.388   6.404   0.650
10108TIP3   OH230268   5.732   5.358   3.937
10108TIP3    H130269   5.689   5.274   3.922
10108TIP3    H230270   5.825   5.337   3.943
10109TIP3   OH230271   2.322   4.627   5.505
10109TIP3    H130272   2.245   4.672   5.538
10109TIP3    H230273   2.288   4.547   5.464
10110TIP3   OH230274   2.144   6.966   0.665
10110TIP3    H130275   2.146   7.034   0.732
10110TIP3    H230276   2.200   7.000   0.595
10111TIP3   OH230277   7.457   0.117   1.925
10111TIP3    H130278   7.550   0.139   1.928
10111TIP3    H230279   7.417   0.173   1.992
10112TIP3   OH230280   6.887   4.917   5.496
10112TIP3    H130281   6.888   5.007   5.463
10112TIP3    H230282   6.978   4.887   5.485
10113TIP3   OH230283   0.786   1.121   6.214
10113TIP3    H130284   0.825   1.169   6.140
10113TIP3    H230285   0.815   1.031   6.202
10114TIP3   OH230286   0.554   4.995   5.355
10114TIP3    H130287   0.545   4.924   5.418
10114TIP3    H230288   0.530   5.074   5.404
10115TIP3   OH230289   6.214   4.917   5.522
10115TIP3    H130290   6.194   4.942   5.612
10115TIP3    H230291   6.128   4.915   5.479
10116TIP3   OH230292   4.234   5.746   2.928
10116TIP3    H130293   4.169   5.678   2.945
10116TIP3    H230294   4.232   5.758   2.833
10117TIP3   OH230295   0.841   0.661   2.353
10117TIP3    H130296   0.815   0.746   2.319
10117TIP3    H230297   0.795   0.654   2.437
10118TIP3   OH230298   2.464   6.536   3.765
10118TIP3    H130299   2.391   6.474   3.773
10118TIP3    H230300   2.487   6.559   3.855
10119TIP3   OH230301   5.769   3.644   0.029
10119TIP3    H130302   5.673   3.643   0.020
10119TIP3    H230303   5.794   3.552   0.019
10120TIP3   OH230304   0.562   7.328   6.406
10120TIP3    H130305   0.568   7.313   6.312
10120TIP3    H230306   0.472   7.355   6.421
10121TIP3   OH230307   5.470   5.535   1.458
10121TIP3    H130308   5.510   5.494   1.534
10121TIP3    H230309   5.528   5.610   1.438
10122TIP3   OH230310   6.758   7.746   0.252
10122TIP3    H130311   6.703   7.737   0.174
10122TIP3    H230312   6.844   7.714   0.223
10123TIP3   OH230313   3.864   4.879   0.075
10123TIP3    H130314   3.811   4.952   0.043
10123TIP3    H230315   3.945   4.920   0.106
10124TIP3   OH230316   4.511   0.109   1.364
10124TIP3    H130317   4.589   0.089   1.313
10124TIP3    H230318   4.523   0.063   1.447
10125TIP3   OH230319   0.616   4.168   2.056
10125TIP3    H130320   0.694   4.115   2.072
10125TIP3    H230321   0.615   4.181   1.961
10126TIP3   OH230322   2.462   7.324   1.931
10126TIP3    H130323   2.480   7.233   1.909
10126TIP3    H230324   2.370   7.326   1.956
10127TIP3   OH230325   4.219   7.628   4.596
10127TIP3    H130326   4.150   7.589   4.650
10127TIP3    H230327   4.183   7.712   4.568
10128TIP3   OH230328   5.464   1.042   3.218
10128TIP3    H130329   5.484   1.129   3.254
10128TIP3    H230330   5.548   0.999   3.209
10129TIP3   OH230331   6.462   6.215   1.948
10129TIP3    H130332   6.464   6.158   2.025
10129TIP3    H230333   6.377   6.258   1.951
10130TIP3   OH230334   3.184   3.588   5.191
10130TIP3    H130335   3.203   3.506   5.238
10130TIP3    H230336   3.270   3.617   5.161
10131TIP3   OH230337   6.550   7.192   3.861
10131TIP3    H130338   6.588   7.238   3.785
10131TIP3    H230339   6.621   7.138   3.894
10132TIP3   OH230340   4.047   2.986   1.078
10132TIP3    H130341   3.961   3.028   1.090
10132TIP3    H230342   4.108   3.045   1.123
10133TIP3   OH230343   0.860   4.676   4.434
10133TIP3    H130344   0.817   4.643   4.355
10133TIP3    H230345   0.790   4.680   4.499
10134TIP3   OH230346   2.761   0.973   1.715
10134TIP3    H130347   2.670   0.943   1.704
10134TIP3    H230348   2.813   0.894   1.702
10135TIP3   OH230349   3.762   1.561   0.690
10135TIP3    H130350   3.713   1.484   0.658
10135TIP3    H230351   3.702   1.634   0.677
10136TIP3   OH230352   5.120   7.686   0.068
10136TIP3    H130353   5.056   7.632   0.115
10136TIP3    H230354   5.205   7.651   0.096
10137TIP3   OH230355   0.801   0.431   1.208
10137TIP3    H130356   0.873   0.446   1.146
10137TIP3    H230357   0.778   0.519   1.238
10138TIP3   OH230358   3.224   1.614   2.018
10138TIP3    H130359   3.197   1.639   1.930
10138TIP3    H230360   3.175   1.672   2.076
10139TIP3   OH230361   2.874   0.868   5.175
10139TIP3    H130362   2.841   0.817   5.249
10139TIP3    H230363   2.956   0.906   5.207
10140TIP3   OH230364   6.835   6.434   6.459
10140TIP3    H130365   6.831   6.422   6.554
10140TIP3    H230366   6.747   6.460   6.434
10141TIP3   OH230367   2.081   7.054   1.171
10141TIP3    H130368   2.022   7.110   1.122
10141TIP3    H230369   2.065   6.966   1.136
10142TIP3   OH230370   3.832   7.043   0.797
10142TIP3    H130371   3.772   7.053   0.871
10142TIP3    H230372   3.918   7.028   0.837
10143TIP3   OH230373   1.753   6.172   6.488
10143TIP3    H130374   1.827   6.153   6.430
10143TIP3    H230375   1.709   6.087   6.499
10144TIP3   OH230376   4.069   6.172   0.558
10144TIP3    H130377   4.087   6.256   0.516
10144TIP3    H230378   4.103   6.182   0.647
10145TIP3   OH230379   4.033   0.798   4.838
10145TIP3    H130380   3.947   0.800   4.796
10145TIP3    H230381   4.059   0.890   4.845
10146TIP3   OH230382   6.105   6.418   4.422
10146TIP3    H130383   6.141   6.333   4.445
10146TIP3    H230384   6.170   6.458   4.364
10147TIP3   OH230385   0.966   2.422   5.918
10147TIP3    H130386   1.035   2.358   5.904
10147TIP3    H230387   1.011   2.506   5.926
10148TIP3   OH230388   2.498   5.164   1.131
10148TIP3    H130389   2.488   5.236   1.194
10148TIP3    H230390   2.439   5.096   1.164
10149TIP3   OH230391   1.243   5.134   2.222
10149TIP3    H130392   1.223   5.193   2.295
10149TIP3    H230393   1.336   5.151   2.202
10150TIP3   OH230394   0.597   4.132   1.752
10150TIP3    H130395   0.548   4.051   1.766
10150TIP3    H230396   0.531   4.201   1.762
10151TIP3   OH230397   0.989   3.724   4.150
10151TIP3    H130398   0.991   3.646   4.206
10151TIP3    H230399   0.934   3.786   4.198
10152TIP3   OH230400   6.976   4.824   3.575
10152TIP3    H130401   6.966   4.748   3.518
10152TIP3    H230402   6.995   4.896   3.515
10153TIP3   OH230403   0.681   4.313   6.150
10153TIP3    H130404   0.691   4.224   6.116
10153TIP3    H230405   0.666   4.367   6.072
10154TIP3   OH230406   4.410   1.285   6.450
10154TIP3    H130407   4.350   1.285   6.524
10154TIP3    H230408   4.485   1.337   6.479
10155TIP3   OH230409   5.242   2.144   6.297
10155TIP3    H130410   5.302   2.070   6.294
10155TIP3    H230411   5.165   2.114   6.249
10156TIP3   OH230412   3.551   5.438   2.559
10156TIP3    H130413   3.502   5.474   2.486
10156TIP3    H230414   3.484   5.401   2.617
10157TIP3   OH230415   5.014   1.644   1.539
10157TIP3    H130416   5.097   1.675   1.576
10157TIP3    H230417   4.993   1.708   1.470
10158TIP3   OH230418   8.167   2.845   6.681
10158TIP3    H130419   8.236   2.851   6.615
10158TIP3    H230420   8.208   2.798   6.754
10159TIP3   OH230421   7.715   1.757   1.375
10159TIP3    H130422   7.746   1.742   1.286
10159TIP3    H230423   7.649   1.688   1.388
10160TIP3   OH230424   5.036   1.525   6.181
10160TIP3    H130425   4.972   1.481   6.125
10160TIP3    H230426   5.075   1.591   6.124
10161TIP3   OH230427   1.332   3.038   6.429
10161TIP3    H130428   1.308   3.052   6.521
10161TIP3    H230429   1.248   3.036   6.383
10162TIP3   OH230430   3.845   7.098   1.695
10162TIP3    H130431   3.936   7.079   1.718
10162TIP3    H230432   3.795   7.024   1.730
10163TIP3   OH230433   6.812   0.307   3.224
10163TIP3    H130434   6.835   0.216   3.241
10163TIP3    H230435   6.760   0.334   3.300
10164TIP3   OH230436   7.660   4.513   2.108
10164TIP3    H130437   7.744   4.556   2.124
10164TIP3    H230438   7.639   4.532   2.017
10165TIP3   OH230439   7.930   4.722   4.118
10165TIP3    H130440   7.853   4.666   4.110
10165TIP3    H230441   7.979   4.685   4.191
10166TIP3   OH230442   8.098   6.698   4.802
10166TIP3    H130443   8.047   6.621   4.825
10166TIP3    H230444   8.188   6.676   4.826
10167TIP3   OH230445   2.631   3.259   1.368
10167TIP3    H130446   2.646   3.260   1.463
10167TIP3    H230447   2.657   3.170   1.341
10168TIP3   OH230448   1.959   1.117   1.426
10168TIP3    H130449   1.989   1.198   1.384
10168TIP3    H230450   2.037   1.062   1.431
10169TIP3   OH230451   4.480   5.306   0.511
10169TIP3    H130452   4.453   5.398   0.516
10169TIP3    H230453   4.411   5.258   0.556
10170TIP3   OH230454   5.372   4.098   0.472
10170TIP3    H130455   5.467   4.111   0.468
10170TIP3    H230456   5.361   4.004   0.465
10171TIP3   OH230457   0.980   3.826   0.368
10171TIP3    H130458   0.948   3.809   0.457
10171TIP3    H230459   0.998   3.920   0.366
10172TIP3   OH230460   4.826   6.705   3.759
10172TIP3    H130461   4.828   6.656   3.676
10172TIP3    H230462   4.858   6.642   3.824
10173TIP3   OH230463   7.509   2.886   1.302
10173TIP3    H130464   7.420   2.921   1.301
10173TIP3    H230465   7.546   2.916   1.385
10174TIP3   OH230466   1.240   5.661   5.395
10174TIP3    H130467   1.325   5.677   5.437
10174TIP3    H230468   1.228   5.566   5.402
10175TIP3   OH230469   4.880   6.645   2.190
10175TIP3    H130470   4.829   6.721   2.163
10175TIP3    H230471   4.817   6.574   2.197
10176TIP3   OH230472   0.636   2.670   0.832
10176TIP3    H130473   0.694   2.660   0.756
10176TIP3    H230474   0.620   2.581   0.863
10177TIP3   OH230475   0.002   1.622   3.313
10177TIP3    H130476  -0.028   1.672   3.237
10177TIP3    H230477   0.093   1.598   3.291
10178TIP3   OH230478   5.748   2.861   5.444
10178TIP3    H130479   5.726   2.768   5.439
10178TIP3    H230480   5.802   2.878   5.368
10179TIP3   OH230481   5.822   4.893   5.936
10179TIP3    H130482   5.798   4.836   5.863
10179TIP3    H230483   5.839   4.834   6.009
10180TIP3   OH230484   3.267   5.317   4.211
10180TIP3    H130485   3.302   5.399   4.177
10180TIP3    H230486   3.325   5.293   4.283
10181TIP3   OH230487   4.083   0.780   2.765
10181TIP3    H130488   4.126   0.798   2.681
10181TIP3    H230489   4.099   0.687   2.781
10182TIP3   OH230490   7.449   0.323   2.127
10182TIP3    H130491   7.508   0.399   2.121
10182TIP3    H230492   7.362   0.360   2.115
10183TIP3   OH230493   2.328   4.240   1.006
10183TIP3    H130494   2.315   4.315   1.063
10183TIP3    H230495   2.395   4.188   1.050
10184TIP3   OH230496   5.733   0.786   1.921
10184TIP3    H130497   5.772   0.835   1.848
10184TIP3    H230498   5.784   0.705   1.924
10185TIP3   OH230499   7.655   1.738   2.492
10185TIP3    H130500   7.576   1.748   2.544
10185TIP3    H230501   7.638   1.788   2.412
10186TIP3   OH230502   6.588   3.175   0.385
10186TIP3    H130503   6.597   3.086   0.351
10186TIP3    H230504   6.545   3.223   0.315
10187TIP3   OH230505   8.208   0.388   4.033
10187TIP3    H130506   8.170   0.344   3.957
10187TIP3    H230507   8.269   0.451   3.995
10188TIP3   OH230508   5.405   5.106   2.717
10188TIP3    H130509   5.424   5.111   2.811
10188TIP3    H230510   5.454   5.029   2.687
10189TIP3   OH230511   4.914   1.869   1.727
10189TIP3    H130512   4.950   1.868   1.639
10189TIP3    H230513   4.950   1.948   1.767
10190TIP3   OH230514   2.682   2.496   6.292
10190TIP3    H130515   2.694   2.522   6.383
10190TIP3    H230516   2.637   2.412   6.296
10191TIP3   OH230517   3.832   2.569   4.328
10191TIP3    H130518   3.784   2.490   4.354
10191TIP3    H230519   3.776   2.641   4.356
10192TIP3   OH230520   1.241   7.464   5.359
10192TIP3    H130521   1.295   7.541   5.377
10192TIP3    H230522   1.297   7.408   5.304
10193TIP3   OH230523   5.102   4.644   6.706
10193TIP3    H130524   5.106   4.721   6.650
10193TIP3    H230525   5.189   4.638   6.746
10194TIP3   OH230526   4.056   6.615   2.290
10194TIP3    H130527   4.124   6.666   2.335
10194TIP3    H230528   4.058   6.530   2.333
10195TIP3   OH230529   6.016   0.148   3.330
10195TIP3    H130530   5.994   0.123   3.419
10195TIP3    H230531   6.053   0.069   3.290
10196TIP3   OH230532   1.186   6.809   2.402
10196TIP3    H130533   1.112   6.757   2.372
10196TIP3    H230534   1.163   6.899   2.380
10197TIP3   OH230535   0.643   6.147   0.080
10197TIP3    H130536   0.637   6.068   0.134
10197TIP3    H230537   0.685   6.212   0.136
10198TIP3   OH230538   2.289   5.068   5.797
10198TIP3    H130539   2.200   5.081   5.767
10198TIP3    H230540   2.332   5.020   5.726
10199TIP3   OH230541   8.284   3.911   0.366
10199TIP3    H130542   8.220   3.853   0.406
10199TIP3    H230543   8.232   3.978   0.322
10200TIP3   OH230544   0.769   2.849   5.914
10200TIP3    H130545   0.807   2.915   5.856
10200TIP3    H230546   0.679   2.878   5.928
10201TIP3   OH230547   7.377   0.844   4.824
10201TIP3    H130548   7.319   0.920   4.831
10201TIP3    H230549   7.319   0.769   4.832
10202TIP3   OH230550   4.131   5.756   1.732
10202TIP3    H130551   4.204   5.708   1.770
10202TIP3    H230552   4.054   5.705   1.757
10203TIP3   OH230553   6.408   1.437   6.089
10203TIP3    H130554   6.469   1.501   6.053
10203TIP3    H230555   6.464   1.364   6.118
10204TIP3   OH230556   1.021   7.661   5.438
10204TIP3    H130557   1.112   7.656   5.406
10204TIP3    H230558   0.996   7.570   5.452
10205TIP3   OH230559   1.221   6.886   0.344
10205TIP3    H130560   1.312   6.907   0.364
10205TIP3    H230561   1.189   6.961   0.294
10206TIP3   OH230562   5.421   4.727   3.631
10206TIP3    H130563   5.375   4.762   3.708
10206TIP3    H230564   5.351   4.714   3.567
10207TIP3   OH230565   1.446   2.109   4.459
10207TIP3    H130566   1.417   2.198   4.476
10207TIP3    H230567   1.526   2.099   4.512
10208TIP3   OH230568   1.669   7.373   1.009
10208TIP3    H130569   1.629   7.460   1.013
10208TIP3    H230570   1.730   7.371   1.083
10209TIP3   OH230571   0.685   4.595   6.417
10209TIP3    H130572   0.637   4.528   6.369
10209TIP3    H230573   0.659   4.677   6.377
10210TIP3   OH230574   5.721   1.927   0.725
10210TIP3    H130575   5.663   2.003   0.736
10210TIP3    H230576   5.757   1.937   0.637
10211TIP3   OH230577   3.791   1.733   2.992
10211TIP3    H130578   3.736   1.807   3.014
10211TIP3    H230579   3.797   1.734   2.897
10212TIP3   OH230580   0.912   6.282   4.890
10212TIP3    H130581   0.946   6.239   4.811
10212TIP3    H230582   0.888   6.210   4.948
10213TIP3   OH230583   2.304   2.723   5.615
10213TIP3    H130584   2.371   2.705   5.549
10213TIP3    H230585   2.296   2.818   5.616
10214TIP3   OH230586   0.624   7.578   4.202
10214TIP3    H130587   0.621   7.611   4.291
10214TIP3    H230588   0.564   7.503   4.202
10215TIP3   OH230589   2.619   6.651   6.064
10215TIP3    H130590   2.714   6.651   6.051
10215TIP3    H230591   2.593   6.742   6.049
10216TIP3   OH230592   0.782   0.895   4.093
10216TIP3    H130593   0.827   0.952   4.031
10216TIP3    H230594   0.803   0.931   4.179
10217TIP3   OH230595   7.360   2.067   6.425
10217TIP3    H130596   7.412   2.091   6.348
10217TIP3    H230597   7.416   2.086   6.500
10218TIP3   OH230598   0.822   3.351   1.084
10218TIP3    H130599   0.899   3.349   1.028
10218TIP3    H230600   0.851   3.315   1.167
10219TIP3   OH230601   8.104   2.926   4.484
10219TIP3    H130602   8.118   3.015   4.452
10219TIP3    H230603   8.080   2.876   4.406
10220TIP3   OH230604   4.847   6.119   2.769
10220TIP3    H130605   4.793   6.083   2.699
10220TIP3    H230606   4.893   6.043   2.805
10221TIP3   OH230607   8.101   3.298   5.849
10221TIP3    H130608   8.145   3.216   5.824
10221TIP3    H230609   8.165   3.366   5.828
10222TIP3   OH230610   1.798   4.215   6.263
10222TIP3    H130611   1.759   4.281   6.206
10222TIP3    H230612   1.828   4.147   6.203
10223TIP3   OH230613   3.507   3.295   2.665
10223TIP3    H130614   3.541   3.208   2.643
10223TIP3    H230615   3.484   3.333   2.581
10224TIP3   OH230616   0.986   4.777   6.664
10224TIP3    H130617   0.936   4.856   6.684
10224TIP3    H230618   1.070   4.809   6.632
10225TIP3   OH230619   0.133   7.542   3.202
10225TIP3    H130620   0.182   7.599   3.143
10225TIP3    H230621   0.051   7.589   3.218
10226TIP3   OH230622   5.851   4.422   6.439
10226TIP3    H130623   5.912   4.384   6.502
10226TIP3    H230624   5.776   4.362   6.439
10227TIP3   OH230625   1.078   1.342   0.640
10227TIP3    H130626   1.174   1.341   0.636
10227TIP3    H230627   1.059   1.386   0.724
10228TIP3   OH230628   0.164   2.888   4.145
10228TIP3    H130629   0.123   2.805   4.168
10228TIP3    H230630   0.155   2.942   4.224
10229TIP3   OH230631   5.128   0.094   3.793
10229TIP3    H130632   5.182   0.039   3.850
10229TIP3    H230633   5.039   0.063   3.808
10230TIP3   OH230634   2.645   1.640   4.193
10230TIP3    H130635   2.727   1.590   4.202
10230TIP3    H230636   2.576   1.576   4.214
10231TIP3   OH230637   3.642   4.314   4.423
10231TIP3    H130638   3.593   4.323   4.505
10231TIP3    H230639   3.732   4.297   4.451
10232TIP3   OH230640   7.584   5.914   6.236
10232TIP3    H130641   7.543   5.899   6.151
10232TIP3    H230642   7.608   6.007   6.235
10233TIP3   OH230643   8.052   4.049   6.655
10233TIP3    H130644   8.063   4.045   6.560
10233TIP3    H230645   8.137   4.081   6.687
10234TIP3   OH230646   5.306   6.248   6.594
10234TIP3    H130647   5.245   6.205   6.655
10234TIP3    H230648   5.334   6.179   6.535
10235TIP3   OH230649   7.762   3.675   0.176
10235TIP3    H130650   7.760   3.647   0.085
10235TIP3    H230651   7.672   3.701   0.195
10236TIP3   OH230652   5.548   6.152   1.715
10236TIP3    H130653   5.579   6.076   1.764
10236TIP3    H230654   5.455   6.133   1.698
10237TIP3   OH230655   4.684   1.968   2.865
10237TIP3    H130656   4.714   1.885   2.904
10237TIP3    H230657   4.590   1.954   2.850
10238TIP3   OH230658   5.552   5.796   4.935
10238TIP3    H130659   5.504   5.856   4.878
10238TIP3    H230660   5.512   5.808   5.021
10239TIP3   OH230661   6.561   4.075   1.436
10239TIP3    H130662   6.519   4.141   1.381
10239TIP3    H230663   6.504   4.067   1.512
10240TIP3   OH230664   5.576   5.813   4.601
10240TIP3    H130665   5.585   5.867   4.680
10240TIP3    H230666   5.639   5.850   4.539
10241TIP3   OH230667   0.275   4.250   2.609
10241TIP3    H130668   0.185   4.257   2.639
10241TIP3    H230669   0.273   4.282   2.518
10242TIP3   OH230670   5.299   0.997   1.302
10242TIP3    H130671   5.384   0.982   1.261
10242TIP3    H230672   5.235   0.972   1.236
10243TIP3   OH230673   2.739   5.391   0.165
10243TIP3    H130674   2.783   5.471   0.193
10243TIP3    H230675   2.808   5.324   0.163
10244TIP3   OH230676   3.584   2.264   6.076
10244TIP3    H130677   3.499   2.254   6.034
10244TIP3    H230678   3.590   2.358   6.096
10245TIP3   OH230679   1.799   4.186   0.011
10245TIP3    H130680   1.773   4.151  -0.074
10245TIP3    H230681   1.894   4.196   0.005
10246TIP3   OH230682   0.362   2.397   2.528
10246TIP3    H130683   0.363   2.413   2.433
10246TIP3    H230684   0.390   2.480   2.567
10247TIP3   OH230685   3.332   1.802   3.465
10247TIP3    H130686   3.361   1.750   3.540
10247TIP3    H230687   3.272   1.867   3.503
10248TIP3   OH230688   7.934   6.773   2.445
10248TIP3    H130689   7.996   6.845   2.447
10248TIP3    H230690   7.988   6.694   2.446
10249TIP3   OH230691   3.620   1.712   4.227
10249TIP3    H130692   3.708   1.746   4.222
10249TIP3    H230693   3.565   1.777   4.183
10250TIP3   OH230694   2.694   0.833   5.405
10250TIP3    H130695   2.662   0.891   5.336
10250TIP3    H230696   2.628   0.839   5.474
10251TIP3   OH230697   1.193   3.547   2.334
10251TIP3    H130698   1.112   3.506   2.365
10251TIP3    H230699   1.174   3.574   2.245
10252TIP3   OH230700   4.736   1.001   2.700
10252TIP3    H130701   4.795   0.955   2.641
10252TIP3    H230702   4.789   1.017   2.778
10253TIP3   OH230703   4.194   4.605   3.231
10253TIP3    H130704   4.278   4.601   3.276
10253TIP3    H230705   4.164   4.514   3.227
10254TIP3   OH230706   6.719   7.458   1.397
10254TIP3    H130707   6.716   7.473   1.491
10254TIP3    H230708   6.630   7.474   1.367
10255TIP3   OH230709   4.150   2.769   3.441
10255TIP3    H130710   4.212   2.741   3.508
10255TIP3    H230711   4.155   2.864   3.442
10256TIP3   OH230712   0.693   4.118   6.554
10256TIP3    H130713   0.747   4.170   6.613
10256TIP3    H230714   0.750   4.045   6.528
10257TIP3   OH230715   4.179   4.822   6.645
10257TIP3    H130716   4.187   4.813   6.550
10257TIP3    H230717   4.232   4.750   6.680
10258TIP3   OH230718   8.149   6.230   4.869
10258TIP3    H130719   8.149   6.204   4.777
10258TIP3    H230720   8.102   6.313   4.871
10259TIP3   OH230721   0.644   6.412   0.743
10259TIP3    H130722   0.736   6.423   0.769
10259TIP3    H230723   0.594   6.429   0.822
10260TIP3   OH230724   6.619   7.598   2.863
10260TIP3    H130725   6.674   7.602   2.786
10260TIP3    H230726   6.652   7.523   2.913
10261TIP3   OH230727   2.267   5.731   5.363
10261TIP3    H130728   2.308   5.736   5.449
10261TIP3    H230729   2.186   5.781   5.371
10262TIP3   OH230730   4.912   4.988   3.496
10262TIP3    H130731   4.869   4.908   3.465
10262TIP3    H230732   4.848   5.029   3.554
10263TIP3   OH230733   7.128   4.816   4.345
10263TIP3    H130734   7.118   4.724   4.370
10263TIP3    H230735   7.134   4.863   4.428
10264TIP3   OH230736   1.404   1.859   5.812
10264TIP3    H130737   1.454   1.814   5.744
10264TIP3    H230738   1.315   1.827   5.802
10265TIP3   OH230739   1.938   5.523   6.715
10265TIP3    H130740   1.898   5.498   6.798
10265TIP3    H230741   1.881   5.484   6.648
10266TIP3   OH230742   5.457   4.833   3.205
10266TIP3    H130743   5.407   4.852   3.285
10266TIP3    H230744   5.546   4.817   3.236
10267TIP3   OH230745   5.632   3.340   5.193
10267TIP3    H130746   5.661   3.430   5.178
10267TIP3    H230747   5.537   3.346   5.203
10268TIP3   OH230748   0.371   1.869   5.342
10268TIP3    H130749   0.394   1.945   5.289
10268TIP3    H230750   0.395   1.793   5.289
10269TIP3   OH230751   6.315   5.044   2.880
10269TIP3    H130752   6.223   5.028   2.858
10269TIP3    H230753   6.317   5.136   2.907
10270TIP3   OH230754   5.479   1.625   6.644
10270TIP3    H130755   5.438   1.623   6.731
10270TIP3    H230756   5.432   1.558   6.595
10271TIP3   OH230757   6.640   5.752   2.188
10271TIP3    H130758   6.639   5.658   2.204
10271TIP3    H230759   6.548   5.778   2.190
10272TIP3   OH230760   1.352   3.236   4.889
10272TIP3    H130761   1.404   3.256   4.811
10272TIP3    H230762   1.370   3.144   4.906
10273TIP3   OH230763   7.239   2.142   3.746
10273TIP3    H130764   7.304   2.104   3.687
10273TIP3    H230765   7.197   2.067   3.788
10274TIP3   OH230766   1.057   7.608   6.623
10274TIP3    H130767   1.087   7.517   6.634
10274TIP3    H230768   1.104   7.657   6.690
10275TIP3   OH230769   5.744   0.025   2.557
10275TIP3    H130770   5.736   0.116   2.529
10275TIP3    H230771   5.718  -0.026   2.480
10276TIP3   OH230772   3.381   7.752   4.264
10276TIP3    H130773   3.397   7.751   4.169
10276TIP3    H230774   3.294   7.791   4.273
10277TIP3   OH230775   5.832   6.772   2.698
10277TIP3    H130776   5.927   6.768   2.693
10277TIP3    H230777   5.810   6.864   2.684
10278TIP3   OH230778   5.376   0.838   3.972
10278TIP3    H130779   5.332   0.782   3.908
10278TIP3    H230780   5.330   0.922   3.965
10279TIP3   OH230781   1.146   7.696   4.338
10279TIP3    H130782   1.083   7.656   4.278
10279TIP3    H230783   1.169   7.779   4.296
10280TIP3   OH230784   3.654   4.019   2.493
10280TIP3    H130785   3.689   4.099   2.533
10280TIP3    H230786   3.593   3.984   2.558
10281TIP3   OH230787   0.241   6.125   1.402
10281TIP3    H130788   0.208   6.105   1.490
10281TIP3    H230789   0.213   6.216   1.387
10282TIP3   OH230790   1.051   0.455   0.639
10282TIP3    H130791   1.141   0.449   0.670
10282TIP3    H230792   1.013   0.528   0.688
10283TIP3   OH230793   6.094   5.377   2.925
10283TIP3    H130794   6.104   5.321   3.002
10283TIP3    H230795   6.078   5.464   2.961
10284TIP3   OH230796   4.988   3.048   2.304
10284TIP3    H130797   5.001   3.029   2.397
10284TIP3    H230798   4.917   3.113   2.303
10285TIP3   OH230799   7.733   0.491   4.098
10285TIP3    H130800   7.821   0.463   4.120
10285TIP3    H230801   7.679   0.413   4.110
10286TIP3   OH230802   0.096   1.685   1.489
10286TIP3    H130803   0.190   1.687   1.505
10286TIP3    H230804   0.059   1.743   1.556
10287TIP3   OH230805   5.837   5.848   1.267
10287TIP3    H130806   5.904   5.876   1.204
10287TIP3    H230807   5.822   5.924   1.322
10288TIP3   OH230808   8.001   6.114   3.784
10288TIP3    H130809   7.974   6.197   3.824
10288TIP3    H230810   7.980   6.125   3.691
10289TIP3   OH230811   2.178   1.591   6.078
10289TIP3    H130812   2.203   1.545   6.158
10289TIP3    H230813   2.118   1.660   6.108
10290TIP3   OH230814   6.731   5.408   0.992
10290TIP3    H130815   6.799   5.467   1.023
10290TIP3    H230816   6.777   5.328   0.967
10291TIP3   OH230817   1.012   0.331   3.559
10291TIP3    H130818   1.075   0.303   3.625
10291TIP3    H230819   0.976   0.412   3.595
10292TIP3   OH230820   4.379   4.582   4.403
10292TIP3    H130821   4.331   4.653   4.360
10292TIP3    H230822   4.395   4.518   4.334
10293TIP3   OH230823   1.710   5.370   4.398
10293TIP3    H130824   1.716   5.442   4.335
10293TIP3    H230825   1.686   5.413   4.481
10294TIP3   OH230826   8.086   1.824   0.086
10294TIP3    H130827   8.165   1.799   0.038
10294TIP3    H230828   8.092   1.919   0.094
10295TIP3   OH230829   3.970   1.012   6.551
10295TIP3    H130830   4.022   0.948   6.601
10295TIP3    H230831   3.918   1.057   6.617
10296TIP3   OH230832   2.482   6.665   1.210
10296TIP3    H130833   2.574   6.673   1.186
10296TIP3    H230834   2.438   6.636   1.130
10297TIP3   OH230835   5.660   2.592   5.434
10297TIP3    H130836   5.745   2.551   5.418
10297TIP3    H230837   5.609   2.574   5.356
10298TIP3   OH230838   0.445   2.185   1.594
10298TIP3    H130839   0.517   2.172   1.532
10298TIP3    H230840   0.376   2.126   1.564
10299TIP3   OH230841   5.975   1.361   0.756
10299TIP3    H130842   5.926   1.394   0.681
10299TIP3    H230843   6.065   1.390   0.742
10300TIP3   OH230844   7.642   0.801   1.686
10300TIP3    H130845   7.636   0.857   1.764
10300TIP3    H230846   7.555   0.807   1.646
10301TIP3   OH230847   2.641   5.059   3.955
10301TIP3    H130848   2.591   5.115   3.895
10301TIP3    H230849   2.706   5.017   3.899
10302TIP3   OH230850   3.626   4.657   5.143
10302TIP3    H130851   3.621   4.712   5.221
10302TIP3    H230852   3.716   4.625   5.143
10303TIP3   OH230853   7.620   2.135   3.175
10303TIP3    H130854   7.711   2.111   3.189
10303TIP3    H230855   7.574   2.052   3.162
10304TIP3   OH230856   2.666   4.767   2.242
10304TIP3    H130857   2.638   4.757   2.151
10304TIP3    H230858   2.717   4.688   2.260
10305TIP3   OH230859   5.840   6.873   5.295
10305TIP3    H130860   5.768   6.909   5.346
10305TIP3    H230861   5.891   6.950   5.269
10306TIP3   OH230862  -0.007   2.116   0.905
10306TIP3    H130863   0.081   2.119   0.866
10306TIP3    H230864   0.008   2.133   0.998
10307TIP3   OH230865   6.970   1.417   4.191
10307TIP3    H130866   7.023   1.351   4.147
10307TIP3    H230867   6.880   1.399   4.163
10308TIP3   OH230868   7.602   5.721   4.263
10308TIP3    H130869   7.634   5.642   4.306
10308TIP3    H230870   7.571   5.777   4.335
10309TIP3   OH230871   6.573   2.316   0.588
10309TIP3    H130872   6.639   2.365   0.539
10309TIP3    H230873   6.554   2.240   0.534
10310TIP3   OH230874   5.881   4.618   0.187
10310TIP3    H130875   5.822   4.606   0.113
10310TIP3    H230876   5.953   4.557   0.170
10311TIP3   OH230877   0.439   7.468   3.114
10311TIP3    H130878   0.497   7.497   3.184
10311TIP3    H230879   0.356   7.448   3.159
10312TIP3   OH230880   4.963   0.953   3.203
10312TIP3    H130881   4.912   1.028   3.232
10312TIP3    H230882   5.052   0.987   3.192
10313TIP3   OH230883   1.443   2.480   3.812
10313TIP3    H130884   1.393   2.417   3.864
10313TIP3    H230885   1.533   2.471   3.843
10314TIP3   OH230886   0.260   3.436   3.195
10314TIP3    H130887   0.306   3.423   3.278
10314TIP3    H230888   0.185   3.491   3.218
10315TIP3   OH230889   6.326   5.014   0.238
10315TIP3    H130890   6.325   5.078   0.167
10315TIP3    H230891   6.255   5.041   0.296
10316TIP3   OH230892   7.204   7.278   2.087
10316TIP3    H130893   7.219   7.370   2.108
10316TIP3    H230894   7.216   7.233   2.170
10317TIP3   OH230895   1.495   6.172   1.927
10317TIP3    H130896   1.424   6.211   1.979
10317TIP3    H230897   1.466   6.082   1.911
10318TIP3   OH230898   3.015   5.371   0.690
10318TIP3    H130899   3.051   5.364   0.602
10318TIP3    H230900   3.047   5.454   0.724
10319TIP3   OH230901   5.223   1.784   0.942
10319TIP3    H130902   5.295   1.756   0.998
10319TIP3    H230903   5.256   1.863   0.899
10320TIP3   OH230904   2.853   1.386   5.526
10320TIP3    H130905   2.887   1.421   5.444
10320TIP3    H230906   2.766   1.354   5.504
10321TIP3   OH230907   6.891   1.612   1.525
10321TIP3    H130908   6.810   1.563   1.538
10321TIP3    H230909   6.909   1.650   1.611
10322TIP3   OH230910   6.412   4.626   3.549
10322TIP3    H130911   6.480   4.632   3.615
10322TIP3    H230912   6.437   4.691   3.483
10323TIP3   OH230913   0.209   6.651   4.031
10323TIP3    H130914   0.277   6.685   4.089
10323TIP3    H230915   0.242   6.667   3.943
10324TIP3   OH230916   2.530   0.004   5.261
10324TIP3    H130917   2.478   0.084   5.260
10324TIP3    H230918   2.535  -0.021   5.353
10325TIP3   OH230919   3.446   5.531   3.609
10325TIP3    H130920   3.445   5.502   3.701
10325TIP3    H230921   3.489   5.617   3.612
10326TIP3   OH230922   2.288   3.572   2.075
10326TIP3    H130923   2.368   3.624   2.069
10326TIP3    H230924   2.293   3.531   2.161
10327TIP3   OH230925   0.735   1.923   1.558
10327TIP3    H130926   0.694   2.004   1.529
10327TIP3    H230927   0.712   1.859   1.491
10328TIP3   OH230928   7.278   1.451   5.957
10328TIP3    H130929   7.255   1.433   5.865
10328TIP3    H230930   7.250   1.541   5.971
10329TIP3   OH230931   0.630   1.308   3.386
10329TIP3    H130932   0.720   1.297   3.418
10329TIP3    H230933   0.597   1.385   3.431
10330TIP3   OH230934   4.409   6.650   0.871
10330TIP3    H130935   4.461   6.573   0.895
10330TIP3    H230936   4.464   6.724   0.897
10331TIP3   OH230937   5.267   7.030   5.175
10331TIP3    H130938   5.253   6.959   5.237
10331TIP3    H230939   5.184   7.037   5.128
10332TIP3   OH230940   7.179   2.791   3.984
10332TIP3    H130941   7.156   2.773   4.075
10332TIP3    H230942   7.258   2.739   3.969
10333TIP3   OH230943   4.012   5.865   3.566
10333TIP3    H130944   4.064   5.851   3.645
10333TIP3    H230945   3.930   5.905   3.597
10334TIP3   OH230946   1.444   4.996   4.998
10334TIP3    H130947   1.391   4.974   5.074
10334TIP3    H230948   1.531   5.014   5.034
10335TIP3   OH230949   0.947   5.617   3.760
10335TIP3    H130950   1.013   5.663   3.707
10335TIP3    H230951   0.993   5.542   3.797
10336TIP3   OH230952   7.420   6.992   3.619
10336TIP3    H130953   7.416   6.942   3.537
10336TIP3    H230954   7.427   6.925   3.687
10337TIP3   OH230955   8.032   3.690   5.495
10337TIP3    H130956   8.127   3.704   5.496
10337TIP3    H230957   7.999   3.743   5.568
10338TIP3   OH230958   3.162   4.000   0.880
10338TIP3    H130959   3.229   4.009   0.948
10338TIP3    H230960   3.153   4.088   0.844
10339TIP3   OH230961   7.983   1.905   3.086
10339TIP3    H130962   7.990   1.966   3.013
10339TIP3    H230963   7.934   1.952   3.153
10340TIP3   OH230964   0.842   2.073   4.363
10340TIP3    H130965   0.767   2.014   4.368
10340TIP3    H230966   0.905   2.028   4.307
10341TIP3   OH230967   4.090   7.344   3.453
10341TIP3    H130968   4.080   7.254   3.484
10341TIP3    H230969   4.167   7.377   3.501
10342TIP3   OH230970   5.676   4.843   4.361
10342TIP3    H130971   5.587   4.873   4.381
10342TIP3    H230972   5.721   4.921   4.330
10343TIP3   OH230973   5.385   2.496   0.243
10343TIP3    H130974   5.348   2.585   0.238
10343TIP3    H230975   5.477   2.508   0.219
10344TIP3   OH230976   0.467   5.825   4.135
10344TIP3    H130977   0.380   5.838   4.173
10344TIP3    H230978   0.488   5.734   4.154
10345TIP3   OH230979   4.936   0.747   2.005
10345TIP3    H130980   4.893   0.828   2.036
10345TIP3    H230981   4.999   0.726   2.074
10346TIP3   OH230982   0.081   7.375   4.745
10346TIP3    H130983   0.019   7.364   4.816
10346TIP3    H230984   0.067   7.300   4.688
10347TIP3   OH230985   5.246   2.948   0.015
10347TIP3    H130986   5.316   2.898  -0.027
10347TIP3    H230987   5.205   2.886   0.075
10348TIP3   OH230988   0.080   7.533   2.047
10348TIP3    H130989   0.072   7.551   1.953
10348TIP3    H230990   0.174   7.520   2.061
10349TIP3   OH230991   4.915   5.919   0.829
10349TIP3    H130992   4.925   5.824   0.827
10349TIP3    H230993   4.834   5.936   0.782
10350TIP3   OH230994   3.246   5.988   3.008
10350TIP3    H130995   3.208   5.940   3.082
10350TIP3    H230996   3.337   6.004   3.034
10351TIP3   OH230997   7.689   1.222   6.274
10351TIP3    H130998   7.675   1.236   6.367
10351TIP3    H230999   7.625   1.278   6.231
10352TIP3   OH231000   7.727   6.925   1.569
10352TIP3    H131001   7.773   6.906   1.651
10352TIP3    H231002   7.640   6.955   1.596
10353TIP3   OH231003   2.525   4.610   2.931
10353TIP3    H131004   2.510   4.676   2.999
10353TIP3    H231005   2.460   4.542   2.950
10354TIP3   OH231006   6.343   4.591   1.019
10354TIP3    H131007   6.272   4.537   1.055
10354TIP3    H231008   6.413   4.528   1.000
10355TIP3   OH231009   1.163   0.038   3.145
10355TIP3    H131010   1.117   0.098   3.204
10355TIP3    H231011   1.111   0.040   3.064
10356TIP3   OH231012   0.726   1.322   4.760
10356TIP3    H131013   0.741   1.313   4.854
10356TIP3    H231014   0.802   1.371   4.728
10357TIP3   OH231015   4.009   2.867   3.855
10357TIP3    H131016   3.928   2.830   3.821
10357TIP3    H231017   4.008   2.846   3.948
10358TIP3   OH231018   5.809   7.219   0.254
10358TIP3    H131019   5.782   7.138   0.298
10358TIP3    H231020   5.897   7.201   0.222
10359TIP3   OH231021   2.306   3.812   2.300
10359TIP3    H131022   2.270   3.898   2.320
10359TIP3    H231023   2.382   3.831   2.245
10360TIP3   OH231024   4.955   1.426   4.137
10360TIP3    H131025   5.039   1.471   4.148
10360TIP3    H231026   4.916   1.427   4.224
10361TIP3   OH231027   3.342   0.223   1.148
10361TIP3    H131028   3.297   0.254   1.069
10361TIP3    H231029   3.431   0.258   1.141
10362TIP3   OH231030   2.038   7.727   5.384
10362TIP3    H131031   2.043   7.815   5.346
10362TIP3    H231032   2.113   7.722   5.444
10363TIP3   OH231033   5.469   6.635   4.744
10363TIP3    H131034   5.411   6.676   4.808
10363TIP3    H231035   5.454   6.541   4.753
10364TIP3   OH231036   2.045   3.525   4.987
10364TIP3    H131037   2.028   3.595   5.050
10364TIP3    H231038   2.066   3.449   5.041
10365TIP3   OH231039   2.198   4.187   4.487
10365TIP3    H131040   2.161   4.273   4.467
10365TIP3    H231041   2.169   4.169   4.576
10366TIP3   OH231042   7.426   6.182   1.272
10366TIP3    H131043   7.416   6.215   1.183
10366TIP3    H231044   7.352   6.221   1.320
10367TIP3   OH231045   1.811   4.276   5.173
10367TIP3    H131046   1.744   4.210   5.157
10367TIP3    H231047   1.825   4.316   5.087
10368TIP3   OH231048   7.746   7.741   3.664
10368TIP3    H131049   7.687   7.701   3.728
10368TIP3    H231050   7.705   7.724   3.580
10369TIP3   OH231051   7.876   5.970   4.866
10369TIP3    H131052   7.931   5.943   4.940
10369TIP3    H231053   7.831   6.049   4.897
10370TIP3   OH231054   0.385   5.553   3.954
10370TIP3    H131055   0.460   5.600   3.989
10370TIP3    H231056   0.309   5.608   3.975
10371TIP3   OH231057   2.992   5.762   2.072
10371TIP3    H131058   2.927   5.702   2.107
10371TIP3    H231059   3.062   5.706   2.040
10372TIP3   OH231060   3.797   7.100   1.315
10372TIP3    H131061   3.782   7.183   1.270
10372TIP3    H231062   3.719   7.088   1.370
10373TIP3   OH231063   1.012   5.436   1.220
10373TIP3    H131064   1.010   5.373   1.148
10373TIP3    H231065   1.097   5.423   1.261
10374TIP3   OH231066   5.498   6.735   0.067
10374TIP3    H131067   5.464   6.757   0.154
10374TIP3    H231068   5.593   6.734   0.078
10375TIP3   OH231069   4.505   0.640   2.344
10375TIP3    H131070   4.565   0.691   2.398
10375TIP3    H231071   4.426   0.631   2.397
10376TIP3   OH231072   1.467   5.756   1.499
10376TIP3    H131073   1.516   5.830   1.462
10376TIP3    H231074   1.509   5.679   1.460
10377TIP3   OH231075   0.984   1.833   4.273
10377TIP3    H131076   0.983   1.876   4.188
10377TIP3    H231077   0.925   1.759   4.263
10378TIP3   OH231078   2.413   7.818   6.299
10378TIP3    H131079   2.385   7.766   6.223
10378TIP3    H231080   2.418   7.908   6.267
10379TIP3   OH231081   4.546   5.794   4.832
10379TIP3    H131082   4.506   5.828   4.912
10379TIP3    H231083   4.632   5.762   4.859
10380TIP3   OH231084   1.258   2.885   5.374
10380TIP3    H131085   1.298   2.798   5.365
10380TIP3    H231086   1.325   2.945   5.341
10381TIP3   OH231087   3.534   6.140   5.679
10381TIP3    H131088   3.493   6.068   5.633
10381TIP3    H231089   3.520   6.121   5.771
10382TIP3   OH231090   0.182   6.159   2.012
10382TIP3    H131091   0.098   6.196   1.982
10382TIP3    H231092   0.245   6.229   1.997
10383TIP3   OH231093   4.400   3.687   3.151
10383TIP3    H131094   4.324   3.713   3.099
10383TIP3    H231095   4.384   3.724   3.238
10384TIP3   OH231096   5.772   0.237   5.752
10384TIP3    H131097   5.837   0.274   5.811
10384TIP3    H231098   5.811   0.247   5.665
10385TIP3   OH231099   7.042   2.220   5.919
10385TIP3    H131100   7.011   2.303   5.883
10385TIP3    H231101   7.076   2.172   5.844
10386TIP3   OH231102   0.221   7.737   5.567
10386TIP3    H131103   0.269   7.659   5.595
10386TIP3    H231104   0.285   7.807   5.572
10387TIP3   OH231105   1.126   1.639   3.433
10387TIP3    H131106   1.215   1.612   3.411
10387TIP3    H231107   1.110   1.718   3.381
10388TIP3   OH231108   1.846   2.271   1.561
10388TIP3    H131109   1.855   2.359   1.598
10388TIP3    H231110   1.832   2.215   1.636
10389TIP3   OH231111   4.776   7.617   1.639
10389TIP3    H131112   4.819   7.599   1.555
10389TIP3    H231113   4.832   7.681   1.682
10390TIP3   OH231114   7.262   1.510   4.049
10390TIP3    H131115   7.349   1.518   4.009
10390TIP3    H231116   7.232   1.423   4.023
10391TIP3   OH231117   8.309   7.629   0.147
10391TIP3    H131118   8.272   7.678   0.073
10391TIP3    H231119   8.234   7.613   0.204
10392TIP3   OH231120   0.692   7.574   5.954
10392TIP3    H131121   0.666   7.536   6.039
10392TIP3    H231122   0.632   7.648   5.942
10393TIP3   OH231123   3.906   7.181   5.521
10393TIP3    H131124   3.953   7.128   5.586
10393TIP3    H231125   3.883   7.262   5.568
10394TIP3   OH231126   4.866   4.724   5.300
10394TIP3    H131127   4.855   4.694   5.210
10394TIP3    H231128   4.787   4.695   5.345
10395TIP3   OH231129   1.329   7.767   0.834
10395TIP3    H131130   1.276   7.735   0.908
10395TIP3    H231131   1.315   7.861   0.833
10396TIP3   OH231132   5.196   2.387   6.492
10396TIP3    H131133   5.182   2.310   6.438
10396TIP3    H231134   5.264   2.360   6.554
10397TIP3   OH231135   6.637   3.953   6.262
10397TIP3    H131136   6.644   3.894   6.337
10397TIP3    H231137   6.596   4.031   6.298
10398TIP3   OH231138   8.101   4.296   5.583
10398TIP3    H131139   8.187   4.262   5.560
10398TIP3    H231140   8.110   4.322   5.675
10399TIP3   OH231141   0.737   4.641   4.960
10399TIP3    H131142   0.662   4.585   4.941
10399TIP3    H231143   0.702   4.713   5.011
10400TIP3   OH231144   1.423   1.086   6.422
10400TIP3    H131145   1.429   1.135   6.340
10400TIP3    H231146   1.385   1.002   6.398
10401TIP3   OH231147   0.834   1.055   4.396
10401TIP3    H131148   0.748   1.020   4.418
10401TIP3    H231149   0.896   0.997   4.440
10402TIP3   OH231150   6.673   3.455   0.777
10402TIP3    H131151   6.760   3.493   0.762
10402TIP3    H231152   6.627   3.521   0.828
10403TIP3   OH231153   7.036   3.128   2.794
10403TIP3    H131154   7.104   3.148   2.858
10403TIP3    H231155   7.056   3.185   2.720
10404TIP3   OH231156   3.271   1.950   4.746
10404TIP3    H131157   3.257   2.008   4.821
10404TIP3    H231158   3.354   1.978   4.709
10405TIP3   OH231159   3.576   5.130   1.695
10405TIP3    H131160   3.579   5.054   1.754
10405TIP3    H231161   3.517   5.103   1.625
10406TIP3   OH231162   3.337   7.727   3.233
10406TIP3    H131163   3.321   7.658   3.168
10406TIP3    H231164   3.301   7.691   3.315
10407TIP3   OH231165   1.826   5.795   1.775
10407TIP3    H131166   1.799   5.712   1.734
10407TIP3    H231167   1.908   5.817   1.731
10408TIP3   OH231168   5.087   0.230   4.157
10408TIP3    H131169   4.998   0.196   4.165
10408TIP3    H231170   5.144   0.154   4.165
10409TIP3   OH231171   4.945   6.221   4.291
10409TIP3    H131172   4.976   6.297   4.339
10409TIP3    H231173   5.006   6.151   4.314
10410TIP3   OH231174   5.774   6.091   4.668
10410TIP3    H131175   5.721   6.142   4.730
10410TIP3    H231176   5.858   6.081   4.712
10411TIP3   OH231177   6.133   5.202   6.432
10411TIP3    H131178   6.059   5.262   6.438
10411TIP3    H231179   6.138   5.161   6.518
10412TIP3   OH231180   2.592   0.324   0.800
10412TIP3    H131181   2.644   0.377   0.862
10412TIP3    H231182   2.604   0.234   0.830
10413TIP3   OH231183   1.517   3.978   0.086
10413TIP3    H131184   1.584   4.028   0.134
10413TIP3    H231185   1.530   3.887   0.116
10414TIP3   OH231186   0.326   4.597   1.281
10414TIP3    H131187   0.378   4.589   1.201
10414TIP3    H231188   0.377   4.550   1.347
10415TIP3   OH231189   4.535   2.883   6.741
10415TIP3    H131190   4.583   2.956   6.701
10415TIP3    H231191   4.530   2.817   6.672
10416TIP3   OH231192   5.457   2.791   2.523
10416TIP3    H131193   5.503   2.863   2.567
10416TIP3    H231194   5.502   2.712   2.553
10417TIP3   OH231195   3.160   3.061   2.692
10417TIP3    H131196   3.072   3.047   2.725
10417TIP3    H231197   3.199   3.125   2.751
10418TIP3   OH231198   1.657   6.914   2.479
10418TIP3    H131199   1.591   6.917   2.548
10418TIP3    H231200   1.740   6.928   2.525
10419TIP3   OH231201   6.842   4.831   3.073
10419TIP3    H131202   6.917   4.890   3.060
10419TIP3    H231203   6.794   4.834   2.991
10420TIP3   OH231204   1.481   5.528   0.611
10420TIP3    H131205   1.403   5.527   0.556
10420TIP3    H231206   1.545   5.579   0.562
10421TIP3   OH231207   6.823   7.443   2.244
10421TIP3    H131208   6.861   7.525   2.276
10421TIP3    H231209   6.874   7.375   2.287
10422TIP3   OH231210   1.742   5.542   1.660
10422TIP3    H131211   1.693   5.461   1.668
10422TIP3    H231212   1.697   5.590   1.590
10423TIP3   OH231213   2.313   3.459   3.577
10423TIP3    H131214   2.317   3.363   3.582
10423TIP3    H231215   2.343   3.480   3.489
10424TIP3   OH231216   6.293   6.553   0.276
10424TIP3    H131217   6.272   6.500   0.199
10424TIP3    H231218   6.388   6.548   0.284
10425TIP3   OH231219   1.780   6.412   5.221
10425TIP3    H131220   1.705   6.397   5.163
10425TIP3    H231221   1.794   6.507   5.217
10426TIP3   OH231222   2.288   4.046   6.751
10426TIP3    H131223   2.272   3.955   6.778
10426TIP3    H231224   2.364   4.040   6.692
10427TIP3   OH231225   6.354   3.894   5.956
10427TIP3    H131226   6.309   3.947   5.891
10427TIP3    H231227   6.402   3.829   5.906
10428TIP3   OH231228   5.985   4.822   0.540
10428TIP3    H131229   6.047   4.771   0.593
10428TIP3    H231230   5.925   4.861   0.604
10429TIP3   OH231231   2.151   7.259   2.575
10429TIP3    H131232   2.129   7.335   2.629
10429TIP3    H231233   2.086   7.259   2.505
10430TIP3   OH231234   0.402   1.554   2.697
10430TIP3    H131235   0.462   1.496   2.651
10430TIP3    H231236   0.350   1.595   2.628
10431TIP3   OH231237   3.479   1.359   6.238
10431TIP3    H131238   3.447   1.296   6.173
10431TIP3    H231239   3.550   1.314   6.283
10432TIP3   OH231240   5.806   0.991   5.124
10432TIP3    H131241   5.810   0.921   5.059
10432TIP3    H231242   5.714   0.991   5.153
10433TIP3   OH231243   4.516   2.032   2.418
10433TIP3    H131244   4.588   2.001   2.473
10433TIP3    H231245   4.471   2.098   2.471
10434TIP3   OH231246   7.338   2.121   2.097
10434TIP3    H131247   7.294   2.127   2.182
10434TIP3    H231248   7.293   2.049   2.052
10435TIP3   OH231249   0.136   0.776   3.074
10435TIP3    H131250   0.061   0.739   3.026
10435TIP3    H231251   0.113   0.868   3.086
10436TIP3   OH231252   1.620   1.545   0.301
10436TIP3    H131253   1.679   1.581   0.235
10436TIP3    H231254   1.551   1.611   0.310
10437TIP3   OH231255   0.967   0.640   2.830
10437TIP3    H131256   0.986   0.675   2.917
10437TIP3    H231257   0.871   0.638   2.826
10438TIP3   OH231258   3.093   5.496   1.079
10438TIP3    H131259   3.114   5.518   0.988
10438TIP3    H231260   3.151   5.550   1.131
10439TIP3   OH231261   1.485   0.325   2.558
10439TIP3    H131262   1.497   0.419   2.571
10439TIP3    H231263   1.463   0.292   2.645
10440TIP3   OH231264   0.313   4.951   2.225
10440TIP3    H131265   0.320   4.923   2.134
10440TIP3    H231266   0.358   5.035   2.229
10441TIP3   OH231267   2.579   6.879   6.632
10441TIP3    H131268   2.509   6.845   6.576
10441TIP3    H231269   2.557   6.848   6.720
10442TIP3   OH231270   0.544   4.362   5.478
10442TIP3    H131271   0.601   4.335   5.549
10442TIP3    H231272   0.598   4.420   5.425
10443TIP3   OH231273   0.385   5.172   4.369
10443TIP3    H131274   0.477   5.151   4.356
10443TIP3    H231275   0.366   5.145   4.459
10444TIP3   OH231276   1.526   5.131   2.181
10444TIP3    H131277   1.581   5.189   2.234
10444TIP3    H231278   1.586   5.097   2.114
10445TIP3   OH231279   3.844   6.123   0.376
10445TIP3    H131280   3.783   6.061   0.417
10445TIP3    H231281   3.917   6.129   0.437
10446TIP3   OH231282   7.025   5.042   3.065
10446TIP3    H131283   6.988   5.130   3.066
10446TIP3    H231284   7.105   5.049   3.014
10447TIP3   OH231285   6.238   3.240   6.137
10447TIP3    H131286   6.308   3.178   6.115
10447TIP3    H231287   6.179   3.238   6.062
10448TIP3   OH231288   4.700   6.186   6.686
10448TIP3    H131289   4.721   6.197   6.779
10448TIP3    H231290   4.696   6.275   6.652
10449TIP3   OH231291   5.201   5.253   5.757
10449TIP3    H131292   5.157   5.169   5.748
10449TIP3    H231293   5.202   5.290   5.669
10450TIP3   OH231294   6.526   1.000   3.285
10450TIP3    H131295   6.463   0.990   3.356
10450TIP3    H231296   6.538   1.095   3.278
10451TIP3   OH231297   4.957   5.579   6.040
10451TIP3    H131298   5.036   5.525   6.036
10451TIP3    H231299   4.984   5.658   6.088
10452TIP3   OH231300   3.437   6.617   4.901
10452TIP3    H131301   3.509   6.678   4.889
10452TIP3    H231302   3.479   6.531   4.910
10453TIP3   OH231303   2.692   0.666   5.921
10453TIP3    H131304   2.688   0.755   5.885
10453TIP3    H231305   2.646   0.671   6.004
10454TIP3   OH231306   4.158   4.051   0.670
10454TIP3    H131307   4.140   4.145   0.674
10454TIP3    H231308   4.074   4.012   0.644
10455TIP3   OH231309   0.913   2.897   6.308
10455TIP3    H131310   0.904   2.818   6.254
10455TIP3    H231311   0.926   2.968   6.245
10456TIP3   OH231312   3.795   5.996   3.683
10456TIP3    H131313   3.806   6.061   3.752
10456TIP3    H231314   3.727   5.936   3.717
10457TIP3   OH231315   3.216   5.559   6.706
10457TIP3    H131316   3.290   5.531   6.652
10457TIP3    H231317   3.157   5.484   6.706
10458TIP3   OH231318   3.423   6.145   3.834
10458TIP3    H131319   3.377   6.216   3.877
10458TIP3    H231320   3.480   6.188   3.770
10459TIP3   OH231321   3.578   3.581   2.615
10459TIP3    H131322   3.544   3.513   2.556
10459TIP3    H231323   3.671   3.588   2.593
10460TIP3   OH231324   4.952   3.703   4.426
10460TIP3    H131325   5.034   3.749   4.448
10460TIP3    H231326   4.952   3.626   4.483
10461TIP3   OH231327   4.793   6.268   3.040
10461TIP3    H131328   4.810   6.237   2.951
10461TIP3    H231329   4.706   6.234   3.061
10462TIP3   OH231330   6.869   3.157   0.189
10462TIP3    H131331   6.959   3.190   0.196
10462TIP3    H231332   6.864   3.086   0.252
10463TIP3   OH231333   5.973   3.923   6.115
10463TIP3    H131334   6.015   4.004   6.085
10463TIP3    H231335   5.974   3.929   6.210
10464TIP3   OH231336   8.288   7.698   1.413
10464TIP3    H131337   8.340   7.715   1.334
10464TIP3    H231338   8.197   7.698   1.382
10465TIP3   OH231339   1.751   3.419   4.186
10465TIP3    H131340   1.750   3.497   4.242
10465TIP3    H231341   1.776   3.452   4.099
10466TIP3   OH231342   5.738   3.256   2.311
10466TIP3    H131343   5.687   3.283   2.387
10466TIP3    H231344   5.821   3.224   2.346
10467TIP3   OH231345   2.223   1.057   0.574
10467TIP3    H131346   2.167   1.080   0.500
10467TIP3    H231347   2.233   0.962   0.568
10468TIP3   OH231348   1.308   1.897   4.326
10468TIP3    H131349   1.230   1.942   4.294
10468TIP3    H231350   1.371   1.967   4.345
10469TIP3   OH231351   8.266   5.321   4.793
10469TIP3    H131352   8.255   5.248   4.731
10469TIP3    H231353   8.224   5.290   4.873
10470TIP3   OH231354   2.133   6.478   6.297
10470TIP3    H131355   2.136   6.383   6.287
10470TIP3    H231356   2.157   6.512   6.211
10471TIP3   OH231357   6.128   1.278   4.861
10471TIP3    H131358   6.046   1.260   4.906
10471TIP3    H231359   6.192   1.220   4.902
10472TIP3   OH231360   4.480   4.037   6.337
10472TIP3    H131361   4.531   4.042   6.418
10472TIP3    H231362   4.426   3.959   6.347
10473TIP3   OH231363   6.686   2.224   1.821
10473TIP3    H131364   6.660   2.137   1.851
10473TIP3    H231365   6.619   2.249   1.759
10474TIP3   OH231366   5.513   6.330   3.648
10474TIP3    H131367   5.447   6.365   3.587
10474TIP3    H231368   5.506   6.386   3.725
10475TIP3   OH231369   3.850   1.462   1.440
10475TIP3    H131370   3.768   1.413   1.438
10475TIP3    H231371   3.918   1.394   1.436
10476TIP3   OH231372   1.713   1.108   0.339
10476TIP3    H131373   1.649   1.061   0.392
10476TIP3    H231374   1.705   1.199   0.367
10477TIP3   OH231375   5.523   0.474   4.383
10477TIP3    H131376   5.460   0.481   4.455
10477TIP3    H231377   5.539   0.565   4.357
10478TIP3   OH231378   0.584   4.807   1.488
10478TIP3    H131379   0.659   4.862   1.508
10478TIP3    H231380   0.585   4.798   1.393
10479TIP3   OH231381   3.561   6.144   4.302
10479TIP3    H131382   3.626   6.079   4.330
10479TIP3    H231383   3.569   6.215   4.366
10480TIP3   OH231384   7.521   4.380   4.601
10480TIP3    H131385   7.544   4.431   4.678
10480TIP3    H231386   7.426   4.367   4.609
10481TIP3   OH231387   2.648   1.495   3.211
10481TIP3    H131388   2.738   1.486   3.243
10481TIP3    H231389   2.596   1.442   3.271
10482TIP3   OH231390   6.727   6.819   2.679
10482TIP3    H131391   6.740   6.835   2.585
10482TIP3    H231392   6.642   6.858   2.698
10483TIP3   OH231393   6.562   7.091   5.859
10483TIP3    H131394   6.485   7.122   5.907
10483TIP3    H231395   6.533   7.009   5.818
10484TIP3   OH231396   7.544   7.669   2.579
10484TIP3    H131397   7.630   7.706   2.594
10484TIP3    H231398   7.558   7.604   2.510
10485TIP3   OH231399   6.632   1.964   6.465
10485TIP3    H131400   6.638   1.869   6.469
10485TIP3    H231401   6.698   1.995   6.527
10486TIP3   OH231402   5.731   0.505   2.689
10486TIP3    H131403   5.676   0.512   2.611
10486TIP3    H231404   5.786   0.429   2.673
10487TIP3   OH231405   1.074   0.872   3.776
10487TIP3    H131406   1.148   0.902   3.830
10487TIP3    H231407   0.998   0.917   3.813
10488TIP3   OH231408   0.962   1.162   6.698
10488TIP3    H131409   0.910   1.148   6.619
10488TIP3    H231410   0.926   1.242   6.736
10489TIP3   OH231411   0.226   4.952   2.539
10489TIP3    H131412   0.143   4.999   2.540
10489TIP3    H231413   0.207   4.867   2.578
10490TIP3   OH231414   5.000   5.031   5.831
10490TIP3    H131415   4.959   5.110   5.868
10490TIP3    H231416   5.028   4.981   5.908
10491TIP3   OH231417   1.620   5.674   1.100
10491TIP3    H131418   1.714   5.686   1.091
10491TIP3    H231419   1.585   5.688   1.012
10492TIP3   OH231420   6.879   4.999   0.907
10492TIP3    H131421   6.845   4.926   0.958
10492TIP3    H231422   6.801   5.047   0.879
10493TIP3   OH231423   2.577   3.318   0.199
10493TIP3    H131424   2.570   3.272   0.115
10493TIP3    H231425   2.510   3.386   0.195
10494TIP3   OH231426   8.109   1.324   3.914
10494TIP3    H131427   8.145   1.401   3.958
10494TIP3    H231428   8.034   1.299   3.967
10495TIP3   OH231429   0.040   0.784   2.506
10495TIP3    H131430   0.114   0.833   2.470
10495TIP3    H231431  -0.032   0.847   2.508
10496TIP3   OH231432   7.004   0.987   1.818
10496TIP3    H131433   6.979   1.051   1.751
10496TIP3    H231434   7.085   1.021   1.855
10497TIP3   OH231435   4.579   2.709   1.932
10497TIP3    H131436   4.531   2.791   1.943
10497TIP3    H231437   4.584   2.673   2.021
10498TIP3   OH231438   1.465   7.558   6.374
10498TIP3    H131439   1.434   7.578   6.462
10498TIP3    H231440   1.391   7.516   6.330
10499TIP3   OH231441   0.625   1.505   6.278
10499TIP3    H131442   0.663   1.471   6.359
10499TIP3    H231443   0.567   1.436   6.246
10500TIP3   OH231444   4.542   2.319   2.878
10500TIP3    H131445   4.512   2.237   2.917
10500TIP3    H231446   4.565   2.297   2.788
10501TIP3   OH231447   0.971   5.145   3.270
10501TIP3    H131448   1.056   5.191   3.272
10501TIP3    H231449   0.956   5.121   3.361
10502TIP3   OH231450   1.482   6.950   0.407
10502TIP3    H131451   1.488   6.931   0.501
10502TIP3    H231452   1.567   6.986   0.384
10503TIP3   OH231453   0.633   3.322   2.328
10503TIP3    H131454   0.722   3.354   2.334
10503TIP3    H231455   0.635   3.236   2.370
10504TIP3   OH231456   0.087   6.857   6.054
10504TIP3    H131457   0.138   6.886   6.129
10504TIP3    H231458  -0.004   6.870   6.081
10505TIP3   OH231459   1.042   6.980   5.517
10505TIP3    H131460   1.002   6.980   5.430
10505TIP3    H231461   1.051   7.072   5.540
10506TIP3   OH231462   5.320   3.684   1.845
10506TIP3    H131463   5.291   3.615   1.904
10506TIP3    H231464   5.282   3.661   1.760
10507TIP3   OH231465   5.291   3.521   4.473
10507TIP3    H131466   5.196   3.506   4.466
10507TIP3    H231467   5.327   3.484   4.393
10508TIP3   OH231468   7.795   5.557   0.507
10508TIP3    H131469   7.806   5.522   0.419
10508TIP3    H231470   7.880   5.596   0.528
10509TIP3   OH231471   2.397   0.357   1.970
10509TIP3    H131472   2.322   0.326   2.021
10509TIP3    H231473   2.368   0.352   1.879
10510TIP3   OH231474   5.002   1.251   2.114
10510TIP3    H131475   5.086   1.297   2.105
10510TIP3    H231476   4.937   1.321   2.108
10511TIP3   OH231477   7.162   1.887   4.141
10511TIP3    H131478   7.102   1.816   4.115
10511TIP3    H231479   7.126   1.965   4.101
10512TIP3   OH231480   4.162   0.696   0.390
10512TIP3    H131481   4.146   0.774   0.336
10512TIP3    H231482   4.117   0.715   0.472
10513TIP3   OH231483   0.609   3.747   2.404
10513TIP3    H131484   0.580   3.711   2.489
10513TIP3    H231485   0.703   3.757   2.414
10514TIP3   OH231486   2.349   2.942   2.717
10514TIP3    H131487   2.306   2.858   2.733
10514TIP3    H231488   2.318   2.969   2.631
10515TIP3   OH231489   7.919   1.763   2.844
10515TIP3    H131490   7.990   1.736   2.785
10515TIP3    H231491   7.952   1.742   2.932
10516TIP3   OH231492   5.836   5.205   2.648
10516TIP3    H131493   5.837   5.109   2.648
10516TIP3    H231494   5.925   5.230   2.624
10517TIP3   OH231495   6.729   0.449   0.121
10517TIP3    H131496   6.684   0.475   0.202
10517TIP3    H231497   6.819   0.432   0.148
10518TIP3   OH231498   2.572   5.520   6.498
10518TIP3    H131499   2.506   5.460   6.533
10518TIP3    H231500   2.592   5.486   6.411
10519TIP3   OH231501   2.463   3.168   2.777
10519TIP3    H131502   2.431   3.079   2.763
10519TIP3    H231503   2.499   3.167   2.866
10520TIP3   OH231504   2.197   5.275   0.051
10520TIP3    H131505   2.240   5.344   0.102
10520TIP3    H231506   2.182   5.313  -0.035
10521TIP3   OH231507   1.849   7.321   4.959
10521TIP3    H131508   1.908   7.332   5.033
10521TIP3    H231509   1.846   7.407   4.917
10522TIP3   OH231510   1.618   0.496   3.996
10522TIP3    H131511   1.534   0.489   3.952
10522TIP3    H231512   1.605   0.564   4.063
10523TIP3   OH231513   2.206   5.496   5.742
10523TIP3    H131514   2.186   5.515   5.834
10523TIP3    H231515   2.148   5.554   5.693
10524TIP3   OH231516   1.593   0.644   5.067
10524TIP3    H131517   1.688   0.653   5.061
10524TIP3    H231518   1.570   0.585   4.996
10525TIP3   OH231519   0.253   2.151   3.094
10525TIP3    H131520   0.236   2.062   3.125
10525TIP3    H231521   0.318   2.186   3.155
10526TIP3   OH231522   4.113   4.105   3.268
10526TIP3    H131523   4.144   4.086   3.180
10526TIP3    H231524   4.036   4.049   3.280
10527TIP3   OH231525   1.242   0.614   4.807
10527TIP3    H131526   1.172   0.577   4.859
10527TIP3    H231527   1.316   0.555   4.821
10528TIP3   OH231528   4.990   0.756   3.504
10528TIP3    H131529   5.001   0.698   3.429
10528TIP3    H231530   5.053   0.827   3.488
10529TIP3   OH231531   6.871   5.696   3.801
10529TIP3    H131532   6.917   5.613   3.813
10529TIP3    H231533   6.939   5.760   3.781
10530TIP3   OH231534   2.753   0.183   6.639
10530TIP3    H131535   2.820   0.135   6.590
10530TIP3    H231536   2.683   0.198   6.576
10531TIP3   OH231537   3.685   3.126   5.612
10531TIP3    H131538   3.626   3.161   5.679
10531TIP3    H231539   3.631   3.120   5.533
10532TIP3   OH231540   6.596   6.806   6.701
10532TIP3    H131541   6.673   6.768   6.745
10532TIP3    H231542   6.631   6.844   6.620
10533TIP3   OH231543   4.523   0.123   5.155
10533TIP3    H131544   4.578   0.137   5.078
10533TIP3    H231545   4.550   0.191   5.217
10534TIP3   OH231546   0.748   0.133   3.778
10534TIP3    H131547   0.719   0.074   3.848
10534TIP3    H231548   0.770   0.214   3.823
10535TIP3   OH231549   1.752   6.217   6.108
10535TIP3    H131550   1.666   6.259   6.107
10535TIP3    H231551   1.755   6.168   6.026
10536TIP3   OH231552   6.594   4.494   6.182
10536TIP3    H131553   6.608   4.587   6.165
10536TIP3    H231554   6.680   4.463   6.212
10537TIP3   OH231555   5.864   7.100  -0.019
10537TIP3    H131556   5.940   7.100   0.038
10537TIP3    H231557   5.789   7.092   0.040
10538TIP3   OH231558   4.743   3.476   0.143
10538TIP3    H131559   4.675   3.502   0.081
10538TIP3    H231560   4.697   3.459   0.225
10539TIP3   OH231561   3.839   1.055   0.243
10539TIP3    H131562   3.796   1.133   0.278
10539TIP3    H231563   3.818   1.056   0.150
10540TIP3   OH231564   4.880   4.706   0.220
10540TIP3    H131565   4.864   4.759   0.142
10540TIP3    H231566   4.973   4.720   0.240
10541TIP3   OH231567   1.625   3.383   2.407
10541TIP3    H131568   1.556   3.351   2.466
10541TIP3    H231569   1.629   3.316   2.338
10542TIP3   OH231570   6.103   1.379   6.148
10542TIP3    H131571   6.178   1.399   6.092
10542TIP3    H231572   6.041   1.334   6.091
10543TIP3   OH231573   5.676   4.479   1.903
10543TIP3    H131574   5.701   4.557   1.853
10543TIP3    H231575   5.752   4.461   1.959
10544TIP3   OH231576   4.437   5.891   0.986
10544TIP3    H131577   4.456   5.979   1.017
10544TIP3    H231578   4.491   5.833   1.040
10545TIP3   OH231579   4.023   4.005   2.135
10545TIP3    H131580   4.113   4.035   2.122
10545TIP3    H231581   3.982   4.074   2.187
10546TIP3   OH231582   1.147   6.566   4.760
10546TIP3    H131583   1.179   6.604   4.842
10546TIP3    H231584   1.184   6.479   4.757
10547TIP3   OH231585   8.004   0.010   1.593
10547TIP3    H131586   7.994   0.065   1.515
10547TIP3    H231587   8.032   0.071   1.661
10548TIP3   OH231588   4.700   6.348   6.450
10548TIP3    H131589   4.772   6.411   6.452
10548TIP3    H231590   4.697   6.318   6.359
10549TIP3   OH231591   0.840   5.201   2.873
10549TIP3    H131592   0.775   5.242   2.817
10549TIP3    H231593   0.892   5.274   2.907
10550TIP3   OH231594   6.810   1.054   3.241
10550TIP3    H131595   6.875   0.984   3.241
10550TIP3    H231596   6.758   1.039   3.319
10551TIP3   OH231597   3.929   1.265   2.745
10551TIP3    H131598   3.907   1.282   2.836
10551TIP3    H231599   3.869   1.196   2.718
10552TIP3   OH231600   1.803   4.570   0.395
10552TIP3    H131601   1.718   4.538   0.365
10552TIP3    H231602   1.865   4.537   0.330
10553TIP3   OH231603   4.296   0.309   6.757
10553TIP3    H131604   4.228   0.284   6.696
10553TIP3    H231605   4.322   0.397   6.730
10554TIP3   OH231606   6.487   4.391   3.302
10554TIP3    H131607   6.487   4.316   3.362
10554TIP3    H231608   6.450   4.463   3.354
10555TIP3   OH231609   5.022   0.350   3.843
10555TIP3    H131610   5.071   0.268   3.834
10555TIP3    H231611   4.946   0.327   3.896
10556TIP3   OH231612   7.814   1.796   1.117
10556TIP3    H131613   7.818   1.883   1.077
10556TIP3    H231614   7.734   1.757   1.082
10557TIP3   OH231615   5.161   4.809   3.490
10557TIP3    H131616   5.235   4.869   3.480
10557TIP3    H231617   5.084   4.862   3.469
10558TIP3   OH231618   2.912   3.331   0.431
10558TIP3    H131619   2.874   3.258   0.382
10558TIP3    H231620   2.991   3.354   0.382
10559TIP3   OH231621   3.650   2.423   3.333
10559TIP3    H131622   3.658   2.516   3.356
10559TIP3    H231623   3.565   2.397   3.369
10560TIP3   OH231624   0.685   5.909   2.731
10560TIP3    H131625   0.675   5.821   2.766
10560TIP3    H231626   0.656   5.903   2.641
10561TIP3   OH231627   6.875   7.590   2.730
10561TIP3    H131628   6.917   7.591   2.644
10561TIP3    H231629   6.817   7.514   2.728
10562TIP3   OH231630   1.245   5.522   3.013
10562TIP3    H131631   1.339   5.522   2.994
10562TIP3    H231632   1.221   5.614   3.021
10563TIP3   OH231633   3.843   0.871   3.325
10563TIP3    H131634   3.795   0.883   3.406
10563TIP3    H231635   3.898   0.794   3.340
10564TIP3   OH231636   6.193   3.948   0.402
10564TIP3    H131637   6.220   3.928   0.491
10564TIP3    H231638   6.166   3.864   0.365
10565TIP3   OH231639   2.311   1.999   3.497
10565TIP3    H131640   2.313   1.908   3.467
10565TIP3    H231641   2.387   2.007   3.554
10566TIP3   OH231642   6.258   3.222   1.991
10566TIP3    H131643   6.235   3.221   1.898
10566TIP3    H231644   6.295   3.136   2.007
10567TIP3   OH231645   4.266   7.276   5.464
10567TIP3    H131646   4.244   7.297   5.554
10567TIP3    H231647   4.345   7.327   5.446
10568TIP3   OH231648   0.708   5.480   4.497
10568TIP3    H131649   0.736   5.427   4.423
10568TIP3    H231650   0.728   5.426   4.574
10569TIP3   OH231651   2.761   3.830   2.280
10569TIP3    H131652   2.837   3.884   2.258
10569TIP3    H231653   2.798   3.757   2.330
10570TIP3   OH231654   5.609   5.904   0.987
10570TIP3    H131655   5.553   5.852   1.045
10570TIP3    H231656   5.682   5.931   1.042
10571TIP3   OH231657   0.228   4.117   3.090
10571TIP3    H131658   0.235   4.123   2.994
10571TIP3    H231659   0.144   4.073   3.104
10572TIP3   OH231660   7.273   4.682   4.612
10572TIP3    H131661   7.230   4.766   4.594
10572TIP3    H231662   7.214   4.617   4.575
10573TIP3   OH231663   7.529   1.290   1.929
10573TIP3    H131664   7.617   1.256   1.940
10573TIP3    H231665   7.519   1.300   1.834
10574TIP3   OH231666   4.758   0.123   2.998
10574TIP3    H131667   4.719   0.130   3.085
10574TIP3    H231668   4.742   0.208   2.957
10575TIP3   OH231669   7.156   2.264   6.176
10575TIP3    H131670   7.134   2.273   6.083
10575TIP3    H231671   7.095   2.198   6.209
10576TIP3   OH231672   3.492   0.355   4.236
10576TIP3    H131673   3.462   0.374   4.325
10576TIP3    H231674   3.433   0.405   4.180
10577TIP3   OH231675   5.018   7.682   5.689
10577TIP3    H131676   5.031   7.756   5.748
10577TIP3    H231677   5.050   7.606   5.738
10578TIP3   OH231678   6.786   1.875   2.128
10578TIP3    H131679   6.803   1.929   2.206
10578TIP3    H231680   6.692   1.882   2.115
10579TIP3   OH231681   5.591   1.483   6.017
10579TIP3    H131682   5.651   1.522   5.953
10579TIP3    H231683   5.544   1.416   5.967
10580TIP3   OH231684   8.048   2.486   1.042
10580TIP3    H131685   8.024   2.432   1.117
10580TIP3    H231686   8.039   2.576   1.074
10581TIP3   OH231687   2.627   5.879   1.181
10581TIP3    H131688   2.573   5.953   1.209
10581TIP3    H231689   2.705   5.885   1.235
10582TIP3   OH231690   5.780   2.198   6.741
10582TIP3    H131691   5.730   2.224   6.818
10582TIP3    H231692   5.787   2.103   6.748
10583TIP3   OH231693   3.797   0.836   6.732
10583TIP3    H131694   3.723   0.880   6.690
10583TIP3    H231695   3.766   0.748   6.750
10584TIP3   OH231696   3.974   6.446   6.279
10584TIP3    H131697   3.954   6.536   6.304
10584TIP3    H231698   3.950   6.440   6.187
10585TIP3   OH231699   6.820   5.168   3.754
10585TIP3    H131700   6.763   5.242   3.773
10585TIP3    H231701   6.882   5.201   3.689
10586TIP3   OH231702   0.477   4.453   0.352
10586TIP3    H131703   0.387   4.423   0.364
10586TIP3    H231704   0.525   4.375   0.323
10587TIP3   OH231705   2.046   6.731   5.066
10587TIP3    H131706   2.074   6.686   4.986
10587TIP3    H231707   2.079   6.820   5.056
10588TIP3   OH231708   2.189   1.227   2.358
10588TIP3    H131709   2.127   1.214   2.430
10588TIP3    H231710   2.170   1.316   2.326
10589TIP3   OH231711   0.318   4.373   6.355
10589TIP3    H131712   0.400   4.333   6.384
10589TIP3    H231713   0.327   4.466   6.376
10590TIP3   OH231714   6.471   6.017   1.229
10590TIP3    H131715   6.457   5.972   1.145
10590TIP3    H231716   6.463   6.110   1.208
10591TIP3   OH231717   1.925   3.180   2.013
10591TIP3    H131718   1.950   3.097   1.973
10591TIP3    H231719   1.998   3.238   1.995
10592TIP3   OH231720   0.096   5.520   0.643
10592TIP3    H131721   0.071   5.607   0.610
10592TIP3    H231722   0.192   5.522   0.646
10593TIP3   OH231723   5.953   4.621   3.572
10593TIP3    H131724   5.859   4.638   3.564
10593TIP3    H231725   5.965   4.532   3.539
10594TIP3   OH231726   6.350   7.198   2.674
10594TIP3    H131727   6.402   7.181   2.596
10594TIP3    H231728   6.300   7.277   2.653
10595TIP3   OH231729   6.525   3.037   2.440
10595TIP3    H131730   6.486   3.002   2.520
10595TIP3    H231731   6.479   3.119   2.425
10596TIP3   OH231732   4.319   4.151   4.741
10596TIP3    H131733   4.244   4.122   4.689
10596TIP3    H231734   4.308   4.245   4.750
10597TIP3   OH231735   8.210   6.268   1.178
10597TIP3    H131736   8.293   6.262   1.131
10597TIP3    H231737   8.217   6.204   1.248
10598TIP3   OH231738   2.118   5.793   2.036
10598TIP3    H131739   2.123   5.784   2.132
10598TIP3    H231740   2.194   5.745   2.004
10599TIP3   OH231741   2.673   3.621   3.989
10599TIP3    H131742   2.701   3.533   4.015
10599TIP3    H231743   2.746   3.677   4.013
10600TIP3   OH231744   6.133   0.181   1.450
10600TIP3    H131745   6.065   0.226   1.400
10600TIP3    H231746   6.100   0.181   1.540
10601TIP3   OH231747   1.264   4.018   0.280
10601TIP3    H131748   1.295   4.018   0.370
10601TIP3    H231749   1.296   3.936   0.243
10602TIP3   OH231750   0.100   4.384   3.823
10602TIP3    H131751   0.044   4.421   3.890
10602TIP3    H231752   0.046   4.381   3.744
10603TIP3   OH231753   2.417   2.388   0.632
10603TIP3    H131754   2.379   2.326   0.570
10603TIP3    H231755   2.449   2.459   0.577
10604TIP3   OH231756   4.150   6.189  -0.028
10604TIP3    H131757   4.130   6.128   0.043
10604TIP3    H231758   4.168   6.272   0.017
10605TIP3   OH231759   7.073   2.708   5.166
10605TIP3    H131760   7.040   2.627   5.127
10605TIP3    H231761   6.995   2.761   5.180
10606TIP3   OH231762   7.582   6.245   3.626
10606TIP3    H131763   7.554   6.251   3.717
10606TIP3    H231764   7.505   6.270   3.575
10607TIP3   OH231765   4.531   3.763   3.653
10607TIP3    H131766   4.539   3.779   3.747
10607TIP3    H231767   4.437   3.754   3.638
10608TIP3   OH231768   8.205   5.847   3.348
10608TIP3    H131769   8.235   5.844   3.257
10608TIP3    H231770   8.284   5.829   3.399
10609TIP3   OH231771   4.024   1.100   1.828
10609TIP3    H131772   4.016   1.025   1.887
10609TIP3    H231773   3.960   1.163   1.861
10610TIP3   OH231774   6.981   5.479   6.401
10610TIP3    H131775   6.915   5.548   6.391
10610TIP3    H231776   7.002   5.453   6.311
10611TIP3   OH231777   4.324   4.058   0.893
10611TIP3    H131778   4.283   4.041   0.808
10611TIP3    H231779   4.252   4.053   0.956
10612TIP3   OH231780   6.347   2.003  -0.021
10612TIP3    H131781   6.335   2.097  -0.033
10612TIP3    H231782   6.441   1.989  -0.037
10613TIP3   OH231783   7.598   5.594   0.283
10613TIP3    H131784   7.568   5.629   0.368
10613TIP3    H231785   7.557   5.508   0.277
10614TIP3   OH231786   6.096   5.697   1.189
10614TIP3    H131787   6.070   5.664   1.275
10614TIP3    H231788   6.030   5.661   1.129
10615TIP3   OH231789   3.024   1.454   6.202
10615TIP3    H131790   3.012   1.359   6.202
10615TIP3    H231791   3.101   1.469   6.147
10616TIP3   OH231792   7.709   1.487   2.484
10616TIP3    H131793   7.724   1.510   2.576
10616TIP3    H231794   7.682   1.568   2.443
10617TIP3   OH231795   0.392   4.379   5.980
10617TIP3    H131796   0.369   4.390   5.888
10617TIP3    H231797   0.488   4.370   5.979
10618TIP3   OH231798   6.882   3.941   0.861
10618TIP3    H131799   6.843   4.013   0.910
10618TIP3    H231800   6.974   3.939   0.890
10619TIP3   OH231801   1.730   1.905   5.727
10619TIP3    H131802   1.668   1.863   5.668
10619TIP3    H231803   1.682   1.980   5.762
10620TIP3   OH231804   6.762   5.580   1.359
10620TIP3    H131805   6.815   5.640   1.307
10620TIP3    H231806   6.782   5.603   1.450
10621TIP3   OH231807   2.059   0.286   6.638
10621TIP3    H131808   1.983   0.247   6.594
10621TIP3    H231809   2.021   0.345   6.704
10622TIP3   OH231810   2.912   7.730   3.484
10622TIP3    H131811   2.900   7.793   3.555
10622TIP3    H231812   2.896   7.645   3.524
10623TIP3   OH231813   2.003   4.510   3.552
10623TIP3    H131814   2.025   4.422   3.583
10623TIP3    H231815   1.979   4.558   3.631
10624TIP3   OH231816   0.389   6.354   0.560
10624TIP3    H131817   0.387   6.320   0.470
10624TIP3    H231818   0.480   6.378   0.574
10625TIP3   OH231819   0.085   2.309   3.517
10625TIP3    H131820   0.032   2.232   3.539
10625TIP3    H231821   0.162   2.301   3.573
10626TIP3   OH231822   5.846   3.589   1.574
10626TIP3    H131823   5.789   3.625   1.506
10626TIP3    H231824   5.831   3.646   1.650
10627TIP3   OH231825   5.783   6.444   1.268
10627TIP3    H131826   5.865   6.447   1.318
10627TIP3    H231827   5.808   6.470   1.179
10628TIP3   OH231828   6.739   5.652   5.635
10628TIP3    H131829   6.790   5.683   5.710
10628TIP3    H231830   6.780   5.568   5.612
10629TIP3   OH231831   6.013   6.192   5.052
10629TIP3    H131832   6.066   6.199   5.132
10629TIP3    H231833   5.923   6.197   5.082
10630TIP3   OH231834   7.639   2.942   4.653
10630TIP3    H131835   7.619   3.007   4.721
10630TIP3    H231836   7.734   2.933   4.656
10631TIP3   OH231837   2.047   7.653   1.687
10631TIP3    H131838   1.963   7.608   1.689
10631TIP3    H231839   2.076   7.644   1.596
10632TIP3   OH231840   0.670   3.120   5.433
10632TIP3    H131841   0.647   3.035   5.472
10632TIP3    H231842   0.602   3.134   5.366
10633TIP3   OH231843   0.541   6.160   3.912
10633TIP3    H131844   0.503   6.198   3.991
10633TIP3    H231845   0.480   6.182   3.843
10634TIP3   OH231846   0.491   7.038   4.225
10634TIP3    H131847   0.547   7.043   4.148
10634TIP3    H231848   0.552   7.018   4.297
10635TIP3   OH231849   6.891   2.611   6.037
10635TIP3    H131850   6.910   2.626   6.130
10635TIP3    H231851   6.795   2.600   6.034
10636TIP3   OH231852   5.887   5.747   6.629
10636TIP3    H131853   5.892   5.726   6.722
10636TIP3    H231854   5.978   5.752   6.600
10637TIP3   OH231855   4.783   0.745   3.111
10637TIP3    H131856   4.815   0.757   3.022
10637TIP3    H231857   4.830   0.811   3.162
10638TIP3   OH231858   6.041   7.641   5.653
10638TIP3    H131859   6.106   7.675   5.715
10638TIP3    H231860   6.091   7.580   5.598
10639TIP3   OH231861   1.410   4.628   2.286
10639TIP3    H131862   1.483   4.589   2.335
10639TIP3    H231863   1.333   4.611   2.340
10640TIP3   OH231864   4.224   0.109   3.364
10640TIP3    H131865   4.174   0.118   3.446
10640TIP3    H231866   4.315   0.111   3.392
10641TIP3   OH231867   7.395   2.433   0.585
10641TIP3    H131868   7.323   2.371   0.596
10641TIP3    H231869   7.463   2.382   0.541
10642TIP3   OH231870   1.541   7.416   6.649
10642TIP3    H131871   1.512   7.327   6.669
10642TIP3    H231872   1.462   7.468   6.650
10643TIP3   OH231873   7.159   1.442   1.706
10643TIP3    H131874   7.120   1.402   1.628
10643TIP3    H231875   7.196   1.524   1.674
10644TIP3   OH231876   7.188   0.437   0.030
10644TIP3    H131877   7.179   0.346   0.001
10644TIP3    H231878   7.207   0.485  -0.051
10645TIP3   OH231879   7.739   0.523   6.537
10645TIP3    H131880   7.757   0.616   6.546
10645TIP3    H231881   7.789   0.482   6.608
10646TIP3   OH231882   3.693   7.635   4.681
10646TIP3    H131883   3.774   7.684   4.696
10646TIP3    H231884   3.658   7.672   4.600
10647TIP3   OH231885   5.701   4.719   1.752
10647TIP3    H131886   5.691   4.681   1.665
10647TIP3    H231887   5.781   4.771   1.747
10648TIP3   OH231888   6.774   1.212   3.909
10648TIP3    H131889   6.695   1.267   3.905
10648TIP3    H231890   6.762   1.146   3.841
10649TIP3   OH231891   4.089   3.840   5.835
10649TIP3    H131892   4.038   3.905   5.786
10649TIP3    H231893   4.170   3.831   5.784
10650TIP3   OH231894   0.423   3.366   6.765
10650TIP3    H131895   0.349   3.360   6.705
10650TIP3    H231896   0.457   3.455   6.754
10651TIP3   OH231897   7.790   4.017   2.605
10651TIP3    H131898   7.819   4.084   2.544
10651TIP3    H231899   7.872   3.979   2.639
10652TIP3   OH231900   1.717   4.941   5.074
10652TIP3    H131901   1.806   4.946   5.110
10652TIP3    H231902   1.689   4.851   5.092
10653TIP3   OH231903   6.812   3.734   1.471
10653TIP3    H131904   6.778   3.823   1.465
10653TIP3    H231905   6.773   3.688   1.397
10654TIP3   OH231906   3.642   4.198   6.199
10654TIP3    H131907   3.676   4.115   6.231
10654TIP3    H231908   3.597   4.176   6.117
10655TIP3   OH231909   8.097   0.563   0.042
10655TIP3    H131910   8.142   0.480   0.055
10655TIP3    H231911   8.021   0.540  -0.012
10656TIP3   OH231912   7.653   0.185   2.249
10656TIP3    H131913   7.601   0.106   2.260
10656TIP3    H231914   7.593   0.248   2.208
10657TIP3   OH231915   0.583   0.061   1.289
10657TIP3    H131916   0.614  -0.026   1.262
10657TIP3    H231917   0.664   0.111   1.301
10658TIP3   OH231918   1.599   4.354   4.998
10658TIP3    H131919   1.609   4.409   4.920
10658TIP3    H231920   1.530   4.292   4.975
10659TIP3   OH231921   0.807   5.313   4.246
10659TIP3    H131922   0.766   5.279   4.167
10659TIP3    H231923   0.866   5.244   4.274
10660TIP3   OH231924   4.746   6.426   2.274
10660TIP3    H131925   4.820   6.365   2.282
10660TIP3    H231926   4.720   6.420   2.182
10661TIP3   OH231927   2.515   1.161   4.997
10661TIP3    H131928   2.542   1.127   4.912
10661TIP3    H231929   2.515   1.256   4.986
10662TIP3   OH231930   3.434   2.703   1.429
10662TIP3    H131931   3.341   2.690   1.450
10662TIP3    H231932   3.481   2.652   1.495
10663TIP3   OH231933   0.888   0.315   1.909
10663TIP3    H131934   0.886   0.326   2.004
10663TIP3    H231935   0.907   0.403   1.876
10664TIP3   OH231936   2.332   3.047   4.276
10664TIP3    H131937   2.421   3.059   4.310
10664TIP3    H231938   2.276   3.093   4.338
10665TIP3   OH231939   6.016   4.784   2.328
10665TIP3    H131940   5.963   4.864   2.327
10665TIP3    H231941   5.953   4.714   2.343
10666TIP3   OH231942   6.849   1.722   0.935
10666TIP3    H131943   6.849   1.639   0.983
10666TIP3    H231944   6.756   1.739   0.917
10667TIP3   OH231945   4.573   3.543   2.195
10667TIP3    H131946   4.523   3.587   2.126
10667TIP3    H231947   4.657   3.588   2.196
10668TIP3   OH231948   4.651   3.595   3.189
10668TIP3    H131949   4.687   3.675   3.228
10668TIP3    H231950   4.559   3.615   3.173
10669TIP3   OH231951   6.316   6.407   6.291
10669TIP3    H131952   6.287   6.461   6.217
10669TIP3    H231953   6.237   6.362   6.321
10670TIP3   OH231954   2.174   5.867   3.217
10670TIP3    H131955   2.211   5.885   3.304
10670TIP3    H231956   2.131   5.782   3.227
10671TIP3   OH231957   7.761   6.875   0.548
10671TIP3    H131958   7.832   6.836   0.599
10671TIP3    H231959   7.698   6.804   0.536
10672TIP3   OH231960   6.747   0.814   0.741
10672TIP3    H131961   6.694   0.854   0.811
10672TIP3    H231962   6.683   0.789   0.675
10673TIP3   OH231963   0.717   4.524   4.222
10673TIP3    H131964   0.652   4.489   4.161
10673TIP3    H231965   0.701   4.478   4.304
10674TIP3   OH231966   6.351   1.203   3.531
10674TIP3    H131967   6.390   1.115   3.533
10674TIP3    H231968   6.280   1.197   3.467
10675TIP3   OH231969   0.449   5.571   4.877
10675TIP3    H131970   0.377   5.551   4.817
10675TIP3    H231971   0.412   5.557   4.965
10676TIP3   OH231972   6.445   1.259   2.618
10676TIP3    H131973   6.387   1.292   2.549
10676TIP3    H231974   6.471   1.338   2.666
10677TIP3   OH231975   6.229   7.420   1.605
10677TIP3    H131976   6.220   7.460   1.519
10677TIP3    H231977   6.250   7.493   1.663
10678TIP3   OH231978   4.768   2.062   0.906
10678TIP3    H131979   4.775   1.974   0.942
10678TIP3    H231980   4.858   2.094   0.902
10679TIP3   OH231981   4.704   3.560   1.802
10679TIP3    H131982   4.794   3.534   1.822
10679TIP3    H231983   4.685   3.516   1.719
10680TIP3   OH231984   1.632   4.278   5.441
10680TIP3    H131985   1.599   4.330   5.368
10680TIP3    H231986   1.656   4.194   5.402
10681TIP3   OH231987   4.367   4.409   0.095
10681TIP3    H131988   4.313   4.456   0.159
10681TIP3    H231989   4.363   4.463   0.016
10682TIP3   OH231990   2.813   6.951   5.249
10682TIP3    H131991   2.836   6.936   5.157
10682TIP3    H231992   2.721   6.977   5.246
10683TIP3   OH231993   4.741   5.450   2.752
10683TIP3    H131994   4.739   5.406   2.667
10683TIP3    H231995   4.730   5.543   2.731
10684TIP3   OH231996   7.979   5.430   0.264
10684TIP3    H131997   7.986   5.524   0.278
10684TIP3    H231998   7.983   5.419   0.169
10685TIP3   OH231999   0.873   0.226   0.740
10685TIP3    H132000   0.905   0.224   0.831
10685TIP3    H232001   0.943   0.270   0.692
10686TIP3   OH232002   7.417   2.625   2.589
10686TIP3    H132003   7.375   2.667   2.514
10686TIP3    H232004   7.490   2.576   2.551
10687TIP3   OH232005   7.317   3.221   0.369
10687TIP3    H132006   7.377   3.155   0.404
10687TIP3    H232007   7.254   3.235   0.440
10688TIP3   OH232008   5.548   0.529   5.043
10688TIP3    H132009   5.495   0.605   5.066
10688TIP3    H232010   5.490   0.454   5.055
10689TIP3   OH232011   7.407   0.592   1.268
10689TIP3    H132012   7.499   0.577   1.249
10689TIP3    H232013   7.378   0.653   1.201
10690TIP3   OH232014   0.143   7.590   4.352
10690TIP3    H132015   0.071   7.595   4.415
10690TIP3    H232016   0.145   7.677   4.311
10691TIP3   OH232017   5.070   3.142   0.983
10691TIP3    H132018   5.049   3.055   0.948
10691TIP3    H232019   5.077   3.198   0.905
10692TIP3   OH232020   4.780   7.006   2.794
10692TIP3    H132021   4.766   6.918   2.758
10692TIP3    H232022   4.788   6.992   2.888
10693TIP3   OH232023   3.470   1.816   0.028
10693TIP3    H132024   3.479   1.851  -0.061
10693TIP3    H232025   3.420   1.883   0.075
10694TIP3   OH232026   1.999   5.798   0.660
10694TIP3    H132027   2.045   5.879   0.683
10694TIP3    H232028   1.907   5.819   0.676
10695TIP3   OH232029   5.970   1.192   3.870
10695TIP3    H132030   6.037   1.260   3.873
10695TIP3    H232031   5.963   1.161   3.961
10696TIP3   OH232032   6.056   3.052   1.630
10696TIP3    H132033   6.070   3.144   1.609
10696TIP3    H232034   5.986   3.053   1.695
10697TIP3   OH232035   2.691   0.178   2.662
10697TIP3    H132036   2.786   0.168   2.664
10697TIP3    H232037   2.661   0.141   2.744
10698TIP3   OH232038   0.521   6.787   3.985
10698TIP3    H132039   0.491   6.717   4.043
10698TIP3    H232040   0.600   6.820   4.027
10699TIP3   OH232041   7.145   7.546   4.423
10699TIP3    H132042   7.100   7.617   4.468
10699TIP3    H232043   7.193   7.589   4.352
10700TIP3   OH232044   2.980   7.529   1.074
10700TIP3    H132045   2.964   7.603   1.134
10700TIP3    H232046   2.984   7.570   0.987
10701TIP3   OH232047   2.699   2.058   5.397
10701TIP3    H132048   2.782   2.078   5.441
10701TIP3    H232049   2.648   2.139   5.403
10702TIP3   OH232050   7.830   2.093   6.546
10702TIP3    H132051   7.799   2.006   6.570
10702TIP3    H232052   7.916   2.078   6.508
10703TIP3   OH232053   3.226   6.561   4.067
10703TIP3    H132054   3.195   6.615   3.994
10703TIP3    H232055   3.168   6.583   4.139
10704TIP3   OH232056   7.290   4.142   0.317
10704TIP3    H132057   7.315   4.188   0.238
10704TIP3    H232058   7.371   4.102   0.349
10705TIP3   OH232059   3.886   4.196   2.250
10705TIP3    H132060   3.831   4.205   2.172
10705TIP3    H232061   3.913   4.286   2.271
10706TIP3   OH232062   6.702   2.240   2.740
10706TIP3    H132063   6.770   2.209   2.800
10706TIP3    H232064   6.620   2.223   2.787
10707TIP3   OH232065   4.332   4.801   2.335
10707TIP3    H132066   4.266   4.826   2.399
10707TIP3    H232067   4.293   4.727   2.288
10708TIP3   OH232068   1.782   0.248   5.665
10708TIP3    H132069   1.691   0.223   5.680
10708TIP3    H232070   1.780   0.300   5.584
10709TIP3   OH232071   8.050   6.074   4.192
10709TIP3    H132072   7.983   6.004   4.190
10709TIP3    H232073   8.077   6.084   4.101
10710TIP3   OH232074   0.393   4.735   4.401
10710TIP3    H132075   0.397   4.647   4.439
10710TIP3    H232076   0.458   4.785   4.451
10711TIP3   OH232077   3.308   2.604   1.081
10711TIP3    H132078   3.346   2.517   1.096
10711TIP3    H232079   3.361   2.640   1.009
10712TIP3   OH232080   5.131   6.908   2.546
10712TIP3    H132081   5.074   6.918   2.470
10712TIP3    H232082   5.132   6.995   2.587
10713TIP3   OH232083   7.597   4.235   1.802
10713TIP3    H132084   7.524   4.250   1.862
10713TIP3    H232085   7.640   4.321   1.795
10714TIP3   OH232086   7.138   1.892   3.863
10714TIP3    H132087   7.172   1.812   3.825
10714TIP3    H232088   7.045   1.894   3.838
10715TIP3   OH232089   1.220   4.560   2.478
10715TIP3    H132090   1.188   4.566   2.568
10715TIP3    H232091   1.144   4.535   2.427
10716TIP3   OH232092   4.441   3.842   0.154
10716TIP3    H132093   4.394   3.759   0.163
10716TIP3    H232094   4.533   3.820   0.173
10717TIP3   OH232095   5.188   3.998   5.631
10717TIP3    H132096   5.195   3.933   5.560
10717TIP3    H232097   5.120   4.058   5.602
10718TIP3   OH232098   2.665   0.109   0.934
10718TIP3    H132099   2.702   0.061   1.009
10718TIP3    H232100   2.611   0.044   0.889
10719TIP3   OH232101   5.653   4.064   1.487
10719TIP3    H132102   5.654   4.091   1.395
10719TIP3    H232103   5.743   4.039   1.506
10720TIP3   OH232104   0.990   4.916   1.269
10720TIP3    H132105   1.068   4.910   1.325
10720TIP3    H232106   0.961   4.825   1.259
10721TIP3   OH232107   1.261   2.882   0.557
10721TIP3    H132108   1.344   2.835   0.549
10721TIP3    H232109   1.194   2.814   0.556
10722TIP3   OH232110   6.745   7.025   3.711
10722TIP3    H132111   6.716   7.107   3.670
10722TIP3    H232112   6.816   6.994   3.655
10723TIP3   OH232113   0.170   4.309   1.624
10723TIP3    H132114   0.175   4.369   1.550
10723TIP3    H232115   0.078   4.311   1.651
10724TIP3   OH232116   6.346   2.551   3.896
10724TIP3    H132117   6.315   2.587   3.813
10724TIP3    H232118   6.288   2.477   3.913
10725TIP3   OH232119   4.655   0.748   6.023
10725TIP3    H132120   4.635   0.757   6.116
10725TIP3    H232121   4.720   0.677   6.019
10726TIP3   OH232122   5.229   6.659   0.987
10726TIP3    H132123   5.175   6.611   1.051
10726TIP3    H232124   5.225   6.750   1.016
10727TIP3   OH232125   0.764   0.771   5.464
10727TIP3    H132126   0.782   0.784   5.557
10727TIP3    H232127   0.782   0.679   5.448
10728TIP3   OH232128   3.950   3.135   5.482
10728TIP3    H132129   3.857   3.136   5.508
10728TIP3    H232130   3.975   3.227   5.484
10729TIP3   OH232131   2.397   0.522   1.034
10729TIP3    H132132   2.374   0.555   0.947
10729TIP3    H232133   2.346   0.442   1.043
10730TIP3   OH232134   6.485   4.043   4.795
10730TIP3    H132135   6.448   4.099   4.727
10730TIP3    H232136   6.409   4.001   4.836
10731TIP3   OH232137   3.179   6.412   5.393
10731TIP3    H132138   3.177   6.391   5.299
10731TIP3    H232139   3.207   6.330   5.434
10732TIP3   OH232140   1.919   3.504   3.696
10732TIP3    H132141   1.950   3.421   3.733
10732TIP3    H232142   1.895   3.482   3.606
10733TIP3   OH232143   1.593   7.136   4.252
10733TIP3    H132144   1.684   7.133   4.223
10733TIP3    H232145   1.593   7.193   4.329
10734TIP3   OH232146   6.585   5.241   4.846
10734TIP3    H132147   6.580   5.260   4.940
10734TIP3    H232148   6.501   5.200   4.825
10735TIP3   OH232149   4.400   6.949   3.916
10735TIP3    H132150   4.490   6.916   3.912
10735TIP3    H232151   4.402   7.031   3.866
10736TIP3   OH232152   2.416   7.511   4.941
10736TIP3    H132153   2.491   7.492   4.997
10736TIP3    H232154   2.401   7.431   4.891
10737TIP3   OH232155   0.367   4.380   5.709
10737TIP3    H132156   0.297   4.353   5.651
10737TIP3    H232157   0.445   4.382   5.653
10738TIP3   OH232158   4.611   7.673   2.086
10738TIP3    H132159   4.555   7.625   2.025
10738TIP3    H232160   4.654   7.739   2.032
10739TIP3   OH232161   6.522   3.091   1.766
10739TIP3    H132162   6.437   3.072   1.727
10739TIP3    H232163   6.543   3.012   1.816
10740TIP3   OH232164   5.915   6.025   1.816
10740TIP3    H132165   6.010   6.034   1.817
10740TIP3    H232166   5.882   6.114   1.826
10741TIP3   OH232167   3.309   1.652   2.672
10741TIP3    H132168   3.298   1.661   2.577
10741TIP3    H232169   3.284   1.738   2.706
10742TIP3   OH232170   1.321   5.510   3.864
10742TIP3    H132171   1.261   5.474   3.798
10742TIP3    H232172   1.342   5.598   3.832
10743TIP3   OH232173   6.638   1.423   6.601
10743TIP3    H132174   6.576   1.477   6.651
10743TIP3    H232175   6.667   1.356   6.664
10744TIP3   OH232176   1.703   5.691   5.017
10744TIP3    H132177   1.663   5.716   5.100
10744TIP3    H232178   1.747   5.771   4.987
10745TIP3   OH232179   8.159   0.823   0.239
10745TIP3    H132180   8.084   0.851   0.187
10745TIP3    H232181   8.146   0.729   0.251
10746TIP3   OH232182   4.044   6.148   4.499
10746TIP3    H132183   4.027   6.210   4.429
10746TIP3    H232184   4.058   6.202   4.576
10747TIP3   OH232185   3.724   0.191   5.164
10747TIP3    H132186   3.803   0.138   5.173
10747TIP3    H232187   3.724   0.220   5.073
10748TIP3   OH232188   7.551   4.736   2.659
10748TIP3    H132189   7.510   4.666   2.710
10748TIP3    H232190   7.527   4.816   2.705
10749TIP3   OH232191   4.021   2.203   2.831
10749TIP3    H132192   3.952   2.220   2.894
10749TIP3    H232193   3.998   2.119   2.792
10750TIP3   OH232194   0.066   5.147   2.828
10750TIP3    H132195   0.156   5.115   2.833
10750TIP3    H232196   0.039   5.130   2.738
10751TIP3   OH232197   3.302   7.660   6.550
10751TIP3    H132198   3.209   7.646   6.531
10751TIP3    H232199   3.303   7.731   6.614
10752TIP3   OH232200   6.677   6.469   1.154
10752TIP3    H132201   6.593   6.487   1.111
10752TIP3    H232202   6.652   6.427   1.236
10753TIP3   OH232203   7.441   4.247   3.867
10753TIP3    H132204   7.510   4.254   3.932
10753TIP3    H232205   7.413   4.156   3.869
10754TIP3   OH232206   2.722   4.067   3.724
10754TIP3    H132207   2.791   4.126   3.753
10754TIP3    H232208   2.646   4.091   3.776
10755TIP3   OH232209   3.925   0.112   6.694
10755TIP3    H132210   3.999   0.172   6.684
10755TIP3    H232211   3.861   0.143   6.631
10756TIP3   OH232212   7.124   4.124   3.619
10756TIP3    H132213   7.169   4.192   3.569
10756TIP3    H232214   7.101   4.166   3.701
10757TIP3   OH232215   1.405   3.758   0.340
10757TIP3    H132216   1.369   3.673   0.366
10757TIP3    H232217   1.472   3.737   0.275
10758TIP3   OH232218   1.455   1.570   6.211
10758TIP3    H132219   1.484   1.642   6.155
10758TIP3    H232220   1.464   1.492   6.157
10759TIP3   OH232221   3.194   4.592   0.902
10759TIP3    H132222   3.288   4.574   0.897
10759TIP3    H232223   3.184   4.680   0.866
10760TIP3   OH232224   3.438   6.782   2.352
10760TIP3    H132225   3.378   6.790   2.278
10760TIP3    H232226   3.391   6.820   2.426
10761TIP3   OH232227   1.729   0.304   2.278
10761TIP3    H132228   1.634   0.303   2.272
10761TIP3    H232229   1.750   0.240   2.347
10762TIP3   OH232230   7.262   3.888   1.908
10762TIP3    H132231   7.216   3.814   1.869
10762TIP3    H232232   7.348   3.853   1.931
10763TIP3   OH232233   3.372   5.370   6.193
10763TIP3    H132234   3.453   5.402   6.233
10763TIP3    H232235   3.344   5.297   6.249
10764TIP3   OH232236   2.083   6.020   4.045
10764TIP3    H132237   2.027   6.058   3.978
10764TIP3    H232238   2.158   5.984   3.997
10765TIP3   OH232239   7.960   6.932   5.359
10765TIP3    H132240   7.984   7.003   5.300
10765TIP3    H232241   7.870   6.909   5.334
10766TIP3   OH232242   2.385   5.719   5.938
10766TIP3    H132243   2.292   5.701   5.947
10766TIP3    H232244   2.423   5.636   5.907
10767TIP3   OH232245   3.965   4.491   3.948
10767TIP3    H132246   3.930   4.563   3.895
10767TIP3    H232247   3.971   4.528   4.036
10768TIP3   OH232248   3.193   6.970   3.358
10768TIP3    H132249   3.163   7.025   3.430
10768TIP3    H232250   3.248   7.027   3.305
10769TIP3   OH232251   7.260   4.335   3.500
10769TIP3    H132252   7.350   4.327   3.534
10769TIP3    H232253   7.243   4.429   3.501
10770TIP3   OH232254   5.966   5.689   4.619
10770TIP3    H132255   6.013   5.611   4.650
10770TIP3    H232256   5.926   5.726   4.698
10771TIP3   OH232257   7.262   5.112   6.401
10771TIP3    H132258   7.289   5.145   6.315
10771TIP3    H232259   7.167   5.101   6.393
10772TIP3   OH232260   5.783   5.774   4.200
10772TIP3    H132261   5.839   5.845   4.231
10772TIP3    H232262   5.705   5.819   4.165
10773TIP3   OH232263   5.262   2.061   2.417
10773TIP3    H132264   5.298   2.031   2.501
10773TIP3    H232265   5.217   2.143   2.439
10774TIP3   OH232266   6.778   3.818   0.628
10774TIP3    H132267   6.804   3.840   0.717
10774TIP3    H232268   6.825   3.880   0.573
10775TIP3   OH232269   1.781   3.966   6.408
10775TIP3    H132270   1.733   3.963   6.326
10775TIP3    H232271   1.873   3.978   6.382
10776TIP3   OH232272   2.369   5.319   6.567
10776TIP3    H132273   2.274   5.312   6.574
10776TIP3    H232274   2.403   5.263   6.636
10777TIP3   OH232275   1.977   2.267   5.364
10777TIP3    H132276   1.923   2.340   5.392
10777TIP3    H232277   2.060   2.306   5.338
10778TIP3   OH232278   2.012   3.563   2.327
10778TIP3    H132279   2.107   3.550   2.333
10778TIP3    H232280   2.003   3.652   2.293
10779TIP3   OH232281   3.958   6.925   2.945
10779TIP3    H132282   3.923   7.013   2.960
10779TIP3    H232283   4.052   6.934   2.957
10780TIP3   OH232284   4.402   0.123   4.426
10780TIP3    H132285   4.464   0.196   4.424
10780TIP3    H232286   4.327   0.157   4.475
10781TIP3   OH232287   7.611   0.110   4.727
10781TIP3    H132288   7.588   0.113   4.634
10781TIP3    H232289   7.583   0.195   4.762
10782TIP3   OH232290   3.349   4.272   0.056
10782TIP3    H132291   3.321   4.361   0.079
10782TIP3    H232292   3.281   4.241  -0.004
10783TIP3   OH232293   7.941   3.111   0.649
10783TIP3    H132294   7.972   3.022   0.662
10783TIP3    H232295   7.907   3.112   0.559
10784TIP3   OH232296   2.034   1.196   5.117
10784TIP3    H132297   1.946   1.165   5.138
10784TIP3    H232298   2.054   1.156   5.032
10785TIP3   OH232299   3.645   6.928   4.792
10785TIP3    H132300   3.729   6.916   4.749
10785TIP3    H232301   3.663   6.914   4.885
10786TIP3   OH232302   4.291   2.925   2.582
10786TIP3    H132303   4.313   2.987   2.651
10786TIP3    H232304   4.260   2.847   2.628
10787TIP3   OH232305   4.364   7.377   4.324
10787TIP3    H132306   4.439   7.437   4.323
10787TIP3    H232307   4.370   7.333   4.408
10788TIP3   OH232308   8.116   0.368   3.799
10788TIP3    H132309   8.140   0.459   3.782
10788TIP3    H232310   8.030   0.358   3.759
10789TIP3   OH232311   5.286   1.160   1.853
10789TIP3    H132312   5.246   1.073   1.847
10789TIP3    H232313   5.332   1.159   1.937
10790TIP3   OH232314   2.043   2.441   3.336
10790TIP3    H132315   2.058   2.390   3.256
10790TIP3    H232316   1.980   2.508   3.310
10791TIP3   OH232317   4.486   6.245   1.456
10791TIP3    H132318   4.441   6.230   1.540
10791TIP3    H232319   4.577   6.262   1.480
10792TIP3   OH232320   1.268   1.636   1.103
10792TIP3    H132321   1.239   1.684   1.181
10792TIP3    H232322   1.248   1.695   1.030
10793TIP3   OH232323   8.259   5.495   3.233
10793TIP3    H132324   8.339   5.502   3.286
10793TIP3    H232325   8.189   5.520   3.293
10794TIP3   OH232326   6.510   5.489   1.105
10794TIP3    H132327   6.594   5.484   1.061
10794TIP3    H232328   6.520   5.434   1.182
10795TIP3   OH232329   5.086   5.619   6.404
10795TIP3    H132330   5.034   5.644   6.480
10795TIP3    H232331   5.174   5.607   6.438
10796TIP3   OH232332   5.549   3.074   0.869
10796TIP3    H132333   5.498   3.156   0.867
10796TIP3    H232334   5.482   3.005   0.868
10797TIP3   OH232335   0.166   2.643   4.593
10797TIP3    H132336   0.161   2.739   4.592
10797TIP3    H232337   0.089   2.615   4.543
10798TIP3   OH232338   2.919   4.320   5.455
10798TIP3    H132339   2.942   4.404   5.416
10798TIP3    H232340   2.968   4.255   5.404
10799TIP3   OH232341   7.304   6.600   1.452
10799TIP3    H132342   7.302   6.528   1.389
10799TIP3    H232343   7.393   6.596   1.489
10800TIP3   OH232344   0.707   6.344   5.301
10800TIP3    H132345   0.775   6.373   5.241
10800TIP3    H232346   0.646   6.295   5.245
10801TIP3   OH232347   5.109   5.549   4.725
10801TIP3    H132348   5.052   5.566   4.650
10801TIP3    H232349   5.061   5.484   4.776
10802TIP3   OH232350   6.909   2.560   1.010
10802TIP3    H132351   6.815   2.572   1.027
10802TIP3    H232352   6.945   2.534   1.095
10803TIP3   OH232353   3.307   7.358   2.855
10803TIP3    H132354   3.320   7.410   2.775
10803TIP3    H232355   3.223   7.314   2.841
10804TIP3   OH232356   4.597   6.431   0.163
10804TIP3    H132357   4.637   6.352   0.200
10804TIP3    H232358   4.542   6.399   0.092
10805TIP3   OH232359   4.470   0.265   0.424
10805TIP3    H132360   4.383   0.266   0.386
10805TIP3    H232361   4.529   0.252   0.350
10806TIP3   OH232362   0.027   5.005   1.664
10806TIP3    H132363   0.007   5.098   1.652
10806TIP3    H232364   0.095   4.986   1.600
10807TIP3   OH232365   0.452   6.624   4.208
10807TIP3    H132366   0.534   6.633   4.256
10807TIP3    H232367   0.387   6.606   4.276
10808TIP3   OH232368   6.048   1.191   2.891
10808TIP3    H132369   6.071   1.177   2.799
10808TIP3    H232370   5.965   1.239   2.888
10809TIP3   OH232371   1.532   7.635   2.605
10809TIP3    H132372   1.628   7.631   2.611
10809TIP3    H232373   1.515   7.701   2.538
10810TIP3   OH232374   6.683   0.223   1.435
10810TIP3    H132375   6.593   0.255   1.436
10810TIP3    H232376   6.681   0.145   1.380
10811TIP3   OH232377   4.545   6.670   2.355
10811TIP3    H132378   4.533   6.581   2.389
10811TIP3    H232379   4.461   6.713   2.372
10812TIP3   OH232380   0.279   3.605   1.823
10812TIP3    H132381   0.254   3.543   1.891
10812TIP3    H232382   0.227   3.579   1.747
10813TIP3   OH232383   1.989   5.244   5.375
10813TIP3    H132384   2.061   5.256   5.437
10813TIP3    H232385   1.949   5.331   5.369
10814TIP3   OH232386   2.030   0.789   2.841
10814TIP3    H132387   2.017   0.860   2.778
10814TIP3    H232388   1.956   0.730   2.827
10815TIP3   OH232389   0.099   5.996   6.019
10815TIP3    H132390   0.020   5.964   5.975
10815TIP3    H232391   0.084   6.090   6.031
10816TIP3   OH232392   4.045   1.474   2.566
10816TIP3    H132393   4.001   1.401   2.609
10816TIP3    H232394   3.981   1.507   2.503
10817TIP3   OH232395   2.807   3.452   6.232
10817TIP3    H132396   2.773   3.531   6.274
10817TIP3    H232397   2.857   3.485   6.157
10818TIP3   OH232398   5.955   7.760   4.125
10818TIP3    H132399   6.012   7.759   4.048
10818TIP3    H232400   5.927   7.669   4.135
10819TIP3   OH232401   7.806   1.533   2.743
10819TIP3    H132402   7.814   1.617   2.789
10819TIP3    H232403   7.889   1.523   2.696
10820TIP3   OH232404   6.300   3.985   0.710
10820TIP3    H132405   6.381   3.971   0.660
10820TIP3    H232406   6.295   4.080   0.720
10821TIP3   OH232407   3.851   4.245   1.946
10821TIP3    H132408   3.925   4.194   1.913
10821TIP3    H232409   3.775   4.187   1.933
10822TIP3   OH232410   2.754   6.275   6.302
10822TIP3    H132411   2.735   6.209   6.368
10822TIP3    H232412   2.669   6.298   6.265
10823TIP3   OH232413   6.090   2.452   2.712
10823TIP3    H132414   6.117   2.390   2.780
10823TIP3    H232415   5.995   2.440   2.705
10824TIP3   OH232416   7.406   3.669   2.947
10824TIP3    H132417   7.467   3.664   3.021
10824TIP3    H232418   7.323   3.635   2.982
10825TIP3   OH232419   4.548   4.742   2.168
10825TIP3    H132420   4.577   4.820   2.120
10825TIP3    H232421   4.469   4.770   2.213
10826TIP3   OH232422   0.614   0.749   6.209
10826TIP3    H132423   0.573   0.719   6.290
10826TIP3    H232424   0.585   0.686   6.142
10827TIP3   OH232425   1.208   1.190   1.230
10827TIP3    H132426   1.164   1.106   1.239
10827TIP3    H232427   1.302   1.170   1.236
10828TIP3   OH232428   4.485   5.990   6.797
10828TIP3    H132429   4.501   5.904   6.759
10828TIP3    H232430   4.504   6.051   6.726
10829TIP3   OH232431   7.562   4.531   3.319
10829TIP3    H132432   7.519   4.616   3.331
10829TIP3    H232433   7.491   4.471   3.297
10830TIP3   OH232434   0.128   3.235   5.716
10830TIP3    H132435   0.164   3.163   5.768
10830TIP3    H232436   0.044   3.201   5.684
10831TIP3   OH232437   6.320   6.581   4.281
10831TIP3    H132438   6.394   6.525   4.304
10831TIP3    H232439   6.294   6.621   4.364
10832TIP3   OH232440   1.190   3.330   5.769
10832TIP3    H132441   1.215   3.411   5.725
10832TIP3    H232442   1.187   3.265   5.698
10833TIP3   OH232443   6.160   1.578   5.916
10833TIP3    H132444   6.235   1.614   5.964
10833TIP3    H232445   6.087   1.636   5.940
10834TIP3   OH232446   7.592   1.098   4.211
10834TIP3    H132447   7.591   1.039   4.137
10834TIP3    H232448   7.518   1.157   4.197
10835TIP3   OH232449   2.469   5.226   3.823
10835TIP3    H132450   2.388   5.254   3.865
10835TIP3    H232451   2.469   5.270   3.738
10836TIP3   OH232452   1.767   4.327   3.594
10836TIP3    H132453   1.799   4.256   3.539
10836TIP3    H232454   1.818   4.403   3.567
10837TIP3   OH232455   8.101   0.151   1.335
10837TIP3    H132456   8.197   0.144   1.336
10837TIP3    H232457   8.076   0.119   1.248
10838TIP3   OH232458   2.889   6.803   3.212
10838TIP3    H132459   2.969   6.756   3.234
10838TIP3    H232460   2.909   6.849   3.130
10839TIP3   OH232461   2.464   6.030   5.448
10839TIP3    H132462   2.501   6.013   5.361
10839TIP3    H232463   2.516   5.976   5.507
10840TIP3   OH232464   3.631   0.364   5.357
10840TIP3    H132465   3.688   0.302   5.311
10840TIP3    H232466   3.688   0.438   5.376
10841TIP3   OH232467   3.474   6.060   0.236
10841TIP3    H132468   3.540   6.057   0.167
10841TIP3    H232469   3.390   6.063   0.189
10842TIP3   OH232470   1.328   3.047   0.209
10842TIP3    H132471   1.408   3.075   0.165
10842TIP3    H232472   1.320   2.954   0.190
10843TIP3   OH232473   5.363   4.174   2.295
10843TIP3    H132474   5.348   4.264   2.269
10843TIP3    H232475   5.277   4.132   2.288
10844TIP3   OH232476   4.999   0.867   5.961
10844TIP3    H132477   4.982   0.874   6.055
10844TIP3    H232478   5.093   0.848   5.956
10845TIP3   OH232479   4.360   6.940   6.456
10845TIP3    H132480   4.312   6.943   6.373
10845TIP3    H232481   4.421   7.013   6.451
10846TIP3   OH232482   1.588   6.446   0.563
10846TIP3    H132483   1.616   6.443   0.654
10846TIP3    H232484   1.668   6.429   0.513
10847TIP3   OH232485   5.715   2.271   4.244
10847TIP3    H132486   5.706   2.326   4.322
10847TIP3    H232487   5.808   2.249   4.241
10848TIP3   OH232488   5.462   6.162  -0.036
10848TIP3    H132489   5.446   6.175   0.058
10848TIP3    H232490   5.521   6.234  -0.060
10849TIP3   OH232491   1.004   5.407   2.933
10849TIP3    H132492   0.950   5.473   2.977
10849TIP3    H232493   1.092   5.445   2.934
10850TIP3   OH232494   1.421   0.259   0.145
10850TIP3    H132495   1.340   0.216   0.118
10850TIP3    H232496   1.420   0.256   0.240
10851TIP3   OH232497   6.130   5.946   6.069
10851TIP3    H132498   6.164   5.971   6.154
10851TIP3    H232499   6.061   5.884   6.088
10852TIP3   OH232500   0.479  -0.016   6.223
10852TIP3    H132501   0.514  -0.088   6.276
10852TIP3    H232502   0.517   0.062   6.262
10853TIP3   OH232503   3.535   5.441   5.839
10853TIP3    H132504   3.546   5.381   5.913
10853TIP3    H232505   3.442   5.464   5.840
10854TIP3   OH232506   0.660   4.004   5.319
10854TIP3    H132507   0.674   4.074   5.254
10854TIP3    H232508   0.674   3.923   5.270
10855TIP3   OH232509   4.526   7.702   0.568
10855TIP3    H132510   4.562   7.617   0.593
10855TIP3    H232511   4.602   7.752   0.538
10856TIP3   OH232512   4.614   7.446   4.908
10856TIP3    H132513   4.555   7.501   4.856
10856TIP3    H232514   4.563   7.424   4.986
10857TIP3   OH232515   8.208   4.684   4.598
10857TIP3    H132516   8.126   4.636   4.597
10857TIP3    H232517   8.269   4.626   4.643
10858TIP3   OH232518   3.062   4.696   4.809
10858TIP3    H132519   3.028   4.766   4.864
10858TIP3    H232520   2.983   4.651   4.777
10859TIP3   OH232521   0.660   2.951   0.841
10859TIP3    H132522   0.589   3.008   0.811
10859TIP3    H232523   0.627   2.863   0.828
10860TIP3   OH232524   0.863   2.968   4.023
10860TIP3    H132525   0.805   2.930   3.957
10860TIP3    H232526   0.878   3.058   3.992
10861TIP3   OH232527   6.583   5.853   3.423
10861TIP3    H132528   6.556   5.785   3.360
10861TIP3    H232529   6.666   5.885   3.389
10862TIP3   OH232530   6.259   2.761   2.388
10862TIP3    H132531   6.351   2.787   2.392
10862TIP3    H232532   6.258   2.673   2.425
10863TIP3   OH232533   5.257   2.322   0.054
10863TIP3    H132534   5.324   2.254   0.045
10863TIP3    H232535   5.278   2.366   0.136
10864TIP3   OH232536   5.076   6.154   5.169
10864TIP3    H132537   4.990   6.195   5.180
10864TIP3    H232538   5.126   6.218   5.117
10865TIP3   OH232539   7.575   7.776   5.214
10865TIP3    H132540   7.528   7.745   5.292
10865TIP3    H232541   7.620   7.855   5.244
10866TIP3   OH232542   6.330   2.333   5.161
10866TIP3    H132543   6.424   2.343   5.148
10866TIP3    H232544   6.293   2.417   5.136
10867TIP3   OH232545   2.538   3.035   3.987
10867TIP3    H132546   2.472   3.074   3.930
10867TIP3    H232547   2.615   3.091   3.978
10868TIP3   OH232548   0.276   5.558   2.215
10868TIP3    H132549   0.349   5.620   2.203
10868TIP3    H232550   0.281   5.533   2.307
10869TIP3   OH232551   3.930   0.473   5.008
10869TIP3    H132552   3.888   0.547   5.051
10869TIP3    H232553   3.915   0.488   4.915
10870TIP3   OH232554   4.881   7.287   6.251
10870TIP3    H132555   4.944   7.217   6.238
10870TIP3    H232556   4.912   7.333   6.330
10871TIP3   OH232557   2.573   3.415   1.152
10871TIP3    H132558   2.636   3.397   1.082
10871TIP3    H232559   2.608   3.369   1.228
10872TIP3   OH232560   7.971   7.739   2.708
10872TIP3    H132561   7.995   7.755   2.799
10872TIP3    H232562   7.886   7.781   2.698
10873TIP3   OH232563   6.675   4.258   4.515
10873TIP3    H132564   6.579   4.257   4.515
10873TIP3    H232565   6.699   4.283   4.426
10874TIP3   OH232566   3.122   7.400   5.107
10874TIP3    H132567   3.144   7.325   5.051
10874TIP3    H232568   3.094   7.468   5.045
10875TIP3   OH232569   4.251   4.278   0.430
10875TIP3    H132570   4.259   4.288   0.524
10875TIP3    H232571   4.166   4.317   0.409
10876TIP3   OH232572   4.535   4.774   3.203
10876TIP3    H132573   4.479   4.708   3.245
10876TIP3    H232574   4.515   4.767   3.110
10877TIP3   OH232575   4.273   5.201   0.651
10877TIP3    H132576   4.203   5.137   0.637
10877TIP3    H232577   4.263   5.227   0.743
10878TIP3   OH232578   6.003   4.733   2.947
10878TIP3    H132579   6.042   4.660   2.996
10878TIP3    H232580   5.981   4.797   3.014
10879TIP3   OH232581   0.919   1.586   4.990
10879TIP3    H132582   0.950   1.637   5.065
10879TIP3    H232583   0.926   1.646   4.916
10880TIP3   OH232584   7.561   5.804   5.074
10880TIP3    H132585   7.540   5.757   4.993
10880TIP3    H232586   7.612   5.741   5.125
10881TIP3   OH232587   2.782   3.618   3.721
10881TIP3    H132588   2.800   3.525   3.735
10881TIP3    H232589   2.715   3.640   3.785
10882TIP3   OH232590   3.760   5.181   0.802
10882TIP3    H132591   3.696   5.216   0.740
10882TIP3    H232592   3.739   5.088   0.809
10883TIP3   OH232593   4.064   4.307   5.535
10883TIP3    H132594   4.143   4.350   5.568
10883TIP3    H232595   4.091   4.268   5.452
10884TIP3   OH232596   5.593   2.674   4.424
10884TIP3    H132597   5.605   2.617   4.348
10884TIP3    H232598   5.501   2.700   4.420
10885TIP3   OH232599   4.643   6.827   2.147
10885TIP3    H132600   4.599   6.761   2.201
10885TIP3    H232601   4.603   6.817   2.060
10886TIP3   OH232602   5.022   3.951   0.465
10886TIP3    H132603   5.049   4.022   0.523
10886TIP3    H232604   5.102   3.903   0.446
10887TIP3   OH232605   2.678   1.050   2.696
10887TIP3    H132606   2.613   1.037   2.627
10887TIP3    H232607   2.727   0.967   2.697
10888TIP3   OH232608   3.610   1.890   1.829
10888TIP3    H132609   3.607   1.982   1.855
10888TIP3    H232610   3.563   1.887   1.746
10889TIP3   OH232611   5.606   3.161   0.597
10889TIP3    H132612   5.695   3.192   0.582
10889TIP3    H232613   5.601   3.147   0.692
10890TIP3   OH232614   0.224   3.184   3.780
10890TIP3    H132615   0.310   3.143   3.785
10890TIP3    H232616   0.163   3.112   3.764
10891TIP3   OH232617   7.279   1.493   0.127
10891TIP3    H132618   7.209   1.506   0.064
10891TIP3    H232619   7.314   1.406   0.107
10892TIP3   OH232620   2.344   0.513   5.369
10892TIP3    H132621   2.384   0.479   5.449
10892TIP3    H232622   2.337   0.607   5.384
10893TIP3   OH232623   1.246   3.825   6.432
10893TIP3    H132624   1.212   3.834   6.521
10893TIP3    H232625   1.329   3.872   6.433
10894TIP3   OH232626   6.580   5.491   3.053
10894TIP3    H132627   6.596   5.555   3.122
10894TIP3    H232628   6.656   5.496   2.996
10895TIP3   OH232629   2.357   1.637   5.547
10895TIP3    H132630   2.367   1.558   5.494
10895TIP3    H232631   2.442   1.681   5.541
10896TIP3   OH232632   5.894   3.280   3.973
10896TIP3    H132633   5.912   3.306   3.883
10896TIP3    H232634   5.836   3.204   3.964
10897TIP3   OH232635   6.795   1.369   2.508
10897TIP3    H132636   6.701   1.380   2.514
10897TIP3    H232637   6.812   1.286   2.553
10898TIP3   OH232638   0.129   2.625   4.222
10898TIP3    H132639   0.190   2.566   4.266
10898TIP3    H232640   0.054   2.630   4.281
10899TIP3   OH232641   1.871   7.621   6.359
10899TIP3    H132642   1.947   7.564   6.347
10899TIP3    H232643   1.822   7.582   6.431
10900TIP3   OH232644   6.841   6.042   1.298
10900TIP3    H132645   6.764   6.003   1.339
10900TIP3    H232646   6.815   6.056   1.207
10901TIP3   OH232647   1.811   0.007   1.555
10901TIP3    H132648   1.883   0.044   1.504
10901TIP3    H232649   1.780   0.080   1.608
10902TIP3   OH232650   3.826   6.564   0.869
10902TIP3    H132651   3.807   6.657   0.858
10902TIP3    H232652   3.787   6.541   0.953
10903TIP3   OH232653   1.495   1.319   6.071
10903TIP3    H132654   1.530   1.277   6.149
10903TIP3    H232655   1.558   1.297   6.002
10904TIP3   OH232656   3.849   2.968   3.036
10904TIP3    H132657   3.919   2.913   3.071
10904TIP3    H232658   3.876   3.057   3.056
10905TIP3   OH232659   0.411   2.908   4.032
10905TIP3    H132660   0.461   2.952   4.101
10905TIP3    H232661   0.323   2.897   4.069
10906TIP3   OH232662   2.005   2.830   4.130
10906TIP3    H132663   1.933   2.874   4.176
10906TIP3    H232664   1.988   2.846   4.038
10907TIP3   OH232665   2.217   5.401   2.811
10907TIP3    H132666   2.236   5.431   2.900
10907TIP3    H232667   2.194   5.480   2.763
10908TIP3   OH232668   3.284   5.783   5.374
10908TIP3    H132669   3.331   5.710   5.413
10908TIP3    H232670   3.347   5.822   5.312
10909TIP3   OH232671   5.872   5.556   3.741
10909TIP3    H132672   5.857   5.620   3.811
10909TIP3    H232673   5.807   5.487   3.758
10910TIP3   OH232674   4.796   4.808   3.311
10910TIP3    H132675   4.708   4.814   3.274
10910TIP3    H232676   4.809   4.715   3.329
10911TIP3   OH232677   3.808   7.365   1.185
10911TIP3    H132678   3.893   7.394   1.219
10911TIP3    H232679   3.829   7.325   1.100
10912TIP3   OH232680   7.226   5.825   5.999
10912TIP3    H132681   7.314   5.862   5.993
10912TIP3    H232682   7.179   5.862   5.925
10913TIP3   OH232683   0.632   0.288   6.263
10913TIP3    H132684   0.701   0.331   6.212
10913TIP3    H232685   0.557   0.284   6.204
10914TIP3   OH232686   1.845   2.454   2.320
10914TIP3    H132687   1.830   2.440   2.227
10914TIP3    H232688   1.904   2.529   2.324
10915TIP3   OH232689   8.120   4.720   3.913
10915TIP3    H132690   8.053   4.735   3.980
10915TIP3    H232691   8.077   4.743   3.831
10916TIP3   OH232692   2.093   6.267   5.788
10916TIP3    H132693   2.081   6.300   5.699
10916TIP3    H232694   2.179   6.298   5.815
10917TIP3   OH232695   0.815   6.620   4.177
10917TIP3    H132696   0.867   6.628   4.257
10917TIP3    H232697   0.779   6.531   4.180
10918TIP3   OH232698   7.287   3.258   0.684
10918TIP3    H132699   7.208   3.274   0.736
10918TIP3    H232700   7.352   3.228   0.747
10919TIP3   OH232701   0.976   3.285   1.646
10919TIP3    H132702   0.928   3.363   1.618
10919TIP3    H232703   0.964   3.283   1.741
10920TIP3   OH232704   3.998   3.626   0.166
10920TIP3    H132705   3.974   3.557   0.227
10920TIP3    H232706   3.989   3.586   0.079
10921TIP3   OH232707   0.482   1.871   1.781
10921TIP3    H132708   0.456   1.814   1.854
10921TIP3    H232709   0.470   1.817   1.703
10922TIP3   OH232710   2.535   3.660   0.311
10922TIP3    H132711   2.476   3.735   0.314
10922TIP3    H232712   2.501   3.600   0.377
10923TIP3   OH232713   0.481   6.581   6.525
10923TIP3    H132714   0.546   6.590   6.594
10923TIP3    H232715   0.489   6.662   6.474
10924TIP3   OH232716   1.943   2.260   6.611
10924TIP3    H132717   2.026   2.306   6.626
10924TIP3    H232718   1.946   2.235   6.519
10925TIP3   OH232719   1.583   5.896   3.081
10925TIP3    H132720   1.575   5.818   3.027
10925TIP3    H232721   1.603   5.966   3.019
10926TIP3   OH232722   7.258   1.330   1.949
10926TIP3    H132723   7.238   1.359   1.859
10926TIP3    H232724   7.352   1.313   1.948
10927TIP3   OH232725   0.863   0.434   6.176
10927TIP3    H132726   0.944   0.415   6.129
10927TIP3    H232727   0.891   0.472   6.259
10928TIP3   OH232728   2.196   5.747   6.391
10928TIP3    H132729   2.291   5.740   6.392
10928TIP3    H232730   2.169   5.729   6.482
10929TIP3   OH232731   6.662   5.360   6.656
10929TIP3    H132732   6.570   5.376   6.677
10929TIP3    H232733   6.709   5.433   6.697
10930TIP3   OH232734   0.410   0.575   1.143
10930TIP3    H132735   0.470   0.624   1.198
10930TIP3    H232736   0.325   0.618   1.156
10931TIP3   OH232737   2.854   2.751   4.423
10931TIP3    H132738   2.775   2.733   4.372
10931TIP3    H232739   2.887   2.833   4.386
10932TIP3   OH232740   6.592   6.250   3.962
10932TIP3    H132741   6.615   6.176   3.905
10932TIP3    H232742   6.512   6.223   4.005
10933TIP3   OH232743   7.979   3.498   3.140
10933TIP3    H132744   8.038   3.422   3.140
10933TIP3    H232745   7.896   3.464   3.172
10934TIP3   OH232746   4.564   5.297   6.255
10934TIP3    H132747   4.607   5.342   6.182
10934TIP3    H232748   4.470   5.306   6.237
10935TIP3   OH232749   3.434   0.555   2.765
10935TIP3    H132750   3.367   0.584   2.703
10935TIP3    H232751   3.402   0.470   2.797
10936TIP3   OH232752   1.556   1.283   0.144
10936TIP3    H132753   1.566   1.218   0.073
10936TIP3    H232754   1.640   1.329   0.146
10937TIP3   OH232755   7.743   3.015   2.244
10937TIP3    H132756   7.662   3.055   2.274
10937TIP3    H232757   7.717   2.959   2.170
10938TIP3   OH232758   4.585   0.773   0.118
10938TIP3    H132759   4.599   0.801   0.209
10938TIP3    H232760   4.625   0.842   0.066
10939TIP3   OH232761   5.346   3.422   1.583
10939TIP3    H132762   5.398   3.501   1.571
10939TIP3    H232763   5.397   3.353   1.540
10940TIP3   OH232764   6.056   4.638   1.912
10940TIP3    H132765   6.033   4.584   1.987
10940TIP3    H232766   6.002   4.605   1.841
10941TIP3   OH232767   0.325   2.702   5.615
10941TIP3    H132768   0.416   2.678   5.594
10941TIP3    H232769   0.289   2.623   5.655
10942TIP3   OH232770   1.473   4.199   1.025
10942TIP3    H132771   1.474   4.155   0.941
10942TIP3    H232772   1.521   4.140   1.084
10943TIP3   OH232773   7.593   6.400   0.827
10943TIP3    H132774   7.499   6.392   0.813
10943TIP3    H232775   7.629   6.316   0.799
10944TIP3   OH232776   1.732   2.939   4.218
10944TIP3    H132777   1.738   3.029   4.185
10944TIP3    H232778   1.660   2.900   4.169
10945TIP3   OH232779   3.982   0.654   0.124
10945TIP3    H132780   4.003   0.706   0.202
10945TIP3    H232781   3.936   0.578   0.159
10946TIP3   OH232782   6.362   0.683   5.009
10946TIP3    H132783   6.337   0.766   4.969
10946TIP3    H232784   6.279   0.641   5.031
10947TIP3   OH232785   5.799   6.138   0.950
10947TIP3    H132786   5.881   6.100   0.982
10947TIP3    H232787   5.770   6.078   0.882
10948TIP3   OH232788   2.826   5.654   0.235
10948TIP3    H132789   2.853   5.714   0.165
10948TIP3    H232790   2.846   5.700   0.316
10949TIP3   OH232791   5.442   3.900   1.569
10949TIP3    H132792   5.452   3.931   1.659
10949TIP3    H232793   5.512   3.945   1.521
10950TIP3   OH232794   8.191   0.113   6.326
10950TIP3    H132795   8.142   0.186   6.364
10950TIP3    H232796   8.282   0.131   6.349
10951TIP3   OH232797   0.866   7.089   5.303
10951TIP3    H132798   0.816   7.158   5.347
10951TIP3    H232799   0.813   7.010   5.313
10952TIP3   OH232800   4.355   4.340   2.334
10952TIP3    H132801   4.370   4.348   2.428
10952TIP3    H232802   4.443   4.327   2.297
10953TIP3   OH232803   3.220   5.369   4.636
10953TIP3    H132804   3.292   5.317   4.672
10953TIP3    H232805   3.249   5.460   4.646
10954TIP3   OH232806   5.007   4.373   5.130
10954TIP3    H132807   4.958   4.295   5.154
10954TIP3    H232808   5.077   4.342   5.073
10955TIP3   OH232809   4.235   0.615   3.701
10955TIP3    H132810   4.301   0.684   3.688
10955TIP3    H232811   4.188   0.642   3.780
10956TIP3   OH232812   0.559   4.464   0.839
10956TIP3    H132813   0.570   4.374   0.808
10956TIP3    H232814   0.596   4.464   0.928
10957TIP3   OH232815   1.438   4.762   0.558
10957TIP3    H132816   1.348   4.791   0.538
10957TIP3    H232817   1.492   4.838   0.538
10958TIP3   OH232818   1.694   3.660   2.561
10958TIP3    H132819   1.707   3.609   2.641
10958TIP3    H232820   1.630   3.726   2.585
10959TIP3   OH232821   2.824   7.726   6.384
10959TIP3    H132822   2.839   7.728   6.289
10959TIP3    H232823   2.729   7.715   6.392
10960TIP3   OH232824   3.202   3.166   5.536
10960TIP3    H132825   3.241   3.087   5.574
10960TIP3    H232826   3.150   3.134   5.463
10961TIP3   OH232827   4.446   6.153   3.481
10961TIP3    H132828   4.380   6.138   3.414
10961TIP3    H232829   4.410   6.223   3.536
10962TIP3   OH232830   0.054   6.817   6.370
10962TIP3    H132831   0.136   6.848   6.407
10962TIP3    H232832   0.061   6.721   6.374
10963TIP3   OH232833   5.732   1.395   0.170
10963TIP3    H132834   5.738   1.322   0.109
10963TIP3    H232835   5.819   1.400   0.210
10964TIP3   OH232836   1.715   5.130   0.012
10964TIP3    H132837   1.700   5.036   0.023
10964TIP3    H232838   1.788   5.149   0.070
10965TIP3   OH232839   1.318   2.616   5.941
10965TIP3    H132840   1.311   2.547   5.876
10965TIP3    H232841   1.233   2.661   5.936
10966TIP3   OH232842   2.117   7.445   2.309
10966TIP3    H132843   2.034   7.490   2.295
10966TIP3    H232844   2.184   7.509   2.284
10967TIP3   OH232845   3.510   6.133   2.648
10967TIP3    H132846   3.448   6.206   2.641
10967TIP3    H232847   3.525   6.106   2.558
10968TIP3   OH232848   4.211   3.849   0.429
10968TIP3    H132849   4.286   3.847   0.488
10968TIP3    H232850   4.240   3.803   0.351
10969TIP3   OH232851   5.619   5.559   2.359
10969TIP3    H132852   5.558   5.611   2.411
10969TIP3    H232853   5.580   5.557   2.271
10970TIP3   OH232854   2.199   1.721   5.276
10970TIP3    H132855   2.120   1.774   5.272
10970TIP3    H232856   2.172   1.635   5.244
10971TIP3   OH232857   8.303   1.123   3.842
10971TIP3    H132858   8.233   1.188   3.854
10971TIP3    H232859   8.257   1.043   3.817
10972TIP3   OH232860   6.262   3.117   5.389
10972TIP3    H132861   6.352   3.093   5.409
10972TIP3    H232862   6.234   3.053   5.324
10973TIP3   OH232863   3.504   4.728   2.918
10973TIP3    H132864   3.488   4.757   2.829
10973TIP3    H232865   3.547   4.802   2.961
10974TIP3   OH232866   3.716   5.141   2.600
10974TIP3    H132867   3.790   5.092   2.634
10974TIP3    H232868   3.652   5.141   2.671
10975TIP3   OH232869   6.984   0.981   2.337
10975TIP3    H132870   6.981   0.892   2.300
10975TIP3    H232871   7.064   0.982   2.389
10976TIP3   OH232872   7.672   3.734   2.455
10976TIP3    H132873   7.725   3.805   2.491
10976TIP3    H232874   7.647   3.682   2.531
10977TIP3   OH232875   0.709   5.216   3.998
10977TIP3    H132876   0.633   5.260   3.959
10977TIP3    H232877   0.717   5.134   3.950
10978TIP3   OH232878   6.402   1.074   4.720
10978TIP3    H132879   6.485   1.080   4.673
10978TIP3    H232880   6.349   1.145   4.684
10979TIP3   OH232881   2.519   3.829   1.878
10979TIP3    H132882   2.598   3.868   1.917
10979TIP3    H232883   2.496   3.757   1.937
10980TIP3   OH232884   2.045   4.218   3.638
10980TIP3    H132885   2.088   4.150   3.691
10980TIP3    H232886   1.993   4.169   3.574
10981TIP3   OH232887   3.226   3.304   2.388
10981TIP3    H132888   3.243   3.210   2.386
10981TIP3    H232889   3.133   3.311   2.411
10982TIP3   OH232890   4.723   6.040   2.044
10982TIP3    H132891   4.674   6.109   1.998
10982TIP3    H232892   4.721   5.966   1.983
10983TIP3   OH232893   6.342   0.022   1.060
10983TIP3    H132894   6.303   0.093   1.112
10983TIP3    H232895   6.290  -0.055   1.084
10984TIP3   OH232896   1.827   2.037   3.501
10984TIP3    H132897   1.885   2.034   3.425
10984TIP3    H232898   1.774   2.116   3.488
10985TIP3   OH232899   2.148   3.728   3.350
10985TIP3    H132900   2.140   3.822   3.336
10985TIP3    H232901   2.106   3.712   3.435
10986TIP3   OH232902   7.730   0.606   0.543
10986TIP3    H132903   7.800   0.621   0.480
10986TIP3    H232904   7.654   0.649   0.505
10987TIP3   OH232905   3.803   3.159   3.968
10987TIP3    H132906   3.888   3.115   3.966
10987TIP3    H232907   3.813   3.228   4.034
10988TIP3   OH232908   3.623   0.800   1.517
10988TIP3    H132909   3.658   0.726   1.467
10988TIP3    H232910   3.549   0.762   1.566
10989TIP3   OH232911   1.004   7.783   2.703
10989TIP3    H132912   1.094   7.752   2.711
10989TIP3    H232913   0.952   7.702   2.697
10990TIP3   OH232914   6.011   2.694   2.589
10990TIP3    H132915   6.055   2.618   2.627
10990TIP3    H232916   5.933   2.658   2.546
10991TIP3   OH232917   5.008   3.753   0.675
10991TIP3    H132918   4.989   3.684   0.612
10991TIP3    H232919   5.065   3.813   0.628
10992TIP3   OH232920   2.303   4.581   3.979
10992TIP3    H132921   2.226   4.564   3.924
10992TIP3    H232922   2.378   4.571   3.920
10993TIP3   OH232923   5.405   3.858   6.707
10993TIP3    H132924   5.355   3.930   6.745
10993TIP3    H232925   5.348   3.823   6.638
10994TIP3   OH232926   1.570   0.693   3.079
10994TIP3    H132927   1.564   0.756   3.150
10994TIP3    H232928   1.509   0.623   3.102
10995TIP3   OH232929   7.115   4.522   3.735
10995TIP3    H132930   7.166   4.543   3.813
10995TIP3    H232931   7.155   4.573   3.665
10996TIP3   OH232932   4.728   3.317   6.376
10996TIP3    H132933   4.814   3.276   6.376
10996TIP3    H232934   4.708   3.331   6.283
10997TIP3   OH232935   4.023   0.764   0.653
10997TIP3    H132936   4.060   0.843   0.691
10997TIP3    H232937   3.930   0.767   0.677
10998TIP3   OH232938   6.860   6.520   4.250
10998TIP3    H132939   6.880   6.487   4.163
10998TIP3    H232940   6.819   6.446   4.295
10999TIP3   OH232941   5.295   1.932   4.873
10999TIP3    H132942   5.255   1.927   4.960
10999TIP3    H232943   5.335   2.019   4.870
11000TIP3   OH232944   4.320   0.284   0.683
11000TIP3    H132945   4.394   0.275   0.623
11000TIP3    H232946   4.294   0.376   0.676
11001TIP3   OH232947   7.531   5.300   3.999
11001TIP3    H132948   7.556   5.211   4.025
11001TIP3    H232949   7.599   5.356   4.036
11002TIP3   OH232950   5.465   6.448   6.689
11002TIP3    H132951   5.393   6.388   6.668
11002TIP3    H232952   5.447   6.476   6.779
11003TIP3   OH232953   0.161   6.098   3.653
11003TIP3    H132954   0.129   6.095   3.743
11003TIP3    H232955   0.129   6.017   3.613
11004TIP3   OH232956   7.875   7.377   2.608
11004TIP3    H132957   7.965   7.373   2.641
11004TIP3    H232958   7.845   7.286   2.614
11005TIP3   OH232959   1.050   6.888   0.811
11005TIP3    H132960   1.094   6.887   0.727
11005TIP3    H232961   0.957   6.892   0.789
11006TIP3   OH232962   7.020   6.744   3.755
11006TIP3    H132963   7.074   6.763   3.832
11006TIP3    H232964   6.930   6.751   3.786
11007TIP3   OH232965   5.710   3.670   1.339
11007TIP3    H132966   5.729   3.756   1.303
11007TIP3    H232967   5.704   3.612   1.263
11008TIP3   OH232968   7.620   5.372   4.374
11008TIP3    H132969   7.640   5.375   4.280
11008TIP3    H232970   7.527   5.392   4.379
11009TIP3   OH232971   5.465   2.251   2.833
11009TIP3    H132972   5.528   2.188   2.798
11009TIP3    H232973   5.513   2.333   2.836
11010TIP3   OH232974   0.992   4.546   4.153
11010TIP3    H132975   0.907   4.519   4.188
11010TIP3    H232976   0.971   4.618   4.093
11011TIP3   OH232977   8.249   5.841   0.831
11011TIP3    H132978   8.225   5.749   0.842
11011TIP3    H232979   8.178   5.890   0.871
11012TIP3   OH232980   4.160   3.091   3.839
11012TIP3    H132981   4.098   3.141   3.785
11012TIP3    H232982   4.120   3.005   3.848
11013TIP3   OH232983   2.461   2.098   4.435
11013TIP3    H132984   2.422   2.131   4.515
11013TIP3    H232985   2.419   2.149   4.365
11014TIP3   OH232986   0.790   6.072   0.653
11014TIP3    H132987   0.704   6.087   0.614
11014TIP3    H232988   0.826   6.159   0.668
11015TIP3   OH232989   1.304   6.653   5.621
11015TIP3    H132990   1.335   6.620   5.705
11015TIP3    H232991   1.314   6.748   5.627
11016TIP3   OH232992   5.381   3.579   0.731
11016TIP3    H132993   5.351   3.527   0.657
11016TIP3    H232994   5.470   3.605   0.707
11017TIP3   OH232995   1.058   7.327   0.690
11017TIP3    H132996   0.996   7.286   0.630
11017TIP3    H232997   1.044   7.421   0.678
11018TIP3   OH232998   4.367   0.234   2.140
11018TIP3    H132999   4.348   0.142   2.158
11018TIP3    H233000   4.392   0.235   2.047
11019TIP3   OH233001   3.614   5.696   5.863
11019TIP3    H133002   3.660   5.705   5.946
11019TIP3    H233003   3.605   5.602   5.850
11020TIP3   OH233004   7.960   7.513   1.152
11020TIP3    H133005   7.887   7.509   1.090
11020TIP3    H233006   8.022   7.448   1.120
11021TIP3   OH233007   5.117   1.819   3.060
11021TIP3    H133008   5.198   1.820   3.111
11021TIP3    H233009   5.057   1.765   3.111
11022TIP3   OH233010   1.677   5.276   0.946
11022TIP3    H133011   1.712   5.196   0.907
11022TIP3    H233012   1.755   5.323   0.975
11023TIP3   OH233013   2.911   6.938   2.928
11023TIP3    H133014   2.852   7.012   2.941
11023TIP3    H233015   2.878   6.894   2.849
11024TIP3   OH233016   0.114   4.683   5.787
11024TIP3    H133017   0.101   4.615   5.854
11024TIP3    H233018   0.037   4.739   5.795
11025TIP3   OH233019   7.349   2.252   4.043
11025TIP3    H133020   7.422   2.215   3.992
11025TIP3    H233021   7.311   2.317   3.985
11026TIP3   OH233022   7.555   3.695   4.759
11026TIP3    H133023   7.562   3.722   4.851
11026TIP3    H233024   7.534   3.776   4.712
11027TIP3   OH233025   6.245   3.211   2.703
11027TIP3    H133026   6.209   3.218   2.792
11027TIP3    H233027   6.339   3.199   2.717
11028TIP3   OH233028   7.522   6.602   4.921
11028TIP3    H133029   7.435   6.625   4.955
11028TIP3    H233030   7.583   6.637   4.985
11029TIP3   OH233031   3.972   6.331   2.841
11029TIP3    H133032   4.035   6.260   2.832
11029TIP3    H233033   3.887   6.290   2.822
11030TIP3   OH233034   2.557   3.220   3.041
11030TIP3    H133035   2.619   3.293   3.041
11030TIP3    H233036   2.488   3.246   3.102
11031TIP3   OH233037   0.762   3.647   5.417
11031TIP3    H133038   0.766   3.551   5.412
11031TIP3    H233039   0.674   3.666   5.449
11032TIP3   OH233040   0.508   7.390   5.398
11032TIP3    H133041   0.513   7.325   5.328
11032TIP3    H233042   0.520   7.474   5.354
11033TIP3   OH233043   2.825   6.459   1.628
11033TIP3    H133044   2.802   6.370   1.604
11033TIP3    H233045   2.760   6.484   1.694
11034TIP3   OH233046   1.822   0.992   1.887
11034TIP3    H133047   1.745   0.970   1.939
11034TIP3    H233048   1.818   0.935   1.811
11035TIP3   OH233049   4.632   7.131   2.451
11035TIP3    H133050   4.643   7.038   2.475
11035TIP3    H233051   4.572   7.166   2.517
11036TIP3   OH233052   2.498   7.805   4.223
11036TIP3    H133053   2.590   7.826   4.212
11036TIP3    H233054   2.496   7.730   4.282
11037TIP3   OH233055   1.092   5.310   4.805
11037TIP3    H133056   1.016   5.259   4.778
11037TIP3    H233057   1.154   5.300   4.734
11038TIP3   OH233058   1.724   5.371   4.733
11038TIP3    H133059   1.765   5.290   4.765
11038TIP3    H233060   1.769   5.441   4.779
11039TIP3   OH233061   4.635   2.533   3.015
11039TIP3    H133062   4.626   2.438   3.015
11039TIP3    H233063   4.596   2.561   2.932
11040TIP3   OH233064   7.748   6.974   5.762
11040TIP3    H133065   7.717   6.998   5.849
11040TIP3    H233066   7.807   7.046   5.737
11041TIP3   OH233067   7.785   2.755   0.236
11041TIP3    H133068   7.714   2.767   0.173
11041TIP3    H233069   7.835   2.680   0.203
11042TIP3   OH233070   4.611   0.477   0.598
11042TIP3    H133071   4.589   0.395   0.554
11042TIP3    H233072   4.529   0.527   0.598
11043TIP3   OH233073   2.223   1.852   2.997
11043TIP3    H133074   2.214   1.809   3.082
11043TIP3    H233075   2.318   1.858   2.983
11044TIP3   OH233076   6.055   7.226   1.633
11044TIP3    H133077   6.048   7.189   1.721
11044TIP3    H233078   6.122   7.294   1.641
11045TIP3   OH233079   4.219   6.531   2.695
11045TIP3    H133080   4.304   6.513   2.655
11045TIP3    H233081   4.217   6.476   2.773
11046TIP3   OH233082   6.233   0.309   0.524
11046TIP3    H133083   6.265   0.396   0.548
11046TIP3    H233084   6.184   0.280   0.601
11047TIP3   OH233085   1.898   6.906   4.299
11047TIP3    H133086   1.854   6.983   4.263
11047TIP3    H233087   1.960   6.879   4.231
11048TIP3   OH233088   2.566   0.167   2.913
11048TIP3    H133089   2.643   0.217   2.941
11048TIP3    H233090   2.509   0.165   2.990
11049TIP3   OH233091   1.243   4.285   3.730
11049TIP3    H133092   1.300   4.294   3.806
11049TIP3    H233093   1.301   4.260   3.658
11050TIP3   OH233094   2.211   2.246   1.710
11050TIP3    H133095   2.155   2.175   1.741
11050TIP3    H233096   2.299   2.209   1.708
11051TIP3   OH233097   4.185   0.739   2.501
11051TIP3    H133098   4.101   0.693   2.499
11051TIP3    H233099   4.196   0.774   2.413
11052TIP3   OH233100   0.959   1.500   3.156
11052TIP3    H133101   0.871   1.474   3.184
11052TIP3    H233102   0.972   1.586   3.195
11053TIP3   OH233103   0.785   2.007   6.373
11053TIP3    H133104   0.850   1.937   6.372
11053TIP3    H233105   0.736   1.995   6.291
11054TIP3   OH233106   3.386   0.490   1.417
11054TIP3    H133107   3.437   0.535   1.349
11054TIP3    H233108   3.323   0.556   1.447
11055TIP3   OH233109   7.628   7.096   0.055
11055TIP3    H133110   7.664   7.015   0.021
11055TIP3    H233111   7.612   7.079   0.148
11056TIP3   OH233112   7.542   1.890   3.029
11056TIP3    H133113   7.482   1.955   2.993
11056TIP3    H233114   7.525   1.810   2.980
11057TIP3   OH233115   7.879   0.512   1.424
11057TIP3    H133116   7.870   0.597   1.381
11057TIP3    H233117   7.861   0.530   1.517
11058TIP3   OH233118   0.220   1.831   1.047
11058TIP3    H133119   0.187   1.741   1.042
11058TIP3    H233120   0.237   1.855   0.956
11059TIP3   OH233121   1.504   4.498   4.753
11059TIP3    H133122   1.591   4.518   4.719
11059TIP3    H233123   1.480   4.575   4.805
11060TIP3   OH233124   4.591   1.414   4.703
11060TIP3    H133125   4.603   1.324   4.732
11060TIP3    H233126   4.500   1.419   4.674
11061TIP3   OH233127   4.764   1.403   6.764
11061TIP3    H133128   4.857   1.400   6.744
11061TIP3    H233129   4.752   1.487   6.810
11062TIP3   OH233130   6.075   1.836   2.476
11062TIP3    H133131   6.137   1.904   2.452
11062TIP3    H233132   6.027   1.818   2.395
11063TIP3   OH233133   3.723   0.388   0.780
11063TIP3    H133134   3.640   0.427   0.752
11063TIP3    H233135   3.767   0.365   0.699
11064TIP3   OH233136   2.232   5.077   1.304
11064TIP3    H133137   2.158   5.078   1.366
11064TIP3    H233138   2.190   5.076   1.218
11065TIP3   OH233139   5.917   5.771   3.953
11065TIP3    H133140   6.010   5.789   3.965
11065TIP3    H233141   5.881   5.768   4.042
11066TIP3   OH233142   0.926   6.346   0.678
11066TIP3    H133143   0.929   6.436   0.711
11066TIP3    H233144   0.921   6.356   0.583
11067TIP3   OH233145   0.885   5.599   5.583
11067TIP3    H133146   0.891   5.655   5.506
11067TIP3    H233147   0.969   5.552   5.585
11068TIP3   OH233148   8.190   3.188   6.478
11068TIP3    H133149   8.279   3.174   6.511
11068TIP3    H233150   8.151   3.249   6.540
11069TIP3   OH233151   3.182   6.158   4.386
11069TIP3    H133152   3.269   6.198   4.381
11069TIP3    H233153   3.138   6.186   4.306
11070TIP3   OH233154   6.151   6.843   6.189
11070TIP3    H133155   6.109   6.916   6.234
11070TIP3    H233156   6.085   6.811   6.128
11071TIP3   OH233157   0.495   1.968   3.184
11071TIP3    H133158   0.496   1.997   3.093
11071TIP3    H233159   0.403   1.950   3.203
11072TIP3   OH233160   7.318   1.061   3.139
11072TIP3    H133161   7.342   0.999   3.208
11072TIP3    H233162   7.314   1.146   3.183
11073TIP3   OH233163   3.240   4.510   2.106
11073TIP3    H133164   3.155   4.477   2.133
11073TIP3    H233165   3.303   4.447   2.141
11074TIP3   OH233166   7.765   6.860   6.389
11074TIP3    H133167   7.826   6.791   6.415
11074TIP3    H233168   7.719   6.823   6.313
11075TIP3   OH233169   0.899   7.449   1.949
11075TIP3    H133170   0.881   7.363   1.988
11075TIP3    H233171   0.812   7.487   1.935
11076TIP3   OH233172   6.962   3.833   0.239
11076TIP3    H133173   6.997   3.919   0.217
11076TIP3    H233174   6.869   3.848   0.254
11077TIP3   OH233175   1.617   2.175   0.852
11077TIP3    H133176   1.657   2.220   0.777
11077TIP3    H233177   1.691   2.153   0.908
11078TIP3   OH233178   7.267   4.362   4.151
11078TIP3    H133179   7.278   4.339   4.059
11078TIP3    H233180   7.341   4.320   4.195
11079TIP3   OH233181   3.303   1.690   1.485
11079TIP3    H133182   3.360   1.613   1.470
11079TIP3    H233183   3.219   1.664   1.448
11080TIP3   OH233184   1.971   4.606   3.848
11080TIP3    H133185   1.993   4.530   3.901
11080TIP3    H233186   1.913   4.658   3.904
11081TIP3   OH233187   7.503   1.497   4.899
11081TIP3    H133188   7.542   1.584   4.893
11081TIP3    H233189   7.566   1.446   4.950
11082TIP3   OH233190   8.076   5.343   5.734
11082TIP3    H133191   7.999   5.373   5.782
11082TIP3    H233192   8.130   5.299   5.800
11083TIP3   OH233193   4.773   1.298   4.955
11083TIP3    H133194   4.744   1.264   4.871
11083TIP3    H233195   4.852   1.246   4.976
11084TIP3   OH233196   1.347   7.280   5.570
11084TIP3    H133197   1.256   7.267   5.542
11084TIP3    H233198   1.384   7.337   5.502
11085TIP3   OH233199   1.938   0.936   5.955
11085TIP3    H133200   1.889   0.939   5.873
11085TIP3    H233201   2.026   0.967   5.932
11086TIP3   OH233202   1.226   7.820   6.422
11086TIP3    H133203   1.169   7.868   6.483
11086TIP3    H233204   1.237   7.734   6.462
11087TIP3   OH233205   3.866   5.234   4.243
11087TIP3    H133206   3.943   5.242   4.186
11087TIP3    H233207   3.899   5.193   4.323
11088TIP3   OH233208   1.338   5.514   3.401
11088TIP3    H133209   1.391   5.468   3.465
11088TIP3    H233210   1.401   5.564   3.349
11089TIP3   OH233211   7.047   3.720   1.079
11089TIP3    H133212   7.051   3.781   1.152
11089TIP3    H233213   7.134   3.680   1.076
11090TIP3   OH233214   6.568   4.939   2.445
11090TIP3    H133215   6.525   4.923   2.361
11090TIP3    H233216   6.658   4.961   2.423
11091TIP3   OH233217   1.071   1.425   2.707
11091TIP3    H133218   1.002   1.424   2.772
11091TIP3    H233219   1.032   1.386   2.629
11092TIP3   OH233220   3.756   6.351   1.310
11092TIP3    H133221   3.762   6.393   1.395
11092TIP3    H233222   3.846   6.335   1.283
11093TIP3   OH233223   2.310   6.643   2.274
11093TIP3    H133224   2.222   6.646   2.312
11093TIP3    H233225   2.304   6.699   2.196
11094TIP3   OH233226   5.332   5.711   4.470
11094TIP3    H133227   5.416   5.747   4.499
11094TIP3    H233228   5.266   5.767   4.509
11095TIP3   OH233229   5.525   1.773   6.053
11095TIP3    H133230   5.440   1.750   6.015
11095TIP3    H233231   5.559   1.691   6.089
11096TIP3   OH233232   2.605   2.156   3.974
11096TIP3    H133233   2.634   2.072   4.010
11096TIP3    H233234   2.683   2.211   3.976
11097TIP3   OH233235   3.398   1.112   4.674
11097TIP3    H133236   3.322   1.071   4.634
11097TIP3    H233237   3.450   1.143   4.599
11098TIP3   OH233238   7.422   3.812   4.426
11098TIP3    H133239   7.486   3.747   4.454
11098TIP3    H233240   7.419   3.804   4.331
11099TIP3   OH233241   0.662   7.492   5.014
11099TIP3    H133242   0.596   7.429   5.042
11099TIP3    H233243   0.731   7.485   5.080
11100TIP3   OH233244   5.185   4.226   1.962
11100TIP3    H133245   5.273   4.265   1.956
11100TIP3    H233246   5.184   4.159   1.894
11101TIP3   OH233247   5.349   6.968   0.773
11101TIP3    H133248   5.330   6.977   0.867
11101TIP3    H233249   5.321   7.050   0.734
11102TIP3   OH233250   3.855   5.291   5.500
11102TIP3    H133251   3.814   5.257   5.580
11102TIP3    H233252   3.948   5.294   5.522
11103TIP3   OH233253   7.049   1.791   1.143
11103TIP3    H133254   7.056   1.886   1.127
11103TIP3    H233255   6.986   1.761   1.078
11104TIP3   OH233256   7.604   7.370   1.644
11104TIP3    H133257   7.596   7.462   1.671
11104TIP3    H233258   7.579   7.320   1.722
11105TIP3   OH233259   6.635   0.974   0.162
11105TIP3    H133260   6.559   1.000   0.110
11105TIP3    H233261   6.693   1.051   0.159
11106TIP3   OH233262   3.791   4.413   1.736
11106TIP3    H133263   3.744   4.497   1.733
11106TIP3    H233264   3.800   4.393   1.829
11107TIP3   OH233265   2.316   4.956   0.507
11107TIP3    H133266   2.410   4.957   0.493
11107TIP3    H233267   2.298   5.039   0.552
11108TIP3   OH233268   0.839   2.652   5.277
11108TIP3    H133269   0.790   2.708   5.217
11108TIP3    H233270   0.885   2.712   5.335
11109TIP3   OH233271   1.967   5.223   0.410
11109TIP3    H133272   2.041   5.162   0.412
11109TIP3    H233273   1.905   5.188   0.475
11110TIP3   OH233274   7.409   0.569   0.674
11110TIP3    H133275   7.401   0.547   0.581
11110TIP3    H233276   7.469   0.504   0.710
11111TIP3   OH233277   4.759   6.116   1.299
11111TIP3    H133278   4.805   6.095   1.218
11111TIP3    H233279   4.731   6.031   1.334
11112TIP3   OH233280   3.436   5.450   2.153
11112TIP3    H133281   3.444   5.393   2.229
11112TIP3    H233282   3.517   5.435   2.104
11113TIP3   OH233283   4.734   5.119   6.373
11113TIP3    H133284   4.665   5.054   6.361
11113TIP3    H233285   4.700   5.198   6.330
11114TIP3   OH233286   5.616   7.550   5.760
11114TIP3    H133287   5.569   7.517   5.683
11114TIP3    H233288   5.699   7.503   5.760
11115TIP3   OH233289   3.074   5.662   5.810
11115TIP3    H133290   2.987   5.626   5.830
11115TIP3    H233291   3.073   5.750   5.848
11116TIP3   OH233292   4.227   0.796   6.225
11116TIP3    H133293   4.226   0.892   6.218
11116TIP3    H233294   4.230   0.778   6.319
11117TIP3   OH233295   0.615   1.246   4.518
11117TIP3    H133296   0.616   1.322   4.460
11117TIP3    H233297   0.647   1.279   4.602
11118TIP3   OH233298   6.207   0.710   0.330
11118TIP3    H133299   6.288   0.704   0.279
11118TIP3    H233300   6.137   0.697   0.266
11119TIP3   OH233301   4.375   5.485   5.373
11119TIP3    H133302   4.466   5.457   5.375
11119TIP3    H233303   4.372   5.560   5.433
11120TIP3   OH233304   6.214   4.167   6.431
11120TIP3    H133305   6.162   4.208   6.500
11120TIP3    H233306   6.251   4.241   6.382
11121TIP3   OH233307   7.984   7.303   0.970
11121TIP3    H133308   7.927   7.374   0.942
11121TIP3    H233309   7.965   7.232   0.908
11122TIP3   OH233310   0.389   4.632   1.017
11122TIP3    H133311   0.417   4.720   0.991
11122TIP3    H233312   0.432   4.574   0.954
11123TIP3   OH233313   3.607   2.183   1.925
11123TIP3    H133314   3.611   2.167   2.019
11123TIP3    H233315   3.514   2.202   1.908
11124TIP3   OH233316   3.772   5.707   4.571
11124TIP3    H133317   3.847   5.689   4.515
11124TIP3    H233318   3.780   5.644   4.643
11125TIP3   OH233319   0.278   2.755   1.359
11125TIP3    H133320   0.324   2.684   1.404
11125TIP3    H233321   0.220   2.711   1.297
11126TIP3   OH233322   7.400   0.676   2.898
11126TIP3    H133323   7.386   0.760   2.944
11126TIP3    H233324   7.384   0.696   2.806
11127TIP3   OH233325   5.769   7.208   3.451
11127TIP3    H133326   5.684   7.240   3.421
11127TIP3    H233327   5.809   7.169   3.374
11128TIP3   OH233328   2.158   2.504   5.970
11128TIP3    H133329   2.252   2.501   5.984
11128TIP3    H233330   2.142   2.592   5.934
11129TIP3   OH233331   3.487   7.227   4.538
11129TIP3    H133332   3.482   7.177   4.619
11129TIP3    H233333   3.500   7.160   4.470
11130TIP3   OH233334   5.679   0.539   5.422
11130TIP3    H133335   5.640   0.584   5.498
11130TIP3    H233336   5.748   0.484   5.460
11131TIP3   OH233337   6.739   5.143   6.490
11131TIP3    H133338   6.734   5.208   6.560
11131TIP3    H233339   6.658   5.154   6.440
11132TIP3   OH233340   7.260   0.152   6.533
11132TIP3    H133341   7.175   0.122   6.498
11132TIP3    H233342   7.296   0.206   6.463
11133TIP3   OH233343   6.074   6.611   3.473
11133TIP3    H133344   6.052   6.632   3.382
11133TIP3    H233345   6.063   6.516   3.480
11134TIP3   OH233346   2.398   2.419   0.266
11134TIP3    H133347   2.439   2.332   0.267
11134TIP3    H233348   2.305   2.402   0.281
11135TIP3   OH233349   7.836   2.063   1.073
11135TIP3    H133350   7.758   2.113   1.097
11135TIP3    H233351   7.899   2.129   1.045
11136TIP3   OH233352   1.943   6.612   0.391
11136TIP3    H133353   1.977   6.650   0.310
11136TIP3    H233354   1.876   6.674   0.419
11137TIP3   OH233355   2.345   5.775   2.242
11137TIP3    H133356   2.272   5.800   2.298
11137TIP3    H233357   2.410   5.844   2.255
11138TIP3   OH233358   1.079   1.627   1.442
11138TIP3    H133359   0.988   1.598   1.450
11138TIP3    H233360   1.123   1.588   1.518
11139TIP3   OH233361   1.225   3.308   1.129
11139TIP3    H133362   1.160   3.322   1.198
11139TIP3    H233363   1.174   3.299   1.049
11140TIP3   OH233364   6.606   7.408   0.318
11140TIP3    H133365   6.662   7.482   0.294
11140TIP3    H233366   6.599   7.414   0.414
11141TIP3   OH233367   2.026   4.370   2.949
11141TIP3    H133368   2.074   4.445   2.986
11141TIP3    H233369   2.005   4.397   2.860
11142TIP3   OH233370   2.231   4.128   0.205
11142TIP3    H133371   2.282   4.048   0.190
11142TIP3    H233372   2.255   4.156   0.293
11143TIP3   OH233373   0.581   2.342   3.367
11143TIP3    H133374   0.543   2.414   3.318
11143TIP3    H233375   0.510   2.277   3.374
11144TIP3   OH233376   2.947   0.456   1.763
11144TIP3    H133377   2.952   0.501   1.848
11144TIP3    H233378   2.965   0.364   1.784
11145TIP3   OH233379   4.157   2.352   5.220
11145TIP3    H133380   4.253   2.357   5.216
11145TIP3    H233381   4.136   2.378   5.310
11146TIP3   OH233382   7.552   3.424   0.268
11146TIP3    H133383   7.530   3.366   0.340
11146TIP3    H233384   7.467   3.454   0.235
11147TIP3   OH233385   4.182   7.725   3.476
11147TIP3    H133386   4.096   7.761   3.499
11147TIP3    H233387   4.169   7.681   3.392
11148TIP3   OH233388   7.457   1.109   1.659
11148TIP3    H133389   7.394   1.158   1.605
11148TIP3    H233390   7.504   1.053   1.597
11149TIP3   OH233391   5.030   7.704   2.935
11149TIP3    H133392   5.091   7.772   2.908
11149TIP3    H233393   5.015   7.721   3.028
11150TIP3   OH233394   5.058   3.074   2.584
11150TIP3    H133395   5.120   3.031   2.642
11150TIP3    H233396   5.004   3.128   2.641
11151TIP3   OH233397   7.164   6.913   2.578
11151TIP3    H133398   7.123   6.838   2.621
11151TIP3    H233399   7.169   6.887   2.486
11152TIP3   OH233400   0.538   4.109   1.170
11152TIP3    H133401   0.598   4.076   1.237
11152TIP3    H233402   0.573   4.075   1.087
11153TIP3   OH233403   2.045   3.372   1.196
11153TIP3    H133404   2.126   3.340   1.155
11153TIP3    H233405   1.983   3.300   1.183
11154TIP3   OH233406   7.307   2.126   3.141
11154TIP3    H133407   7.322   2.055   3.203
11154TIP3    H233408   7.299   2.084   3.056
11155TIP3   OH233409   3.226   7.279   3.505
11155TIP3    H133410   3.162   7.345   3.481
11155TIP3    H233411   3.203   7.255   3.595
11156TIP3   OH233412   6.765   5.320   1.653
11156TIP3    H133413   6.801   5.249   1.601
11156TIP3    H233414   6.687   5.284   1.694
11157TIP3   OH233415   2.461   6.257   0.987
11157TIP3    H133416   2.467   6.350   0.965
11157TIP3    H233417   2.550   6.233   1.012
11158TIP3   OH233418   2.432   2.158   1.067
11158TIP3    H133419   2.438   2.122   0.978
11158TIP3    H233420   2.363   2.224   1.061
11159TIP3   OH233421   1.087   0.191   2.281
11159TIP3    H133422   0.998   0.224   2.289
11159TIP3    H233423   1.141   0.256   2.326
11160TIP3   OH233424   4.622   5.258   5.669
11160TIP3    H133425   4.586   5.224   5.587
11160TIP3    H233426   4.692   5.318   5.642
11161TIP3   OH233427   0.335   1.739   4.267
11161TIP3    H133428   0.375   1.672   4.210
11161TIP3    H233429   0.410   1.779   4.311
11162TIP3   OH233430   6.002   0.699   2.423
11162TIP3    H133431   6.041   0.612   2.439
11162TIP3    H233432   6.068   0.745   2.372
11163TIP3   OH233433   5.390   0.758   6.283
11163TIP3    H133434   5.405   0.740   6.376
11163TIP3    H233435   5.387   0.854   6.277
11164TIP3   OH233436   4.586   6.502   0.453
11164TIP3    H133437   4.546   6.475   0.370
11164TIP3    H233438   4.517   6.552   0.497
11165TIP3   OH233439   5.388   4.706   2.722
11165TIP3    H133440   5.353   4.709   2.811
11165TIP3    H233441   5.460   4.769   2.722
11166TIP3   OH233442   1.149   5.175   2.643
11166TIP3    H133443   1.100   5.215   2.571
11166TIP3    H233444   1.129   5.082   2.638
11167TIP3   OH233445   4.031   5.022   0.612
11167TIP3    H133446   3.970   5.081   0.568
11167TIP3    H233447   3.997   4.935   0.592
11168TIP3   OH233448   1.246   2.352   5.903
11168TIP3    H133449   1.291   2.301   5.837
11168TIP3    H233450   1.301   2.346   5.981
11169TIP3   OH233451   0.397   4.460   4.446
11169TIP3    H133452   0.312   4.476   4.486
11169TIP3    H233453   0.377   4.416   4.364
11170TIP3   OH233454   5.003   6.833   5.659
11170TIP3    H133455   4.998   6.929   5.662
11170TIP3    H233456   4.954   6.805   5.736
11171TIP3   OH233457   2.140   7.621   2.100
11171TIP3    H133458   2.086   7.692   2.067
11171TIP3    H233459   2.197   7.662   2.165
11172TIP3   OH233460   7.491   4.670   6.323
11172TIP3    H133461   7.448   4.587   6.343
11172TIP3    H233462   7.562   4.676   6.386
11173TIP3   OH233463   7.171   2.351   3.535
11173TIP3    H133464   7.210   2.361   3.449
11173TIP3    H233465   7.204   2.267   3.567
11174TIP3   OH233466   2.353   7.140   4.914
11174TIP3    H133467   2.329   7.221   4.869
11174TIP3    H233468   2.448   7.145   4.922
11175TIP3   OH233469   2.172   0.602   0.118
11175TIP3    H133470   2.240   0.643   0.065
11175TIP3    H233471   2.140   0.673   0.174
11176TIP3   OH233472   4.253   4.330   0.700
11176TIP3    H133473   4.338   4.373   0.689
11176TIP3    H233474   4.228   4.347   0.791
11177TIP3   OH233475   7.379   1.864   4.713
11177TIP3    H133476   7.310   1.840   4.775
11177TIP3    H233477   7.360   1.955   4.691
11178TIP3   OH233478   2.747   4.288   3.073
11178TIP3    H133479   2.807   4.237   3.126
11178TIP3    H233480   2.768   4.379   3.094
11179TIP3   OH233481   0.241   0.248   4.023
11179TIP3    H133482   0.162   0.287   4.060
11179TIP3    H233483   0.306   0.318   4.028
11180TIP3   OH233484   5.280   6.837   0.543
11180TIP3    H133485   5.254   6.751   0.576
11180TIP3    H233486   5.318   6.881   0.619
11181TIP3   OH233487   3.381   2.364   6.314
11181TIP3    H133488   3.353   2.380   6.404
11181TIP3    H233489   3.472   2.335   6.321
11182TIP3   OH233490   3.066   7.597   4.931
11182TIP3    H133491   3.006   7.611   4.858
11182TIP3    H233492   3.068   7.681   4.977
11183TIP3   OH233493   4.681   1.458   2.729
11183TIP3    H133494   4.704   1.441   2.821
11183TIP3    H233495   4.591   1.427   2.721
11184TIP3   OH233496   7.249   4.612   3.482
11184TIP3    H133497   7.317   4.673   3.456
11184TIP3    H233498   7.181   4.623   3.415
11185TIP3   OH233499   6.760   5.609   1.626
11185TIP3    H133500   6.720   5.645   1.706
11185TIP3    H233501   6.749   5.515   1.634
11186TIP3   OH233502   7.582   5.807   2.149
11186TIP3    H133503   7.662   5.835   2.193
11186TIP3    H233504   7.545   5.739   2.206
11187TIP3   OH233505   1.279   5.177   5.808
11187TIP3    H133506   1.341   5.231   5.857
11187TIP3    H233507   1.331   5.137   5.739
11188TIP3   OH233508   6.183   7.461   3.954
11188TIP3    H133509   6.129   7.385   3.935
11188TIP3    H233510   6.272   7.426   3.964
11189TIP3   OH233511   6.363   7.025   0.638
11189TIP3    H133512   6.392   7.116   0.628
11189TIP3    H233513   6.344   6.996   0.549
11190TIP3   OH233514   2.267   3.380   0.523
11190TIP3    H133515   2.283   3.475   0.530
11190TIP3    H233516   2.325   3.351   0.453
11191TIP3   OH233517   5.515   3.621   1.529
11191TIP3    H133518   5.481   3.710   1.541
11191TIP3    H233519   5.573   3.628   1.454
11192TIP3   OH233520   4.230   0.645   1.698
11192TIP3    H133521   4.293   0.583   1.736
11192TIP3    H233522   4.265   0.665   1.611
11193TIP3   OH233523   7.353   3.906   4.702
11193TIP3    H133524   7.379   3.890   4.611
11193TIP3    H233525   7.381   3.995   4.721
11194TIP3   OH233526   1.455   6.190   4.246
11194TIP3    H133527   1.404   6.268   4.223
11194TIP3    H233528   1.526   6.189   4.182
11195TIP3   OH233529   6.392   1.973   2.263
11195TIP3    H133530   6.467   1.937   2.310
11195TIP3    H233531   6.419   2.061   2.238
11196TIP3   OH233532   5.153   6.087   2.863
11196TIP3    H133533   5.237   6.048   2.839
11196TIP3    H233534   5.168   6.121   2.952
11197TIP3   OH233535   3.930   4.791   0.519
11197TIP3    H133536   3.916   4.745   0.436
11197TIP3    H233537   3.882   4.739   0.583
11198TIP3   OH233538   4.601   5.358   0.201
11198TIP3    H133539   4.605   5.454   0.209
11198TIP3    H233540   4.521   5.341   0.152
11199TIP3   OH233541   8.182   2.379   5.265
11199TIP3    H133542   8.249   2.312   5.281
11199TIP3    H233543   8.103   2.328   5.246
11200TIP3   OH233544   5.637   2.971   3.297
11200TIP3    H133545   5.632   3.063   3.274
11200TIP3    H233546   5.690   2.931   3.228
11201TIP3   OH233547   4.790   5.208   4.377
11201TIP3    H133548   4.699   5.226   4.352
11201TIP3    H233549   4.840   5.279   4.338
11202TIP3   OH233550   5.212   0.300   2.340
11202TIP3    H133551   5.281   0.339   2.286
11202TIP3    H233552   5.193   0.216   2.298
11203TIP3   OH233553   3.340   6.486   1.742
11203TIP3    H133554   3.399   6.485   1.666
11203TIP3    H233555   3.253   6.467   1.705
11204TIP3   OH233556   6.895   1.343   6.055
11204TIP3    H133557   6.835   1.302   6.117
11204TIP3    H233558   6.846   1.418   6.021
11205TIP3   OH233559   3.628   4.076   1.918
11205TIP3    H133560   3.624   4.007   1.851
11205TIP3    H233561   3.592   4.034   1.997
11206TIP3   OH233562   4.295   6.340   3.315
11206TIP3    H133563   4.251   6.266   3.356
11206TIP3    H233564   4.226   6.382   3.262
11207TIP3   OH233565   3.650   6.125   1.662
11207TIP3    H133566   3.632   6.032   1.645
11207TIP3    H233567   3.745   6.132   1.660
11208TIP3   OH233568   7.158   2.645   2.731
11208TIP3    H133569   7.243   2.602   2.719
11208TIP3    H233570   7.127   2.661   2.642
11209TIP3   OH233571   0.226   2.365   0.771
11209TIP3    H133572   0.246   2.336   0.682
11209TIP3    H233573   0.149   2.421   0.762
11210TIP3   OH233574   5.234   1.286   0.499
11210TIP3    H133575   5.285   1.314   0.423
11210TIP3    H233576   5.247   1.356   0.563
11211TIP3   OH233577   1.371   2.758   0.203
11211TIP3    H133578   1.456   2.769   0.246
11211TIP3    H233579   1.389   2.699   0.130
11212TIP3   OH233580   6.714   0.680   3.356
11212TIP3    H133581   6.626   0.683   3.395
11212TIP3    H233582   6.698   0.663   3.263
11213TIP3   OH233583   2.861   6.441   2.066
11213TIP3    H133584   2.903   6.522   2.038
11213TIP3    H233585   2.850   6.451   2.160
11214TIP3   OH233586   1.361   3.246   1.375
11214TIP3    H133587   1.343   3.152   1.370
11214TIP3    H233588   1.388   3.270   1.286
11215TIP3   OH233589   7.648   0.105   5.857
11215TIP3    H133590   7.736   0.111   5.895
11215TIP3    H233591   7.628   0.194   5.828
11216TIP3   OH233592   0.219   2.240   2.031
11216TIP3    H133593   0.158   2.167   2.022
11216TIP3    H233594   0.297   2.212   1.983
11217TIP3   OH233595   0.966   5.781   0.422
11217TIP3    H133596   0.992   5.703   0.472
11217TIP3    H233597   0.973   5.853   0.485
11218TIP3   OH233598   5.001   4.970   4.771
11218TIP3    H133599   4.948   4.931   4.841
11218TIP3    H233600   4.941   5.028   4.725
11219TIP3   OH233601   6.496   7.447   2.483
11219TIP3    H133602   6.551   7.411   2.552
11219TIP3    H233603   6.519   7.540   2.480
11220TIP3   OH233604   5.761   6.706   6.740
11220TIP3    H133605   5.797   6.644   6.804
11220TIP3    H233606   5.835   6.763   6.719
11221TIP3   OH233607   6.352   7.640   6.186
11221TIP3    H133608   6.407   7.682   6.252
11221TIP3    H233609   6.297   7.711   6.153
11222TIP3   OH233610   7.052   2.585   3.597
11222TIP3    H133611   7.112   2.636   3.543
11222TIP3    H233612   7.091   2.497   3.600
11223TIP3   OH233613   7.947   6.288   5.271
11223TIP3    H133614   7.946   6.337   5.354
11223TIP3    H233615   8.027   6.316   5.227
11224TIP3   OH233616   5.389   3.154   3.648
11224TIP3    H133617   5.326   3.177   3.580
11224TIP3    H233618   5.463   3.212   3.633
11225TIP3   OH233619   0.111   6.753   3.475
11225TIP3    H133620   0.182   6.689   3.474
11225TIP3    H233621   0.059   6.733   3.397
11226TIP3   OH233622   6.054   1.569   2.996
11226TIP3    H133623   6.106   1.494   3.027
11226TIP3    H233624   6.054   1.561   2.901
11227TIP3   OH233625   1.314   6.198   2.844
11227TIP3    H133626   1.261   6.255   2.788
11227TIP3    H233627   1.394   6.248   2.860
11228TIP3   OH233628   6.281   3.600   0.653
11228TIP3    H133629   6.215   3.594   0.584
11228TIP3    H233630   6.237   3.567   0.732
11229TIP3   OH233631   4.907   5.396   2.264
11229TIP3    H133632   4.851   5.462   2.223
11229TIP3    H233633   4.876   5.313   2.228
11230TIP3   OH233634   2.983   6.155   6.378
11230TIP3    H133635   2.905   6.211   6.386
11230TIP3    H233636   2.970   6.109   6.295
11231TIP3   OH233637   2.730   7.373   4.759
11231TIP3    H133638   2.728   7.355   4.853
11231TIP3    H233639   2.730   7.468   4.752
11232TIP3   OH233640   2.476   0.209   6.528
11232TIP3    H133641   2.423   0.130   6.537
11232TIP3    H233642   2.470   0.252   6.613
11233TIP3   OH233643   7.338   4.978   1.210
11233TIP3    H133644   7.343   4.962   1.116
11233TIP3    H233645   7.383   4.903   1.249
11234TIP3   OH233646   1.213   1.572   1.714
11234TIP3    H133647   1.277   1.643   1.709
11234TIP3    H233648   1.245   1.515   1.784
11235TIP3   OH233649   0.318   7.220   3.571
11235TIP3    H133650   0.389   7.270   3.531
11235TIP3    H233651   0.362   7.157   3.628
11236TIP3   OH233652   3.909   4.534   2.990
11236TIP3    H133653   3.826   4.497   2.963
11236TIP3    H233654   3.960   4.459   3.020
11237TIP3   OH233655   8.005   7.263   5.889
11237TIP3    H133656   8.077   7.281   5.951
11237TIP3    H233657   8.021   7.323   5.817
11238TIP3   OH233658   1.551   5.599   2.125
11238TIP3    H133659   1.624   5.660   2.117
11238TIP3    H233660   1.503   5.630   2.202
11239TIP3   OH233661   5.287   7.636   5.472
11239TIP3    H133662   5.291   7.674   5.559
11239TIP3    H233663   5.263   7.709   5.415
11240TIP3   OH233664   3.569   5.810   6.400
11240TIP3    H133665   3.536   5.818   6.311
11240TIP3    H233666   3.664   5.796   6.390
11241TIP3   OH233667   7.542   1.109   5.569
11241TIP3    H133668   7.630   1.074   5.569
11241TIP3    H233669   7.553   1.202   5.589
11242TIP3   OH233670   8.186   3.204   0.727
11242TIP3    H133671   8.103   3.178   0.688
11242TIP3    H233672   8.234   3.245   0.655
11243TIP3   OH233673   3.388   5.641   2.365
11243TIP3    H133674   3.293   5.633   2.359
11243TIP3    H233675   3.421   5.612   2.280
11244TIP3   OH233676   4.040   4.267   2.835
11244TIP3    H133677   4.038   4.179   2.799
11244TIP3    H233678   4.000   4.259   2.921
11245TIP3   OH233679   4.746   2.691   0.596
11245TIP3    H133680   4.747   2.615   0.538
11245TIP3    H233681   4.692   2.755   0.549
11246TIP3   OH233682   0.447   6.939   6.022
11246TIP3    H133683   0.453   6.916   6.115
11246TIP3    H233684   0.353   6.942   6.005
11247TIP3   OH233685   8.245   0.567   1.341
11247TIP3    H133686   8.203   0.648   1.370
11247TIP3    H233687   8.244   0.510   1.418
11248TIP3   OH233688   4.424   6.826   2.894
11248TIP3    H133689   4.419   6.867   2.807
11248TIP3    H233690   4.507   6.859   2.930
11249TIP3   OH233691   6.758   1.388   0.613
11249TIP3    H133692   6.665   1.410   0.611
11249TIP3    H233693   6.798   1.447   0.550
11250TIP3   OH233694   6.081   6.856   1.534
11250TIP3    H133695   6.160   6.887   1.579
11250TIP3    H233696   6.109   6.846   1.442
11251TIP3   OH233697   6.021   5.851   5.404
11251TIP3    H133698   5.962   5.926   5.402
11251TIP3    H233699   6.089   5.872   5.339
11252TIP3   OH233700   4.315   2.326   4.142
11252TIP3    H133701   4.295   2.246   4.094
11252TIP3    H233702   4.302   2.396   4.079
11253TIP3   OH233703   4.323   1.082   0.258
11253TIP3    H133704   4.410   1.122   0.255
11253TIP3    H233705   4.308   1.065   0.351
11254TIP3   OH233706   2.609   1.068   1.342
11254TIP3    H133707   2.592   1.118   1.422
11254TIP3    H233708   2.527   1.071   1.293
11255TIP3   OH233709   6.912   0.514   6.330
11255TIP3    H133710   6.997   0.536   6.368
11255TIP3    H233711   6.927   0.513   6.236
11256TIP3   OH233712   2.561   0.964   5.178
11256TIP3    H133713   2.565   0.884   5.127
11256TIP3    H233714   2.551   1.034   5.113
11257TIP3   OH233715   7.783   2.000   2.750
11257TIP3    H133716   7.774   1.992   2.655
11257TIP3    H233717   7.818   1.916   2.778
11258TIP3   OH233718   5.657   5.391   3.075
11258TIP3    H133719   5.669   5.476   3.033
11258TIP3    H233720   5.683   5.406   3.166
11259TIP3   OH233721   0.439   5.237   3.482
11259TIP3    H133722   0.508   5.265   3.541
11259TIP3    H233723   0.427   5.144   3.500
11260TIP3   OH233724   0.862   6.801   3.705
11260TIP3    H133725   0.893   6.821   3.793
11260TIP3    H233726   0.882   6.708   3.692
11261TIP3   OH233727   2.260   0.554   6.609
11261TIP3    H133728   2.210   0.634   6.593
11261TIP3    H233729   2.194   0.486   6.617
11262TIP3   OH233730   1.601   7.518   5.597
11262TIP3    H133731   1.639   7.601   5.570
11262TIP3    H233732   1.669   7.476   5.650
11263TIP3   OH233733   3.805   0.184   1.324
11263TIP3    H133734   3.881   0.137   1.290
11263TIP3    H233735   3.743   0.115   1.348
11264TIP3   OH233736   5.073   0.968   2.192
11264TIP3    H133737   5.000   1.024   2.166
11264TIP3    H233738   5.098   1.000   2.279
11265TIP3   OH233739   7.401   6.186   6.341
11265TIP3    H133740   7.489   6.150   6.333
11265TIP3    H233741   7.360   6.168   6.257
11266TIP3   OH233742   5.119   5.271   6.190
11266TIP3    H133743   5.156   5.327   6.122
11266TIP3    H233744   5.048   5.224   6.146
11267TIP3   OH233745   6.604   5.140   4.033
11267TIP3    H133746   6.561   5.078   4.091
11267TIP3    H233747   6.693   5.148   4.068
11268TIP3   OH233748   8.244   1.408   3.701
11268TIP3    H133749   8.182   1.368   3.762
11268TIP3    H233750   8.260   1.341   3.635
11269TIP3   OH233751   2.424   0.164   0.276
11269TIP3    H133752   2.472   0.205   0.348
11269TIP3    H233753   2.360   0.229   0.249
11270TIP3   OH233754   2.768   2.585   2.779
11270TIP3    H133755   2.740   2.676   2.781
11270TIP3    H233756   2.702   2.539   2.832
11271TIP3   OH233757   3.469   4.690   1.315
11271TIP3    H133758   3.459   4.746   1.238
11271TIP3    H233759   3.443   4.603   1.285
11272TIP3   OH233760   3.133   6.258   2.037
11272TIP3    H133761   3.084   6.218   2.109
11272TIP3    H233762   3.068   6.272   1.968
11273TIP3   OH233763   3.324   1.420   2.830
11273TIP3    H133764   3.401   1.373   2.798
11273TIP3    H233765   3.314   1.494   2.770
11274TIP3   OH233766   1.145   5.757   4.451
11274TIP3    H133767   1.233   5.764   4.489
11274TIP3    H233768   1.155   5.697   4.377
11275TIP3   OH233769   1.986   0.228   2.549
11275TIP3    H133770   1.927   0.289   2.593
11275TIP3    H233771   1.935   0.147   2.541
11276TIP3   OH233772   7.075   2.915   2.128
11276TIP3    H133773   7.110   2.900   2.040
11276TIP3    H233774   7.109   3.001   2.153
11277TIP3   OH233775   7.351   6.151   3.830
11277TIP3    H133776   7.396   6.152   3.914
11277TIP3    H233777   7.348   6.243   3.803
11278TIP3   OH233778   6.981   3.476   0.262
11278TIP3    H133779   6.912   3.513   0.208
11278TIP3    H233780   7.035   3.425   0.201
11279TIP3   OH233781   2.907   2.990   1.647
11279TIP3    H133782   2.970   3.062   1.653
11279TIP3    H233783   2.932   2.942   1.568
11280TIP3   OH233784   1.484   3.329   3.999
11280TIP3    H133785   1.430   3.383   4.057
11280TIP3    H233786   1.573   3.361   4.013
11281TIP3   OH233787   5.879   3.389   6.539
11281TIP3    H133788   5.805   3.437   6.577
11281TIP3    H233789   5.941   3.457   6.514
11282TIP3   OH233790   5.324   6.959   4.455
11282TIP3    H133791   5.252   6.970   4.393
11282TIP3    H233792   5.289   6.901   4.522
11283TIP3   OH233793   1.737   7.742   1.598
11283TIP3    H133794   1.764   7.658   1.636
11283TIP3    H233795   1.695   7.788   1.671
11284TIP3   OH233796   2.684   0.304   3.954
11284TIP3    H133797   2.610   0.358   3.983
11284TIP3    H233798   2.655   0.214   3.967
11285TIP3   OH233799   3.589   2.091   4.498
11285TIP3    H133800   3.552   2.027   4.559
11285TIP3    H233801   3.681   2.096   4.521
11286TIP3   OH233802   4.831   5.906   4.482
11286TIP3    H133803   4.758   5.861   4.525
11286TIP3    H233804   4.801   5.997   4.472
11287TIP3   OH233805   6.077   5.630   1.466
11287TIP3    H133806   5.997   5.583   1.491
11287TIP3    H233807   6.102   5.676   1.546
11288TIP3   OH233808   6.490   4.764   1.407
11288TIP3    H133809   6.535   4.680   1.407
11288TIP3    H233810   6.555   4.826   1.440
11289TIP3   OH233811   4.600   7.460   3.522
11289TIP3    H133812   4.561   7.542   3.492
11289TIP3    H233813   4.677   7.448   3.466
11290TIP3   OH233814   5.836   0.169   0.052
11290TIP3    H133815   5.848   0.179  -0.042
11290TIP3    H233816   5.756   0.116   0.060
11291TIP3   OH233817   4.708   0.502   4.658
11291TIP3    H133818   4.754   0.421   4.640
11291TIP3    H233819   4.765   0.549   4.719
11292TIP3   OH233820   3.015   3.024   2.958
11292TIP3    H133821   3.095   2.978   2.934
11292TIP3    H233822   2.954   3.006   2.887
11293TIP3   OH233823   8.125   3.522   1.525
11293TIP3    H133824   8.213   3.487   1.508
11293TIP3    H233825   8.092   3.546   1.439
11294TIP3   OH233826   4.044   0.394   3.665
11294TIP3    H133827   3.956   0.395   3.701
11294TIP3    H233828   4.074   0.484   3.671
11295TIP3   OH233829   5.122   7.271   0.432
11295TIP3    H133830   5.092   7.180   0.428
11295TIP3    H233831   5.174   7.276   0.512
11296TIP3   OH233832   6.746   4.768   3.328
11296TIP3    H133833   6.768   4.796   3.239
11296TIP3    H233834   6.652   4.753   3.326
11297TIP3   OH233835   4.836   2.250   1.905
11297TIP3    H133836   4.804   2.329   1.861
11297TIP3    H233837   4.778   2.241   1.981
11298TIP3   OH233838   7.471   5.901   1.241
11298TIP3    H133839   7.448   5.988   1.273
11298TIP3    H233840   7.390   5.851   1.248
11299TIP3   OH233841   0.053   2.651   3.943
11299TIP3    H133842   0.095   2.649   4.029
11299TIP3    H233843  -0.025   2.703   3.955
11300TIP3   OH233844   6.165   5.934   1.259
11300TIP3    H133845   6.154   5.843   1.231
11300TIP3    H233846   6.254   5.957   1.233
11301TIP3   OH233847   8.137   7.330   3.436
11301TIP3    H133848   8.123   7.250   3.487
11301TIP3    H233849   8.054   7.378   3.444
11302TIP3   OH233850   7.464   4.484   1.621
11302TIP3    H133851   7.519   4.406   1.614
11302TIP3    H233852   7.380   4.451   1.653
11303TIP3   OH233853   4.832   4.452   3.705
11303TIP3    H133854   4.767   4.458   3.774
11303TIP3    H233855   4.878   4.536   3.708
11304TIP3   OH233856   5.777   7.511   2.377
11304TIP3    H133857   5.836   7.523   2.452
11304TIP3    H233858   5.710   7.579   2.388
11305TIP3   OH233859   6.312   0.206   4.157
11305TIP3    H133860   6.369   0.239   4.227
11305TIP3    H233861   6.370   0.156   4.100
11306TIP3   OH233862   3.230   7.569  -0.003
11306TIP3    H133863   3.159   7.603   0.050
11306TIP3    H233864   3.309   7.606   0.036
11307TIP3   OH233865   7.618   4.713   2.406
11307TIP3    H133866   7.599   4.749   2.493
11307TIP3    H233867   7.633   4.789   2.351
11308TIP3   OH233868   3.567   1.906   4.744
11308TIP3    H133869   3.524   1.821   4.744
11308TIP3    H233870   3.593   1.920   4.835
11309TIP3   OH233871   7.815   4.920   2.293
11309TIP3    H133872   7.768   4.948   2.215
11309TIP3    H233873   7.905   4.949   2.279
11310TIP3   OH233874   2.510   3.932   5.273
11310TIP3    H133875   2.574   3.880   5.322
11310TIP3    H233876   2.562   3.999   5.229
11311TIP3   OH233877   2.592   4.694   5.374
11311TIP3    H133878   2.655   4.697   5.446
11311TIP3    H233879   2.519   4.642   5.409
11312TIP3   OH233880   1.129   4.589   0.858
11312TIP3    H133881   1.206   4.542   0.888
11312TIP3    H233882   1.055   4.535   0.886
11313TIP3   OH233883   1.717   4.826   2.649
11313TIP3    H133884   1.731   4.802   2.558
11313TIP3    H233885   1.681   4.747   2.690
11314TIP3   OH233886   6.472   5.660   1.351
11314TIP3    H133887   6.455   5.711   1.430
11314TIP3    H233888   6.562   5.683   1.327
11315TIP3   OH233889   5.012   3.391   0.075
11315TIP3    H133890   4.948   3.369   0.142
11315TIP3    H233891   4.985   3.477   0.043
11316TIP3   OH233892   3.344   7.516   4.550
11316TIP3    H133893   3.426   7.467   4.560
11316TIP3    H233894   3.298   7.504   4.633
11317TIP3   OH233895   1.108   2.444   0.740
11317TIP3    H133896   1.072   2.480   0.821
11317TIP3    H233897   1.121   2.520   0.684
11318TIP3   OH233898   2.612   7.353   3.611
11318TIP3    H133899   2.520   7.347   3.585
11318TIP3    H233900   2.613   7.328   3.703
11319TIP3   OH233901   3.992   6.025   0.124
11319TIP3    H133902   4.047   5.991   0.194
11319TIP3    H233903   3.921   6.071   0.169
11320TIP3   OH233904   1.511   7.660   6.090
11320TIP3    H133905   1.526   7.634   6.181
11320TIP3    H233906   1.422   7.696   6.089
11321TIP3   OH233907   4.943   3.562   6.388
11321TIP3    H133908   4.932   3.562   6.483
11321TIP3    H233909   5.014   3.501   6.372
11322TIP3   OH233910   4.210   3.228   2.355
11322TIP3    H133911   4.206   3.231   2.450
11322TIP3    H233912   4.191   3.318   2.327
11323TIP3   OH233913   3.153   6.024   1.573
11323TIP3    H133914   3.199   5.942   1.589
11323TIP3    H233915   3.194   6.087   1.632
11324TIP3   OH233916   2.188   1.682   0.771
11324TIP3    H133917   2.119   1.703   0.708
11324TIP3    H233918   2.218   1.767   0.802
11325TIP3   OH233919   5.185   4.530   3.850
11325TIP3    H133920   5.237   4.611   3.854
11325TIP3    H233921   5.106   4.550   3.900
11326TIP3   OH233922   7.294   2.952   2.806
11326TIP3    H133923   7.276   3.043   2.831
11326TIP3    H233924   7.327   2.957   2.716
11327TIP3   OH233925   5.827   3.323   4.274
11327TIP3    H133926   5.831   3.327   4.179
11327TIP3    H233927   5.801   3.233   4.294
11328TIP3   OH233928   1.538   4.498   1.301
11328TIP3    H133929   1.580   4.562   1.359
11328TIP3    H233930   1.572   4.518   1.214
11329TIP3   OH233931   7.767   5.979   5.870
11329TIP3    H133932   7.794   6.025   5.949
11329TIP3    H233933   7.714   6.042   5.821
11330TIP3   OH233934   5.601   1.530   2.928
11330TIP3    H133935   5.541   1.476   2.877
11330TIP3    H233936   5.595   1.617   2.888
11331TIP3   OH233937   3.517   0.699   3.003
11331TIP3    H133938   3.610   0.707   2.984
11331TIP3    H233939   3.482   0.648   2.929
11332TIP3   OH233940   5.069   0.857   5.274
11332TIP3    H133941   4.979   0.872   5.303
11332TIP3    H233942   5.118   0.843   5.355
11333TIP3   OH233943   6.612   4.617   5.225
11333TIP3    H133944   6.524   4.640   5.256
11333TIP3    H233945   6.665   4.693   5.246
11334TIP3   OH233946   6.987   5.532   1.826
11334TIP3    H133947   6.917   5.557   1.766
11334TIP3    H233948   6.944   5.523   1.911
11335TIP3   OH233949   0.390   5.564   1.116
11335TIP3    H133950   0.436   5.554   1.199
11335TIP3    H233951   0.439   5.630   1.068
11336TIP3   OH233952   7.099   0.244   6.190
11336TIP3    H133953   7.014   0.270   6.155
11336TIP3    H233954   7.128   0.319   6.242
11337TIP3   OH233955   3.563   7.238   3.026
11337TIP3    H133956   3.485   7.224   3.081
11337TIP3    H233957   3.528   7.245   2.937
11338TIP3   OH233958   6.141   3.706   0.305
11338TIP3    H133959   6.108   3.631   0.354
11338TIP3    H233960   6.156   3.673   0.216
11339TIP3   OH233961   2.233   2.716   4.241
11339TIP3    H133962   2.231   2.720   4.336
11339TIP3    H233963   2.149   2.752   4.214
11340TIP3   OH233964   7.174   1.050   3.788
11340TIP3    H133965   7.222   1.099   3.856
11340TIP3    H233966   7.225   0.970   3.777
11341TIP3   OH233967   1.157   5.771   3.084
11341TIP3    H133968   1.075   5.819   3.079
11341TIP3    H233969   1.188   5.785   3.174
11342TIP3   OH233970   3.589   6.769   0.319
11342TIP3    H133971   3.540   6.777   0.237
11342TIP3    H233972   3.636   6.852   0.327
11343TIP3   OH233973   6.901   6.898   3.403
11343TIP3    H133974   6.901   6.902   3.307
11343TIP3    H233975   6.820   6.852   3.426
11344TIP3   OH233976   6.543   7.422   3.182
11344TIP3    H133977   6.594   7.386   3.110
11344TIP3    H233978   6.453   7.426   3.149
11345TIP3   OH233979   6.898   1.484   4.480
11345TIP3    H133980   6.909   1.488   4.385
11345TIP3    H233981   6.814   1.527   4.496
11346TIP3   OH233982   6.671   5.584   6.128
11346TIP3    H133983   6.695   5.548   6.043
11346TIP3    H233984   6.576   5.572   6.133
11347TIP3   OH233985   3.498   4.872   2.637
11347TIP3    H133986   3.482   4.917   2.554
11347TIP3    H233987   3.520   4.942   2.698
11348TIP3   OH233988   8.160   2.377   0.062
11348TIP3    H133989   8.198   2.462   0.041
11348TIP3    H233990   8.067   2.397   0.080
11349TIP3   OH233991   0.227   0.038   1.678
11349TIP3    H133992   0.214   0.133   1.675
11349TIP3    H233993   0.203   0.014   1.768
11350TIP3   OH233994   2.396   6.861   6.018
11350TIP3    H133995   2.450   6.891   6.090
11350TIP3    H233996   2.373   6.941   5.970
11351TIP3   OH233997   0.271   0.181   3.752
11351TIP3    H133998   0.261   0.086   3.744
11351TIP3    H233999   0.264   0.197   3.846
11352TIP3   OH234000   2.694   3.715   4.801
11352TIP3    H134001   2.686   3.742   4.709
11352TIP3    H234002   2.604   3.714   4.833
11353TIP3   OH234003   2.372   1.964   2.721
11353TIP3    H134004   2.377   1.904   2.796
11353TIP3    H234005   2.358   2.050   2.760
11354TIP3   OH234006   1.533   2.553   2.291
11354TIP3    H134007   1.468   2.508   2.344
11354TIP3    H234008   1.564   2.625   2.346
11355TIP3   OH234009   2.139   0.353   4.056
11355TIP3    H134010   2.100   0.345   4.143
11355TIP3    H234011   2.075   0.404   4.005
11356TIP3   OH234012   2.590   3.586   6.559
11356TIP3    H134013   2.659   3.644   6.527
11356TIP3    H234014   2.597   3.591   6.654
11357TIP3   OH234015   4.761   7.762   2.318
11357TIP3    H134016   4.704   7.738   2.245
11357TIP3    H234017   4.718   7.725   2.395
11358TIP3   OH234018   1.525   0.174   5.719
11358TIP3    H134019   1.501   0.243   5.657
11358TIP3    H234020   1.445   0.123   5.730
11359TIP3   OH234021   5.049   4.397   3.385
11359TIP3    H134022   5.092   4.387   3.469
11359TIP3    H234023   5.084   4.326   3.331
11360TIP3   OH234024   0.377   0.229   0.329
11360TIP3    H134025   0.357   0.317   0.360
11360TIP3    H234026   0.355   0.172   0.403
11361TIP3   OH234027   5.545   1.699   0.523
11361TIP3    H134028   5.563   1.666   0.610
11361TIP3    H234029   5.631   1.711   0.483
11362TIP3   OH234030   2.996   3.520   0.085
11362TIP3    H134031   3.058   3.489   0.151
11362TIP3    H234032   2.910   3.492   0.117
11363TIP3   OH234033   6.091   7.255   5.804
11363TIP3    H134034   6.012   7.258   5.858
11363TIP3    H234035   6.160   7.291   5.860
11364TIP3   OH234036   3.892   5.766   5.943
11364TIP3    H134037   3.924   5.833   6.004
11364TIP3    H234038   3.892   5.809   5.858
11365TIP3   OH234039   0.671   5.742   6.534
11365TIP3    H134040   0.750   5.794   6.520
11365TIP3    H234041   0.702   5.655   6.556
11366TIP3   OH234042   5.785   1.896   1.003
11366TIP3    H134043   5.760   1.934   0.918
11366TIP3    H234044   5.880   1.905   1.006
11367TIP3   OH234045   7.043   4.097   0.236
11367TIP3    H134046   7.046   4.137   0.149
11367TIP3    H234047   7.120   4.131   0.282
11368TIP3   OH234048   6.415   6.682   1.437
11368TIP3    H134049   6.473   6.754   1.463
11368TIP3    H234050   6.390   6.640   1.519
11369TIP3   OH234051   3.432   5.300   3.147
11369TIP3    H134052   3.469   5.316   3.060
11369TIP3    H234053   3.509   5.291   3.204
11370TIP3   OH234054   1.151   4.187   5.451
11370TIP3    H134055   1.119   4.108   5.406
11370TIP3    H234056   1.184   4.243   5.380
11371TIP3   OH234057   1.589   2.770   4.405
11371TIP3    H134058   1.629   2.844   4.359
11371TIP3    H234059   1.504   2.759   4.363
11372TIP3   OH234060   3.365   7.351   6.569
11372TIP3    H134061   3.323   7.338   6.484
11372TIP3    H234062   3.367   7.447   6.580
11373TIP3   OH234063   4.965   7.668   3.622
11373TIP3    H134064   5.009   7.646   3.540
11373TIP3    H234065   4.925   7.586   3.651
11374TIP3   OH234066   5.931   4.892   1.893
11374TIP3    H134067   5.994   4.820   1.891
11374TIP3    H234068   5.978   4.967   1.857
11375TIP3   OH234069   6.015   4.467   6.700
11375TIP3    H134070   6.092   4.467   6.757
11375TIP3    H234071   5.942   4.485   6.759
11376TIP3   OH234072   0.948   3.460   0.536
11376TIP3    H134073   0.938   3.454   0.441
11376TIP3    H234074   0.959   3.554   0.553
11377TIP3   OH234075   3.356   1.941   3.230
11377TIP3    H134076   3.368   1.892   3.148
11377TIP3    H234077   3.351   1.874   3.298
11378TIP3   OH234078   7.645   7.373   3.937
11378TIP3    H134079   7.599   7.455   3.954
11378TIP3    H234080   7.587   7.305   3.972
11379TIP3   OH234081   8.260   1.737   3.081
11379TIP3    H134082   8.302   1.794   3.018
11379TIP3    H234083   8.166   1.758   3.075
11380TIP3   OH234084   6.273   4.367   3.122
11380TIP3    H134085   6.320   4.306   3.178
11380TIP3    H234086   6.191   4.323   3.101
11381TIP3   OH234087   6.418   5.589   2.032
11381TIP3    H134088   6.354   5.575   2.101
11381TIP3    H234089   6.477   5.515   2.039
11382TIP3   OH234090   3.357   2.324   1.994
11382TIP3    H134091   3.280   2.287   1.951
11382TIP3    H234092   3.378   2.402   1.942
11383TIP3   OH234093   4.930   3.542   6.662
11383TIP3    H134094   5.013   3.494   6.655
11383TIP3    H234095   4.878   3.490   6.722
11384TIP3   OH234096   1.935   6.566   4.367
11384TIP3    H134097   1.952   6.611   4.284
11384TIP3    H234098   1.844   6.536   4.360
11385TIP3   OH234099   6.911   7.432   1.965
11385TIP3    H134100   6.897   7.413   2.058
11385TIP3    H234101   6.924   7.346   1.925
11386TIP3   OH234102   0.095   2.308   6.586
11386TIP3    H134103   0.003   2.323   6.607
11386TIP3    H234104   0.099   2.311   6.490
11387TIP3   OH234105   0.068   6.871   1.178
11387TIP3    H134106  -0.012   6.872   1.230
11387TIP3    H234107   0.095   6.963   1.174
11388TIP3   OH234108   5.045   0.037   3.492
11388TIP3    H134109   5.094   0.063   3.571
11388TIP3    H234110   5.097   0.071   3.420
11389TIP3   OH234111   6.579   5.277   3.229
11389TIP3    H134112   6.593   5.340   3.158
11389TIP3    H234113   6.668   5.254   3.258
11390TIP3   OH234114   8.091   2.748   3.858
11390TIP3    H134115   7.999   2.768   3.838
11390TIP3    H234116   8.141   2.808   3.802
11391TIP3   OH234117   7.196   0.397   4.145
11391TIP3    H134118   7.203   0.476   4.091
11391TIP3    H234119   7.141   0.423   4.219
11392TIP3   OH234120   0.264   4.485   0.751
11392TIP3    H134121   0.357   4.462   0.740
11392TIP3    H234122   0.265   4.578   0.771
11393TIP3   OH234123   7.008   3.281   4.953
11393TIP3    H134124   6.944   3.329   4.901
11393TIP3    H234125   7.027   3.338   5.027
11394TIP3   OH234126   7.979   4.502   2.967
11394TIP3    H134127   8.015   4.450   3.038
11394TIP3    H234128   8.027   4.585   2.971
11395TIP3   OH234129   1.421   7.039   3.544
11395TIP3    H134130   1.413   7.112   3.484
11395TIP3    H234131   1.515   7.023   3.551
11396TIP3   OH234132   7.169   6.555   0.851
11396TIP3    H134133   7.181   6.477   0.795
11396TIP3    H234134   7.156   6.627   0.789
11397TIP3   OH234135   6.005   4.071   0.626
11397TIP3    H134136   6.042   4.068   0.538
11397TIP3    H234137   6.000   3.979   0.653
11398TIP3   OH234138   7.212   5.735   1.339
11398TIP3    H134139   7.261   5.659   1.370
11398TIP3    H234140   7.151   5.755   1.410
11399TIP3   OH234141   4.030   6.682   5.590
11399TIP3    H134142   3.970   6.663   5.661
11399TIP3    H234143   4.115   6.648   5.620
11400TIP3   OH234144   2.203   6.062   3.750
11400TIP3    H134145   2.281   6.067   3.695
11400TIP3    H234146   2.146   6.131   3.716
11401TIP3   OH234147   0.872   3.414   2.681
11401TIP3    H134148   0.781   3.420   2.711
11401TIP3    H234149   0.870   3.454   2.593
11402TIP3   OH234150   6.066   7.349   2.348
11402TIP3    H134151   6.063   7.404   2.426
11402TIP3    H234152   6.004   7.390   2.287
11403TIP3   OH234153   4.929   5.500   3.550
11403TIP3    H134154   4.947   5.416   3.593
11403TIP3    H234155   4.890   5.475   3.466
11404TIP3   OH234156   1.603   3.460   0.359
11404TIP3    H134157   1.654   3.472   0.279
11404TIP3    H234158   1.657   3.496   0.429
11405TIP3   OH234159   6.853   6.410   4.012
11405TIP3    H134160   6.922   6.364   3.964
11405TIP3    H234161   6.771   6.373   3.979
11406TIP3   OH234162   5.662   0.384   1.312
11406TIP3    H134163   5.656   0.479   1.314
11406TIP3    H234164   5.588   0.357   1.257
11407TIP3   OH234165   6.226   7.436   2.610
11407TIP3    H134166   6.171   7.501   2.566
11407TIP3    H234167   6.316   7.467   2.596
11408TIP3   OH234168   4.534   5.320   2.302
11408TIP3    H134169   4.537   5.369   2.219
11408TIP3    H234170   4.441   5.311   2.322
11409TIP3   OH234171   8.098   6.722   1.973
11409TIP3    H134172   8.046   6.794   1.937
11409TIP3    H234173   8.129   6.674   1.897
11410TIP3   OH234174   3.151   3.049   5.284
11410TIP3    H134175   3.185   3.068   5.197
11410TIP3    H234176   3.059   3.026   5.269
11411TIP3   OH234177   6.672   0.322   4.312
11411TIP3    H134178   6.701   0.329   4.404
11411TIP3    H234179   6.605   0.253   4.313
11412TIP3   OH234180   2.128   5.303   1.818
11412TIP3    H134181   2.073   5.380   1.826
11412TIP3    H234182   2.132   5.267   1.907
11413TIP3   OH234183   3.026   0.979   2.194
11413TIP3    H134184   3.009   1.068   2.223
11413TIP3    H234185   3.119   0.978   2.170
11414TIP3   OH234186   1.251   1.371   6.342
11414TIP3    H134187   1.271   1.336   6.428
11414TIP3    H234188   1.287   1.460   6.343
11415TIP3   OH234189   1.202   7.386   1.696
11415TIP3    H134190   1.295   7.386   1.721
11415TIP3    H234191   1.170   7.472   1.724
11416TIP3   OH234192   2.173   6.326   6.734
11416TIP3    H134193   2.212   6.263   6.795
11416TIP3    H234194   2.088   6.347   6.774
11417TIP3   OH234195   6.428   3.714   5.283
11417TIP3    H134196   6.387   3.773   5.347
11417TIP3    H234197   6.368   3.714   5.209
11418TIP3   OH234198   5.304   5.963   3.222
11418TIP3    H134199   5.245   5.892   3.200
11418TIP3    H234200   5.271   6.038   3.174
11419TIP3   OH234201   7.866   5.087   5.641
11419TIP3    H134202   7.902   5.153   5.582
11419TIP3    H234203   7.890   5.003   5.600
11420TIP3   OH234204   1.427   7.095   0.123
11420TIP3    H134205   1.410   7.116   0.214
11420TIP3    H234206   1.520   7.113   0.110
11421TIP3   OH234207   3.905   4.267   4.478
11421TIP3    H134208   3.919   4.210   4.402
11421TIP3    H234209   3.992   4.305   4.495
11422TIP3   OH234210   5.416   1.234   1.138
11422TIP3    H134211   5.389   1.317   1.178
11422TIP3    H234212   5.488   1.203   1.193
11423TIP3   OH234213   5.077   5.807   6.208
11423TIP3    H134214   5.093   5.737   6.271
11423TIP3    H234215   5.056   5.883   6.261
11424TIP3   OH234216   6.325   4.102   1.609
11424TIP3    H134217   6.276   4.037   1.660
11424TIP3    H234218   6.272   4.117   1.531
11425TIP3   OH234219   6.052   2.782   5.870
11425TIP3    H134220   5.995   2.817   5.801
11425TIP3    H234221   6.052   2.850   5.937
11426TIP3   OH234222   8.002   5.507   6.588
11426TIP3    H134223   7.925   5.515   6.644
11426TIP3    H234224   8.012   5.413   6.575
11427TIP3   OH234225   8.231   5.251   5.958
11427TIP3    H134226   8.251   5.299   6.038
11427TIP3    H234227   8.310   5.259   5.904
11428TIP3   OH234228   0.577   0.437   0.969
11428TIP3    H134229   0.518   0.485   1.027
11428TIP3    H234230   0.619   0.504   0.916
11429TIP3   OH234231   0.384   0.451   0.547
11429TIP3    H134232   0.454   0.505   0.584
11429TIP3    H234233   0.345   0.408   0.623
11430TIP3   OH234234   5.972   2.058   1.321
11430TIP3    H134235   6.010   2.072   1.234
11430TIP3    H234236   5.888   2.105   1.318
11431TIP3   OH234237   0.937   0.497   6.435
11431TIP3    H134238   1.016   0.522   6.482
11431TIP3    H234239   0.880   0.458   6.501
11432TIP3   OH234240   2.520   0.115   3.686
11432TIP3    H134241   2.554   0.196   3.648
11432TIP3    H234242   2.597   0.067   3.715
11433TIP3   OH234243   1.115   6.429   1.349
11433TIP3    H134244   1.096   6.385   1.267
11433TIP3    H234245   1.094   6.364   1.417
11434TIP3   OH234246   6.034   3.847   5.031
11434TIP3    H134247   6.067   3.840   5.121
11434TIP3    H234248   6.024   3.756   5.002
11435TIP3   OH234249   7.269   4.202   0.890
11435TIP3    H134250   7.216   4.123   0.892
11435TIP3    H234251   7.340   4.185   0.952
11436TIP3   OH234252   3.108   5.015   6.163
11436TIP3    H134253   3.088   4.946   6.226
11436TIP3    H234254   3.076   5.095   6.204
11437TIP3   OH234255   4.973   7.625   6.746
11437TIP3    H134256   4.915   7.688   6.702
11437TIP3    H234257   4.928   7.603   6.827
11438TIP3   OH234258   3.926   5.269   6.001
11438TIP3    H134259   3.879   5.193   5.966
11438TIP3    H234260   3.907   5.269   6.094
11439TIP3   OH234261   4.287   5.951   0.107
11439TIP3    H134262   4.369   5.991   0.078
11439TIP3    H234263   4.291   5.955   0.203
11440TIP3   OH234264   6.186   5.967   3.571
11440TIP3    H134265   6.276   5.943   3.594
11440TIP3    H234266   6.136   5.886   3.579
11441TIP3   OH234267   1.473   2.018   6.383
11441TIP3    H134268   1.398   1.969   6.416
11441TIP3    H234269   1.485   2.090   6.446
11442TIP3   OH234270   5.812   4.819   4.597
11442TIP3    H134271   5.778   4.842   4.511
11442TIP3    H234272   5.850   4.900   4.631
11443TIP3   OH234273   0.064   4.171   5.542
11443TIP3    H134274   0.143   4.185   5.490
11443TIP3    H234275   0.093   4.117   5.616
11444TIP3   OH234276   4.948   0.694   4.005
11444TIP3    H134277   4.909   0.611   4.034
11444TIP3    H234278   4.972   0.678   3.914
11445TIP3   OH234279   7.493   0.144   4.480
11445TIP3    H134280   7.513   0.059   4.441
11445TIP3    H234281   7.453   0.194   4.408
11446TIP3   OH234282   7.950   0.660   0.389
11446TIP3    H134283   7.895   0.663   0.311
11446TIP3    H234284   8.020   0.598   0.367
11447TIP3   OH234285   7.646   5.855   4.751
11447TIP3    H134286   7.695   5.923   4.797
11447TIP3    H234287   7.710   5.788   4.730
11448TIP3   OH234288   0.334   5.179   6.048
11448TIP3    H134289   0.413   5.138   6.084
11448TIP3    H234290   0.269   5.169   6.117
11449TIP3   OH234291   2.722   1.080   3.206
11449TIP3    H134292   2.727   1.123   3.121
11449TIP3    H234293   2.813   1.062   3.230
11450TIP3   OH234294   2.316   4.309   0.015
11450TIP3    H134295   2.291   4.226   0.057
11450TIP3    H234296   2.411   4.312   0.023
11451TIP3   OH234297   0.668   3.412   3.054
11451TIP3    H134298   0.704   3.325   3.036
11451TIP3    H234299   0.640   3.444   2.968
11452TIP3   OH234300   5.238   6.125   3.825
11452TIP3    H134301   5.270   6.057   3.765
11452TIP3    H234302   5.149   6.096   3.848
11453TIP3   OH234303   7.448   7.175   5.813
11453TIP3    H134304   7.459   7.208   5.724
11453TIP3    H234305   7.535   7.185   5.852
11454TIP3   OH234306   3.369   7.157   3.214
11454TIP3    H134307   3.280   7.191   3.204
11454TIP3    H234308   3.400   7.195   3.296
11455TIP3   OH234309   8.031   1.306   4.209
11455TIP3    H134310   8.090   1.238   4.176
11455TIP3    H234311   8.089   1.380   4.227
11456TIP3   OH234312   5.372   7.308   1.443
11456TIP3    H134313   5.367   7.225   1.490
11456TIP3    H234314   5.397   7.371   1.510
11457TIP3   OH234315   1.913   6.577   1.502
11457TIP3    H134316   1.849   6.647   1.513
11457TIP3    H234317   1.866   6.507   1.457
11458TIP3   OH234318   8.257   6.400   3.838
11458TIP3    H134319   8.191   6.375   3.774
11458TIP3    H234320   8.332   6.427   3.786
11459TIP3   OH234321   2.981   4.420   0.853
11459TIP3    H134322   2.902   4.474   0.854
11459TIP3    H234323   3.050   4.479   0.885
11460TIP3   OH234324   2.846   5.243   1.336
11460TIP3    H134325   2.813   5.195   1.412
11460TIP3    H234326   2.907   5.307   1.373
11461TIP3   OH234327   1.083   3.780   0.066
11461TIP3    H134328   1.172   3.798   0.034
11461TIP3    H234329   1.086   3.803   0.159
11462TIP3   OH234330   0.408   1.474   4.523
11462TIP3    H134331   0.394   1.387   4.486
11462TIP3    H234332   0.478   1.512   4.470
11463TIP3   OH234333   6.557   2.007   0.670
11463TIP3    H134334   6.606   2.079   0.709
11463TIP3    H234335   6.465   2.027   0.688
11464TIP3   OH234336   2.286   7.011   0.440
11464TIP3    H134337   2.356   6.948   0.458
11464TIP3    H234338   2.302   7.038   0.349
11465TIP3   OH234339   6.974   2.662   1.956
11465TIP3    H134340   7.006   2.730   1.897
11465TIP3    H234341   6.881   2.655   1.936
11466TIP3   OH234342   7.267   2.338   6.472
11466TIP3    H134343   7.296   2.251   6.442
11466TIP3    H234344   7.184   2.352   6.428
11467TIP3   OH234345   5.240   6.927   1.106
11467TIP3    H134346   5.327   6.927   1.146
11467TIP3    H234347   5.188   6.987   1.160
11468TIP3   OH234348   0.240   6.959   1.578
11468TIP3    H134349   0.146   6.956   1.596
11468TIP3    H234350   0.276   7.012   1.649
11469TIP3   OH234351   2.309   1.169   3.134
11469TIP3    H134352   2.287   1.082   3.167
11469TIP3    H234353   2.343   1.153   3.045
11470TIP3   OH234354   2.860   1.242   0.039
11470TIP3    H134355   2.806   1.231  -0.040
11470TIP3    H234356   2.858   1.157   0.082
11471TIP3   OH234357   6.340   1.535   3.964
11471TIP3    H134358   6.424   1.569   3.934
11471TIP3    H234359   6.362   1.454   4.009
11472TIP3   OH234360   3.261   3.124   1.224
11472TIP3    H134361   3.285   3.102   1.314
11472TIP3    H234362   3.311   3.203   1.204
11473TIP3   OH234363   0.965   6.662   1.194
11473TIP3    H134364   0.922   6.744   1.169
11473TIP3    H234365   1.059   6.680   1.187
11474TIP3   OH234366   7.826   3.131   5.251
11474TIP3    H134367   7.869   3.181   5.321
11474TIP3    H234368   7.878   3.149   5.173
11475TIP3   OH234369   2.393   1.064   2.869
11475TIP3    H134370   2.404   1.106   2.784
11475TIP3    H234371   2.482   1.044   2.897
11476TIP3   OH234372   2.428   5.917   1.434
11476TIP3    H134373   2.427   5.960   1.520
11476TIP3    H234374   2.451   5.987   1.373
11477TIP3   OH234375   2.294   7.668   2.345
11477TIP3    H134376   2.390   7.671   2.343
11477TIP3    H234377   2.272   7.689   2.436
11478TIP3   OH234378   1.575   5.328   1.639
11478TIP3    H134379   1.500   5.302   1.693
11478TIP3    H234380   1.626   5.247   1.629
11479TIP3   OH234381   2.026   0.606   3.864
11479TIP3    H134382   1.956   0.625   3.802
11479TIP3    H234383   2.017   0.673   3.932
11480TIP3   OH234384   6.997   7.130   2.290
11480TIP3    H134385   7.079   7.131   2.340
11480TIP3    H234386   7.015   7.074   2.215
11481TIP3   OH234387   3.728   5.702   3.944
11481TIP3    H134388   3.657   5.746   3.898
11481TIP3    H234389   3.776   5.772   3.988
11482TIP3   OH234390   3.322   0.629   5.777
11482TIP3    H134391   3.315   0.710   5.827
11482TIP3    H234392   3.389   0.647   5.711
11483TIP3   OH234393   4.843   0.080   4.207
11483TIP3    H134394   4.835   0.018   4.279
11483TIP3    H234395   4.769   0.060   4.150
11484TIP3   OH234396   3.480   3.391   3.093
11484TIP3    H134397   3.483   3.478   3.133
11484TIP3    H234398   3.387   3.369   3.092
11485TIP3   OH234399   7.116   7.174   1.846
11485TIP3    H134400   7.193   7.172   1.789
11485TIP3    H234401   7.147   7.217   1.926
11486TIP3   OH234402   3.602   0.148   4.573
11486TIP3    H134403   3.514   0.162   4.538
11486TIP3    H234404   3.612   0.053   4.577
11487TIP3   OH234405   3.983   7.060   4.482
11487TIP3    H134406   3.999   7.046   4.389
11487TIP3    H234407   3.931   6.985   4.509
11488TIP3   OH234408   4.554   1.001   5.732
11488TIP3    H134409   4.469   1.037   5.706
11488TIP3    H234410   4.533   0.915   5.768
11489TIP3   OH234411   0.549   3.667   2.671
11489TIP3    H134412   0.602   3.721   2.729
11489TIP3    H234413   0.577   3.577   2.689
11490TIP3   OH234414   6.828   5.935   3.312
11490TIP3    H134415   6.899   5.925   3.376
11490TIP3    H234416   6.869   5.920   3.227
11491TIP3   OH234417   4.183   2.335   3.038
11491TIP3    H134418   4.178   2.249   3.080
11491TIP3    H234419   4.155   2.320   2.948
11492TIP3   OH234420   5.957   3.013   3.239
11492TIP3    H134421   5.913   3.087   3.282
11492TIP3    H234422   6.037   3.051   3.202
11493TIP3   OH234423   3.437   5.515   6.485
11493TIP3    H134424   3.509   5.460   6.517
11493TIP3    H234425   3.481   5.585   6.437
11494TIP3   OH234426   3.279   6.711   0.324
11494TIP3    H134427   3.364   6.681   0.355
11494TIP3    H234428   3.248   6.771   0.392
11495TIP3   OH234429   4.634   4.670   0.033
11495TIP3    H134430   4.704   4.730   0.006
11495TIP3    H234431   4.651   4.655   0.126
11496TIP3   OH234432   2.820   4.072   0.721
11496TIP3    H134433   2.793   4.158   0.689
11496TIP3    H234434   2.743   4.017   0.711
11497TIP3   OH234435   3.787   2.361   5.775
11497TIP3    H134436   3.805   2.317   5.858
11497TIP3    H234437   3.818   2.450   5.788
11498TIP3   OH234438   2.608   5.262   5.573
11498TIP3    H134439   2.625   5.258   5.479
11498TIP3    H234440   2.607   5.170   5.601
11499TIP3   OH234441   5.487   3.236   6.739
11499TIP3    H134442   5.490   3.312   6.682
11499TIP3    H234443   5.410   3.187   6.711
11500TIP3   OH234444   2.675   7.069   2.379
11500TIP3    H134445   2.665   7.121   2.298
11500TIP3    H234446   2.603   7.099   2.435
11501TIP3   OH234447   6.204   3.518   2.235
11501TIP3    H134448   6.168   3.589   2.288
11501TIP3    H234449   6.299   3.529   2.240
11502TIP3   OH234450   3.452   0.442   3.765
11502TIP3    H134451   3.409   0.437   3.851
11502TIP3    H234452   3.385   0.479   3.707
11503TIP3   OH234453   0.575   3.128   5.145
11503TIP3    H134454   0.613   3.163   5.065
11503TIP3    H234455   0.521   3.054   5.115
11504TIP3   OH234456   3.652   3.932   6.242
11504TIP3    H134457   3.733   3.882   6.228
11504TIP3    H234458   3.612   3.937   6.155
11505TIP3   OH234459   0.428   6.990   1.388
11505TIP3    H134460   0.388   6.971   1.303
11505TIP3    H234461   0.354   6.992   1.449
11506TIP3   OH234462   7.207   2.598   3.047
11506TIP3    H134463   7.263   2.521   3.038
11506TIP3    H234464   7.193   2.629   2.958
11507TIP3   OH234465   3.136   4.964   2.503
11507TIP3    H134466   3.073   4.947   2.433
11507TIP3    H234467   3.093   5.029   2.559
11508TIP3   OH234468   7.797   2.978   5.737
11508TIP3    H134469   7.765   3.044   5.676
11508TIP3    H234470   7.877   2.945   5.696
11509TIP3   OH234471   7.896   3.679   5.936
11509TIP3    H134472   7.869   3.726   6.015
11509TIP3    H234473   7.978   3.720   5.911
11510TIP3   OH234474   4.729   3.764   0.167
11510TIP3    H134475   4.782   3.684   0.171
11510TIP3    H234476   4.755   3.805   0.085
11511TIP3   OH234477   1.471   6.868   3.221
11511TIP3    H134478   1.379   6.887   3.240
11511TIP3    H234479   1.468   6.807   3.147
11512TIP3   OH234480   4.779   5.718   4.972
11512TIP3    H134481   4.864   5.703   5.013
11512TIP3    H234482   4.777   5.812   4.954
11513TIP3   OH234483   0.224   5.761   5.191
11513TIP3    H134484   0.168   5.721   5.258
11513TIP3    H234485   0.187   5.849   5.179
11514TIP3   OH234486   7.854   3.674   0.533
11514TIP3    H134487   7.847   3.727   0.612
11514TIP3    H234488   7.769   3.685   0.489
11515TIP3   OH234489   2.741   6.101   0.754
11515TIP3    H134490   2.738   6.139   0.842
11515TIP3    H234491   2.832   6.107   0.728
11516TIP3   OH234492   1.581   7.007   2.948
11516TIP3    H134493   1.536   7.029   2.866
11516TIP3    H234494   1.554   6.918   2.967
11517TIP3   OH234495   1.897   1.448   4.816
11517TIP3    H134496   1.886   1.456   4.911
11517TIP3    H234497   1.967   1.383   4.806
11518TIP3   OH234498   4.035   3.198   5.023
11518TIP3    H134499   3.947   3.178   4.990
11518TIP3    H234500   4.040   3.294   5.022
11519TIP3   OH234501   6.500   3.053   3.585
11519TIP3    H134502   6.585   3.061   3.628
11519TIP3    H234503   6.441   3.109   3.636
11520TIP3   OH234504   6.364   6.702   4.706
11520TIP3    H134505   6.443   6.652   4.686
11520TIP3    H234506   6.375   6.730   4.797
11521TIP3   OH234507   7.741   7.222   4.260
11521TIP3    H134508   7.774   7.199   4.173
11521TIP3    H234509   7.810   7.194   4.320
11522TIP3   OH234510   1.002   0.435   4.930
11522TIP3    H134511   0.928   0.376   4.940
11522TIP3    H234512   1.032   0.453   5.019
11523TIP3   OH234513   5.163   0.090   0.721
11523TIP3    H134514   5.088   0.060   0.772
11523TIP3    H234515   5.178   0.179   0.751
11524TIP3   OH234516   5.421   1.532   1.400
11524TIP3    H134517   5.430   1.603   1.464
11524TIP3    H234518   5.344   1.556   1.348
11525TIP3   OH234519   7.206   1.719   5.901
11525TIP3    H134520   7.301   1.722   5.914
11525TIP3    H234521   7.187   1.795   5.847
11526TIP3   OH234522   0.705   4.511   1.527
11526TIP3    H134523   0.771   4.574   1.499
11526TIP3    H234524   0.747   4.426   1.517
11527TIP3   OH234525   2.951   4.234   0.386
11527TIP3    H134526   2.940   4.325   0.411
11527TIP3    H234527   3.042   4.214   0.406
11528TIP3   OH234528   0.284   5.236   0.610
11528TIP3    H134529   0.301   5.319   0.656
11528TIP3    H234530   0.301   5.256   0.518
11529TIP3   OH234531   5.323   1.554   2.480
11529TIP3    H134532   5.329   1.468   2.438
11529TIP3    H234533   5.232   1.561   2.507
11530TIP3   OH234534   6.301   4.361   4.788
11530TIP3    H134535   6.246   4.366   4.709
11530TIP3    H234536   6.354   4.440   4.785
11531TIP3   OH234537   1.161   2.650   0.964
11531TIP3    H134538   1.208   2.577   1.005
11531TIP3    H234539   1.102   2.682   1.032
11532TIP3   OH234540   6.693   3.041   1.326
11532TIP3    H134541   6.598   3.040   1.315
11532TIP3    H234542   6.706   3.085   1.410
11533TIP3   OH234543   2.629   7.135   2.056
11533TIP3    H134544   2.575   7.111   1.981
11533TIP3    H234545   2.690   7.062   2.066
11534TIP3   OH234546   4.300   3.354   1.804
11534TIP3    H134547   4.324   3.389   1.718
11534TIP3    H234548   4.381   3.317   1.838
11535TIP3   OH234549   3.828   5.523   5.067
11535TIP3    H134550   3.774   5.600   5.050
11535TIP3    H234551   3.799   5.492   5.153
11536TIP3   OH234552   7.927   0.766   3.844
11536TIP3    H134553   7.835   0.743   3.854
11536TIP3    H234554   7.957   0.786   3.933
11537TIP3   OH234555   6.661   4.464   2.374
11537TIP3    H134556   6.593   4.439   2.436
11537TIP3    H234557   6.700   4.380   2.346
11538TIP3   OH234558   7.270   7.353   3.986
11538TIP3    H134559   7.339   7.391   4.041
11538TIP3    H234560   7.260   7.416   3.914
11539TIP3   OH234561   1.746   5.092   5.647
11539TIP3    H134562   1.806   5.163   5.671
11539TIP3    H234563   1.784   5.013   5.685
11540TIP3   OH234564   4.707   4.192   5.222
11540TIP3    H134565   4.711   4.223   5.312
11540TIP3    H234566   4.789   4.146   5.209
11541TIP3   OH234567   1.472   6.582   5.126
11541TIP3    H134568   1.470   6.497   5.169
11541TIP3    H234569   1.500   6.643   5.194
11542TIP3   OH234570   4.110   3.924   6.187
11542TIP3    H134571   4.152   3.993   6.136
11542TIP3    H234572   4.179   3.860   6.203
11543TIP3   OH234573   5.338   0.817   1.582
11543TIP3    H134574   5.295   0.739   1.549
11543TIP3    H234575   5.325   0.883   1.514
11544TIP3   OH234576   0.952   2.648   6.524
11544TIP3    H134577   0.933   2.724   6.579
11544TIP3    H234578   1.037   2.667   6.484
11545TIP3   OH234579   6.856   0.361   6.065
11545TIP3    H134580   6.867   0.328   5.975
11545TIP3    H234581   6.766   0.339   6.088
11546TIP3   OH234582   3.317   6.889   2.596
11546TIP3    H134583   3.305   6.822   2.663
11546TIP3    H234584   3.229   6.913   2.570
11547TIP3   OH234585   6.322   3.835   1.294
11547TIP3    H134586   6.346   3.771   1.361
11547TIP3    H234587   6.303   3.916   1.343
11548TIP3   OH234588   2.893   1.011   0.172
11548TIP3    H134589   2.841   0.986   0.248
11548TIP3    H234590   2.984   0.993   0.198
11549TIP3   OH234591   4.335   2.826   1.321
11549TIP3    H134592   4.295   2.821   1.408
11549TIP3    H234593   4.411   2.883   1.333
11550TIP3   OH234594   0.067   4.611   5.140
11550TIP3    H134595   0.094   4.557   5.214
11550TIP3    H234596  -0.028   4.599   5.135
11551TIP3   OH234597   1.098   3.232   2.582
11551TIP3    H134598   1.037   3.247   2.655
11551TIP3    H234599   1.066   3.289   2.512
11552TIP3   OH234600   1.690   0.679   1.673
11552TIP3    H134601   1.764   0.618   1.673
11552TIP3    H234602   1.727   0.761   1.640
11553TIP3   OH234603   1.097   5.965   0.624
11553TIP3    H134604   1.025   5.934   0.679
11553TIP3    H234605   1.119   6.051   0.659
11554TIP3   OH234606   0.205   1.424   0.546
11554TIP3    H134607   0.256   1.496   0.508
11554TIP3    H234608   0.202   1.443   0.639
11555TIP3   OH234609   5.582   4.534   4.380
11555TIP3    H134610   5.551   4.561   4.294
11555TIP3    H234611   5.526   4.582   4.442
11556TIP3   OH234612   0.366   1.394   6.176
11556TIP3    H134613   0.411   1.310   6.164
11556TIP3    H234614   0.348   1.398   6.270
11557TIP3   OH234615   4.739   1.685   1.824
11557TIP3    H134616   4.756   1.729   1.907
11557TIP3    H234617   4.806   1.719   1.765
11558TIP3   OH234618   8.080   7.071   3.530
11558TIP3    H134619   8.074   7.037   3.441
11558TIP3    H234620   7.989   7.082   3.557
11559TIP3   OH234621   8.118   0.926   5.144
11559TIP3    H134622   8.168   0.844   5.149
11559TIP3    H234623   8.034   0.901   5.108
11560TIP3   OH234624   1.459   1.108   1.229
11560TIP3    H134625   1.479   1.031   1.176
11560TIP3    H234626   1.539   1.161   1.226
11561TIP3   OH234627   2.820   0.476   2.057
11561TIP3    H134628   2.732   0.444   2.080
11561TIP3    H234629   2.804   0.541   1.989
11562TIP3   OH234630   0.417   5.401   6.186
11562TIP3    H134631   0.361   5.353   6.126
11562TIP3    H234632   0.357   5.449   6.243
11563TIP3   OH234633   1.002   6.230   1.533
11563TIP3    H134634   1.050   6.241   1.616
11563TIP3    H234635   0.910   6.247   1.556
11564TIP3   OH234636   5.273   4.350   0.524
11564TIP3    H134637   5.334   4.387   0.589
11564TIP3    H234638   5.310   4.264   0.504
11565TIP3   OH234639   2.558   7.360   5.938
11565TIP3    H134640   2.579   7.421   5.867
11565TIP3    H234641   2.637   7.308   5.950
11566TIP3   OH234642   7.565   3.276   4.510
11566TIP3    H134643   7.495   3.240   4.564
11566TIP3    H234644   7.628   3.312   4.572
11567TIP3   OH234645   7.042   6.761   5.092
11567TIP3    H134646   6.989   6.683   5.075
11567TIP3    H234647   6.979   6.833   5.095
11568TIP3   OH234648   6.991   5.989   4.491
11568TIP3    H134649   6.963   5.992   4.582
11568TIP3    H234650   7.014   5.897   4.476
11569TIP3   OH234651   0.406   6.978   2.254
11569TIP3    H134652   0.396   6.884   2.267
11569TIP3    H234653   0.379   6.993   2.164
11570TIP3   OH234654   5.791   4.027   3.097
11570TIP3    H134655   5.825   4.063   3.179
11570TIP3    H234656   5.864   4.032   3.036
11571TIP3   OH234657   1.884   7.178   5.877
11571TIP3    H134658   1.805   7.124   5.874
11571TIP3    H234659   1.893   7.201   5.970
11572TIP3   OH234660   1.766   7.589   2.085
11572TIP3    H134661   1.824   7.630   2.022
11572TIP3    H234662   1.777   7.495   2.070
11573TIP3   OH234663   6.430   0.162   2.282
11573TIP3    H134664   6.485   0.094   2.322
11573TIP3    H234665   6.340   0.135   2.303
11574TIP3   OH234666   6.222   1.950   1.838
11574TIP3    H134667   6.249   1.935   1.747
11574TIP3    H234668   6.134   1.987   1.831
11575TIP3   OH234669   3.901   0.460   2.231
11575TIP3    H134670   3.942   0.375   2.215
11575TIP3    H234671   3.863   0.484   2.147
11576TIP3   OH234672   0.270   6.509   1.689
11576TIP3    H134673   0.220   6.509   1.607
11576TIP3    H234674   0.216   6.560   1.750
11577TIP3   OH234675   7.435   2.352   4.779
11577TIP3    H134676   7.393   2.426   4.735
11577TIP3    H234677   7.411   2.276   4.726
11578TIP3   OH234678   1.534   5.463   1.902
11578TIP3    H134679   1.490   5.378   1.904
11578TIP3    H234680   1.539   5.489   1.994
11579TIP3   OH234681   0.088   7.720   5.337
11579TIP3    H134682  -0.002   7.720   5.369
11579TIP3    H234683   0.141   7.716   5.417
11580TIP3   OH234684   8.015   2.791   1.719
11580TIP3    H134685   7.953   2.811   1.648
11580TIP3    H234686   8.093   2.759   1.673
11581TIP3   OH234687   0.975   7.678   0.011
11581TIP3    H134688   0.934   7.736   0.076
11581TIP3    H234689   1.059   7.653   0.050
11582TIP3   OH234690   4.160   4.695   0.799
11582TIP3    H134691   4.130   4.777   0.837
11582TIP3    H234692   4.177   4.638   0.875
11583TIP3   OH234693   7.497   4.245   3.592
11583TIP3    H134694   7.483   4.214   3.682
11583TIP3    H234695   7.578   4.202   3.565
11584TIP3   OH234696   0.054   7.614   2.315
11584TIP3    H134697  -0.012   7.546   2.299
11584TIP3    H234698   0.123   7.596   2.252
11585TIP3   OH234699   0.896   4.346   4.650
11585TIP3    H134700   0.936   4.271   4.605
11585TIP3    H234701   0.807   4.349   4.617
11586TIP3   OH234702   6.178   6.978   2.794
11586TIP3    H134703   6.230   6.959   2.873
11586TIP3    H234704   6.193   6.903   2.737
11587TIP3   OH234705   4.521   0.794   5.293
11587TIP3    H134706   4.445   0.737   5.282
11587TIP3    H234707   4.564   0.761   5.373
11588TIP3   OH234708   2.845   5.759   5.194
11588TIP3    H134709   2.930   5.726   5.165
11588TIP3    H234710   2.864   5.845   5.231
11589TIP3   OH234711   0.300   4.423   4.848
11589TIP3    H134712   0.364   4.363   4.811
11589TIP3    H234713   0.351   4.480   4.907
11590TIP3   OH234714   3.596   7.450   0.787
11590TIP3    H134715   3.609   7.498   0.869
11590TIP3    H234716   3.640   7.503   0.721
11591TIP3   OH234717   6.856   3.493   4.096
11591TIP3    H134718   6.761   3.482   4.088
11591TIP3    H234719   6.866   3.574   4.147
11592TIP3   OH234720   2.670   5.014   1.776
11592TIP3    H134721   2.594   4.956   1.766
11592TIP3    H234722   2.676   5.059   1.692
11593TIP3   OH234723   4.963   1.130   0.677
11593TIP3    H134724   4.993   1.128   0.768
11593TIP3    H234725   4.872   1.161   0.683
11594TIP3   OH234726   6.627   7.059   4.177
11594TIP3    H134727   6.688   7.050   4.103
11594TIP3    H234728   6.585   6.973   4.184
11595TIP3   OH234729   7.309   7.480   2.283
11595TIP3    H134730   7.374   7.418   2.318
11595TIP3    H234731   7.249   7.495   2.356
11596TIP3   OH234732   6.841   2.467   4.129
11596TIP3    H134733   6.838   2.556   4.095
11596TIP3    H234734   6.923   2.463   4.179
11597TIP3   OH234735   6.271   2.678   3.657
11597TIP3    H134736   6.303   2.728   3.582
11597TIP3    H234737   6.251   2.743   3.724
11598TIP3   OH234738   2.659   2.210   0.674
11598TIP3    H134739   2.669   2.183   0.765
11598TIP3    H234740   2.574   2.253   0.671
11599TIP3   OH234741   4.376  -0.003   6.677
11599TIP3    H134742   4.393   0.015   6.584
11599TIP3    H234743   4.413   0.072   6.723
11600TIP3   OH234744   1.635   4.953   1.721
11600TIP3    H134745   1.595   4.990   1.642
11600TIP3    H234746   1.594   4.866   1.730
11601TIP3   OH234747   0.953   4.467   2.504
11601TIP3    H134748   0.873   4.424   2.475
11601TIP3    H234749   0.932   4.560   2.504
11602TIP3   OH234750   7.289   2.938   4.743
11602TIP3    H134751   7.323   3.015   4.697
11602TIP3    H234752   7.211   2.969   4.788
11603TIP3   OH234753   4.840   5.118   4.638
11603TIP3    H134754   4.758   5.139   4.684
11603TIP3    H234755   4.829   5.156   4.551
11604TIP3   OH234756   3.719   7.425   4.360
11604TIP3    H134757   3.677   7.436   4.446
11604TIP3    H234758   3.798   7.375   4.379
11605TIP3   OH234759   6.143   1.807   5.543
11605TIP3    H134760   6.172   1.871   5.478
11605TIP3    H234761   6.078   1.853   5.595
11606TIP3   OH234762   4.512   3.994   4.069
11606TIP3    H134763   4.551   3.911   4.043
11606TIP3    H234764   4.456   4.019   3.995
11607TIP3   OH234765   0.492   6.067   1.385
11607TIP3    H134766   0.527   6.144   1.340
11607TIP3    H234767   0.398   6.081   1.386
11608TIP3   OH234768   7.951   7.667   5.032
11608TIP3    H134769   7.988   7.709   5.109
11608TIP3    H234770   8.026   7.645   4.977
11609TIP3   OH234771   2.979   1.829   1.418
11609TIP3    H134772   3.066   1.865   1.433
11609TIP3    H234773   2.994   1.735   1.405
11610TIP3   OH234774   1.779   2.724   5.714
11610TIP3    H134775   1.745   2.715   5.625
11610TIP3    H234776   1.852   2.662   5.718
11611TIP3   OH234777   3.093   7.331   1.742
11611TIP3    H134778   3.035   7.329   1.818
11611TIP3    H234779   3.073   7.250   1.694
11612TIP3   OH234780   3.848   2.247   2.557
11612TIP3    H134781   3.825   2.166   2.602
11612TIP3    H234782   3.837   2.315   2.623
11613TIP3   OH234783   6.694   3.129   4.028
11613TIP3    H134784   6.650   3.193   4.084
11613TIP3    H234785   6.732   3.066   4.089
11614TIP3   OH234786   3.188   7.236   3.941
11614TIP3    H134787   3.179   7.322   3.898
11614TIP3    H234788   3.272   7.203   3.910
11615TIP3   OH234789   6.450   4.895   2.203
11615TIP3    H134790   6.386   4.828   2.229
11615TIP3    H234791   6.510   4.849   2.144
11616TIP3   OH234792   4.670   2.872   0.030
11616TIP3    H134793   4.709   2.943  -0.022
11616TIP3    H234794   4.590   2.849  -0.017
11617TIP3   OH234795   1.146   7.629   4.055
11617TIP3    H134796   1.065   7.658   4.098
11617TIP3    H234797   1.116   7.578   3.980
11618TIP3   OH234798   1.895   0.051   5.445
11618TIP3    H134799   1.869   0.101   5.368
11618TIP3    H234800   1.898   0.114   5.516
11619TIP3   OH234801   0.565   7.366   3.499
11619TIP3    H134802   0.592   7.444   3.451
11619TIP3    H234803   0.564   7.393   3.590
11620TIP3   OH234804   7.703   4.900   6.458
11620TIP3    H134805   7.637   4.957   6.498
11620TIP3    H234806   7.785   4.926   6.499
11621TIP3   OH234807   6.058   2.288   0.591
11621TIP3    H134808   6.066   2.259   0.500
11621TIP3    H234809   6.141   2.332   0.609
11622TIP3   OH234810   0.982   0.976   5.302
11622TIP3    H134811   1.033   1.022   5.235
11622TIP3    H234812   1.027   0.995   5.384
11623TIP3   OH234813   5.192   5.391   5.192
11623TIP3    H134814   5.163   5.306   5.159
11623TIP3    H234815   5.250   5.425   5.124
11624TIP3   OH234816   1.742   7.640   0.742
11624TIP3    H134817   1.679   7.648   0.671
11624TIP3    H234818   1.701   7.581   0.804
11625TIP3   OH234819   0.180   6.586   4.643
11625TIP3    H134820   0.189   6.663   4.699
11625TIP3    H234821   0.224   6.516   4.691
11626TIP3   OH234822   3.163   6.841   3.006
11626TIP3    H134823   3.154   6.797   3.090
11626TIP3    H234824   3.079   6.885   2.992
11627TIP3   OH234825   2.610   5.393   2.351
11627TIP3    H134826   2.648   5.356   2.271
11627TIP3    H234827   2.685   5.409   2.408
11628TIP3   OH234828   8.229   2.975   1.390
11628TIP3    H134829   8.164   3.037   1.358
11628TIP3    H234830   8.279   2.951   1.312
11629TIP3   OH234831   8.209   2.536   5.957
11629TIP3    H134832   8.129   2.499   5.919
11629TIP3    H234833   8.178   2.608   6.011
11630TIP3   OH234834   7.532   2.868   0.611
11630TIP3    H134835   7.625   2.856   0.591
11630TIP3    H234836   7.512   2.800   0.675
11631TIP3   OH234837   5.516   3.926   3.494
11631TIP3    H134838   5.433   3.910   3.539
11631TIP3    H234839   5.582   3.890   3.553
11632TIP3   OH234840   5.940   2.054   1.835
11632TIP3    H134841   5.859   2.095   1.864
11632TIP3    H234842   5.920   2.018   1.749
11633TIP3   OH234843   6.824   6.372   6.736
11633TIP3    H134844   6.784   6.285   6.741
11633TIP3    H234845   6.834   6.399   6.827
11634TIP3   OH234846   5.327   6.395   1.590
11634TIP3    H134847   5.346   6.367   1.501
11634TIP3    H234848   5.315   6.313   1.639
11635TIP3   OH234849   0.337   4.615   6.107
11635TIP3    H134850   0.361   4.528   6.076
11635TIP3    H234851   0.395   4.674   6.060
11636TIP3   OH234852   6.861   5.089   1.491
11636TIP3    H134853   6.950   5.063   1.469
11636TIP3    H234854   6.810   5.008   1.484
11637TIP3   OH234855   7.695   3.470   4.863
11637TIP3    H134856   7.660   3.549   4.824
11637TIP3    H234857   7.732   3.499   4.947
11638TIP3   OH234858   3.075   1.875   5.472
11638TIP3    H134859   3.131   1.892   5.396
11638TIP3    H234860   3.035   1.790   5.453
11639TIP3   OH234861   3.784   1.717   2.720
11639TIP3    H134862   3.695   1.687   2.739
11639TIP3    H234863   3.800   1.690   2.630
11640TIP3   OH234864   1.961   1.627   1.775
11640TIP3    H134865   1.916   1.710   1.791
11640TIP3    H234866   2.031   1.625   1.840
11641TIP3   OH234867   0.103   0.116   0.548
11641TIP3    H134868   0.030   0.061   0.522
11641TIP3    H234869   0.180   0.076   0.507
11642TIP3   OH234870   7.255   5.939   3.690
11642TIP3    H134871   7.329   5.936   3.630
11642TIP3    H234872   7.272   6.015   3.745
11643TIP3   OH234873   0.359   2.704   5.330
11643TIP3    H134874   0.384   2.640   5.263
11643TIP3    H234875   0.270   2.681   5.354
11644TIP3   OH234876   1.742   2.926   0.049
11644TIP3    H134877   1.673   2.886   0.102
11644TIP3    H234878   1.699   3.003   0.010
11645TIP3   OH234879   2.876   1.504   2.997
11645TIP3    H134880   2.795   1.489   2.949
11645TIP3    H234881   2.926   1.423   2.986
11646TIP3   OH234882   3.603   0.557   3.420
11646TIP3    H134883   3.682   0.548   3.367
11646TIP3    H234884   3.534   0.515   3.368
11647TIP3   OH234885   3.630   0.719   0.844
11647TIP3    H134886   3.694   0.770   0.894
11647TIP3    H234887   3.604   0.648   0.903
11648TIP3   OH234888   3.529   2.229   5.436
11648TIP3    H134889   3.526   2.175   5.356
11648TIP3    H234890   3.608   2.200   5.482
11649TIP3   OH234891   7.983   3.825   3.679
11649TIP3    H134892   7.922   3.787   3.743
11649TIP3    H234893   8.059   3.852   3.730
11650TIP3   OH234894   4.001   2.760   2.852
11650TIP3    H134895   4.074   2.813   2.883
11650TIP3    H234896   4.036   2.671   2.845
11651TIP3   OH234897   1.541   5.264   0.659
11651TIP3    H134898   1.636   5.273   0.657
11651TIP3    H234899   1.509   5.354   0.653
11652TIP3   OH234900   5.845   1.540   1.525
11652TIP3    H134901   5.856   1.463   1.580
11652TIP3    H234902   5.925   1.591   1.539
11653TIP3   OH234903   0.962   5.743   1.554
11653TIP3    H134904   0.889   5.755   1.493
11653TIP3    H234905   0.965   5.824   1.605
11654TIP3   OH234906   6.078   7.324   5.545
11654TIP3    H134907   6.142   7.305   5.476
11654TIP3    H234908   6.121   7.297   5.626
11655TIP3   OH234909   7.175   6.257   6.506
11655TIP3    H134910   7.246   6.205   6.467
11655TIP3    H234911   7.144   6.204   6.578
11656TIP3   OH234912   1.647   1.534   1.015
11656TIP3    H134913   1.609   1.621   1.027
11656TIP3    H234914   1.736   1.541   1.048
11657TIP3   OH234915   5.581   4.058   6.623
11657TIP3    H134916   5.660   4.041   6.673
11657TIP3    H234917   5.529   3.978   6.632
11658TIP3   OH234918   3.684   0.615   4.592
11658TIP3    H134919   3.603   0.604   4.642
11658TIP3    H234920   3.721   0.527   4.587
11659TIP3   OH234921   3.146   0.672   2.737
11659TIP3    H134922   3.118   0.704   2.823
11659TIP3    H234923   3.102   0.587   2.729
11660TIP3   OH234924   2.268   7.787   0.008
11660TIP3    H134925   2.348   7.781  -0.044
11660TIP3    H234926   2.223   7.704  -0.007
11661TIP3   OH234927   0.407   7.214   2.652
11661TIP3    H134928   0.401   7.230   2.746
11661TIP3    H234929   0.324   7.173   2.629
11662TIP3   OH234930   5.275   4.793   3.868
11662TIP3    H134931   5.258   4.805   3.961
11662TIP3    H234932   5.248   4.875   3.828
11663TIP3   OH234933   2.817   5.868   1.387
11663TIP3    H134934   2.796   5.834   1.474
11663TIP3    H234935   2.882   5.807   1.352
11664TIP3   OH234936   1.162   0.601   2.643
11664TIP3    H134937   1.168   0.694   2.620
11664TIP3    H234938   1.083   0.594   2.696
11665TIP3   OH234939   0.468   0.225   3.095
11665TIP3    H134940   0.538   0.215   3.159
11665TIP3    H234941   0.493   0.168   3.022
11666TIP3   OH234942   7.195   0.647   3.555
11666TIP3    H134943   7.147   0.636   3.473
11666TIP3    H234944   7.258   0.574   3.556
11667TIP3   OH234945   5.590   5.331   2.580
11667TIP3    H134946   5.652   5.269   2.619
11667TIP3    H234947   5.645   5.394   2.534
11668TIP3   OH234948   2.241   6.415   5.093
11668TIP3    H134949   2.295   6.481   5.135
11668TIP3    H234950   2.264   6.333   5.138
11669TIP3   OH234951   3.603   6.662   3.617
11669TIP3    H134952   3.540   6.733   3.605
11669TIP3    H234953   3.594   6.638   3.709
11670TIP3   OH234954   8.138   0.325   6.475
11670TIP3    H134955   8.148   0.397   6.414
11670TIP3    H234956   8.170   0.359   6.559
11671TIP3   OH234957   2.918   4.630   3.904
11671TIP3    H134958   3.005   4.665   3.921
11671TIP3    H234959   2.858   4.697   3.938
11672TIP3   OH234960   2.965   1.993   2.482
11672TIP3    H134961   2.961   1.905   2.521
11672TIP3    H234962   2.890   1.997   2.423
11673TIP3   OH234963   6.128   4.125   6.044
11673TIP3    H134964   6.160   4.126   5.954
11673TIP3    H234965   6.208   4.116   6.097
11674TIP3   OH234966   8.249   1.817   6.106
11674TIP3    H134967   8.280   1.907   6.095
11674TIP3    H234968   8.198   1.799   6.027
11675TIP3   OH234969   6.854   3.050   2.989
11675TIP3    H134970   6.793   3.001   2.934
11675TIP3    H234971   6.921   3.082   2.929
11676TIP3   OH234972   5.045   6.285   1.070
11676TIP3    H134973   4.975   6.349   1.060
11676TIP3    H234974   5.008   6.204   1.034
11677TIP3   OH234975   0.952   0.582   1.839
11677TIP3    H134976   0.995   0.581   1.754
11677TIP3    H234977   0.918   0.671   1.848
11678TIP3   OH234978   1.828   0.132   3.623
11678TIP3    H134979   1.770   0.203   3.651
11678TIP3    H234980   1.892   0.124   3.693
11679TIP3   OH234981   1.721   4.310   2.136
11679TIP3    H134982   1.749   4.310   2.227
11679TIP3    H234983   1.625   4.308   2.140
11680TIP3   OH234984   5.893   4.271   0.745
11680TIP3    H134985   5.913   4.188   0.702
11680TIP3    H234986   5.857   4.326   0.675
11681TIP3   OH234987   8.133   6.743   0.967
11681TIP3    H134988   8.130   6.684   0.892
11681TIP3    H234989   8.201   6.806   0.946
11682TIP3   OH234990   7.305   6.897   3.329
11682TIP3    H134991   7.248   6.854   3.392
11682TIP3    H234992   7.248   6.961   3.286
11683TIP3   OH234993   5.352   6.907   6.469
11683TIP3    H134994   5.336   6.832   6.412
11683TIP3    H234995   5.402   6.872   6.542
11684TIP3   OH234996   6.713   4.906   5.751
11684TIP3    H134997   6.695   4.814   5.772
11684TIP3    H234998   6.795   4.902   5.701
11685TIP3   OH234999   0.166   2.565   6.666
11685TIP3    H135000   0.158   2.632   6.598
11685TIP3    H235001   0.150   2.482   6.621
11686TIP3   OH235002   0.151  -0.028   2.382
11686TIP3    H135003   0.058  -0.016   2.363
11686TIP3    H235004   0.190   0.059   2.370
11687TIP3   OH235005   6.608   3.577   3.057
11687TIP3    H135006   6.633   3.665   3.085
11687TIP3    H235007   6.529   3.590   3.005
11688TIP3   OH235008   6.997   5.810   5.603
11688TIP3    H135009   7.005   5.748   5.531
11688TIP3    H235010   6.912   5.852   5.590
11689TIP3   OH235011   8.079   6.907   2.805
11689TIP3    H135012   8.145   6.956   2.756
11689TIP3    H235013   8.097   6.815   2.784
11690TIP3   OH235014   6.737   0.739   0.293
11690TIP3    H135015   6.804   0.782   0.346
11690TIP3    H235016   6.697   0.811   0.243
11691TIP3   OH235017   6.768   7.372   4.137
11691TIP3    H135018   6.763   7.283   4.103
11691TIP3    H235019   6.727   7.368   4.223
11692TIP3   OH235020   7.115   2.991   0.065
11692TIP3    H135021   7.078   2.991  -0.023
11692TIP3    H235022   7.203   2.956   0.053
11693TIP3   OH235023   6.352   4.228   6.709
11693TIP3    H135024   6.342   4.322   6.699
11693TIP3    H235025   6.439   4.209   6.671
11694TIP3   OH235026   1.084   4.206   2.136
11694TIP3    H135027   1.057   4.182   2.224
11694TIP3    H235028   1.041   4.141   2.079
11695TIP3   OH235029   1.207   3.387   4.365
11695TIP3    H135030   1.251   3.413   4.284
11695TIP3    H235031   1.249   3.439   4.433
11696TIP3   OH235032   5.049   2.301   0.771
11696TIP3    H135033   5.117   2.361   0.802
11696TIP3    H235034   4.970   2.355   0.766
11697TIP3   OH235035   4.838   4.114   1.740
11697TIP3    H135036   4.762   4.060   1.723
11697TIP3    H235037   4.888   4.066   1.806
11698TIP3   OH235038   6.920   0.245   5.798
11698TIP3    H135039   6.977   0.198   5.737
11698TIP3    H235040   6.856   0.288   5.741
11699TIP3   OH235041   5.946   7.353   4.777
11699TIP3    H135042   6.014   7.311   4.829
11699TIP3    H235043   5.964   7.326   4.687
11700TIP3   OH235044   2.273   3.892   5.978
11700TIP3    H135045   2.206   3.955   5.949
11700TIP3    H235046   2.267   3.820   5.915
11701TIP3   OH235047   5.552   1.028   1.561
11701TIP3    H135048   5.528   1.001   1.650
11701TIP3    H235049   5.518   1.117   1.553
11702TIP3   OH235050   2.638   4.863   4.332
11702TIP3    H135051   2.716   4.809   4.320
11702TIP3    H235052   2.608   4.843   4.421
11703TIP3   OH235053   0.427   1.922   3.680
11703TIP3    H135054   0.478   1.960   3.752
11703TIP3    H235055   0.471   1.953   3.601
11704TIP3   OH235056   0.559   6.112   0.521
11704TIP3    H135057   0.567   6.046   0.452
11704TIP3    H235058   0.474   6.152   0.505
11705TIP3   OH235059   6.758   6.841   4.430
11705TIP3    H135060   6.700   6.848   4.506
11705TIP3    H235061   6.702   6.808   4.360
11706TIP3   OH235062   2.542   7.286   3.893
11706TIP3    H135063   2.552   7.364   3.947
11706TIP3    H235064   2.618   7.232   3.915
11707TIP3   OH235065   1.748   5.311   2.311
11707TIP3    H135066   1.731   5.397   2.349
11707TIP3    H235067   1.788   5.329   2.226
11708TIP3   OH235068   5.450   1.807   0.013
11708TIP3    H135069   5.403   1.771  -0.062
11708TIP3    H235070   5.527   1.752   0.022
11709TIP3   OH235071   6.131   0.919   4.401
11709TIP3    H135072   6.164   0.845   4.452
11709TIP3    H235073   6.081   0.971   4.463
11710TIP3   OH235074   3.815   7.588   5.434
11710TIP3    H135075   3.817   7.547   5.347
11710TIP3    H235076   3.727   7.570   5.467
11711TIP3   OH235077   2.558   0.174   6.249
11711TIP3    H135078   2.529   0.197   6.338
11711TIP3    H235079   2.520   0.242   6.193
11712TIP3   OH235080   1.216   7.426   2.640
11712TIP3    H135081   1.241   7.500   2.584
11712TIP3    H235082   1.145   7.383   2.593
11713TIP3   OH235083   2.419   7.194   2.497
11713TIP3    H135084   2.385   7.188   2.407
11713TIP3    H235085   2.345   7.223   2.549
11714TIP3   OH235086   3.795   2.960   3.543
11714TIP3    H135087   3.737   2.927   3.611
11714TIP3    H235088   3.851   2.886   3.520
11715TIP3   OH235089   6.845   3.240   2.609
11715TIP3    H135090   6.816   3.172   2.669
11715TIP3    H235091   6.787   3.230   2.532
11716TIP3   OH235092   6.110   1.183   5.730
11716TIP3    H135093   6.067   1.119   5.673
11716TIP3    H235094   6.179   1.221   5.677
11717TIP3   OH235095   4.903   7.143   6.586
11717TIP3    H135096   4.970   7.075   6.574
11717TIP3    H235097   4.942   7.222   6.548
11718TIP3   OH235098   8.040   6.920   3.308
11718TIP3    H135099   7.947   6.936   3.292
11718TIP3    H235100   8.076   6.898   3.222
11719TIP3   OH235101   2.209   1.693   3.234
11719TIP3    H135102   2.200   1.600   3.217
11719TIP3    H235103   2.281   1.699   3.297
11720TIP3   OH235104   7.307   6.071   2.334
11720TIP3    H135105   7.307   5.999   2.272
11720TIP3    H235106   7.314   6.029   2.420
11721TIP3   OH235107   0.857   0.203   5.446
11721TIP3    H135108   0.789   0.196   5.380
11721TIP3    H235109   0.939   0.208   5.396
11722TIP3   OH235110   3.739   3.378   4.678
11722TIP3    H135111   3.668   3.342   4.731
11722TIP3    H235112   3.702   3.457   4.639
11723TIP3   OH235113   4.496   3.000   0.661
11723TIP3    H135114   4.412   2.990   0.616
11723TIP3    H235115   4.562   2.972   0.597
11724TIP3   OH235116   0.118   6.260   5.823
11724TIP3    H135117   0.031   6.274   5.786
11724TIP3    H235118   0.106   6.276   5.917
11725TIP3   OH235119   1.872   5.656   0.268
11725TIP3    H135120   1.867   5.572   0.223
11725TIP3    H235121   1.796   5.656   0.327
11726TIP3   OH235122   3.436   7.142   4.818
11726TIP3    H135123   3.429   7.219   4.874
11726TIP3    H235124   3.518   7.100   4.843
11727TIP3   OH235125   0.219   4.322   2.019
11727TIP3    H135126   0.176   4.253   2.069
11727TIP3    H235127   0.172   4.402   2.042
11728TIP3   OH235128   0.845   1.493   2.846
11728TIP3    H135129   0.853   1.570   2.902
11728TIP3    H235130   0.821   1.528   2.760
11729TIP3   OH235131   0.621   2.563   2.968
11729TIP3    H135132   0.695   2.593   2.915
11729TIP3    H235133   0.654   2.485   3.014
11730TIP3   OH235134   2.816   0.852   3.501
11730TIP3    H135135   2.794   0.761   3.522
11730TIP3    H235136   2.741   0.902   3.533
11731TIP3   OH235137   7.672   5.854   0.273
11731TIP3    H135138   7.615   5.895   0.208
11731TIP3    H235139   7.661   5.760   0.259
11732TIP3   OH235140   1.712   5.060   1.985
11732TIP3    H135141   1.689   5.015   1.903
11732TIP3    H235142   1.760   4.994   2.035
11733TIP3   OH235143   6.336   4.564   0.090
11733TIP3    H135144   6.277   4.638   0.110
11733TIP3    H235145   6.389   4.554   0.169
11734TIP3   OH235146   2.566   6.425   4.869
11734TIP3    H135147   2.597   6.470   4.791
11734TIP3    H235148   2.471   6.438   4.869
11735TIP3   OH235149   1.483   7.317   1.496
11735TIP3    H135150   1.454   7.333   1.585
11735TIP3    H235151   1.524   7.399   1.468
11736TIP3   OH235152   3.406   4.404   3.230
11736TIP3    H135153   3.464   4.447   3.167
11736TIP3    H235154   3.347   4.351   3.175
11737TIP3   OH235155   6.276   2.827   3.133
11737TIP3    H135156   6.215   2.899   3.118
11737TIP3    H235157   6.220   2.750   3.140
11738TIP3   OH235158   5.285   5.246   1.788
11738TIP3    H135159   5.218   5.276   1.849
11738TIP3    H235160   5.367   5.257   1.836
11739TIP3   OH235161   6.023   3.781   1.489
11739TIP3    H135162   5.973   3.701   1.503
11739TIP3    H235163   6.115   3.752   1.489
11740TIP3   OH235164   7.702   0.247   6.114
11740TIP3    H135165   7.679   0.296   6.036
11740TIP3    H235166   7.741   0.311   6.173
11741TIP3   OH235167   3.873   4.824   1.611
11741TIP3    H135168   3.937   4.764   1.575
11741TIP3    H235169   3.816   4.847   1.537
11742TIP3   OH235170   3.586   3.169   2.988
11742TIP3    H135171   3.582   3.095   3.049
11742TIP3    H235172   3.541   3.240   3.034
11743TIP3   OH235173   7.645   1.058   1.113
11743TIP3    H135174   7.703   1.123   1.074
11743TIP3    H235175   7.596   1.023   1.039
11744TIP3   OH235176   1.057   0.953   6.040
11744TIP3    H135177   1.123   0.886   6.019
11744TIP3    H235178   0.992   0.907   6.092
11745TIP3   OH235179   7.917   2.491   5.587
11745TIP3    H135180   7.865   2.411   5.579
11745TIP3    H235181   7.941   2.513   5.497
11746TIP3   OH235182   8.259  -0.004   1.128
11746TIP3    H135183   8.317   0.047   1.185
11746TIP3    H235184   8.296   0.006   1.041
11747TIP3   OH235185   1.187   4.110   3.382
11747TIP3    H135186   1.141   4.193   3.376
11747TIP3    H235187   1.120   4.047   3.409
11748TIP3   OH235188   1.468   0.344   2.243
11748TIP3    H135189   1.431   0.361   2.330
11748TIP3    H235190   1.483   0.431   2.206
11749TIP3   OH235191   6.517   5.925   0.972
11749TIP3    H135192   6.479   5.839   0.987
11749TIP3    H235193   6.566   5.916   0.890
11750TIP3   OH235194   0.243   1.830   4.607
11750TIP3    H135195   0.289   1.786   4.535
11750TIP3    H235196   0.199   1.759   4.654
11751TIP3   OH235197   5.537   5.476   5.984
11751TIP3    H135198   5.625   5.447   5.961
11751TIP3    H235199   5.524   5.444   6.074
11752TIP3   OH235200   3.699   6.528   6.451
11752TIP3    H135201   3.784   6.567   6.470
11752TIP3    H235202   3.636   6.598   6.469
11753TIP3   OH235203   2.946   3.559   5.992
11753TIP3    H135204   2.917   3.499   5.924
11753TIP3    H235205   2.895   3.639   5.976
11754TIP3   OH235206   6.137   5.718   2.844
11754TIP3    H135207   6.220   5.684   2.812
11754TIP3    H235208   6.079   5.717   2.768
11755TIP3   OH235209   0.425   3.096   0.966
11755TIP3    H135210   0.356   3.121   1.027
11755TIP3    H235211   0.473   3.177   0.950
11756TIP3   OH235212   6.166   7.742   0.109
11756TIP3    H135213   6.155   7.732   0.204
11756TIP3    H235214   6.104   7.679   0.071
11757TIP3   OH235215   4.635   3.067   1.079
11757TIP3    H135216   4.574   3.068   1.005
11757TIP3    H235217   4.676   3.154   1.077
11758TIP3   OH235218   2.689   6.827   5.752
11758TIP3    H135219   2.643   6.904   5.719
11758TIP3    H235220   2.749   6.803   5.681
11759TIP3   OH235221   2.883   0.648   4.660
11759TIP3    H135222   2.845   0.603   4.736
11759TIP3    H235223   2.883   0.581   4.591
11760TIP3   OH235224   2.870   5.917   2.961
11760TIP3    H135225   2.884   5.997   2.909
11760TIP3    H235226   2.899   5.846   2.904
11761TIP3   OH235227   7.842   1.147   1.600
11761TIP3    H135228   7.911   1.204   1.568
11761TIP3    H235229   7.782   1.138   1.526
11762TIP3   OH235230   5.152   3.438   6.543
11762TIP3    H135231   5.217   3.381   6.585
11762TIP3    H235232   5.139   3.400   6.457
11763TIP3   OH235233   3.365   6.507   3.030
11763TIP3    H135234   3.288   6.451   3.040
11763TIP3    H235235   3.407   6.475   2.950
11764TIP3   OH235236   6.676   4.787   4.200
11764TIP3    H135237   6.641   4.736   4.127
11764TIP3    H235238   6.763   4.815   4.171
11765TIP3   OH235239   3.003   3.525   1.393
11765TIP3    H135240   2.929   3.585   1.404
11765TIP3    H235241   2.986   3.481   1.310
11766TIP3   OH235242   7.861   0.745   6.015
11766TIP3    H135243   7.948   0.752   6.055
11766TIP3    H235244   7.876   0.752   5.921
11767TIP3   OH235245   0.822   0.392   5.215
11767TIP3    H135246   0.746   0.445   5.238
11767TIP3    H235247   0.799   0.350   5.133
11768TIP3   OH235248   4.031   4.033   1.857
11768TIP3    H135249   4.127   4.036   1.860
11768TIP3    H235250   4.008   3.954   1.907
11769TIP3   OH235251   3.057   7.191   2.779
11769TIP3    H135252   3.120   7.126   2.810
11769TIP3    H235253   2.996   7.142   2.725
11770TIP3   OH235254   5.113   6.348   3.426
11770TIP3    H135255   5.086   6.384   3.341
11770TIP3    H235256   5.195   6.394   3.446
11771TIP3   OH235257   7.996   1.923   6.373
11771TIP3    H135258   7.950   1.845   6.344
11771TIP3    H235259   8.083   1.892   6.399
11772TIP3   OH235260   4.800   1.119   1.020
11772TIP3    H135261   4.871   1.072   1.064
11772TIP3    H235262   4.800   1.205   1.061
11773TIP3   OH235263   0.451   0.388   6.090
11773TIP3    H135264   0.501   0.459   6.050
11773TIP3    H235265   0.408   0.345   6.016
11774TIP3   OH235266   5.377   6.155   4.060
11774TIP3    H135267   5.472   6.161   4.069
11774TIP3    H235268   5.362   6.140   3.967
11775TIP3   OH235269   4.273   7.720   4.236
11775TIP3    H135270   4.237   7.804   4.209
11775TIP3    H235271   4.230   7.656   4.180
11776TIP3   OH235272   1.216   6.136   6.687
11776TIP3    H135273   1.294   6.187   6.666
11776TIP3    H235274   1.198   6.086   6.607
11777TIP3   OH235275   7.770   1.000   0.405
11777TIP3    H135276   7.820   0.927   0.441
11777TIP3    H235277   7.828   1.040   0.341
11778TIP3   OH235278   7.122   1.728   0.743
11778TIP3    H135279   7.034   1.756   0.717
11778TIP3    H235280   7.181   1.780   0.689
11779TIP3   OH235281   5.969   1.347   5.893
11779TIP3    H135282   6.047   1.400   5.904
11779TIP3    H235283   5.998   1.272   5.841
11780TIP3   OH235284   4.155   0.603   1.205
11780TIP3    H135285   4.087   0.575   1.266
11780TIP3    H235286   4.171   0.695   1.228
11781TIP3   OH235287   7.273   7.699   5.174
11781TIP3    H135288   7.336   7.630   5.193
11781TIP3    H235289   7.321   7.781   5.191
11782TIP3   OH235290   1.128   6.156   0.413
11782TIP3    H135291   1.044   6.201   0.411
11782TIP3    H235292   1.108   6.070   0.452
11783TIP3   OH235293   1.019   6.554   0.445
11783TIP3    H135294   1.090   6.535   0.384
11783TIP3    H235295   1.062   6.591   0.522
11784TIP3   OH235296   7.446   7.259   3.544
11784TIP3    H135297   7.464   7.171   3.578
11784TIP3    H235298   7.418   7.245   3.454
11785TIP3   OH235299   6.330   1.467   3.633
11785TIP3    H135300   6.343   1.384   3.587
11785TIP3    H235301   6.241   1.461   3.668
11786TIP3   OH235302   2.455   2.899   6.053
11786TIP3    H135303   2.529   2.841   6.039
11786TIP3    H235304   2.465   2.929   6.144
11787TIP3   OH235305   6.533   0.891   1.170
11787TIP3    H135306   6.445   0.925   1.152
11787TIP3    H235307   6.524   0.796   1.159
11788TIP3   OH235308   0.238   6.394   1.292
11788TIP3    H135309   0.211   6.379   1.201
11788TIP3    H235310   0.328   6.425   1.286
11789TIP3   OH235311   5.347   7.407   1.839
11789TIP3    H135312   5.329   7.316   1.816
11789TIP3    H235313   5.262   7.442   1.868
11790TIP3   OH235314   7.395   3.288   3.430
11790TIP3    H135315   7.430   3.206   3.395
11790TIP3    H235316   7.345   3.261   3.508
11791TIP3   OH235317   5.479   0.053   0.675
11791TIP3    H135318   5.574   0.050   0.688
11791TIP3    H235319   5.449   0.126   0.729
11792TIP3   OH235320   4.416   5.752   0.729
11792TIP3    H135321   4.487   5.695   0.760
11792TIP3    H235322   4.406   5.817   0.798
11793TIP3   OH235323   5.134   4.595   1.331
11793TIP3    H135324   5.078   4.600   1.254
11793TIP3    H235325   5.179   4.680   1.334
11794TIP3   OH235326   3.098   4.206   0.722
11794TIP3    H135327   3.073   4.297   0.739
11794TIP3    H235328   3.015   4.158   0.720
11795TIP3   OH235329   7.841   0.076   0.714
11795TIP3    H135330   7.835   0.170   0.701
11795TIP3    H235331   7.934   0.057   0.707
11796TIP3   OH235332   7.661   2.128   5.123
11796TIP3    H135333   7.606   2.050   5.115
11796TIP3    H235334   7.670   2.161   5.033
11797TIP3   OH235335   2.110   1.274   3.396
11797TIP3    H135336   2.153   1.331   3.333
11797TIP3    H235337   2.060   1.333   3.453
11798TIP3   OH235338   4.897   6.378   3.701
11798TIP3    H135339   4.991   6.364   3.707
11798TIP3    H235340   4.874   6.349   3.613
11799TIP3   OH235341   3.399   3.394   5.933
11799TIP3    H135342   3.440   3.321   5.978
11799TIP3    H235343   3.387   3.364   5.843
11800TIP3   OH235344   4.868   7.277   3.546
11800TIP3    H135345   4.887   7.188   3.576
11800TIP3    H235346   4.774   7.288   3.562
11801TIP3   OH235347   0.256   1.837   2.909
11801TIP3    H135348   0.174   1.886   2.910
11801TIP3    H235349   0.293   1.853   2.822
11802TIP3   OH235350   4.405   4.825   1.894
11802TIP3    H135351   4.369   4.815   1.806
11802TIP3    H235352   4.494   4.792   1.887
11803TIP3   OH235353   2.464   1.316   2.325
11803TIP3    H135354   2.502   1.399   2.353
11803TIP3    H235355   2.372   1.322   2.351
11804TIP3   OH235356   7.392   5.548   4.669
11804TIP3    H135357   7.346   5.626   4.699
11804TIP3    H235358   7.375   5.545   4.575
11805TIP3   OH235359   6.724   3.433   0.093
11805TIP3    H135360   6.681   3.361   0.139
11805TIP3    H235361   6.728   3.405   0.002
11806TIP3   OH235362   0.790   3.021   1.688
11806TIP3    H135363   0.826   3.107   1.666
11806TIP3    H235364   0.856   2.981   1.744
11807TIP3   OH235365   6.325   6.453   0.012
11807TIP3    H135366   6.268   6.506  -0.044
11807TIP3    H235367   6.414   6.479  -0.012
11808TIP3   OH235368   4.697   4.062   1.395
11808TIP3    H135369   4.772   4.119   1.413
11808TIP3    H235370   4.737   3.981   1.362
11809TIP3   OH235371   7.531   0.334   5.655
11809TIP3    H135372   7.440   0.362   5.648
11809TIP3    H235373   7.559   0.362   5.742
11810TIP3   OH235374   1.387   1.071   5.801
11810TIP3    H135375   1.377   0.996   5.860
11810TIP3    H235376   1.297   1.098   5.782
11811TIP3   OH235377   0.158   4.030   1.740
11811TIP3    H135378   0.208   4.112   1.742
11811TIP3    H235379   0.068   4.058   1.720
11812TIP3   OH235380   3.836   1.297   3.895
11812TIP3    H135381   3.754   1.288   3.846
11812TIP3    H235382   3.831   1.230   3.963
11813TIP3   OH235383   7.162   4.952   4.571
11813TIP3    H135384   7.246   4.997   4.564
11813TIP3    H235385   7.107   5.009   4.625
11814TIP3   OH235386   3.651   0.147   6.005
11814TIP3    H135387   3.572   0.166   5.955
11814TIP3    H235388   3.705   0.095   5.946
11815TIP3   OH235389   0.089   6.700   1.787
11815TIP3    H135390   0.011   6.648   1.770
11815TIP3    H235391   0.079   6.777   1.732
11816TIP3   OH235392   2.789   6.209   3.222
11816TIP3    H135393   2.877   6.186   3.190
11816TIP3    H235394   2.804   6.243   3.310
11817TIP3   OH235395   3.838   5.423   4.500
11817TIP3    H135396   3.783   5.426   4.578
11817TIP3    H235397   3.909   5.484   4.519
11818TIP3   OH235398   1.158   0.618   3.767
11818TIP3    H135399   1.067   0.590   3.773
11818TIP3    H235400   1.158   0.710   3.792
11819TIP3   OH235401   4.926   6.559   6.150
11819TIP3    H135402   5.016   6.527   6.142
11819TIP3    H235403   4.874   6.492   6.106
11820TIP3   OH235404   5.462   2.682   5.850
11820TIP3    H135405   5.527   2.644   5.909
11820TIP3    H235406   5.467   2.776   5.866
11821TIP3   OH235407   6.118   7.027   3.281
11821TIP3    H135408   6.048   7.008   3.219
11821TIP3    H235409   6.180   6.955   3.270
11822TIP3   OH235410   4.617   2.523   4.133
11822TIP3    H135411   4.649   2.475   4.056
11822TIP3    H235412   4.544   2.575   4.101
11823TIP3   OH235413   2.501   3.639   4.268
11823TIP3    H135414   2.588   3.601   4.276
11823TIP3    H235415   2.516   3.734   4.264
11824TIP3   OH235416   1.723   0.244   0.089
11824TIP3    H135417   1.632   0.272   0.093
11824TIP3    H235418   1.757   0.259   0.177
11825TIP3   OH235419   3.934   3.140   1.306
11825TIP3    H135420   3.851   3.130   1.351
11825TIP3    H235421   3.913   3.191   1.228
11826TIP3   OH235422   0.922   4.341   6.325
11826TIP3    H135423   0.897   4.416   6.379
11826TIP3    H235424   0.846   4.327   6.268
11827TIP3   OH235425   3.406   1.740   3.051
11827TIP3    H135426   3.501   1.737   3.066
11827TIP3    H235427   3.375   1.655   3.084
11828TIP3   OH235428   6.063   5.041   6.676
11828TIP3    H135429   6.055   4.971   6.741
11828TIP3    H235430   6.151   5.030   6.640
11829TIP3   OH235431   5.300   7.055   4.037
11829TIP3    H135432   5.277   6.967   4.007
11829TIP3    H235433   5.339   7.097   3.961
11830TIP3   OH235434   3.886   7.771   2.842
11830TIP3    H135435   3.922   7.839   2.785
11830TIP3    H235436   3.935   7.781   2.924
11831TIP3   OH235437   4.101   3.603   5.995
11831TIP3    H135438   4.183   3.555   5.988
11831TIP3    H235439   4.122   3.690   5.961
11832TIP3   OH235440   5.336   4.596   6.063
11832TIP3    H135441   5.334   4.612   6.157
11832TIP3    H235442   5.287   4.514   6.051
11833TIP3   OH235443   7.486   5.231   5.805
11833TIP3    H135444   7.503   5.267   5.718
11833TIP3    H235445   7.452   5.143   5.788
11834TIP3   OH235446   6.058   7.833   2.933
11834TIP3    H135447   6.068   7.748   2.891
11834TIP3    H235448   6.123   7.888   2.889
11835TIP3   OH235449   7.319   5.596   4.030
11835TIP3    H135450   7.299   5.622   3.940
11835TIP3    H235451   7.312   5.501   4.030
11836TIP3   OH235452   3.715   1.970  -0.007
11836TIP3    H135453   3.768   1.894   0.015
11836TIP3    H235454   3.661   1.985   0.071
11837TIP3   OH235455   1.878   0.543   5.875
11837TIP3    H135456   1.880   0.467   5.934
11837TIP3    H235457   1.792   0.541   5.835
11838TIP3   OH235458   5.428   0.034   5.820
11838TIP3    H135459   5.473   0.015   5.737
11838TIP3    H235460   5.336   0.045   5.796
11839TIP3   OH235461   0.942   6.956   6.172
11839TIP3    H135462   0.891   6.922   6.098
11839TIP3    H235463   1.009   7.011   6.132
11840TIP3   OH235464   8.121   7.615   0.945
11840TIP3    H135465   8.071   7.624   1.027
11840TIP3    H235466   8.207   7.583   0.974
11841TIP3   OH235467   2.716   1.893   3.341
11841TIP3    H135468   2.801   1.937   3.343
11841TIP3    H235469   2.681   1.912   3.254
11842TIP3   OH235470   3.552   0.584   5.954
11842TIP3    H135471   3.513   0.573   5.868
11842TIP3    H235472   3.646   0.587   5.937
11843TIP3   OH235473   6.045   0.871   2.852
11843TIP3    H135474   6.126   0.833   2.818
11843TIP3    H235475   6.072   0.951   2.896
11844TIP3   OH235476   5.688   7.775   0.088
11844TIP3    H135477   5.678   7.750  -0.004
11844TIP3    H235478   5.744   7.852   0.086
11845TIP3   OH235479   0.954   6.306   4.380
11845TIP3    H135480   0.964   6.378   4.442
11845TIP3    H235481   1.044   6.277   4.363
11846TIP3   OH235482   1.754   3.549   3.929
11846TIP3    H135483   1.808   3.532   3.852
11846TIP3    H235484   1.689   3.612   3.899
11847TIP3   OH235485   1.808   0.349   2.003
11847TIP3    H135486   1.773   0.352   2.092
11847TIP3    H235487   1.748   0.405   1.952
11848TIP3   OH235488   3.216   0.452   2.939
11848TIP3    H135489   3.139   0.428   2.992
11848TIP3    H235490   3.238   0.540   2.970
11849TIP3   OH235491   8.057   7.086   5.158
11849TIP3    H135492   8.152   7.093   5.160
11849TIP3    H235493   8.037   7.050   5.072
11850TIP3   OH235494   4.709   5.939   2.600
11850TIP3    H135495   4.765   5.948   2.523
11850TIP3    H235496   4.713   5.846   2.622
11851TIP3   OH235497   8.063   2.119   4.727
11851TIP3    H135498   8.133   2.062   4.696
11851TIP3    H235499   7.991   2.106   4.666
11852TIP3   OH235500   5.304   5.859   3.732
11852TIP3    H135501   5.260   5.775   3.746
11852TIP3    H235502   5.276   5.886   3.644
11853TIP3   OH235503   4.152   0.897   5.719
11853TIP3    H135504   4.073   0.950   5.713
11853TIP3    H235505   4.153   0.865   5.809
11854TIP3   OH235506   3.822   3.946   3.934
11854TIP3    H135507   3.755   3.965   4.000
11854TIP3    H235508   3.866   3.867   3.967
11855TIP3   OH235509   1.469   2.678   3.575
11855TIP3    H135510   1.435   2.669   3.664
11855TIP3    H235511   1.430   2.606   3.527
11856TIP3   OH235512   0.620   1.313   2.034
11856TIP3    H135513   0.574   1.267   1.963
11856TIP3    H235514   0.554   1.369   2.073
11857TIP3   OH235515   6.349   7.749   3.107
11857TIP3    H135516   6.389   7.768   3.022
11857TIP3    H235517   6.316   7.660   3.099
11858TIP3   OH235518   3.115   4.045   1.484
11858TIP3    H135519   3.139   4.058   1.576
11858TIP3    H235520   3.196   4.064   1.435
11859TIP3   OH235521   7.409   1.274   5.239
11859TIP3    H135522   7.489   1.305   5.281
11859TIP3    H235523   7.438   1.201   5.184
11860TIP3   OH235524   0.188   5.487   4.731
11860TIP3    H135525   0.110   5.440   4.758
11860TIP3    H235526   0.156   5.569   4.693
11861TIP3   OH235527   0.610   6.913   5.677
11861TIP3    H135528   0.648   6.860   5.608
11861TIP3    H235529   0.631   7.003   5.653
11862TIP3   OH235530   4.078   7.378   2.315
11862TIP3    H135531   4.018   7.370   2.241
11862TIP3    H235532   4.040   7.447   2.369
11863TIP3   OH235533   2.248   1.029   5.195
11863TIP3    H135534   2.163   1.068   5.217
11863TIP3    H235535   2.239   1.001   5.104
11864TIP3   OH235536   7.372   6.114   4.479
11864TIP3    H135537   7.286   6.140   4.512
11864TIP3    H235538   7.354   6.078   4.392
11865TIP3   OH235539   3.266   5.992   4.595
11865TIP3    H135540   3.192   5.933   4.581
11865TIP3    H235541   3.258   6.058   4.526
11866TIP3   OH235542   7.612   6.070   5.072
11866TIP3    H135543   7.551   6.083   4.999
11866TIP3    H235544   7.605   5.976   5.093
11867TIP3   OH235545   8.183   4.994   6.632
11867TIP3    H135546   8.239   4.975   6.707
11867TIP3    H235547   8.187   4.915   6.578
11868TIP3   OH235548   7.649   1.322   1.399
11868TIP3    H135549   7.641   1.351   1.308
11868TIP3    H235550   7.614   1.233   1.399
11869TIP3   OH235551   3.005   0.232   5.384
11869TIP3    H135552   2.934   0.228   5.448
11869TIP3    H235553   3.077   0.183   5.425
11870TIP3   OH235554   6.539   3.764   4.735
11870TIP3    H135555   6.532   3.720   4.819
11870TIP3    H235556   6.536   3.857   4.757
11871TIP3   OH235557   5.583   4.276   4.311
11871TIP3    H135558   5.601   4.366   4.335
11871TIP3    H235559   5.581   4.228   4.394
11872TIP3   OH235560   5.819   2.627   3.013
11872TIP3    H135561   5.733   2.668   3.021
11872TIP3    H235562   5.831   2.581   3.096
11873TIP3   OH235563   0.025   1.192   5.666
11873TIP3    H135564   0.112   1.229   5.651
11873TIP3    H235565   0.037   1.098   5.656
11874TIP3   OH235566   3.863   4.120   5.340
11874TIP3    H135567   3.825   4.146   5.424
11874TIP3    H235568   3.851   4.196   5.283
11875TIP3   OH235569   4.415   0.572   6.711
11875TIP3    H135570   4.460   0.624   6.644
11875TIP3    H235571   4.365   0.637   6.761
11876TIP3   OH235572   4.839   3.819   6.343
11876TIP3    H135573   4.921   3.769   6.334
11876TIP3    H235574   4.792   3.775   6.414
11877TIP3   OH235575   3.726   5.409   4.755
11877TIP3    H135576   3.745   5.319   4.781
11877TIP3    H235577   3.664   5.441   4.821
11878TIP3   OH235578   1.833   7.054   5.224
11878TIP3    H135579   1.872   7.135   5.255
11878TIP3    H235580   1.856   6.989   5.291
11879TIP3   OH235581   4.629   5.061   1.279
11879TIP3    H135582   4.701   5.019   1.233
11879TIP3    H235583   4.668   5.140   1.317
11880TIP3   OH235584   3.760   7.817   0.863
11880TIP3    H135585   3.686   7.829   0.922
11880TIP3    H235586   3.772   7.722   0.859
11881TIP3   OH235587   6.745   5.430   5.931
11881TIP3    H135588   6.735   5.343   5.971
11881TIP3    H235589   6.750   5.413   5.837
11882TIP3   OH235590   4.200   0.156   6.372
11882TIP3    H135591   4.122   0.114   6.409
11882TIP3    H235592   4.269   0.090   6.381
11883TIP3   OH235593   4.729   2.895   0.809
11883TIP3    H135594   4.765   2.826   0.752
11883TIP3    H235595   4.640   2.908   0.776
11884TIP3   OH235596   6.409   0.338   6.654
11884TIP3    H135597   6.369   0.356   6.739
11884TIP3    H235598   6.503   0.342   6.671
11885TIP3   OH235599   3.774   0.818   4.748
11885TIP3    H135600   3.694   0.859   4.781
11885TIP3    H235601   3.743   0.743   4.698
11886TIP3   OH235602   5.147   7.453   5.775
11886TIP3    H135603   5.217   7.387   5.773
11886TIP3    H235604   5.084   7.419   5.838
11887TIP3   OH235605   2.424   0.252   5.289
11887TIP3    H135606   2.512   0.283   5.269
11887TIP3    H235607   2.374   0.333   5.306
11888TIP3   OH235608   4.575   1.590   4.490
11888TIP3    H135609   4.656   1.623   4.452
11888TIP3    H235610   4.592   1.587   4.584
11889TIP3   OH235611   6.940   7.778   2.969
11889TIP3    H135612   6.985   7.695   2.957
11889TIP3    H235613   6.856   7.766   2.925
11890TIP3   OH235614   7.505   3.922   1.465
11890TIP3    H135615   7.445   3.952   1.533
11890TIP3    H235616   7.590   3.960   1.490
11891TIP3   OH235617   6.491   4.827   2.851
11891TIP3    H135618   6.442   4.903   2.884
11891TIP3    H235619   6.575   4.864   2.825
11892TIP3   OH235620   1.535   4.112   4.302
11892TIP3    H135621   1.614   4.071   4.266
11892TIP3    H235622   1.567   4.191   4.346
11893TIP3   OH235623   5.819   0.514   1.982
11893TIP3    H135624   5.738   0.481   2.021
11893TIP3    H235625   5.856   0.439   1.935
11894TIP3   OH235626   5.240   1.908   5.445
11894TIP3    H135627   5.218   1.920   5.353
11894TIP3    H235628   5.259   1.996   5.477
11895TIP3   OH235629   3.641   6.696   6.181
11895TIP3    H135630   3.642   6.620   6.123
11895TIP3    H235631   3.626   6.659   6.269
11896TIP3   OH235632   4.958   3.923   1.894
11896TIP3    H135633   5.039   3.946   1.940
11896TIP3    H235634   4.951   3.828   1.903
11897TIP3   OH235635   7.428   2.529   5.510
11897TIP3    H135636   7.382   2.570   5.436
11897TIP3    H235637   7.520   2.551   5.496
11898TIP3   OH235638   4.547   7.827   1.723
11898TIP3    H135639   4.587   7.848   1.639
11898TIP3    H235640   4.617   7.843   1.787
11899TIP3   OH235641   3.687   6.881   6.448
11899TIP3    H135642   3.747   6.827   6.499
11899TIP3    H235643   3.617   6.822   6.422
11900TIP3   OH235644   3.013   1.989   4.640
11900TIP3    H135645   3.099   1.971   4.679
11900TIP3    H235646   3.015   2.082   4.618
11901TIP3   OH235647   1.759   3.982   4.516
11901TIP3    H135648   1.804   3.913   4.566
11901TIP3    H235649   1.827   4.017   4.458
11902TIP3   OH235650   6.156   3.604   0.905
11902TIP3    H135651   6.164   3.597   1.000
11902TIP3    H235652   6.100   3.681   0.891
11903TIP3   OH235653   5.450   4.127   5.693
11903TIP3    H135654   5.428   4.168   5.776
11903TIP3    H235655   5.373   4.073   5.672
11904TIP3   OH235656   7.934   4.569   4.652
11904TIP3    H135657   7.882   4.649   4.660
11904TIP3    H235658   7.882   4.502   4.696
11905TIP3   OH235659   5.231   7.206   3.156
11905TIP3    H135660   5.183   7.126   3.136
11905TIP3    H235661   5.219   7.218   3.250
11906TIP3   OH235662   1.368   2.615   5.663
11906TIP3    H135663   1.290   2.581   5.619
11906TIP3    H235664   1.348   2.707   5.679
11907TIP3   OH235665   6.491   6.095   2.971
11907TIP3    H135666   6.444   6.061   3.047
11907TIP3    H235667   6.547   6.164   3.006
11908TIP3   OH235668   4.089   0.289   5.750
11908TIP3    H135669   4.140   0.228   5.698
11908TIP3    H235670   4.000   0.283   5.715
11909TIP3   OH235671   4.434   0.544   5.688
11909TIP3    H135672   4.432   0.626   5.737
11909TIP3    H235673   4.462   0.479   5.753
11910TIP3   OH235674   5.552   5.693   0.475
11910TIP3    H135675   5.531   5.600   0.483
11910TIP3    H235676   5.558   5.724   0.566
11911TIP3   OH235677   3.780   4.795   3.468
11911TIP3    H135678   3.851   4.742   3.503
11911TIP3    H235679   3.701   4.746   3.489
11912TIP3   OH235680   4.748   5.471   0.634
11912TIP3    H135681   4.742   5.438   0.544
11912TIP3    H235682   4.657   5.484   0.661
11913TIP3   OH235683   4.422   2.722   0.183
11913TIP3    H135684   4.397   2.783   0.252
11913TIP3    H235685   4.406   2.769   0.102
11914TIP3   OH235686   7.878   6.128   2.876
11914TIP3    H135687   7.857   6.035   2.890
11914TIP3    H235688   7.973   6.130   2.870
11915TIP3   OH235689   0.190   3.138   1.144
11915TIP3    H135690   0.115   3.192   1.118
11915TIP3    H235691   0.157   3.048   1.140
11916TIP3   OH235692   1.878   6.867   4.586
11916TIP3    H135693   1.811   6.933   4.602
11916TIP3    H235694   1.883   6.861   4.490
11917TIP3   OH235695   0.673   4.036   1.410
11917TIP3    H135696   0.645   3.994   1.492
11917TIP3    H235697   0.701   4.123   1.436
11918TIP3   OH235698   6.325   5.630   2.342
11918TIP3    H135699   6.315   5.711   2.292
11918TIP3    H235700   6.238   5.591   2.342
11919TIP3   OH235701   0.972   6.235   2.907
11919TIP3    H135702   0.900   6.294   2.929
11919TIP3    H235703   0.978   6.239   2.812
11920TIP3   OH235704   7.425   3.941   1.018
11920TIP3    H135705   7.441   4.029   1.053
11920TIP3    H235706   7.438   3.883   1.093
11921TIP3   OH235707   3.844   4.651   0.958
11921TIP3    H135708   3.751   4.637   0.976
11921TIP3    H235709   3.888   4.634   1.042
11922TIP3   OH235710   2.610   4.692   1.708
11922TIP3    H135711   2.547   4.763   1.689
11922TIP3    H235712   2.653   4.676   1.624
11923TIP3   OH235713   2.257   5.052   3.567
11923TIP3    H135714   2.208   5.067   3.647
11923TIP3    H235715   2.334   5.003   3.595
11924TIP3   OH235716   0.120   2.571   5.773
11924TIP3    H135717   0.059   2.576   5.847
11924TIP3    H235718   0.072   2.523   5.706
11925TIP3   OH235719   5.928   0.250   5.990
11925TIP3    H135720   5.984   0.176   5.967
11925TIP3    H235721   5.948   0.268   6.082
11926TIP3   OH235722   3.203   0.114   4.816
11926TIP3    H135723   3.247   0.189   4.776
11926TIP3    H235724   3.156   0.072   4.743
11927TIP3   OH235725   0.898   4.969   1.657
11927TIP3    H135726   0.844   5.020   1.717
11927TIP3    H235727   0.960   5.033   1.621
11928TIP3   OH235728   7.232   1.559   1.246
11928TIP3    H135729   7.226   1.530   1.155
11928TIP3    H235730   7.178   1.638   1.250
11929TIP3   OH235731   4.204   0.234   2.798
11929TIP3    H135732   4.289   0.248   2.841
11929TIP3    H235733   4.193   0.139   2.799
11930TIP3   OH235734   2.186   0.422   1.244
11930TIP3    H135735   2.121   0.370   1.292
11930TIP3    H235736   2.192   0.504   1.292
11931TIP3   OH235737   3.221   7.221   4.442
11931TIP3    H135738   3.311   7.226   4.473
11931TIP3    H235739   3.169   7.264   4.510
11932TIP3   OH235740   2.520   1.027   4.165
11932TIP3    H135741   2.532   1.060   4.076
11932TIP3    H235742   2.477   1.099   4.211
11933TIP3   OH235743   3.790   0.484   1.576
11933TIP3    H135744   3.833   0.554   1.527
11933TIP3    H235745   3.823   0.494   1.666
11934TIP3   OH235746   6.022   7.568   4.369
11934TIP3    H135747   5.929   7.584   4.382
11934TIP3    H235748   6.040   7.488   4.419
11935TIP3   OH235749   6.470   4.026   6.474
11935TIP3    H135750   6.395   4.085   6.484
11935TIP3    H235751   6.434   3.938   6.488
11936TIP3   OH235752   5.592   6.495   5.445
11936TIP3    H135753   5.583   6.525   5.535
11936TIP3    H235754   5.517   6.534   5.399
11937TIP3   OH235755   3.083   7.429   3.783
11937TIP3    H135756   2.994   7.401   3.802
11937TIP3    H235757   3.087   7.519   3.816
11938TIP3   OH235758   7.536   4.825   0.365
11938TIP3    H135759   7.474   4.770   0.318
11938TIP3    H235760   7.620   4.810   0.321
11939TIP3   OH235761   3.783   3.654   6.470
11939TIP3    H135762   3.781   3.632   6.377
11939TIP3    H235763   3.733   3.735   6.477
11940TIP3   OH235764   1.051   6.608   5.789
11940TIP3    H135765   1.119   6.593   5.724
11940TIP3    H235766   1.051   6.702   5.803
11941TIP3   OH235767   6.865   1.641   5.985
11941TIP3    H135768   6.851   1.731   6.016
11941TIP3    H235769   6.957   1.624   6.004
11942TIP3   OH235770   4.244   4.857   1.632
11942TIP3    H135771   4.211   4.927   1.576
11942TIP3    H235772   4.339   4.858   1.618
11943TIP3   OH235773   2.662   5.643   4.599
11943TIP3    H135774   2.683   5.595   4.519
11943TIP3    H235775   2.690   5.733   4.582
11944TIP3   OH235776   1.196   3.595   2.018
11944TIP3    H135777   1.269   3.656   2.009
11944TIP3    H235778   1.122   3.649   2.045
11945TIP3   OH235779   5.324   3.558   2.372
11945TIP3    H135780   5.289   3.621   2.309
11945TIP3    H235781   5.417   3.577   2.376
11946TIP3   OH235782   2.390   0.972   6.330
11946TIP3    H135783   2.352   0.888   6.303
11946TIP3    H235784   2.377   1.030   6.255
11947TIP3   OH235785   5.973   1.727   0.247
11947TIP3    H135786   6.018   1.811   0.241
11947TIP3    H235787   6.016   1.672   0.181
11948TIP3   OH235788   0.730   3.776   2.840
11948TIP3    H135789   0.699   3.756   2.928
11948TIP3    H235790   0.787   3.852   2.851
11949TIP3   OH235791   3.386   3.571   6.554
11949TIP3    H135792   3.331   3.646   6.577
11949TIP3    H235793   3.376   3.562   6.460
11950TIP3   OH235794   6.513   7.398   5.208
11950TIP3    H135795   6.608   7.384   5.204
11950TIP3    H235796   6.478   7.339   5.141
11951TIP3   OH235797   2.002   2.704   2.596
11951TIP3    H135798   1.959   2.787   2.618
11951TIP3    H235799   1.962   2.639   2.654
11952TIP3   OH235800   4.774   3.350   1.054
11952TIP3    H135801   4.801   3.436   1.023
11952TIP3    H235802   4.801   3.290   0.984
11953TIP3   OH235803   7.608   2.132   4.468
11953TIP3    H135804   7.581   2.114   4.378
11953TIP3    H235805   7.529   2.121   4.520
11954TIP3   OH235806   7.884   7.515   0.265
11954TIP3    H135807   7.904   7.431   0.223
11954TIP3    H235808   7.812   7.495   0.325
11955TIP3   OH235809   1.816   5.834   3.355
11955TIP3    H135810   1.876   5.825   3.429
11955TIP3    H235811   1.856   5.783   3.285
11956TIP3   OH235812   8.083   4.739   3.043
11956TIP3    H135813   8.157   4.766   3.098
11956TIP3    H235814   8.006   4.757   3.096
11957TIP3   OH235815   5.018   0.615   3.746
11957TIP3    H135816   4.999   0.521   3.752
11957TIP3    H235817   5.009   0.636   3.653
11958TIP3   OH235818   0.018   7.801   3.544
11958TIP3    H135819   0.064   7.819   3.626
11958TIP3    H235820   0.085   7.811   3.476
11959TIP3   OH235821   6.016   2.816   2.289
11959TIP3    H135822   5.955   2.815   2.362
11959TIP3    H235823   6.103   2.816   2.330
11960TIP3   OH235824   8.157   6.941   4.328
11960TIP3    H135825   8.142   6.854   4.291
11960TIP3    H235826   8.221   6.927   4.397
11961TIP3   OH235827   3.413   6.625   1.957
11961TIP3    H135828   3.386   6.596   1.870
11961TIP3    H235829   3.347   6.589   2.016
11962TIP3   OH235830   6.983   0.426   0.203
11962TIP3    H135831   7.054   0.384   0.154
11962TIP3    H235832   7.014   0.428   0.293
11963TIP3   OH235833   2.588   5.770   4.063
11963TIP3    H135834   2.538   5.691   4.040
11963TIP3    H235835   2.643   5.786   3.987
11964TIP3   OH235836   1.432   3.688   4.402
11964TIP3    H135837   1.494   3.641   4.458
11964TIP3    H235838   1.430   3.777   4.437
11965TIP3   OH235839   1.114   3.545   1.658
11965TIP3    H135840   1.140   3.512   1.744
11965TIP3    H235841   1.121   3.640   1.666
11966TIP3   OH235842   7.748   1.083   4.468
11966TIP3    H135843   7.670   1.057   4.419
11966TIP3    H235844   7.772   1.006   4.519
11967TIP3   OH235845   7.010   1.313   5.820
11967TIP3    H135846   6.967   1.341   5.901
11967TIP3    H235847   7.038   1.395   5.778
11968TIP3   OH235848   4.043   7.306   0.495
11968TIP3    H135849   4.021   7.368   0.426
11968TIP3    H235850   3.959   7.267   0.520
11969TIP3   OH235851   2.400   1.278   0.298
11969TIP3    H135852   2.461   1.291   0.370
11969TIP3    H235853   2.321   1.324   0.325
11970TIP3   OH235854   8.267   6.576   0.191
11970TIP3    H135855   8.248   6.509   0.258
11970TIP3    H235856   8.213   6.651   0.217
11971TIP3   OH235857   5.572   0.978   1.277
11971TIP3    H135858   5.581   0.977   1.372
11971TIP3    H235859   5.628   1.051   1.248
11972TIP3   OH235860   4.317   5.274   4.414
11972TIP3    H135861   4.273   5.355   4.388
11972TIP3    H235862   4.298   5.266   4.508
11973TIP3   OH235863   0.761   0.471   5.643
11973TIP3    H135864   0.701   0.421   5.587
11973TIP3    H235865   0.734   0.449   5.732
11974TIP3   OH235866   5.792   6.811   3.467
11974TIP3    H135867   5.886   6.815   3.485
11974TIP3    H235868   5.783   6.851   3.380
11975TIP3   OH235869   3.410   7.034   0.342
11975TIP3    H135870   3.490   7.076   0.373
11975TIP3    H235871   3.361   7.013   0.421
11976TIP3   OH235872   5.781   4.662   2.351
11976TIP3    H135873   5.746   4.592   2.407
11976TIP3    H235874   5.704   4.701   2.310
11977TIP3   OH235875   1.677   6.446   1.796
11977TIP3    H135876   1.742   6.385   1.763
11977TIP3    H235877   1.702   6.462   1.887
11978TIP3   OH235878   7.911   2.840   1.481
11978TIP3    H135879   7.920   2.920   1.428
11978TIP3    H235880   7.894   2.771   1.416
11979TIP3   OH235881   2.134   5.304   2.566
11979TIP3    H135882   2.195   5.311   2.640
11979TIP3    H235883   2.047   5.309   2.606
11980TIP3   OH235884   1.372   5.898   4.139
11980TIP3    H135885   1.374   5.990   4.166
11980TIP3    H235886   1.314   5.896   4.063
11981TIP3   OH235887   5.210   1.371   3.343
11981TIP3    H135888   5.204   1.453   3.294
11981TIP3    H235889   5.202   1.398   3.435
11982TIP3   OH235890   4.285   1.027   0.913
11982TIP3    H135891   4.268   1.019   1.007
11982TIP3    H235892   4.206   1.069   0.878
11983TIP3   OH235893   1.261   3.536   5.640
11983TIP3    H135894   1.349   3.574   5.643
11983TIP3    H235895   1.236   3.540   5.548
11984TIP3   OH235896   7.616   2.619   6.045
11984TIP3    H135897   7.638   2.583   5.959
11984TIP3    H235898   7.524   2.645   6.037
11985TIP3   OH235899   2.220   1.183   6.546
11985TIP3    H135900   2.276   1.198   6.470
11985TIP3    H235901   2.140   1.232   6.527
11986TIP3   OH235902   5.923   5.762   0.040
11986TIP3    H135903   5.842   5.722   0.010
11986TIP3    H235904   5.948   5.712   0.117
11987TIP3   OH235905   5.576   2.670   0.339
11987TIP3    H135906   5.630   2.639   0.412
11987TIP3    H235907   5.603   2.616   0.265
11988TIP3   OH235908   3.994   5.704   6.484
11988TIP3    H135909   4.057   5.767   6.520
11988TIP3    H235910   3.973   5.647   6.558
11989TIP3   OH235911   4.629   5.705   0.429
11989TIP3    H135912   4.640   5.677   0.338
11989TIP3    H235913   4.717   5.728   0.458
11990TIP3   OH235914   5.682   1.061   1.956
11990TIP3    H135915   5.755   1.038   2.014
11990TIP3    H235916   5.661   0.980   1.910
11991TIP3   OH235917   6.999   6.188   4.287
11991TIP3    H135918   6.941   6.170   4.213
11991TIP3    H235919   6.967   6.130   4.356
11992TIP3   OH235920   7.893   6.806   0.799
11992TIP3    H135921   7.823   6.745   0.822
11992TIP3    H235922   7.964   6.785   0.860
11993TIP3   OH235923   6.749   5.768   5.403
11993TIP3    H135924   6.740   5.690   5.347
11993TIP3    H235925   6.724   5.738   5.490
11994TIP3   OH235926   8.149   4.407   6.649
11994TIP3    H135927   8.082   4.450   6.702
11994TIP3    H235928   8.116   4.413   6.559
11995TIP3   OH235929   3.623   4.021   3.308
11995TIP3    H135930   3.624   4.089   3.376
11995TIP3    H235931   3.573   4.060   3.237
11996TIP3   OH235932   6.616   6.596   0.337
11996TIP3    H135933   6.625   6.690   0.319
11996TIP3    H235934   6.650   6.585   0.426
11997TIP3   OH235935   8.003   5.643   6.119
11997TIP3    H135936   7.969   5.554   6.125
11997TIP3    H235937   7.987   5.680   6.206
11998TIP3   OH235938   5.105   4.709   4.793
11998TIP3    H135939   5.088   4.803   4.796
11998TIP3    H235940   5.114   4.684   4.885
11999TIP3   OH235941   0.357   7.653   4.044
11999TIP3    H135942   0.269   7.683   4.023
11999TIP3    H235943   0.345   7.583   4.108
12000TIP3   OH235944   3.114   2.694   0.714
12000TIP3    H135945   3.137   2.786   0.700
12000TIP3    H235946   3.079   2.691   0.803
12001TIP3   OH235947   2.842   4.317   4.405
12001TIP3    H135948   2.848   4.411   4.386
12001TIP3    H235949   2.931   4.284   4.391
12002TIP3   OH235950   1.370   7.847   0.364
12002TIP3    H135951   1.388   7.765   0.409
12002TIP3    H235952   1.341   7.821   0.277
12003TIP3   OH235953   7.844   1.094   2.484
12003TIP3    H135954   7.821   1.077   2.576
12003TIP3    H235955   7.913   1.160   2.488
12004TIP3   OH235956   0.168   7.451   3.945
12004TIP3    H135957   0.080   7.447   3.982
12004TIP3    H235958   0.226   7.454   4.021
12005TIP3   OH235959   5.422   2.152   4.835
12005TIP3    H135960   5.477   2.143   4.757
12005TIP3    H235961   5.410   2.246   4.845
12006TIP3   OH235962   3.010   5.242   6.246
12006TIP3    H135963   3.070   5.286   6.306
12006TIP3    H235964   2.934   5.300   6.242
12007TIP3   OH235965   6.981   4.735   1.842
12007TIP3    H135966   6.949   4.644   1.841
12007TIP3    H235967   7.075   4.727   1.828
12008TIP3   OH235968   2.951   7.267   0.638
12008TIP3    H135969   2.945   7.259   0.543
12008TIP3    H235970   2.873   7.223   0.671
12009TIP3   OH235971   4.633   6.675   4.955
12009TIP3    H135972   4.600   6.608   5.015
12009TIP3    H235973   4.599   6.757   4.991
12010TIP3   OH235974   0.755   1.285   4.102
12010TIP3    H135975   0.820   1.225   4.065
12010TIP3    H235976   0.790   1.308   4.188
12011TIP3   OH235977   8.187   3.167   4.374
12011TIP3    H135978   8.155   3.204   4.292
12011TIP3    H235979   8.274   3.133   4.353
12012TIP3   OH235980   3.709   1.346   3.483
12012TIP3    H135981   3.743   1.287   3.415
12012TIP3    H235982   3.781   1.407   3.499
12013TIP3   OH235983   1.329   3.897   1.624
12013TIP3    H135984   1.358   3.889   1.533
12013TIP3    H235985   1.373   3.825   1.670
12014TIP3   OH235986   2.992   0.505   3.140
12014TIP3    H135987   2.927   0.523   3.072
12014TIP3    H235988   2.986   0.579   3.200
12015TIP3   OH235989   1.053   2.329   2.465
12015TIP3    H135990   1.094   2.299   2.546
12015TIP3    H235991   1.008   2.410   2.489
12016TIP3   OH235992   6.067   6.447   4.892
12016TIP3    H135993   6.034   6.361   4.920
12016TIP3    H235994   6.022   6.463   4.808
12017TIP3   OH235995   1.382   4.445   1.636
12017TIP3    H135996   1.425   4.514   1.586
12017TIP3    H235997   1.450   4.410   1.693
12018TIP3   OH235998   0.406   2.549   1.498
12018TIP3    H135999   0.383   2.484   1.565
12018TIP3    H236000   0.499   2.565   1.511
12019TIP3   OH236001   3.602   2.960   3.152
12019TIP3    H136002   3.548   2.886   3.122
12019TIP3    H236003   3.685   2.948   3.106
12020TIP3   OH236004   3.600   1.587   3.396
12020TIP3    H136005   3.610   1.501   3.435
12020TIP3    H236006   3.604   1.571   3.301
12021TIP3   OH236007   1.870   7.553   4.191
12021TIP3    H136008   1.816   7.622   4.229
12021TIP3    H236009   1.925   7.523   4.264
12022TIP3   OH236010   7.877   3.395   1.115
12022TIP3    H136011   7.782   3.396   1.101
12022TIP3    H236012   7.906   3.312   1.075
12023TIP3   OH236013   5.293   2.020   0.814
12023TIP3    H136014   5.305   2.111   0.839
12023TIP3    H236015   5.331   2.014   0.727
12024TIP3   OH236016   4.252   4.363   3.391
12024TIP3    H136017   4.249   4.345   3.297
12024TIP3    H236018   4.160   4.376   3.415
12025TIP3   OH236019   4.763   5.781   4.084
12025TIP3    H136020   4.841   5.837   4.087
12025TIP3    H236021   4.690   5.842   4.086
12026TIP3   OH236022   2.126   1.940   0.919
12026TIP3    H136023   2.138   1.936   1.014
12026TIP3    H236024   2.042   1.896   0.904
12027TIP3   OH236025   0.715   0.627   4.152
12027TIP3    H136026   0.789   0.581   4.192
12027TIP3    H236027   0.751   0.712   4.128
12028TIP3   OH236028   7.750   2.264   2.060
12028TIP3    H136029   7.790   2.196   2.114
12028TIP3    H236030   7.661   2.272   2.093
12029TIP3   OH236031   1.508   6.916   4.921
12029TIP3    H136032   1.583   6.975   4.935
12029TIP3    H236033   1.435   6.959   4.965
12030TIP3   OH236034   2.943   0.060   6.472
12030TIP3    H136035   3.031   0.032   6.498
12030TIP3    H236036   2.892  -0.021   6.466
12031TIP3   OH236037   4.083   4.670   5.298
12031TIP3    H136038   4.141   4.740   5.266
12031TIP3    H236039   4.136   4.590   5.292
12032TIP3   OH236040   7.927   4.785   3.259
12032TIP3    H136041   7.998   4.823   3.311
12032TIP3    H236042   7.849   4.836   3.284
12033TIP3   OH236043   3.174   0.119   4.065
12033TIP3    H136044   3.119   0.161   3.999
12033TIP3    H236045   3.148   0.027   4.062
12034TIP3   OH236046   2.076   3.345   4.293
12034TIP3    H136047   2.118   3.412   4.239
12034TIP3    H236048   1.988   3.337   4.256
12035TIP3   OH236049   0.436   2.649   2.648
12035TIP3    H136050   0.526   2.681   2.637
12035TIP3    H236051   0.386   2.727   2.673
12036TIP3   OH236052   5.937   5.273   2.068
12036TIP3    H136053   5.868   5.289   2.133
12036TIP3    H236054   5.892   5.231   1.995
12037TIP3   OH236055   3.989   6.009   4.241
12037TIP3    H136056   3.970   6.034   4.332
12037TIP3    H236057   4.084   6.002   4.237
12038TIP3   OH236058   4.662   6.208   5.045
12038TIP3    H136059   4.711   6.201   5.128
12038TIP3    H236060   4.710   6.153   4.984
12039TIP3   OH236061   5.812   2.809   4.018
12039TIP3    H136062   5.739   2.863   4.047
12039TIP3    H236063   5.890   2.856   4.046
12040TIP3   OH236064   6.950   6.128   3.013
12040TIP3    H136065   7.038   6.166   3.018
12040TIP3    H236066   6.895   6.199   2.979
12041TIP3   OH236067   8.160   2.372   4.453
12041TIP3    H136068   8.222   2.302   4.474
12041TIP3    H236069   8.088   2.359   4.515
12042TIP3   OH236070   2.320   6.050   6.254
12042TIP3    H136071   2.317   6.028   6.161
12042TIP3    H236072   2.378   5.985   6.293
12043TIP3   OH236073   5.878   0.496   2.948
12043TIP3    H136074   5.793   0.505   2.993
12043TIP3    H236075   5.878   0.407   2.914
12044TIP3   OH236076   8.006   2.013   3.736
12044TIP3    H136077   8.044   2.081   3.680
12044TIP3    H236078   7.926   1.987   3.690
12045TIP3   OH236079   1.151   5.956   2.585
12045TIP3    H136080   1.080   5.918   2.636
12045TIP3    H236081   1.127   5.938   2.494
12046TIP3   OH236082   6.501   0.637   3.581
12046TIP3    H136083   6.416   0.621   3.623
12046TIP3    H236084   6.538   0.711   3.629
12047TIP3   OH236085   7.277   3.113   4.290
12047TIP3    H136086   7.185   3.133   4.274
12047TIP3    H236087   7.282   3.018   4.293
12048TIP3   OH236088   8.056   5.351   1.209
12048TIP3    H136089   8.064   5.373   1.302
12048TIP3    H236090   8.044   5.435   1.165
12049TIP3   OH236091   6.314   7.077   5.156
12049TIP3    H136092   6.308   7.080   5.060
12049TIP3    H236093   6.375   7.005   5.174
12050TIP3   OH236094   6.374   1.332   6.362
12050TIP3    H136095   6.296   1.388   6.359
12050TIP3    H236096   6.440   1.382   6.313
12051TIP3   OH236097   3.652   6.371   2.436
12051TIP3    H136098   3.635   6.278   2.423
12051TIP3    H236099   3.591   6.415   2.377
12052TIP3   OH236100   4.740   3.930   0.398
12052TIP3    H136101   4.833   3.943   0.414
12052TIP3    H236102   4.737   3.870   0.324
12053TIP3   OH236103   2.032   4.660   6.367
12053TIP3    H136104   1.971   4.718   6.322
12053TIP3    H236105   1.983   4.579   6.380
12054TIP3   OH236106   0.323   2.962   4.574
12054TIP3    H136107   0.418   2.953   4.577
12054TIP3    H236108   0.301   2.998   4.660
12055TIP3   OH236109   5.199   4.856   4.157
12055TIP3    H136110   5.246   4.784   4.199
12055TIP3    H236111   5.110   4.848   4.190
12056TIP3   OH236112   4.060   7.684   5.802
12056TIP3    H136113   4.153   7.707   5.800
12056TIP3    H236114   4.045   7.636   5.721
12057TIP3   OH236115   7.540   3.084   6.242
12057TIP3    H136116   7.595   3.162   6.252
12057TIP3    H236117   7.549   3.060   6.150
12058TIP3   OH236118   0.524   5.330   0.201
12058TIP3    H136119   0.448   5.382   0.228
12058TIP3    H236120   0.512   5.316   0.107
12059TIP3   OH236121   1.082   0.448   5.994
12059TIP3    H136122   1.093   0.366   5.947
12059TIP3    H236123   1.049   0.509   5.928
12060TIP3   OH236124   6.198   5.112   2.041
12060TIP3    H136125   6.210   5.199   2.079
12060TIP3    H236126   6.113   5.082   2.074
12061TIP3   OH236127   1.098   0.690   5.545
12061TIP3    H136128   1.147   0.727   5.472
12061TIP3    H236129   1.050   0.617   5.506
12062TIP3   OH236130   3.320   2.088   4.232
12062TIP3    H136131   3.357   2.024   4.171
12062TIP3    H236132   3.232   2.105   4.199
12063TIP3   OH236133   6.669   0.980   4.847
12063TIP3    H136134   6.637   0.899   4.807
12063TIP3    H236135   6.595   1.012   4.898
12064TIP3   OH236136   7.462   3.270   3.089
12064TIP3    H136137   7.400   3.326   3.137
12064TIP3    H236138   7.468   3.191   3.142
12065TIP3   OH236139   5.658   6.235   4.077
12065TIP3    H136140   5.713   6.229   4.155
12065TIP3    H236141   5.646   6.329   4.064
12066TIP3   OH236142   2.721   7.437   0.053
12066TIP3    H136143   2.774   7.483  -0.011
12066TIP3    H236144   2.667   7.504   0.093
12067TIP3   OH236145   3.489   4.241   5.958
12067TIP3    H136146   3.407   4.279   5.990
12067TIP3    H236147   3.545   4.317   5.941
12068TIP3   OH236148   2.168   4.733   5.148
12068TIP3    H136149   2.085   4.768   5.182
12068TIP3    H236150   2.236   4.785   5.191
12069TIP3   OH236151   8.013   2.879   0.092
12069TIP3    H136152   8.091   2.845   0.137
12069TIP3    H236153   7.941   2.862   0.154
12070TIP3   OH236154   5.837   6.283   4.288
12070TIP3    H136155   5.929   6.276   4.262
12070TIP3    H236156   5.840   6.323   4.375
12071TIP3   OH236157   0.605   7.634   3.927
12071TIP3    H136158   0.513   7.634   3.955
12071TIP3    H236159   0.654   7.657   4.006
12072TIP3   OH236160   7.326   6.287   0.381
12072TIP3    H136161   7.231   6.288   0.381
12072TIP3    H236162   7.349   6.199   0.413
12073TIP3   OH236163   3.484   4.701   1.973
12073TIP3    H136164   3.398   4.670   2.001
12073TIP3    H236165   3.537   4.700   2.053
12074TIP3   OH236166   3.977   6.328   1.042
12074TIP3    H136167   3.996   6.414   1.005
12074TIP3    H236168   4.055   6.305   1.092
12075TIP3   OH236169   3.614   3.965   5.272
12075TIP3    H136170   3.551   4.006   5.331
12075TIP3    H236171   3.699   4.001   5.299
12076TIP3   OH236172   6.397   0.404   0.249
12076TIP3    H136173   6.476   0.421   0.301
12076TIP3    H236174   6.337   0.361   0.310
12077TIP3   OH236175   5.046   2.072   1.031
12077TIP3    H136176   5.103   2.116   1.094
12077TIP3    H236177   5.105   2.035   0.966
12078TIP3   OH236178   5.579   5.538   4.844
12078TIP3    H136179   5.588   5.631   4.866
12078TIP3    H236180   5.572   5.537   4.748
12079TIP3   OH236181   7.530   3.414   5.156
12079TIP3    H136182   7.464   3.403   5.088
12079TIP3    H236183   7.494   3.479   5.216
12080TIP3   OH236184   5.043   7.399   3.195
12080TIP3    H136185   4.975   7.418   3.131
12080TIP3    H236186   5.109   7.350   3.146
12081TIP3   OH236187   1.386   5.834   1.155
12081TIP3    H136188   1.462   5.785   1.126
12081TIP3    H236189   1.327   5.768   1.191
12082TIP3   OH236190   1.363   3.925   2.838
12082TIP3    H136191   1.434   3.921   2.774
12082TIP3    H236192   1.402   3.967   2.915
12083TIP3   OH236193   6.314   1.917   1.588
12083TIP3    H136194   6.321   1.857   1.514
12083TIP3    H236195   6.367   1.992   1.563
12084TIP3   OH236196   2.138   3.514   4.061
12084TIP3    H136197   2.220   3.553   4.032
12084TIP3    H236198   2.078   3.587   4.074
12085TIP3   OH236199   4.518   2.522   6.091
12085TIP3    H136200   4.494   2.430   6.101
12085TIP3    H236201   4.488   2.563   6.172
12086TIP3   OH236202   2.632   4.280   5.376
12086TIP3    H136203   2.582   4.326   5.444
12086TIP3    H236204   2.723   4.297   5.397
12087TIP3   OH236205   5.113   1.798   6.089
12087TIP3    H136206   5.105   1.846   6.171
12087TIP3    H236207   5.048   1.837   6.031
12088TIP3   OH236208   6.160   3.383   1.326
12088TIP3    H136209   6.098   3.355   1.393
12088TIP3    H236210   6.243   3.341   1.350
12089TIP3   OH236211   7.170   4.435   2.771
12089TIP3    H136212   7.235   4.402   2.709
12089TIP3    H236213   7.098   4.466   2.715
12090TIP3   OH236214   6.070   1.691   1.581
12090TIP3    H136215   6.108   1.713   1.497
12090TIP3    H236216   6.124   1.619   1.615
12091TIP3   OH236217   2.341   3.898   6.418
12091TIP3    H136218   2.382   3.933   6.497
12091TIP3    H236219   2.415   3.877   6.360
12092TIP3   OH236220   2.646   1.487   0.683
12092TIP3    H136221   2.568   1.530   0.720
12092TIP3    H236222   2.683   1.437   0.756
12093TIP3   OH236223   0.152   1.271   4.137
12093TIP3    H136224   0.161   1.296   4.045
12093TIP3    H236225   0.128   1.352   4.182
12094TIP3   OH236226   4.415   6.717   4.659
12094TIP3    H136227   4.416   6.743   4.567
12094TIP3    H236228   4.475   6.642   4.664
12095TIP3   OH236229   1.214   2.257   3.781
12095TIP3    H136230   1.241   2.267   3.872
12095TIP3    H236231   1.128   2.299   3.777
12096TIP3   OH236232   3.455   5.660   0.229
12096TIP3    H136233   3.521   5.703   0.284
12096TIP3    H236234   3.499   5.581   0.198
12097TIP3   OH236235   2.618   6.356   3.074
12097TIP3    H136236   2.530   6.322   3.091
12097TIP3    H236237   2.668   6.334   3.153
12098TIP3   OH236238   5.418   2.281   6.645
12098TIP3    H136239   5.427   2.244   6.733
12098TIP3    H236240   5.410   2.375   6.659
12099TIP3   OH236241   6.589   7.680   0.041
12099TIP3    H136242   6.531   7.613   0.005
12099TIP3    H236243   6.532   7.756   0.055
12100TIP3   OH236244   6.770   4.209   5.479
12100TIP3    H136245   6.750   4.128   5.527
12100TIP3    H236246   6.732   4.196   5.392
12101TIP3   OH236247   7.721   0.439   5.477
12101TIP3    H136248   7.806   0.421   5.518
12101TIP3    H236249   7.658   0.389   5.529
12102TIP3   OH236250   1.129   6.840   3.067
12102TIP3    H136251   1.051   6.806   3.111
12102TIP3    H236252   1.165   6.765   3.021
12103TIP3   OH236253   0.820   3.290   0.725
12103TIP3    H136254   0.863   3.353   0.666
12103TIP3    H236255   0.886   3.271   0.792
12104TIP3   OH236256   2.913   5.178   5.867
12104TIP3    H136257   2.896   5.222   5.784
12104TIP3    H236258   2.926   5.249   5.930
12105TIP3   OH236259   6.552   2.663   1.453
12105TIP3    H136260   6.645   2.682   1.468
12105TIP3    H236261   6.552   2.588   1.394
12106TIP3   OH236262   7.732   6.669   4.340
12106TIP3    H136263   7.793   6.613   4.388
12106TIP3    H236264   7.685   6.717   4.408
12107TIP3   OH236265   1.123   2.179   1.097
12107TIP3    H136266   1.200   2.140   1.057
12107TIP3    H236267   1.156   2.257   1.142
12108TIP3   OH236268   3.490   5.102   2.781
12108TIP3    H136269   3.545   5.147   2.845
12108TIP3    H236270   3.430   5.170   2.749
12109TIP3   OH236271   6.957   2.437   1.550
12109TIP3    H136272   7.025   2.384   1.508
12109TIP3    H236273   6.922   2.380   1.619
12110TIP3   OH236274   2.082   3.221   5.362
12110TIP3    H136275   2.034   3.171   5.428
12110TIP3    H236276   2.168   3.237   5.402
12111TIP3   OH236277   0.262   2.602  -0.009
12111TIP3    H136278   0.331   2.610   0.058
12111TIP3    H236279   0.282   2.520  -0.054
12112TIP3   OH236280   4.305   7.808   1.850
12112TIP3    H136281   4.282   7.715   1.853
12112TIP3    H236282   4.396   7.809   1.820
12113TIP3   OH236283   5.990   7.311   3.251
12113TIP3    H136284   6.054   7.308   3.321
12113TIP3    H236285   5.949   7.225   3.252
12114TIP3   OH236286   8.054   7.453   1.408
12114TIP3    H136287   8.015   7.455   1.320
12114TIP3    H236288   8.147   7.469   1.394
12115TIP3   OH236289   0.155   3.878   3.831
12115TIP3    H136290   0.134   3.875   3.925
12115TIP3    H236291   0.251   3.880   3.829
12116TIP3   OH236292   2.928   5.878   1.694
12116TIP3    H136293   2.874   5.803   1.668
12116TIP3    H236294   2.991   5.887   1.622
12117TIP3   OH236295   0.127   0.923   5.695
12117TIP3    H136296   0.070   0.853   5.726
12117TIP3    H236297   0.215   0.884   5.695
12118TIP3   OH236298   3.829   0.699   1.175
12118TIP3    H136299   3.830   0.629   1.110
12118TIP3    H236300   3.838   0.779   1.123
12119TIP3   OH236301   4.372   2.075   6.073
12119TIP3    H136302   4.381   2.170   6.087
12119TIP3    H236303   4.367   2.066   5.977
12120TIP3   OH236304   5.800   1.404   0.956
12120TIP3    H136305   5.840   1.383   0.872
12120TIP3    H236306   5.874   1.410   1.017
12121TIP3   OH236307   6.110   2.401   3.940
12121TIP3    H136308   6.094   2.383   3.848
12121TIP3    H236309   6.023   2.419   3.976
12122TIP3   OH236310   0.414   7.044   3.747
12122TIP3    H136311   0.439   7.099   3.821
12122TIP3    H236312   0.319   7.034   3.756
12123TIP3   OH236313   1.926   2.358   2.603
12123TIP3    H136314   1.936   2.343   2.509
12123TIP3    H236315   1.872   2.285   2.634
12124TIP3   OH236316   7.575   2.612   1.913
12124TIP3    H136317   7.656   2.564   1.931
12124TIP3    H236318   7.510   2.545   1.897
12125TIP3   OH236319   5.590   1.399   3.777
12125TIP3    H136320   5.667   1.342   3.774
12125TIP3    H236321   5.531   1.357   3.839
12126TIP3   OH236322   4.777   1.183   5.660
12126TIP3    H136323   4.683   1.168   5.669
12126TIP3    H236324   4.815   1.095   5.651
12127TIP3   OH236325   2.456   3.437   3.904
12127TIP3    H136326   2.437   3.492   3.828
12127TIP3    H236327   2.463   3.498   3.977
12128TIP3   OH236328   1.768   1.181   3.356
12128TIP3    H136329   1.856   1.144   3.364
12128TIP3    H236330   1.727   1.131   3.286
12129TIP3   OH236331   7.111   7.018   5.972
12129TIP3    H136332   7.050   7.041   6.042
12129TIP3    H236333   7.197   7.017   6.013
12130TIP3   OH236334   3.878   4.121   3.553
12130TIP3    H136335   3.879   4.025   3.560
12130TIP3    H236336   3.785   4.144   3.557
12131TIP3   OH236337   5.258   2.961   2.763
12131TIP3    H136338   5.261   3.055   2.780
12131TIP3    H236339   5.332   2.945   2.703
12132TIP3   OH236340   5.076   2.123   1.487
12132TIP3    H136341   5.015   2.197   1.485
12132TIP3    H236342   5.155   2.158   1.526
12133TIP3   OH236343   2.326   5.021   2.732
12133TIP3    H136344   2.243   5.064   2.754
12133TIP3    H236345   2.376   5.020   2.813
12134TIP3   OH236346   3.116   4.659   4.353
12134TIP3    H136347   3.191   4.716   4.367
12134TIP3    H236348   3.150   4.570   4.362
12135TIP3   OH236349   2.221   7.543   5.151
12135TIP3    H136350   2.258   7.509   5.069
12135TIP3    H236351   2.295   7.588   5.193
12136TIP3   OH236352   1.078   4.956   5.137
12136TIP3    H136353   1.133   5.016   5.188
12136TIP3    H236354   1.014   5.013   5.095
12137TIP3   OH236355   4.985   7.182   2.878
12137TIP3    H136356   5.075   7.165   2.849
12137TIP3    H236357   4.934   7.112   2.840
12138TIP3   OH236358   3.747   0.979   3.093
12138TIP3    H136359   3.811   0.961   3.025
12138TIP3    H236360   3.780   0.931   3.170
12139TIP3   OH236361   0.686   4.287   5.696
12139TIP3    H136362   0.749   4.229   5.653
12139TIP3    H236363   0.630   4.229   5.748
12140TIP3   OH236364   2.107   5.903   2.301
12140TIP3    H136365   2.104   5.987   2.254
12140TIP3    H236366   2.099   5.927   2.393
12141TIP3   OH236367   1.507   3.153   4.199
12141TIP3    H136368   1.433   3.177   4.142
12141TIP3    H236369   1.584   3.185   4.152
12142TIP3   OH236370   3.113   6.114   0.398
12142TIP3    H136371   3.079   6.154   0.478
12142TIP3    H236372   3.207   6.126   0.402
12143TIP3   OH236373   7.108   6.943   3.010
12143TIP3    H136374   7.158   6.948   2.929
12143TIP3    H236375   7.117   6.852   3.038
12144TIP3   OH236376   3.554   4.483   0.293
12144TIP3    H136377   3.589   4.469   0.381
12144TIP3    H236378   3.463   4.453   0.298
12145TIP3   OH236379   5.251   3.202   3.880
12145TIP3    H136380   5.318   3.167   3.821
12145TIP3    H236381   5.183   3.236   3.823
12146TIP3   OH236382   2.585   3.439   0.499
12146TIP3    H136383   2.533   3.488   0.562
12146TIP3    H236384   2.676   3.459   0.522
12147TIP3   OH236385   3.586   2.371   2.226
12147TIP3    H136386   3.504   2.339   2.187
12147TIP3    H236387   3.655   2.319   2.185
12148TIP3   OH236388   0.053   4.346   0.838
12148TIP3    H136389  -0.009   4.368   0.769
12148TIP3    H236390   0.125   4.408   0.827
12149TIP3   OH236391   7.417   5.000   2.640
12149TIP3    H136392   7.458   4.999   2.553
12149TIP3    H236393   7.469   5.064   2.689
12150TIP3   OH236394   6.590   3.277   1.988
12150TIP3    H136395   6.576   3.249   1.897
12150TIP3    H236396   6.683   3.260   2.003
12151TIP3   OH236397   4.169   1.453   5.589
12151TIP3    H136398   4.202   1.497   5.511
12151TIP3    H236399   4.075   1.469   5.587
12152TIP3   OH236400   0.647   5.253   5.578
12152TIP3    H136401   0.603   5.263   5.494
12152TIP3    H236402   0.579   5.222   5.637
12153TIP3   OH236403   6.213   6.391   2.042
12153TIP3    H136404   6.139   6.405   2.100
12153TIP3    H236405   6.196   6.447   1.967
12154TIP3   OH236406   7.614   5.941   6.536
12154TIP3    H136407   7.599   5.928   6.442
12154TIP3    H236408   7.698   5.898   6.553
12155TIP3   OH236409   7.926   0.319   2.835
12155TIP3    H136410   7.936   0.225   2.819
12155TIP3    H236411   7.900   0.326   2.926
12156TIP3   OH236412   1.442   4.959   6.700
12156TIP3    H136413   1.402   4.893   6.644
12156TIP3    H236414   1.479   4.909   6.773
12157TIP3   OH236415   8.148   5.884   5.917
12157TIP3    H136416   8.125   5.809   5.972
12157TIP3    H236417   8.192   5.845   5.841
12158TIP3   OH236418   5.710   6.360   6.101
12158TIP3    H136419   5.790   6.377   6.052
12158TIP3    H236420   5.675   6.447   6.121
12159TIP3   OH236421   4.386   4.685   6.174
12159TIP3    H136422   4.315   4.636   6.133
12159TIP3    H236423   4.407   4.635   6.253
12160TIP3   OH236424   1.797   7.208   1.194
12160TIP3    H136425   1.886   7.242   1.210
12160TIP3    H236426   1.793   7.126   1.242
12161TIP3   OH236427   2.766   1.897   4.751
12161TIP3    H136428   2.855   1.930   4.742
12161TIP3    H236429   2.770   1.806   4.722
12162TIP3   OH236430   5.636   5.134   6.006
12162TIP3    H136431   5.695   5.064   6.034
12162TIP3    H236432   5.561   5.088   5.967
12163TIP3   OH236433   4.533   3.748   5.201
12163TIP3    H136434   4.559   3.684   5.268
12163TIP3    H236435   4.468   3.803   5.244
12164TIP3   OH236436   5.959   1.681   5.340
12164TIP3    H136437   5.982   1.713   5.253
12164TIP3    H236438   6.028   1.714   5.398
12165TIP3   OH236439   7.722   7.504   2.080
12165TIP3    H136440   7.763   7.497   1.994
12165TIP3    H236441   7.634   7.469   2.067
12166TIP3   OH236442   4.229   5.443   0.322
12166TIP3    H136443   4.301   5.417   0.264
12166TIP3    H236444   4.273   5.482   0.398
12167TIP3   OH236445   1.865   4.298   3.165
12167TIP3    H136446   1.923   4.309   3.089
12167TIP3    H236447   1.877   4.378   3.216
12168TIP3   OH236448   0.474   2.180   4.421
12168TIP3    H136449   0.435   2.108   4.372
12168TIP3    H236450   0.467   2.256   4.364
12169TIP3   OH236451   1.071   5.484   1.530
12169TIP3    H136452   1.153   5.496   1.483
12169TIP3    H236453   1.023   5.565   1.516
12170TIP3   OH236454   6.575   0.977   0.898
12170TIP3    H136455   6.485   0.949   0.880
12170TIP3    H236456   6.576   0.999   0.991
12171TIP3   OH236457   6.307   4.827   4.411
12171TIP3    H136458   6.381   4.779   4.447
12171TIP3    H236459   6.235   4.764   4.411
12172TIP3   OH236460   2.297   2.001   2.236
12172TIP3    H136461   2.264   1.912   2.250
12172TIP3    H236462   2.229   2.043   2.183
12173TIP3   OH236463   0.654   2.384   0.461
12173TIP3    H136464   0.672   2.406   0.370
12173TIP3    H236465   0.614   2.463   0.498
12174TIP3   OH236466   6.935   5.194   2.570
12174TIP3    H136467   6.858   5.171   2.518
12174TIP3    H236468   6.966   5.277   2.532
12175TIP3   OH236469   5.766   6.341   5.114
12175TIP3    H136470   5.819   6.408   5.158
12175TIP3    H236471   5.714   6.302   5.183
12176TIP3   OH236472   4.664   1.916   3.620
12176TIP3    H136473   4.630   1.994   3.576
12176TIP3    H236474   4.603   1.847   3.595
12177TIP3   OH236475   8.074   2.027   1.949
12177TIP3    H136476   8.016   1.963   1.908
12177TIP3    H236477   8.155   1.979   1.966
12178TIP3   OH236478   6.058   3.303   5.275
12178TIP3    H136479   6.110   3.383   5.280
12178TIP3    H236480   6.116   3.234   5.305
12179TIP3   OH236481   8.159   0.297   5.756
12179TIP3    H136482   8.087   0.328   5.812
12179TIP3    H236483   8.238   0.335   5.795
12180TIP3   OH236484   6.362   1.283   4.088
12180TIP3    H136485   6.325   1.219   4.148
12180TIP3    H236486   6.446   1.246   4.062
12181TIP3   OH236487   6.363   0.022   3.159
12181TIP3    H136488   6.364   0.039   3.253
12181TIP3    H236489   6.273  -0.005   3.140
12182TIP3   OH236490   7.516   5.995   1.962
12182TIP3    H136491   7.533   5.950   2.045
12182TIP3    H236492   7.501   5.924   1.899
12183TIP3   OH236493   3.009   7.423   1.424
12183TIP3    H136494   3.073   7.481   1.464
12183TIP3    H236495   3.045   7.335   1.434
12184TIP3   OH236496   6.789   5.382   5.575
12184TIP3    H136497   6.884   5.375   5.571
12184TIP3    H236498   6.756   5.298   5.544
12185TIP3   OH236499   0.784   7.309   2.885
12185TIP3    H136500   0.771   7.285   2.794
12185TIP3    H236501   0.712   7.265   2.932
12186TIP3   OH236502   7.038   3.079   4.753
12186TIP3    H136503   7.044   3.142   4.680
12186TIP3    H236504   7.028   3.134   4.831
12187TIP3   OH236505   3.835   6.929   0.519
12187TIP3    H136506   3.822   6.966   0.607
12187TIP3    H236507   3.863   6.839   0.536
12188TIP3   OH236508   4.273   6.436   1.413
12188TIP3    H136509   4.319   6.352   1.402
12188TIP3    H236510   4.303   6.468   1.498
12189TIP3   OH236511   6.360   5.402   3.322
12189TIP3    H136512   6.367   5.447   3.238
12189TIP3    H236513   6.434   5.342   3.324
12190TIP3   OH236514   5.467   2.533   1.593
12190TIP3    H136515   5.412   2.608   1.572
12190TIP3    H236516   5.494   2.498   1.508
12191TIP3   OH236517   6.796   1.586   2.144
12191TIP3    H136518   6.825   1.676   2.126
12191TIP3    H236519   6.710   1.596   2.184
12192TIP3   OH236520   5.224   0.433   3.989
12192TIP3    H136521   5.177   0.391   4.061
12192TIP3    H236522   5.161   0.435   3.917
12193TIP3   OH236523   5.817   3.820   5.273
12193TIP3    H136524   5.731   3.830   5.314
12193TIP3    H236525   5.872   3.783   5.342
12194TIP3   OH236526   2.916   1.435   4.897
12194TIP3    H136527   2.822   1.425   4.913
12194TIP3    H236528   2.935   1.370   4.829
12195TIP3   OH236529   4.487   4.485   0.739
12195TIP3    H136530   4.512   4.466   0.648
12195TIP3    H236531   4.545   4.557   0.764
12196TIP3   OH236532   7.502   0.092   1.535
12196TIP3    H136533   7.522   0.003   1.507
12196TIP3    H236534   7.588   0.134   1.542
12197TIP3   OH236535   6.199   3.342   4.392
12197TIP3    H136536   6.181   3.381   4.478
12197TIP3    H236537   6.152   3.398   4.330
12198TIP3   OH236538   0.873   6.982   0.380
12198TIP3    H136539   0.819   6.912   0.342
12198TIP3    H236540   0.938   7.002   0.313
12199TIP3   OH236541   5.944   6.297   1.534
12199TIP3    H136542   5.867   6.338   1.573
12199TIP3    H236543   5.987   6.367   1.486
12200TIP3   OH236544   4.183   3.942   4.314
12200TIP3    H136545   4.275   3.925   4.336
12200TIP3    H236546   4.180   3.941   4.219
12201TIP3   OH236547   5.160   3.939   2.091
12201TIP3    H136548   5.139   4.003   2.158
12201TIP3    H236549   5.190   3.862   2.140
12202TIP3   OH236550   7.011   3.785   2.657
12202TIP3    H136551   7.093   3.801   2.702
12202TIP3    H236552   7.028   3.709   2.601
12203TIP3   OH236553   7.286   4.182   2.239
12203TIP3    H136554   7.207   4.193   2.292
12203TIP3    H236555   7.321   4.270   2.229
12204TIP3   OH236556   6.112   5.745   1.707
12204TIP3    H136557   6.044   5.753   1.774
12204TIP3    H236558   6.194   5.738   1.756
12205TIP3   OH236559   7.804   4.565   6.162
12205TIP3    H136560   7.742   4.500   6.196
12205TIP3    H236561   7.840   4.525   6.083
12206TIP3   OH236562   4.592   1.188   2.331
12206TIP3    H136563   4.545   1.250   2.275
12206TIP3    H236564   4.528   1.120   2.352
12207TIP3   OH236565   7.266   7.524   3.143
12207TIP3    H136566   7.263   7.619   3.156
12207TIP3    H236567   7.226   7.510   3.057
12208TIP3   OH236568   1.384   1.389   1.024
12208TIP3    H136569   1.476   1.414   1.035
12208TIP3    H236570   1.336   1.471   1.036
12209TIP3   OH236571   0.808   7.540   5.617
12209TIP3    H136572   0.760   7.623   5.623
12209TIP3    H236573   0.773   7.488   5.689
12210TIP3   OH236574   7.263   5.449   2.014
12210TIP3    H136575   7.248   5.356   2.030
12210TIP3    H236576   7.197   5.473   1.949
12211TIP3   OH236577   5.054   2.115   4.949
12211TIP3    H136578   5.040   2.027   4.914
12211TIP3    H236579   5.088   2.100   5.037
12212TIP3   OH236580   3.573   5.875   2.787
12212TIP3    H136581   3.599   5.957   2.744
12212TIP3    H236582   3.607   5.806   2.730
12213TIP3   OH236583   7.072   0.567   4.382
12213TIP3    H136584   7.009   0.614   4.326
12213TIP3    H236585   7.083   0.624   4.458
12214TIP3   OH236586   0.155   5.622   1.918
12214TIP3    H136587   0.226   5.624   1.854
12214TIP3    H236588   0.198   5.641   2.002
12215TIP3   OH236589   5.957   5.770   1.941
12215TIP3    H136590   5.871   5.734   1.963
12215TIP3    H236591   5.939   5.860   1.914
12216TIP3   OH236592   2.221   3.099   2.498
12216TIP3    H136593   2.286   3.125   2.434
12216TIP3    H236594   2.151   3.058   2.447
12217TIP3   OH236595   3.299   0.775   3.369
12217TIP3    H136596   3.250   0.829   3.431
12217TIP3    H236597   3.288   0.685   3.402
12218TIP3   OH236598   4.310   2.635   5.334
12218TIP3    H136599   4.216   2.634   5.317
12218TIP3    H236600   4.321   2.704   5.399
12219TIP3   OH236601   0.521   3.076   3.110
12219TIP3    H136602   0.514   3.011   3.040
12219TIP3    H236603   0.585   3.139   3.078
12220TIP3   OH236604   0.067   3.974   6.013
12220TIP3    H136605   0.106   4.034   6.077
12220TIP3    H236606   0.000   4.026   5.969
12221TIP3   OH236607   6.552   0.093   4.306
12221TIP3    H136608   6.522   0.052   4.388
12221TIP3    H236609   6.623   0.036   4.276
12222TIP3   OH236610   4.707   5.462   1.036
12222TIP3    H136611   4.662   5.378   1.047
12222TIP3    H236612   4.800   5.439   1.027
12223TIP3   OH236613   1.995   2.113   4.193
12223TIP3    H136614   2.091   2.117   4.203
12223TIP3    H236615   1.965   2.201   4.217
12224TIP3   OH236616   1.662   2.447   4.076
12224TIP3    H136617   1.692   2.523   4.028
12224TIP3    H236618   1.676   2.373   4.016
12225TIP3   OH236619   7.881   4.246   3.611
12225TIP3    H136620   7.903   4.336   3.589
12225TIP3    H236621   7.833   4.213   3.535
12226TIP3   OH236622   6.132   2.279   1.847
12226TIP3    H136623   6.084   2.197   1.859
12226TIP3    H236624   6.158   2.280   1.755
12227TIP3   OH236625   5.776   5.574   0.750
12227TIP3    H136626   5.751   5.660   0.716
12227TIP3    H236627   5.765   5.515   0.675
12228TIP3   OH236628   1.023   2.968   2.586
12228TIP3    H136629   1.073   2.910   2.643
12228TIP3    H236630   1.062   3.055   2.598
12229TIP3   OH236631   2.014   3.234   0.484
12229TIP3    H136632   2.096   3.264   0.523
12229TIP3    H236633   2.025   3.139   0.474
12230TIP3   OH236634   3.103   2.661   1.229
12230TIP3    H136635   3.098   2.576   1.273
12230TIP3    H236636   3.184   2.657   1.179
12231TIP3   OH236637   7.751   4.487   5.587
12231TIP3    H136638   7.749   4.418   5.653
12231TIP3    H236639   7.818   4.458   5.525
12232TIP3   OH236640   0.403   6.021   5.486
12232TIP3    H136641   0.342   6.074   5.434
12232TIP3    H236642   0.379   6.039   5.577
12233TIP3   OH236643   2.444   5.619   3.761
12233TIP3    H136644   2.418   5.571   3.840
12233TIP3    H236645   2.375   5.684   3.748
12234TIP3   OH236646   3.979   4.543   6.652
12234TIP3    H136647   3.919   4.494   6.709
12234TIP3    H236648   4.065   4.530   6.691
12235TIP3   OH236649   4.579   5.173   5.121
12235TIP3    H136650   4.518   5.103   5.146
12235TIP3    H236651   4.564   5.185   5.027
12236TIP3   OH236652   0.250   3.429   2.502
12236TIP3    H136653   0.243   3.421   2.597
12236TIP3    H236654   0.204   3.352   2.468
12237TIP3   OH236655   7.290   0.856   4.478
12237TIP3    H136656   7.271   0.839   4.386
12237TIP3    H236657   7.219   0.812   4.526
12238TIP3   OH236658   7.418   3.327   4.164
12238TIP3    H136659   7.358   3.258   4.135
12238TIP3    H236660   7.362   3.392   4.205
12239TIP3   OH236661   7.767   4.039   6.551
12239TIP3    H136662   7.729   4.008   6.633
12239TIP3    H236663   7.777   4.133   6.563
12240TIP3   OH236664   4.690   4.978   5.712
12240TIP3    H136665   4.613   4.934   5.675
12240TIP3    H236666   4.663   5.069   5.722
12241TIP3   OH236667   3.110   6.754   5.242
12241TIP3    H136668   3.030   6.720   5.281
12241TIP3    H236669   3.149   6.679   5.196
12242TIP3   OH236670   3.645   3.366   1.015
12242TIP3    H136671   3.606   3.443   1.056
12242TIP3    H236672   3.729   3.355   1.061
12243TIP3   OH236673   6.956   6.251   5.743
12243TIP3    H136674   6.969   6.329   5.797
12243TIP3    H236675   6.865   6.226   5.758
12244TIP3   OH236676   4.825   6.387   5.881
12244TIP3    H136677   4.913   6.413   5.855
12244TIP3    H236678   4.779   6.374   5.799
12245TIP3   OH236679   7.786   5.065   3.636
12245TIP3    H136680   7.841   5.141   3.651
12245TIP3    H236681   7.740   5.051   3.719
12246TIP3   OH236682   7.164   5.046   4.832
12246TIP3    H136683   7.163   4.950   4.834
12246TIP3    H236684   7.113   5.072   4.909
12247TIP3   OH236685   5.970   0.658   1.277
12247TIP3    H136686   6.060   0.674   1.304
12247TIP3    H236687   5.973   0.654   1.182
12248TIP3   OH236688   6.816   0.282   1.023
12248TIP3    H136689   6.785   0.280   1.113
12248TIP3    H236690   6.744   0.320   0.973
12249TIP3   OH236691   2.210   3.406   6.408
12249TIP3    H136692   2.194   3.456   6.488
12249TIP3    H236693   2.174   3.320   6.426
12250TIP3   OH236694   2.990   7.721   0.860
12250TIP3    H136695   2.998   7.786   0.790
12250TIP3    H236696   3.080   7.701   0.885
12251TIP3   OH236697   7.162   1.400   0.733
12251TIP3    H136698   7.086   1.350   0.762
12251TIP3    H236699   7.137   1.491   0.750
12252TIP3   OH236700   4.566   0.676   2.041
12252TIP3    H136701   4.611   0.759   2.058
12252TIP3    H236702   4.549   0.639   2.128
12253TIP3   OH236703   2.647   4.511   2.651
12253TIP3    H136704   2.634   4.522   2.745
12253TIP3    H236705   2.611   4.590   2.612
12254TIP3   OH236706   6.056   2.218   1.058
12254TIP3    H136707   5.971   2.261   1.064
12254TIP3    H236708   6.106   2.271   0.996
12255TIP3   OH236709   4.425   5.529   1.536
12255TIP3    H136710   4.399   5.565   1.451
12255TIP3    H236711   4.405   5.435   1.529
12256TIP3   OH236712   5.465   5.659   0.136
12256TIP3    H136713   5.382   5.612   0.131
12256TIP3    H236714   5.446   5.738   0.186
12257TIP3   OH236715   8.147   0.922   5.801
12257TIP3    H136716   8.083   0.866   5.755
12257TIP3    H236717   8.168   0.873   5.881
12258TIP3   OH236718   4.963   6.043   3.857
12258TIP3    H136719   4.964   5.950   3.837
12258TIP3    H236720   4.906   6.082   3.791
12259TIP3   OH236721   4.719   7.049   4.972
12259TIP3    H136722   4.691   7.118   4.912
12259TIP3    H236723   4.637   7.009   5.003
12260TIP3   OH236724   7.013   0.998   1.075
12260TIP3    H136725   7.108   0.987   1.077
12260TIP3    H236726   6.978   0.913   1.103
12261TIP3   OH236727   3.557   6.993   0.649
12261TIP3    H136728   3.516   7.046   0.717
12261TIP3    H236729   3.638   7.040   0.628
12262TIP3   OH236730   2.770   2.393   0.884
12262TIP3    H136731   2.857   2.418   0.851
12262TIP3    H236732   2.777   2.402   0.979
12263TIP3   OH236733   4.953   3.128   1.867
12263TIP3    H136734   4.913   3.066   1.927
12263TIP3    H236735   5.042   3.140   1.902
12264TIP3   OH236736   3.884   4.604   5.149
12264TIP3    H136737   3.953   4.623   5.212
12264TIP3    H236738   3.880   4.509   5.145
12265TIP3   OH236739   5.228   6.407   3.721
12265TIP3    H136740   5.250   6.314   3.723
12265TIP3    H236741   5.237   6.436   3.812
12266TIP3   OH236742   3.312   7.287   4.169
12266TIP3    H136743   3.287   7.237   4.247
12266TIP3    H236744   3.246   7.264   4.104
12267TIP3   OH236745   2.415   4.281   0.487
12267TIP3    H136746   2.436   4.286   0.580
12267TIP3    H236747   2.433   4.189   0.464
12268TIP3   OH236748   3.078   0.197   3.111
12268TIP3    H136749   3.020   0.274   3.111
12268TIP3    H236750   3.020   0.124   3.088
12269TIP3   OH236751   5.836   2.927   3.007
12269TIP3    H136752   5.875   2.843   2.982
12269TIP3    H236753   5.874   2.947   3.093
12270TIP3   OH236754   7.572   5.599   0.660
12270TIP3    H136755   7.560   5.666   0.593
12270TIP3    H236756   7.659   5.563   0.643
12271TIP3   OH236757   0.490   3.820   4.274
12271TIP3    H136758   0.455   3.736   4.304
12271TIP3    H236759   0.412   3.872   4.251
12272TIP3   OH236760   6.979   7.801   3.890
12272TIP3    H136761   6.926   7.829   3.964
12272TIP3    H236762   6.953   7.710   3.874
12273TIP3   OH236763   2.792   4.262   6.649
12273TIP3    H136764   2.818   4.178   6.612
12273TIP3    H236765   2.839   4.269   6.732
12274TIP3   OH236766   5.399   0.041   5.257
12274TIP3    H136767   5.442   0.077   5.334
12274TIP3    H236768   5.470   0.023   5.196
12275TIP3   OH236769   5.366   0.754   5.745
12275TIP3    H136770   5.304   0.763   5.817
12275TIP3    H236771   5.394   0.844   5.727
12276TIP3   OH236772   3.297   0.010   4.458
12276TIP3    H136773   3.214   0.000   4.503
12276TIP3    H236774   3.345  -0.071   4.477
12277TIP3   OH236775   2.549   4.439   5.600
12277TIP3    H136776   2.464   4.481   5.588
12277TIP3    H236777   2.529   4.350   5.629
12278TIP3   OH236778   3.604   6.977   3.188
12278TIP3    H136779   3.540   6.919   3.146
12278TIP3    H236780   3.574   7.065   3.166
12279TIP3   OH236781   2.245   3.130   6.738
12279TIP3    H136782   2.154   3.158   6.745
12279TIP3    H236783   2.244   3.038   6.764
12280TIP3   OH236784   8.329   5.060   4.998
12280TIP3    H136785   8.339   5.153   5.020
12280TIP3    H236786   8.235   5.048   4.986
12281TIP3   OH236787   0.121   1.853   1.759
12281TIP3    H136788   0.093   1.830   1.847
12281TIP3    H236789   0.212   1.824   1.753
12282TIP3   OH236790   6.069   4.979   2.804
12282TIP3    H136791   6.090   4.938   2.720
12282TIP3    H236792   6.046   4.905   2.861
12283TIP3   OH236793   3.667   3.750   1.303
12283TIP3    H136794   3.613   3.826   1.327
12283TIP3    H236795   3.695   3.713   1.387
12284TIP3   OH236796   5.120   0.679   2.252
12284TIP3    H136797   5.141   0.662   2.344
12284TIP3    H236798   5.084   0.768   2.251
12285TIP3   OH236799   5.930   5.402   6.395
12285TIP3    H136800   5.940   5.375   6.303
12285TIP3    H236801   5.853   5.459   6.395
12286TIP3   OH236802   7.558   4.780   4.812
12286TIP3    H136803   7.526   4.866   4.839
12286TIP3    H236804   7.528   4.771   4.721
12287TIP3   OH236805   3.560   2.563   1.969
12287TIP3    H136806   3.618   2.488   1.985
12287TIP3    H236807   3.616   2.639   1.982
12288TIP3   OH236808   3.131   3.709   3.178
12288TIP3    H136809   3.119   3.768   3.104
12288TIP3    H236810   3.212   3.738   3.220
12289TIP3   OH236811   3.235   3.950   1.189
12289TIP3    H136812   3.191   3.866   1.174
12289TIP3    H236813   3.315   3.928   1.236
12290TIP3   OH236814   2.227   5.051   1.678
12290TIP3    H136815   2.206   5.139   1.710
12290TIP3    H236816   2.171   5.041   1.600
12291TIP3   OH236817   4.938   4.332   2.005
12291TIP3    H136818   5.007   4.267   2.013
12291TIP3    H236819   4.938   4.356   1.912
12292TIP3   OH236820   7.050   2.912   0.716
12292TIP3    H136821   7.016   3.001   0.725
12292TIP3    H236822   7.084   2.891   0.803
12293TIP3   OH236823   4.643   4.854   2.624
12293TIP3    H136824   4.624   4.941   2.660
12293TIP3    H236825   4.565   4.803   2.642
12294TIP3   OH236826   4.315   2.962   6.460
12294TIP3    H136827   4.406   2.942   6.484
12294TIP3    H236828   4.320   2.991   6.369
12295TIP3   OH236829   4.284   4.065   0.253
12295TIP3    H136830   4.291   4.152   0.292
12295TIP3    H236831   4.258   4.008   0.326
12296TIP3   OH236832   5.901   1.660   3.841
12296TIP3    H136833   5.834   1.621   3.898
12296TIP3    H236834   5.914   1.748   3.876
12297TIP3   OH236835   4.486   5.374   3.718
12297TIP3    H136836   4.525   5.451   3.677
12297TIP3    H236837   4.513   5.380   3.810
12298TIP3   OH236838   3.993   4.809   4.095
12298TIP3    H136839   4.063   4.827   4.031
12298TIP3    H236840   3.936   4.885   4.090
12299TIP3   OH236841   6.419   0.342   1.509
12299TIP3    H136842   6.449   0.414   1.565
12299TIP3    H236843   6.341   0.309   1.553
12300TIP3   OH236844   4.405   4.818   4.109
12300TIP3    H136845   4.357   4.769   4.042
12300TIP3    H236846   4.338   4.849   4.169
12301TIP3   OH236847   7.730   4.683   1.261
12301TIP3    H136848   7.751   4.617   1.195
12301TIP3    H236849   7.777   4.762   1.232
12302TIP3   OH236850   2.749   4.629   1.459
12302TIP3    H136851   2.784   4.556   1.409
12302TIP3    H236852   2.822   4.658   1.514
12303TIP3   OH236853   3.649   4.886   5.714
12303TIP3    H136854   3.688   4.799   5.716
12303TIP3    H236855   3.675   4.922   5.629
12304TIP3   OH236856   0.583   5.716   0.967
12304TIP3    H136857   0.660   5.759   0.929
12304TIP3    H236858   0.539   5.785   1.016
12305TIP3   OH236859   1.600   2.215   3.393
12305TIP3    H136860   1.554   2.295   3.416
12305TIP3    H236861   1.662   2.241   3.325
12306TIP3   OH236862   4.714   3.402   1.580
12306TIP3    H136863   4.797   3.361   1.605
12306TIP3    H236864   4.729   3.435   1.491
12307TIP3   OH236865   8.174   5.851   4.352
12307TIP3    H136866   8.158   5.944   4.368
12307TIP3    H236867   8.269   5.843   4.346
12308TIP3   OH236868   0.899   2.470   4.693
12308TIP3    H136869   0.855   2.483   4.609
12308TIP3    H236870   0.891   2.554   4.738
12309TIP3   OH236871   5.385   1.297   2.370
12309TIP3    H136872   5.430   1.258   2.444
12309TIP3    H236873   5.434   1.267   2.293
12310TIP3   OH236874   6.644   7.775   3.983
12310TIP3    H136875   6.552   7.780   4.007
12310TIP3    H236876   6.663   7.860   3.943
12311TIP3   OH236877   1.663   5.117   6.575
12311TIP3    H136878   1.582   5.132   6.624
12311TIP3    H236879   1.696   5.033   6.607
12312TIP3   OH236880   0.049   0.582   5.709
12312TIP3    H136881   0.022   0.532   5.786
12312TIP3    H236882   0.122   0.532   5.673
12313TIP3   OH236883   2.567   1.528   1.221
12313TIP3    H136884   2.587   1.514   1.313
12313TIP3    H236885   2.472   1.525   1.216
12314TIP3   OH236886   1.169   6.977   4.144
12314TIP3    H136887   1.265   6.970   4.144
12314TIP3    H236888   1.148   7.019   4.227
12315TIP3   OH236889   4.985   0.086   1.424
12315TIP3    H136890   5.064   0.097   1.478
12315TIP3    H236891   5.001   0.006   1.373
12316TIP3   OH236892   0.003   7.044   2.665
12316TIP3    H136893   0.076   7.032   2.726
12316TIP3    H236894   0.044   7.048   2.579
12317TIP3   OH236895   0.321   3.920   6.321
12317TIP3    H136896   0.402   3.897   6.366
12317TIP3    H236897   0.280   3.835   6.302
12318TIP3   OH236898   4.082   6.773   0.302
12318TIP3    H136899   3.995   6.755   0.337
12318TIP3    H236900   4.112   6.850   0.350
12319TIP3   OH236901   5.682   5.648   6.225
12319TIP3    H136902   5.685   5.738   6.258
12319TIP3    H236903   5.719   5.595   6.296
12320TIP3   OH236904   6.366   4.614   5.347
12320TIP3    H136905   6.294   4.638   5.289
12320TIP3    H236906   6.330   4.627   5.435
12321TIP3   OH236907   2.765   0.124   3.201
12321TIP3    H136908   2.761   0.214   3.233
12321TIP3    H236909   2.680   0.086   3.223
12322TIP3   OH236910   4.432   6.979   2.674
12322TIP3    H136911   4.481   7.057   2.699
12322TIP3    H236912   4.399   6.998   2.586
12323TIP3   OH236913   5.050   4.152   6.122
12323TIP3    H136914   4.959   4.178   6.137
12323TIP3    H236915   5.047   4.105   6.039
12324TIP3   OH236916   3.016   1.135   5.116
12324TIP3    H136917   2.942   1.104   5.167
12324TIP3    H236918   3.032   1.065   5.052
12325TIP3   OH236919   6.920   7.239   2.688
12325TIP3    H136920   7.010   7.247   2.658
12325TIP3    H236921   6.873   7.201   2.614
12326TIP3   OH236922   7.204   2.749   3.440
12326TIP3    H136923   7.176   2.825   3.491
12326TIP3    H236924   7.155   2.756   3.358
12327TIP3   OH236925   7.948   3.835   3.170
12327TIP3    H136926   7.900   3.778   3.231
12327TIP3    H236927   7.906   3.820   3.085
12328TIP3   OH236928   1.409   4.944   5.751
12328TIP3    H136929   1.378   4.870   5.803
12328TIP3    H236930   1.493   4.968   5.792
12329TIP3   OH236931   3.416   3.706   5.551
12329TIP3    H136932   3.471   3.650   5.496
12329TIP3    H236933   3.328   3.696   5.514
12330TIP3   OH236934   1.345   7.805   2.904
12330TIP3    H136935   1.304   7.839   2.983
12330TIP3    H236936   1.284   7.738   2.873
12331TIP3   OH236937   7.458   2.069   0.635
12331TIP3    H136938   7.475   2.065   0.729
12331TIP3    H236939   7.484   1.983   0.602
12332TIP3   OH236940   4.859   4.013   4.941
12332TIP3    H136941   4.911   4.044   4.866
12332TIP3    H236942   4.768   4.031   4.917
12333TIP3   OH236943   6.101   7.421   5.130
12333TIP3    H136944   6.101   7.417   5.034
12333TIP3    H236945   6.061   7.505   5.151
12334TIP3   OH236946   7.550  -0.029   6.631
12334TIP3    H136947   7.616  -0.014   6.564
12334TIP3    H236948   7.468   0.002   6.592
12335TIP3   OH236949   3.618   1.554   0.975
12335TIP3    H136950   3.695   1.610   0.980
12335TIP3    H236951   3.561   1.597   0.911
12336TIP3   OH236952   7.217   4.783   0.631
12336TIP3    H136953   7.255   4.697   0.616
12336TIP3    H236954   7.147   4.790   0.566
12337TIP3   OH236955   7.827   1.792   5.485
12337TIP3    H136956   7.835   1.697   5.491
12337TIP3    H236957   7.786   1.807   5.400
12338TIP3   OH236958   0.917   0.813   3.526
12338TIP3    H136959   0.978   0.786   3.594
12338TIP3    H236960   0.871   0.888   3.563
12339TIP3   OH236961   4.120   7.245   1.193
12339TIP3    H136962   4.156   7.180   1.254
12339TIP3    H236963   4.027   7.225   1.190
12340TIP3   OH236964   4.846   2.155   2.335
12340TIP3    H136965   4.895   2.099   2.275
12340TIP3    H236966   4.821   2.098   2.407
12341TIP3   OH236967   0.244   2.672   0.648
12341TIP3    H136968   0.331   2.672   0.607
12341TIP3    H236969   0.257   2.717   0.731
12342TIP3   OH236970   4.825   5.339   4.908
12342TIP3    H136971   4.908   5.354   4.863
12342TIP3    H236972   4.849   5.300   4.991
12343TIP3   OH236973   8.167   1.339   0.194
12343TIP3    H136974   8.189   1.375   0.280
12343TIP3    H236975   8.220   1.259   0.186
12344TIP3   OH236976   1.542   0.370   0.431
12344TIP3    H136977   1.484   0.304   0.469
12344TIP3    H236978   1.559   0.431   0.503
12345TIP3   OH236979   8.193   1.501   4.315
12345TIP3    H136980   8.279   1.540   4.297
12345TIP3    H236981   8.212   1.431   4.379
12346TIP3   OH236982   0.072   6.874   0.594
12346TIP3    H136983   0.098   6.957   0.552
12346TIP3    H236984   0.104   6.806   0.535
12347TIP3   OH236985   3.572   2.574   3.729
12347TIP3    H136986   3.573   2.610   3.640
12347TIP3    H236987   3.489   2.527   3.735
12348TIP3   OH236988   5.013   7.700   1.200
12348TIP3    H136989   4.997   7.667   1.111
12348TIP3    H236990   5.108   7.703   1.207
12349TIP3   OH236991   7.993   4.405   3.878
12349TIP3    H136992   7.970   4.475   3.816
12349TIP3    H236993   7.944   4.427   3.958
12350TIP3   OH236994   3.175   4.794   2.052
12350TIP3    H136995   3.239   4.775   2.120
12350TIP3    H236996   3.114   4.856   2.093
12351TIP3   OH236997   2.569   7.638   2.353
12351TIP3    H136998   2.562   7.557   2.302
12351TIP3    H236999   2.608   7.701   2.292
12352TIP3   OH237000   3.071   7.532   3.232
12352TIP3    H137001   3.021   7.460   3.271
12352TIP3    H237002   3.085   7.504   3.141
12353TIP3   OH237003   5.360   7.704   6.497
12353TIP3    H137004   5.447   7.672   6.472
12353TIP3    H237005   5.337   7.767   6.429
12354TIP3   OH237006   7.901   3.029   2.970
12354TIP3    H137007   7.965   2.961   2.993
12354TIP3    H237008   7.840   2.985   2.911
12355TIP3   OH237009   7.513   2.432   1.597
12355TIP3    H137010   7.457   2.401   1.668
12355TIP3    H237011   7.533   2.523   1.620
12356TIP3   OH237012   2.871   0.215   4.703
12356TIP3    H137013   2.950   0.161   4.700
12356TIP3    H237014   2.888   0.276   4.775
12357TIP3   OH237015   0.173   4.962   4.132
12357TIP3    H137016   0.264   4.933   4.144
12357TIP3    H237017   0.170   5.047   4.177
12358TIP3   OH237018   3.956   2.906   4.734
12358TIP3    H137019   4.004   2.859   4.665
12358TIP3    H237020   3.896   2.963   4.686
12359TIP3   OH237021   0.308   6.829   5.106
12359TIP3    H137022   0.239   6.862   5.049
12359TIP3    H237023   0.261   6.785   5.177
12360TIP3   OH237024   1.805   6.657   6.203
12360TIP3    H137025   1.899   6.678   6.201
12360TIP3    H237026   1.795   6.598   6.278
12361TIP3   OH237027   0.172   2.861   2.474
12361TIP3    H137028   0.096   2.895   2.429
12361TIP3    H237029   0.186   2.774   2.436
12362TIP3   OH237030   3.144   0.939   0.290
12362TIP3    H137031   3.095   0.859   0.309
12362TIP3    H237032   3.156   0.981   0.375
12363TIP3   OH237033   4.360   3.304   2.982
12363TIP3    H137034   4.428   3.348   3.033
12363TIP3    H237035   4.298   3.271   3.047
12364TIP3   OH237036   2.764   7.466   0.863
12364TIP3    H137037   2.847   7.483   0.818
12364TIP3    H237038   2.732   7.384   0.826
12365TIP3   OH237039   1.504   2.023   3.231
12365TIP3    H137040   1.408   2.024   3.222
12365TIP3    H237041   1.523   2.094   3.292
12366TIP3   OH237042   7.724   3.652   1.895
12366TIP3    H137043   7.785   3.724   1.907
12366TIP3    H237044   7.685   3.666   1.809
12367TIP3   OH237045   4.669   6.442   2.009
12367TIP3    H137046   4.639   6.393   1.932
12367TIP3    H237047   4.758   6.469   1.987
12368TIP3   OH237048   3.543   7.019   2.645
12368TIP3    H137049   3.454   6.985   2.647
12368TIP3    H237050   3.596   6.943   2.618
12369TIP3   OH237051   3.847   4.888   5.154
12369TIP3    H137052   3.838   4.794   5.171
12369TIP3    H237053   3.788   4.905   5.080
12370TIP3   OH237054   1.972   7.737   5.081
12370TIP3    H137055   1.978   7.829   5.055
12370TIP3    H237056   2.035   7.728   5.153
12371TIP3   OH237057   6.588   2.520   5.131
12371TIP3    H137058   6.551   2.554   5.213
12371TIP3    H237059   6.595   2.596   5.074
12372TIP3   OH237060   3.974   6.499   5.999
12372TIP3    H137061   3.880   6.497   5.978
12372TIP3    H237062   4.013   6.554   5.932
12373TIP3   OH237063   5.599   4.205   1.871
12373TIP3    H137064   5.664   4.269   1.843
12373TIP3    H237065   5.549   4.249   1.940
12374TIP3   OH237066   2.936   6.329   1.237
12374TIP3    H137067   2.948   6.399   1.301
12374TIP3    H237068   2.969   6.250   1.281
12375TIP3   OH237069   3.407   7.628   4.906
12375TIP3    H137070   3.357   7.709   4.909
12375TIP3    H237071   3.485   7.650   4.855
12376TIP3   OH237072   7.394   0.701   1.974
12376TIP3    H137073   7.348   0.633   1.926
12376TIP3    H237074   7.384   0.780   1.920
12377TIP3   OH237075   3.475   0.886   5.402
12377TIP3    H137076   3.401   0.913   5.347
12377TIP3    H237077   3.545   0.865   5.340
12378TIP3   OH237078   3.675   5.144   2.148
12378TIP3    H137079   3.749   5.095   2.185
12378TIP3    H237080   3.713   5.226   2.117
12379TIP3   OH237081   7.483   0.427   3.894
12379TIP3    H137082   7.543   0.429   3.820
12379TIP3    H237083   7.478   0.334   3.918
12380TIP3   OH237084   1.691   7.067   4.693
12380TIP3    H137085   1.596   7.074   4.686
12380TIP3    H237086   1.708   7.053   4.786
12381TIP3   OH237087   1.431   3.609   2.453
12381TIP3    H137088   1.385   3.633   2.533
12381TIP3    H237089   1.364   3.604   2.386
12382TIP3   OH237090   4.423   2.722   3.359
12382TIP3    H137091   4.351   2.676   3.316
12382TIP3    H237092   4.390   2.741   3.447
12383TIP3   OH237093   1.963   0.163   3.875
12383TIP3    H137094   1.915   0.240   3.906
12383TIP3    H237095   1.951   0.099   3.945
12384TIP3   OH237096   5.199   5.076   5.446
12384TIP3    H137097   5.189   5.031   5.363
12384TIP3    H237098   5.144   5.026   5.507
12385TIP3   OH237099   4.436   2.184   4.771
12385TIP3    H137100   4.409   2.117   4.708
12385TIP3    H237101   4.411   2.149   4.856
12386TIP3   OH237102   5.849   4.871   0.946
12386TIP3    H137103   5.896   4.839   1.022
12386TIP3    H237104   5.767   4.822   0.945
12387TIP3   OH237105   0.123   1.439   3.921
12387TIP3    H137106   0.077   1.426   3.838
12387TIP3    H237107   0.088   1.521   3.955
12388TIP3   OH237108   0.303   2.380   6.114
12388TIP3    H137109   0.215   2.351   6.088
12388TIP3    H237110   0.351   2.383   6.032
12389TIP3   OH237111   6.269   5.738   4.265
12389TIP3    H137112   6.208   5.795   4.313
12389TIP3    H237113   6.258   5.652   4.306
12390TIP3   OH237114   7.327   0.059   3.517
12390TIP3    H137115   7.288   0.144   3.537
12390TIP3    H237116   7.401   0.079   3.460
12391TIP3   OH237117   7.391   0.982   3.523
12391TIP3    H137118   7.314   0.947   3.569
12391TIP3    H237119   7.411   0.915   3.457
12392TIP3   OH237120   6.076   0.075   5.000
12392TIP3    H137121   6.094   0.019   5.076
12392TIP3    H237122   6.017   0.143   5.033
12393TIP3   OH237123   6.682   5.715   4.815
12393TIP3    H137124   6.589   5.726   4.837
12393TIP3    H237125   6.712   5.643   4.870
12394TIP3   OH237126   7.485   0.098   0.525
12394TIP3    H137127   7.407   0.134   0.482
12394TIP3    H237128   7.484   0.136   0.613
12395TIP3   OH237129   2.275   2.736   0.561
12395TIP3    H137130   2.351   2.701   0.515
12395TIP3    H237131   2.311   2.788   0.633
12396TIP3   OH237132   7.436   3.534   3.598
12396TIP3    H137133   7.401   3.618   3.566
12396TIP3    H237134   7.358   3.482   3.616
12397TIP3   OH237135   1.214   1.810   1.305
12397TIP3    H137136   1.144   1.865   1.270
12397TIP3    H237137   1.172   1.761   1.376
12398TIP3   OH237138   5.153   4.598   6.356
12398TIP3    H137139   5.246   4.586   6.378
12398TIP3    H237140   5.125   4.671   6.411
12399TIP3   OH237141   0.680   6.972   2.629
12399TIP3    H137142   0.702   6.890   2.583
12399TIP3    H237143   0.627   6.944   2.704
12400TIP3   OH237144   0.163   6.360   1.035
12400TIP3    H137145   0.148   6.447   0.998
12400TIP3    H237146   0.199   6.309   0.962
12401TIP3   OH237147   0.088   0.611   3.469
12401TIP3    H137148   0.093   0.520   3.496
12401TIP3    H237149   0.163   0.623   3.410
12402TIP3   OH237150   5.759   5.992   5.702
12402TIP3    H137151   5.854   5.984   5.699
12402TIP3    H237152   5.739   6.062   5.640
12403TIP3   OH237153   0.643   2.137   5.725
12403TIP3    H137154   0.716   2.102   5.777
12403TIP3    H237155   0.623   2.067   5.663
12404TIP3   OH237156   5.800   3.782   2.368
12404TIP3    H137157   5.799   3.842   2.443
12404TIP3    H237158   5.837   3.701   2.403
12405TIP3   OH237159   4.294   2.072   6.508
12405TIP3    H137160   4.250   2.110   6.584
12405TIP3    H237161   4.264   2.123   6.433
12406TIP3   OH237162   1.080   6.655   1.879
12406TIP3    H137163   1.091   6.715   1.805
12406TIP3    H237164   1.122   6.701   1.952
12407TIP3   OH237165   2.462   6.117   4.398
12407TIP3    H137166   2.476   6.157   4.484
12407TIP3    H237167   2.378   6.072   4.407
12408TIP3   OH237168   2.929   4.458   2.055
12408TIP3    H137169   2.949   4.541   2.011
12408TIP3    H237170   2.862   4.418   1.999
12409TIP3   OH237171   0.289   0.492   6.433
12409TIP3    H137172   0.310   0.421   6.494
12409TIP3    H237173   0.374   0.518   6.398
12410TIP3   OH237174   3.445   6.480   0.636
12410TIP3    H137175   3.479   6.490   0.547
12410TIP3    H237176   3.480   6.555   0.683
12411TIP3   OH237177   5.352   3.807   1.075
12411TIP3    H137178   5.287   3.760   1.022
12411TIP3    H237179   5.434   3.763   1.056
12412TIP3   OH237180   0.578   7.020   4.759
12412TIP3    H137181   0.628   6.960   4.815
12412TIP3    H237182   0.554   7.092   4.817
12413TIP3   OH237183   0.200   6.730   5.367
12413TIP3    H137184   0.132   6.662   5.370
12413TIP3    H237185   0.226   6.742   5.458
12414TIP3   OH237186   3.073   2.863   3.744
12414TIP3    H137187   3.087   2.773   3.718
12414TIP3    H237188   2.977   2.872   3.751
12415TIP3   OH237189   4.321   1.131   3.592
12415TIP3    H137190   4.240   1.176   3.617
12415TIP3    H237191   4.391   1.188   3.625
12416TIP3   OH237192   6.991   2.599   0.451
12416TIP3    H137193   7.038   2.675   0.417
12416TIP3    H237194   6.920   2.636   0.504
12417TIP3   OH237195   5.742   3.533   1.117
12417TIP3    H137196   5.714   3.531   1.025
12417TIP3    H237197   5.803   3.460   1.126
12418TIP3   OH237198   2.182   2.502   3.568
12418TIP3    H137199   2.138   2.474   3.488
12418TIP3    H237200   2.179   2.425   3.625
12419TIP3   OH237201   4.722   3.071   4.937
12419TIP3    H137202   4.778   3.001   4.903
12419TIP3    H237203   4.633   3.037   4.927
12420TIP3   OH237204   5.196   2.474   5.459
12420TIP3    H137205   5.235   2.527   5.390
12420TIP3    H237206   5.214   2.521   5.540
12421TIP3   OH237207   1.037   6.424   2.026
12421TIP3    H137208   1.053   6.519   2.021
12421TIP3    H237209   0.970   6.408   1.960
12422TIP3   OH237210   1.003   4.170   1.644
12422TIP3    H137211   1.063   4.208   1.580
12422TIP3    H237212   1.051   4.095   1.680
12423TIP3   OH237213   0.372   4.628   2.584
12423TIP3    H137214   0.278   4.633   2.601
12423TIP3    H237215   0.379   4.626   2.489
12424TIP3   OH237216   4.482   1.717   4.217
12424TIP3    H137217   4.423   1.698   4.290
12424TIP3    H237218   4.483   1.637   4.165
12425TIP3   OH237219   0.986   1.044   2.884
12425TIP3    H137220   1.012   1.133   2.912
12425TIP3    H237221   0.977   1.051   2.789
12426TIP3   OH237222   7.454   4.398   5.856
12426TIP3    H137223   7.534   4.346   5.850
12426TIP3    H237224   7.389   4.348   5.806
12427TIP3   OH237225   0.281   1.058   0.282
12427TIP3    H137226   0.275   1.121   0.210
12427TIP3    H237227   0.374   1.042   0.292
12428TIP3   OH237228   0.683   4.647   0.407
12428TIP3    H137229   0.723   4.647   0.320
12428TIP3    H237230   0.604   4.594   0.398
12429TIP3   OH237231   5.662   2.217   6.494
12429TIP3    H137232   5.696   2.218   6.583
12429TIP3    H237233   5.584   2.272   6.497
12430TIP3   OH237234   2.363   2.195   0.467
12430TIP3    H137235   2.440   2.155   0.426
12430TIP3    H237236   2.289   2.147   0.431
12431TIP3   OH237237   7.058   2.229   4.660
12431TIP3    H137238   7.072   2.151   4.606
12431TIP3    H237239   7.132   2.286   4.640
12432TIP3   OH237240   4.042   4.290   1.281
12432TIP3    H137241   3.996   4.265   1.362
12432TIP3    H237242   3.982   4.265   1.211
12433TIP3   OH237243   3.306   2.055   0.156
12433TIP3    H137244   3.296   2.076   0.063
12433TIP3    H237245   3.278   2.135   0.202
12434TIP3   OH237246   1.639   6.181   4.843
12434TIP3    H137247   1.712   6.242   4.833
12434TIP3    H237248   1.614   6.187   4.935
12435TIP3   OH237249   7.975   4.658   0.028
12435TIP3    H137250   8.004   4.741   0.064
12435TIP3    H237251   7.896   4.680  -0.022
12436TIP3   OH237252   1.254   5.616   2.218
12436TIP3    H137253   1.279   5.545   2.158
12436TIP3    H237254   1.327   5.623   2.279
12437TIP3   OH237255   2.064   3.043   2.769
12437TIP3    H137256   1.982   3.015   2.728
12437TIP3    H237257   2.110   3.093   2.702
12438TIP3   OH237258   0.827   2.750   1.912
12438TIP3    H137259   0.888   2.820   1.891
12438TIP3    H237260   0.806   2.763   2.004
12439TIP3   OH237261   5.456   2.732   1.368
12439TIP3    H137262   5.532   2.737   1.311
12439TIP3    H237263   5.481   2.783   1.445
12440TIP3   OH237264   0.189   0.369   6.180
12440TIP3    H137265   0.279   0.386   6.151
12440TIP3    H237266   0.197   0.298   6.244
12441TIP3   OH237267   1.582   2.799   5.166
12441TIP3    H137268   1.592   2.755   5.082
12441TIP3    H237269   1.545   2.733   5.224
12442TIP3   OH237270   6.805   4.189   0.385
12442TIP3    H137271   6.741   4.133   0.342
12442TIP3    H237272   6.889   4.144   0.373
12443TIP3   OH237273   0.949   1.365   5.291
12443TIP3    H137274   0.932   1.386   5.382
12443TIP3    H237275   1.044   1.377   5.281
12444TIP3   OH237276   5.141   1.513   6.461
12444TIP3    H137277   5.201   1.446   6.428
12444TIP3    H237278   5.073   1.520   6.394
12445TIP3   OH237279   5.208   3.357   1.804
12445TIP3    H137280   5.259   3.390   1.878
12445TIP3    H237281   5.264   3.372   1.728
12446TIP3   OH237282   2.834   7.101   2.596
12446TIP3    H137283   2.834   7.196   2.607
12446TIP3    H237284   2.787   7.087   2.514
12447TIP3   OH237285   0.587   7.146   3.353
12447TIP3    H137286   0.593   7.235   3.388
12447TIP3    H237287   0.588   7.089   3.429
12448TIP3   OH237288   7.550   7.278   1.039
12448TIP3    H137289   7.571   7.322   1.122
12448TIP3    H237290   7.476   7.220   1.062
12449TIP3   OH237291   6.581   3.504   4.041
12449TIP3    H137292   6.553   3.525   3.952
12449TIP3    H237293   6.500   3.504   4.092
12450TIP3   OH237294   3.028   5.650   4.706
12450TIP3    H137295   3.031   5.745   4.701
12450TIP3    H237296   3.034   5.621   4.615
12451TIP3   OH237297   3.795   3.027   1.625
12451TIP3    H137298   3.889   3.033   1.607
12451TIP3    H237299   3.790   2.998   1.716
12452TIP3   OH237300   1.357   0.766   2.384
12452TIP3    H137301   1.325   0.709   2.314
12452TIP3    H237302   1.278   0.800   2.426
12453TIP3   OH237303   4.622   1.475   4.171
12453TIP3    H137304   4.624   1.414   4.098
12453TIP3    H237305   4.556   1.439   4.230
12454TIP3   OH237306   2.666   6.863   0.262
12454TIP3    H137307   2.630   6.778   0.285
12454TIP3    H237308   2.732   6.844   0.196
12455TIP3   OH237309   0.942   3.452   4.301
12455TIP3    H137310   0.894   3.373   4.279
12455TIP3    H237311   1.028   3.421   4.329
12456TIP3   OH237312   2.493   0.387   6.085
12456TIP3    H137313   2.503   0.481   6.073
12456TIP3    H237314   2.487   0.352   5.996
12457TIP3   OH237315   1.840   5.513   6.381
12457TIP3    H137316   1.762   5.523   6.435
12457TIP3    H237317   1.809   5.516   6.291
12458TIP3   OH237318   6.332   1.277   5.596
12458TIP3    H137319   6.394   1.280   5.668
12458TIP3    H237320   6.295   1.366   5.593
12459TIP3   OH237321   1.736   6.119   5.561
12459TIP3    H137322   1.643   6.103   5.578
12459TIP3    H237323   1.754   6.072   5.480
12460TIP3   OH237324   6.749   2.870   6.339
12460TIP3    H137325   6.656   2.861   6.355
12460TIP3    H237326   6.756   2.941   6.275
12461TIP3   OH237327   6.631   5.929   1.436
12461TIP3    H137328   6.574   5.874   1.489
12461TIP3    H237329   6.576   5.959   1.363
12462TIP3   OH237330   5.903   4.253   6.092
12462TIP3    H137331   5.988   4.221   6.063
12462TIP3    H237332   5.887   4.208   6.175
12463TIP3   OH237333   2.200   5.227   3.899
12463TIP3    H137334   2.142   5.170   3.949
12463TIP3    H237335   2.145   5.262   3.829
12464TIP3   OH237336   0.746   5.995   1.950
12464TIP3    H137337   0.684   6.048   1.999
12464TIP3    H237338   0.789   5.941   2.017
12465TIP3   OH237339   7.998   4.875   3.692
12465TIP3    H137340   8.066   4.933   3.657
12465TIP3    H237341   7.919   4.929   3.691
12466TIP3   OH237342   7.682   5.506   6.231
12466TIP3    H137343   7.766   5.460   6.227
12466TIP3    H237344   7.641   5.488   6.146
12467TIP3   OH237345   7.669   3.482   0.643
12467TIP3    H137346   7.738   3.539   0.677
12467TIP3    H237347   7.624   3.535   0.577
12468TIP3   OH237348   7.973   4.354   1.601
12468TIP3    H137349   7.977   4.408   1.681
12468TIP3    H237350   7.915   4.403   1.542
12469TIP3   OH237351   7.817   5.449   5.831
12469TIP3    H137352   7.743   5.420   5.884
12469TIP3    H237353   7.827   5.541   5.852
12470TIP3   OH237354   2.252   7.603   0.284
12470TIP3    H137355   2.236   7.636   0.372
12470TIP3    H237356   2.273   7.681   0.232
12471TIP3   OH237357   7.670   4.240   5.743
12471TIP3    H137358   7.684   4.173   5.810
12471TIP3    H237359   7.683   4.195   5.660
12472TIP3   OH237360   5.929   2.576   1.420
12472TIP3    H137361   5.882   2.553   1.500
12472TIP3    H237362   5.935   2.672   1.422
12473TIP3   OH237363   5.627   3.806   5.470
12473TIP3    H137364   5.583   3.722   5.481
12473TIP3    H237365   5.671   3.821   5.554
12474TIP3   OH237366   7.868   7.776   3.928
12474TIP3    H137367   7.857   7.796   4.021
12474TIP3    H237368   7.883   7.682   3.925
12475TIP3   OH237369   1.229   0.475   1.285
12475TIP3    H137370   1.306   0.423   1.261
12475TIP3    H237371   1.159   0.438   1.232
12476TIP3   OH237372   2.833   6.932   4.971
12476TIP3    H137373   2.876   6.853   4.940
12476TIP3    H237374   2.880   7.004   4.929
12477TIP3   OH237375   3.258   4.567   3.419
12477TIP3    H137376   3.321   4.511   3.374
12477TIP3    H237377   3.311   4.628   3.470
12478TIP3   OH237378   7.069   1.384   1.455
12478TIP3    H137379   7.001   1.450   1.465
12478TIP3    H237380   7.060   1.354   1.364
12479TIP3   OH237381   4.688   7.074   0.833
12479TIP3    H137382   4.663   7.021   0.758
12479TIP3    H237383   4.773   7.112   0.809
12480TIP3   OH237384   4.723   3.908   0.729
12480TIP3    H137385   4.659   3.872   0.668
12480TIP3    H237386   4.775   3.833   0.757
12481TIP3   OH237387   5.167   0.399   2.604
12481TIP3    H137388   5.175   0.339   2.529
12481TIP3    H237389   5.200   0.483   2.571
12482TIP3   OH237390   3.192   3.840   6.536
12482TIP3    H137391   3.268   3.837   6.478
12482TIP3    H237392   3.200   3.923   6.582
12483TIP3   OH237393   2.212   0.512   3.273
12483TIP3    H137394   2.121   0.511   3.301
12483TIP3    H237395   2.213   0.567   3.195
12484TIP3   OH237396   6.950   1.002   4.564
12484TIP3    H137397   6.920   1.091   4.583
12484TIP3    H237398   6.933   0.990   4.470
12485TIP3   OH237399   2.813   2.051   5.749
12485TIP3    H137400   2.834   2.037   5.841
12485TIP3    H237401   2.806   1.963   5.712
12486TIP3   OH237402   1.023   1.935   1.175
12486TIP3    H137403   1.043   2.026   1.154
12486TIP3    H237404   0.968   1.906   1.102
12487TIP3   OH237405   7.928   5.958   0.382
12487TIP3    H137406   7.914   6.049   0.356
12487TIP3    H237407   7.840   5.919   0.383
12488TIP3   OH237408   5.605   7.794   3.899
12488TIP3    H137409   5.513   7.774   3.915
12488TIP3    H237410   5.636   7.830   3.982
12489TIP3   OH237411   1.286   0.678   0.204
12489TIP3    H137412   1.235   0.597   0.206
12489TIP3    H237413   1.363   0.656   0.150
12490TIP3   OH237414   5.789   4.963   6.510
12490TIP3    H137415   5.736   5.010   6.445
12490TIP3    H237416   5.879   4.992   6.492
12491TIP3   OH237417   7.627   2.937   6.031
12491TIP3    H137418   7.655   2.846   6.042
12491TIP3    H237419   7.692   2.976   5.972
12492TIP3   OH237420   0.213   5.045   3.388
12492TIP3    H137421   0.211   4.977   3.320
12492TIP3    H237422   0.281   5.016   3.449
12493TIP3   OH237423   5.831   2.419   2.680
12493TIP3    H137424   5.780   2.426   2.599
12493TIP3    H237425   5.766   2.417   2.750
12494TIP3   OH237426   8.002   1.788   5.936
12494TIP3    H137427   7.976   1.875   5.907
12494TIP3    H237428   7.967   1.781   6.025
12495TIP3   OH237429   2.603   1.450   2.790
12495TIP3    H137430   2.536   1.483   2.849
12495TIP3    H237431   2.644   1.528   2.754
12496TIP3   OH237432   1.802   3.177   3.614
12496TIP3    H137433   1.798   3.095   3.564
12496TIP3    H237434   1.722   3.176   3.668
12497TIP3   OH237435   0.674   1.666   4.178
12497TIP3    H137436   0.645   1.736   4.235
12497TIP3    H237437   0.595   1.616   4.159
12498TIP3   OH237438   4.533   4.688   0.984
12498TIP3    H137439   4.601   4.701   1.050
12498TIP3    H237440   4.473   4.761   0.997
12499TIP3   OH237441   3.029   7.797   5.757
12499TIP3    H137442   3.093   7.790   5.685
12499TIP3    H237443   2.998   7.887   5.752
12500TIP3   OH237444   4.032   7.069   4.207
12500TIP3    H137445   4.127   7.083   4.210
12500TIP3    H237446   4.010   7.076   4.114
12501TIP3   OH237447   0.874   5.534   4.951
12501TIP3    H137448   0.801   5.472   4.946
12501TIP3    H237449   0.926   5.504   5.025
12502TIP3   OH237450   5.476   4.339   4.001
12502TIP3    H137451   5.475   4.435   3.999
12502TIP3    H237452   5.533   4.317   4.074
12503TIP3   OH237453   7.022   6.883   6.561
12503TIP3    H137454   6.932   6.916   6.567
12503TIP3    H237455   7.042   6.882   6.468
12504TIP3   OH237456   6.890   3.977   5.364
12504TIP3    H137457   6.893   4.071   5.343
12504TIP3    H237458   6.972   3.943   5.330
12505TIP3   OH237459   4.409   0.739   1.509
12505TIP3    H137460   4.370   0.724   1.423
12505TIP3    H237461   4.376   0.824   1.536
12506TIP3   OH237462   5.697   7.012   6.055
12506TIP3    H137463   5.746   7.092   6.035
12506TIP3    H237464   5.697   7.006   6.150
12507TIP3   OH237465   3.015   3.924   2.849
12507TIP3    H137466   3.099   3.893   2.881
12507TIP3    H237467   2.977   3.848   2.804
12508TIP3   OH237468   3.854   7.172   3.036
12508TIP3    H137469   3.767   7.198   3.007
12508TIP3    H237470   3.861   7.206   3.125
12509TIP3   OH237471   2.408   3.783   1.263
12509TIP3    H137472   2.405   3.785   1.359
12509TIP3    H237473   2.501   3.788   1.242
12510TIP3   OH237474   6.522   3.967   2.057
12510TIP3    H137475   6.464   3.923   2.120
12510TIP3    H237476   6.468   3.978   1.979
12511TIP3   OH237477   7.384   4.941   4.260
12511TIP3    H137478   7.376   4.985   4.345
12511TIP3    H237479   7.297   4.908   4.242
12512TIP3   OH237480   5.959   7.490   0.364
12512TIP3    H137481   5.865   7.472   0.355
12512TIP3    H237482   6.001   7.426   0.307
12513TIP3   OH237483   7.723   7.404   6.117
12513TIP3    H137484   7.674   7.486   6.130
12513TIP3    H237485   7.813   7.426   6.141
12514TIP3   OH237486   4.312   3.814   5.395
12514TIP3    H137487   4.288   3.827   5.486
12514TIP3    H237488   4.249   3.867   5.346
12515TIP3   OH237489   4.970   6.232   6.393
12515TIP3    H137490   4.894   6.238   6.335
12515TIP3    H237491   4.979   6.138   6.412
12516TIP3   OH237492   6.123   1.553   0.497
12516TIP3    H137493   6.073   1.624   0.539
12516TIP3    H237494   6.060   1.481   0.490
12517TIP3   OH237495   7.785   4.350   4.028
12517TIP3    H137496   7.824   4.306   4.103
12517TIP3    H237497   7.815   4.299   3.952
12518TIP3   OH237498   3.790   5.074   3.585
12518TIP3    H137499   3.786   4.993   3.534
12518TIP3    H237500   3.729   5.059   3.658
12519TIP3   OH237501   6.650   2.711   0.347
12519TIP3    H137502   6.701   2.630   0.344
12519TIP3    H237503   6.628   2.722   0.440
12520TIP3   OH237504   6.333   4.352   5.624
12520TIP3    H137505   6.323   4.447   5.619
12520TIP3    H237506   6.370   4.327   5.539
12521TIP3   OH237507   2.968   6.442   3.345
12521TIP3    H137508   2.895   6.398   3.390
12521TIP3    H237509   2.983   6.388   3.267
12522TIP3   OH237510   4.251   5.821   3.208
12522TIP3    H137511   4.266   5.727   3.200
12522TIP3    H237512   4.285   5.858   3.127
12523TIP3   OH237513   4.640   0.616   2.767
12523TIP3    H137514   4.676   0.569   2.692
12523TIP3    H237515   4.552   0.643   2.738
12524TIP3   OH237516   1.297   2.097   5.377
12524TIP3    H137517   1.393   2.092   5.372
12524TIP3    H237518   1.268   2.064   5.292
12525TIP3   OH237519   5.251   4.406   3.580
12525TIP3    H137520   5.205   4.488   3.601
12525TIP3    H237521   5.283   4.374   3.664
12526TIP3   OH237522   7.761   4.584   2.818
12526TIP3    H137523   7.832   4.541   2.866
12526TIP3    H237524   7.693   4.518   2.811
12527TIP3   OH237525   6.445   6.293   4.623
12527TIP3    H137526   6.507   6.366   4.626
12527TIP3    H237527   6.392   6.302   4.702
12528TIP3   OH237528   0.830   2.303   5.498
12528TIP3    H137529   0.923   2.318   5.510
12528TIP3    H237530   0.815   2.216   5.534
12529TIP3   OH237531   1.889   4.150   3.407
12529TIP3    H137532   1.931   4.065   3.392
12529TIP3    H237533   1.879   4.188   3.320
12530TIP3   OH237534   5.519   1.267   5.140
12530TIP3    H137535   5.466   1.334   5.184
12530TIP3    H237536   5.527   1.196   5.203
12531TIP3   OH237537   4.674   6.873   2.494
12531TIP3    H137538   4.697   6.838   2.580
12531TIP3    H237539   4.644   6.796   2.445
12532TIP3   OH237540   5.913   5.812   6.165
12532TIP3    H137541   5.861   5.749   6.115
12532TIP3    H237542   5.852   5.881   6.188
12533TIP3   OH237543   2.148   4.550   0.091
12533TIP3    H137544   2.193   4.626   0.055
12533TIP3    H237545   2.213   4.480   0.090
12534TIP3   OH237546   0.380   4.951   0.508
12534TIP3    H137547   0.324   4.961   0.586
12534TIP3    H237548   0.348   5.018   0.448
12535TIP3   OH237549   6.867   5.976   1.588
12535TIP3    H137550   6.905   6.059   1.558
12535TIP3    H237551   6.791   5.963   1.532
12536TIP3   OH237552   7.138   0.326   0.685
12536TIP3    H137553   7.206   0.269   0.722
12536TIP3    H237554   7.176   0.360   0.604
12537TIP3   OH237555   1.477   3.470   1.646
12537TIP3    H137556   1.424   3.428   1.579
12537TIP3    H237557   1.561   3.425   1.643
12538TIP3   OH237558   2.017   5.796   3.539
12538TIP3    H137559   1.963   5.843   3.602
12538TIP3    H237560   2.101   5.843   3.539
12539TIP3   OH237561   1.729   2.106   1.306
12539TIP3    H137562   1.734   2.175   1.372
12539TIP3    H237563   1.638   2.076   1.310
12540TIP3   OH237564   2.697   5.872   2.498
12540TIP3    H137565   2.640   5.913   2.433
12540TIP3    H237566   2.664   5.782   2.504
12541TIP3   OH237567   8.118   4.313   3.146
12541TIP3    H137568   8.142   4.252   3.076
12541TIP3    H237569   8.081   4.257   3.215
12542TIP3   OH237570   2.786   0.159   5.145
12542TIP3    H137571   2.845   0.103   5.195
12542TIP3    H237572   2.727   0.098   5.101
12543TIP3   OH237573   1.081   5.416   5.573
12543TIP3    H137574   1.150   5.387   5.513
12543TIP3    H237575   1.016   5.345   5.570
12544TIP3   OH237576   0.105   5.153   1.420
12544TIP3    H137577   0.045   5.079   1.412
12544TIP3    H237578   0.192   5.115   1.410
12545TIP3   OH237579   3.103   3.127   4.629
12545TIP3    H137580   3.049   3.082   4.693
12545TIP3    H237581   3.043   3.188   4.586
12546TIP3   OH237582   4.099   0.390   4.364
12546TIP3    H137583   4.172   0.439   4.325
12546TIP3    H237584   4.045   0.457   4.406
12547TIP3   OH237585   5.805   0.816   1.089
12547TIP3    H137586   5.804   0.724   1.063
12547TIP3    H237587   5.714   0.845   1.079
12548TIP3   OH237588   3.504   1.063   4.205
12548TIP3    H137589   3.439   1.093   4.141
12548TIP3    H237590   3.492   0.968   4.209
12549TIP3   OH237591   1.974   4.031   6.105
12549TIP3    H137592   2.022   3.980   6.170
12549TIP3    H237593   1.954   3.968   6.036
12550TIP3   OH237594   1.090   1.962   6.373
12550TIP3    H137595   1.133   1.991   6.453
12550TIP3    H237596   1.125   1.875   6.357
12551TIP3   OH237597   4.852   0.763   0.385
12551TIP3    H137598   4.927   0.715   0.419
12551TIP3    H237599   4.790   0.769   0.458
12552TIP3   OH237600   3.405   2.893   0.101
12552TIP3    H137601   3.363   2.882   0.016
12552TIP3    H237602   3.334   2.885   0.164
12553TIP3   OH237603   2.394   3.354   6.766
12553TIP3    H137604   2.395   3.360   6.670
12553TIP3    H237605   2.362   3.266   6.784
12554TIP3   OH237606   2.265   0.532   2.236
12554TIP3    H137607   2.219   0.480   2.301
12554TIP3    H237608   2.202   0.542   2.164
12555TIP3   OH237609   4.933   1.962   5.381
12555TIP3    H137610   4.991   1.904   5.431
12555TIP3    H237611   4.988   1.996   5.311
12556TIP3   OH237612   5.791   2.824   1.258
12556TIP3    H137613   5.874   2.818   1.305
12556TIP3    H237614   5.781   2.917   1.237
12557TIP3   OH237615   7.865   4.971   4.224
12557TIP3    H137616   7.880   4.892   4.172
12557TIP3    H237617   7.905   4.951   4.309
12558TIP3   OH237618   0.906   3.859   4.521
12558TIP3    H137619   0.887   3.825   4.433
12558TIP3    H237620   0.841   3.929   4.533
12559TIP3   OH237621   7.009   4.241   5.279
12559TIP3    H137622   6.959   4.257   5.199
12559TIP3    H237623   7.056   4.323   5.295
12560TIP3   OH237624   2.201   3.205   1.023
12560TIP3    H137625   2.250   3.158   1.091
12560TIP3    H237626   2.268   3.254   0.975
12561TIP3   OH237627   0.895   4.089   1.263
12561TIP3    H137628   0.817   4.039   1.287
12561TIP3    H237629   0.968   4.033   1.289
12562TIP3   OH237630   3.939   0.397   5.946
12562TIP3    H137631   3.932   0.316   5.998
12562TIP3    H237632   4.014   0.382   5.889
12563TIP3   OH237633   1.422   1.063   2.353
12563TIP3    H137634   1.391   1.063   2.444
12563TIP3    H237635   1.452   0.973   2.339
12564TIP3   OH237636   5.264   6.701   5.683
12564TIP3    H137637   5.175   6.726   5.660
12564TIP3    H237638   5.273   6.725   5.775
12565TIP3   OH237639   7.811   0.379   1.186
12565TIP3    H137640   7.833   0.420   1.270
12565TIP3    H237641   7.889   0.390   1.132
12566TIP3   OH237642   3.037   5.382   3.258
12566TIP3    H137643   3.037   5.354   3.350
12566TIP3    H237644   3.112   5.338   3.219
12567TIP3   OH237645   2.094   3.295   5.721
12567TIP3    H137646   2.135   3.335   5.798
12567TIP3    H237647   2.006   3.333   5.719
12568TIP3   OH237648   0.914   7.533   6.264
12568TIP3    H137649   0.823   7.515   6.240
12568TIP3    H237650   0.909   7.609   6.320
12569TIP3   OH237651   3.811   2.284   3.026
12569TIP3    H137652   3.824   2.376   3.048
12569TIP3    H237653   3.717   2.270   3.037
12570TIP3   OH237654   6.713   2.438   2.188
12570TIP3    H137655   6.789   2.382   2.174
12570TIP3    H237656   6.725   2.510   2.127
12571TIP3   OH237657   5.734   5.911   3.829
12571TIP3    H137658   5.716   5.866   3.746
12571TIP3    H237659   5.814   5.869   3.861
12572TIP3   OH237660   1.184   1.498   5.646
12572TIP3    H137661   1.259   1.486   5.588
12572TIP3    H237662   1.128   1.422   5.628
12573TIP3   OH237663   0.500   2.990   1.689
12573TIP3    H137664   0.469   3.034   1.768
12573TIP3    H237665   0.593   2.972   1.706
12574TIP3   OH237666   6.371   3.041   3.980
12574TIP3    H137667   6.393   3.114   4.038
12574TIP3    H237668   6.422   2.967   4.013
12575TIP3   OH237669   7.020   0.494   0.860
12575TIP3    H137670   7.062   0.420   0.816
12575TIP3    H237671   7.069   0.503   0.942
12576TIP3   OH237672   4.314   2.900   1.613
12576TIP3    H137673   4.253   2.884   1.685
12576TIP3    H237674   4.395   2.928   1.656
12577TIP3   OH237675   2.932   6.407   0.787
12577TIP3    H137676   2.996   6.477   0.768
12577TIP3    H237677   2.975   6.353   0.853
12578TIP3   OH237678   4.668   3.527   3.675
12578TIP3    H137679   4.758   3.551   3.696
12578TIP3    H237680   4.628   3.608   3.643
12579TIP3   OH237681   5.946   4.915   4.949
12579TIP3    H137682   5.919   4.992   4.899
12579TIP3    H237683   5.864   4.868   4.966
12580TIP3   OH237684   0.931   5.711   2.555
12580TIP3    H137685   0.865   5.643   2.566
12580TIP3    H237686   0.947   5.743   2.644
12581TIP3   OH237687   5.450   3.627   0.361
12581TIP3    H137688   5.418   3.541   0.332
12581TIP3    H237689   5.545   3.620   0.354
12582TIP3   OH237690   4.124   1.919   6.075
12582TIP3    H137691   4.179   1.996   6.061
12582TIP3    H237692   4.079   1.936   6.157
12583TIP3   OH237693   1.955   3.701   1.508
12583TIP3    H137694   1.993   3.693   1.420
12583TIP3    H237695   1.946   3.611   1.538
12584TIP3   OH237696   2.053   0.811   4.071
12584TIP3    H137697   2.042   0.864   4.150
12584TIP3    H237698   2.058   0.875   4.000
12585TIP3   OH237699   7.607   5.457   1.650
12585TIP3    H137700   7.655   5.540   1.643
12585TIP3    H237701   7.568   5.460   1.737
12586TIP3   OH237702   6.299   1.267   4.541
12586TIP3    H137703   6.250   1.341   4.505
12586TIP3    H237704   6.295   1.200   4.472
12587TIP3   OH237705   4.004   5.443   4.133
12587TIP3    H137706   4.022   5.535   4.153
12587TIP3    H237707   3.922   5.425   4.179
12588TIP3   OH237708   5.465   0.507   2.496
12588TIP3    H137709   5.457   0.447   2.422
12588TIP3    H237710   5.507   0.585   2.459
12589TIP3   OH237711   0.944   0.499   5.434
12589TIP3    H137712   0.935   0.472   5.342
12589TIP3    H237713   0.867   0.461   5.477
12590TIP3   OH237714   8.237   3.006   6.065
12590TIP3    H137715   8.289   3.066   6.118
12590TIP3    H237716   8.220   2.931   6.122
12591TIP3   OH237717   0.221   4.142   1.137
12591TIP3    H137718   0.143   4.099   1.101
12591TIP3    H237719   0.197   4.235   1.139
12592TIP3   OH237720   6.356   2.855   3.440
12592TIP3    H137721   6.317   2.897   3.364
12592TIP3    H237722   6.409   2.923   3.481
12593TIP3   OH237723   1.220   0.054   5.093
12593TIP3    H137724   1.234   0.138   5.050
12593TIP3    H237725   1.241  -0.011   5.025
12594TIP3   OH237726   2.193   4.840   6.717
12594TIP3    H137727   2.137   4.861   6.793
12594TIP3    H237728   2.150   4.884   6.644
12595TIP3   OH237729   1.747   2.564  -0.008
12595TIP3    H137730   1.756   2.493  -0.071
12595TIP3    H237731   1.812   2.545   0.060
12596TIP3   OH237732   2.289   4.251   2.592
12596TIP3    H137733   2.353   4.274   2.659
12596TIP3    H237734   2.293   4.156   2.586
12597TIP3   OH237735   6.364   1.074   0.011
12597TIP3    H137736   6.307   1.014   0.058
12597TIP3    H237737   6.306   1.141  -0.025
12598TIP3   OH237738   5.640   5.535   4.575
12598TIP3    H137739   5.696   5.523   4.498
12598TIP3    H237740   5.600   5.621   4.562
12599TIP3   OH237741   6.616   6.188   2.679
12599TIP3    H137742   6.523   6.196   2.657
12599TIP3    H237743   6.619   6.117   2.744
12600TIP3   OH237744   6.453   3.269   0.818
12600TIP3    H137745   6.468   3.360   0.841
12600TIP3    H237746   6.503   3.256   0.737
12601TIP3   OH237747   3.870   1.813   3.250
12601TIP3    H137748   3.792   1.840   3.298
12601TIP3    H237749   3.852   1.834   3.159
12602TIP3   OH237750   2.034   2.443   1.724
12602TIP3    H137751   2.068   2.493   1.798
12602TIP3    H237752   2.101   2.377   1.707
12603TIP3   OH237753   3.286   3.022   2.162
12603TIP3    H137754   3.313   2.944   2.114
12603TIP3    H237755   3.325   3.011   2.249
12604TIP3   OH237756   3.524   7.418   5.851
12604TIP3    H137757   3.475   7.339   5.827
12604TIP3    H237758   3.596   7.387   5.905
12605TIP3   OH237759   3.522   6.753   5.733
12605TIP3    H137760   3.521   6.703   5.651
12605TIP3    H237761   3.433   6.745   5.767
12606TIP3   OH237762   2.924   5.180   4.039
12606TIP3    H137763   2.960   5.131   3.966
12606TIP3    H237764   2.829   5.169   4.032
12607TIP3   OH237765   0.152   5.170   6.255
12607TIP3    H137766   0.103   5.096   6.220
12607TIP3    H237767   0.143   5.161   6.350
12608TIP3   OH237768   2.014   6.736   2.970
12608TIP3    H137769   1.938   6.744   3.027
12608TIP3    H237770   2.064   6.816   2.985
12609TIP3   OH237771   5.576   2.913   5.021
12609TIP3    H137772   5.567   2.956   5.106
12609TIP3    H237773   5.567   2.983   4.957
12610TIP3   OH237774   6.690   4.931   5.288
12610TIP3    H137775   6.753   4.903   5.354
12610TIP3    H237776   6.605   4.926   5.331
12611TIP3   OH237777   5.809   5.804   4.828
12611TIP3    H137778   5.729   5.785   4.877
12611TIP3    H237779   5.807   5.899   4.814
12612TIP3   OH237780   2.837   4.973   3.781
12612TIP3    H137781   2.902   4.913   3.745
12612TIP3    H237782   2.847   5.054   3.731
12613TIP3   OH237783   3.874   6.148   4.951
12613TIP3    H137784   3.880   6.126   5.044
12613TIP3    H237785   3.789   6.114   4.924
12614TIP3   OH237786   7.671   6.274   1.317
12614TIP3    H137787   7.708   6.186   1.325
12614TIP3    H237788   7.578   6.259   1.301
12615TIP3   OH237789   3.738   6.757   5.224
12615TIP3    H137790   3.734   6.795   5.137
12615TIP3    H237791   3.651   6.771   5.262
12616TIP3   OH237792   7.841   6.397   1.491
12616TIP3    H137793   7.868   6.487   1.474
12616TIP3    H237794   7.791   6.372   1.414
12617TIP3   OH237795   0.427   2.638   2.033
12617TIP3    H137796   0.444   2.729   2.012
12617TIP3    H237797   0.331   2.629   2.030
12618TIP3   OH237798   0.659   0.592   0.535
12618TIP3    H137799   0.680   0.499   0.547
12618TIP3    H237800   0.661   0.629   0.624
12619TIP3   OH237801   5.370   7.313   5.826
12619TIP3    H137802   5.347   7.265   5.906
12619TIP3    H237803   5.428   7.383   5.857
12620TIP3   OH237804   6.036   4.250   3.023
12620TIP3    H137805   6.030   4.238   2.928
12620TIP3    H237806   5.969   4.316   3.042
12621TIP3   OH237807   2.599   0.917   0.945
12621TIP3    H137808   2.608   0.865   1.025
12621TIP3    H237809   2.508   0.947   0.946
12622TIP3   OH237810   0.751   6.202   2.185
12622TIP3    H137811   0.824   6.219   2.125
12622TIP3    H237812   0.785   6.222   2.272
12623TIP3   OH237813   2.675   7.664   4.513
12623TIP3    H137814   2.651   7.753   4.539
12623TIP3    H237815   2.741   7.637   4.576
12624TIP3   OH237816   0.717   3.209   4.934
12624TIP3    H137817   0.753   3.124   4.959
12624TIP3    H237818   0.786   3.251   4.882
12625TIP3   OH237819   3.944   4.863   6.048
12625TIP3    H137820   3.886   4.929   6.010
12625TIP3    H237821   4.016   4.856   5.985
12626TIP3   OH237822   3.828   6.197   6.291
12626TIP3    H137823   3.899   6.147   6.331
12626TIP3    H237824   3.872   6.270   6.248
12627TIP3   OH237825   6.045   3.928   2.905
12627TIP3    H137826   6.075   3.990   2.839
12627TIP3    H237827   6.106   3.938   2.978
12628TIP3   OH237828   7.011   6.670   4.414
12628TIP3    H137829   6.957   6.607   4.367
12628TIP3    H237830   6.986   6.755   4.377
12629TIP3   OH237831   6.971   1.300   6.418
12629TIP3    H137832   6.952   1.359   6.490
12629TIP3    H237833   7.017   1.354   6.354
12630TIP3   OH237834   0.886   0.090   6.324
12630TIP3    H137835   0.798   0.124   6.304
12630TIP3    H237836   0.943   0.135   6.261
12631TIP3   OH237837   1.279   3.534   0.478
12631TIP3    H137838   1.226   3.583   0.541
12631TIP3    H237839   1.343   3.487   0.532
12632TIP3   OH237840   2.146   5.788   4.204
12632TIP3    H137841   2.068   5.739   4.231
12632TIP3    H237842   2.111   5.862   4.154
12633TIP3   OH237843   5.650   2.921   5.830
12633TIP3    H137844   5.743   2.944   5.832
12633TIP3    H237845   5.618   2.955   5.746
12634TIP3   OH237846   4.160   1.572   0.602
12634TIP3    H137847   4.169   1.562   0.697
12634TIP3    H237848   4.250   1.572   0.569
12635TIP3   OH237849   1.901   0.779   1.364
12635TIP3    H137850   1.906   0.822   1.278
12635TIP3    H237851   1.854   0.842   1.419
12636TIP3   OH237852   6.530   3.880   1.079
12636TIP3    H137853   6.618   3.875   1.115
12636TIP3    H237854   6.473   3.884   1.156
12637TIP3   OH237855   5.075   6.494   0.753
12637TIP3    H137856   5.142   6.538   0.805
12637TIP3    H237857   4.999   6.552   0.758
12638TIP3   OH237858   7.823   2.539   2.042
12638TIP3    H137859   7.810   2.450   2.076
12638TIP3    H237860   7.896   2.530   1.980
12639TIP3   OH237861   5.580   1.351   1.693
12639TIP3    H137862   5.633   1.313   1.624
12639TIP3    H237863   5.490   1.342   1.662
12640TIP3   OH237864   4.455   2.441   5.115
12640TIP3    H137865   4.454   2.383   5.191
12640TIP3    H237866   4.547   2.461   5.100
12641TIP3   OH237867   2.216   4.518   6.218
12641TIP3    H137868   2.305   4.498   6.246
12641TIP3    H237869   2.177   4.567   6.290
12642TIP3   OH237870   2.612   0.770   0.616
12642TIP3    H137871   2.576   0.855   0.640
12642TIP3    H237872   2.662   0.742   0.693
12643TIP3   OH237873   6.155   5.204   0.123
12643TIP3    H137874   6.196   5.281   0.082
12643TIP3    H237875   6.061   5.223   0.120
12644TIP3   OH237876   1.013   1.158   1.879
12644TIP3    H137877   1.095   1.167   1.928
12644TIP3    H237878   1.030   1.090   1.815
12645TIP3   OH237879   6.555   1.709   1.827
12645TIP3    H137880   6.524   1.748   1.908
12645TIP3    H237881   6.599   1.628   1.854
12646TIP3   OH237882   5.174   3.149   0.504
12646TIP3    H137883   5.195   3.113   0.590
12646TIP3    H237884   5.134   3.077   0.456
12647TIP3   OH237885   3.089   5.738   5.095
12647TIP3    H137886   3.075   5.784   5.012
12647TIP3    H237887   3.181   5.713   5.094
12648TIP3   OH237888   1.554   4.874   2.349
12648TIP3    H137889   1.503   4.953   2.364
12648TIP3    H237890   1.490   4.804   2.346
12649TIP3   OH237891   5.443   1.941   2.975
12649TIP3    H137892   5.410   1.904   3.057
12649TIP3    H237893   5.393   1.898   2.906
12650TIP3   OH237894   4.997   1.222   2.908
12650TIP3    H137895   4.927   1.286   2.899
12650TIP3    H237896   5.032   1.236   2.996
12651TIP3   OH237897   1.194   1.641   4.339
12651TIP3    H137898   1.108   1.662   4.304
12651TIP3    H237899   1.240   1.725   4.344
12652TIP3   OH237900   2.783   3.986   5.753
12652TIP3    H137901   2.846   3.971   5.682
12652TIP3    H237902   2.699   3.956   5.716
12653TIP3   OH237903   0.362   7.230   5.579
12653TIP3    H137904   0.409   7.278   5.512
12653TIP3    H237905   0.383   7.138   5.562
12654TIP3   OH237906   6.955   1.148   2.097
12654TIP3    H137907   6.951   1.058   2.128
12654TIP3    H237908   6.982   1.199   2.173
12655TIP3   OH237909   2.299   1.474   0.557
12655TIP3    H137910   2.229   1.429   0.511
12655TIP3    H237911   2.270   1.477   0.648
12656TIP3   OH237912   7.293   7.205   2.900
12656TIP3    H137913   7.301   7.120   2.857
12656TIP3    H237914   7.335   7.267   2.841
12657TIP3   OH237915   5.227   3.177   6.637
12657TIP3    H137916   5.275   3.186   6.555
12657TIP3    H237917   5.242   3.087   6.664
12658TIP3   OH237918   3.251   6.289   1.394
12658TIP3    H137919   3.244   6.295   1.298
12658TIP3    H237920   3.343   6.273   1.410
12659TIP3   OH237921   6.699   6.997   2.019
12659TIP3    H137922   6.750   6.916   2.033
12659TIP3    H237923   6.759   7.056   1.974
12660TIP3   OH237924   4.923   1.778   0.286
12660TIP3    H137925   4.960   1.843   0.226
12660TIP3    H237926   4.878   1.830   0.353
12661TIP3   OH237927   0.965   4.847   4.666
12661TIP3    H137928   0.925   4.760   4.666
12661TIP3    H237929   1.052   4.833   4.704
12662TIP3   OH237930   3.857   1.518   5.540
12662TIP3    H137931   3.877   1.609   5.516
12662TIP3    H237932   3.829   1.478   5.458
12663TIP3   OH237933   7.463   1.127   4.871
12663TIP3    H137934   7.515   1.188   4.819
12663TIP3    H237935   7.422   1.070   4.806
12664TIP3   OH237936   1.496   3.016   5.568
12664TIP3    H137937   1.430   2.948   5.574
12664TIP3    H237938   1.515   3.025   5.475
12665TIP3   OH237939   3.097   1.969   3.477
12665TIP3    H137940   3.037   1.985   3.405
12665TIP3    H237941   3.102   2.052   3.524
12666TIP3   OH237942   6.273   2.809   0.445
12666TIP3    H137943   6.257   2.806   0.350
12666TIP3    H237944   6.366   2.830   0.453
12667TIP3   OH237945   2.617   7.332   2.818
12667TIP3    H137946   2.631   7.367   2.730
12667TIP3    H237947   2.522   7.327   2.827
12668TIP3   OH237948   4.439   7.526   5.808
12668TIP3    H137949   4.524   7.544   5.768
12668TIP3    H237950   4.458   7.518   5.902
12669TIP3   OH237951   6.833   0.625   5.178
12669TIP3    H137952   6.907   0.685   5.173
12669TIP3    H237953   6.761   0.673   5.137
12670TIP3   OH237954   3.702   7.400   2.691
12670TIP3    H137955   3.728   7.391   2.782
12670TIP3    H237956   3.784   7.403   2.642
12671TIP3   OH237957   1.763   2.602   3.881
12671TIP3    H137958   1.795   2.566   3.798
12671TIP3    H237959   1.792   2.693   3.880
12672TIP3   OH237960   7.032  -0.007   6.421
12672TIP3    H137961   6.964   0.000   6.488
12672TIP3    H237962   6.987   0.010   6.338
12673TIP3   OH237963   5.816   5.474   2.688
12673TIP3    H137964   5.905   5.507   2.697
12673TIP3    H237965   5.828   5.382   2.662
12674TIP3   OH237966   5.845   6.038   0.650
12674TIP3    H137967   5.808   6.126   0.651
12674TIP3    H237968   5.880   6.028   0.561
12675TIP3   OH237969   3.876   2.177   0.901
12675TIP3    H137970   3.880   2.112   0.971
12675TIP3    H237971   3.844   2.129   0.825
12676TIP3   OH237972   5.145   5.294   0.117
12676TIP3    H137973   5.059   5.301   0.076
12676TIP3    H237974   5.129   5.247   0.198
12677TIP3   OH237975   1.013   5.185   4.373
12677TIP3    H137976   0.974   5.100   4.395
12677TIP3    H237977   1.078   5.200   4.442
12678TIP3   OH237978   6.925   1.788   5.223
12678TIP3    H137979   6.978   1.711   5.204
12678TIP3    H237980   6.835   1.757   5.223
12679TIP3   OH237981   2.035   4.878   4.737
12679TIP3    H137982   1.955   4.925   4.714
12679TIP3    H237983   2.105   4.928   4.696
12680TIP3   OH237984   1.739   6.358   2.090
12680TIP3    H137985   1.660   6.318   2.125
12680TIP3    H237986   1.786   6.286   2.048
12681TIP3   OH237987   2.015   2.720   3.537
12681TIP3    H137988   2.024   2.735   3.443
12681TIP3    H237989   2.090   2.664   3.559
12682TIP3   OH237990   1.415   6.415   5.344
12682TIP3    H137991   1.353   6.483   5.372
12682TIP3    H237992   1.492   6.429   5.398
12683TIP3   OH237993   1.862   7.789   1.087
12683TIP3    H137994   1.908   7.772   1.004
12683TIP3    H237995   1.911   7.860   1.127
12684TIP3   OH237996   3.905   5.031   2.770
12684TIP3    H137997   3.876   5.091   2.839
12684TIP3    H237998   3.877   4.945   2.800
12685TIP3   OH237999   5.704   7.437   4.874
12685TIP3    H138000   5.793   7.414   4.847
12685TIP3    H238001   5.711   7.457   4.967
12686TIP3   OH238002   6.481   4.238   0.407
12686TIP3    H138003   6.540   4.180   0.455
12686TIP3    H238004   6.476   4.199   0.320
12687TIP3   OH238005   6.551   3.954   0.672
12687TIP3    H138006   6.617   3.884   0.672
12687TIP3    H238007   6.601   4.035   0.677
12688TIP3   OH238008   7.623   3.431   2.952
12688TIP3    H138009   7.663   3.355   2.909
12688TIP3    H238010   7.534   3.403   2.973
12689TIP3   OH238011   1.042   7.481   3.820
12689TIP3    H138012   0.967   7.476   3.760
12689TIP3    H238013   1.082   7.395   3.816
12690TIP3   OH238014   6.489   6.349   0.478
12690TIP3    H138015   6.566   6.403   0.496
12690TIP3    H238016   6.524   6.270   0.438
12691TIP3   OH238017   8.188   2.687   2.525
12691TIP3    H138018   8.131   2.620   2.561
12691TIP3    H238019   8.168   2.689   2.431
12692TIP3   OH238020   6.089   1.875   6.150
12692TIP3    H138021   6.014   1.935   6.147
12692TIP3    H238022   6.148   1.913   6.214
12693TIP3   OH238023   0.358   4.706   4.970
12693TIP3    H138024   0.294   4.740   5.033
12693TIP3    H238025   0.422   4.660   5.024
12694TIP3   OH238026   2.710   5.313   2.113
12694TIP3    H138027   2.618   5.304   2.089
12694TIP3    H238028   2.755   5.244   2.064
12695TIP3   OH238029   6.232   4.660   3.207
12695TIP3    H138030   6.252   4.573   3.172
12695TIP3    H238031   6.172   4.644   3.279
12696TIP3   OH238032   3.376   4.782   0.563
12696TIP3    H138033   3.398   4.709   0.621
12696TIP3    H238034   3.409   4.755   0.477
12697TIP3   OH238035   8.148   2.245   6.346
12697TIP3    H138036   8.105   2.242   6.261
12697TIP3    H238037   8.076   2.251   6.409
12698TIP3   OH238038   4.619   5.907   2.261
12698TIP3    H138039   4.702   5.933   2.300
12698TIP3    H238040   4.616   5.952   2.177
12699TIP3   OH238041   6.499   2.598   1.953
12699TIP3    H138042   6.497   2.670   1.890
12699TIP3    H238043   6.431   2.619   2.016
12700TIP3   OH238044   0.713   6.691   5.071
12700TIP3    H138045   0.624   6.659   5.059
12700TIP3    H238046   0.764   6.611   5.089
12701TIP3   OH238047   7.849   6.201   2.250
12701TIP3    H138048   7.847   6.296   2.261
12701TIP3    H238049   7.847   6.188   2.155
12702TIP3   OH238050   1.745   5.627   4.549
12702TIP3    H138051   1.748   5.560   4.617
12702TIP3    H238052   1.717   5.706   4.594
12703TIP3   OH238053   4.259   6.811   0.078
12703TIP3    H138054   4.252   6.756   0.000
12703TIP3    H238055   4.189   6.779   0.136
12704TIP3   OH238056   6.857   0.720   4.263
12704TIP3    H138057   6.771   0.749   4.295
12704TIP3    H238058   6.894   0.798   4.221
12705TIP3   OH238059   1.063   3.416   3.046
12705TIP3    H138060   1.136   3.413   3.108
12705TIP3    H238061   1.003   3.481   3.083
12706TIP3   OH238062   4.934   1.411   3.194
12706TIP3    H138063   4.993   1.483   3.215
12706TIP3    H238064   4.990   1.334   3.194
12707TIP3   OH238065   8.213   0.618   3.763
12707TIP3    H138066   8.181   0.632   3.674
12707TIP3    H238067   8.299   0.579   3.752
12708TIP3   OH238068   4.433   1.894   6.327
12708TIP3    H138069   4.513   1.854   6.293
12708TIP3    H238070   4.391   1.934   6.251
12709TIP3   OH238071   1.502   6.683   6.206
12709TIP3    H138072   1.564   6.609   6.211
12709TIP3    H238073   1.436   6.664   6.273
12710TIP3   OH238074   6.875   7.689   5.736
12710TIP3    H138075   6.881   7.699   5.831
12710TIP3    H238076   6.954   7.642   5.711
12711TIP3   OH238077   2.656   4.878   5.182
12711TIP3    H138078   2.639   4.823   5.259
12711TIP3    H238079   2.627   4.825   5.108
12712TIP3   OH238080   3.365   5.496  -0.026
12712TIP3    H138081   3.397   5.406  -0.019
12712TIP3    H238082   3.270   5.489  -0.018
12713TIP3   OH238083   1.134   6.017   1.414
12713TIP3    H138084   1.103   6.101   1.447
12713TIP3    H238085   1.145   5.963   1.492
12714TIP3   OH238086   7.006   4.573   1.151
12714TIP3    H138087   7.093   4.550   1.119
12714TIP3    H238088   7.014   4.664   1.180
12715TIP3   OH238089   7.295   2.689   1.700
12715TIP3    H138090   7.357   2.757   1.726
12715TIP3    H238091   7.334   2.649   1.623
12716TIP3   OH238092   3.353   4.451   0.485
12716TIP3    H138093   3.387   4.474   0.572
12716TIP3    H238094   3.286   4.385   0.502
12717TIP3   OH238095   1.605   1.950   0.461
12717TIP3    H138096   1.553   2.025   0.434
12717TIP3    H238097   1.663   1.933   0.387
12718TIP3   OH238098   4.103   3.349   3.478
12718TIP3    H138099   4.103   3.421   3.541
12718TIP3    H238100   4.061   3.385   3.400
12719TIP3   OH238101   1.183   6.794   4.593
12719TIP3    H138102   1.100   6.786   4.546
12719TIP3    H238103   1.188   6.715   4.647
12720TIP3   OH238104   0.221   2.335   1.536
12720TIP3    H138105   0.285   2.323   1.606
12720TIP3    H238106   0.161   2.261   1.546
12721TIP3   OH238107   4.302   3.796   5.684
12721TIP3    H138108   4.380   3.798   5.739
12721TIP3    H238109   4.289   3.703   5.664
12722TIP3   OH238110   3.249   7.542   1.773
12722TIP3    H138111   3.305   7.561   1.697
12722TIP3    H238112   3.213   7.456   1.755
12723TIP3   OH238113   2.210   4.397   5.424
12723TIP3    H138114   2.244   4.310   5.406
12723TIP3    H238115   2.166   4.424   5.344
12724TIP3   OH238116   0.861   4.515   2.825
12724TIP3    H138117   0.820   4.600   2.806
12724TIP3    H238118   0.800   4.451   2.789
12725TIP3   OH238119   3.323   2.296   5.946
12725TIP3    H138120   3.255   2.229   5.940
12725TIP3    H238121   3.346   2.315   5.855
12726TIP3   OH238122   4.037   6.220   6.076
12726TIP3    H138123   4.116   6.238   6.128
12726TIP3    H238124   4.019   6.303   6.031
12727TIP3   OH238125   6.351   5.498   5.410
12727TIP3    H138126   6.352   5.443   5.489
12727TIP3    H238127   6.278   5.558   5.424
12728TIP3   OH238128   7.257   5.532   1.111
12728TIP3    H138129   7.288   5.556   1.198
12728TIP3    H238130   7.264   5.436   1.108
12729TIP3   OH238131   3.803   4.983   3.990
12729TIP3    H138132   3.754   4.971   4.071
12729TIP3    H238133   3.794   5.076   3.970
12730TIP3   OH238134   5.812   3.647   4.159
12730TIP3    H138135   5.738   3.586   4.162
12730TIP3    H238136   5.812   3.680   4.070
12731TIP3   OH238137   0.872   7.284   6.149
12731TIP3    H138138   0.867   7.223   6.223
12731TIP3    H238139   0.896   7.368   6.188
12732TIP3   OH238140   4.083   5.668   0.953
12732TIP3    H138141   3.995   5.665   0.916
12732TIP3    H238142   4.114   5.756   0.933
12733TIP3   OH238143   8.035   1.881   4.938
12733TIP3    H138144   8.012   1.964   4.897
12733TIP3    H238145   8.130   1.883   4.945
12734TIP3   OH238146   7.225   0.981   0.808
12734TIP3    H138147   7.240   1.020   0.722
12734TIP3    H238148   7.184   0.896   0.790
12735TIP3   OH238149   5.995   1.004   1.968
12735TIP3    H138150   5.962   1.094   1.960
12735TIP3    H238151   5.953   0.970   2.047
12736TIP3   OH238152   1.874   3.626   0.858
12736TIP3    H138153   1.834   3.550   0.815
12736TIP3    H238154   1.952   3.590   0.901
12737TIP3   OH238155   7.748   2.091   5.821
12737TIP3    H138156   7.842   2.104   5.836
12737TIP3    H238157   7.739   1.997   5.804
12738TIP3   OH238158   3.922   3.298   1.069
12738TIP3    H138159   3.934   3.255   0.984
12738TIP3    H238160   3.964   3.383   1.058
12739TIP3   OH238161   5.792   2.275   5.398
12739TIP3    H138162   5.886   2.259   5.392
12739TIP3    H238163   5.769   2.247   5.486
12740TIP3   OH238164   6.652   0.997   6.104
12740TIP3    H138165   6.738   0.962   6.081
12740TIP3    H238166   6.603   0.921   6.134
12741TIP3   OH238167   4.863   6.443   6.754
12741TIP3    H138168   4.854   6.513   6.818
12741TIP3    H238169   4.843   6.484   6.670
12742TIP3   OH238170   6.827   2.295   3.006
12742TIP3    H138171   6.892   2.332   2.945
12742TIP3    H238172   6.850   2.333   3.091
12743TIP3   OH238173   7.141   1.724   1.562
12743TIP3    H138174   7.126   1.817   1.546
12743TIP3    H238175   7.065   1.680   1.525
12744TIP3   OH238176   7.100   2.765   5.886
12744TIP3    H138177   7.032   2.703   5.914
12744TIP3    H238178   7.084   2.843   5.938
12745TIP3   OH238179   3.674   1.272   6.029
12745TIP3    H138180   3.700   1.285   6.121
12745TIP3    H238181   3.752   1.298   5.979
12746TIP3   OH238182   2.471   2.378   6.496
12746TIP3    H138183   2.541   2.410   6.554
12746TIP3    H238184   2.390   2.409   6.537
12747TIP3   OH238185   2.108   4.618   4.275
12747TIP3    H138186   2.070   4.549   4.329
12747TIP3    H238187   2.058   4.696   4.297
12748TIP3   OH238188   7.802   6.091   6.736
12748TIP3    H138189   7.862   6.150   6.782
12748TIP3    H238190   7.715   6.123   6.758
12749TIP3   OH238191   2.152   6.166   2.886
12749TIP3    H138192   2.208   6.149   2.810
12749TIP3    H238193   2.111   6.250   2.868
12750TIP3   OH238194   6.738   3.033   2.742
12750TIP3    H138195   6.789   2.955   2.720
12750TIP3    H238196   6.650   3.000   2.759
12751TIP3   OH238197   3.445   6.736   5.289
12751TIP3    H138198   3.385   6.794   5.335
12751TIP3    H238199   3.388   6.679   5.236
12752TIP3   OH238200   0.885   6.443   5.104
12752TIP3    H138201   0.976   6.461   5.126
12752TIP3    H238202   0.891   6.381   5.030
12753TIP3   OH238203   7.568   3.757   5.029
12753TIP3    H138204   7.547   3.711   5.111
12753TIP3    H238205   7.629   3.826   5.055
12754TIP3   OH238206   6.462   1.844   2.031
12754TIP3    H138207   6.463   1.844   2.126
12754TIP3    H238208   6.385   1.894   2.007
12755TIP3   OH238209   4.795   5.551   6.735
12755TIP3    H138210   4.742   5.499   6.675
12755TIP3    H238211   4.873   5.498   6.750
12756TIP3   OH238212   5.981   1.837   2.214
12756TIP3    H138213   6.019   1.767   2.160
12756TIP3    H238214   5.897   1.856   2.172
12757TIP3   OH238215   8.127   4.498   3.452
12757TIP3    H138216   8.183   4.508   3.375
12757TIP3    H238217   8.041   4.475   3.417
12758TIP3   OH238218   0.674   2.450   1.262
12758TIP3    H138219   0.741   2.383   1.277
12758TIP3    H238220   0.679   2.507   1.338
12759TIP3   OH238221   7.692   7.496   5.080
12759TIP3    H138222   7.735   7.567   5.033
12759TIP3    H238223   7.757   7.426   5.081
12760TIP3   OH238224   3.276   3.275   1.911
12760TIP3    H138225   3.252   3.235   1.994
12760TIP3    H238226   3.194   3.280   1.862
12761TIP3   OH238227   3.638   5.723   4.280
12761TIP3    H138228   3.728   5.752   4.299
12761TIP3    H238229   3.634   5.633   4.311
12762TIP3   OH238230   5.018   5.312   3.226
12762TIP3    H138231   4.978   5.259   3.157
12762TIP3    H238232   4.950   5.374   3.251
12763TIP3   OH238233   6.067   0.500   5.746
12763TIP3    H138234   6.108   0.423   5.785
12763TIP3    H238235   6.019   0.465   5.671
12764TIP3   OH238236   4.867   0.466   0.134
12764TIP3    H138237   4.908   0.455   0.219
12764TIP3    H238238   4.844   0.377   0.107
12765TIP3   OH238239   3.187   7.569   5.621
12765TIP3    H138240   3.187   7.530   5.534
12765TIP3    H238241   3.186   7.664   5.606
12766TIP3   OH238242   2.810   3.054   6.145
12766TIP3    H138243   2.832   3.106   6.223
12766TIP3    H238244   2.805   2.964   6.177
12767TIP3   OH238245   4.598   0.340   4.390
12767TIP3    H138246   4.628   0.429   4.408
12767TIP3    H238247   4.674   0.285   4.407
12768TIP3   OH238248   0.441   4.174   2.831
12768TIP3    H138249   0.473   4.236   2.896
12768TIP3    H238250   0.376   4.224   2.780
12769TIP3   OH238251   6.965   5.756   4.072
12769TIP3    H138252   7.024   5.769   3.997
12769TIP3    H238253   6.883   5.796   4.046
12770TIP3   OH238254   0.581   5.188   1.154
12770TIP3    H138255   0.525   5.263   1.131
12770TIP3    H238256   0.658   5.228   1.196
12771TIP3   OH238257   3.748   1.198   4.147
12771TIP3    H138258   3.671   1.144   4.166
12771TIP3    H238259   3.716   1.288   4.153
12772TIP3   OH238260   5.594   0.737   3.089
12772TIP3    H138261   5.594   0.675   3.016
12772TIP3    H238262   5.627   0.818   3.051
12773TIP3   OH238263   8.206   3.929   2.017
12773TIP3    H138264   8.232   3.870   2.088
12773TIP3    H238265   8.112   3.942   2.029
12774TIP3   OH238266   4.198   7.443   5.680
12774TIP3    H138267   4.274   7.478   5.725
12774TIP3    H238268   4.196   7.488   5.595
12775TIP3   OH238269   3.833   5.175   3.003
12775TIP3    H138270   3.847   5.115   3.077
12775TIP3    H238271   3.904   5.238   3.009
12776TIP3   OH238272   5.688   3.532   3.194
12776TIP3    H138273   5.756   3.598   3.198
12776TIP3    H238274   5.647   3.534   3.280
12777TIP3   OH238275   5.338   5.596   6.500
12777TIP3    H138276   5.413   5.551   6.538
12777TIP3    H238277   5.310   5.658   6.567
12778TIP3   OH238278   2.094   3.499   2.727
12778TIP3    H138279   2.185   3.483   2.701
12778TIP3    H238280   2.042   3.439   2.673
12779TIP3   OH238281   2.408   5.844   5.156
12779TIP3    H138282   2.324   5.859   5.112
12779TIP3    H238283   2.386   5.788   5.230
12780TIP3   OH238284   3.232   0.336   0.932
12780TIP3    H138285   3.169   0.390   0.884
12780TIP3    H238286   3.240   0.257   0.879
12781TIP3   OH238287   1.024   2.340   0.093
12781TIP3    H138288   1.067   2.425   0.095
12781TIP3    H238289   0.983   2.332   0.179
12782TIP3   OH238290   1.795   3.201   4.358
12782TIP3    H138291   1.745   3.234   4.284
12782TIP3    H238292   1.783   3.106   4.355
12783TIP3   OH238293   0.871   7.079   4.782
12783TIP3    H138294   0.839   7.024   4.854
12783TIP3    H238295   0.792   7.121   4.747
12784TIP3   OH238296   6.852   2.281   2.515
12784TIP3    H138297   6.909   2.358   2.517
12784TIP3    H238298   6.824   2.269   2.606
12785TIP3   OH238299   2.129   5.708   2.934
12785TIP3    H138300   2.091   5.792   2.958
12785TIP3    H238301   2.129   5.707   2.839
12786TIP3   OH238302   0.745   4.339   0.432
12786TIP3    H138303   0.829   4.359   0.473
12786TIP3    H238304   0.707   4.425   0.412
12787TIP3   OH238305   6.506   4.147   3.447
12787TIP3    H138306   6.437   4.158   3.513
12787TIP3    H238307   6.584   4.182   3.488
12788TIP3   OH238308   7.762   5.156   6.231
12788TIP3    H138309   7.815   5.088   6.271
12788TIP3    H238310   7.698   5.109   6.178
12789TIP3   OH238311   8.182   1.479   5.368
12789TIP3    H138312   8.192   1.534   5.445
12789TIP3    H238313   8.242   1.406   5.381
12790TIP3   OH238314   0.478   0.957   6.050
12790TIP3    H138315   0.560   0.909   6.056
12790TIP3    H238316   0.410   0.890   6.062
12791TIP3   OH238317   3.764   2.069   3.525
12791TIP3    H138318   3.801   2.070   3.437
12791TIP3    H238319   3.678   2.109   3.515
12792TIP3   OH238320   2.708   5.992   4.592
12792TIP3    H138321   2.658   6.064   4.629
12792TIP3    H238322   2.724   5.933   4.665
12793TIP3   OH238323   5.504   7.448   3.640
12793TIP3    H138324   5.468   7.533   3.662
12793TIP3    H238325   5.567   7.429   3.710
12794TIP3   OH238326   1.951   6.019   0.450
12794TIP3    H138327   1.936   6.063   0.366
12794TIP3    H238328   1.928   5.928   0.433
12795TIP3   OH238329   2.504   4.057   6.574
12795TIP3    H138330   2.483   4.128   6.513
12795TIP3    H238331   2.597   4.070   6.594
12796TIP3   OH238332   7.263   1.072   1.173
12796TIP3    H138333   7.257   1.133   1.099
12796TIP3    H238334   7.348   1.030   1.164
12797TIP3   OH238335   1.507   0.580   2.562
12797TIP3    H138336   1.496   0.631   2.643
12797TIP3    H238337   1.452   0.625   2.498
12798TIP3   OH238338   7.249   6.813   4.498
12798TIP3    H138339   7.175   6.764   4.462
12798TIP3    H238340   7.242   6.801   4.593
12799TIP3   OH238341   6.196   6.222   3.485
12799TIP3    H138342   6.177   6.141   3.531
12799TIP3    H238343   6.109   6.257   3.462
12800TIP3   OH238344   1.914   3.751   3.584
12800TIP3    H138345   1.825   3.774   3.557
12800TIP3    H238346   1.905   3.664   3.624
12801TIP3   OH238347   6.279   4.468   1.343
12801TIP3    H138348   6.345   4.434   1.403
12801TIP3    H238349   6.294   4.419   1.262
12802TIP3   OH238350   5.692   0.002   2.820
12802TIP3    H138351   5.721   0.025   2.732
12802TIP3    H238352   5.600  -0.021   2.809
12803TIP3   OH238353   3.037   3.339   5.014
12803TIP3    H138354   2.977   3.408   4.987
12803TIP3    H238355   3.083   3.375   5.090
12804TIP3   OH238356   7.187   4.517   5.570
12804TIP3    H138357   7.193   4.477   5.657
12804TIP3    H238358   7.098   4.553   5.567
12805TIP3   OH238359   1.111   0.185   5.317
12805TIP3    H138360   1.165   0.120   5.362
12805TIP3    H238361   1.118   0.162   5.224
12806TIP3   OH238362   3.421   4.734   4.968
12806TIP3    H138363   3.475   4.696   5.038
12806TIP3    H238364   3.401   4.823   4.999
12807TIP3   OH238365   0.436   3.923   1.816
12807TIP3    H138366   0.345   3.902   1.798
12807TIP3    H238367   0.467   3.853   1.874
12808TIP3   OH238368   1.713   5.140   1.466
12808TIP3    H138369   1.757   5.172   1.387
12808TIP3    H238370   1.778   5.086   1.510
12809TIP3   OH238371   3.545   6.602   5.524
12809TIP3    H138372   3.504   6.622   5.440
12809TIP3    H238373   3.636   6.584   5.503
12810TIP3   OH238374   7.476   1.585   1.342
12810TIP3    H138375   7.390   1.561   1.309
12810TIP3    H238376   7.532   1.510   1.321
12811TIP3   OH238377   3.392   0.081   6.424
12811TIP3    H138378   3.461   0.147   6.435
12811TIP3    H238379   3.365   0.060   6.513
12812TIP3   OH238380   0.532   2.673   4.017
12812TIP3    H138381   0.472   2.746   3.999
12812TIP3    H238382   0.534   2.666   4.112
12813TIP3   OH238383   6.239   4.774   6.589
12813TIP3    H138384   6.152   4.750   6.556
12813TIP3    H238385   6.223   4.805   6.678
12814TIP3   OH238386   2.037   7.726   3.778
12814TIP3    H138387   2.074   7.666   3.843
12814TIP3    H238388   1.961   7.764   3.821
12815TIP3   OH238389   8.068   5.568   0.723
12815TIP3    H138390   8.036   5.500   0.663
12815TIP3    H238391   8.093   5.640   0.666
12816TIP3   OH238392   4.226   4.410   6.754
12816TIP3    H138393   4.228   4.358   6.674
12816TIP3    H238394   4.213   4.346   6.824
12817TIP3   OH238395   6.089   7.332   4.509
12817TIP3    H138396   6.171   7.379   4.522
12817TIP3    H238397   6.107   7.272   4.437
12818TIP3   OH238398   2.133   0.576   4.540
12818TIP3    H138399   2.207   0.575   4.601
12818TIP3    H238400   2.158   0.517   4.470
12819TIP3   OH238401   8.240   6.272   1.968
12819TIP3    H138402   8.206   6.253   2.056
12819TIP3    H238403   8.177   6.333   1.931
12820TIP3   OH238404   4.458   6.749   6.213
12820TIP3    H138405   4.400   6.675   6.201
12820TIP3    H238406   4.461   6.763   6.308
12821TIP3   OH238407   2.804   4.835   4.085
12821TIP3    H138408   2.898   4.852   4.095
12821TIP3    H238409   2.762   4.894   4.148
12822TIP3   OH238410   3.212   3.622   4.366
12822TIP3    H138411   3.177   3.623   4.455
12822TIP3    H238412   3.164   3.553   4.322
12823TIP3   OH238413   6.841   6.063   4.046
12823TIP3    H138414   6.921   6.039   3.999
12823TIP3    H238415   6.776   6.077   3.978
12824TIP3   OH238416   7.979   5.711   0.227
12824TIP3    H138417   8.005   5.767   0.300
12824TIP3    H238418   7.941   5.770   0.163
12825TIP3   OH238419   3.545   3.827   2.092
12825TIP3    H138420   3.523   3.890   2.160
12825TIP3    H238421   3.465   3.818   2.040
12826TIP3   OH238422   8.331   2.458   6.344
12826TIP3    H138423   8.335   2.554   6.340
12826TIP3    H238424   8.239   2.439   6.365
12827TIP3   OH238425   7.626   6.709   4.033
12827TIP3    H138426   7.694   6.767   4.068
12827TIP3    H238427   7.544   6.756   4.050
12828TIP3   OH238428   5.836   6.675   4.473
12828TIP3    H138429   5.786   6.753   4.495
12828TIP3    H238430   5.772   6.616   4.432
12829TIP3   OH238431   6.369   1.919   6.375
12829TIP3    H138432   6.440   1.964   6.421
12829TIP3    H238433   6.308   1.989   6.351
12830TIP3   OH238434   7.474   3.757   2.032
12830TIP3    H138435   7.492   3.809   2.111
12830TIP3    H238436   7.559   3.724   2.005
12831TIP3   OH238437   6.646   7.212   3.359
12831TIP3    H138438   6.597   7.263   3.295
12831TIP3    H238439   6.737   7.219   3.330
12832TIP3   OH238440   5.693   0.781   2.819
12832TIP3    H138441   5.688   0.685   2.818
12832TIP3    H238442   5.744   0.803   2.740
12833TIP3   OH238443   0.695   4.687   0.689
12833TIP3    H138444   0.698   4.662   0.597
12833TIP3    H238445   0.677   4.605   0.736
12834TIP3   OH238446   6.513   1.939   5.752
12834TIP3    H138447   6.454   1.984   5.692
12834TIP3    H238448   6.457   1.875   5.797
12835TIP3   OH238449   1.050   0.728   3.095
12835TIP3    H138450   1.126   0.721   3.154
12835TIP3    H238451   0.975   0.724   3.154
12836TIP3   OH238452   3.024   5.425   1.495
12836TIP3    H138453   3.002   5.491   1.560
12836TIP3    H238454   3.104   5.384   1.529
12837TIP3   OH238455   2.440   0.475   1.309
12837TIP3    H138456   2.364   0.417   1.304
12837TIP3    H238457   2.451   0.508   1.221
12838TIP3   OH238458   3.013   5.439   0.371
12838TIP3    H138459   2.968   5.522   0.362
12838TIP3    H238460   3.091   5.447   0.316
12839TIP3   OH238461   4.201   4.097   5.006
12839TIP3    H138462   4.129   4.065   4.951
12839TIP3    H238463   4.275   4.104   4.946
12840TIP3   OH238464   1.169   5.012   5.548
12840TIP3    H138465   1.108   4.957   5.499
12840TIP3    H238466   1.134   5.012   5.637
12841TIP3   OH238467   4.715   0.751   3.630
12841TIP3    H138468   4.675   0.824   3.584
12841TIP3    H238469   4.808   0.757   3.608
12842TIP3   OH238470   0.871   2.111   2.458
12842TIP3    H138471   0.918   2.194   2.450
12842TIP3    H238472   0.939   2.044   2.459
12843TIP3   OH238473   1.953   6.304   2.636
12843TIP3    H138474   2.021   6.323   2.572
12843TIP3    H238475   1.873   6.338   2.596
12844TIP3   OH238476   7.926   6.074   1.190
12844TIP3    H138477   7.895   6.054   1.279
12844TIP3    H238478   8.019   6.051   1.191
12845TIP3   OH238479   4.647   2.346   5.907
12845TIP3    H138480   4.655   2.291   5.829
12845TIP3    H238481   4.564   2.320   5.947
12846TIP3   OH238482   5.800   4.519   4.987
12846TIP3    H138483   5.886   4.482   5.008
12846TIP3    H238484   5.749   4.508   5.067
12847TIP3   OH238485   2.616   5.488   6.094
12847TIP3    H138486   2.563   5.445   6.027
12847TIP3    H238487   2.559   5.493   6.171
12848TIP3   OH238488   3.950   3.423   3.968
12848TIP3    H138489   4.019   3.489   3.957
12848TIP3    H238490   3.953   3.372   3.886
12849TIP3   OH238491   3.701   4.485   6.732
12849TIP3    H138492   3.700   4.470   6.637
12849TIP3    H238493   3.683   4.399   6.770
12850TIP3   OH238494   2.461   2.782   0.795
12850TIP3    H138495   2.422   2.841   0.860
12850TIP3    H238496   2.535   2.743   0.841
12851TIP3   OH238497   1.246   3.274   1.650
12851TIP3    H138498   1.274   3.265   1.558
12851TIP3    H238499   1.151   3.274   1.646
12852TIP3   OH238500   5.613   5.085   6.317
12852TIP3    H138501   5.545   5.150   6.300
12852TIP3    H238502   5.591   5.012   6.258
12853TIP3   OH238503   8.247   6.203   6.397
12853TIP3    H138504   8.204   6.126   6.434
12853TIP3    H238505   8.308   6.232   6.465
12854TIP3   OH238506   3.263   0.684   6.328
12854TIP3    H138507   3.223   0.738   6.396
12854TIP3    H238508   3.313   0.747   6.275
12855TIP3   OH238509   4.833   1.967   4.129
12855TIP3    H138510   4.853   1.876   4.109
12855TIP3    H238511   4.748   1.982   4.089
12856TIP3   OH238512   5.384   5.854   1.698
12856TIP3    H138513   5.472   5.856   1.736
12856TIP3    H238514   5.327   5.891   1.765
12857TIP3   OH238515   0.928   6.289   2.632
12857TIP3    H138516   0.935   6.241   2.550
12857TIP3    H238517   0.844   6.336   2.625
12858TIP3   OH238518   7.453   1.960   0.292
12858TIP3    H138519   7.439   1.881   0.344
12858TIP3    H238520   7.509   2.015   0.347
12859TIP3   OH238521   7.129   1.956   5.272
12859TIP3    H138522   7.066   1.900   5.226
12859TIP3    H238523   7.119   2.042   5.231
12860TIP3   OH238524   3.609   2.547   1.578
12860TIP3    H138525   3.635   2.455   1.571
12860TIP3    H238526   3.683   2.589   1.621
12861TIP3   OH238527   5.541   3.507   5.463
12861TIP3    H138528   5.625   3.516   5.418
12861TIP3    H238529   5.482   3.471   5.396
12862TIP3   OH238530   1.950   0.603   1.607
12862TIP3    H138531   1.999   0.666   1.660
12862TIP3    H238532   1.948   0.641   1.519
12863TIP3   OH238533  -0.015   4.870   3.180
12863TIP3    H138534   0.078   4.887   3.164
12863TIP3    H238535  -0.031   4.902   3.268
12864TIP3   OH238536   1.946   0.436   3.160
12864TIP3    H138537   1.913   0.347   3.172
12864TIP3    H238538   2.010   0.429   3.089
12865TIP3   OH238539   2.206   7.497   2.748
12865TIP3    H138540   2.263   7.420   2.756
12865TIP3    H238541   2.156   7.498   2.829
12866TIP3   OH238542   5.661   2.594   1.969
12866TIP3    H138543   5.732   2.612   2.031
12866TIP3    H238544   5.583   2.585   2.024
12867TIP3   OH238545   6.452   5.729   5.624
12867TIP3    H138546   6.545   5.711   5.637
12867TIP3    H238547   6.408   5.685   5.697
12868TIP3   OH238548   5.963   3.148   2.381
12868TIP3    H138549   6.017   3.205   2.326
12868TIP3    H238550   6.027   3.100   2.435
12869TIP3   OH238551   3.181   0.592   4.199
12869TIP3    H138552   3.136   0.528   4.254
12869TIP3    H238553   3.110   0.639   4.155
12870TIP3   OH238554   0.830   3.042   5.713
12870TIP3    H138555   0.735   3.038   5.712
12870TIP3    H238556   0.851   3.130   5.682
12871TIP3   OH238557   2.215   0.129   2.685
12871TIP3    H138558   2.140   0.181   2.659
12871TIP3    H238559   2.269   0.188   2.737
12872TIP3   OH238560   5.553   2.092   5.582
12872TIP3    H138561   5.532   1.999   5.594
12872TIP3    H238562   5.515   2.115   5.497
12873TIP3   OH238563   1.116   7.359   0.278
12873TIP3    H138564   1.091   7.370   0.370
12873TIP3    H238565   1.037   7.324   0.237
12874TIP3   OH238566   5.826   6.229   0.267
12874TIP3    H138567   5.812   6.297   0.333
12874TIP3    H238568   5.822   6.147   0.317
12875TIP3   OH238569   5.651   2.108   1.608
12875TIP3    H138570   5.644   2.014   1.589
12875TIP3    H238571   5.596   2.120   1.686
12876TIP3   OH238572   1.911   4.008   0.952
12876TIP3    H138573   1.983   3.944   0.953
12876TIP3    H238574   1.921   4.056   1.034
12877TIP3   OH238575   4.766   1.983   2.576
12877TIP3    H138576   4.783   1.891   2.593
12877TIP3    H238577   4.762   2.024   2.662
12878TIP3   OH238578   6.235   0.392   2.191
12878TIP3    H138579   6.302   0.429   2.134
12878TIP3    H238580   6.230   0.300   2.167
12879TIP3   OH238581   4.565   4.200   6.582
12879TIP3    H138582   4.530   4.190   6.670
12879TIP3    H238583   4.633   4.133   6.575
12880TIP3   OH238584   6.925   4.911   4.196
12880TIP3    H138585   6.998   4.892   4.255
12880TIP3    H238586   6.906   5.004   4.210
12881TIP3   OH238587   3.618   7.559   1.801
12881TIP3    H138588   3.608   7.637   1.747
12881TIP3    H238589   3.548   7.564   1.865
12882TIP3   OH238590   0.360   5.115   3.869
12882TIP3    H138591   0.402   5.051   3.812
12882TIP3    H238592   0.334   5.064   3.947
12883TIP3   OH238593   1.205   3.327   0.666
12883TIP3    H138594   1.139   3.388   0.636
12883TIP3    H238595   1.192   3.248   0.613
12884TIP3   OH238596   6.279   7.102   4.665
12884TIP3    H138597   6.335   7.088   4.588
12884TIP3    H238598   6.190   7.085   4.633
12885TIP3   OH238599   2.975   2.405   1.253
12885TIP3    H138600   2.900   2.377   1.200
12885TIP3    H238601   3.052   2.380   1.201
12886TIP3   OH238602   1.872   5.212   1.249
12886TIP3    H138603   1.831   5.281   1.197
12886TIP3    H238604   1.955   5.249   1.277
12887TIP3   OH238605   4.379   2.982   0.281
12887TIP3    H138606   4.330   2.989   0.363
12887TIP3    H238607   4.312   2.982   0.212
12888TIP3   OH238608   2.409   0.777   2.871
12888TIP3    H138609   2.392   0.869   2.848
12888TIP3    H238610   2.379   0.728   2.794
12889TIP3   OH238611   5.631   6.511   4.012
12889TIP3    H138612   5.705   6.547   3.963
12889TIP3    H238613   5.554   6.542   3.964
12890TIP3   OH238614   5.645   2.432   3.772
12890TIP3    H138615   5.700   2.357   3.793
12890TIP3    H238616   5.578   2.397   3.713
12891TIP3   OH238617   7.036   6.491   0.184
12891TIP3    H138618   7.030   6.586   0.176
12891TIP3    H238619   7.043   6.476   0.279
12892TIP3   OH238620   6.910   1.535   6.593
12892TIP3    H138621   6.966   1.526   6.670
12892TIP3    H238622   6.822   1.512   6.624
12893TIP3   OH238623   2.236   0.492   0.753
12893TIP3    H138624   2.313   0.483   0.697
12893TIP3    H238625   2.210   0.402   0.774
12894TIP3   OH238626   7.985   6.564   3.014
12894TIP3    H138627   8.041   6.507   2.961
12894TIP3    H238628   7.985   6.522   3.101
12895TIP3   OH238629   1.496   4.481   6.205
12895TIP3    H138630   1.436   4.538   6.158
12895TIP3    H238631   1.462   4.392   6.191
12896TIP3   OH238632   3.157   2.350   2.958
12896TIP3    H138633   3.181   2.260   2.979
12896TIP3    H238634   3.240   2.396   2.951
12897TIP3   OH238635   5.707   0.173   3.066
12897TIP3    H138636   5.631   0.211   3.023
12897TIP3    H238637   5.747   0.116   3.001
12898TIP3   OH238638   3.945   7.040   2.562
12898TIP3    H138639   3.933   7.109   2.498
12898TIP3    H238640   3.973   6.964   2.511
12899TIP3   OH238641   1.021   4.854   6.344
12899TIP3    H138642   1.041   4.886   6.256
12899TIP3    H238643   1.051   4.763   6.344
12900TIP3   OH238644   2.946   3.408   2.654
12900TIP3    H138645   2.955   3.395   2.749
12900TIP3    H238646   3.023   3.460   2.630
12901TIP3   OH238647   0.337   6.575   3.485
12901TIP3    H138648   0.324   6.506   3.420
12901TIP3    H238649   0.407   6.629   3.448
12902TIP3   OH238650   7.191   4.252   6.355
12902TIP3    H138651   7.149   4.303   6.286
12902TIP3    H238652   7.144   4.168   6.353
12903TIP3   OH238653   3.546   6.347   2.882
12903TIP3    H138654   3.513   6.262   2.856
12903TIP3    H238655   3.615   6.367   2.819
12904TIP3   OH238656   0.322   3.006   6.715
12904TIP3    H138657   0.257   3.068   6.747
12904TIP3    H238658   0.317   2.932   6.776
12905TIP3   OH238659   1.197   7.128   2.675
12905TIP3    H138660   1.121   7.073   2.693
12905TIP3    H238661   1.213   7.175   2.757
12906TIP3   OH238662   7.547   4.408   2.762
12906TIP3    H138663   7.616   4.364   2.811
12906TIP3    H238664   7.479   4.427   2.827
12907TIP3   OH238665   5.505   5.262   4.408
12907TIP3    H138666   5.433   5.324   4.410
12907TIP3    H238667   5.571   5.304   4.352
12908TIP3   OH238668   4.965   3.301   3.814
12908TIP3    H138669   4.936   3.326   3.726
12908TIP3    H238670   4.937   3.210   3.823
12909TIP3   OH238671   2.921   4.118   3.965
12909TIP3    H138672   2.913   4.213   3.973
12909TIP3    H238673   2.877   4.083   4.043
12910TIP3   OH238674   8.253   6.802   3.723
12910TIP3    H138675   8.316   6.784   3.654
12910TIP3    H238676   8.174   6.755   3.696
12911TIP3   OH238677   4.309   0.470   5.972
12911TIP3    H138678   4.404   0.457   5.974
12911TIP3    H238679   4.275   0.393   5.926
12912TIP3   OH238680   5.701   6.361   0.054
12912TIP3    H138681   5.647   6.419   0.109
12912TIP3    H238682   5.740   6.299   0.115
12913TIP3   OH238683   6.440   1.275   1.282
12913TIP3    H138684   6.352   1.278   1.319
12913TIP3    H238685   6.478   1.195   1.318
12914TIP3   OH238686   0.764   1.987   5.058
12914TIP3    H138687   0.838   2.002   5.000
12914TIP3    H238688   0.741   1.895   5.043
12915TIP3   OH238689   0.235   3.432   0.249
12915TIP3    H138690   0.247   3.356   0.305
12915TIP3    H238691   0.296   3.418   0.176
12916TIP3   OH238692   6.642   2.833   5.777
12916TIP3    H138693   6.639   2.842   5.872
12916TIP3    H238694   6.613   2.743   5.760
12917TIP3   OH238695   0.340   1.395   4.797
12917TIP3    H138696   0.286   1.317   4.781
12917TIP3    H238697   0.359   1.429   4.709
12918TIP3   OH238698   3.177   3.745   5.426
12918TIP3    H138699   3.152   3.653   5.434
12918TIP3    H238700   3.210   3.753   5.336
12919TIP3   OH238701   7.590   5.407   5.997
12919TIP3    H138702   7.565   5.335   5.939
12919TIP3    H238703   7.507   5.437   6.034
12920TIP3   OH238704   7.154   5.604   2.295
12920TIP3    H138705   7.143   5.696   2.322
12920TIP3    H238706   7.243   5.601   2.260
12921TIP3   OH238707   1.628   2.737   2.094
12921TIP3    H138708   1.581   2.668   2.141
12921TIP3    H238709   1.696   2.765   2.155
12922TIP3   OH238710   1.560   5.472   5.538
12922TIP3    H138711   1.560   5.567   5.542
12922TIP3    H238712   1.522   5.451   5.453
12923TIP3   OH238713   5.845   4.571   4.503
12923TIP3    H138714   5.833   4.666   4.502
12923TIP3    H238715   5.760   4.536   4.477
12924TIP3   OH238716   7.436   3.885   3.387
12924TIP3    H138717   7.483   3.843   3.315
12924TIP3    H238718   7.391   3.959   3.346
12925TIP3   OH238719   6.388   6.262   1.518
12925TIP3    H138720   6.477   6.277   1.487
12925TIP3    H238721   6.355   6.348   1.541
12926TIP3   OH238722   7.887   6.422   5.776
12926TIP3    H138723   7.835   6.425   5.696
12926TIP3    H238724   7.851   6.492   5.831
12927TIP3   OH238725   2.632   3.848   4.566
12927TIP3    H138726   2.705   3.899   4.530
12927TIP3    H238727   2.556   3.905   4.556
12928TIP3   OH238728   6.522   7.365   6.140
12928TIP3    H138729   6.552   7.357   6.231
12928TIP3    H238730   6.600   7.351   6.088
12929TIP3   OH238731   4.721   2.273   4.771
12929TIP3    H138732   4.775   2.205   4.731
12929TIP3    H238733   4.631   2.246   4.754
12930TIP3   OH238734   5.882   3.153   5.904
12930TIP3    H138735   5.931   3.235   5.906
12930TIP3    H238736   5.793   3.177   5.929
12931TIP3   OH238737   4.910   0.023   0.862
12931TIP3    H138738   4.866  -0.056   0.832
12931TIP3    H238739   4.870   0.094   0.812
12932TIP3   OH238740   4.071   0.955   1.611
12932TIP3    H138741   4.050   1.008   1.689
12932TIP3    H238742   4.158   0.987   1.584
12933TIP3   OH238743   2.348   1.231   1.422
12933TIP3    H138744   2.310   1.216   1.335
12933TIP3    H238745   2.355   1.326   1.429
12934TIP3   OH238746   5.001   3.027   6.051
12934TIP3    H138747   5.008   3.083   5.974
12934TIP3    H238748   4.937   2.960   6.025
12935TIP3   OH238749   5.965   0.521   1.609
12935TIP3    H138750   5.961   0.475   1.525
12935TIP3    H238751   5.885   0.573   1.611
12936TIP3   OH238752   2.862   0.565   2.903
12936TIP3    H138753   2.842   0.535   2.815
12936TIP3    H238754   2.803   0.639   2.918
12937TIP3   OH238755   0.010   0.288   4.926
12937TIP3    H138756   0.076   0.222   4.947
12937TIP3    H238757  -0.037   0.302   5.008
12938TIP3   OH238758   4.145   7.285   0.751
12938TIP3    H138759   4.218   7.345   0.767
12938TIP3    H238760   4.141   7.278   0.656
12939TIP3   OH238761   7.220   4.635   5.109
12939TIP3    H138762   7.141   4.662   5.157
12939TIP3    H238763   7.226   4.541   5.126
12940TIP3   OH238764   5.068   2.272   2.479
12940TIP3    H138765   5.055   2.367   2.484
12940TIP3    H238766   4.994   2.240   2.427
12941TIP3   OH238767   3.467   4.325   4.654
12941TIP3    H138768   3.426   4.250   4.697
12941TIP3    H238769   3.411   4.341   4.578
12942TIP3   OH238770   1.190   4.304   1.510
12942TIP3    H138771   1.220   4.337   1.425
12942TIP3    H238772   1.250   4.344   1.574
12943TIP3   OH238773  -0.008   1.084   0.243
12943TIP3    H138774  -0.046   0.997   0.239
12943TIP3    H238775   0.063   1.082   0.178
12944TIP3   OH238776   5.893   5.291   0.132
12944TIP3    H138777   5.906   5.384   0.153
12944TIP3    H238778   5.799   5.277   0.144
12945TIP3   OH238779   3.750   5.045   6.004
12945TIP3    H138780   3.712   5.019   5.921
12945TIP3    H238781   3.703   4.993   6.070
12946TIP3   OH238782   0.623   7.602   4.776
12946TIP3    H138783   0.534   7.566   4.770
12946TIP3    H238784   0.648   7.588   4.867
12947TIP3   OH238785   6.436   0.895   5.356
12947TIP3    H138786   6.350   0.886   5.397
12947TIP3    H238787   6.498   0.879   5.428
12948TIP3   OH238788   7.555   1.371   5.661
12948TIP3    H138789   7.604   1.413   5.732
12948TIP3    H238790   7.474   1.420   5.655
12949TIP3   OH238791   5.007   6.121   3.536
12949TIP3    H138792   4.911   6.122   3.542
12949TIP3    H238793   5.030   6.204   3.496
12950TIP3   OH238794   0.071   1.562   2.685
12950TIP3    H138795   0.040   1.483   2.640
12950TIP3    H238796   0.140   1.530   2.744
12951TIP3   OH238797   2.520   6.481   2.411
12951TIP3    H138798   2.511   6.389   2.384
12951TIP3    H238799   2.455   6.528   2.359
12952TIP3   OH238800   7.475   7.237   1.443
12952TIP3    H138801   7.438   7.176   1.507
12952TIP3    H238802   7.513   7.307   1.495
12953TIP3   OH238803   5.006   3.450   4.568
12953TIP3    H138804   5.006   3.355   4.581
12953TIP3    H238805   4.956   3.484   4.642
12954TIP3   OH238806   5.529   4.725   2.245
12954TIP3    H138807   5.588   4.760   2.179
12954TIP3    H238808   5.445   4.715   2.200
12955TIP3   OH238809   3.527   2.966   3.435
12955TIP3    H138810   3.568   2.961   3.348
12955TIP3    H238811   3.589   3.015   3.488
12956TIP3   OH238812   1.913   5.771   5.298
12956TIP3    H138813   1.828   5.813   5.311
12956TIP3    H238814   1.965   5.835   5.249
12957TIP3   OH238815   1.851   4.681   0.854
12957TIP3    H138816   1.837   4.629   0.933
12957TIP3    H238817   1.845   4.618   0.782
12958TIP3   OH238818   6.422   7.460   1.022
12958TIP3    H138819   6.481   7.522   0.979
12958TIP3    H238820   6.336   7.478   0.983
12959TIP3   OH238821   6.710   7.335   5.939
12959TIP3    H138822   6.676   7.262   5.888
12959TIP3    H238823   6.796   7.354   5.901
12960TIP3   OH238824   6.383   2.614   6.783
12960TIP3    H138825   6.395   2.703   6.749
12960TIP3    H238826   6.459   2.566   6.751
12961TIP3   OH238827   2.387   6.255   3.223
12961TIP3    H138828   2.298   6.267   3.191
12961TIP3    H238829   2.390   6.307   3.304
12962TIP3   OH238830   5.004   4.151   5.548
12962TIP3    H138831   4.925   4.134   5.498
12962TIP3    H238832   5.032   4.238   5.520
12963TIP3   OH238833   5.360   7.526   4.006
12963TIP3    H138834   5.447   7.527   3.965
12963TIP3    H238835   5.298   7.529   3.933
12964TIP3   OH238836   7.635   3.224   2.741
12964TIP3    H138837   7.691   3.247   2.667
12964TIP3    H238838   7.548   3.255   2.715
12965TIP3   OH238839   1.081   0.932   1.205
12965TIP3    H138840   1.072   0.883   1.286
12965TIP3    H238841   1.018   0.892   1.145
12966TIP3   OH238842   0.254   0.904   3.840
12966TIP3    H138843   0.192   0.970   3.870
12966TIP3    H238844   0.219   0.876   3.755
12967TIP3   OH238845   8.092   3.291   5.277
12967TIP3    H138846   8.139   3.297   5.361
12967TIP3    H238847   8.160   3.271   5.213
12968TIP3   OH238848   3.651   5.346   3.321
12968TIP3    H138849   3.661   5.342   3.416
12968TIP3    H238850   3.686   5.432   3.297
12969TIP3   OH238851   1.297   3.761   5.002
12969TIP3    H138852   1.299   3.676   5.046
12969TIP3    H238853   1.339   3.746   4.918
12970TIP3   OH238854   6.490   1.306   3.814
12970TIP3    H138855   6.443   1.326   3.733
12970TIP3    H238856   6.519   1.391   3.847
12971TIP3   OH238857   4.073   4.537   0.598
12971TIP3    H138858   4.114   4.471   0.654
12971TIP3    H238859   4.073   4.617   0.651
12972TIP3   OH238860   0.218   1.721   0.687
12972TIP3    H138861   0.123   1.725   0.676
12972TIP3    H238862   0.252   1.714   0.597
12973TIP3   OH238863   0.688   2.473   0.204
12973TIP3    H138864   0.702   2.566   0.221
12973TIP3    H238865   0.712   2.461   0.112
12974TIP3   OH238866   6.722   4.039   5.717
12974TIP3    H138867   6.641   4.086   5.732
12974TIP3    H238868   6.716   3.962   5.775
12975TIP3   OH238869   4.181   1.795   0.352
12975TIP3    H138870   4.237   1.840   0.416
12975TIP3    H238871   4.229   1.716   0.330
12976TIP3   OH238872   1.682   3.215   5.277
12976TIP3    H138873   1.732   3.149   5.326
12976TIP3    H238874   1.748   3.259   5.223
12977TIP3   OH238875   1.642   7.638   5.085
12977TIP3    H138876   1.712   7.700   5.101
12977TIP3    H238877   1.653   7.611   4.994
12978TIP3   OH238878   6.983   1.637   3.691
12978TIP3    H138879   6.910   1.672   3.743
12978TIP3    H238880   6.945   1.562   3.645
12979TIP3   OH238881   7.788   4.811   4.635
12979TIP3    H138882   7.702   4.795   4.596
12979TIP3    H238883   7.785   4.902   4.664
12980TIP3   OH238884   3.177   7.309   5.941
12980TIP3    H138885   3.243   7.258   5.989
12980TIP3    H238886   3.139   7.367   6.007
12981TIP3   OH238887   1.102   2.030   0.569
12981TIP3    H138888   1.013   2.067   0.564
12981TIP3    H238889   1.090   1.946   0.612
12982TIP3   OH238890   5.946   1.270   0.333
12982TIP3    H138891   5.924   1.314   0.416
12982TIP3    H238892   5.866   1.224   0.309
12983TIP3   OH238893   7.646   3.341   6.573
12983TIP3    H138894   7.626   3.415   6.515
12983TIP3    H238895   7.707   3.287   6.523
12984TIP3   OH238896   4.042   7.055   2.255
12984TIP3    H138897   4.000   7.130   2.297
12984TIP3    H238898   4.041   7.076   2.161
12985TIP3   OH238899   3.159   2.676   1.580
12985TIP3    H138900   3.113   2.600   1.546
12985TIP3    H238901   3.173   2.656   1.673
12986TIP3   OH238902   4.897   2.019   3.464
12986TIP3    H138903   4.821   1.983   3.511
12986TIP3    H238904   4.929   2.089   3.521
12987TIP3   OH238905   3.394   7.336   0.262
12987TIP3    H138906   3.434   7.306   0.180
12987TIP3    H238907   3.467   7.351   0.321
12988TIP3   OH238908   7.080   1.950   3.439
12988TIP3    H138909   7.142   1.889   3.479
12988TIP3    H238910   7.002   1.897   3.420
12989TIP3   OH238911   3.676   6.244   6.511
12989TIP3    H138912   3.708   6.332   6.527
12989TIP3    H238913   3.724   6.214   6.433
12990TIP3   OH238914   1.222   4.232   5.720
12990TIP3    H138915   1.185   4.238   5.632
12990TIP3    H238916   1.295   4.171   5.711
12991TIP3   OH238917   7.296   0.810   1.723
12991TIP3    H138918   7.247   0.884   1.759
12991TIP3    H238919   7.272   0.808   1.631
12992TIP3   OH238920   0.528   2.205   2.644
12992TIP3    H138921   0.607   2.231   2.691
12992TIP3    H238922   0.475   2.284   2.639
12993TIP3   OH238923   3.321   2.899   4.946
12993TIP3    H138924   3.262   2.971   4.968
12993TIP3    H238925   3.389   2.902   5.013
12994TIP3   OH238926   7.261   6.505   3.406
12994TIP3    H138927   7.226   6.573   3.348
12994TIP3    H238928   7.336   6.547   3.449
12995TIP3   OH238929   2.196   4.676   1.272
12995TIP3    H138930   2.171   4.694   1.182
12995TIP3    H238931   2.287   4.645   1.266
12996TIP3   OH238932   4.769   7.423   3.305
12996TIP3    H138933   4.771   7.492   3.240
12996TIP3    H238934   4.861   7.401   3.320
12997TIP3   OH238935   4.848   5.247   3.672
12997TIP3    H138936   4.757   5.218   3.662
12997TIP3    H238937   4.851   5.283   3.761
12998TIP3   OH238938   1.199   4.191   5.993
12998TIP3    H138939   1.141   4.119   6.018
12998TIP3    H238940   1.206   4.185   5.898
12999TIP3   OH238941   0.005   2.692   3.183
12999TIP3    H138942  -0.009   2.601   3.209
12999TIP3    H238943   0.074   2.687   3.117
13000TIP3   OH238944   6.662   3.511   5.356
13000TIP3    H138945   6.631   3.462   5.432
13000TIP3    H238946   6.594   3.577   5.341
13001TIP3   OH238947   5.909   2.057   6.133
13001TIP3    H138948   5.934   2.147   6.113
13001TIP3    H238949   5.826   2.065   6.178
13002TIP3   OH238950   4.752   7.456   2.185
13002TIP3    H138951   4.711   7.531   2.141
13002TIP3    H238952   4.802   7.413   2.116
13003TIP3   OH238953   7.631   3.529   2.264
13003TIP3    H138954   7.651   3.595   2.330
13003TIP3    H238955   7.714   3.485   2.247
13004TIP3   OH238956   2.015   3.230   0.820
13004TIP3    H138957   1.954   3.242   0.893
13004TIP3    H238958   2.101   3.220   0.863
13005TIP3   OH238959   7.155   0.455   1.100
13005TIP3    H138960   7.232   0.473   1.155
13005TIP3    H238961   7.138   0.361   1.114
13006TIP3   OH238962   3.699   5.896   1.079
13006TIP3    H138963   3.686   5.987   1.104
13006TIP3    H238964   3.610   5.862   1.068
13007TIP3   OH238965   0.881   0.303   3.060
13007TIP3    H138966   0.870   0.369   3.129
13007TIP3    H238967   0.952   0.248   3.092
13008TIP3   OH238968   8.244   1.401   1.976
13008TIP3    H138969   8.172   1.346   2.005
13008TIP3    H238970   8.213   1.438   1.893
13009TIP3   OH238971   5.038   6.878   1.589
13009TIP3    H138972   4.974   6.874   1.518
13009TIP3    H238973   5.098   6.806   1.571
13010TIP3   OH238974   3.787   2.263   5.528
13010TIP3    H138975   3.788   2.343   5.475
13010TIP3    H238976   3.807   2.293   5.617
13011TIP3   OH238977   5.268   7.791   3.678
13011TIP3    H138978   5.275   7.716   3.737
13011TIP3    H238979   5.176   7.791   3.650
13012TIP3   OH238980   5.407   1.239   1.449
13012TIP3    H138981   5.358   1.316   1.420
13012TIP3    H238982   5.360   1.165   1.410
13013TIP3   OH238983   2.977   6.450   4.658
13013TIP3    H138984   3.070   6.468   4.665
13013TIP3    H238985   2.970   6.385   4.588
13014TIP3   OH238986   7.492   3.784   1.235
13014TIP3    H138987   7.461   3.834   1.310
13014TIP3    H238988   7.588   3.790   1.240
13015TIP3   OH238989   0.072   4.725   5.435
13015TIP3    H138990  -0.001   4.720   5.374
13015TIP3    H238991   0.089   4.635   5.461
13016TIP3   OH238992   6.739   7.293   5.413
13016TIP3    H138993   6.783   7.349   5.477
13016TIP3    H238994   6.811   7.251   5.366
13017TIP3   OH238995   5.665   3.598   6.214
13017TIP3    H138996   5.679   3.667   6.279
13017TIP3    H238997   5.750   3.554   6.207
13018TIP3   OH238998   3.484   1.248   3.366
13018TIP3    H138999   3.489   1.152   3.359
13018TIP3    H239000   3.568   1.274   3.405
13019TIP3   OH239001   2.247   5.534   4.422
13019TIP3    H139002   2.173   5.593   4.439
13019TIP3    H239003   2.309   5.588   4.373
13020TIP3   OH239004   0.230   3.442   6.595
13020TIP3    H139005   0.159   3.504   6.578
13020TIP3    H239006   0.297   3.465   6.532
13021TIP3   OH239007   3.413   6.271   0.933
13021TIP3    H139008   3.504   6.244   0.945
13021TIP3    H239009   3.409   6.359   0.972
13022TIP3   OH239010   1.268   4.985   4.705
13022TIP3    H139011   1.177   4.959   4.720
13022TIP3    H239012   1.307   4.988   4.793
13023TIP3   OH239013   3.932   1.254   6.123
13023TIP3    H139014   3.960   1.259   6.214
13023TIP3    H239015   3.943   1.161   6.100
13024TIP3   OH239016   5.754   5.740   5.387
13024TIP3    H139017   5.848   5.749   5.371
13024TIP3    H239018   5.747   5.720   5.481
13025TIP3   OH239019   4.576   1.170   0.181
13025TIP3    H139020   4.659   1.160   0.227
13025TIP3    H239021   4.594   1.136   0.093
13026TIP3   OH239022   1.308   4.827   2.804
13026TIP3    H139023   1.297   4.732   2.809
13026TIP3    H239024   1.275   4.850   2.717
13027TIP3   OH239025   5.344   2.047   0.523
13027TIP3    H139026   5.395   1.981   0.475
13027TIP3    H239027   5.360   2.128   0.475
13028TIP3   OH239028   1.988   3.441   1.570
13028TIP3    H139029   2.041   3.387   1.512
13028TIP3    H239030   1.935   3.379   1.620
13029TIP3   OH239031   6.424   3.697   2.512
13029TIP3    H139032   6.483   3.624   2.492
13029TIP3    H239033   6.479   3.761   2.557
13030TIP3   OH239034   7.857   3.054   1.895
13030TIP3    H139035   7.813   2.994   1.955
13030TIP3    H239036   7.924   3.000   1.852
13031TIP3   OH239037   7.685   0.153   3.687
13031TIP3    H139038   7.681   0.061   3.661
13031TIP3    H239039   7.778   0.176   3.682
13032TIP3   OH239040   0.183   6.256   6.557
13032TIP3    H139041   0.259   6.200   6.539
13032TIP3    H239042   0.173   6.252   6.653
13033TIP3   OH239043   2.583   1.567   2.362
13033TIP3    H139044   2.602   1.603   2.448
13033TIP3    H239045   2.662   1.584   2.311
13034TIP3   OH239046   1.507   7.015   0.727
13034TIP3    H139047   1.540   6.980   0.810
13034TIP3    H239048   1.584   7.051   0.684
13035TIP3   OH239049   1.898   5.242   4.913
13035TIP3    H139050   1.993   5.240   4.901
13035TIP3    H239051   1.883   5.313   4.975
13036TIP3   OH239052   1.450   6.770   4.475
13036TIP3    H139053   1.500   6.841   4.435
13036TIP3    H239054   1.365   6.810   4.496
13037TIP3   OH239055   8.313   4.520   4.028
13037TIP3    H139056   8.271   4.504   4.112
13037TIP3    H239057   8.264   4.594   3.990
13038TIP3   OH239058   2.244   5.945   4.684
13038TIP3    H139059   2.292   5.865   4.706
13038TIP3    H239060   2.247   5.948   4.588
13039TIP3   OH239061   8.053   1.007   1.909
13039TIP3    H139062   8.035   1.078   1.971
13039TIP3    H239063   8.019   0.929   1.952
13040TIP3   OH239064   2.777   5.031   2.028
13040TIP3    H139065   2.720   5.028   1.951
13040TIP3    H239066   2.719   5.055   2.100
13041TIP3   OH239067   3.795   1.702   3.885
13041TIP3    H139068   3.839   1.769   3.937
13041TIP3    H239069   3.758   1.750   3.811
13042TIP3   OH239070   6.682   4.542   0.516
13042TIP3    H139071   6.725   4.506   0.594
13042TIP3    H239072   6.749   4.540   0.448
13043TIP3   OH239073   0.567   4.807   0.106
13043TIP3    H139074   0.538   4.855   0.028
13043TIP3    H239075   0.567   4.715   0.079
13044TIP3   OH239076   6.187   4.111   2.750
13044TIP3    H139077   6.106   4.159   2.734
13044TIP3    H239078   6.256   4.175   2.736
13045TIP3   OH239079   2.371   7.821   1.014
13045TIP3    H139080   2.282   7.791   0.992
13045TIP3    H239081   2.428   7.752   0.981
13046TIP3   OH239082   5.885   4.567   5.331
13046TIP3    H139083   5.873   4.640   5.391
13046TIP3    H239084   5.804   4.562   5.281
13047TIP3   OH239085   4.081   3.808   1.206
13047TIP3    H139086   4.163   3.777   1.167
13047TIP3    H239087   4.067   3.751   1.282
13048TIP3   OH239088   6.546   1.592   0.113
13048TIP3    H139089   6.599   1.641   0.175
13048TIP3    H239090   6.517   1.657   0.049
13049TIP3   OH239091   2.987   2.627   0.217
13049TIP3    H139092   3.007   2.635   0.310
13049TIP3    H239093   2.928   2.552   0.212
13050TIP3   OH239094   4.467   7.588   0.920
13050TIP3    H139095   4.419   7.660   0.878
13050TIP3    H239096   4.477   7.523   0.851
13051TIP3   OH239097   0.486   5.934   6.340
13051TIP3    H139098   0.572   5.903   6.312
13051TIP3    H239099   0.424   5.884   6.287
13052TIP3   OH239100   2.543   2.469   4.449
13052TIP3    H139101   2.608   2.402   4.434
13052TIP3    H239102   2.459   2.424   4.438
13053TIP3   OH239103   4.770   6.937   3.269
13053TIP3    H139104   4.719   6.889   3.334
13053TIP3    H239105   4.831   6.991   3.320
13054TIP3   OH239106   4.527   4.471   6.601
13054TIP3    H139107   4.564   4.382   6.595
13054TIP3    H239108   4.526   4.489   6.695
13055TIP3   OH239109   0.798   1.105   2.055
13055TIP3    H139110   0.774   1.198   2.053
13055TIP3    H239111   0.880   1.100   2.006
13056TIP3   OH239112   7.415   0.692  -0.009
13056TIP3    H139113   7.502   0.655  -0.020
13056TIP3    H239114   7.394   0.677   0.083
13057TIP3   OH239115   7.800   1.949   0.816
13057TIP3    H139116   7.777   2.041   0.802
13057TIP3    H239117   7.896   1.948   0.813
13058TIP3   OH239118   0.326   4.191   3.654
13058TIP3    H139119   0.370   4.113   3.686
13058TIP3    H239120   0.235   4.165   3.644
13059TIP3   OH239121   6.755   0.091   6.477
13059TIP3    H139122   6.660   0.085   6.478
13059TIP3    H239123   6.777   0.099   6.384
13060TIP3   OH239124   5.643   0.182   1.533
13060TIP3    H139125   5.577   0.140   1.478
13060TIP3    H239126   5.683   0.248   1.476
13061TIP3   OH239127   1.670   3.568   4.572
13061TIP3    H139128   1.744   3.508   4.562
13061TIP3    H239129   1.639   3.554   4.661
13062TIP3   OH239130   3.974   1.060   5.150
13062TIP3    H139131   3.892   1.108   5.143
13062TIP3    H239132   4.032   1.102   5.087
13063TIP3   OH239133   2.507   1.608   3.688
13063TIP3    H139134   2.580   1.632   3.630
13063TIP3    H239135   2.482   1.520   3.660
13064TIP3   OH239136   2.240   2.113   6.183
13064TIP3    H139137   2.204   2.112   6.272
13064TIP3    H239138   2.179   2.168   6.133
13065TIP3   OH239139   6.777   1.264   5.655
13065TIP3    H139140   6.732   1.247   5.572
13065TIP3    H239141   6.707   1.275   5.719
13066TIP3   OH239142   3.673   3.586   6.234
13066TIP3    H139143   3.578   3.601   6.228
13066TIP3    H239144   3.710   3.640   6.163
13067TIP3   OH239145   4.026   3.537   6.263
13067TIP3    H139146   3.949   3.595   6.270
13067TIP3    H239147   4.050   3.542   6.170
13068TIP3   OH239148   3.594   0.790   2.646
13068TIP3    H139149   3.569   0.707   2.686
13068TIP3    H239150   3.516   0.845   2.655
13069TIP3   OH239151   5.183   4.994   6.300
13069TIP3    H139152   5.263   5.046   6.296
13069TIP3    H239153   5.182   4.944   6.219
13070TIP3   OH239154   0.328   7.006   4.621
13070TIP3    H139155   0.407   7.009   4.675
13070TIP3    H239156   0.285   7.090   4.637
13071TIP3   OH239157   2.553   5.178   0.252
13071TIP3    H139158   2.598   5.256   0.220
13071TIP3    H239159   2.520   5.203   0.339
13072TIP3   OH239160   6.535   1.013   5.603
13072TIP3    H139161   6.594   0.995   5.676
13072TIP3    H239162   6.466   1.068   5.641
13073TIP3   OH239163   2.751   3.694   0.526
13073TIP3    H139164   2.730   3.654   0.442
13073TIP3    H239165   2.847   3.699   0.527
13074TIP3   OH239166   3.809   3.387   6.570
13074TIP3    H139167   3.783   3.478   6.553
13074TIP3    H239168   3.742   3.334   6.526
13075TIP3   OH239169   1.574   0.262   6.029
13075TIP3    H139170   1.560   0.201   6.101
13075TIP3    H239171   1.647   0.317   6.058
13076TIP3   OH239172   1.129   6.679   1.555
13076TIP3    H139173   1.224   6.679   1.570
13076TIP3    H239174   1.116   6.620   1.481
13077TIP3   OH239175   2.655   2.813   1.998
13077TIP3    H139176   2.720   2.841   2.063
13077TIP3    H239177   2.703   2.757   1.938
13078TIP3   OH239178   2.923   3.789   6.600
13078TIP3    H139179   3.015   3.796   6.572
13078TIP3    H239180   2.881   3.736   6.533
13079TIP3   OH239181   6.921   0.270   5.197
13079TIP3    H139182   6.878   0.248   5.115
13079TIP3    H239183   7.011   0.291   5.173
13080TIP3   OH239184   0.316   5.908   2.014
13080TIP3    H139185   0.380   5.944   2.075
13080TIP3    H239186   0.255   5.980   1.998
13081TIP3   OH239187   2.802   7.108   1.238
13081TIP3    H139188   2.736   7.156   1.288
13081TIP3    H239189   2.845   7.176   1.185
13082TIP3   OH239190   4.758   5.536   4.252
13082TIP3    H139191   4.763   5.621   4.208
13082TIP3    H239192   4.679   5.541   4.306
13083TIP3   OH239193   6.659   3.125   3.172
13083TIP3    H139194   6.648   3.042   3.219
13083TIP3    H239195   6.740   3.114   3.122
13084TIP3   OH239196   4.352   0.633   0.177
13084TIP3    H139197   4.333   0.612   0.269
13084TIP3    H239198   4.444   0.657   0.177
13085TIP3   OH239199   0.100   3.134   1.891
13085TIP3    H139200   0.121   3.110   1.801
13085TIP3    H239201   0.075   3.052   1.934
13086TIP3   OH239202   3.533   6.861   4.553
13086TIP3    H139203   3.560   6.878   4.644
13086TIP3    H239204   3.442   6.891   4.550
13087TIP3   OH239205   2.561   7.561   1.177
13087TIP3    H139206   2.566   7.554   1.081
13087TIP3    H239207   2.621   7.495   1.209
13088TIP3   OH239208   2.232   2.357   1.120
13088TIP3    H139209   2.155   2.318   1.078
13088TIP3    H239210   2.201   2.441   1.155
13089TIP3   OH239211   2.947   5.978   5.305
13089TIP3    H139212   2.953   6.006   5.396
13089TIP3    H239213   3.038   5.974   5.275
13090TIP3   OH239214   4.048   5.620   4.603
13090TIP3    H139215   4.079   5.594   4.690
13090TIP3    H239216   4.073   5.712   4.596
13091TIP3   OH239217   6.117   1.792   4.193
13091TIP3    H139218   6.121   1.877   4.238
13091TIP3    H239219   6.206   1.779   4.160
13092TIP3   OH239220   2.285   4.590   1.623
13092TIP3    H139221   2.316   4.617   1.536
13092TIP3    H239222   2.237   4.509   1.607
13093TIP3   OH239223   4.395   5.613   1.834
13093TIP3    H139224   4.390   5.532   1.783
13093TIP3    H239225   4.463   5.665   1.791
13094TIP3   OH239226   1.503   1.784   6.062
13094TIP3    H139227   1.558   1.734   6.001
13094TIP3    H239228   1.459   1.848   6.007
13095TIP3   OH239229   3.772   1.910   1.412
13095TIP3    H139230   3.831   1.980   1.440
13095TIP3    H239231   3.828   1.832   1.411
13096TIP3   OH239232   7.019   6.704   5.645
13096TIP3    H139233   7.089   6.645   5.674
13096TIP3    H239234   7.054   6.792   5.659
13097TIP3   OH239235   3.922   2.927   5.878
13097TIP3    H139236   3.975   2.984   5.933
13097TIP3    H239237   3.959   2.938   5.790
13098TIP3   OH239238   4.663   3.941   3.489
13098TIP3    H139239   4.608   3.870   3.521
13098TIP3    H239240   4.603   4.012   3.470
13099TIP3   OH239241   2.222   0.928   5.608
13099TIP3    H139242   2.213   0.969   5.695
13099TIP3    H239243   2.165   0.851   5.613
13100TIP3   OH239244   7.432   4.470   6.710
13100TIP3    H139245   7.399   4.557   6.733
13100TIP3    H239246   7.478   4.441   6.789
13101TIP3   OH239247   5.461   0.383   6.624
13101TIP3    H139248   5.504   0.445   6.566
13101TIP3    H239249   5.511   0.387   6.705
13102TIP3   OH239250   0.314   5.082   0.853
13102TIP3    H139251   0.247   5.148   0.835
13102TIP3    H239252   0.372   5.085   0.777
13103TIP3   OH239253   0.390   3.042   1.960
13103TIP3    H139254   0.484   3.059   1.965
13103TIP3    H239255   0.358   3.059   2.048
13104TIP3   OH239256   7.292   3.256   2.256
13104TIP3    H139257   7.221   3.206   2.295
13104TIP3    H239258   7.269   3.262   2.163
13105TIP3   OH239259   2.028   0.797   0.287
13105TIP3    H139260   1.977   0.856   0.231
13105TIP3    H239261   2.112   0.843   0.300
13106TIP3   OH239262   2.077   6.782   0.190
13106TIP3    H139263   2.021   6.757   0.116
13106TIP3    H239264   2.166   6.779   0.155
13107TIP3   OH239265   2.616   1.911   4.980
13107TIP3    H139266   2.673   1.963   5.036
13107TIP3    H239267   2.655   1.918   4.893
13108TIP3   OH239268   4.522   1.799   0.888
13108TIP3    H139269   4.520   1.704   0.899
13108TIP3    H239270   4.548   1.832   0.974
13109TIP3   OH239271   2.805   2.773   2.552
13109TIP3    H139272   2.863   2.808   2.484
13109TIP3    H239273   2.822   2.679   2.552
13110TIP3   OH239274   1.352   0.406   1.959
13110TIP3    H139275   1.383   0.371   2.043
13110TIP3    H239276   1.285   0.344   1.930
13111TIP3   OH239277   6.860   2.225   4.308
13111TIP3    H139278   6.774   2.187   4.323
13111TIP3    H239279   6.872   2.220   4.213
13112TIP3   OH239280   0.173   4.119   4.496
13112TIP3    H139281   0.202   4.087   4.411
13112TIP3    H239282   0.078   4.119   4.491
13113TIP3   OH239283   4.850   0.402   5.258
13113TIP3    H139284   4.764   0.437   5.236
13113TIP3    H239285   4.880   0.456   5.331
13114TIP3   OH239286   6.516   3.572   0.519
13114TIP3    H139287   6.579   3.524   0.572
13114TIP3    H239288   6.445   3.593   0.580
13115TIP3   OH239289   5.204   0.029   0.285
13115TIP3    H139290   5.154   0.063   0.210
13115TIP3    H239291   5.189   0.093   0.354
13116TIP3   OH239292   3.224   4.928   3.823
13116TIP3    H139293   3.140   4.937   3.779
13116TIP3    H239294   3.240   4.833   3.825
13117TIP3   OH239295   7.128   6.781   3.506
13117TIP3    H139296   7.051   6.836   3.493
13117TIP3    H239297   7.108   6.730   3.584
13118TIP3   OH239298   2.622   3.846   0.087
13118TIP3    H139299   2.655   3.777   0.029
13118TIP3    H239300   2.637   3.812   0.176
13119TIP3   OH239301   0.188   1.464   2.082
13119TIP3    H139302   0.166   1.503   2.167
13119TIP3    H239303   0.103   1.444   2.042
13120TIP3   OH239304   5.342   2.753   5.600
13120TIP3    H139305   5.389   2.706   5.668
13120TIP3    H239306   5.403   2.821   5.571
13121TIP3   OH239307   6.982   1.485   0.044
13121TIP3    H139308   6.961   1.563   0.096
13121TIP3    H239309   6.922   1.489  -0.031
13122TIP3   OH239310   2.619   6.912   3.192
13122TIP3    H139311   2.579   6.863   3.120
13122TIP3    H239312   2.700   6.864   3.211
13123TIP3   OH239313   6.846   7.531   3.578
13123TIP3    H139314   6.928   7.552   3.622
13123TIP3    H239315   6.854   7.572   3.491
13124TIP3   OH239316   3.820   1.961   4.578
13124TIP3    H139317   3.757   1.912   4.631
13124TIP3    H239318   3.905   1.936   4.613
13125TIP3   OH239319   7.488   7.024   1.694
13125TIP3    H139320   7.451   7.014   1.781
13125TIP3    H239321   7.441   6.960   1.640
13126TIP3   OH239322   4.385   1.929   3.761
13126TIP3    H139323   4.335   1.874   3.821
13126TIP3    H239324   4.458   1.873   3.733
13127TIP3   OH239325   6.859   3.518   6.583
13127TIP3    H139326   6.857   3.431   6.622
13127TIP3    H239327   6.952   3.539   6.577
13128TIP3   OH239328   7.180   3.761   1.463
13128TIP3    H139329   7.140   3.732   1.545
13128TIP3    H239330   7.238   3.690   1.437
13129TIP3   OH239331   4.839   6.702   4.630
13129TIP3    H139332   4.756   6.742   4.602
13129TIP3    H239333   4.864   6.751   4.708
13130TIP3   OH239334   7.619   2.992   6.602
13130TIP3    H139335   7.621   2.904   6.639
13130TIP3    H239336   7.614   2.978   6.507
13131TIP3   OH239337   2.759   2.455   0.548
13131TIP3    H139338   2.740   2.421   0.460
13131TIP3    H239339   2.748   2.379   0.605
13132TIP3   OH239340   8.051   3.742   0.920
13132TIP3    H139341   8.086   3.706   1.001
13132TIP3    H239342   8.050   3.668   0.859
13133TIP3   OH239343   6.804   6.663   4.955
13133TIP3    H139344   6.823   6.676   4.862
13133TIP3    H239345   6.778   6.750   4.987
13134TIP3   OH239346   2.104   6.288   3.623
13134TIP3    H139347   2.130   6.380   3.632
13134TIP3    H239348   2.023   6.291   3.571
13135TIP3   OH239349   4.897   4.023   4.407
13135TIP3    H139350   4.910   3.936   4.445
13135TIP3    H239351   4.824   4.060   4.456
13136TIP3   OH239352   6.587   4.573   2.891
13136TIP3    H139353   6.509   4.518   2.882
13136TIP3    H239354   6.553   4.661   2.904
13137TIP3   OH239355   6.348   3.831   2.889
13137TIP3    H139356   6.360   3.919   2.925
13137TIP3    H239357   6.432   3.811   2.847
13138TIP3   OH239358   2.394   6.637   4.499
13138TIP3    H139359   2.300   6.640   4.517
13138TIP3    H239360   2.430   6.716   4.539
13139TIP3   OH239361   4.747   5.637   2.193
13139TIP3    H139362   4.666   5.630   2.244
13139TIP3    H239363   4.798   5.703   2.239
13140TIP3   OH239364   1.984   4.553   1.747
13140TIP3    H139365   1.982   4.543   1.842
13140TIP3    H239366   2.034   4.633   1.732
13141TIP3   OH239367   7.386   6.133   4.961
13141TIP3    H139368   7.297   6.098   4.972
13141TIP3    H239369   7.376   6.197   4.890
13142TIP3   OH239370   0.433   0.665   3.830
13142TIP3    H139371   0.461   0.645   3.920
13142TIP3    H239372   0.363   0.729   3.840
13143TIP3   OH239373   4.591   1.085   6.036
13143TIP3    H139374   4.529   1.156   6.021
13143TIP3    H239375   4.617   1.058   5.947
13144TIP3   OH239376   1.668   4.653   5.506
13144TIP3    H139377   1.717   4.590   5.453
13144TIP3    H239378   1.612   4.699   5.443
13145TIP3   OH239379   5.998   5.722   2.614
13145TIP3    H139380   6.047   5.801   2.592
13145TIP3    H239381   5.951   5.700   2.534
13146TIP3   OH239382   8.129   6.585   1.732
13146TIP3    H139383   8.050   6.531   1.741
13146TIP3    H239384   8.137   6.601   1.638
13147TIP3   OH239385   0.306   0.581   0.320
13147TIP3    H139386   0.355   0.530   0.384
13147TIP3    H239387   0.225   0.606   0.365
13148TIP3   OH239388   0.547   6.581   3.088
13148TIP3    H139389   0.485   6.649   3.061
13148TIP3    H239390   0.506   6.540   3.164
13149TIP3   OH239391   6.084   5.333   2.645
13149TIP3    H139392   6.174   5.307   2.621
13149TIP3    H239393   6.083   5.329   2.740
13150TIP3   OH239394   6.651   1.798   6.700
13150TIP3    H139395   6.708   1.755   6.764
13150TIP3    H239396   6.585   1.733   6.679
13151TIP3   OH239397   1.305   4.969   3.041
13151TIP3    H139398   1.294   4.911   2.966
13151TIP3    H239399   1.247   5.043   3.023
13152TIP3   OH239400   3.894   5.841   4.904
13152TIP3    H139401   3.905   5.926   4.861
13152TIP3    H239402   3.984   5.812   4.921
13153TIP3   OH239403   1.999   2.773   1.806
13153TIP3    H139404   1.904   2.770   1.796
13153TIP3    H239405   2.033   2.760   1.718
13154TIP3   OH239406   8.113   0.452   0.368
13154TIP3    H139407   8.094   0.392   0.296
13154TIP3    H239408   8.207   0.443   0.382
13155TIP3   OH239409   3.699   2.903   6.717
13155TIP3    H139410   3.636   2.965   6.754
13155TIP3    H239411   3.726   2.944   6.634
13156TIP3   OH239412   7.959   5.973   0.886
13156TIP3    H139413   7.912   6.057   0.883
13156TIP3    H239414   7.964   5.945   0.795
13157TIP3   OH239415   7.337   6.735   5.929
13157TIP3    H139416   7.246   6.756   5.951
13157TIP3    H239417   7.387   6.811   5.959
13158TIP3   OH239418   7.335   4.757   1.529
13158TIP3    H139419   7.367   4.761   1.439
13158TIP3    H239420   7.352   4.845   1.564
13159TIP3   OH239421   1.364   2.647   4.626
13159TIP3    H139422   1.274   2.634   4.596
13159TIP3    H239423   1.389   2.733   4.593
13160TIP3   OH239424   3.679   3.442   5.698
13160TIP3    H139425   3.598   3.391   5.697
13160TIP3    H239426   3.718   3.423   5.784
13161TIP3   OH239427   1.563   4.530   1.955
13161TIP3    H139428   1.607   4.462   1.903
13161TIP3    H239429   1.527   4.483   2.030
13162TIP3   OH239430   4.943   5.783   2.833
13162TIP3    H139431   5.032   5.783   2.797
13162TIP3    H239432   4.930   5.695   2.867
13163TIP3   OH239433   6.424   1.472   5.282
13163TIP3    H139434   6.367   1.501   5.211
13163TIP3    H239435   6.435   1.378   5.267
13164TIP3   OH239436   2.567   2.031   2.158
13164TIP3    H139437   2.475   2.018   2.184
13164TIP3    H239438   2.563   2.093   2.086
13165TIP3   OH239439   7.204   2.285   5.269
13165TIP3    H139440   7.284   2.242   5.299
13165TIP3    H239441   7.220   2.302   5.176
13166TIP3   OH239442   0.370   2.158   5.787
13166TIP3    H139443   0.356   2.096   5.714
13166TIP3    H239444   0.465   2.159   5.799
13167TIP3   OH239445   7.912   0.169   3.488
13167TIP3    H139446   7.966   0.243   3.463
13167TIP3    H239447   7.840   0.169   3.424
13168TIP3   OH239448   4.377   7.163   1.980
13168TIP3    H139449   4.455   7.108   1.987
13168TIP3    H239450   4.411   7.252   1.984
13169TIP3   OH239451   0.884   6.899   1.075
13169TIP3    H139452   0.873   6.990   1.104
13169TIP3    H239453   0.954   6.904   1.010
13170TIP3   OH239454   1.734   6.489   5.978
13170TIP3    H139455   1.766   6.540   6.052
13170TIP3    H239456   1.812   6.445   5.944
13171TIP3   OH239457   6.957   4.312   2.905
13171TIP3    H139458   6.894   4.362   2.956
13171TIP3    H239459   7.040   4.357   2.919
13172TIP3   OH239460   5.757   2.670   6.362
13172TIP3    H139461   5.674   2.634   6.332
13172TIP3    H239462   5.824   2.623   6.312
13173TIP3   OH239463   2.472   5.474   5.836
13173TIP3    H139464   2.420   5.397   5.812
13173TIP3    H239465   2.517   5.498   5.755
13174TIP3   OH239466   5.662   5.562   1.003
13174TIP3    H139467   5.704   5.570   0.917
13174TIP3    H239468   5.580   5.517   0.985
13175TIP3   OH239469   2.376   5.058   4.421
13175TIP3    H139470   2.460   5.017   4.438
13175TIP3    H239471   2.352   5.029   4.333
13176TIP3   OH239472   7.787   5.366   4.566
13176TIP3    H139473   7.750   5.362   4.478
13176TIP3    H239474   7.739   5.301   4.616
13177TIP3   OH239475   0.657   1.048   2.485
13177TIP3    H139476   0.636   1.123   2.428
13177TIP3    H239477   0.595   1.055   2.557
13178TIP3   OH239478   7.186   7.057   0.212
13178TIP3    H139479   7.276   7.048   0.180
13178TIP3    H239480   7.193   7.116   0.287
13179TIP3   OH239481   5.090   6.056   5.902
13179TIP3    H139482   5.127   5.976   5.941
13179TIP3    H239483   5.093   6.041   5.808
13180TIP3   OH239484   5.273   0.720   3.745
13180TIP3    H139485   5.188   0.679   3.762
13180TIP3    H239486   5.305   0.676   3.666
13181TIP3   OH239487   4.689   5.441   3.054
13181TIP3    H139488   4.667   5.451   2.961
13181TIP3    H239489   4.605   5.423   3.096
13182TIP3   OH239490   5.057   3.065   4.066
13182TIP3    H139491   5.118   3.123   4.022
13182TIP3    H239492   4.973   3.081   4.024
13183TIP3   OH239493   0.120   6.411   5.160
13183TIP3    H139494   0.087   6.323   5.139
13183TIP3    H239495   0.076   6.434   5.241
13184TIP3   OH239496   1.494   4.229   3.549
13184TIP3    H139497   1.461   4.310   3.509
13184TIP3    H239498   1.577   4.254   3.588
13185TIP3   OH239499   6.383   7.637   1.739
13185TIP3    H139500   6.451   7.610   1.802
13185TIP3    H239501   6.370   7.730   1.756
13186TIP3   OH239502   3.698   0.212   6.518
13186TIP3    H139503   3.707   0.229   6.424
13186TIP3    H239504   3.694   0.299   6.557
13187TIP3   OH239505   7.447   3.398   6.013
13187TIP3    H139506   7.364   3.375   5.972
13187TIP3    H239507   7.448   3.494   6.012
13188TIP3   OH239508   2.447   6.406   1.338
13188TIP3    H139509   2.448   6.485   1.283
13188TIP3    H239510   2.538   6.376   1.337
13189TIP3   OH239511   3.111   1.565   5.433
13189TIP3    H139512   3.121   1.646   5.383
13189TIP3    H239513   3.136   1.589   5.522
13190TIP3   OH239514   2.428   4.507   3.282
13190TIP3    H139515   2.392   4.425   3.249
13190TIP3    H239516   2.484   4.481   3.355
13191TIP3   OH239517   6.224   4.001   4.443
13191TIP3    H139518   6.187   3.950   4.515
13191TIP3    H239519   6.149   4.031   4.392
13192TIP3   OH239520   1.608   2.021   3.675
13192TIP3    H139521   1.687   2.028   3.620
13192TIP3    H239522   1.627   1.949   3.734
13193TIP3   OH239523   4.416   3.737   0.798
13193TIP3    H139524   4.447   3.761   0.711
13193TIP3    H239525   4.479   3.671   0.828
13194TIP3   OH239526   3.877   2.774   0.943
13194TIP3    H139527   3.948   2.815   0.992
13194TIP3    H239528   3.801   2.779   1.001
13195TIP3   OH239529   6.046   0.966   1.230
13195TIP3    H139530   5.999   1.037   1.274
13195TIP3    H239531   5.978   0.919   1.181
13196TIP3   OH239532   0.971   2.039   5.297
13196TIP3    H139533   0.892   2.055   5.247
13196TIP3    H239534   1.042   2.074   5.243
13197TIP3   OH239535   0.927   5.895   6.458
13197TIP3    H139536   0.983   5.961   6.418
13197TIP3    H239537   0.979   5.860   6.531
13198TIP3   OH239538   6.160   4.153   5.090
13198TIP3    H139539   6.143   4.121   5.178
13198TIP3    H239540   6.080   4.133   5.041
13199TIP3   OH239541   4.774   7.142   0.470
13199TIP3    H139542   4.725   7.066   0.501
13199TIP3    H239543   4.748   7.152   0.378
13200TIP3   OH239544   6.540   7.148   1.385
13200TIP3    H139545   6.445   7.153   1.380
13200TIP3    H239546   6.570   7.160   1.295
13201TIP3   OH239547   1.028   0.735   5.171
13201TIP3    H139548   1.006   0.810   5.227
13201TIP3    H239549   0.948   0.718   5.121
13202TIP3   OH239550   5.374   0.997   6.612
13202TIP3    H139551   5.397   0.915   6.568
13202TIP3    H239552   5.435   1.004   6.685
13203TIP3   OH239553   5.153   0.383   1.530
13203TIP3    H139554   5.169   0.431   1.448
13203TIP3    H239555   5.185   0.294   1.512
13204TIP3   OH239556   0.927   2.792   1.227
13204TIP3    H139557   0.867   2.830   1.291
13204TIP3    H239558   0.902   2.833   1.144
13205TIP3   OH239559   5.921   4.025   1.469
13205TIP3    H139560   5.975   4.065   1.401
13205TIP3    H239561   5.947   3.933   1.469
13206TIP3   OH239562   2.640   1.920   4.173
13206TIP3    H139563   2.642   1.827   4.193
13206TIP3    H239564   2.704   1.959   4.232
13207TIP3   OH239565   4.735   6.198   3.457
13207TIP3    H139566   4.764   6.144   3.383
13207TIP3    H239567   4.640   6.204   3.445
13208TIP3   OH239568   5.882   6.449   1.026
13208TIP3    H139569   5.829   6.370   1.012
13208TIP3    H239570   5.841   6.516   0.972
13209TIP3   OH239571   4.610   4.243   0.404
13209TIP3    H139572   4.564   4.185   0.464
13209TIP3    H239573   4.609   4.197   0.320
13210TIP3   OH239574   0.840   6.333   1.817
13210TIP3    H139575   0.838   6.397   1.746
13210TIP3    H239576   0.757   6.288   1.811
13211TIP3   OH239577   1.486   0.810   4.072
13211TIP3    H139578   1.572   0.805   4.031
13211TIP3    H239579   1.486   0.740   4.137
13212TIP3   OH239580   5.274   2.437   0.633
13212TIP3    H139581   5.314   2.398   0.555
13212TIP3    H239582   5.286   2.531   0.622
13213TIP3   OH239583   6.836   3.857   5.016
13213TIP3    H139584   6.862   3.889   4.929
13213TIP3    H239585   6.825   3.763   5.004
13214TIP3   OH239586   5.251   4.918   2.168
13214TIP3    H139587   5.206   4.960   2.095
13214TIP3    H239588   5.201   4.839   2.185
13215TIP3   OH239589   5.031   4.201   3.946
13215TIP3    H139590   4.977   4.176   3.872
13215TIP3    H239591   5.119   4.213   3.910
13216TIP3   OH239592   1.135   0.576   4.552
13216TIP3    H139593   1.185   0.545   4.476
13216TIP3    H239594   1.193   0.559   4.626
13217TIP3   OH239595   8.159   6.003   0.208
13217TIP3    H139596   8.100   5.998   0.133
13217TIP3    H239597   8.104   5.985   0.284
13218TIP3   OH239598   7.321   6.021   4.230
13218TIP3    H139599   7.285   6.090   4.175
13218TIP3    H239600   7.276   5.941   4.200
13219TIP3   OH239601   5.571   0.297   3.456
13219TIP3    H139602   5.585   0.374   3.401
13219TIP3    H239603   5.535   0.231   3.396
13220TIP3   OH239604   7.507   5.007   2.378
13220TIP3    H139605   7.476   5.097   2.365
13220TIP3    H239606   7.451   4.954   2.322
13221TIP3   OH239607   2.883   5.337   0.991
13221TIP3    H139608   2.949   5.381   1.044
13221TIP3    H239609   2.904   5.362   0.901
13222TIP3   OH239610   0.536   2.613   4.308
13222TIP3    H139611   0.450   2.573   4.321
13222TIP3    H239612   0.575   2.619   4.395
13223TIP3   OH239613   4.402   2.431   5.749
13223TIP3    H139614   4.386   2.355   5.694
13223TIP3    H239615   4.495   2.449   5.740
13224TIP3   OH239616   6.702   2.038   5.584
13224TIP3    H139617   6.762   1.967   5.561
13224TIP3    H239618   6.643   1.999   5.649
13225TIP3   OH239619   2.136   7.075   5.833
13225TIP3    H139620   2.219   7.121   5.825
13225TIP3    H239621   2.072   7.134   5.794
13226TIP3   OH239622   3.943   7.182   3.929
13226TIP3    H139623   3.883   7.209   3.998
13226TIP3    H239624   3.894   7.119   3.877
13227TIP3   OH239625   3.695   1.190   6.317
13227TIP3    H139626   3.682   1.099   6.345
13227TIP3    H239627   3.760   1.224   6.378
13228TIP3   OH239628   0.412   7.609   0.326
13228TIP3    H139629   0.401   7.623   0.231
13228TIP3    H239630   0.351   7.538   0.346
13229TIP3   OH239631   3.039   2.861   3.199
13229TIP3    H139632   3.024   2.899   3.113
13229TIP3    H239633   3.085   2.779   3.182
13230TIP3   OH239634   3.220   5.717   3.383
13230TIP3    H139635   3.168   5.724   3.303
13230TIP3    H239636   3.287   5.651   3.362
13231TIP3   OH239637   4.994   5.157   6.497
13231TIP3    H139638   4.906   5.137   6.465
13231TIP3    H239639   5.052   5.118   6.432
13232TIP3   OH239640   4.309   0.967   6.565
13232TIP3    H139641   4.400   0.941   6.582
13232TIP3    H239642   4.312   1.007   6.478
13233TIP3   OH239643   6.338   7.488   4.407
13233TIP3    H139644   6.305   7.548   4.341
13233TIP3    H239645   6.354   7.406   4.360
13234TIP3   OH239646   3.698   0.042   3.029
13234TIP3    H139647   3.621   0.070   2.980
13234TIP3    H239648   3.760   0.014   2.962
13235TIP3   OH239649   0.307   7.637   0.063
13235TIP3    H139650   0.359   7.562   0.092
13235TIP3    H239651   0.222   7.625   0.106
13236TIP3   OH239652   6.627   5.896   0.193
13236TIP3    H139653   6.534   5.921   0.201
13236TIP3    H239654   6.625   5.812   0.146
13237TIP3   OH239655   4.580   1.500   5.935
13237TIP3    H139656   4.658   1.521   5.883
13237TIP3    H239657   4.514   1.475   5.870
13238TIP3   OH239658   1.373   4.468   3.381
13238TIP3    H139659   1.287   4.504   3.358
13238TIP3    H239660   1.432   4.502   3.314
13239TIP3   OH239661   1.623   4.491   3.935
13239TIP3    H139662   1.700   4.544   3.913
13239TIP3    H239663   1.657   4.426   3.996
13240TIP3   OH239664   7.568   3.152   5.223
13240TIP3    H139665   7.532   3.241   5.232
13240TIP3    H239666   7.660   3.162   5.249
13241TIP3   OH239667   2.899   3.859   3.686
13241TIP3    H139668   2.832   3.927   3.691
13241TIP3    H239669   2.850   3.777   3.694
13242TIP3   OH239670   7.002   5.189   5.412
13242TIP3    H139671   7.036   5.274   5.438
13242TIP3    H239672   6.991   5.195   5.317
13243TIP3   OH239673   7.108   2.150   4.126
13243TIP3    H139674   7.194   2.180   4.095
13243TIP3    H239675   7.045   2.201   4.075
13244TIP3   OH239676   5.126   1.118   6.101
13244TIP3    H139677   5.166   1.036   6.074
13244TIP3    H239678   5.048   1.126   6.046
13245TIP3   OH239679   3.587   5.792   6.686
13245TIP3    H139680   3.583   5.786   6.590
13245TIP3    H239681   3.619   5.880   6.704
13246TIP3   OH239682   4.093   3.560   2.556
13246TIP3    H139683   4.172   3.516   2.526
13246TIP3    H239684   4.105   3.572   2.650
13247TIP3   OH239685   6.032   6.502   1.392
13247TIP3    H139686   6.032   6.598   1.395
13247TIP3    H239687   6.101   6.479   1.330
13248TIP3   OH239688   2.045   1.302   0.841
13248TIP3    H139689   1.972   1.270   0.893
13248TIP3    H239690   2.005   1.336   0.761
13249TIP3   OH239691   8.075   1.287   1.522
13249TIP3    H139692   8.119   1.347   1.461
13249TIP3    H239693   8.145   1.254   1.578
13250TIP3   OH239694   6.352   7.367   5.916
13250TIP3    H139695   6.391   7.385   6.001
13250TIP3    H239696   6.415   7.401   5.852
13251TIP3   OH239697   2.804   6.810   6.216
13251TIP3    H139698   2.751   6.890   6.217
13251TIP3    H239699   2.744   6.742   6.246
13252TIP3   OH239700   1.336   5.985   0.105
13252TIP3    H139701   1.425   5.951   0.115
13252TIP3    H239702   1.285   5.942   0.173
13253TIP3   OH239703   2.639   0.539   3.503
13253TIP3    H139704   2.636   0.454   3.460
13253TIP3    H239705   2.726   0.543   3.543
13254TIP3   OH239706   1.394   0.070   2.547
13254TIP3    H139707   1.457   0.140   2.530
13254TIP3    H239708   1.311   0.116   2.562
13255TIP3   OH239709   1.954   4.047   0.265
13255TIP3    H139710   2.045   4.056   0.237
13255TIP3    H239711   1.959   4.014   0.355
13256TIP3   OH239712   5.397   5.935   1.405
13256TIP3    H139713   5.312   5.961   1.368
13256TIP3    H239714   5.380   5.924   1.498
13257TIP3   OH239715   1.511   5.311   3.842
13257TIP3    H139716   1.458   5.391   3.843
13257TIP3    H239717   1.464   5.249   3.897
13258TIP3   OH239718   4.228   6.193   1.152
13258TIP3    H139719   4.305   6.144   1.181
13258TIP3    H239720   4.159   6.169   1.213
13259TIP3   OH239721   3.058   1.185   5.551
13259TIP3    H139722   3.116   1.206   5.478
13259TIP3    H239723   2.975   1.226   5.528
13260TIP3   OH239724   0.070   7.311   3.707
13260TIP3    H139725  -0.024   7.314   3.724
13260TIP3    H239726   0.110   7.350   3.785
13261TIP3   OH239727   7.231   5.348   5.704
13261TIP3    H139728   7.253   5.302   5.623
13261TIP3    H239729   7.310   5.340   5.758
13262TIP3   OH239730   7.701   4.855   2.888
13262TIP3    H139731   7.631   4.824   2.945
13262TIP3    H239732   7.750   4.776   2.865
13263TIP3   OH239733   5.926   4.495   3.871
13263TIP3    H139734   5.936   4.590   3.878
13263TIP3    H239735   5.849   4.484   3.815
13264TIP3   OH239736   6.492   1.515   0.596
13264TIP3    H139737   6.538   1.598   0.586
13264TIP3    H239738   6.442   1.505   0.515
13265TIP3   OH239739   7.398   4.519   0.217
13265TIP3    H139740   7.370   4.443   0.165
13265TIP3    H239741   7.457   4.483   0.283
13266TIP3   OH239742   7.916   4.832   0.655
13266TIP3    H139743   7.906   4.765   0.587
13266TIP3    H239744   7.979   4.894   0.619
13267TIP3   OH239745   7.538   3.762   6.332
13267TIP3    H139746   7.626   3.799   6.322
13267TIP3    H239747   7.481   3.839   6.343
13268TIP3   OH239748   0.233   3.983   2.840
13268TIP3    H139749   0.314   4.028   2.818
13268TIP3    H239750   0.232   3.905   2.784
13269TIP3   OH239751   5.868   4.086   6.387
13269TIP3    H139752   5.916   4.120   6.463
13269TIP3    H239753   5.796   4.147   6.375
13270TIP3   OH239754   4.038   2.060   5.129
13270TIP3    H139755   4.081   2.010   5.199
13270TIP3    H239756   4.086   2.143   5.125
13271TIP3   OH239757   2.923   6.764   5.586
13271TIP3    H139758   2.875   6.709   5.523
13271TIP3    H239759   3.004   6.717   5.602
13272TIP3   OH239760   3.384   6.237   0.423
13272TIP3    H139761   3.430   6.170   0.372
13272TIP3    H239762   3.408   6.319   0.380
13273TIP3   OH239763   1.181   0.440   0.134
13273TIP3    H139764   1.178   0.370   0.068
13273TIP3    H239765   1.115   0.414   0.198
13274TIP3   OH239766   2.336   2.828   5.206
13274TIP3    H139767   2.301   2.803   5.121
13274TIP3    H239768   2.270   2.800   5.269
13275TIP3   OH239769   1.308   4.825   6.090
13275TIP3    H139770   1.358   4.796   6.166
13275TIP3    H239771   1.295   4.746   6.037
13276TIP3   OH239772   7.838   5.875   4.169
13276TIP3    H139773   7.815   5.900   4.080
13276TIP3    H239774   7.755   5.850   4.209
13277TIP3   OH239775   7.402   1.909   4.012
13277TIP3    H139776   7.310   1.886   4.007
13277TIP3    H239777   7.415   1.975   3.944
13278TIP3   OH239778   6.968   0.678   0.071
13278TIP3    H139779   6.983   0.587   0.097
13278TIP3    H239780   6.890   0.704   0.119
13279TIP3   OH239781   6.818   6.313   1.705
13279TIP3    H139782   6.890   6.326   1.643
13279TIP3    H239783   6.855   6.257   1.773
13280TIP3   OH239784   7.360   4.360   1.924
13280TIP3    H139785   7.360   4.356   2.019
13280TIP3    H239786   7.268   4.370   1.900
13281TIP3   OH239787   7.443   0.637   0.948
13281TIP3    H139788   7.515   0.575   0.959
13281TIP3    H239789   7.403   0.613   0.865
13282TIP3   OH239790   6.738   5.537   5.067
13282TIP3    H139791   6.817   5.587   5.086
13282TIP3    H239792   6.702   5.514   5.153
13283TIP3   OH239793   2.784   1.136   5.266
13283TIP3    H139794   2.734   1.093   5.197
13283TIP3    H239795   2.735   1.215   5.286
13284TIP3   OH239796   0.280   6.154   2.776
13284TIP3    H139797   0.335   6.225   2.743
13284TIP3    H239798   0.293   6.082   2.714
13285TIP3   OH239799   3.475   7.760   5.485
13285TIP3    H139800   3.461   7.667   5.503
13285TIP3    H239801   3.533   7.761   5.409
13286TIP3   OH239802   0.132   5.502   1.385
13286TIP3    H139803   0.143   5.449   1.307
13286TIP3    H239804   0.203   5.475   1.443
13287TIP3   OH239805   3.654   0.040   0.204
13287TIP3    H139806   3.587  -0.001   0.260
13287TIP3    H239807   3.603   0.094   0.143
13288TIP3   OH239808   7.992   7.599   6.671
13288TIP3    H139809   8.018   7.640   6.754
13288TIP3    H239810   8.062   7.537   6.652
13289TIP3   OH239811   6.909   1.826   5.539
13289TIP3    H139812   6.919   1.852   5.448
13289TIP3    H239813   6.898   1.731   5.536
13290TIP3   OH239814   0.224   6.221   3.399
13290TIP3    H139815   0.198   6.189   3.485
13290TIP3    H239816   0.306   6.177   3.380
13291TIP3   OH239817   1.432   5.125   1.123
13291TIP3    H139818   1.438   5.155   1.032
13291TIP3    H239819   1.344   5.089   1.130
13292TIP3   OH239820   3.617   4.607   3.977
13292TIP3    H139821   3.597   4.567   3.892
13292TIP3    H239822   3.711   4.622   3.975
13293TIP3   OH239823   0.304   7.546   4.732
13293TIP3    H139824   0.215   7.512   4.721
13293TIP3    H239825   0.360   7.483   4.687
13294TIP3   OH239826   3.961   1.963   6.326
13294TIP3    H139827   3.891   2.027   6.339
13294TIP3    H239828   3.976   1.926   6.414
13295TIP3   OH239829   3.959   4.311   3.375
13295TIP3    H139830   3.889   4.260   3.416
13295TIP3    H239831   4.027   4.246   3.354
13296TIP3   OH239832   5.600   7.065   1.494
13296TIP3    H139833   5.616   7.039   1.585
13296TIP3    H239834   5.687   7.067   1.454
13297TIP3   OH239835   0.283   3.729   5.012
13297TIP3    H139836   0.194   3.744   4.981
13297TIP3    H239837   0.275   3.721   5.107
13298TIP3   OH239838   5.875   5.921   3.077
13298TIP3    H139839   5.966   5.931   3.047
13298TIP3    H239840   5.882   5.878   3.162
13299TIP3   OH239841   1.002   3.672   3.136
13299TIP3    H139842   0.917   3.676   3.180
13299TIP3    H239843   1.062   3.639   3.203
13300TIP3   OH239844   2.799   2.012   6.618
13300TIP3    H139845   2.833   2.014   6.707
13300TIP3    H239846   2.752   2.095   6.608
13301TIP3   OH239847   1.289   7.348   4.371
13301TIP3    H139848   1.244   7.331   4.453
13301TIP3    H239849   1.378   7.317   4.385
13302TIP3   OH239850   5.202   6.751   3.901
13302TIP3    H139851   5.122   6.700   3.914
13302TIP3    H239852   5.196   6.782   3.811
13303TIP3   OH239853   6.809   0.063   0.747
13303TIP3    H139854   6.780   0.078   0.837
13303TIP3    H239855   6.785   0.143   0.700
13304TIP3   OH239856   7.238   1.238   6.478
13304TIP3    H139857   7.143   1.243   6.475
13304TIP3    H239858   7.257   1.217   6.570
13305TIP3   OH239859   0.263   7.140   0.279
13305TIP3    H139860   0.208   7.219   0.272
13305TIP3    H239861   0.255   7.113   0.370
13306TIP3   OH239862   5.790   3.001   0.414
13306TIP3    H139863   5.809   2.933   0.349
13306TIP3    H239864   5.717   3.050   0.377
13307TIP3   OH239865   0.025   5.189   0.013
13307TIP3    H139866   0.026   5.144   0.097
13307TIP3    H239867   0.092   5.145  -0.039
13308TIP3   OH239868   3.157   5.217   5.602
13308TIP3    H139869   3.198   5.157   5.663
13308TIP3    H239870   3.099   5.272   5.656
13309TIP3   OH239871   0.509   7.416   1.411
13309TIP3    H139872   0.477   7.377   1.492
13309TIP3    H239873   0.553   7.497   1.438
13310TIP3   OH239874   3.861   3.140   3.357
13310TIP3    H139875   3.835   3.068   3.414
13310TIP3    H239876   3.783   3.195   3.351
13311TIP3   OH239877   2.104   0.076   4.608
13311TIP3    H139878   2.131  -0.014   4.624
13311TIP3    H239879   2.185   0.123   4.588
13312TIP3   OH239880   6.395   5.933   5.436
13312TIP3    H139881   6.335   5.908   5.366
13312TIP3    H239882   6.407   5.853   5.487
13313TIP3   OH239883   2.214   5.298   4.261
13313TIP3    H139884   2.248   5.364   4.321
13313TIP3    H239885   2.137   5.340   4.221
13314TIP3   OH239886   3.335   0.797   4.908
13314TIP3    H139887   3.258   0.844   4.877
13314TIP3    H239888   3.306   0.751   4.986
13315TIP3   OH239889   2.528   0.646   6.151
13315TIP3    H139890   2.587   0.611   6.218
13315TIP3    H239891   2.487   0.722   6.193
13316TIP3   OH239892   6.151   6.692   2.178
13316TIP3    H139893   6.117   6.731   2.258
13316TIP3    H239894   6.236   6.732   2.165
13317TIP3   OH239895   1.597   3.944   2.641
13317TIP3    H139896   1.563   4.026   2.607
13317TIP3    H239897   1.691   3.959   2.654
13318TIP3   OH239898   1.859   0.518   0.131
13318TIP3    H139899   1.914   0.440   0.141
13318TIP3    H239900   1.921   0.590   0.116
13319TIP3   OH239901   3.575   1.209   3.715
13319TIP3    H139902   3.612   1.243   3.634
13319TIP3    H239903   3.527   1.131   3.689
13320TIP3   OH239904   3.346   2.924   0.685
13320TIP3    H139905   3.269   2.980   0.675
13320TIP3    H239906   3.376   2.940   0.775
13321TIP3   OH239907   5.856   5.570   1.190
13321TIP3    H139908   5.837   5.659   1.217
13321TIP3    H239909   5.784   5.547   1.131
13322TIP3   OH239910   6.145   0.173   2.445
13322TIP3    H139911   6.136   0.119   2.366
13322TIP3    H239912   6.097   0.125   2.512
13323TIP3   OH239913   0.246   2.589   1.767
13323TIP3    H139914   0.325   2.534   1.769
13323TIP3    H239915   0.265   2.655   1.700
13324TIP3   OH239916   1.650   3.870   0.439
13324TIP3    H139917   1.569   3.820   0.427
13324TIP3    H239918   1.634   3.952   0.392
13325TIP3   OH239919   0.387   5.229   2.193
13325TIP3    H139920   0.330   5.258   2.121
13325TIP3    H239921   0.471   5.270   2.175
13326TIP3   OH239922   6.978   0.047   3.131
13326TIP3    H139923   7.043  -0.018   3.104
13326TIP3    H239924   7.012   0.083   3.213
13327TIP3   OH239925   6.272   7.547   0.599
13327TIP3    H139926   6.302   7.628   0.641
13327TIP3    H239927   6.181   7.538   0.626
13328TIP3   OH239928   1.164   0.634   2.021
13328TIP3    H139929   1.075   0.615   1.991
13328TIP3    H239930   1.215   0.558   1.993
13329TIP3   OH239931   3.126   0.810   5.667
13329TIP3    H139932   3.156   0.722   5.690
13329TIP3    H239933   3.034   0.812   5.692
13330TIP3   OH239934   5.046   6.518   2.924
13330TIP3    H139935   4.980   6.579   2.957
13330TIP3    H239936   5.099   6.570   2.863
13331TIP3   OH239937   8.222   7.570   4.536
13331TIP3    H139938   8.237   7.522   4.617
13331TIP3    H239939   8.131   7.550   4.513
13332TIP3   OH239940   0.986   0.479   0.367
13332TIP3    H139941   0.953   0.397   0.331
13332TIP3    H239942   1.010   0.457   0.457
13333TIP3   OH239943   3.207   0.948   4.601
13333TIP3    H139944   3.126   0.907   4.568
13333TIP3    H239945   3.277   0.890   4.570
13334TIP3   OH239946   5.832   1.095   6.591
13334TIP3    H139947   5.926   1.079   6.593
13334TIP3    H239948   5.810   1.098   6.497
13335TIP3   OH239949   2.765   1.706   2.785
13335TIP3    H139950   2.734   1.773   2.725
13335TIP3    H239951   2.860   1.718   2.788
13336TIP3   OH239952   7.567   3.905   2.243
13336TIP3    H139953   7.574   3.846   2.317
13336TIP3    H239954   7.653   3.948   2.238
13337TIP3   OH239955   2.587   4.926   0.533
13337TIP3    H139956   2.607   5.000   0.591
13337TIP3    H239957   2.668   4.913   0.483
13338TIP3   OH239958   4.821   3.245   2.259
13338TIP3    H139959   4.729   3.269   2.273
13338TIP3    H239960   4.869   3.298   2.323
13339TIP3   OH239961   3.678   1.113   5.071
13339TIP3    H139962   3.583   1.112   5.073
13339TIP3    H239963   3.701   1.088   4.982
13340TIP3   OH239964   3.461  -0.042   5.670
13340TIP3    H139965   3.454   0.006   5.753
13340TIP3    H239966   3.425   0.017   5.605
13341TIP3   OH239967   6.002   0.052   2.640
13341TIP3    H139968   5.914   0.028   2.610
13341TIP3    H239969   6.018  -0.005   2.715
13342TIP3   OH239970   1.780   0.627   0.932
13342TIP3    H139971   1.765   0.621   1.027
13342TIP3    H239972   1.792   0.721   0.916
13343TIP3   OH239973   2.070   6.909   3.278
13343TIP3    H139974   2.039   6.839   3.335
13343TIP3    H239975   2.003   6.916   3.210
13344TIP3   OH239976   5.431   2.570   6.715
13344TIP3    H139977   5.469   2.625   6.647
13344TIP3    H239978   5.472   2.599   6.796
13345TIP3   OH239979   1.229   2.909   3.014
13345TIP3    H139980   1.320   2.933   3.034
13345TIP3    H239981   1.192   2.882   3.098
13346TIP3   OH239982   2.807   5.121   5.055
13346TIP3    H139983   2.731   5.179   5.053
13346TIP3    H239984   2.870   5.165   5.111
13347TIP3   OH239985   6.391   3.771   6.528
13347TIP3    H139986   6.403   3.771   6.623
13347TIP3    H239987   6.439   3.694   6.497
13348TIP3   OH239988   4.296   7.074   3.474
13348TIP3    H139989   4.316   7.151   3.420
13348TIP3    H239990   4.268   7.007   3.412
13349TIP3   OH239991   0.742   4.763   2.753
13349TIP3    H139992   0.757   4.854   2.727
13349TIP3    H239993   0.647   4.756   2.761
13350TIP3   OH239994   6.508   0.588   1.162
13350TIP3    H139995   6.567   0.560   1.232
13350TIP3    H239996   6.486   0.508   1.115
13351TIP3   OH239997   2.410   6.872   2.424
13351TIP3    H139998   2.501   6.865   2.394
13351TIP3    H239999   2.367   6.795   2.386
13352TIP3   OH240000   5.669   6.984   1.065
13352TIP3    H140001   5.615   6.959   1.139
13352TIP3    H240002   5.670   6.907   1.008
13353TIP3   OH240003   5.232   0.319   3.451
13353TIP3    H140004   5.136   0.321   3.442
13353TIP3    H240005   5.262   0.282   3.368
13354TIP3   OH240006   0.240   7.273   6.307
13354TIP3    H140007   0.228   7.262   6.401
13354TIP3    H240008   0.176   7.339   6.282
13355TIP3   OH240009   3.044   0.799   0.830
13355TIP3    H140010   3.072   0.786   0.739
13355TIP3    H240011   2.980   0.870   0.825
13356TIP3   OH240012   7.111   1.324   4.820
13356TIP3    H140013   7.027   1.306   4.778
13356TIP3    H240014   7.167   1.356   4.748
13357TIP3   OH240015   1.626   1.935   2.554
13357TIP3    H140016   1.601   1.909   2.466
13357TIP3    H240017   1.642   1.853   2.600
13358TIP3   OH240018   6.931   0.961   6.137
13358TIP3    H140019   6.994   1.022   6.099
13358TIP3    H240020   6.958   0.952   6.228
13359TIP3   OH240021   2.357   1.940   4.044
13359TIP3    H140022   2.348   1.910   3.954
13359TIP3    H240023   2.445   1.912   4.070
13360TIP3   OH240024   4.222   3.565   5.152
13360TIP3    H140025   4.227   3.638   5.091
13360TIP3    H240026   4.131   3.564   5.182
13361TIP3   OH240027   4.022   1.225   1.455
13361TIP3    H140028   3.993   1.154   1.512
13361TIP3    H240029   4.034   1.182   1.369
13362TIP3   OH240030   4.629   2.801   2.355
13362TIP3    H140031   4.618   2.868   2.288
13362TIP3    H240032   4.681   2.845   2.423
13363TIP3   OH240033   6.494   2.770   0.897
13363TIP3    H140034   6.564   2.793   0.836
13363TIP3    H240035   6.427   2.836   0.883
13364TIP3   OH240036   7.121   2.358   1.040
13364TIP3    H140037   7.139   2.451   1.057
13364TIP3    H240038   7.179   2.336   0.967
13365TIP3   OH240039   2.259   2.263   4.960
13365TIP3    H140040   2.180   2.303   4.995
13365TIP3    H240041   2.303   2.225   5.036
13366TIP3   OH240042   0.437   0.513   2.994
13366TIP3    H140043   0.376   0.471   2.933
13366TIP3    H240044   0.438   0.454   3.070
13367TIP3   OH240045   2.138   4.625   3.327
13367TIP3    H140046   2.092   4.575   3.394
13367TIP3    H240047   2.224   4.644   3.366
13368TIP3   OH240048   2.685   3.430   5.408
13368TIP3    H140049   2.619   3.468   5.350
13368TIP3    H240050   2.695   3.494   5.479
13369TIP3   OH240051   1.715   4.753   4.473
13369TIP3    H140052   1.628   4.771   4.507
13369TIP3    H240053   1.739   4.668   4.511
13370TIP3   OH240054   2.914   3.012   0.899
13370TIP3    H140055   2.823   3.038   0.916
13370TIP3    H240056   2.954   3.011   0.986
13371TIP3   OH240057   5.964   1.367   5.272
13371TIP3    H140058   6.011   1.426   5.332
13371TIP3    H240059   5.993   1.279   5.296
13372TIP3   OH240060   3.961   4.049   1.125
13372TIP3    H140061   4.003   3.968   1.153
13372TIP3    H240062   3.949   4.038   1.030
13373TIP3   OH240063   2.155   5.810   1.142
13373TIP3    H140064   2.178   5.737   1.200
13373TIP3    H240065   2.190   5.888   1.186
13374TIP3   OH240066   7.015   7.376   5.856
13374TIP3    H140067   6.997   7.450   5.914
13374TIP3    H240068   7.092   7.333   5.895
13375TIP3   OH240069   0.907   6.797   6.672
13375TIP3    H140070   0.864   6.750   6.600
13375TIP3    H240071   0.993   6.755   6.679
13376TIP3   OH240072   1.534   1.806   0.993
13376TIP3    H140073   1.444   1.782   1.013
13376TIP3    H240074   1.575   1.824   1.078
13377TIP3   OH240075   1.796   3.334   1.745
13377TIP3    H140076   1.865   3.268   1.754
13377TIP3    H240077   1.728   3.291   1.693
13378TIP3   OH240078   3.372   4.116   4.837
13378TIP3    H140079   3.313   4.190   4.823
13378TIP3    H240080   3.316   4.047   4.872
13379TIP3   OH240081   7.720   6.152   2.617
13379TIP3    H140082   7.709   6.149   2.712
13379TIP3    H240083   7.813   6.166   2.604
13380TIP3   OH240084   3.420   5.531   3.318
13380TIP3    H140085   3.404   5.446   3.276
13380TIP3    H240086   3.455   5.508   3.404
13381TIP3   OH240087   5.355   3.457   1.226
13381TIP3    H140088   5.283   3.433   1.168
13381TIP3    H240089   5.398   3.374   1.247
13382TIP3   OH240090   3.713   7.147   0.354
13382TIP3    H140091   3.787   7.196   0.316
13382TIP3    H240092   3.754   7.074   0.399
13383TIP3   OH240093   1.697   0.582   5.639
13383TIP3    H140094   1.743   0.533   5.571
13383TIP3    H240095   1.616   0.612   5.598
13384TIP3   OH240096   5.182   5.602   5.768
13384TIP3    H140097   5.237   5.678   5.749
13384TIP3    H240098   5.187   5.549   5.688
13385TIP3   OH240099   2.363   2.937   1.544
13385TIP3    H140100   2.400   2.853   1.515
13385TIP3    H240101   2.436   2.980   1.588
13386TIP3   OH240102   3.033   7.652   1.929
13386TIP3    H140103   3.104   7.630   1.869
13386TIP3    H240104   2.965   7.689   1.873
13387TIP3   OH240105   6.088   4.439   0.061
13387TIP3    H140106   6.097   4.377  -0.012
13387TIP3    H240107   6.174   4.481   0.067
13388TIP3   OH240108   7.268   7.309   5.972
13388TIP3    H140109   7.322   7.255   5.915
13388TIP3    H240110   7.329   7.372   6.011
13389TIP3   OH240111   1.055   2.650   3.543
13389TIP3    H140112   0.963   2.658   3.518
13389TIP3    H240113   1.059   2.690   3.630
13390TIP3   OH240114   3.445   3.928   2.665
13390TIP3    H140115   3.429   3.848   2.716
13390TIP3    H240116   3.497   3.983   2.723
13391TIP3   OH240117   0.858   6.792   2.503
13391TIP3    H140118   0.946   6.777   2.537
13391TIP3    H240119   0.838   6.712   2.453
13392TIP3   OH240120   4.292   6.710   3.853
13392TIP3    H140121   4.331   6.639   3.903
13392TIP3    H240122   4.357   6.781   3.858
13393TIP3   OH240123   1.437   5.546   5.779
13393TIP3    H140124   1.435   5.632   5.737
13393TIP3    H240125   1.489   5.491   5.720
13394TIP3   OH240126   5.508   1.820   5.628
13394TIP3    H140127   5.590   1.844   5.672
13394TIP3    H240128   5.520   1.729   5.602
13395TIP3   OH240129   1.156   0.196   1.895
13395TIP3    H140130   1.134   0.137   1.967
13395TIP3    H240131   1.072   0.215   1.853
13396TIP3   OH240132   5.691   6.047   2.420
13396TIP3    H140133   5.640   6.099   2.359
13396TIP3    H240134   5.627   6.009   2.480
13397TIP3   OH240135   7.211   1.367   2.242
13397TIP3    H140136   7.119   1.369   2.271
13397TIP3    H240137   7.209   1.401   2.153
13398TIP3   OH240138   3.188   0.372   2.597
13398TIP3    H140139   3.245   0.316   2.544
13398TIP3    H240140   3.137   0.422   2.534
13399TIP3   OH240141   6.194   1.337   3.086
13399TIP3    H140142   6.193   1.291   3.170
13399TIP3    H240143   6.169   1.270   3.022
13400TIP3   OH240144   6.836   4.071   4.798
13400TIP3    H140145   6.824   4.040   4.709
13400TIP3    H240146   6.771   4.141   4.809
13401TIP3   OH240147   7.360   2.021   1.767
13401TIP3    H140148   7.451   2.033   1.740
13401TIP3    H240149   7.354   1.930   1.794
13402TIP3   OH240150   7.052   7.696   1.795
13402TIP3    H140151   7.138   7.654   1.800
13402TIP3    H240152   6.993   7.637   1.843
13403TIP3   OH240153   3.950   6.835   1.721
13403TIP3    H140154   3.970   6.804   1.633
13403TIP3    H240155   4.030   6.879   1.750
13404TIP3   OH240156   4.033   5.745   5.190
13404TIP3    H140157   4.084   5.666   5.173
13404TIP3    H240158   3.954   5.735   5.136
13405TIP3   OH240159   5.556   4.101   0.765
13405TIP3    H140160   5.594   4.110   0.852
13405TIP3    H240161   5.581   4.180   0.718
13406TIP3   OH240162   5.113   5.299   1.981
13406TIP3    H140163   5.021   5.298   2.007
13406TIP3    H240164   5.157   5.246   2.047
13407TIP3   OH240165   7.526   5.660   5.830
13407TIP3    H140166   7.603   5.629   5.879
13407TIP3    H240167   7.452   5.616   5.871
13408TIP3   OH240168   3.339   5.355   2.721
13408TIP3    H140169   3.291   5.437   2.705
13408TIP3    H240170   3.271   5.288   2.725
13409TIP3   OH240171   4.211   6.978   3.007
13409TIP3    H140172   4.231   7.068   2.982
13409TIP3    H240173   4.286   6.927   2.977
13410TIP3   OH240174   7.357   0.664   6.183
13410TIP3    H140175   7.430   0.682   6.123
13410TIP3    H240176   7.396   0.672   6.270
13411TIP3   OH240177   4.097   7.043   0.434
13411TIP3    H140178   4.095   7.132   0.470
13411TIP3    H240179   4.007   7.011   0.443
13412TIP3   OH240180   4.563   6.333   1.190
13412TIP3    H140181   4.516   6.356   1.271
13412TIP3    H240182   4.624   6.265   1.217
13413TIP3   OH240183   3.590   3.076   0.640
13413TIP3    H140184   3.503   3.037   0.640
13413TIP3    H240185   3.576   3.166   0.669
13414TIP3   OH240186   0.865   3.269   0.314
13414TIP3    H140187   0.933   3.215   0.273
13414TIP3    H240188   0.869   3.352   0.265
13415TIP3   OH240189   4.827   1.249   1.707
13415TIP3    H140190   4.866   1.196   1.776
13415TIP3    H240191   4.892   1.317   1.690
13416TIP3   OH240192   7.149   0.242   2.613
13416TIP3    H140193   7.066   0.283   2.591
13416TIP3    H240194   7.186   0.297   2.682
13417TIP3   OH240195   4.958   5.565   2.500
13417TIP3    H140196   5.027   5.613   2.548
13417TIP3    H240197   5.005   5.498   2.451
13418TIP3   OH240198   2.768   2.676   3.153
13418TIP3    H140199   2.785   2.768   3.174
13418TIP3    H240200   2.855   2.638   3.142
13419TIP3   OH240201   2.390   2.004   1.745
13419TIP3    H140202   2.418   1.952   1.670
13419TIP3    H240203   2.352   1.940   1.806
13420TIP3   OH240204   2.530   6.995   0.691
13420TIP3    H140205   2.525   6.918   0.634
13420TIP3    H240206   2.471   6.976   0.764
13421TIP3   OH240207   3.643   7.427   2.340
13421TIP3    H140208   3.564   7.451   2.292
13421TIP3    H240209   3.611   7.389   2.421
13422TIP3   OH240210   3.857   6.221   2.478
13422TIP3    H140211   3.807   6.302   2.488
13422TIP3    H240212   3.792   6.156   2.451
13423TIP3   OH240213   6.794   4.798   6.410
13423TIP3    H140214   6.740   4.740   6.463
13423TIP3    H240215   6.878   4.802   6.456
13424TIP3   OH240216   5.098   2.899   5.029
13424TIP3    H140217   5.081   2.809   5.058
13424TIP3    H240218   5.032   2.914   4.961
13425TIP3   OH240219   3.956   5.426   2.163
13425TIP3    H140220   3.972   5.376   2.243
13425TIP3    H240221   4.042   5.439   2.125
13426TIP3   OH240222   0.652   7.354   0.356
13426TIP3    H140223   0.590   7.410   0.401
13426TIP3    H240224   0.598   7.298   0.300
13427TIP3   OH240225   1.069   2.520   2.772
13427TIP3    H140226   1.160   2.523   2.742
13427TIP3    H240227   1.065   2.442   2.828
13428TIP3   OH240228   2.584   4.285   6.451
13428TIP3    H140229   2.656   4.291   6.513
13428TIP3    H240230   2.619   4.325   6.371
13429TIP3   OH240231   4.320   5.648   3.917
13429TIP3    H140232   4.302   5.740   3.938
13429TIP3    H240233   4.375   5.617   3.990
13430TIP3   OH240234   0.557   5.567   4.201
13430TIP3    H140235   0.508   5.579   4.283
13430TIP3    H240236   0.594   5.479   4.209
13431TIP3   OH240237   7.869   4.273   6.647
13431TIP3    H140238   7.892   4.307   6.733
13431TIP3    H240239   7.937   4.208   6.628
13432TIP3   OH240240   4.009   6.972   5.081
13432TIP3    H140241   4.031   6.896   5.135
13432TIP3    H240242   4.009   7.046   5.142
13433TIP3   OH240243   0.610   7.014   1.038
13433TIP3    H140244   0.549   7.076   1.079
13433TIP3    H240245   0.685   7.067   1.011
13434TIP3   OH240246   6.882   3.917   2.185
13434TIP3    H140247   6.806   3.954   2.141
13434TIP3    H240248   6.952   3.980   2.170
13435TIP3   OH240249   3.033   0.792   4.453
13435TIP3    H140250   2.965   0.802   4.520
13435TIP3    H240251   2.986   0.770   4.373
13436TIP3   OH240252   6.405   2.253   2.209
13436TIP3    H140253   6.393   2.348   2.205
13436TIP3    H240254   6.435   2.229   2.121
13437TIP3   OH240255   8.112   1.054   4.777
13437TIP3    H140256   8.070   1.025   4.696
13437TIP3    H240257   8.063   1.131   4.804
13438TIP3   OH240258   2.570   0.580   1.546
13438TIP3    H140259   2.643   0.519   1.550
13438TIP3    H240260   2.517   0.549   1.473
13439TIP3   OH240261   8.126   7.253   2.763
13439TIP3    H140262   8.220   7.253   2.780
13439TIP3    H240263   8.113   7.179   2.702
13440TIP3   OH240264   7.517   6.571   6.564
13440TIP3    H140265   7.492   6.485   6.599
13440TIP3    H240266   7.500   6.632   6.636
13441TIP3   OH240267   6.586   0.068   5.809
13441TIP3    H140268   6.558  -0.023   5.819
13441TIP3    H240269   6.681   0.065   5.814
13442TIP3   OH240270   7.621   3.972   2.985
13442TIP3    H140271   7.634   3.878   2.972
13442TIP3    H240272   7.607   4.007   2.897
13443TIP3   OH240273   1.287   6.984   5.042
13443TIP3    H140274   1.211   6.948   4.996
13443TIP3    H240275   1.299   6.926   5.117
13444TIP3   OH240276   0.602   2.476   4.769
13444TIP3    H140277   0.619   2.447   4.679
13444TIP3    H240278   0.553   2.404   4.808
13445TIP3   OH240279   6.661   1.190   6.751
13445TIP3    H140280   6.679   1.098   6.731
13445TIP3    H240281   6.570   1.190   6.781
13446TIP3   OH240282   6.784   5.940   6.452
13446TIP3    H140283   6.777   5.845   6.440
13446TIP3    H240284   6.778   5.952   6.546
13447TIP3   OH240285   3.672   2.507   0.511
13447TIP3    H140286   3.581   2.476   0.510
13447TIP3    H240287   3.711   2.471   0.432
13448TIP3   OH240288   6.368   1.387   0.087
13448TIP3    H140289   6.356   1.326   0.015
13448TIP3    H240290   6.294   1.447   0.081
13449TIP3   OH240291   7.288   2.496   2.220
13449TIP3    H140292   7.247   2.513   2.135
13449TIP3    H240293   7.328   2.580   2.244
13450TIP3   OH240294   5.718   0.211   0.967
13450TIP3    H140295   5.623   0.209   0.952
13450TIP3    H240296   5.734   0.136   1.025
13451TIP3   OH240297   1.372   0.169   1.476
13451TIP3    H140298   1.349   0.219   1.398
13451TIP3    H240299   1.351   0.227   1.549
13452TIP3   OH240300   6.693   7.082   2.873
13452TIP3    H140301   6.761   7.067   2.938
13452TIP3    H240302   6.666   6.995   2.845
13453TIP3   OH240303   5.431   6.179   0.260
13453TIP3    H140304   5.455   6.163   0.352
13453TIP3    H240305   5.451   6.272   0.246
13454TIP3   OH240306   4.036   4.167   0.197
13454TIP3    H140307   4.018   4.197   0.286
13454TIP3    H240308   4.008   4.075   0.197
13455TIP3   OH240309   5.186   6.087   1.933
13455TIP3    H140310   5.121   6.020   1.911
13455TIP3    H240311   5.153   6.126   2.014
13456TIP3   OH240312   2.699   2.698   0.990
13456TIP3    H140313   2.723   2.708   1.082
13456TIP3    H240314   2.782   2.682   0.945
13457TIP3   OH240315   0.568   6.168   5.965
13457TIP3    H140316   0.661   6.171   5.942
13457TIP3    H240317   0.541   6.260   5.965
13458TIP3   OH240318   1.586   1.108   5.349
13458TIP3    H140319   1.628   1.187   5.384
13458TIP3    H240320   1.527   1.139   5.281
13459TIP3   OH240321   0.737   3.815   0.195
13459TIP3    H140322   0.809   3.754   0.213
13459TIP3    H240323   0.668   3.788   0.255
13460TIP3   OH240324   2.115   2.931   3.028
13460TIP3    H140325   2.186   2.873   3.002
13460TIP3    H240326   2.076   2.960   2.945
13461TIP3   OH240327   5.911   2.542   5.897
13461TIP3    H140328   5.908   2.538   5.802
13461TIP3    H240329   5.941   2.631   5.916
13462TIP3   OH240330   7.544   1.693   4.515
13462TIP3    H140331   7.484   1.732   4.579
13462TIP3    H240332   7.498   1.702   4.431
13463TIP3   OH240333   4.540   0.437   5.456
13463TIP3    H140334   4.520   0.345   5.469
13463TIP3    H240335   4.509   0.480   5.536
13464TIP3   OH240336   7.112   7.542   5.569
13464TIP3    H140337   7.178   7.553   5.500
13464TIP3    H240338   7.043   7.490   5.528
13465TIP3   OH240339   2.493   5.507   2.764
13465TIP3    H140340   2.546   5.524   2.842
13465TIP3    H240341   2.403   5.512   2.795
13466TIP3   OH240342   3.626   2.098   2.169
13466TIP3    H140343   3.584   2.118   2.252
13466TIP3    H240344   3.699   2.041   2.192
13467TIP3   OH240345   3.080   3.168   2.101
13467TIP3    H140346   3.152   3.108   2.121
13467TIP3    H240347   3.084   3.233   2.172
13468TIP3   OH240348   2.702   1.214   5.831
13468TIP3    H140349   2.691   1.249   5.743
13468TIP3    H240350   2.780   1.159   5.827
13469TIP3   OH240351   7.769   3.996   1.520
13469TIP3    H140352   7.812   4.061   1.576
13469TIP3    H240353   7.823   3.918   1.528
13470TIP3   OH240354   3.356   7.811   6.324
13470TIP3    H140355   3.269   7.840   6.294
13470TIP3    H240356   3.340   7.770   6.409
13471TIP3   OH240357   0.601   3.318   0.948
13471TIP3    H140358   0.686   3.324   0.992
13471TIP3    H240359   0.618   3.348   0.859
13472TIP3   OH240360   3.018   2.467   1.507
13472TIP3    H140361   2.978   2.437   1.425
13472TIP3    H240362   2.963   2.429   1.576
13473TIP3   OH240363   0.322   6.389   1.952
13473TIP3    H140364   0.291   6.450   1.884
13473TIP3    H240365   0.321   6.440   2.032
13474TIP3   OH240366   3.095   1.007   4.885
13474TIP3    H140367   3.000   1.014   4.871
13474TIP3    H240368   3.133   1.041   4.804
13475TIP3   OH240369   7.938   6.362   1.123
13475TIP3    H140370   7.902   6.276   1.101
13475TIP3    H240371   8.022   6.343   1.165
13476TIP3   OH240372   1.856   0.610   5.057
13476TIP3    H140373   1.936   0.585   5.010
13476TIP3    H240374   1.863   0.706   5.065
13477TIP3   OH240375   0.774   6.866   4.070
13477TIP3    H140376   0.774   6.785   4.121
13477TIP3    H240377   0.856   6.865   4.022
13478TIP3   OH240378   8.225   7.471   5.067
13478TIP3    H140379   8.308   7.517   5.070
13478TIP3    H240380   8.180   7.508   4.991
13479TIP3   OH240381   5.891   5.263   4.319
13479TIP3    H140382   5.982   5.247   4.344
13479TIP3    H240383   5.870   5.348   4.357
13480TIP3   OH240384   0.440   5.477   5.788
13480TIP3    H140385   0.446   5.385   5.761
13480TIP3    H240386   0.530   5.503   5.805
13481TIP3   OH240387   5.762   2.308   1.919
13481TIP3    H140388   5.747   2.397   1.949
13481TIP3    H240389   5.741   2.253   1.994
13482TIP3   OH240390   8.145   5.285   6.735
13482TIP3    H140391   8.167   5.201   6.776
13482TIP3    H240392   8.116   5.340   6.808
13483TIP3   OH240393   4.645   1.015   3.509
13483TIP3    H140394   4.712   1.043   3.446
13483TIP3    H240395   4.562   1.030   3.464
13484TIP3   OH240396   7.058   5.834   4.845
13484TIP3    H140397   6.986   5.869   4.793
13484TIP3    H240398   7.133   5.834   4.785
13485TIP3   OH240399   5.592   0.366   1.960
13485TIP3    H140400   5.592   0.434   1.893
13485TIP3    H240401   5.601   0.284   1.912
13486TIP3   OH240402   3.288   7.019   2.853
13486TIP3    H140403   3.375   6.981   2.841
13486TIP3    H240404   3.247   6.965   2.920
13487TIP3   OH240405   4.654   4.486   1.431
13487TIP3    H140406   4.632   4.418   1.367
13487TIP3    H240407   4.663   4.438   1.514
13488TIP3   OH240408   7.169   5.071   1.630
13488TIP3    H140409   7.188   5.165   1.628
13488TIP3    H240410   7.102   5.061   1.697
13489TIP3   OH240411   6.273   2.793   1.139
13489TIP3    H140412   6.186   2.754   1.145
13489TIP3    H240413   6.279   2.824   1.049
13490TIP3   OH240414   1.846   0.971   5.433
13490TIP3    H140415   1.855   0.926   5.517
13490TIP3    H240416   1.910   1.043   5.439
13491TIP3   OH240417   2.886   3.011   4.883
13491TIP3    H140418   2.819   3.064   4.926
13491TIP3    H240419   2.862   3.014   4.790
13492TIP3   OH240420   0.099   4.508   1.452
13492TIP3    H140421   0.155   4.567   1.403
13492TIP3    H240422   0.031   4.564   1.490
13493TIP3   OH240423   5.854   0.105   3.979
13493TIP3    H140424   5.935   0.136   4.019
13493TIP3    H240425   5.800   0.184   3.971
13494TIP3   OH240426   5.415   5.488   1.204
13494TIP3    H140427   5.416   5.495   1.299
13494TIP3    H240428   5.476   5.417   1.184
13495TIP3   OH240429   3.357   2.704   0.495
13495TIP3    H140430   3.315   2.723   0.579
13495TIP3    H240431   3.434   2.761   0.493
13496TIP3   OH240432   2.002   3.748   4.137
13496TIP3    H140433   1.915   3.725   4.167
13496TIP3    H240434   2.055   3.752   4.217
13497TIP3   OH240435   1.376   7.445   5.923
13497TIP3    H140436   1.429   7.521   5.899
13497TIP3    H240437   1.439   7.381   5.957
13498TIP3   OH240438   5.823   0.231   4.861
13498TIP3    H140439   5.859   0.270   4.782
13498TIP3    H240440   5.744   0.185   4.831
13499TIP3   OH240441   2.914   3.330   1.847
13499TIP3    H140442   2.897   3.244   1.885
13499TIP3    H240443   2.975   3.313   1.775
13500TIP3   OH240444   7.240   0.694   3.135
13500TIP3    H140445   7.250   0.694   3.039
13500TIP3    H240446   7.216   0.605   3.156
13501TIP3   OH240447   4.314   0.318   1.361
13501TIP3    H140448   4.361   0.395   1.330
13501TIP3    H240449   4.375   0.246   1.351
13502TIP3   OH240450   5.864   3.769   2.756
13502TIP3    H140451   5.942   3.802   2.801
13502TIP3    H240452   5.794   3.781   2.820
13503TIP3   OH240453   4.570   4.936   1.628
13503TIP3    H140454   4.658   4.908   1.652
13503TIP3    H240455   4.573   4.947   1.533
13504TIP3   OH240456   2.706   1.287   4.344
13504TIP3    H140457   2.754   1.266   4.264
13504TIP3    H240458   2.621   1.318   4.314
13505TIP3   OH240459   3.438   5.981   1.321
13505TIP3    H140460   3.401   6.065   1.347
13505TIP3    H240461   3.525   6.003   1.287
13506TIP3   OH240462   2.528   6.307   4.201
13506TIP3    H140463   2.469   6.248   4.248
13506TIP3    H240464   2.563   6.253   4.130
13507TIP3   OH240465   7.195   0.903   2.913
13507TIP3    H140466   7.200   0.958   2.835
13507TIP3    H240467   7.184   0.964   2.986
13508TIP3   OH240468   1.160   0.486   5.164
13508TIP3    H140469   1.109   0.565   5.185
13508TIP3    H240470   1.208   0.466   5.244
13509TIP3   OH240471   4.333   3.543   2.362
13509TIP3    H140472   4.415   3.540   2.313
13509TIP3    H240473   4.291   3.624   2.334
13510TIP3   OH240474   2.481   2.208   1.977
13510TIP3    H140475   2.402   2.170   1.939
13510TIP3    H240476   2.530   2.241   1.901
13511TIP3   OH240477   2.679   5.782   3.746
13511TIP3    H140478   2.755   5.725   3.732
13511TIP3    H240479   2.604   5.729   3.723
13512TIP3   OH240480   0.993   3.913   3.305
13512TIP3    H140481   0.993   3.818   3.318
13512TIP3    H240482   0.908   3.933   3.268
13513TIP3   OH240483   5.890   3.431   6.200
13513TIP3    H140484   5.958   3.420   6.267
13513TIP3    H240485   5.840   3.350   6.203
13514TIP3   OH240486   2.455   7.482   6.171
13514TIP3    H140487   2.544   7.482   6.206
13514TIP3    H240488   2.460   7.429   6.092
13515TIP3   OH240489   6.486   3.386   2.208
13515TIP3    H140490   6.534   3.469   2.207
13515TIP3    H240491   6.521   3.336   2.135
13516TIP3   OH240492   1.703   7.497   0.307
13516TIP3    H140493   1.609   7.518   0.299
13516TIP3    H240494   1.706   7.423   0.367
13517TIP3   OH240495   5.575   4.151   2.489
13517TIP3    H140496   5.549   4.062   2.515
13517TIP3    H240497   5.494   4.190   2.456
13518TIP3   OH240498   0.864   1.746   5.675
13518TIP3    H140499   0.944   1.789   5.707
13518TIP3    H240500   0.797   1.815   5.680
13519TIP3   OH240501   0.560   1.161   1.577
13519TIP3    H140502   0.547   1.236   1.519
13519TIP3    H240503   0.510   1.090   1.537
13520TIP3   OH240504   2.155   0.651   1.402
13520TIP3    H140505   2.162   0.676   1.494
13520TIP3    H240506   2.078   0.698   1.370
13521TIP3   OH240507   6.066   4.647   4.368
13521TIP3    H140508   6.092   4.568   4.320
13521TIP3    H240509   5.994   4.618   4.424
13522TIP3   OH240510   2.190   6.589   3.534
13522TIP3    H140511   2.175   6.621   3.623
13522TIP3    H240512   2.115   6.622   3.483
13523TIP3   OH240513   5.943   6.114   2.518
13523TIP3    H140514   5.847   6.112   2.516
13523TIP3    H240515   5.965   6.135   2.609
13524TIP3   OH240516   0.035   5.425   3.611
13524TIP3    H140517  -0.003   5.407   3.697
13524TIP3    H240518   0.119   5.467   3.630
13525TIP3   OH240519   7.744   5.465   3.783
13525TIP3    H140520   7.776   5.506   3.863
13525TIP3    H240521   7.789   5.381   3.780
13526TIP3   OH240522   0.380   5.815   0.245
13526TIP3    H140523   0.305   5.798   0.302
13526TIP3    H240524   0.341   5.836   0.160
13527TIP3   OH240525   0.305   5.712   2.746
13527TIP3    H140526   0.255   5.670   2.816
13527TIP3    H240527   0.394   5.679   2.757
13528TIP3   OH240528   7.159   3.832   4.222
13528TIP3    H140529   7.251   3.809   4.206
13528TIP3    H240530   7.121   3.753   4.261
13529TIP3   OH240531   3.272   1.900   2.576
13529TIP3    H140532   3.209   1.968   2.601
13529TIP3    H240533   3.347   1.949   2.542
13530TIP3   OH240534   7.074   4.487   2.103
13530TIP3    H140535   7.091   4.479   2.197
13530TIP3    H240536   6.980   4.505   2.097
13531TIP3   OH240537   0.721   2.269   4.506
13531TIP3    H140538   0.630   2.252   4.485
13531TIP3    H240539   0.770   2.205   4.454
13532TIP3   OH240540   8.013   3.708   2.339
13532TIP3    H140541   8.081   3.775   2.336
13532TIP3    H240542   7.940   3.745   2.289
13533TIP3   OH240543   1.926   0.949   0.062
13533TIP3    H140544   1.986   0.905   0.002
13533TIP3    H240545   1.840   0.941   0.021
13534TIP3   OH240546   0.776   2.151   0.211
13534TIP3    H140547   0.825   2.173   0.132
13534TIP3    H240548   0.693   2.116   0.178
13535TIP3   OH240549   5.216   4.125   0.259
13535TIP3    H140550   5.272   4.124   0.182
13535TIP3    H240551   5.276   4.116   0.333
13536TIP3   OH240552   2.712   1.405   5.257
13536TIP3    H140553   2.727   1.487   5.210
13536TIP3    H240554   2.618   1.404   5.273
13537TIP3   OH240555   5.334   0.639   4.158
13537TIP3    H140556   5.325   0.561   4.102
13537TIP3    H240557   5.364   0.707   4.099
13538TIP3   OH240558   5.402   4.140   1.313
13538TIP3    H140559   5.330   4.189   1.354
13538TIP3    H240560   5.385   4.049   1.337
13539TIP3   OH240561   5.432   4.921   4.972
13539TIP3    H140562   5.493   4.935   5.045
13539TIP3    H240563   5.440   4.999   4.918
13540TIP3   OH240564   8.059   5.548   1.014
13540TIP3    H140565   7.996   5.617   1.036
13540TIP3    H240566   8.060   5.547   0.919
13541TIP3   OH240567   0.973   2.424   3.816
13541TIP3    H140568   0.920   2.449   3.893
13541TIP3    H240569   0.970   2.500   3.759
13542TIP3   OH240570   4.128   2.880   1.834
13542TIP3    H140571   4.044   2.883   1.880
13542TIP3    H240572   4.164   2.794   1.857
13543TIP3   OH240573   4.369   3.776   1.354
13543TIP3    H140574   4.397   3.858   1.314
13543TIP3    H240575   4.448   3.740   1.394
13544TIP3   OH240576   0.238   5.370   4.127
13544TIP3    H140577   0.267   5.347   4.215
13544TIP3    H240578   0.311   5.421   4.091
13545TIP3   OH240579   1.174   3.541   5.355
13545TIP3    H140580   1.111   3.472   5.376
13545TIP3    H240581   1.129   3.595   5.290
13546TIP3   OH240582   7.210   4.595   1.702
13546TIP3    H140583   7.268   4.642   1.642
13546TIP3    H240584   7.157   4.540   1.644
13547TIP3   OH240585   0.046   3.182   4.849
13547TIP3    H140586  -0.002   3.150   4.925
13547TIP3    H240587  -0.020   3.194   4.781
13548TIP3   OH240588   7.223   3.528   4.235
13548TIP3    H140589   7.134   3.501   4.260
13548TIP3    H240590   7.264   3.555   4.317
13549TIP3   OH240591   6.214   2.841   6.312
13549TIP3    H140592   6.184   2.885   6.232
13549TIP3    H240593   6.134   2.806   6.351
13550TIP3   OH240594   5.108   5.888   4.500
13550TIP3    H140595   5.016   5.864   4.515
13550TIP3    H240596   5.135   5.933   4.580
13551TIP3   OH240597   6.162   2.895   5.249
13551TIP3    H140598   6.108   2.892   5.171
13551TIP3    H240599   6.195   2.806   5.260
13552TIP3   OH240600   4.521   3.322   5.892
13552TIP3    H140601   4.442   3.372   5.869
13552TIP3    H240602   4.488   3.235   5.915
13553TIP3   OH240603   7.735   6.332   3.312
13553TIP3    H140604   7.772   6.319   3.400
13553TIP3    H240605   7.689   6.415   3.318
13554TIP3   OH240606   1.099   2.670   4.861
13554TIP3    H140607   1.131   2.719   4.937
13554TIP3    H240608   1.130   2.581   4.876
13555TIP3   OH240609   5.002   2.878   0.944
13555TIP3    H140610   5.050   2.830   0.877
13555TIP3    H240611   4.917   2.834   0.949
13556TIP3   OH240612   1.708   1.633   4.040
13556TIP3    H140613   1.700   1.567   4.109
13556TIP3    H240614   1.761   1.591   3.972
13557TIP3   OH240615   5.984   5.328   1.226
13557TIP3    H140616   5.929   5.406   1.213
13557TIP3    H240617   5.964   5.300   1.316
13558TIP3   OH240618   2.291   0.770   2.362
13558TIP3    H140619   2.282   0.700   2.297
13558TIP3    H240620   2.202   0.800   2.378
13559TIP3   OH240621   6.046   4.086   4.252
13559TIP3    H140622   6.006   4.005   4.283
13559TIP3    H240623   5.986   4.119   4.186
13560TIP3   OH240624   0.429   6.817   2.013
13560TIP3    H140625   0.349   6.774   2.043
13560TIP3    H240626   0.432   6.800   1.919
13561TIP3   OH240627   0.916   1.315   4.314
13561TIP3    H140628   1.001   1.335   4.275
13561TIP3    H240629   0.920   1.222   4.335
13562TIP3   OH240630   3.788   4.481   6.156
13562TIP3    H140631   3.797   4.571   6.187
13562TIP3    H240632   3.709   4.483   6.102
13563TIP3   OH240633   6.692   1.382   4.176
13563TIP3    H140634   6.639   1.410   4.251
13563TIP3    H240635   6.656   1.297   4.151
13564TIP3   OH240636   1.558   7.516   3.973
13564TIP3    H140637   1.548   7.439   3.917
13564TIP3    H240638   1.493   7.504   4.043
13565TIP3   OH240639   1.008   3.309   3.645
13565TIP3    H140640   1.067   3.272   3.580
13565TIP3    H240641   1.031   3.402   3.648
13566TIP3   OH240642   2.188   0.227   6.364
13566TIP3    H140643   2.132   0.255   6.437
13566TIP3    H240644   2.265   0.189   6.406
13567TIP3   OH240645   0.289   2.820   1.624
13567TIP3    H140646   0.252   2.817   1.536
13567TIP3    H240647   0.377   2.854   1.613
13568TIP3   OH240648   6.493   2.823   6.319
13568TIP3    H140649   6.511   2.732   6.344
13568TIP3    H240650   6.398   2.833   6.332
13569TIP3   OH240651   3.692   0.482   6.647
13569TIP3    H140652   3.780   0.513   6.623
13569TIP3    H240653   3.636   0.560   6.637
13570TIP3   OH240654   3.813   4.240   5.806
13570TIP3    H140655   3.764   4.309   5.850
13570TIP3    H240656   3.777   4.239   5.717
13571TIP3   OH240657   7.776   3.817   3.435
13571TIP3    H140658   7.713   3.801   3.505
13571TIP3    H240659   7.862   3.813   3.478
13572TIP3   OH240660   6.888   3.752   5.520
13572TIP3    H140661   6.939   3.707   5.453
13572TIP3    H240662   6.859   3.833   5.477
13573TIP3   OH240663   2.343   3.181   3.584
13573TIP3    H140664   2.272   3.124   3.556
13573TIP3    H240665   2.343   3.174   3.680
13574TIP3   OH240666   8.177   4.405   6.327
13574TIP3    H140667   8.213   4.464   6.261
13574TIP3    H240668   8.090   4.383   6.294
13575TIP3   OH240669   7.851   5.361   5.005
13575TIP3    H140670   7.792   5.393   4.936
13575TIP3    H240671   7.857   5.435   5.066
13576TIP3   OH240672   5.493   7.171   5.184
13576TIP3    H140673   5.468   7.232   5.115
13576TIP3    H240674   5.430   7.099   5.176
13577TIP3   OH240675   3.202   6.181   2.790
13577TIP3    H140676   3.204   6.116   2.860
13577TIP3    H240677   3.210   6.131   2.710
13578TIP3   OH240678   4.263   1.528   3.620
13578TIP3    H140679   4.221   1.463   3.564
13578TIP3    H240680   4.290   1.479   3.697
13579TIP3   OH240681   0.724   1.446   1.654
13579TIP3    H140682   0.675   1.416   1.577
13579TIP3    H240683   0.804   1.393   1.654
13580TIP3   OH240684   1.902   2.362   3.751
13580TIP3    H140685   1.854   2.419   3.691
13580TIP3    H240686   1.835   2.306   3.790
13581TIP3   OH240687   2.251   7.361   4.770
13581TIP3    H140688   2.162   7.327   4.759
13581TIP3    H240689   2.299   7.328   4.694
13582TIP3   OH240690   3.583   1.769   6.535
13582TIP3    H140691   3.546   1.733   6.454
13582TIP3    H240692   3.632   1.697   6.574
13583TIP3   OH240693   6.292   1.043   1.095
13583TIP3    H140694   6.231   1.032   1.168
13583TIP3    H240695   6.238   1.070   1.021
13584TIP3   OH240696   6.418   4.984   0.720
13584TIP3    H140697   6.498   4.992   0.669
13584TIP3    H240698   6.439   4.920   0.788
13585TIP3   OH240699   7.016   4.787   2.773
13585TIP3    H140700   7.087   4.746   2.821
13585TIP3    H240701   7.053   4.806   2.687
13586TIP3   OH240702   2.335   7.670   1.284
13586TIP3    H140703   2.374   7.644   1.368
13586TIP3    H240704   2.409   7.668   1.223
13587TIP3   OH240705   4.538   1.425   5.457
13587TIP3    H140706   4.557   1.340   5.417
13587TIP3    H240707   4.612   1.480   5.434
13588TIP3   OH240708   1.753   3.231   2.679
13588TIP3    H140709   1.661   3.255   2.690
13588TIP3    H240710   1.791   3.303   2.629
13589TIP3   OH240711   5.891   7.061   4.130
13589TIP3    H140712   5.816   7.003   4.116
13589TIP3    H240713   5.926   7.035   4.215
13590TIP3   OH240714   5.595   7.406   3.378
13590TIP3    H140715   5.662   7.468   3.349
13590TIP3    H240716   5.579   7.429   3.470
13591TIP3   OH240717   7.298   1.239   0.311
13591TIP3    H140718   7.212   1.211   0.343
13591TIP3    H240719   7.315   1.322   0.356
13592TIP3   OH240720   2.118   3.029   3.525
13592TIP3    H140721   2.132   2.960   3.461
13592TIP3    H240722   2.036   3.005   3.570
13593TIP3   OH240723   3.661   2.781   6.394
13593TIP3    H140724   3.687   2.835   6.469
13593TIP3    H240725   3.610   2.841   6.339
13594TIP3   OH240726   3.951   4.281   6.073
13594TIP3    H140727   3.900   4.217   6.023
13594TIP3    H240728   3.888   4.348   6.098
13595TIP3   OH240729   2.625   1.810   2.572
13595TIP3    H140730   2.653   1.899   2.552
13595TIP3    H240731   2.529   1.815   2.574
13596TIP3   OH240732   7.854   4.831   1.483
13596TIP3    H140733   7.887   4.742   1.494
13596TIP3    H240734   7.782   4.822   1.420
13597TIP3   OH240735   0.343   6.628   4.919
13597TIP3    H140736   0.297   6.696   4.869
13597TIP3    H240737   0.337   6.657   5.010
13598TIP3   OH240738   0.464   3.056   3.701
13598TIP3    H140739   0.469   2.960   3.701
13598TIP3    H240740   0.541   3.084   3.652
13599TIP3   OH240741   6.647   7.400   0.601
13599TIP3    H140742   6.724   7.417   0.655
13599TIP3    H240743   6.601   7.484   0.598
13600TIP3   OH240744   5.284   2.920   5.242
13600TIP3    H140745   5.375   2.943   5.229
13600TIP3    H240746   5.240   2.948   5.162
13601TIP3   OH240747   2.361   4.566   1.885
13601TIP3    H140748   2.346   4.472   1.876
13601TIP3    H240749   2.342   4.602   1.799
13602TIP3   OH240750   3.695   6.881   1.816
13602TIP3    H140751   3.767   6.833   1.773
13602TIP3    H240752   3.671   6.826   1.890
13603TIP3   OH240753   4.816   7.063   1.086
13603TIP3    H140754   4.765   7.071   1.005
13603TIP3    H240755   4.754   7.029   1.150
13604TIP3   OH240756   6.531   6.967   1.126
13604TIP3    H140757   6.573   7.047   1.094
13604TIP3    H240758   6.602   6.919   1.171
13605TIP3   OH240759   4.078   1.092   3.446
13605TIP3    H140760   4.081   1.007   3.489
13605TIP3    H240761   4.029   1.077   3.366
13606TIP3   OH240762   2.795   7.221   1.556
13606TIP3    H140763   2.799   7.269   1.639
13606TIP3    H240764   2.715   7.169   1.562
13607TIP3   OH240765   7.057   2.727   3.231
13607TIP3    H140766   6.977   2.673   3.230
13607TIP3    H240767   7.112   2.689   3.163
13608TIP3   OH240768   3.707   5.899   5.348
13608TIP3    H140769   3.663   5.958   5.409
13608TIP3    H240770   3.642   5.881   5.280
13609TIP3   OH240771   6.971   6.964   1.001
13609TIP3    H140772   6.959   7.026   0.929
13609TIP3    H240773   6.968   6.878   0.959
13610TIP3   OH240774   7.034   0.444   1.752
13610TIP3    H140775   6.993   0.528   1.771
13610TIP3    H240776   6.963   0.391   1.715
13611TIP3   OH240777   1.570   1.639   6.753
13611TIP3    H140778   1.488   1.664   6.795
13611TIP3    H240779   1.582   1.547   6.778
13612TIP3   OH240780   5.732   6.423   5.786
13612TIP3    H140781   5.774   6.509   5.795
13612TIP3    H240782   5.652   6.430   5.838
13613TIP3   OH240783   6.430   5.628   0.339
13613TIP3    H140784   6.476   5.711   0.349
13613TIP3    H240785   6.400   5.629   0.248
13614TIP3   OH240786   0.074   6.160   3.914
13614TIP3    H140787   0.039   6.248   3.898
13614TIP3    H240788   0.109   6.164   4.003
13615TIP3   OH240789   5.972  -0.008   5.535
13615TIP3    H140790   6.047  -0.044   5.488
13615TIP3    H240791   5.989   0.086   5.540
13616TIP3   OH240792   3.969   3.642   5.240
13616TIP3    H140793   3.994   3.731   5.266
13616TIP3    H240794   3.879   3.633   5.269
13617TIP3   OH240795   1.998   4.157   2.526
13617TIP3    H140796   2.005   4.075   2.575
13617TIP3    H240797   2.060   4.216   2.569
13618TIP3   OH240798   3.277   2.636   3.888
13618TIP3    H140799   3.191   2.646   3.847
13618TIP3    H240800   3.300   2.544   3.872
13619TIP3   OH240801   4.309   0.026   1.101
13619TIP3    H140802   4.314   0.102   1.042
13619TIP3    H240803   4.375   0.045   1.168
13620TIP3   OH240804   6.003   6.942   5.715
13620TIP3    H140805   6.011   7.036   5.729
13620TIP3    H240806   5.910   6.924   5.723
13621TIP3   OH240807   5.136   3.290   6.013
13621TIP3    H140808   5.140   3.322   5.923
13621TIP3    H240809   5.187   3.209   6.012
13622TIP3   OH240810   5.419   3.307   0.903
13622TIP3    H140811   5.364   3.336   0.976
13622TIP3    H240812   5.434   3.387   0.852
13623TIP3   OH240813   6.725   2.730   4.139
13623TIP3    H140814   6.776   2.810   4.145
13623TIP3    H240815   6.642   2.751   4.183
13624TIP3   OH240816   7.600   7.452   4.551
13624TIP3    H140817   7.596   7.513   4.624
13624TIP3    H240818   7.553   7.375   4.583
13625TIP3   OH240819   4.126   0.469   1.478
13625TIP3    H140820   4.189   0.400   1.457
13625TIP3    H240821   4.057   0.459   1.412
13626TIP3   OH240822   1.426   0.751   2.761
13626TIP3    H140823   1.432   0.677   2.822
13626TIP3    H240824   1.385   0.820   2.813
13627TIP3   OH240825   4.577   2.004   3.985
13627TIP3    H140826   4.556   2.045   3.900
13627TIP3    H240827   4.494   1.967   4.015
13628TIP3   OH240828   2.774   1.017   6.694
13628TIP3    H140829   2.798   1.039   6.603
13628TIP3    H240830   2.817   1.085   6.746
13629TIP3   OH240831   3.890   7.296   0.930
13629TIP3    H140832   3.953   7.303   0.859
13629TIP3    H240833   3.814   7.254   0.891
13630TIP3   OH240834   7.589   7.033   5.535
13630TIP3    H140835   7.494   7.046   5.543
13630TIP3    H240836   7.618   7.012   5.624
13631TIP3   OH240837   7.584   6.576   3.749
13631TIP3    H140838   7.631   6.553   3.830
13631TIP3    H240839   7.517   6.508   3.741
13632TIP3   OH240840   4.071   2.002   2.187
13632TIP3    H140841   4.009   2.070   2.212
13632TIP3    H240842   4.056   1.932   2.251
13633TIP3   OH240843   5.178   7.129   5.582
13633TIP3    H140844   5.271   7.116   5.567
13633TIP3    H240845   5.159   7.214   5.542
13634TIP3   OH240846   7.061   7.587   6.303
13634TIP3    H140847   7.031   7.678   6.310
13634TIP3    H240848   7.020   7.554   6.223
13635TIP3   OH240849   1.023   3.948   2.982
13635TIP3    H140850   0.966   3.984   3.050
13635TIP3    H240851   1.013   3.853   2.990
13636TIP3   OH240852   7.321   5.402   2.785
13636TIP3    H140853   7.358   5.432   2.702
13636TIP3    H240854   7.367   5.452   2.852
13637TIP3   OH240855   2.663   1.196   1.581
13637TIP3    H140856   2.628   1.213   1.669
13637TIP3    H240857   2.710   1.113   1.590
13638TIP3   OH240858   2.423   5.795   3.085
13638TIP3    H140859   2.330   5.797   3.105
13638TIP3    H240860   2.463   5.852   3.150
13639TIP3   OH240861   3.763   3.145   4.932
13639TIP3    H140862   3.697   3.135   4.863
13639TIP3    H240863   3.720   3.201   4.997
13640TIP3   OH240864   0.755   0.688   1.265
13640TIP3    H140865   0.775   0.713   1.175
13640TIP3    H240866   0.684   0.746   1.291
13641TIP3   OH240867   7.865   4.496   3.285
13641TIP3    H140868   7.878   4.590   3.272
13641TIP3    H240869   7.775   4.480   3.257
13642TIP3   OH240870   3.153   4.876   5.089
13642TIP3    H140871   3.191   4.961   5.111
13642TIP3    H240872   3.075   4.896   5.038
13643TIP3   OH240873   7.320   4.633   2.371
13643TIP3    H140874   7.290   4.691   2.441
13643TIP3    H240875   7.415   4.640   2.372
13644TIP3   OH240876   6.161   3.625   1.181
13644TIP3    H140877   6.220   3.699   1.193
13644TIP3    H240878   6.162   3.579   1.266
13645TIP3   OH240879   7.731   3.464   1.430
13645TIP3    H140880   7.797   3.422   1.485
13645TIP3    H240881   7.724   3.553   1.465
13646TIP3   OH240882   5.656   2.316   5.138
13646TIP3    H140883   5.702   2.294   5.219
13646TIP3    H240884   5.671   2.241   5.081
13647TIP3   OH240885   2.626   4.749   0.260
13647TIP3    H140886   2.538   4.780   0.281
13647TIP3    H240887   2.644   4.682   0.326
13648TIP3   OH240888   3.876   7.329   3.275
13648TIP3    H140889   3.952   7.304   3.327
13648TIP3    H240890   3.900   7.414   3.237
13649TIP3   OH240891   5.936   6.750   2.362
13649TIP3    H140892   5.905   6.749   2.272
13649TIP3    H240893   5.871   6.801   2.410
13650TIP3   OH240894   0.343   3.315   2.162
13650TIP3    H140895   0.299   3.231   2.166
13650TIP3    H240896   0.280   3.373   2.120
13651TIP3   OH240897   6.673   4.744   1.719
13651TIP3    H140898   6.761   4.723   1.687
13651TIP3    H240899   6.638   4.660   1.750
13652TIP3   OH240900   7.775   1.080   2.745
13652TIP3    H140901   7.763   1.162   2.793
13652TIP3    H240902   7.686   1.052   2.723
13653TIP3   OH240903   3.558   3.959   4.956
13653TIP3    H140904   3.517   3.999   4.880
13653TIP3    H240905   3.494   3.970   5.026
13654TIP3   OH240906   7.618   3.950   3.762
13654TIP3    H140907   7.527   3.947   3.730
13654TIP3    H240908   7.654   3.864   3.741
13655TIP3   OH240909   1.372   7.548   4.186
13655TIP3    H140910   1.290   7.583   4.152
13655TIP3    H240911   1.346   7.480   4.248
13656TIP3   OH240912   7.510   6.186   2.967
13656TIP3    H140913   7.503   6.093   2.945
13656TIP3    H240914   7.562   6.188   3.048
13657TIP3   OH240915   4.767   4.700   6.034
13657TIP3    H140916   4.791   4.713   5.942
13657TIP3    H240917   4.747   4.787   6.067
13658TIP3   OH240918   4.876   2.316   1.548
13658TIP3    H140919   4.843   2.405   1.558
13658TIP3    H240920   4.839   2.268   1.622
13659TIP3   OH240921   5.100   0.098   2.173
13659TIP3    H140922   5.081   0.068   2.084
13659TIP3    H240923   5.037   0.052   2.228
13660TIP3   OH240924   6.050   5.659   5.855
13660TIP3    H140925   6.016   5.626   5.772
13660TIP3    H240926   5.973   5.697   5.898
13661TIP3   OH240927   0.533   5.155   2.638
13661TIP3    H140928   0.459   5.173   2.580
13661TIP3    H240929   0.567   5.070   2.610
13662TIP3   OH240930   6.456   4.504   0.332
13662TIP3    H140931   6.518   4.556   0.383
13662TIP3    H240932   6.468   4.414   0.362
13663TIP3   OH240933   5.725   3.345   4.650
13663TIP3    H140934   5.655   3.409   4.637
13663TIP3    H240935   5.793   3.371   4.588
13664TIP3   OH240936   5.383   5.308   0.334
13664TIP3    H140937   5.340   5.223   0.323
13664TIP3    H240938   5.427   5.324   0.250
13665TIP3   OH240939   5.751   5.090   1.163
13665TIP3    H140940   5.726   5.018   1.104
13665TIP3    H240941   5.836   5.064   1.197
13666TIP3   OH240942   6.035   5.448   6.631
13666TIP3    H140943   5.982   5.377   6.667
13666TIP3    H240944   6.009   5.452   6.539
13667TIP3   OH240945   8.066   5.713   1.576
13667TIP3    H140946   8.119   5.731   1.654
13667TIP3    H240947   8.084   5.788   1.518
13668TIP3   OH240948   1.949   5.546   4.779
13668TIP3    H140949   1.966   5.502   4.863
13668TIP3    H240950   1.964   5.478   4.713
13669TIP3   OH240951   4.011   6.868   5.390
13669TIP3    H140952   4.027   6.813   5.466
13669TIP3    H240953   4.072   6.941   5.399
13670TIP3   OH240954   6.735   4.288   2.046
13670TIP3    H140955   6.738   4.379   2.078
13670TIP3    H240956   6.808   4.245   2.091
13671TIP3   OH240957   3.330   7.418   0.720
13671TIP3    H140958   3.294   7.438   0.634
13671TIP3    H240959   3.425   7.425   0.709
13672TIP3   OH240960   1.292   0.221   0.649
13672TIP3    H140961   1.301   0.212   0.554
13672TIP3    H240962   1.299   0.315   0.665
13673TIP3   OH240963   4.719   3.696   6.581
13673TIP3    H140964   4.792   3.637   6.596
13673TIP3    H240965   4.677   3.704   6.667
13674TIP3   OH240966   7.044   5.557   5.843
13674TIP3    H140967   6.991   5.630   5.875
13674TIP3    H240968   6.981   5.486   5.831
13675TIP3   OH240969   2.444   5.759   6.538
13675TIP3    H140970   2.418   5.768   6.630
13675TIP3    H240971   2.495   5.678   6.535
13676TIP3   OH240972   4.876   4.190   3.732
13676TIP3    H140973   4.877   4.281   3.703
13676TIP3    H240974   4.879   4.139   3.651
13677TIP3   OH240975   1.979   6.389   1.734
13677TIP3    H140976   2.010   6.325   1.670
13677TIP3    H240977   1.957   6.467   1.683
13678TIP3   OH240978   6.238   5.329   5.207
13678TIP3    H140979   6.293   5.374   5.272
13678TIP3    H240980   6.212   5.247   5.250
13679TIP3   OH240981   3.042   6.593   1.415
13679TIP3    H140982   3.134   6.613   1.398
13679TIP3    H240983   2.997   6.677   1.404
13680TIP3   OH240984   1.897   7.101   6.670
13680TIP3    H140985   1.889   7.021   6.721
13680TIP3    H240986   1.818   7.102   6.616
13681TIP3   OH240987   1.972   2.257   0.523
13681TIP3    H140988   2.011   2.277   0.438
13681TIP3    H240989   2.042   2.275   0.586
13682TIP3   OH240990   1.774   6.037   2.914
13682TIP3    H140991   1.841   5.970   2.900
13682TIP3    H240992   1.818   6.106   2.963
13683TIP3   OH240993   1.647   5.236   3.199
13683TIP3    H140994   1.595   5.156   3.194
13683TIP3    H240995   1.653   5.256   3.293
13684TIP3   OH240996   1.064   2.930   3.237
13684TIP3    H140997   1.040   3.022   3.221
13684TIP3    H240998   0.988   2.880   3.207
13685TIP3   OH240999   5.183   7.174   2.284
13685TIP3    H141000   5.178   7.218   2.369
13685TIP3    H241001   5.093   7.146   2.266
13686TIP3   OH241002   7.225   1.870   4.949
13686TIP3    H141003   7.205   1.797   5.008
13686TIP3    H241004   7.176   1.944   4.985
13687TIP3   OH241005   3.081   1.284   2.936
13687TIP3    H141006   3.128   1.214   2.980
13687TIP3    H241007   3.150   1.336   2.894
13688TIP3   OH241008   2.118   5.673   5.958
13688TIP3    H141009   2.075   5.727   5.892
13688TIP3    H241010   2.087   5.708   6.042
13689TIP3   OH241011   3.838   2.203   3.299
13689TIP3    H141012   3.865   2.196   3.208
13689TIP3    H241013   3.790   2.285   3.303
13690TIP3   OH241014   7.690   5.147   0.770
13690TIP3    H141015   7.740   5.203   0.830
13690TIP3    H241016   7.738   5.150   0.688
13691TIP3   OH241017   7.133   6.772   6.287
13691TIP3    H141018   7.128   6.678   6.275
13691TIP3    H241019   7.045   6.803   6.265
13692TIP3   OH241020   1.189   5.311   6.184
13692TIP3    H141021   1.157   5.401   6.186
13692TIP3    H241022   1.131   5.264   6.245
13693TIP3   OH241023   5.488   4.946   5.881
13693TIP3    H141024   5.407   4.936   5.832
13693TIP3    H241025   5.528   4.859   5.880
13694TIP3   OH241026   3.134   1.749   1.762
13694TIP3    H141027   3.208   1.791   1.717
13694TIP3    H241028   3.135   1.659   1.731
13695TIP3   OH241029   1.653   6.110   2.634
13695TIP3    H141030   1.698   6.061   2.703
13695TIP3    H241031   1.719   6.120   2.565
13696TIP3   OH241032   4.586   0.929   6.267
13696TIP3    H141033   4.524   0.989   6.309
13696TIP3    H241034   4.590   0.959   6.176
13697TIP3   OH241035   6.982   4.646   3.368
13697TIP3    H141036   6.895   4.684   3.355
13697TIP3    H241037   6.974   4.556   3.334
13698TIP3   OH241038   6.842   0.657   1.523
13698TIP3    H141039   6.896   0.629   1.597
13698TIP3    H241040   6.787   0.727   1.558
13699TIP3   OH241041   4.956   4.103   3.480
13699TIP3    H141042   4.907   4.090   3.399
13699TIP3    H241043   5.048   4.089   3.455
13700TIP3   OH241044   7.148   0.445   5.877
13700TIP3    H141045   7.190   0.520   5.835
13700TIP3    H241046   7.055   0.468   5.879
13701TIP3   OH241047   0.759   6.435   4.658
13701TIP3    H141048   0.682   6.481   4.692
13701TIP3    H241049   0.749   6.345   4.688
13702TIP3   OH241050   6.236   6.840   3.987
13702TIP3    H141051   6.295   6.879   3.923
13702TIP3    H241052   6.252   6.746   3.979
13703TIP3   OH241053   4.322   2.509   3.871
13703TIP3    H141054   4.376   2.460   3.810
13703TIP3    H241055   4.232   2.498   3.838
13704TIP3   OH241056   4.157   5.333   4.676
13704TIP3    H141057   4.187   5.287   4.754
13704TIP3    H241058   4.079   5.381   4.705
13705TIP3   OH241059   6.066   7.382   2.968
13705TIP3    H141060   6.027   7.346   3.047
13705TIP3    H241061   6.063   7.309   2.905
13706TIP3   OH241062   6.669   6.329   4.829
13706TIP3    H141063   6.685   6.237   4.811
13706TIP3    H241064   6.573   6.335   4.837
13707TIP3   OH241065   5.021   7.781   2.117
13707TIP3    H141066   5.028   7.833   2.196
13707TIP3    H241067   5.025   7.690   2.147
13708TIP3   OH241068   1.297   2.569   2.576
13708TIP3    H141069   1.314   2.499   2.513
13708TIP3    H241070   1.371   2.565   2.637
13709TIP3   OH241071   0.274   3.798   6.014
13709TIP3    H141072   0.345   3.860   6.030
13709TIP3    H241073   0.196   3.852   6.010
13710TIP3   OH241074   8.190   7.246   5.583
13710TIP3    H141075   8.186   7.323   5.640
13710TIP3    H241076   8.195   7.283   5.494
13711TIP3   OH241077   4.439   7.271   3.332
13711TIP3    H141078   4.476   7.309   3.412
13711TIP3    H241079   4.505   7.209   3.302
13712TIP3   OH241080   0.950   5.572   6.448
13712TIP3    H141081   0.899   5.523   6.383
13712TIP3    H241082   0.890   5.583   6.521
13713TIP3   OH241083   1.268   0.397   1.638
13713TIP3    H141084   1.333   0.412   1.707
13713TIP3    H241085   1.219   0.480   1.635
13714TIP3   OH241086   5.231   2.198   5.576
13714TIP3    H141087   5.225   2.287   5.541
13714TIP3    H241088   5.292   2.205   5.649
13715TIP3   OH241089   5.437   0.048   1.338
13715TIP3    H141090   5.412   0.042   1.246
13715TIP3    H241091   5.481  -0.036   1.356
13716TIP3   OH241092   6.374   6.347   3.316
13716TIP3    H141093   6.357   6.291   3.392
13716TIP3    H241094   6.292   6.349   3.268
13717TIP3   OH241095   1.481   5.333   4.998
13717TIP3    H141096   1.539   5.272   4.952
13717TIP3    H241097   1.483   5.413   4.946
13718TIP3   OH241098   7.594   5.300   6.741
13718TIP3    H141099   7.636   5.333   6.661
13718TIP3    H241100   7.617   5.207   6.743
13719TIP3   OH241101   7.863   4.411   5.952
13719TIP3    H141102   7.882   4.320   5.974
13719TIP3    H241103   7.795   4.405   5.885
13720TIP3   OH241104   5.475   7.510   5.977
13720TIP3    H141105   5.459   7.590   6.026
13720TIP3    H241106   5.533   7.536   5.906
13721TIP3   OH241107   2.182   3.168   4.472
13721TIP3    H141108   2.110   3.115   4.505
13721TIP3    H241109   2.143   3.225   4.407
13722TIP3   OH241110   5.094   7.592   1.874
13722TIP3    H141111   5.083   7.656   1.804
13722TIP3    H241112   5.131   7.642   1.947
13723TIP3   OH241113   3.202   2.899   0.318
13723TIP3    H141114   3.250   2.834   0.370
13723TIP3    H241115   3.110   2.881   0.337
13724TIP3   OH241116   1.150   2.575   1.597
13724TIP3    H141117   1.182   2.661   1.625
13724TIP3    H241118   1.125   2.586   1.506
13725TIP3   OH241119   4.360   1.188   5.008
13725TIP3    H141120   4.358   1.099   5.043
13725TIP3    H241121   4.346   1.177   4.914
13726TIP3   OH241122   1.565   4.046   4.894
13726TIP3    H141123   1.618   4.112   4.848
13726TIP3    H241124   1.601   4.045   4.983
13727TIP3   OH241125   3.640   1.315   5.352
13727TIP3    H141126   3.675   1.255   5.418
13727TIP3    H241127   3.562   1.271   5.318
13728TIP3   OH241128   2.930   0.607   5.010
13728TIP3    H141129   3.020   0.606   5.044
13728TIP3    H241130   2.875   0.591   5.087
13729TIP3   OH241131   2.206   7.356   1.669
13729TIP3    H141132   2.174   7.357   1.759
13729TIP3    H241133   2.126   7.350   1.616
13730TIP3   OH241134   8.259   4.240   2.674
13730TIP3    H141135   8.227   4.203   2.756
13730TIP3    H241136   8.210   4.321   2.663
13731TIP3   OH241137   0.975   4.769   0.195
13731TIP3    H141138   0.942   4.854   0.225
13731TIP3    H241139   1.067   4.770   0.218
13732TIP3   OH241140   7.620   4.143   4.692
13732TIP3    H141141   7.617   4.146   4.788
13732TIP3    H241142   7.608   4.234   4.665
13733TIP3   OH241143   0.106   0.518   4.796
13733TIP3    H141144   0.105   0.496   4.703
13733TIP3    H241145   0.082   0.437   4.841
13734TIP3   OH241146   4.337   3.758   2.754
13734TIP3    H141147   4.311   3.667   2.739
13734TIP3    H241148   4.426   3.753   2.788
13735TIP3   OH241149   2.105   6.229   4.210
13735TIP3    H141150   2.095   6.307   4.155
13735TIP3    H241151   2.126   6.159   4.148
13736TIP3   OH241152   2.605   2.780   5.095
13736TIP3    H141153   2.525   2.767   5.145
13736TIP3    H241154   2.580   2.759   5.005
13737TIP3   OH241155   3.243   6.469   1.023
13737TIP3    H141156   3.195   6.394   0.990
13737TIP3    H241157   3.207   6.544   0.976
13738TIP3   OH241158   0.080   0.408   0.166
13738TIP3    H141159   0.175   0.412   0.154
13738TIP3    H241160   0.069   0.388   0.259
13739TIP3   OH241161   6.248   6.021   1.519
13739TIP3    H141162   6.181   6.018   1.450
13739TIP3    H241163   6.301   6.098   1.496
13740TIP3   OH241164   4.615   2.096   0.666
13740TIP3    H141165   4.672   2.062   0.597
13740TIP3    H241166   4.663   2.081   0.747
13741TIP3   OH241167   8.159   1.936   2.593
13741TIP3    H141168   8.231   1.998   2.589
13741TIP3    H241169   8.131   1.936   2.684
13742TIP3   OH241170   0.302   2.349   5.596
13742TIP3    H141171   0.385   2.396   5.583
13742TIP3    H241172   0.312   2.307   5.682
13743TIP3   OH241173   6.090   2.631   2.957
13743TIP3    H141174   6.109   2.538   2.944
13743TIP3    H241175   5.995   2.637   2.947
13744TIP3   OH241176   4.010   7.002   5.700
13744TIP3    H141177   4.092   6.954   5.714
13744TIP3    H241178   3.942   6.941   5.727
13745TIP3   OH241179   4.010   7.143   5.946
13745TIP3    H141180   4.014   7.099   5.862
13745TIP3    H241181   3.936   7.101   5.991
13746TIP3   OH241182   1.947   7.411   4.443
13746TIP3    H141183   1.889   7.384   4.514
13746TIP3    H241184   2.020   7.349   4.447
13747TIP3   OH241185   5.639   4.265   6.009
13747TIP3    H141186   5.661   4.216   5.930
13747TIP3    H241187   5.721   4.264   6.060
13748TIP3   OH241188   6.472   0.662   3.959
13748TIP3    H141189   6.407   0.646   3.890
13748TIP3    H241190   6.442   0.609   4.033
13749TIP3   OH241191   7.673   7.543   0.445
13749TIP3    H141192   7.621   7.485   0.500
13749TIP3    H241193   7.660   7.630   0.482
13750TIP3   OH241194   5.699   6.001   4.424
13750TIP3    H141195   5.768   6.025   4.363
13750TIP3    H241196   5.723   6.043   4.506
13751TIP3   OH241197   6.964   7.193   6.361
13751TIP3    H141198   7.043   7.192   6.307
13751TIP3    H241199   6.913   7.266   6.327
13752TIP3   OH241200   3.410   0.700   1.677
13752TIP3    H141201   3.453   0.620   1.646
13752TIP3    H241202   3.429   0.703   1.771
13753TIP3   OH241203   2.799   3.046   4.611
13753TIP3    H141204   2.849   3.028   4.532
13753TIP3    H241205   2.710   3.019   4.590
13754TIP3   OH241206   5.346   7.622   0.228
13754TIP3    H141207   5.352   7.529   0.207
13754TIP3    H241208   5.296   7.625   0.310
13755TIP3   OH241209   6.445   3.245   6.411
13755TIP3    H141210   6.395   3.166   6.431
13755TIP3    H241211   6.379   3.308   6.382
13756TIP3   OH241212   7.004   2.392   5.394
13756TIP3    H141213   7.048   2.428   5.471
13756TIP3    H241214   7.075   2.362   5.338
13757TIP3   OH241215   0.238   6.235   0.799
13757TIP3    H141216   0.210   6.145   0.815
13757TIP3    H241217   0.285   6.231   0.715
13758TIP3   OH241218   1.834   7.492   1.732
13758TIP3    H141219   1.792   7.436   1.667
13758TIP3    H241220   1.821   7.448   1.815
13759TIP3   OH241221   2.968   1.121   2.738
13759TIP3    H141222   2.952   1.147   2.829
13759TIP3    H241223   2.910   1.046   2.723
13760TIP3   OH241224   4.798   7.531   0.947
13760TIP3    H141225   4.727   7.526   1.011
13760TIP3    H241226   4.867   7.476   0.983
13761TIP3   OH241227   1.698   6.762   0.556
13761TIP3    H141228   1.636   6.749   0.627
13761TIP3    H241229   1.727   6.853   0.565
13762TIP3   OH241230   1.409   2.759   6.624
13762TIP3    H141231   1.335   2.764   6.563
13762TIP3    H241232   1.463   2.689   6.589
13763TIP3   OH241233   5.867   3.411   5.452
13763TIP3    H141234   5.875   3.419   5.547
13763TIP3    H241235   5.942   3.356   5.426
13764TIP3   OH241236   3.438   7.726   1.969
13764TIP3    H141237   3.358   7.730   1.918
13764TIP3    H241238   3.429   7.794   2.036
13765TIP3   OH241239   6.070   5.265   3.166
13765TIP3    H141240   6.106   5.186   3.206
13765TIP3    H241241   6.095   5.335   3.225
13766TIP3   OH241242   3.047   0.342   3.585
13766TIP3    H141243   3.078   0.262   3.628
13766TIP3    H241244   3.111   0.360   3.517
13767TIP3   OH241245   2.276   2.887   4.730
13767TIP3    H141246   2.197   2.941   4.731
13767TIP3    H241247   2.339   2.936   4.784
13768TIP3   OH241248   2.777   2.350   5.441
13768TIP3    H141249   2.828   2.424   5.407
13768TIP3    H241250   2.843   2.283   5.460
13769TIP3   OH241251   5.059   3.831   3.306
13769TIP3    H141252   5.088   3.922   3.307
13769TIP3    H241253   5.109   3.788   3.375
13770TIP3   OH241254   4.739   0.372   2.902
13770TIP3    H141255   4.693   0.455   2.889
13770TIP3    H241256   4.803   0.368   2.831
13771TIP3   OH241257   6.488   4.972   4.251
13771TIP3    H141258   6.542   4.899   4.220
13771TIP3    H241259   6.404   4.932   4.273
13772TIP3   OH241260   5.396   3.669   3.260
13772TIP3    H141261   5.337   3.685   3.334
13772TIP3    H241262   5.436   3.755   3.243
13773TIP3   OH241263   0.134   6.642   3.086
13773TIP3    H141264   0.125   6.670   2.995
13773TIP3    H241265   0.045   6.646   3.121
13774TIP3   OH241266   0.395   7.268   2.933
13774TIP3    H141267   0.419   7.346   2.983
13774TIP3    H241268   0.312   7.240   2.971
13775TIP3   OH241269   1.145   7.315   3.291
13775TIP3    H141270   1.218   7.278   3.242
13775TIP3    H241271   1.093   7.363   3.226
13776TIP3   OH241272   0.743   2.258   4.124
13776TIP3    H141273   0.647   2.260   4.121
13776TIP3    H241274   0.763   2.207   4.202
13777TIP3   OH241275   2.030   6.705   4.123
13777TIP3    H141276   2.021   6.718   4.028
13777TIP3    H241277   2.113   6.747   4.145
13778TIP3   OH241278   7.397   5.710   6.551
13778TIP3    H141279   7.460   5.640   6.536
13778TIP3    H241280   7.358   5.727   6.465
13779TIP3   OH241281   1.330   2.912   4.594
13779TIP3    H141282   1.403   2.925   4.533
13779TIP3    H241283   1.298   3.001   4.611
13780TIP3   OH241284   1.418   2.217   1.585
13780TIP3    H141285   1.325   2.209   1.563
13780TIP3    H241286   1.427   2.308   1.614
13781TIP3   OH241287   2.170   3.596   1.708
13781TIP3    H141288   2.115   3.624   1.781
13781TIP3    H241289   2.110   3.547   1.651
13782TIP3   OH241290   7.595   5.430   4.840
13782TIP3    H141291   7.507   5.416   4.875
13782TIP3    H241292   7.581   5.477   4.758
13783TIP3   OH241293   3.477   3.384   1.290
13783TIP3    H141294   3.439   3.469   1.266
13783TIP3    H241295   3.490   3.389   1.385
13784TIP3   OH241296   4.166   2.766   1.047
13784TIP3    H141297   4.228   2.761   1.119
13784TIP3    H241298   4.117   2.847   1.064
13785TIP3   OH241299   6.907   3.433   5.592
13785TIP3    H141300   6.862   3.495   5.535
13785TIP3    H241301   6.870   3.449   5.679
13786TIP3   OH241302   1.610   1.132   2.578
13786TIP3    H141303   1.663   1.147   2.499
13786TIP3    H241304   1.541   1.198   2.574
13787TIP3   OH241305   1.770   1.208   3.668
13787TIP3    H141306   1.765   1.300   3.640
13787TIP3    H241307   1.715   1.161   3.606
13788TIP3   OH241308   3.311   3.015   4.457
13788TIP3    H141309   3.264   3.050   4.533
13788TIP3    H241310   3.332   3.091   4.404
13789TIP3   OH241311   7.275   1.565   0.966
13789TIP3    H141312   7.207   1.632   0.963
13789TIP3    H241313   7.326   1.579   0.886
13790TIP3   OH241314   0.524   1.804   2.727
13790TIP3    H141315   0.468   1.858   2.671
13790TIP3    H241316   0.496   1.714   2.709
13791TIP3   OH241317   2.759   5.642   6.685
13791TIP3    H141318   2.807   5.703   6.629
13791TIP3    H241319   2.700   5.596   6.624
13792TIP3   OH241320   4.212   0.598   4.196
13792TIP3    H141321   4.225   0.655   4.121
13792TIP3    H241322   4.165   0.653   4.260
13793TIP3   OH241323   5.504   2.960   5.524
13793TIP3    H141324   5.550   3.038   5.493
13793TIP3    H241325   5.564   2.888   5.508
13794TIP3   OH241326   7.340   4.488   2.958
13794TIP3    H141327   7.308   4.480   3.048
13794TIP3    H241328   7.266   4.460   2.904
13795TIP3   OH241329   0.860   7.249   0.168
13795TIP3    H141330   0.839   7.278   0.079
13795TIP3    H241331   0.775   7.230   0.208
13796TIP3   OH241332   8.017   0.215   0.211
13796TIP3    H141333   7.958   0.210   0.135
13796TIP3    H241334   8.087   0.152   0.191
13797TIP3   OH241335   1.206   4.185   0.860
13797TIP3    H141336   1.271   4.190   0.930
13797TIP3    H241337   1.124   4.165   0.905
13798TIP3   OH241338   5.364   0.231   4.640
13798TIP3    H141339   5.333   0.299   4.580
13798TIP3    H241340   5.329   0.149   4.604
13799TIP3   OH241341   0.627   7.154   1.420
13799TIP3    H141342   0.605   7.185   1.332
13799TIP3    H241343   0.551   7.103   1.447
13800TIP3   OH241344   5.793   4.319   2.242
13800TIP3    H141345   5.857   4.250   2.257
13800TIP3    H241346   5.766   4.346   2.329
13801TIP3   OH241347   1.087   5.050   0.675
13801TIP3    H141348   1.060   4.983   0.613
13801TIP3    H241349   1.094   5.005   0.759
13802TIP3   OH241350   2.842   3.446   6.514
13802TIP3    H141351   2.776   3.382   6.542
13802TIP3    H241352   2.850   3.432   6.419
13803TIP3   OH241353   2.502   6.480   2.844
13803TIP3    H141354   2.537   6.435   2.767
13803TIP3    H241355   2.552   6.446   2.917
13804TIP3   OH241356   2.584   7.219   4.269
13804TIP3    H141357   2.609   7.273   4.344
13804TIP3    H241358   2.585   7.279   4.194
13805TIP3   OH241359   8.046   2.228   0.928
13805TIP3    H141360   8.123   2.173   0.916
13805TIP3    H241361   8.078   2.317   0.916
13806TIP3   OH241362   6.823   1.093   2.529
13806TIP3    H141363   6.863   1.048   2.455
13806TIP3    H241364   6.864   1.055   2.607
13807TIP3   OH241365   0.703   4.529   5.346
13807TIP3    H141366   0.798   4.533   5.332
13807TIP3    H241367   0.669   4.610   5.308
13808TIP3   OH241368   3.020   3.680   1.081
13808TIP3    H141369   3.014   3.684   0.986
13808TIP3    H241370   2.929   3.670   1.111
13809TIP3   OH241371   7.792   0.101   4.419
13809TIP3    H141372   7.789   0.057   4.334
13809TIP3    H241373   7.786   0.029   4.483
13810TIP3   OH241374   7.048   4.766   1.552
13810TIP3    H141375   7.028   4.768   1.646
13810TIP3    H241376   7.142   4.747   1.549
13811TIP3   OH241377   1.011   2.349   2.967
13811TIP3    H141378   0.996   2.381   3.056
13811TIP3    H241379   1.092   2.298   2.974
13812TIP3   OH241380   2.263   2.152   4.203
13812TIP3    H141381   2.290   2.076   4.152
13812TIP3    H241382   2.300   2.227   4.156
13813TIP3   OH241383   4.935   6.922   2.350
13813TIP3    H141384   4.926   6.922   2.255
13813TIP3    H241385   4.869   6.860   2.380
13814TIP3   OH241386   5.750   1.556   4.053
13814TIP3    H141387   5.747   1.480   4.111
13814TIP3    H241388   5.658   1.582   4.042
13815TIP3   OH241389   7.434   2.700   3.561
13815TIP3    H141390   7.426   2.733   3.650
13815TIP3    H241391   7.355   2.732   3.516
13816TIP3   OH241392   4.408   3.744   4.791
13816TIP3    H141393   4.326   3.730   4.839
13816TIP3    H241394   4.474   3.699   4.844
13817TIP3   OH241395   4.700   0.205   4.620
13817TIP3    H141396   4.744   0.140   4.674
13817TIP3    H241397   4.612   0.213   4.659
13818TIP3   OH241398   7.451   1.181   2.158
13818TIP3    H141399   7.363   1.214   2.171
13818TIP3    H241400   7.474   1.205   2.069
13819TIP3   OH241401   3.583   5.074   3.361
13819TIP3    H141402   3.590   5.168   3.346
13819TIP3    H241403   3.549   5.066   3.450
13820TIP3   OH241404   1.196   6.280   2.622
13820TIP3    H141405   1.192   6.185   2.616
13820TIP3    H241406   1.105   6.308   2.613
13821TIP3   OH241407   7.287   0.115   5.337
13821TIP3    H141408   7.341   0.130   5.259
13821TIP3    H241409   7.350   0.102   5.407
13822TIP3   OH241410   5.125   4.486   2.323
13822TIP3    H141411   5.125   4.529   2.409
13822TIP3    H241412   5.059   4.533   2.273
13823TIP3   OH241413   2.717   6.821   4.197
13823TIP3    H141414   2.743   6.751   4.256
13823TIP3    H241415   2.677   6.887   4.254
13824TIP3   OH241416   2.651   7.456   1.474
13824TIP3    H141417   2.697   7.520   1.418
13824TIP3    H241418   2.721   7.416   1.525
13825TIP3   OH241419   3.041   1.864   0.552
13825TIP3    H141420   2.954   1.845   0.516
13825TIP3    H241421   3.037   1.957   0.575
13826TIP3   OH241422   3.408   3.843   6.332
13826TIP3    H141423   3.501   3.865   6.327
13826TIP3    H241424   3.398   3.767   6.275
13827TIP3   OH241425   1.701   1.807   1.194
13827TIP3    H141426   1.743   1.730   1.233
13827TIP3    H241427   1.730   1.880   1.249
13828TIP3   OH241428   5.197   6.617   5.270
13828TIP3    H141429   5.200   6.703   5.311
13828TIP3    H241430   5.287   6.601   5.242
13829TIP3   OH241431   3.915   3.203   6.755
13829TIP3    H141432   4.004   3.228   6.779
13829TIP3    H241433   3.889   3.265   6.687
13830TIP3   OH241434   1.215   0.686   3.335
13830TIP3    H141435   1.285   0.686   3.401
13830TIP3    H241436   1.209   0.595   3.308
13831TIP3   OH241437   0.456   4.031   5.501
13831TIP3    H141438   0.512   4.041   5.424
13831TIP3    H241439   0.506   4.069   5.573
13832TIP3   OH241440   5.375   2.914   3.331
13832TIP3    H141441   5.465   2.945   3.344
13832TIP3    H241442   5.378   2.822   3.355
13833TIP3   OH241443   6.827   1.141   2.981
13833TIP3    H141444   6.745   1.117   2.937
13833TIP3    H241445   6.806   1.140   3.074
13834TIP3   OH241446   2.073   0.983   6.233
13834TIP3    H141447   1.978   0.987   6.221
13834TIP3    H241448   2.109   1.032   6.159
13835TIP3   OH241449   2.802   1.787   0.113
13835TIP3    H141450   2.775   1.814   0.025
13835TIP3    H241451   2.788   1.693   0.115
13836TIP3   OH241452   5.566   7.296   6.151
13836TIP3    H141453   5.661   7.283   6.155
13836TIP3    H241454   5.554   7.370   6.092
13837TIP3   OH241455   1.528   3.042   3.891
13837TIP3    H141456   1.456   3.087   3.848
13837TIP3    H241457   1.576   3.111   3.937
13838TIP3   OH241458   2.415   1.414   5.401
13838TIP3    H141459   2.422   1.336   5.456
13838TIP3    H241460   2.359   1.388   5.328
13839TIP3   OH241461   7.394   7.589   5.454
13839TIP3    H141462   7.406   7.676   5.492
13839TIP3    H241463   7.482   7.554   5.445
13840TIP3   OH241464   1.067   0.770   6.680
13840TIP3    H141465   1.038   0.701   6.741
13840TIP3    H241466   1.067   0.850   6.733
13841TIP3   OH241467   7.371   3.842   3.648
13841TIP3    H141468   7.281   3.809   3.649
13841TIP3    H241469   7.388   3.861   3.556
13842TIP3   OH241470   1.446   4.201   6.123
13842TIP3    H141471   1.513   4.154   6.073
13842TIP3    H241472   1.371   4.206   6.063
13843TIP3   OH241473   1.239   1.429   4.546
13843TIP3    H141474   1.217   1.342   4.513
13843TIP3    H241475   1.210   1.489   4.477
13844TIP3   OH241476   5.643   4.234   6.408
13844TIP3    H141477   5.613   4.184   6.484
13844TIP3    H241478   5.564   4.276   6.374
13845TIP3   OH241479   1.086   1.024   0.860
13845TIP3    H141480   1.030   0.994   0.932
13845TIP3    H241481   1.168   1.048   0.902
13846TIP3   OH241482   3.183   6.029   5.148
13846TIP3    H141483   3.264   5.981   5.131
13846TIP3    H241484   3.121   5.995   5.083
13847TIP3   OH241485   1.747   2.363   2.093
13847TIP3    H141486   1.674   2.409   2.053
13847TIP3    H241487   1.707   2.305   2.158
13848TIP3   OH241488   7.066   0.983   4.077
13848TIP3    H141489   7.058   1.076   4.053
13848TIP3    H241490   7.040   0.936   3.998
13849TIP3   OH241491   8.075   3.926   1.512
13849TIP3    H141492   8.142   3.955   1.574
13849TIP3    H241493   8.084   3.984   1.437
13850TIP3   OH241494   4.312   4.288   1.235
13850TIP3    H141495   4.217   4.294   1.225
13850TIP3    H241496   4.345   4.280   1.146
13851TIP3   OH241497   2.528   6.897   6.272
13851TIP3    H141498   2.482   6.961   6.325
13851TIP3    H241499   2.529   6.818   6.325
13852TIP3   OH241500   6.220   6.262   0.497
13852TIP3    H141501   6.309   6.297   0.500
13852TIP3    H241502   6.164   6.340   0.498
13853TIP3   OH241503   7.533   7.223   6.592
13853TIP3    H141504   7.485   7.278   6.653
13853TIP3    H241505   7.515   7.133   6.620
13854TIP3   OH241506   6.670   1.665   5.213
13854TIP3    H141507   6.647   1.613   5.290
13854TIP3    H241508   6.650   1.607   5.139
13855TIP3   OH241509   7.241   4.783   4.868
13855TIP3    H141510   7.261   4.719   4.800
13855TIP3    H241511   7.250   4.735   4.950
13856TIP3   OH241512   2.738   5.818   4.808
13856TIP3    H141513   2.658   5.802   4.858
13856TIP3    H241514   2.770   5.730   4.785
13857TIP3   OH241515   2.852   5.550   1.840
13857TIP3    H141516   2.777   5.497   1.814
13857TIP3    H241517   2.908   5.489   1.889
13858TIP3   OH241518   2.093   1.861   4.429
13858TIP3    H141519   2.042   1.795   4.477
13858TIP3    H241520   2.028   1.926   4.403
13859TIP3   OH241521   3.766   7.039   5.309
13859TIP3    H141522   3.813   7.115   5.344
13859TIP3    H241523   3.833   6.971   5.302
13860TIP3   OH241524   6.161   4.858   1.077
13860TIP3    H141525   6.163   4.949   1.107
13860TIP3    H241526   6.172   4.806   1.157
13861TIP3   OH241527   6.858   5.354   3.421
13861TIP3    H141528   6.881   5.282   3.479
13861TIP3    H241529   6.818   5.419   3.478
13862TIP3   OH241530   0.609   7.558   3.306
13862TIP3    H141531   0.568   7.630   3.355
13862TIP3    H241532   0.688   7.597   3.269
13863TIP3   OH241533   5.951   5.025   5.649
13863TIP3    H141534   5.978   5.061   5.734
13863TIP3    H241535   5.857   5.043   5.645
13864TIP3   OH241536   1.620   6.669   4.883
13864TIP3    H141537   1.594   6.761   4.890
13864TIP3    H241538   1.580   6.627   4.959
13865TIP3   OH241539   4.519   3.638   6.391
13865TIP3    H141540   4.577   3.640   6.314
13865TIP3    H241541   4.569   3.681   6.460
13866TIP3   OH241542   5.602   6.464   4.936
13866TIP3    H141543   5.650   6.502   4.862
13866TIP3    H241544   5.670   6.431   4.995
13867TIP3   OH241545   0.046   5.482   0.259
13867TIP3    H141546   0.140   5.474   0.274
13867TIP3    H241547   0.037   5.551   0.194
13868TIP3   OH241548   1.119   4.885   2.613
13868TIP3    H141549   1.087   4.927   2.533
13868TIP3    H241550   1.092   4.794   2.605
13869TIP3   OH241551   4.515   5.501   0.818
13869TIP3    H141552   4.454   5.438   0.857
13869TIP3    H241553   4.590   5.502   0.877
13870TIP3   OH241554   2.766   5.272   3.734
13870TIP3    H141555   2.806   5.359   3.732
13870TIP3    H241556   2.712   5.271   3.812
13871TIP3   OH241557   4.977   5.095   0.621
13871TIP3    H141558   4.914   5.111   0.551
13871TIP3    H241559   4.936   5.027   0.675
13872TIP3   OH241560   5.639   0.767   4.039
13872TIP3    H141561   5.618   0.733   4.126
13872TIP3    H241562   5.554   0.792   4.002
13873TIP3   OH241563   6.257   2.538   0.036
13873TIP3    H141564   6.310   2.590   0.097
13873TIP3    H241565   6.311   2.531  -0.043
13874TIP3   OH241566   4.313   2.760   0.798
13874TIP3    H141567   4.276   2.784   0.883
13874TIP3    H241568   4.242   2.714   0.753
13875TIP3   OH241569   5.148   1.143   2.422
13875TIP3    H141570   5.209   1.216   2.411
13875TIP3    H241571   5.142   1.132   2.517
13876TIP3   OH241572   5.312   2.389   6.165
13876TIP3    H141573   5.281   2.323   6.227
13876TIP3    H241574   5.381   2.344   6.115
13877TIP3   OH241575   0.514   0.190   2.550
13877TIP3    H141576   0.572   0.262   2.574
13877TIP3    H241577   0.448   0.188   2.619
13878TIP3   OH241578   7.385   5.275   1.193
13878TIP3    H141579   7.362   5.198   1.245
13878TIP3    H241580   7.383   5.243   1.102
13879TIP3   OH241581   4.994   5.605   5.092
13879TIP3    H141582   5.065   5.642   5.040
13879TIP3    H241583   5.026   5.519   5.119
13880TIP3   OH241584   2.707   7.353   1.795
13880TIP3    H141585   2.757   7.373   1.874
13880TIP3    H241586   2.622   7.322   1.827
13881TIP3   OH241587   7.288   3.393   1.141
13881TIP3    H141588   7.210   3.408   1.193
13881TIP3    H241589   7.293   3.468   1.082
13882TIP3   OH241590   5.581   3.866   2.592
13882TIP3    H141591   5.510   3.885   2.653
13882TIP3    H241592   5.556   3.784   2.550
13883TIP3   OH241593   0.685   2.153   2.277
13883TIP3    H141594   0.729   2.132   2.359
13883TIP3    H241595   0.748   2.128   2.209
13884TIP3   OH241596   1.530   3.698   5.467
13884TIP3    H141597   1.502   3.678   5.556
13884TIP3    H241598   1.566   3.616   5.433
13885TIP3   OH241599   0.078   2.652   1.216
13885TIP3    H141600   0.051   2.623   1.303
13885TIP3    H241601   0.080   2.572   1.164
13886TIP3   OH241602   6.012   0.763   5.682
13886TIP3    H141603   6.073   0.806   5.743
13886TIP3    H241604   6.006   0.673   5.714
13887TIP3   OH241605   5.319   6.153   1.129
13887TIP3    H141606   5.240   6.206   1.116
13887TIP3    H241607   5.292   6.064   1.108
13888TIP3   OH241608   7.270   6.598   5.009
13888TIP3    H141609   7.239   6.571   5.096
13888TIP3    H241610   7.221   6.678   4.990
13889TIP3   OH241611   4.344   6.347   5.728
13889TIP3    H141612   4.410   6.390   5.783
13889TIP3    H241613   4.366   6.254   5.734
13890TIP3   OH241614   3.757   3.485   3.564
13890TIP3    H141615   3.736   3.477   3.471
13890TIP3    H241616   3.703   3.418   3.606
13891TIP3   OH241617   7.661   3.701   3.675
13891TIP3    H141618   7.584   3.665   3.630
13891TIP3    H241619   7.707   3.624   3.709
13892TIP3   OH241620   1.336   0.827   1.144
13892TIP3    H141621   1.369   0.878   1.070
13892TIP3    H241622   1.255   0.870   1.170
13893TIP3   OH241623   0.079   3.850   3.347
13893TIP3    H141624   0.058   3.943   3.341
13893TIP3    H241625   0.023   3.808   3.282
13894TIP3   OH241626   2.267   7.592   4.195
13894TIP3    H141627   2.323   7.564   4.267
13894TIP3    H241628   2.258   7.686   4.206
13895TIP3   OH241629   1.115   3.216   3.390
13895TIP3    H141630   1.032   3.218   3.344
13895TIP3    H241631   1.165   3.147   3.346
13896TIP3   OH241632   1.726   4.050   5.732
13896TIP3    H141633   1.764   4.137   5.720
13896TIP3    H241634   1.708   4.020   5.643
13897TIP3   OH241635   2.665   2.635   6.058
13897TIP3    H141636   2.653   2.580   6.135
13897TIP3    H241637   2.760   2.644   6.048
13898TIP3   OH241638   3.903   3.830   5.570
13898TIP3    H141639   3.814   3.806   5.593
13898TIP3    H241640   3.914   3.919   5.603
13899TIP3   OH241641   4.411   3.066   3.397
13899TIP3    H141642   4.409   3.161   3.384
13899TIP3    H241643   4.319   3.041   3.406
13900TIP3   OH241644   1.019   5.204   6.455
13900TIP3    H141645   0.935   5.166   6.431
13900TIP3    H241646   1.012   5.297   6.431
13901TIP3   OH241647   2.954   3.356   4.527
13901TIP3    H141648   3.010   3.429   4.552
13901TIP3    H241649   2.971   3.344   4.433
13902TIP3   OH241650   6.678   0.336   6.711
13902TIP3    H141651   6.771   0.316   6.722
13902TIP3    H241652   6.641   0.325   6.798
13903TIP3   OH241653   7.857   7.634   5.459
13903TIP3    H141654   7.777   7.600   5.418
13903TIP3    H241655   7.832   7.722   5.489
13904TIP3   OH241656   6.991   6.430   4.819
13904TIP3    H141657   6.929   6.416   4.890
13904TIP3    H241658   6.978   6.356   4.760
13905TIP3   OH241659   1.311   6.713   4.935
13905TIP3    H141660   1.381   6.762   4.893
13905TIP3    H241661   1.355   6.657   4.998
13906TIP3   OH241662   2.839   0.003   1.144
13906TIP3    H141663   2.906  -0.059   1.173
13906TIP3    H241664   2.881   0.089   1.156
13907TIP3   OH241665   8.107   6.824   3.071
13907TIP3    H141666   8.086   6.746   3.019
13907TIP3    H241667   8.097   6.897   3.009
13908TIP3   OH241668   6.996   7.349   2.944
13908TIP3    H141669   6.958   7.320   2.861
13908TIP3    H241670   7.065   7.286   2.963
13909TIP3   OH241671   3.163   5.376   2.948
13909TIP3    H141672   3.201   5.456   2.913
13909TIP3    H241673   3.238   5.327   2.982
13910TIP3   OH241674   7.064   6.280   3.360
13910TIP3    H141675   7.141   6.237   3.322
13910TIP3    H241676   7.067   6.369   3.325
13911TIP3   OH241677   3.109   0.604   5.450
13911TIP3    H141678   3.101   0.571   5.361
13911TIP3    H241679   3.161   0.538   5.496
13912TIP3   OH241680   7.559   7.635   3.037
13912TIP3    H141681   7.600   7.564   2.988
13912TIP3    H241682   7.507   7.682   2.971
13913TIP3   OH241683   1.539   2.205   4.912
13913TIP3    H141684   1.541   2.195   5.007
13913TIP3    H241685   1.487   2.131   4.881
13914TIP3   OH241686   4.715   0.050   6.270
13914TIP3    H141687   4.680  -0.039   6.272
13914TIP3    H241688   4.645   0.105   6.306
13915TIP3   OH241689   6.443   7.693   3.382
13915TIP3    H141690   6.483   7.610   3.355
13915TIP3    H241691   6.419   7.736   3.299
13916TIP3   OH241692   3.055   1.622   5.094
13916TIP3    H141693   3.011   1.539   5.078
13916TIP3    H241694   3.088   1.649   5.008
13917TIP3   OH241695   0.107   1.529   5.776
13917TIP3    H141696   0.080   1.485   5.856
13917TIP3    H241697   0.185   1.481   5.747
13918TIP3   OH241698   3.551   0.727   5.656
13918TIP3    H141699   3.549   0.779   5.576
13918TIP3    H241700   3.566   0.791   5.726
13919TIP3   OH241701   2.202   2.246   2.045
13919TIP3    H141702   2.253   2.279   2.119
13919TIP3    H241703   2.209   2.314   1.978
13920TIP3   OH241704   8.245   3.242   2.085
13920TIP3    H141705   8.162   3.234   2.039
13920TIP3    H241706   8.310   3.208   2.023
13921TIP3   OH241707   3.368   3.811   1.887
13921TIP3    H141708   3.431   3.766   1.831
13921TIP3    H241709   3.292   3.754   1.889
13922TIP3   OH241710   3.732   6.504   4.198
13922TIP3    H141711   3.669   6.500   4.126
13922TIP3    H241712   3.679   6.521   4.276
13923TIP3   OH241713   0.255   1.217   3.702
13923TIP3    H141714   0.227   1.241   3.613
13923TIP3    H241715   0.175   1.183   3.743
13924TIP3   OH241716   1.415   2.113   2.561
13924TIP3    H141717   1.398   2.047   2.629
13924TIP3    H241718   1.505   2.095   2.533
13925TIP3   OH241719   0.488   6.929   6.601
13925TIP3    H141720   0.515   6.851   6.650
13925TIP3    H241721   0.566   6.986   6.603
13926TIP3   OH241722   1.193   7.556   0.122
13926TIP3    H141723   1.169   7.500   0.195
13926TIP3    H241724   1.258   7.507   0.073
13927TIP3   OH241725   4.152   0.586   4.657
13927TIP3    H141726   4.123   0.666   4.701
13927TIP3    H241727   4.101   0.516   4.698
13928TIP3   OH241728   2.791   0.168   5.560
13928TIP3    H141729   2.781   0.088   5.612
13928TIP3    H241730   2.792   0.239   5.625
13929TIP3   OH241731   1.162   5.895   3.347
13929TIP3    H141732   1.104   5.820   3.363
13929TIP3    H241733   1.143   5.956   3.418
13930TIP3   OH241734   0.236   7.639   3.745
13930TIP3    H141735   0.176   7.694   3.795
13930TIP3    H241736   0.238   7.556   3.794
13931TIP3   OH241737   3.428   0.014   3.424
13931TIP3    H141738   3.473  -0.045   3.364
13931TIP3    H241739   3.496   0.072   3.458
13932TIP3   OH241740   5.865   0.721   5.270
13932TIP3    H141741   5.958   0.699   5.277
13932TIP3    H241742   5.821   0.661   5.331
13933TIP3   OH241743   3.354   2.738   2.083
13933TIP3    H141744   3.400   2.732   1.999
13933TIP3    H241745   3.416   2.701   2.146
13934TIP3   OH241746   5.279   6.492   5.494
13934TIP3    H141747   5.237   6.527   5.416
13934TIP3    H241748   5.275   6.563   5.558
13935TIP3   OH241749   6.506   6.096   1.710
13935TIP3    H141750   6.455   6.153   1.652
13935TIP3    H241751   6.507   6.141   1.794
13936TIP3   OH241752   3.958   0.973   6.125
13936TIP3    H141753   3.958   0.921   6.205
13936TIP3    H241754   3.998   0.916   6.060
13937TIP3   OH241755   2.411   1.897   6.661
13937TIP3    H141756   2.394   1.987   6.689
13937TIP3    H241757   2.435   1.851   6.742
13938TIP3   OH241758   5.972   5.224   1.516
13938TIP3    H141759   5.977   5.158   1.585
13938TIP3    H241760   6.034   5.291   1.544
13939TIP3   OH241761   0.731   3.536   3.617
13939TIP3    H141762   0.745   3.536   3.712
13939TIP3    H241763   0.637   3.518   3.607
13940TIP3   OH241764   5.499   4.608   4.084
13940TIP3    H141765   5.524   4.699   4.065
13940TIP3    H241766   5.442   4.615   4.161
13941TIP3   OH241767   2.434   4.762   3.168
13941TIP3    H141768   2.495   4.796   3.233
13941TIP3    H241769   2.395   4.685   3.210
13942TIP3   OH241770   3.737   0.880   1.861
13942TIP3    H141771   3.716   0.908   1.772
13942TIP3    H241772   3.664   0.824   1.886
13943TIP3   OH241773   3.222   6.939   5.033
13943TIP3    H141774   3.312   6.966   5.051
13943TIP3    H241775   3.180   6.938   5.119
13944TIP3   OH241776   3.553   5.429   5.005
13944TIP3    H141777   3.591   5.517   5.016
13944TIP3    H241778   3.460   5.445   4.987
13945TIP3   OH241779   5.591   5.908   4.081
13945TIP3    H141780   5.608   5.908   3.986
13945TIP3    H241781   5.507   5.862   4.090
13946TIP3   OH241782   4.482   5.528   5.050
13946TIP3    H141783   4.567   5.495   5.081
13946TIP3    H241784   4.489   5.527   4.955
13947TIP3   OH241785   0.453   1.083   5.826
13947TIP3    H141786   0.447   1.035   5.908
13947TIP3    H241787   0.517   1.034   5.774
13948TIP3   OH241788   4.441   1.255   4.208
13948TIP3    H141789   4.489   1.239   4.289
13948TIP3    H241790   4.501   1.226   4.139
13949TIP3   OH241791   3.379   1.019   6.448
13949TIP3    H141792   3.337   1.071   6.380
13949TIP3    H241793   3.316   0.950   6.469
13950TIP3   OH241794   5.802   4.971   0.706
13950TIP3    H141795   5.827   4.927   0.788
13950TIP3    H241796   5.834   5.060   0.716
13951TIP3   OH241797   5.774   0.555   6.235
13951TIP3    H141798   5.852   0.499   6.233
13951TIP3    H241799   5.718   0.520   6.166
13952TIP3   OH241800   2.591   7.068   5.673
13952TIP3    H141801   2.639   7.149   5.687
13952TIP3    H241802   2.541   7.082   5.592
13953TIP3   OH241803   6.472   3.199   4.972
13953TIP3    H141804   6.407   3.135   4.942
13953TIP3    H241805   6.548   3.146   4.996
13954TIP3   OH241806   3.951   5.134   4.490
13954TIP3    H141807   3.975   5.224   4.511
13954TIP3    H241808   3.860   5.126   4.521
13955TIP3   OH241809   4.698   2.826   4.617
13955TIP3    H141810   4.618   2.802   4.663
13955TIP3    H241811   4.696   2.773   4.537
13956TIP3   OH241812   3.815   5.574   0.356
13956TIP3    H141813   3.818   5.609   0.445
13956TIP3    H241814   3.772   5.643   0.305
13957TIP3   OH241815   0.610   5.037   5.974
13957TIP3    H141816   0.673   4.990   6.029
13957TIP3    H241817   0.646   5.126   5.967
13958TIP3   OH241818   0.639   1.675   5.472
13958TIP3    H141819   0.582   1.634   5.537
13958TIP3    H241820   0.670   1.602   5.418
13959TIP3   OH241821   5.601   3.057   5.238
13959TIP3    H141822   5.595   3.146   5.203
13959TIP3    H241823   5.694   3.034   5.231
13960TIP3   OH241824   6.762   3.162   5.361
13960TIP3    H141825   6.823   3.094   5.389
13960TIP3    H241826   6.751   3.218   5.439
13961TIP3   OH241827   3.157   0.108   3.677
13961TIP3    H141828   3.242   0.081   3.712
13961TIP3    H241829   3.099   0.105   3.753
13962TIP3   OH241830   6.109   1.028   6.634
13962TIP3    H141831   6.166   1.103   6.620
13962TIP3    H241832   6.138   0.963   6.571
13963TIP3   OH241833   4.502   5.040   2.096
13963TIP3    H141834   4.518   5.127   2.061
13963TIP3    H241835   4.499   4.983   2.018
13964TIP3   OH241836   5.370   7.777   0.703
13964TIP3    H141837   5.431   7.825   0.759
13964TIP3    H241838   5.400   7.795   0.614
13965TIP3   OH241839   7.813   3.159   6.467
13965TIP3    H141840   7.844   3.106   6.394
13965TIP3    H241841   7.796   3.096   6.537
13966TIP3   OH241842   0.678   2.163   1.423
13966TIP3    H141843   0.723   2.229   1.475
13966TIP3    H241844   0.705   2.180   1.333
13967TIP3   OH241845   0.329   1.586   2.955
13967TIP3    H141846   0.366   1.551   2.874
13967TIP3    H241847   0.317   1.679   2.938
13968TIP3   OH241848   1.113   6.635   3.294
13968TIP3    H141849   1.059   6.669   3.365
13968TIP3    H241850   1.052   6.621   3.222
13969TIP3   OH241851   1.992   7.615   0.828
13969TIP3    H141852   1.901   7.622   0.801
13969TIP3    H241853   2.036   7.571   0.755
13970TIP3   OH241854   7.732   1.557   3.640
13970TIP3    H141855   7.728   1.650   3.662
13970TIP3    H241856   7.809   1.525   3.687
13971TIP3   OH241857   5.326   4.414   5.265
13971TIP3    H141858   5.407   4.362   5.261
13971TIP3    H241859   5.274   4.382   5.192
13972TIP3   OH241860   0.047   7.018   5.236
13972TIP3    H141861   0.080   7.080   5.301
13972TIP3    H241862   0.046   6.934   5.282
13973TIP3   OH241863   4.353   3.587   6.615
13973TIP3    H141864   4.395   3.618   6.535
13973TIP3    H241865   4.275   3.540   6.586
13974TIP3   OH241866   3.851   2.260   6.038
13974TIP3    H141867   3.900   2.310   6.103
13974TIP3    H241868   3.764   2.250   6.076
13975TIP3   OH241869   6.754   4.288   3.520
13975TIP3    H141870   6.800   4.323   3.443
13975TIP3    H241871   6.791   4.336   3.594
13976TIP3   OH241872   4.727   3.658   4.221
13976TIP3    H141873   4.689   3.591   4.278
13976TIP3    H241874   4.810   3.681   4.263
13977TIP3   OH241875   6.447   0.184   5.048
13977TIP3    H141876   6.373   0.239   5.073
13977TIP3    H241877   6.479   0.147   5.130
13978TIP3   OH241878   1.488   2.281   2.883
13978TIP3    H141879   1.466   2.245   2.797
13978TIP3    H241880   1.564   2.230   2.911
13979TIP3   OH241881   0.969   4.141   0.995
13979TIP3    H141882   0.928   4.061   0.962
13979TIP3    H241883   0.959   4.136   1.090
13980TIP3   OH241884   2.150   0.815   6.487
13980TIP3    H141885   2.076   0.773   6.442
13980TIP3    H241886   2.161   0.899   6.442
13981TIP3   OH241887   3.316   0.524   2.220
13981TIP3    H141888   3.273   0.500   2.137
13981TIP3    H241889   3.247   0.515   2.286
13982TIP3   OH241890   7.287   3.811   5.026
13982TIP3    H141891   7.252   3.733   4.982
13982TIP3    H241892   7.375   3.822   4.990
13983TIP3   OH241893   6.699   2.440   6.424
13983TIP3    H141894   6.701   2.355   6.380
13983TIP3    H241895   6.609   2.469   6.417
13984TIP3   OH241896   5.683   3.314   2.586
13984TIP3    H141897   5.644   3.324   2.673
13984TIP3    H241898   5.777   3.310   2.603
13985TIP3   OH241899   5.235   0.653   2.503
13985TIP3    H141900   5.212   0.730   2.556
13985TIP3    H241901   5.328   0.638   2.524
13986TIP3   OH241902   8.178   4.654   0.839
13986TIP3    H141903   8.137   4.739   0.857
13986TIP3    H241904   8.122   4.614   0.773
13987TIP3   OH241905   7.715   2.587   6.629
13987TIP3    H141906   7.715   2.567   6.536
13987TIP3    H241907   7.796   2.635   6.644
13988TIP3   OH241908   0.548   1.867   0.087
13988TIP3    H141909   0.516   1.791   0.038
13988TIP3    H241910   0.634   1.885   0.049
13989TIP3   OH241911   3.813   0.621   5.867
13989TIP3    H141912   3.861   0.549   5.908
13989TIP3    H241913   3.819   0.604   5.773
13990TIP3   OH241914   0.898   2.302   1.602
13990TIP3    H141915   0.933   2.238   1.663
13990TIP3    H241916   0.872   2.376   1.657
13991TIP3   OH241917   0.367   1.709   6.371
13991TIP3    H141918   0.438   1.645   6.380
13991TIP3    H241919   0.304   1.666   6.313
13992TIP3   OH241920   6.990   2.439   2.802
13992TIP3    H141921   7.055   2.502   2.772
13992TIP3    H241922   6.906   2.480   2.785
13993TIP3   OH241923   1.848   5.072   3.082
13993TIP3    H141924   1.803   5.137   3.135
13993TIP3    H241925   1.890   5.014   3.145
13994TIP3   OH241926   2.355   6.865   0.949
13994TIP3    H141927   2.263   6.875   0.972
13994TIP3    H241928   2.403   6.906   1.021
13995TIP3   OH241929   3.927   7.679   4.262
13995TIP3    H141930   3.977   7.622   4.320
13995TIP3    H241931   3.925   7.632   4.178
13996TIP3   OH241932   4.264   6.050   2.057
13996TIP3    H141933   4.242   6.113   2.125
13996TIP3    H241934   4.279   5.968   2.104
13997TIP3   OH241935   2.639   1.203   5.496
13997TIP3    H141936   2.671   1.144   5.428
13997TIP3    H241937   2.545   1.186   5.502
13998TIP3   OH241938   1.436   1.662   3.514
13998TIP3    H141939   1.454   1.641   3.606
13998TIP3    H241940   1.417   1.756   3.515
13999TIP3   OH241941   5.050   3.050   5.751
13999TIP3    H141942   5.123   3.073   5.695
13999TIP3    H241943   5.008   2.976   5.707
14000TIP3   OH241944   3.112   7.573   4.312
14000TIP3    H141945   3.047   7.586   4.243
14000TIP3    H241946   3.183   7.525   4.269
14001TIP3   OH241947   4.694   0.440   1.330
14001TIP3    H141948   4.691   0.473   1.420
14001TIP3    H241949   4.629   0.491   1.283
14002TIP3   OH241950   7.694   2.094   1.786
14002TIP3    H141951   7.736   2.178   1.804
14002TIP3    H241952   7.686   2.091   1.690
14003TIP3   OH241953   1.842   2.013   4.848
14003TIP3    H141954   1.922   1.985   4.804
14003TIP3    H241955   1.795   2.064   4.782
14004TIP3   OH241956   2.416   0.695   3.642
14004TIP3    H141957   2.485   0.638   3.609
14004TIP3    H241958   2.458   0.781   3.650
14005TIP3   OH241959   7.164   2.535   0.776
14005TIP3    H141960   7.112   2.454   0.780
14005TIP3    H241961   7.099   2.605   0.779
14006TIP3   OH241962   5.331   0.056   2.549
14006TIP3    H141963   5.295  -0.005   2.484
14006TIP3    H241964   5.311   0.016   2.634
14007TIP3   OH241965   3.810   7.337   6.116
14007TIP3    H141966   3.854   7.415   6.082
14007TIP3    H241967   3.803   7.279   6.041
14008TIP3   OH241968   1.267   3.073   5.890
14008TIP3    H141969   1.286   3.167   5.884
14008TIP3    H241970   1.308   3.046   5.972
14009TIP3   OH241971   5.044   2.580   0.389
14009TIP3    H141972   5.134   2.602   0.365
14009TIP3    H241973   4.991   2.619   0.320
14010TIP3   OH241974   6.367   7.517   4.784
14010TIP3    H141975   6.380   7.570   4.863
14010TIP3    H241976   6.382   7.579   4.712
14011TIP3   OH241977   3.661   0.246   1.919
14011TIP3    H141978   3.673   0.216   2.009
14011TIP3    H241979   3.661   0.165   1.867
14012TIP3   OH241980   5.470   0.114   0.976
14012TIP3    H141981   5.407   0.045   0.956
14012TIP3    H241982   5.417   0.188   1.005
14013TIP3   OH241983   1.693   3.743   6.545
14013TIP3    H141984   1.708   3.680   6.474
14013TIP3    H241985   1.742   3.821   6.519
14014TIP3   OH241986   2.758   7.193   3.179
14014TIP3    H141987   2.704   7.160   3.108
14014TIP3    H241988   2.834   7.231   3.136
14015TIP3   OH241989   5.173   1.897   3.451
14015TIP3    H141990   5.196   1.948   3.528
14015TIP3    H241991   5.083   1.922   3.430
14016TIP3   OH241992   1.292   1.729   5.160
14016TIP3    H141993   1.198   1.743   5.173
14016TIP3    H241994   1.303   1.634   5.164
14017TIP3   OH241995   7.871   4.256   4.259
14017TIP3    H141996   7.787   4.286   4.293
14017TIP3    H241997   7.936   4.306   4.308
14018TIP3   OH241998   5.130   6.001   2.577
14018TIP3    H141999   5.149   5.909   2.596
14018TIP3    H242000   5.171   6.050   2.649
14019TIP3   OH242001   3.232   5.750   1.626
14019TIP3    H142002   3.212   5.697   1.704
14019TIP3    H242003   3.317   5.717   1.596
14020TIP3   OH242004   7.155   7.024   3.814
14020TIP3    H142005   7.116   6.999   3.898
14020TIP3    H242006   7.200   6.945   3.784
14021TIP3   OH242007   3.965   4.332   1.556
14021TIP3    H142008   3.981   4.240   1.574
14021TIP3    H242009   3.916   4.364   1.632
14022TIP3   OH242010   3.448   6.515   2.308
14022TIP3    H142011   3.377   6.512   2.243
14022TIP3    H242012   3.455   6.608   2.331
14023TIP3   OH242013   1.433   6.944   4.159
14023TIP3    H142014   1.497   6.885   4.119
14023TIP3    H242015   1.485   7.018   4.191
14024TIP3   OH242016   7.461   1.795   4.263
14024TIP3    H142017   7.449   1.818   4.171
14024TIP3    H242018   7.418   1.710   4.272
14025TIP3   OH242019   7.054   3.261   4.563
14025TIP3    H142020   7.091   3.347   4.584
14025TIP3    H242021   7.013   3.273   4.477
14026TIP3   OH242022   4.862   0.765   0.934
14026TIP3    H142023   4.829   0.770   1.024
14026TIP3    H242024   4.813   0.693   0.895
14027TIP3   OH242025   3.957   7.711   2.133
14027TIP3    H142026   3.934   7.670   2.049
14027TIP3    H242027   4.033   7.660   2.164
14028TIP3   OH242028   4.592   0.132   3.213
14028TIP3    H142029   4.542   0.203   3.174
14028TIP3    H242030   4.544   0.108   3.292
14029TIP3   OH242031   4.964   6.185   2.115
14029TIP3    H142032   4.965   6.247   2.043
14029TIP3    H242033   4.883   6.135   2.103
14030TIP3   OH242034   0.351   6.411   2.711
14030TIP3    H142035   0.340   6.505   2.696
14030TIP3    H242036   0.308   6.395   2.795
14031TIP3   OH242037   8.143   4.455   1.024
14031TIP3    H142038   8.222   4.402   1.017
14031TIP3    H242039   8.145   4.512   0.947
14032TIP3   OH242040   5.612   5.954   0.115
14032TIP3    H142041   5.635   5.888   0.180
14032TIP3    H242042   5.530   5.991   0.147
14033TIP3   OH242043   3.286   7.753   0.474
14033TIP3    H142044   3.268   7.769   0.566
14033TIP3    H242045   3.278   7.658   0.464
14034TIP3   OH242046   3.982   4.430   0.114
14034TIP3    H142047   4.045   4.481   0.165
14034TIP3    H242048   3.993   4.340   0.144
14035TIP3   OH242049   2.465   4.598   1.390
14035TIP3    H142050   2.560   4.590   1.396
14035TIP3    H242051   2.433   4.508   1.395
14036TIP3   OH242052   7.958   4.420   2.102
14036TIP3    H142053   7.986   4.470   2.025
14036TIP3    H242054   7.879   4.374   2.073
14037TIP3   OH242055   6.114   5.231   5.547
14037TIP3    H142056   6.048   5.271   5.491
14037TIP3    H242057   6.067   5.161   5.593
14038TIP3   OH242058   6.182   5.104   3.351
14038TIP3    H142059   6.253   5.094   3.414
14038TIP3    H242060   6.164   5.015   3.322
14039TIP3   OH242061   1.496   4.729   1.780
14039TIP3    H142062   1.533   4.652   1.821
14039TIP3    H242063   1.421   4.752   1.835
14040TIP3   OH242064   5.118   3.342   6.302
14040TIP3    H142065   5.063   3.265   6.287
14040TIP3    H242066   5.205   3.315   6.272
14041TIP3   OH242067   0.583   5.391   0.819
14041TIP3    H142068   0.639   5.314   0.823
14041TIP3    H242069   0.560   5.409   0.910
14042TIP3   OH242070   5.416   7.796   4.918
14042TIP3    H142071   5.403   7.864   4.852
14042TIP3    H242072   5.412   7.714   4.869
14043TIP3   OH242073   0.072   0.198   1.283
14043TIP3    H142074   0.091   0.267   1.219
14043TIP3    H242075   0.156   0.183   1.327
14044TIP3   OH242076   6.427   5.807   1.571
14044TIP3    H142077   6.435   5.786   1.664
14044TIP3    H242078   6.346   5.857   1.563
14045TIP3   OH242079   6.693   1.543   4.977
14045TIP3    H142080   6.683   1.461   4.929
14045TIP3    H242081   6.772   1.583   4.939
14046TIP3   OH242082   6.655   4.278   4.855
14046TIP3    H142083   6.576   4.236   4.890
14046TIP3    H242084   6.622   4.351   4.803
14047TIP3   OH242085   3.097   1.448   3.951
14047TIP3    H142086   3.107   1.523   4.011
14047TIP3    H242087   3.116   1.372   4.005
14048TIP3   OH242088   1.860   4.567   1.381
14048TIP3    H142089   1.833   4.590   1.470
14048TIP3    H242090   1.874   4.652   1.338
14049TIP3   OH242091   7.254   1.482   2.749
14049TIP3    H142092   7.319   1.430   2.795
14049TIP3    H242093   7.260   1.569   2.788
14050TIP3   OH242094   1.870   3.888   2.560
14050TIP3    H142095   1.913   3.866   2.643
14050TIP3    H242096   1.820   3.809   2.538
14051TIP3   OH242097   4.477   1.064   2.647
14051TIP3    H142098   4.559   1.018   2.666
14051TIP3    H242099   4.457   1.040   2.557
14052TIP3   OH242100   5.713   6.958   0.274
14052TIP3    H142101   5.621   6.982   0.278
14052TIP3    H242102   5.727   6.899   0.348
14053TIP3   OH242103   8.094   4.748   6.208
14053TIP3    H142104   8.004   4.777   6.197
14053TIP3    H242105   8.145   4.806   6.151
14054TIP3   OH242106   5.320   6.392   4.821
14054TIP3    H142107   5.275   6.396   4.906
14054TIP3    H242108   5.381   6.319   4.830
14055TIP3   OH242109   8.009   7.110   2.527
14055TIP3    H142110   8.078   7.052   2.495
14055TIP3    H242111   7.990   7.168   2.453
14056TIP3   OH242112   0.158   6.620   0.919
14056TIP3    H142113   0.210   6.607   0.839
14056TIP3    H242114   0.112   6.703   0.904
14057TIP3   OH242115   2.565   7.674   6.482
14057TIP3    H142116   2.554   7.693   6.575
14057TIP3    H242117   2.495   7.724   6.439
14058TIP3   OH242118   3.987   4.066   5.693
14058TIP3    H142119   4.017   4.130   5.628
14058TIP3    H242120   3.941   4.118   5.758
14059TIP3   OH242121   1.227   6.260   0.180
14059TIP3    H142122   1.248   6.182   0.128
14059TIP3    H242123   1.186   6.226   0.260
14060TIP3   OH242124   6.375   5.326   2.936
14060TIP3    H142125   6.292   5.373   2.929
14060TIP3    H242126   6.433   5.387   2.982
14061TIP3   OH242127   0.841   0.661   1.516
14061TIP3    H142128   0.758   0.656   1.562
14061TIP3    H242129   0.817   0.680   1.425
14062TIP3   OH242130   4.416   1.259   1.830
14062TIP3    H142131   4.350   1.293   1.769
14062TIP3    H242132   4.494   1.311   1.811
14063TIP3   OH242133   0.815   1.901   3.511
14063TIP3    H142134   0.835   1.983   3.557
14063TIP3    H242135   0.720   1.891   3.518
14064TIP3   OH242136   5.863   2.138   3.502
14064TIP3    H142137   5.792   2.078   3.480
14064TIP3    H242138   5.873   2.193   3.424
14065TIP3   OH242139   0.468   4.013   6.115
14065TIP3    H142140   0.557   4.013   6.149
14065TIP3    H242141   0.412   4.003   6.192
14066TIP3   OH242142   1.355   7.634   6.649
14066TIP3    H142143   1.431   7.691   6.661
14066TIP3    H242144   1.297   7.656   6.722
14067TIP3   OH242145   2.361   5.253   5.317
14067TIP3    H142146   2.383   5.190   5.249
14067TIP3    H242147   2.399   5.335   5.287
14068TIP3   OH242148   2.074   3.886   5.534
14068TIP3    H142149   2.167   3.864   5.537
14068TIP3    H242150   2.070   3.976   5.567
14069TIP3   OH242151   3.716   4.462   0.088
14069TIP3    H142152   3.801   4.445   0.129
14069TIP3    H242153   3.654   4.463   0.161
14070TIP3   OH242154   3.043   2.266   4.564
14070TIP3    H142155   3.056   2.239   4.473
14070TIP3    H242156   2.983   2.341   4.558
14071TIP3   OH242157   8.234   7.242   4.919
14071TIP3    H142158   8.160   7.206   4.870
14071TIP3    H242159   8.195   7.306   4.978
14072TIP3   OH242160   5.103   2.132   4.648
14072TIP3    H142161   5.077   2.168   4.733
14072TIP3    H242162   5.119   2.209   4.593
14073TIP3   OH242163   0.540   1.559   1.838
14073TIP3    H142164   0.587   1.501   1.779
14073TIP3    H242165   0.593   1.561   1.918
14074TIP3   OH242166   1.900   4.500   2.016
14074TIP3    H142167   1.822   4.462   2.055
14074TIP3    H242168   1.973   4.457   2.061
14075TIP3   OH242169   1.287   7.053   1.575
14075TIP3    H142170   1.330   6.997   1.510
14075TIP3    H242171   1.332   7.137   1.569
14076TIP3   OH242172   3.697   3.371   2.845
14076TIP3    H142173   3.687   3.308   2.916
14076TIP3    H242174   3.609   3.379   2.808
14077TIP3   OH242175   6.462   4.282   6.057
14077TIP3    H142176   6.390   4.323   6.105
14077TIP3    H242177   6.539   4.336   6.078
14078TIP3   OH242178   1.261   6.592   2.933
14078TIP3    H142179   1.245   6.507   2.974
14078TIP3    H242180   1.285   6.571   2.843
14079TIP3   OH242181   5.017   2.856   4.537
14079TIP3    H142182   4.938   2.898   4.572
14079TIP3    H242183   5.018   2.882   4.445
14080TIP3   OH242184   7.661   0.720   4.241
14080TIP3    H142185   7.695   0.783   4.178
14080TIP3    H242186   7.643   0.642   4.189
14081TIP3   OH242187   3.628   7.028   2.135
14081TIP3    H142188   3.693   6.958   2.126
14081TIP3    H242189   3.649   7.090   2.065
14082TIP3   OH242190   7.916   6.213   5.550
14082TIP3    H142191   7.838   6.168   5.518
14082TIP3    H242192   7.934   6.172   5.635
14083TIP3   OH242193   3.197   3.519   3.786
14083TIP3    H142194   3.271   3.469   3.820
14083TIP3    H242195   3.124   3.457   3.786
14084TIP3   OH242196   4.287   3.138   1.150
14084TIP3    H142197   4.339   3.093   1.216
14084TIP3    H242198   4.325   3.111   1.066
14085TIP3   OH242199   0.433   7.522   5.696
14085TIP3    H142200   0.424   7.456   5.628
14085TIP3    H242201   0.526   7.520   5.719
14086TIP3   OH242202   4.637   1.869   4.819
14086TIP3    H142203   4.666   1.921   4.744
14086TIP3    H242204   4.712   1.869   4.879
14087TIP3   OH242205   2.279   4.385   4.911
14087TIP3    H142206   2.306   4.306   4.866
14087TIP3    H242207   2.359   4.436   4.923
14088TIP3   OH242208   2.839   1.632   0.829
14088TIP3    H142209   2.762   1.684   0.806
14088TIP3    H242210   2.853   1.575   0.753
14089TIP3   OH242211   5.299   2.172   1.140
14089TIP3    H142212   5.333   2.212   1.060
14089TIP3    H242213   5.366   2.108   1.165
14090TIP3   OH242214   2.630   4.504   0.421
14090TIP3    H142215   2.576   4.425   0.409
14090TIP3    H242216   2.580   4.558   0.482
14091TIP3   OH242217   0.267   3.741   2.581
14091TIP3    H142218   0.275   3.690   2.501
14091TIP3    H242219   0.354   3.736   2.621
14092TIP3   OH242220   0.988   4.899   2.894
14092TIP3    H142221   1.045   4.913   2.819
14092TIP3    H242222   0.902   4.882   2.856
14093TIP3   OH242223   6.335   3.747   6.197
14093TIP3    H142224   6.428   3.759   6.219
14093TIP3    H242225   6.323   3.795   6.115
14094TIP3   OH242226   3.890   1.860   1.911
14094TIP3    H142227   3.808   1.874   1.865
14094TIP3    H242228   3.938   1.942   1.903
14095TIP3   OH242229   4.918   1.219   5.923
14095TIP3    H142230   4.937   1.312   5.912
14095TIP3    H242231   4.885   1.191   5.838
14096TIP3   OH242232   3.276   1.100   5.749
14096TIP3    H142233   3.225   1.069   5.674
14096TIP3    H242234   3.220   1.166   5.791
14097TIP3   OH242235   1.391   0.633   5.760
14097TIP3    H142236   1.409   0.656   5.669
14097TIP3    H242237   1.425   0.544   5.770
14098TIP3   OH242238   6.646   0.808   3.769
14098TIP3    H142239   6.566   0.820   3.820
14098TIP3    H242240   6.716   0.803   3.835
14099TIP3   OH242241   5.997   7.659   0.665
14099TIP3    H142242   5.951   7.608   0.732
14099TIP3    H242243   5.977   7.614   0.583
14100TIP3   OH242244   3.771   1.029   4.536
14100TIP3    H142245   3.857   1.013   4.496
14100TIP3    H242246   3.768   0.971   4.612
14101TIP3   OH242247   4.827   6.800   5.877
14101TIP3    H142248   4.760   6.835   5.935
14101TIP3    H242249   4.781   6.735   5.824
14102TIP3   OH242250   4.549   0.375   5.872
14102TIP3    H142251   4.524   0.289   5.907
14102TIP3    H242252   4.638   0.362   5.839
14103TIP3   OH242253   2.590   0.731   2.602
14103TIP3    H142254   2.587   0.769   2.514
14103TIP3    H242255   2.517   0.670   2.605
14104TIP3   OH242256   0.721   4.993   3.832
14104TIP3    H142257   0.738   5.021   3.742
14104TIP3    H242258   0.673   4.911   3.823
14105TIP3   OH242259   0.916   3.564   0.269
14105TIP3    H142260   0.943   3.652   0.297
14105TIP3    H242261   0.957   3.553   0.183
14106TIP3   OH242262   4.581   0.958   4.691
14106TIP3    H142263   4.629   0.902   4.752
14106TIP3    H242264   4.631   1.039   4.687
14107TIP3   OH242265   5.387   5.664   1.939
14107TIP3    H142266   5.298   5.644   1.910
14107TIP3    H242267   5.379   5.745   1.989
14108TIP3   OH242268   3.063   6.942   2.493
14108TIP3    H142269   3.054   6.865   2.436
14108TIP3    H242270   2.974   6.960   2.523
14109TIP3   OH242271   6.291   2.570   4.639
14109TIP3    H142272   6.283   2.597   4.547
14109TIP3    H242273   6.369   2.515   4.641
14110TIP3   OH242274   3.917   5.157   1.603
14110TIP3    H142275   3.903   5.246   1.569
14110TIP3    H242276   3.831   5.116   1.598
14111TIP3   OH242277   0.936   4.294   4.047
14111TIP3    H142278   0.911   4.298   3.955
14111TIP3    H242279   0.992   4.372   4.060
14112TIP3   OH242280   4.204   0.099   4.953
14112TIP3    H142281   4.228   0.189   4.976
14112TIP3    H242282   4.284   0.049   4.971
14113TIP3   OH242283   0.238   0.937   0.942
14113TIP3    H142284   0.320   0.949   0.895
14113TIP3    H242285   0.225   1.019   0.990
14114TIP3   OH242286   1.663   0.868   2.710
14114TIP3    H142287   1.629   0.951   2.675
14114TIP3    H242288   1.588   0.809   2.706
14115TIP3   OH242289   7.232   5.870   5.248
14115TIP3    H142290   7.319   5.832   5.245
14115TIP3    H242291   7.239   5.941   5.312
14116TIP3   OH242292   6.977   1.499   3.449
14116TIP3    H142293   7.058   1.449   3.444
14116TIP3    H242294   6.955   1.517   3.357
14117TIP3   OH242295   1.775   4.071   4.195
14117TIP3    H142296   1.843   4.043   4.257
14117TIP3    H242297   1.798   4.025   4.113
14118TIP3   OH242298   1.674   6.406   3.100
14118TIP3    H142299   1.653   6.361   3.018
14118TIP3    H242300   1.589   6.432   3.136
14119TIP3   OH242301   5.016   5.030   6.749
14119TIP3    H142302   4.988   5.085   6.675
14119TIP3    H242303   5.031   4.944   6.710
14120TIP3   OH242304   4.900   7.216   2.353
14120TIP3    H142305   4.804   7.225   2.352
14120TIP3    H242306   4.914   7.124   2.375
14121TIP3   OH242307   1.815   4.722   4.036
14121TIP3    H142308   1.879   4.760   4.097
14121TIP3    H242309   1.730   4.751   4.069
14122TIP3   OH242310   3.390   2.432   0.422
14122TIP3    H142311   3.303   2.411   0.456
14122TIP3    H242312   3.393   2.528   0.423
14123TIP3   OH242313   2.768   1.356   0.905
14123TIP3    H142314   2.797   1.392   0.989
14123TIP3    H242315   2.848   1.324   0.864
14124TIP3   OH242316   6.400   2.615   2.681
14124TIP3    H142317   6.423   2.695   2.633
14124TIP3    H242318   6.393   2.643   2.772
14125TIP3   OH242319   5.120   4.795   6.133
14125TIP3    H142320   5.152   4.714   6.172
14125TIP3    H242321   5.099   4.771   6.042
14126TIP3   OH242322   7.899   0.908   4.996
14126TIP3    H142323   7.951   0.883   4.920
14126TIP3    H242324   7.811   0.878   4.976
14127TIP3   OH242325   4.265   2.238   5.494
14127TIP3    H142326   4.203   2.309   5.511
14127TIP3    H242327   4.238   2.168   5.553
14128TIP3   OH242328   7.418   6.272   2.558
14128TIP3    H142329   7.441   6.179   2.559
14128TIP3    H242330   7.489   6.314   2.510
14129TIP3   OH242331   7.783   6.181   0.989
14129TIP3    H142332   7.689   6.171   0.974
14129TIP3    H242333   7.801   6.127   1.065
14130TIP3   OH242334   2.514   7.103   0.205
14130TIP3    H142335   2.503   7.088   0.111
14130TIP3    H242336   2.539   7.018   0.240
14131TIP3   OH242337   1.216   3.132   0.459
14131TIP3    H142338   1.241   3.045   0.488
14131TIP3    H242339   1.271   3.148   0.382
14132TIP3   OH242340   3.238   4.599   6.218
14132TIP3    H142341   3.202   4.676   6.262
14132TIP3    H242342   3.188   4.525   6.254
14133TIP3   OH242343   5.760   5.354   1.710
14133TIP3    H142344   5.807   5.380   1.631
14133TIP3    H242345   5.698   5.425   1.726
14134TIP3   OH242346   2.801   2.162   2.790
14134TIP3    H142347   2.839   2.248   2.774
14134TIP3    H242348   2.755   2.140   2.709
14135TIP3   OH242349   4.673   6.273   4.271
14135TIP3    H142350   4.769   6.282   4.274
14135TIP3    H242351   4.649   6.251   4.361
14136TIP3   OH242352   5.429   1.989   5.842
14136TIP3    H142353   5.465   1.947   5.920
14136TIP3    H242354   5.393   1.917   5.790
14137TIP3   OH242355   4.424   6.452   2.161
14137TIP3    H142356   4.507   6.461   2.114
14137TIP3    H242357   4.384   6.539   2.155
14138TIP3   OH242358   8.043   3.574   0.090
14138TIP3    H142359   8.006   3.526   0.164
14138TIP3    H242360   7.968   3.592   0.033
14139TIP3   OH242361   1.358   1.103   5.141
14139TIP3    H142362   1.315   1.113   5.056
14139TIP3    H242363   1.387   1.012   5.143
14140TIP3   OH242364   3.768   5.023   6.592
14140TIP3    H142365   3.831   4.956   6.565
14140TIP3    H242366   3.703   4.976   6.644
14141TIP3   OH242367   0.027   2.034   2.087
14141TIP3    H142368   0.101   1.991   2.129
14141TIP3    H242369  -0.046   2.022   2.148
14142TIP3   OH242370   4.835   4.526   4.572
14142TIP3    H142371   4.774   4.493   4.638
14142TIP3    H242372   4.794   4.503   4.488
14143TIP3   OH242373   6.361   6.374   4.871
14143TIP3    H142374   6.276   6.418   4.870
14143TIP3    H242375   6.382   6.365   4.964
14144TIP3   OH242376   5.449   5.822   2.888
14144TIP3    H142377   5.516   5.772   2.842
14144TIP3    H242378   5.441   5.778   2.973
14145TIP3   OH242379   0.649   5.640   2.838
14145TIP3    H142380   0.727   5.600   2.876
14145TIP3    H242381   0.588   5.568   2.827
14146TIP3   OH242382   4.724   0.912   2.146
14146TIP3    H142383   4.711   0.947   2.235
14146TIP3    H242384   4.660   0.959   2.093
14147TIP3   OH242385   4.409   2.539   1.690
14147TIP3    H142386   4.393   2.541   1.595
14147TIP3    H242387   4.486   2.482   1.699
14148TIP3   OH242388   7.936   1.125   6.162
14148TIP3    H142389   7.857   1.175   6.182
14148TIP3    H242390   7.943   1.130   6.066
14149TIP3   OH242391   3.490   4.068   0.152
14149TIP3    H142392   3.444   4.141   0.112
14149TIP3    H242393   3.468   3.992   0.098
14150TIP3   OH242394   7.941   5.547   3.189
14150TIP3    H142395   7.940   5.455   3.214
14150TIP3    H242396   7.954   5.594   3.272
14151TIP3   OH242397   2.280   3.444   2.378
14151TIP3    H142398   2.278   3.435   2.473
14151TIP3    H242399   2.290   3.354   2.346
14152TIP3   OH242400   1.603   5.817   3.974
14152TIP3    H142401   1.606   5.905   3.937
14152TIP3    H242402   1.553   5.828   4.055
14153TIP3   OH242403   6.258   4.914   5.964
14153TIP3    H142404   6.299   4.842   6.013
14153TIP3    H242405   6.237   4.979   6.031
14154TIP3   OH242406   3.843   3.618   2.884
14154TIP3    H142407   3.776   3.550   2.892
14154TIP3    H242408   3.907   3.583   2.822
14155TIP3   OH242409   1.163   7.308   4.615
14155TIP3    H142410   1.189   7.371   4.682
14155TIP3    H242411   1.145   7.228   4.664
14156TIP3   OH242412   5.504   2.081   3.647
14156TIP3    H142413   5.463   2.029   3.717
14156TIP3    H242414   5.431   2.127   3.606
14157TIP3   OH242415   0.658   5.713   5.383
14157TIP3    H142416   0.651   5.792   5.437
14157TIP3    H242417   0.752   5.695   5.379
14158TIP3   OH242418   7.414   2.682   0.225
14158TIP3    H142419   7.444   2.624   0.156
14158TIP3    H242420   7.494   2.717   0.264
14159TIP3   OH242421   7.221   6.467   4.554
14159TIP3    H142422   7.252   6.439   4.640
14159TIP3    H242423   7.227   6.563   4.556
14160TIP3   OH242424   3.076   6.261   6.635
14160TIP3    H142425   3.056   6.222   6.549
14160TIP3    H242426   3.015   6.219   6.695
14161TIP3   OH242427   2.760   6.127   4.303
14161TIP3    H142428   2.804   6.073   4.369
14161TIP3    H242429   2.668   6.129   4.331
14162TIP3   OH242430   5.307   0.071   3.011
14162TIP3    H142431   5.321   0.001   3.074
14162TIP3    H242432   5.240   0.127   3.051
14163TIP3   OH242433   1.877   0.068   4.446
14163TIP3    H142434   1.806   0.117   4.488
14163TIP3    H242435   1.956   0.097   4.491
14164TIP3   OH242436   7.090   3.898   6.741
14164TIP3    H142437   7.182   3.878   6.730
14164TIP3    H242438   7.045   3.837   6.682
14165TIP3   OH242439   3.451   3.621   3.257
14165TIP3    H142440   3.405   3.580   3.330
14165TIP3    H242441   3.426   3.714   3.261
14166TIP3   OH242442   0.785   6.398   1.076
14166TIP3    H142443   0.807   6.485   1.043
14166TIP3    H242444   0.870   6.354   1.084
14167TIP3   OH242445   2.749   7.040   3.925
14167TIP3    H142446   2.735   6.949   3.898
14167TIP3    H242447   2.807   7.033   4.001
14168TIP3   OH242448   5.419   4.641   1.825
14168TIP3    H142449   5.514   4.644   1.823
14168TIP3    H242450   5.396   4.558   1.782
14169TIP3   OH242451   6.634   6.469   3.411
14169TIP3    H142452   6.544   6.449   3.438
14169TIP3    H242453   6.689   6.426   3.476
14170TIP3   OH242454   5.860   2.748   3.752
14170TIP3    H142455   5.842   2.785   3.838
14170TIP3    H242456   5.820   2.661   3.754
14171TIP3   OH242457   4.490   6.217   4.097
14171TIP3    H142458   4.410   6.252   4.136
14171TIP3    H242459   4.560   6.253   4.151
14172TIP3   OH242460   3.004   2.822   1.422
14172TIP3    H142461   3.057   2.786   1.493
14172TIP3    H242462   3.048   2.791   1.342
14173TIP3   OH242463   0.910   5.699   4.603
14173TIP3    H142464   0.980   5.717   4.539
14173TIP3    H242465   0.956   5.663   4.679
14174TIP3   OH242466   3.978   0.255   2.035
14174TIP3    H142467   3.960   0.161   2.029
14174TIP3    H242468   3.900   0.297   1.999
14175TIP3   OH242469   0.772   2.106   1.137
14175TIP3    H142470   0.786   2.015   1.110
14175TIP3    H242471   0.712   2.142   1.071
14176TIP3   OH242472   7.259   1.972   6.079
14176TIP3    H142473   7.265   1.983   5.985
14176TIP3    H242474   7.180   2.020   6.104
14177TIP3   OH242475   6.794   6.426   5.074
14177TIP3    H142476   6.754   6.366   5.011
14177TIP3    H242477   6.796   6.510   5.029
14178TIP3   OH242478   4.430   2.406   2.063
14178TIP3    H142479   4.354   2.433   2.114
14178TIP3    H242480   4.502   2.457   2.098
14179TIP3   OH242481   5.192   3.807   4.509
14179TIP3    H142482   5.184   3.831   4.601
14179TIP3    H242483   5.246   3.728   4.508
14180TIP3   OH242484   1.279   7.788   4.572
14180TIP3    H142485   1.235   7.748   4.497
14180TIP3    H242486   1.238   7.747   4.649
14181TIP3   OH242487   8.206   3.419   2.555
14181TIP3    H142488   8.153   3.497   2.570
14181TIP3    H242489   8.267   3.416   2.629
14182TIP3   OH242490   5.697   6.390   1.624
14182TIP3    H142491   5.649   6.308   1.634
14182TIP3    H242492   5.731   6.410   1.711
14183TIP3   OH242493   4.131   1.764   0.996
14183TIP3    H142494   4.119   1.834   1.060
14183TIP3    H242495   4.154   1.809   0.915
14184TIP3   OH242496   3.953   0.579   2.474
14184TIP3    H142497   3.927   0.546   2.388
14184TIP3    H242498   3.963   0.501   2.528
14185TIP3   OH242499   1.408   2.146   1.037
14185TIP3    H142500   1.430   2.106   1.121
14185TIP3    H242501   1.491   2.149   0.989
14186TIP3   OH242502   3.096   2.664   2.095
14186TIP3    H142503   3.076   2.624   2.179
14186TIP3    H242504   3.185   2.697   2.105
14187TIP3   OH242505   4.495   5.138   5.923
14187TIP3    H142506   4.503   5.200   5.850
14187TIP3    H242507   4.447   5.064   5.886
14188TIP3   OH242508   2.730   6.276   0.969
14188TIP3    H142509   2.791   6.329   0.918
14188TIP3    H242510   2.777   6.257   1.050
14189TIP3   OH242511   0.444   4.718   3.406
14189TIP3    H142512   0.350   4.724   3.426
14189TIP3    H242513   0.467   4.805   3.374
14190TIP3   OH242514   5.172   0.545   5.936
14190TIP3    H142515   5.248   0.591   5.972
14190TIP3    H242516   5.194   0.452   5.944
14191TIP3   OH242517   8.242   6.810   4.005
14191TIP3    H142518   8.321   6.770   4.042
14191TIP3    H242519   8.251   6.796   3.911
14192TIP3   OH242520   0.117   7.129   0.933
14192TIP3    H142521   0.104   7.200   0.870
14192TIP3    H242522   0.209   7.106   0.925
14193TIP3   OH242523   6.155   0.532   2.939
14193TIP3    H142524   6.176   0.444   2.969
14193TIP3    H242525   6.059   0.534   2.939
14194TIP3   OH242526   2.451   7.244   0.983
14194TIP3    H142527   2.546   7.257   0.984
14194TIP3    H242528   2.432   7.198   1.065
14195TIP3   OH242529   4.992   4.947   5.586
14195TIP3    H142530   4.922   5.000   5.549
14195TIP3    H242531   4.971   4.941   5.679
14196TIP3   OH242532   5.534   6.636   1.264
14196TIP3    H142533   5.526   6.644   1.169
14196TIP3    H242534   5.609   6.579   1.278
14197TIP3   OH242535   5.140   0.207   0.477
14197TIP3    H142536   5.133   0.142   0.548
14197TIP3    H242537   5.231   0.237   0.481
14198TIP3   OH242538   7.446   7.176   4.933
14198TIP3    H142539   7.490   7.104   4.888
14198TIP3    H242540   7.353   7.158   4.923
14199TIP3   OH242541   6.263   0.914   2.615
14199TIP3    H142542   6.239   0.824   2.636
14199TIP3    H242543   6.358   0.917   2.629
14200TIP3   OH242544   2.482   4.825   3.934
14200TIP3    H142545   2.515   4.912   3.957
14200TIP3    H242546   2.533   4.765   3.989
14201TIP3   OH242547   7.030   1.782   0.105
14201TIP3    H142548   6.984   1.799   0.022
14201TIP3    H242549   6.971   1.815   0.172
14202TIP3   OH242550   0.158   0.671   1.165
14202TIP3    H142551   0.163   0.767   1.164
14202TIP3    H242552   0.081   0.652   1.219
14203TIP3   OH242553   3.794   1.793   3.607
14203TIP3    H142554   3.788   1.731   3.534
14203TIP3    H242555   3.783   1.879   3.567
14204TIP3   OH242556   6.187   2.564   6.184
14204TIP3    H142557   6.234   2.494   6.230
14204TIP3    H242558   6.256   2.616   6.142
14205TIP3   OH242559   4.383   6.546   4.279
14205TIP3    H142560   4.359   6.639   4.279
14205TIP3    H242561   4.456   6.540   4.340
14206TIP3   OH242562   0.008   5.314   0.478
14206TIP3    H142563   0.053   5.388   0.519
14206TIP3    H242564  -0.003   5.341   0.386
14207TIP3   OH242565   5.605   6.940   6.320
14207TIP3    H142566   5.534   6.921   6.382
14207TIP3    H242567   5.649   7.016   6.358
14208TIP3   OH242568   6.904   4.414   0.938
14208TIP3    H142569   6.950   4.335   0.967
14208TIP3    H242570   6.929   4.481   1.001
14209TIP3   OH242571   0.811   6.671   6.457
14209TIP3    H142572   0.817   6.580   6.484
14209TIP3    H242573   0.832   6.671   6.363
14210TIP3   OH242574   5.887   7.406   1.770
14210TIP3    H142575   5.933   7.357   1.702
14210TIP3    H242576   5.850   7.482   1.725
14211TIP3   OH242577   3.566   3.704   3.780
14211TIP3    H142578   3.638   3.662   3.829
14211TIP3    H242579   3.528   3.632   3.729
14212TIP3   OH242580   1.362   2.383   3.489
14212TIP3    H142581   1.266   2.385   3.482
14212TIP3    H242582   1.380   2.323   3.561
14213TIP3   OH242583   4.971   7.478   4.371
14213TIP3    H142584   4.973   7.394   4.417
14213TIP3    H242585   4.993   7.455   4.280
14214TIP3   OH242586   8.031   5.369   0.512
14214TIP3    H142587   8.016   5.399   0.422
14214TIP3    H242588   8.121   5.334   0.511
14215TIP3   OH242589   5.634   1.859   2.412
14215TIP3    H142590   5.668   1.793   2.352
14215TIP3    H242591   5.585   1.809   2.477
14216TIP3   OH242592   3.639   5.407   6.662
14216TIP3    H142593   3.658   5.497   6.690
14216TIP3    H242594   3.605   5.364   6.740
14217TIP3   OH242595   1.283   6.329   1.064
14217TIP3    H142596   1.329   6.353   0.984
14217TIP3    H242597   1.352   6.301   1.124
14218TIP3   OH242598   0.557   4.736   5.205
14218TIP3    H142599   0.582   4.821   5.241
14218TIP3    H242600   0.471   4.718   5.243
14219TIP3   OH242601   2.478   0.104   1.585
14219TIP3    H142602   2.486   0.074   1.495
14219TIP3    H242603   2.501   0.028   1.638
14220TIP3   OH242604   4.691   0.635   4.378
14220TIP3    H142605   4.755   0.642   4.448
14220TIP3    H242606   4.660   0.724   4.363
14221TIP3   OH242607   1.432   7.482   0.341
14221TIP3    H142608   1.408   7.390   0.344
14221TIP3    H242609   1.411   7.515   0.428
14222TIP3   OH242610   3.917   5.721   4.344
14222TIP3    H142611   3.976   5.769   4.402
14222TIP3    H242612   3.962   5.721   4.259
14223TIP3   OH242613   3.728   7.518   3.468
14223TIP3    H142614   3.650   7.480   3.507
14223TIP3    H242615   3.784   7.443   3.448
14224TIP3   OH242616   7.070   6.039   5.023
14224TIP3    H142617   7.098   6.001   5.106
14224TIP3    H242618   7.100   5.976   4.957
14225TIP3   OH242619   5.205   0.673   1.945
14225TIP3    H142620   5.231   0.737   1.879
14225TIP3    H242621   5.110   0.683   1.952
14226TIP3   OH242622   6.664   0.421   5.279
14226TIP3    H142623   6.709   0.339   5.259
14226TIP3    H242624   6.733   0.487   5.278
14227TIP3   OH242625   0.365   6.442   3.252
14227TIP3    H142626   0.292   6.397   3.210
14227TIP3    H242627   0.427   6.373   3.274
14228TIP3   OH242628   3.281   6.182   5.507
14228TIP3    H142629   3.296   6.221   5.593
14228TIP3    H242630   3.239   6.098   5.525
14229TIP3   OH242631   3.005   1.166   6.158
14229TIP3    H142632   2.989   1.169   6.064
14229TIP3    H242633   2.919   1.182   6.197
14230TIP3   OH242634   5.817   0.433   5.041
14230TIP3    H142635   5.819   0.368   4.971
14230TIP3    H242636   5.730   0.472   5.036
14231TIP3   OH242637   1.555   2.795   4.007
14231TIP3    H142638   1.559   2.880   3.963
14231TIP3    H242639   1.603   2.736   3.949
14232TIP3   OH242640   6.750   4.169   4.059
14232TIP3    H142641   6.764   4.210   4.144
14232TIP3    H242642   6.658   4.185   4.039
14233TIP3   OH242643   5.181   6.061   4.299
14233TIP3    H142644   5.169   5.993   4.365
14233TIP3    H242645   5.275   6.080   4.299
14234TIP3   OH242646   7.443   5.113   0.204
14234TIP3    H142647   7.466   5.192   0.156
14234TIP3    H242648   7.518   5.055   0.193
14235TIP3   OH242649   2.161   4.033   3.396
14235TIP3    H142650   2.118   4.032   3.311
14235TIP3    H242651   2.253   4.051   3.376
14236TIP3   OH242652   8.228   5.123   4.577
14236TIP3    H142653   8.282   5.046   4.563
14236TIP3    H242654   8.275   5.194   4.533
14237TIP3   OH242655   4.767   7.120   5.928
14237TIP3    H142656   4.699   7.065   5.888
14237TIP3    H242657   4.836   7.124   5.863
14238TIP3   OH242658   4.875   0.504   4.207
14238TIP3    H142659   4.793   0.514   4.256
14238TIP3    H242660   4.944   0.512   4.273
14239TIP3   OH242661   3.614   4.441   3.737
14239TIP3    H142662   3.699   4.398   3.727
14239TIP3    H242663   3.551   4.370   3.727
14240TIP3   OH242664   6.363   1.192   5.341
14240TIP3    H142665   6.393   1.103   5.362
14240TIP3    H242666   6.349   1.233   5.426
14241TIP3   OH242667   7.618   5.823   1.458
14241TIP3    H142668   7.535   5.862   1.485
14241TIP3    H242669   7.621   5.835   1.364
14242TIP3   OH242670   7.530   6.084   4.049
14242TIP3    H142671   7.549   5.996   4.016
14242TIP3    H242672   7.469   6.070   4.121
14243TIP3   OH242673   1.416   2.506   1.624
14243TIP3    H142674   1.479   2.559   1.671
14243TIP3    H242675   1.335   2.557   1.627
14244TIP3   OH242676   4.748   1.462   2.284
14244TIP3    H142677   4.787   1.530   2.229
14244TIP3    H242678   4.691   1.413   2.225
14245TIP3   OH242679   5.431   0.479   4.750
14245TIP3    H142680   5.394   0.396   4.721
14245TIP3    H242681   5.524   0.472   4.730
14246TIP3   OH242682   1.104   7.546   2.121
14246TIP3    H142683   1.054   7.585   2.193
14246TIP3    H242684   1.038   7.508   2.064
14247TIP3   OH242685   2.519   1.967   6.039
14247TIP3    H142686   2.471   1.958   6.121
14247TIP3    H242687   2.567   1.885   6.029
14248TIP3   OH242688   6.007   6.004   4.796
14248TIP3    H142689   5.998   6.038   4.885
14248TIP3    H242690   6.025   5.910   4.808
14249TIP3   OH242691   4.840   4.952   2.445
14249TIP3    H142692   4.843   4.864   2.406
14249TIP3    H242693   4.758   4.953   2.494
14250TIP3   OH242694   0.273   3.431   4.606
14250TIP3    H142695   0.332   3.373   4.655
14250TIP3    H242696   0.198   3.442   4.664
14251TIP3   OH242697   0.642   0.634   0.079
14251TIP3    H142698   0.722   0.686   0.084
14251TIP3    H242699   0.603   0.642   0.166
14252TIP3   OH242700   5.839   5.008   4.217
14252TIP3    H142701   5.915   4.951   4.205
14252TIP3    H242702   5.876   5.089   4.254
14253TIP3   OH242703   6.280   2.094   5.609
14253TIP3    H142704   6.333   2.172   5.596
14253TIP3    H242705   6.250   2.070   5.522
14254TIP3   OH242706   1.746   0.326   4.984
14254TIP3    H142707   1.670   0.357   4.933
14254TIP3    H242708   1.797   0.405   5.000
14255TIP3   OH242709   3.549   0.631   1.249
14255TIP3    H142710   3.630   0.675   1.226
14255TIP3    H242711   3.555   0.545   1.207
14256TIP3   OH242712   2.811   0.121   6.158
14256TIP3    H142713   2.718   0.126   6.180
14256TIP3    H242714   2.852   0.187   6.214
14257TIP3   OH242715   2.897   0.157   1.790
14257TIP3    H142716   2.871   0.141   1.699
14257TIP3    H242717   2.815   0.155   1.839
14258TIP3   OH242718   0.342   5.072   2.860
14258TIP3    H142719   0.414   5.129   2.887
14258TIP3    H242720   0.367   5.039   2.774
14259TIP3   OH242721   6.988   3.625   5.315
14259TIP3    H142722   7.058   3.561   5.301
14259TIP3    H242723   6.916   3.595   5.259
14260TIP3   OH242724   6.206   4.591   3.728
14260TIP3    H142725   6.121   4.567   3.691
14260TIP3    H242726   6.266   4.589   3.654
14261TIP3   OH242727   5.456   1.693   1.079
14261TIP3    H142728   5.517   1.683   1.007
14261TIP3    H242729   5.497   1.756   1.138
14262TIP3   OH242730   4.970   0.450   0.665
14262TIP3    H142731   4.889   0.473   0.712
14262TIP3    H242732   4.996   0.532   0.623
14263TIP3   OH242733   2.666   2.230   1.475
14263TIP3    H142734   2.602   2.258   1.411
14263TIP3    H242735   2.730   2.180   1.424
14264TIP3   OH242736   4.203   7.519   6.094
14264TIP3    H142737   4.110   7.539   6.083
14264TIP3    H242738   4.247   7.603   6.078
14265TIP3   OH242739   3.441   6.406   4.074
14265TIP3    H142740   3.421   6.329   4.127
14265TIP3    H242741   3.364   6.462   4.082
14266TIP3   OH242742   7.944   1.728   1.539
14266TIP3    H142743   7.927   1.636   1.517
14266TIP3    H242744   7.858   1.770   1.537
14267TIP3   OH242745   8.186   6.407   2.902
14267TIP3    H142746   8.213   6.371   2.817
14267TIP3    H242747   8.219   6.344   2.966
14268TIP3   OH242748   5.949   3.925   3.579
14268TIP3    H142749   5.878   3.981   3.610
14268TIP3    H242750   6.007   3.984   3.530
14269TIP3   OH242751   8.238   3.499   0.859
14269TIP3    H142752   8.238   3.490   0.764
14269TIP3    H242753   8.268   3.414   0.891
14270TIP3   OH242754   6.609   3.496   2.500
14270TIP3    H142755   6.687   3.520   2.551
14270TIP3    H242756   6.542   3.478   2.566
14271TIP3   OH242757   1.995   3.603   5.756
14271TIP3    H142758   1.901   3.610   5.736
14271TIP3    H242759   2.000   3.537   5.825
14272TIP3   OH242760   7.870   7.264   0.062
14272TIP3    H142761   7.905   7.276  -0.026
14272TIP3    H242762   7.837   7.175   0.063
14273TIP3   OH242763   5.410   4.070   4.603
14273TIP3    H142764   5.373   4.057   4.690
14273TIP3    H242765   5.376   4.155   4.575
14274TIP3   OH242766   3.252   2.241   0.785
14274TIP3    H142767   3.297   2.166   0.746
14274TIP3    H242768   3.318   2.310   0.788
14275TIP3   OH242769   6.978   6.107   0.754
14275TIP3    H142770   6.897   6.093   0.803
14275TIP3    H242771   7.045   6.060   0.803
14276TIP3   OH242772   8.129   0.799   6.069
14276TIP3    H142773   8.191   0.727   6.080
14276TIP3    H242774   8.163   0.869   6.125
14277TIP3   OH242775   4.955   4.290   0.293
14277TIP3    H142776   4.981   4.377   0.323
14277TIP3    H242777   5.014   4.230   0.338
14278TIP3   OH242778   5.486   6.687   3.180
14278TIP3    H142779   5.485   6.707   3.273
14278TIP3    H242780   5.395   6.695   3.152
14279TIP3   OH242781   5.805   3.878   0.795
14279TIP3    H142782   5.889   3.873   0.841
14279TIP3    H242783   5.820   3.830   0.713
14280TIP3   OH242784   2.998   0.586   6.121
14280TIP3    H142785   2.923   0.531   6.147
14280TIP3    H242786   3.067   0.563   6.183
14281TIP3   OH242787   7.779   3.296   0.856
14281TIP3    H142788   7.713   3.328   0.917
14281TIP3    H242789   7.744   3.316   0.769
14282TIP3   OH242790   1.053   1.278   3.013
14282TIP3    H142791   1.012   1.360   3.043
14282TIP3    H242792   1.093   1.241   3.091
14283TIP3   OH242793   5.858   6.978   2.502
14283TIP3    H142794   5.807   7.057   2.487
14283TIP3    H242795   5.949   7.006   2.496
14284TIP3   OH242796   3.952   1.762   0.688
14284TIP3    H142797   4.039   1.724   0.672
14284TIP3    H242798   3.893   1.709   0.634
14285TIP3   OH242799   1.344   7.207   0.380
14285TIP3    H142800   1.322   7.150   0.454
14285TIP3    H242801   1.261   7.249   0.357
14286TIP3   OH242802   7.929   1.589   5.754
14286TIP3    H142803   8.004   1.529   5.748
14286TIP3    H242804   7.961   1.661   5.807
14287TIP3   OH242805   2.639   0.054   4.759
14287TIP3    H142806   2.575   0.094   4.818
14287TIP3    H242807   2.710   0.118   4.754
14288TIP3   OH242808   4.281   1.690   5.129
14288TIP3    H142809   4.361   1.664   5.082
14288TIP3    H242810   4.227   1.732   5.062
14289TIP3   OH242811   2.878   5.498   5.390
14289TIP3    H142812   2.944   5.432   5.370
14289TIP3    H242813   2.926   5.568   5.434
14290TIP3   OH242814   4.473   2.809   4.413
14290TIP3    H142815   4.517   2.731   4.379
14290TIP3    H242816   4.512   2.882   4.365
14291TIP3   OH242817   4.471   1.538   3.891
14291TIP3    H142818   4.502   1.454   3.858
14291TIP3    H242819   4.387   1.518   3.933
14292TIP3   OH242820   1.045   4.407   5.876
14292TIP3    H142821   1.042   4.312   5.863
14292TIP3    H242822   1.130   4.434   5.839
14293TIP3   OH242823   7.208   4.519   4.374
14293TIP3    H142824   7.251   4.443   4.413
14293TIP3    H242825   7.186   4.492   4.285
14294TIP3   OH242826   2.436   6.182   2.328
14294TIP3    H142827   2.478   6.098   2.344
14294TIP3    H242828   2.393   6.172   2.243
14295TIP3   OH242829   1.240   5.328   5.374
14295TIP3    H142830   1.320   5.368   5.340
14295TIP3    H242831   1.250   5.234   5.355
14296TIP3   OH242832   6.743   3.968   1.242
14296TIP3    H142833   6.673   4.016   1.285
14296TIP3    H242834   6.820   3.982   1.297
14297TIP3   OH242835   1.503   4.762   4.848
14297TIP3    H142836   1.469   4.837   4.896
14297TIP3    H242837   1.598   4.771   4.853
14298TIP3   OH242838   1.320   4.504   0.043
14298TIP3    H142839   1.387   4.437   0.033
14298TIP3    H242840   1.298   4.503   0.137
14299TIP3   OH242841   6.336   6.832   3.266
14299TIP3    H142842   6.394   6.771   3.220
14299TIP3    H242843   6.339   6.804   3.358
14300TIP3   OH242844   0.708   3.174   2.931
14300TIP3    H142845   0.773   3.131   2.875
14300TIP3    H242846   0.632   3.188   2.875
14301TIP3   OH242847   1.934   4.580   3.134
14301TIP3    H142848   1.948   4.652   3.072
14301TIP3    H242849   1.996   4.598   3.205
14302TIP3   OH242850   1.357   7.337   3.727
14302TIP3    H142851   1.452   7.335   3.741
14302TIP3    H242852   1.320   7.295   3.805
14303TIP3   OH242853   4.854   0.989   2.923
14303TIP3    H142854   4.920   0.919   2.925
14303TIP3    H242855   4.905   1.069   2.911
14304TIP3   OH242856   3.536   0.399   5.007
14304TIP3    H142857   3.596   0.338   4.963
14304TIP3    H242858   3.460   0.346   5.028
14305TIP3   OH242859   6.307   1.635   6.323
14305TIP3    H142860   6.345   1.721   6.338
14305TIP3    H242861   6.356   1.600   6.248
14306TIP3   OH242862   0.971   4.277   3.739
14306TIP3    H142863   1.067   4.281   3.745
14306TIP3    H242864   0.951   4.184   3.744
14307TIP3   OH242865   5.119   2.410   4.071
14307TIP3    H142866   5.126   2.429   3.978
14307TIP3    H242867   5.046   2.348   4.078
14308TIP3   OH242868   6.220   3.491   5.376
14308TIP3    H142869   6.204   3.508   5.469
14308TIP3    H242870   6.281   3.560   5.349
14309TIP3   OH242871   7.550   6.121   3.255
14309TIP3    H142872   7.606   6.198   3.266
14309TIP3    H242873   7.594   6.051   3.303
14310TIP3   OH242874   2.492   0.814   1.664
14310TIP3    H142875   2.492   0.724   1.632
14310TIP3    H242876   2.429   0.860   1.610
14311TIP3   OH242877   3.863   1.977   1.076
14311TIP3    H142878   3.799   2.007   1.141
14311TIP3    H242879   3.932   1.936   1.128
14312TIP3   OH242880   8.030   5.149   0.249
14312TIP3    H142881   7.953   5.205   0.264
14312TIP3    H242882   8.063   5.176   0.163
14313TIP3   OH242883   4.838   0.241   1.903
14313TIP3    H142884   4.925   0.271   1.926
14313TIP3    H242885   4.850   0.192   1.822
14314TIP3   OH242886   7.566   0.377   5.917
14314TIP3    H142887   7.575   0.456   5.970
14314TIP3    H242888   7.487   0.334   5.951
14315TIP3   OH242889   7.887   7.424   4.831
14315TIP3    H142890   7.900   7.428   4.926
14315TIP3    H242891   7.799   7.387   4.820
14316TIP3   OH242892   5.821   7.511   4.127
14316TIP3    H142893   5.739   7.517   4.175
14316TIP3    H242894   5.861   7.430   4.157
14317TIP3   OH242895   3.214   4.779   3.010
14317TIP3    H142896   3.307   4.772   2.991
14317TIP3    H242897   3.210   4.822   3.095
14318TIP3   OH242898   6.489   6.570   5.582
14318TIP3    H142899   6.509   6.504   5.516
14318TIP3    H242900   6.529   6.536   5.662
14319TIP3   OH242901   0.191   4.810   6.494
14319TIP3    H142902   0.095   4.801   6.492
14319TIP3    H242903   0.207   4.884   6.553
14320TIP3   OH242904   0.573   5.157   1.755
14320TIP3    H142905   0.497   5.159   1.813
14320TIP3    H242906   0.649   5.156   1.814
14321TIP3   OH242907   1.166   2.227   2.666
14321TIP3    H142908   1.140   2.198   2.754
14321TIP3    H242909   1.233   2.164   2.639
14322TIP3   OH242910   7.646   0.495   2.236
14322TIP3    H142911   7.706   0.508   2.163
14322TIP3    H242912   7.694   0.437   2.296
14323TIP3   OH242913   4.723   6.164   4.533
14323TIP3    H142914   4.791   6.230   4.544
14323TIP3    H242915   4.668   6.173   4.612
14324TIP3   OH242916   5.345   3.849   2.725
14324TIP3    H142917   5.272   3.789   2.741
14324TIP3    H242918   5.354   3.899   2.806
14325TIP3   OH242919   2.816   1.551   5.964
14325TIP3    H142920   2.875   1.529   6.036
14325TIP3    H242921   2.872   1.552   5.887
14326TIP3   OH242922   6.480   4.128   4.192
14326TIP3    H142923   6.394   4.098   4.162
14326TIP3    H242924   6.495   4.210   4.143
14327TIP3   OH242925   5.046   6.010   4.793
14327TIP3    H142926   5.099   6.089   4.784
14327TIP3    H242927   5.087   5.963   4.866
14328TIP3   OH242928   4.322   7.066   2.419
14328TIP3    H142929   4.370   7.149   2.410
14328TIP3    H242930   4.234   7.086   2.389
14329TIP3   OH242931   3.072   4.439   1.240
14329TIP3    H142932   2.981   4.444   1.269
14329TIP3    H242933   3.124   4.457   1.318
14330TIP3   OH242934   3.251   1.060   2.892
14330TIP3    H142935   3.345   1.038   2.893
14330TIP3    H242936   3.225   1.050   2.800
14331TIP3   OH242937   7.974   3.793   0.293
14331TIP3    H142938   8.002   3.765   0.381
14331TIP3    H242939   7.926   3.719   0.258
14332TIP3   OH242940   2.219   0.246   3.392
14332TIP3    H142941   2.224   0.332   3.351
14332TIP3    H242942   2.127   0.235   3.415
14333TIP3   OH242943   1.229   2.006   6.626
14333TIP3    H142944   1.318   1.970   6.632
14333TIP3    H242945   1.217   2.052   6.709
14334TIP3   OH242946   8.121   4.402   5.834
14334TIP3    H142947   8.196   4.430   5.886
14334TIP3    H242948   8.048   4.400   5.895
14335TIP3   OH242949   6.849   0.911   0.513
14335TIP3    H142950   6.865   1.005   0.516
14335TIP3    H242951   6.836   0.886   0.605
14336TIP3   OH242952   3.329   0.827   3.727
14336TIP3    H142953   3.239   0.841   3.755
14336TIP3    H242954   3.324   0.752   3.667
14337TIP3   OH242955   5.287   7.197   0.641
14337TIP3    H142956   5.277   7.214   0.734
14337TIP3    H242957   5.366   7.246   0.616
14338TIP3   OH242958   3.732   2.259   4.706
14338TIP3    H142959   3.794   2.332   4.711
14338TIP3    H242960   3.786   2.183   4.684
14339TIP3   OH242961   7.771   2.615   4.786
14339TIP3    H142962   7.834   2.640   4.718
14339TIP3    H242963   7.777   2.519   4.791
14340TIP3   OH242964   8.099   6.624   6.063
14340TIP3    H142965   8.089   6.690   5.995
14340TIP3    H242966   8.082   6.670   6.145
14341TIP3   OH242967   3.977   1.856   4.035
14341TIP3    H142968   4.014   1.769   4.051
14341TIP3    H242969   3.958   1.890   4.123
14342TIP3   OH242970   5.058   1.207   0.920
14342TIP3    H142971   5.074   1.196   1.014
14342TIP3    H242972   5.093   1.293   0.899
14343TIP3   OH242973   4.940   5.793   5.290
14343TIP3    H142974   4.867   5.855   5.295
14343TIP3    H242975   4.900   5.711   5.262
14344TIP3   OH242976   3.106   6.988   6.217
14344TIP3    H142977   3.069   6.946   6.139
14344TIP3    H242978   3.039   7.049   6.245
14345TIP3   OH242979   4.926   5.633   3.090
14345TIP3    H142980   4.889   5.577   3.023
14345TIP3    H242981   4.852   5.685   3.122
14346TIP3   OH242982   5.425   4.498   6.786
14346TIP3    H142983   5.432   4.589   6.758
14346TIP3    H242984   5.431   4.447   6.705
14347TIP3   OH242985   7.419   4.973   1.661
14347TIP3    H142986   7.463   5.036   1.603
14347TIP3    H242987   7.332   5.009   1.675
14348TIP3   OH242988   5.338   2.814   4.865
14348TIP3    H142989   5.419   2.836   4.911
14348TIP3    H242990   5.268   2.833   4.927
14349TIP3   OH242991   2.125   4.786   1.699
14349TIP3    H142992   2.147   4.879   1.696
14349TIP3    H242993   2.198   4.742   1.654
14350TIP3   OH242994   0.981   7.616   5.021
14350TIP3    H142995   0.948   7.649   4.938
14350TIP3    H242996   1.022   7.692   5.063
14351TIP3   OH242997   0.076   2.098   2.655
14351TIP3    H142998   0.129   2.128   2.730
14351TIP3    H242999   0.049   2.179   2.611
14352TIP3   OH243000   5.674   5.094   0.172
14352TIP3    H143001   5.627   5.076   0.254
14352TIP3    H243002   5.758   5.049   0.182
14353TIP3   OH243003   5.543   6.848   6.654
14353TIP3    H143004   5.617   6.787   6.659
14353TIP3    H243005   5.575   6.928   6.696
14354TIP3   OH243006   2.901   1.832   4.386
14354TIP3    H143007   2.956   1.819   4.463
14354TIP3    H243008   2.832   1.892   4.416
14355TIP3   OH243009   3.803   4.688   4.398
14355TIP3    H143010   3.867   4.718   4.463
14355TIP3    H243011   3.734   4.647   4.450
14356TIP3   OH243012   2.537   6.268   2.652
14356TIP3    H143013   2.537   6.172   2.649
14356TIP3    H243014   2.451   6.293   2.620
14357TIP3   OH243015   0.515   2.931   6.260
14357TIP3    H143016   0.529   3.023   6.236
14357TIP3    H243017   0.484   2.933   6.350
14358TIP3   OH243018   7.135   7.699   4.682
14358TIP3    H143019   7.117   7.697   4.776
14358TIP3    H243020   7.068   7.756   4.646
14359TIP3   OH243021   3.262   0.897   1.574
14359TIP3    H143022   3.310   0.854   1.645
14359TIP3    H243023   3.286   0.848   1.496
14360TIP3   OH243024   2.424   3.644   2.485
14360TIP3    H143025   2.385   3.563   2.452
14360TIP3    H243026   2.384   3.713   2.432
14361TIP3   OH243027   5.577   0.733   4.809
14361TIP3    H143028   5.521   0.656   4.811
14361TIP3    H243029   5.656   0.705   4.762
14362TIP3   OH243030   6.886   6.907   6.212
14362TIP3    H143031   6.809   6.853   6.195
14362TIP3    H243032   6.860   6.995   6.184
14363TIP3   OH243033   2.657   7.070   2.912
14363TIP3    H143034   2.645   7.164   2.899
14363TIP3    H243035   2.585   7.030   2.864
14364TIP3   OH243036   8.082   0.515   2.727
14364TIP3    H143037   8.032   0.445   2.767
14364TIP3    H243038   8.171   0.481   2.720
14365TIP3   OH243039   1.987   4.703   4.937
14365TIP3    H143040   2.012   4.744   4.854
14365TIP3    H243041   2.059   4.723   4.996
14366TIP3   OH243042   4.571   7.594   6.047
14366TIP3    H143043   4.592   7.681   6.014
14366TIP3    H243044   4.504   7.609   6.114
14367TIP3   OH243045   7.819   0.021   3.181
14367TIP3    H143046   7.762   0.085   3.224
14367TIP3    H243047   7.892   0.072   3.147
14368TIP3   OH243048   8.000   2.762   5.664
14368TIP3    H143049   7.985   2.673   5.631
14368TIP3    H243050   8.095   2.768   5.675
14369TIP3   OH243051   2.633   5.251   2.673
14369TIP3    H143052   2.599   5.223   2.588
14369TIP3    H243053   2.584   5.331   2.692
14370TIP3   OH243054   4.659   7.101   2.175
14370TIP3    H143055   4.675   7.008   2.162
14370TIP3    H243056   4.659   7.113   2.270
14371TIP3   OH243057   7.257   7.785   0.956
14371TIP3    H143058   7.324   7.801   0.890
14371TIP3    H243059   7.262   7.691   0.973
14372TIP3   OH243060   0.641   7.539   6.234
14372TIP3    H143061   0.604   7.458   6.199
14372TIP3    H243062   0.579   7.566   6.301
14373TIP3   OH243063   2.612   6.617   0.363
14373TIP3    H143064   2.706   6.631   0.377
14373TIP3    H243065   2.603   6.522   0.356
14374TIP3   OH243066   4.018   5.535   0.171
14374TIP3    H143067   3.952   5.547   0.239
14374TIP3    H243068   4.098   5.514   0.218
14375TIP3   OH243069   5.159   1.495   3.574
14375TIP3    H143070   5.198   1.472   3.659
14375TIP3    H243071   5.070   1.524   3.595
14376TIP3   OH243072   0.915   1.305   6.003
14376TIP3    H143073   0.898   1.385   5.953
14376TIP3    H243074   0.994   1.325   6.053
14377TIP3   OH243075   5.090   2.633   3.118
14377TIP3    H143076   5.036   2.556   3.098
14377TIP3    H243077   5.069   2.655   3.208
14378TIP3   OH243078   1.265   1.229   6.599
14378TIP3    H143079   1.321   1.172   6.546
14378TIP3    H243080   1.184   1.180   6.610
14379TIP3   OH243081   2.462   0.462   3.987
14379TIP3    H143082   2.514   0.540   3.969
14379TIP3    H243083   2.381   0.476   3.937
14380TIP3   OH243084   2.120   6.683   0.767
14380TIP3    H143085   2.069   6.667   0.847
14380TIP3    H243086   2.139   6.777   0.770
14381TIP3   OH243087   0.717   3.560   4.085
14381TIP3    H143088   0.719   3.498   4.159
14381TIP3    H243089   0.791   3.619   4.102
14382TIP3   OH243090   3.318   5.886   3.599
14382TIP3    H143091   3.283   5.827   3.532
14382TIP3    H243092   3.300   5.974   3.565
14383TIP3   OH243093   3.231   7.482   0.460
14383TIP3    H143094   3.287   7.446   0.391
14383TIP3    H243095   3.142   7.455   0.436
14384TIP3   OH243096   2.192   4.838   2.329
14384TIP3    H143097   2.172   4.850   2.236
14384TIP3    H243098   2.235   4.753   2.333
14385TIP3   OH243099   0.128   7.198   5.413
14385TIP3    H143100   0.065   7.208   5.483
14385TIP3    H243101   0.213   7.213   5.455
14386TIP3   OH243102   1.225   5.275   0.610
14386TIP3    H143103   1.167   5.207   0.641
14386TIP3    H243104   1.185   5.306   0.529
14387TIP3   OH243105   4.427   3.084   4.511
14387TIP3    H143106   4.485   3.022   4.466
14387TIP3    H243107   4.441   3.066   4.604
14388TIP3   OH243108   4.412   5.071   2.384
14388TIP3    H143109   4.389   4.983   2.353
14388TIP3    H243110   4.453   5.113   2.308
14389TIP3   OH243111   5.409   3.979   0.080
14389TIP3    H143112   5.487   3.997   0.134
14389TIP3    H243113   5.425   4.027  -0.001
14390TIP3   OH243114   1.745   5.875   0.733
14390TIP3    H143115   1.683   5.812   0.771
14390TIP3    H243116   1.705   5.960   0.748
14391TIP3   OH243117   8.228   1.131   6.618
14391TIP3    H143118   8.176   1.085   6.552
14391TIP3    H243119   8.190   1.219   6.620
14392TIP3   OH243120   5.644   5.891   1.824
14392TIP3    H143121   5.737   5.902   1.804
14392TIP3    H243122   5.644   5.852   1.912
14393TIP3   OH243123   7.390   2.367   1.834
14393TIP3    H143124   7.378   2.274   1.818
14393TIP3    H243125   7.301   2.401   1.846
14394TIP3   OH243126   7.882   7.467   4.052
14394TIP3    H143127   7.806   7.433   4.004
14394TIP3    H243128   7.938   7.390   4.065
14395TIP3   OH243129   2.778   5.218   3.386
14395TIP3    H143130   2.781   5.159   3.310
14395TIP3    H243131   2.711   5.180   3.443
14396TIP3   OH243132   8.187   6.457   4.511
14396TIP3    H143133   8.266   6.488   4.556
14396TIP3    H243134   8.220   6.398   4.443
14397TIP3   OH243135   5.856   3.439   5.722
14397TIP3    H143136   5.825   3.461   5.809
14397TIP3    H243137   5.917   3.367   5.736
14398TIP3   OH243138   6.107   1.591   3.450
14398TIP3    H143139   6.055   1.671   3.441
14398TIP3    H243140   6.058   1.537   3.512
14399TIP3   OH243141   0.732   0.125   3.498
14399TIP3    H143142   0.770   0.185   3.563
14399TIP3    H243143   0.663   0.078   3.546
14400TIP3   OH243144   2.622   0.928   5.865
14400TIP3    H143145   2.529   0.909   5.881
14400TIP3    H243146   2.642   1.002   5.923
14401TIP3   OH243147   5.206   0.915   3.543
14401TIP3    H143148   5.235   0.860   3.616
14401TIP3    H243149   5.251   0.998   3.557
14402TIP3   OH243150   2.135   5.009   0.314
14402TIP3    H143151   2.077   4.941   0.347
14402TIP3    H243152   2.211   5.006   0.372
14403TIP3   OH243153   4.181   0.156   6.094
14403TIP3    H143154   4.086   0.168   6.092
14403TIP3    H243155   4.205   0.177   6.184
14404TIP3   OH243156   1.468   7.434   0.077
14404TIP3    H143157   1.451   7.452   0.169
14404TIP3    H243158   1.487   7.519   0.039
14405TIP3   OH243159   2.517   0.959   3.574
14405TIP3    H143160   2.465   1.038   3.588
14405TIP3    H243161   2.486   0.924   3.491
14406TIP3   OH243162   5.140   6.703   4.894
14406TIP3    H143163   5.081   6.731   4.964
14406TIP3    H243164   5.216   6.762   4.902
14407TIP3   OH243165   2.385   7.500   1.471
14407TIP3    H143166   2.479   7.485   1.482
14407TIP3    H243167   2.344   7.426   1.515
14408TIP3   OH243168   2.329   4.727   2.636
14408TIP3    H143169   2.304   4.820   2.636
14408TIP3    H243170   2.421   4.727   2.610
14409TIP3   OH243171   7.678   2.528   4.445
14409TIP3    H143172   7.709   2.489   4.526
14409TIP3    H243173   7.757   2.535   4.390
14410TIP3   OH243174   8.240   0.860   1.003
14410TIP3    H143175   8.322   0.886   0.961
14410TIP3    H243176   8.195   0.942   1.020
14411TIP3   OH243177   5.229   4.957   5.195
14411TIP3    H143178   5.166   5.021   5.163
14411TIP3    H243179   5.274   4.926   5.117
14412TIP3   OH243180   7.195   7.221   2.614
14412TIP3    H143181   7.290   7.230   2.616
14412TIP3    H243182   7.179   7.127   2.605
14413TIP3   OH243183   7.009   6.555   5.417
14413TIP3    H143184   7.013   6.602   5.500
14413TIP3    H243185   6.917   6.562   5.391
14414TIP3   OH243186   7.693   5.110   3.137
14414TIP3    H143187   7.741   5.071   3.210
14414TIP3    H243188   7.757   5.114   3.066
14415TIP3   OH243189   8.131   0.897   3.131
14415TIP3    H143190   8.126   0.801   3.123
14415TIP3    H243191   8.040   0.925   3.133
14416TIP3   OH243192   4.181   5.815   2.646
14416TIP3    H143193   4.160   5.896   2.601
14416TIP3    H243194   4.264   5.786   2.607
14417TIP3   OH243195   2.245   0.779   6.154
14417TIP3    H143196   2.221   0.688   6.137
14417TIP3    H243197   2.171   0.815   6.203
14418TIP3   OH243198   0.899   7.358   4.614
14418TIP3    H143199   0.979   7.326   4.572
14418TIP3    H243200   0.927   7.382   4.703
14419TIP3   OH243201   6.985   2.957   1.770
14419TIP3    H143202   7.071   2.957   1.812
14419TIP3    H243203   6.989   2.886   1.706
14420TIP3   OH243204   6.146   7.162   6.124
14420TIP3    H143205   6.214   7.135   6.062
14420TIP3    H243206   6.174   7.248   6.154
14421TIP3   OH243207   5.613   1.639   3.565
14421TIP3    H143208   5.521   1.663   3.552
14421TIP3    H243209   5.610   1.556   3.612
14422TIP3   OH243210   7.723   3.641   5.544
14422TIP3    H143211   7.806   3.636   5.496
14422TIP3    H243212   7.670   3.570   5.508
14423TIP3   OH243213   4.570   1.320   5.142
14423TIP3    H143214   4.641   1.314   5.078
14423TIP3    H243215   4.508   1.252   5.115
14424TIP3   OH243216   5.209   4.029   3.400
14424TIP3    H143217   5.228   4.056   3.490
14424TIP3    H243218   5.224   4.107   3.347
14425TIP3   OH243219   6.379   3.354   2.983
14425TIP3    H143220   6.355   3.438   3.021
14425TIP3    H243221   6.328   3.290   3.033
14426TIP3   OH243222   2.069   0.008   6.739
14426TIP3    H143223   2.074   0.103   6.739
14426TIP3    H243224   2.026  -0.014   6.656
14427TIP3   OH243225   2.779   0.161   2.233
14427TIP3    H143226   2.728   0.224   2.183
14427TIP3    H243227   2.718   0.127   2.299
14428TIP3   OH243228   0.918   1.044   2.596
14428TIP3    H143229   0.833   1.022   2.556
14428TIP3    H243230   0.929   1.137   2.579
14429TIP3   OH243231   3.617   7.373   5.179
14429TIP3    H143232   3.664   7.324   5.112
14429TIP3    H243233   3.530   7.389   5.141
14430TIP3   OH243234   5.380   2.513   1.098
14430TIP3    H143235   5.453   2.575   1.101
14430TIP3    H243236   5.304   2.566   1.072
14431TIP3   OH243237   1.870   7.554   2.341
14431TIP3    H143238   1.892   7.642   2.371
14431TIP3    H243239   1.814   7.568   2.265
14432TIP3   OH243240   0.774   0.353   3.950
14432TIP3    H143241   0.687   0.382   3.979
14432TIP3    H243242   0.828   0.357   4.029
14433TIP3   OH243243   4.335   3.541   5.455
14433TIP3    H143244   4.415   3.496   5.427
14433TIP3    H243245   4.327   3.615   5.395
14434TIP3   OH243246   3.619   1.290   1.346
14434TIP3    H143247   3.540   1.271   1.398
14434TIP3    H243248   3.586   1.334   1.268
14435TIP3   OH243249   2.761   4.631   6.710
14435TIP3    H143250   2.849   4.603   6.733
14435TIP3    H243251   2.703   4.576   6.763
14436TIP3   OH243252   5.550   2.796   6.575
14436TIP3    H143253   5.555   2.827   6.485
14436TIP3    H243254   5.630   2.830   6.617
14437TIP3   OH243255   5.412   2.099   0.022
14437TIP3    H143256   5.404   2.004   0.022
14437TIP3    H243257   5.500   2.116   0.054
14438TIP3   OH243258   8.085   3.869   0.005
14438TIP3    H143259   8.176   3.898   0.004
14438TIP3    H243260   8.082   3.804   0.075
14439TIP3   OH243261   4.725   5.140   2.873
14439TIP3    H143262   4.672   5.128   2.952
14439TIP3    H243263   4.665   5.176   2.808
14440TIP3   OH243264   8.155   1.357   3.310
14440TIP3    H143265   8.138   1.432   3.253
14440TIP3    H243266   8.232   1.314   3.271
14441TIP3   OH243267   1.069   6.857   4.879
14441TIP3    H143268   0.993   6.799   4.879
14441TIP3    H243269   1.140   6.803   4.916
14442TIP3   OH243270   3.744   7.207   4.108
14442TIP3    H143271   3.667   7.152   4.092
14442TIP3    H243272   3.709   7.296   4.115
14443TIP3   OH243273   6.568   1.855   0.908
14443TIP3    H143274   6.577   1.915   0.834
14443TIP3    H243275   6.527   1.777   0.871
14444TIP3   OH243276   7.829   5.403   5.556
14444TIP3    H143277   7.834   5.498   5.565
14444TIP3    H243278   7.840   5.370   5.645
14445TIP3   OH243279   0.580   2.076   5.266
14445TIP3    H143280   0.598   2.033   5.350
14445TIP3    H243281   0.663   2.069   5.218
14446TIP3   OH243282   6.964   6.558   3.333
14446TIP3    H143283   6.897   6.618   3.300
14446TIP3    H243284   6.923   6.517   3.410
14447TIP3   OH243285   6.172   0.871   5.451
14447TIP3    H143286   6.099   0.928   5.425
14447TIP3    H243287   6.143   0.831   5.533
14448TIP3   OH243288   2.437   1.518   3.022
14448TIP3    H143289   2.500   1.527   3.093
14448TIP3    H243290   2.356   1.491   3.065
14449TIP3   OH243291   4.851   6.590   6.490
14449TIP3    H143292   4.806   6.655   6.543
14449TIP3    H243293   4.837   6.619   6.400
14450TIP3   OH243294   3.325   3.543   0.841
14450TIP3    H143295   3.340   3.626   0.796
14450TIP3    H243296   3.331   3.565   0.934
14451TIP3   OH243297   5.942   6.975   6.680
14451TIP3    H143298   5.889   7.020   6.614
14451TIP3    H243299   6.029   6.967   6.640
14452TIP3   OH243300   4.091   1.961   3.392
14452TIP3    H143301   4.013   1.921   3.354
14452TIP3    H243302   4.115   1.902   3.464
14453TIP3   OH243303   3.102   5.409   5.195
14453TIP3    H143304   3.164   5.481   5.180
14453TIP3    H243305   3.048   5.407   5.116
14454TIP3   OH243306   2.932   7.285   6.512
14454TIP3    H143307   2.970   7.204   6.546
14454TIP3    H243308   2.881   7.320   6.585
14455TIP3   OH243309   4.070   1.803   4.932
14455TIP3    H143310   4.058   1.890   4.970
14455TIP3    H243311   4.082   1.818   4.838
14456TIP3   OH243312   3.546   0.971   4.844
14456TIP3    H143313   3.483   0.906   4.876
14456TIP3    H243314   3.493   1.030   4.789
14457TIP3   OH243315   0.152   7.773   0.565
14457TIP3    H143316   0.183   7.765   0.656
14457TIP3    H243317   0.218   7.727   0.513
14458TIP3   OH243318   0.759   3.805   6.627
14458TIP3    H143319   0.839   3.752   6.629
14458TIP3    H243320   0.733   3.813   6.718
14459TIP3   OH243321   6.875   2.741   0.077
14459TIP3    H143322   6.843   2.759   0.166
14459TIP3    H243323   6.965   2.711   0.090
14460TIP3   OH243324   0.907   2.500   3.207
14460TIP3    H143325   0.925   2.454   3.289
14460TIP3    H243326   0.816   2.477   3.187
14461TIP3   OH243327   6.501   1.055   3.884
14461TIP3    H143328   6.504   1.143   3.847
14461TIP3    H243329   6.426   1.013   3.841
14462TIP3   OH243330   2.954   2.142   5.525
14462TIP3    H143331   2.906   2.131   5.608
14462TIP3    H243332   2.997   2.057   5.512
14463TIP3   OH243333   3.961   1.494   0.423
14463TIP3    H143334   4.007   1.539   0.494
14463TIP3    H243335   3.961   1.557   0.351
14464TIP3   OH243336   4.116   5.715   4.145
14464TIP3    H143337   4.188   5.775   4.163
14464TIP3    H243338   4.148   5.659   4.075
14465TIP3   OH243339   5.035   0.504   3.010
14465TIP3    H143340   5.013   0.514   3.102
14465TIP3    H243341   4.955   0.474   2.968
14466TIP3   OH243342   4.626   6.809   3.931
14466TIP3    H143343   4.715   6.783   3.908
14466TIP3    H243344   4.583   6.728   3.958
14467TIP3   OH243345   0.789   4.042   3.552
14467TIP3    H143346   0.785   4.097   3.630
14467TIP3    H243347   0.857   3.978   3.571
14468TIP3   OH243348   7.269   5.006   5.314
14468TIP3    H143349   7.264   5.083   5.372
14468TIP3    H243350   7.363   4.997   5.296
14469TIP3   OH243351   4.549   2.521   5.381
14469TIP3    H143352   4.611   2.531   5.309
14469TIP3    H243353   4.467   2.557   5.347
14470TIP3   OH243354   0.652   5.517   1.360
14470TIP3    H143355   0.675   5.456   1.430
14470TIP3    H243356   0.567   5.554   1.386
14471TIP3   OH243357   8.209   1.850   2.336
14471TIP3    H143358   8.118   1.833   2.311
14471TIP3    H243359   8.203   1.889   2.424
14472TIP3   OH243360   2.916   4.204   1.017
14472TIP3    H143361   2.945   4.136   0.956
14472TIP3    H243362   2.957   4.284   0.985
14473TIP3   OH243363   1.703   1.915   6.252
14473TIP3    H143364   1.639   1.913   6.323
14473TIP3    H243365   1.652   1.894   6.174
14474TIP3   OH243366   3.113   7.744   6.046
14474TIP3    H143367   3.132   7.651   6.060
14474TIP3    H243368   3.108   7.753   5.951
14475TIP3   OH243369   6.934   0.370   3.544
14475TIP3    H143370   6.850   0.351   3.501
14475TIP3    H243371   6.917   0.449   3.595
14476TIP3   OH243372   0.178   5.516   5.661
14476TIP3    H143373   0.264   5.545   5.692
14476TIP3    H243374   0.163   5.432   5.705
14477TIP3   OH243375   0.217   5.541   6.318
14477TIP3    H143376   0.139   5.524   6.370
14477TIP3    H243377   0.204   5.629   6.283
14478TIP3   OH243378   0.088   4.588   6.233
14478TIP3    H143379   0.087   4.614   6.325
14478TIP3    H243380   0.181   4.587   6.209
14479TIP3   OH243381   7.234   3.662   2.136
14479TIP3    H143382   7.315   3.682   2.090
14479TIP3    H243383   7.262   3.624   2.219
14480TIP3   OH243384   6.872   6.791   2.905
14480TIP3    H143385   6.825   6.802   2.823
14480TIP3    H243386   6.948   6.850   2.897
14481TIP3   OH243387   2.168   3.556   6.630
14481TIP3    H143388   2.210   3.552   6.716
14481TIP3    H243389   2.136   3.646   6.624
14482TIP3   OH243390   0.262   2.951   5.532
14482TIP3    H143391   0.314   2.874   5.551
14482TIP3    H243392   0.241   2.988   5.618
14483TIP3   OH243393   6.755   6.776   3.854
14483TIP3    H143394   6.771   6.857   3.805
14483TIP3    H243395   6.664   6.754   3.836
14484TIP3   OH243396   6.865   1.860   3.074
14484TIP3    H143397   6.772   1.864   3.055
14484TIP3    H243398   6.882   1.937   3.129
14485TIP3   OH243399   2.408   2.821   1.908
14485TIP3    H143400   2.495   2.786   1.926
14485TIP3    H243401   2.351   2.781   1.974
14486TIP3   OH243402   6.124   1.372   2.177
14486TIP3    H143403   6.142   1.280   2.157
14486TIP3    H243404   6.158   1.420   2.101
14487TIP3   OH243405   7.321   5.357   4.959
14487TIP3    H143406   7.297   5.278   5.006
14487TIP3    H243407   7.260   5.423   4.989
14488TIP3   OH243408   7.385   3.024   3.190
14488TIP3    H143409   7.293   3.032   3.215
14488TIP3    H243410   7.389   2.944   3.137
14489TIP3   OH243411   4.216   5.331   3.669
14489TIP3    H143412   4.307   5.334   3.698
14489TIP3    H243413   4.193   5.422   3.652
14490TIP3   OH243414   1.194   1.370   6.068
14490TIP3    H143415   1.261   1.349   6.003
14490TIP3    H243416   1.242   1.381   6.150
14491TIP3   OH243417   3.277   5.805   0.764
14491TIP3    H143418   3.346   5.871   0.775
14491TIP3    H243419   3.291   5.771   0.676
14492TIP3   OH243420   7.772   1.951   4.657
14492TIP3    H143421   7.724   1.966   4.575
14492TIP3    H243422   7.822   1.871   4.642
14493TIP3   OH243423   7.554   6.929   4.847
14493TIP3    H143424   7.573   6.892   4.933
14493TIP3    H243425   7.544   6.853   4.790
14494TIP3   OH243426   6.829   3.214   1.142
14494TIP3    H143427   6.820   3.161   1.062
14494TIP3    H243428   6.743   3.213   1.182
14495TIP3   OH243429   5.455   7.041   4.724
14495TIP3    H143430   5.514   7.115   4.732
14495TIP3    H243431   5.387   7.071   4.663
14496TIP3   OH243432   5.414   2.848   2.261
14496TIP3    H143433   5.319   2.859   2.259
14496TIP3    H243434   5.436   2.837   2.353
14497TIP3   OH243435   8.188   6.655   2.739
14497TIP3    H143436   8.198   6.571   2.783
14497TIP3    H243437   8.177   6.632   2.646
14498TIP3   OH243438   6.387   4.324   5.359
14498TIP3    H143439   6.375   4.412   5.324
14498TIP3    H243440   6.458   4.286   5.308
14499TIP3   OH243441   6.579   1.942   3.042
14499TIP3    H143442   6.491   1.934   3.079
14499TIP3    H243443   6.588   2.035   3.021
14500TIP3   OH243444   1.287   5.550   0.089
14500TIP3    H143445   1.366   5.569   0.139
14500TIP3    H243446   1.221   5.528   0.154
14501TIP3   OH243447   5.630   6.468   6.469
14501TIP3    H143448   5.674   6.553   6.463
14501TIP3    H243449   5.550   6.485   6.520
14502TIP3   OH243450   6.897   1.635   2.517
14502TIP3    H143451   6.901   1.654   2.611
14502TIP3    H243452   6.876   1.541   2.513
14503TIP3   OH243453   0.063   6.056   4.692
14503TIP3    H143454   0.053   5.966   4.658
14503TIP3    H243455  -0.004   6.106   4.647
14504TIP3   OH243456   0.880   5.198   0.473
14504TIP3    H143457   0.871   5.117   0.421
14504TIP3    H243458   0.790   5.230   0.482
14505TIP3   OH243459   7.719   5.591   3.471
14505TIP3    H143460   7.769   5.509   3.469
14505TIP3    H243461   7.766   5.646   3.534
14506TIP3   OH243462   0.080   5.883   2.628
14506TIP3    H143463   0.050   5.830   2.702
14506TIP3    H243464   0.165   5.846   2.606
14507TIP3   OH243465   2.074   3.255   5.098
14507TIP3    H143466   2.073   3.251   5.193
14507TIP3    H243467   2.054   3.166   5.069
14508TIP3   OH243468   0.888   0.478   2.157
14508TIP3    H143469   0.797   0.494   2.131
14508TIP3    H243470   0.901   0.535   2.233
14509TIP3   OH243471   0.763   0.835   5.772
14509TIP3    H143472   0.697   0.774   5.806
14509TIP3    H243473   0.767   0.904   5.839
14510TIP3   OH243474   2.307   7.597   1.791
14510TIP3    H143475   2.212   7.608   1.795
14510TIP3    H243476   2.320   7.524   1.730
14511TIP3   OH243477   2.650   3.340   4.896
14511TIP3    H143478   2.685   3.254   4.919
14511TIP3    H243479   2.561   3.341   4.932
14512TIP3   OH243480   5.014   7.347   5.999
14512TIP3    H143481   4.955   7.273   6.007
14512TIP3    H243482   4.959   7.424   6.012
14513TIP3   OH243483   2.484   2.172   5.102
14513TIP3    H143484   2.563   2.117   5.100
14513TIP3    H243485   2.489   2.225   5.023
14514TIP3   OH243486   5.254   2.512   5.787
14514TIP3    H143487   5.335   2.559   5.769
14514TIP3    H243488   5.280   2.421   5.798
14515TIP3   OH243489   6.262   7.296   3.323
14515TIP3    H143490   6.309   7.281   3.405
14515TIP3    H243491   6.239   7.208   3.292
14516TIP3   OH243492   2.287   2.344   4.444
14516TIP3    H143493   2.224   2.324   4.513
14516TIP3    H243494   2.238   2.332   4.363
14517TIP3   OH243495   8.127   3.546   1.974
14517TIP3    H143496   8.114   3.464   1.927
14517TIP3    H243497   8.151   3.520   2.063
14518TIP3   OH243498   2.063   7.445   5.716
14518TIP3    H143499   2.033   7.525   5.672
14518TIP3    H243500   2.143   7.421   5.670
14519TIP3   OH243501   2.310   1.497   4.719
14519TIP3    H143502   2.246   1.442   4.765
14519TIP3    H243503   2.318   1.575   4.774
14520TIP3   OH243504   1.852   5.066   2.817
14520TIP3    H143505   1.947   5.078   2.816
14520TIP3    H243506   1.827   5.082   2.908
14521TIP3   OH243507   8.079   5.074   1.167
14521TIP3    H143508   8.145   5.068   1.235
14521TIP3    H243509   8.053   5.166   1.167
14522TIP3   OH243510   3.675   3.253   3.734
14522TIP3    H143511   3.596   3.282   3.778
14522TIP3    H243512   3.720   3.198   3.798
14523TIP3   OH243513   0.356   5.727   3.585
14523TIP3    H143514   0.377   5.641   3.621
14523TIP3    H243515   0.433   5.781   3.605
14524TIP3   OH243516   5.468   6.070   6.463
14524TIP3    H143517   5.524   6.128   6.411
14524TIP3    H243518   5.527   6.035   6.531
14525TIP3   OH243519   7.983   0.366   5.250
14525TIP3    H143520   7.953   0.451   5.282
14525TIP3    H243521   8.002   0.316   5.330
14526TIP3   OH243522   7.674   6.777   5.083
14526TIP3    H143523   7.733   6.703   5.100
14526TIP3    H243524   7.650   6.810   5.169
14527TIP3   OH243525   6.813   1.544   5.590
14527TIP3    H143526   6.719   1.548   5.601
14527TIP3    H243527   6.828   1.459   5.547
14528TIP3   OH243528   4.675   7.167   4.324
14528TIP3    H143529   4.699   7.241   4.268
14528TIP3    H243530   4.653   7.097   4.263
14529TIP3   OH243531   4.419   2.460   4.760
14529TIP3    H143532   4.388   2.370   4.770
14529TIP3    H243533   4.400   2.501   4.844
14530TIP3   OH243534   7.650   3.418   4.272
14530TIP3    H143535   7.657   3.356   4.345
14530TIP3    H243536   7.566   3.398   4.231
14531TIP3   OH243537   1.859   4.858   5.461
14531TIP3    H143538   1.818   4.940   5.490
14531TIP3    H243539   1.796   4.790   5.483
14532TIP3   OH243540   2.049   4.410   4.500
14532TIP3    H143541   1.965   4.440   4.535
14532TIP3    H243542   2.113   4.440   4.564
14533TIP3   OH243543   5.264   0.420   4.472
14533TIP3    H143544   5.247   0.502   4.519
14533TIP3    H243545   5.218   0.431   4.389
14534TIP3   OH243546   7.898   6.453   0.150
14534TIP3    H143547   7.925   6.511   0.079
14534TIP3    H243548   7.823   6.497   0.190
14535TIP3   OH243549   7.025   6.467   2.898
14535TIP3    H143550   6.933   6.460   2.922
14535TIP3    H243551   7.072   6.423   2.968
14536TIP3   OH243552   8.093   0.585   1.987
14536TIP3    H143553   8.105   0.608   1.895
14536TIP3    H243554   8.181   0.569   2.019
14537TIP3   OH243555   3.591   6.988   5.082
14537TIP3    H143556   3.634   6.967   5.165
14537TIP3    H243557   3.637   7.065   5.050
14538TIP3   OH243558   1.103   4.073   3.949
14538TIP3    H143559   1.183   4.064   4.001
14538TIP3    H243560   1.065   4.156   3.979
14539TIP3   OH243561   5.664   3.696   4.898
14539TIP3    H143562   5.569   3.680   4.900
14539TIP3    H243563   5.673   3.772   4.840
14540TIP3   OH243564   2.974   7.150   4.064
14540TIP3    H143565   2.993   7.113   4.150
14540TIP3    H243566   3.060   7.159   4.022
14541TIP3   OH243567   0.766   1.351   6.463
14541TIP3    H143568   0.850   1.383   6.429
14541TIP3    H243569   0.774   1.256   6.458
14542TIP3   OH243570   3.544   2.984   1.515
14542TIP3    H143571   3.553   2.890   1.500
14542TIP3    H243572   3.604   3.003   1.587
14543TIP3   OH243573   3.058   0.909   5.406
14543TIP3    H143574   3.092   0.841   5.464
14543TIP3    H243575   3.018   0.972   5.466
14544TIP3   OH243576   3.950   5.129   1.925
14544TIP3    H143577   4.029   5.166   1.964
14544TIP3    H243578   3.979   5.044   1.891
14545TIP3   OH243579   3.807   5.709   0.879
14545TIP3    H143580   3.786   5.765   0.955
14545TIP3    H243581   3.725   5.664   0.859
14546TIP3   OH243582   1.123   0.213   5.829
14546TIP3    H143583   1.197   0.169   5.872
14546TIP3    H243584   1.162   0.257   5.753
14547TIP3   OH243585   8.253   6.584   1.246
14547TIP3    H143586   8.272   6.516   1.181
14547TIP3    H243587   8.267   6.667   1.200
14548TIP3   OH243588   6.696   3.581   2.204
14548TIP3    H143589   6.674   3.567   2.296
14548TIP3    H243590   6.785   3.617   2.207
14549TIP3   OH243591   6.242   5.993   4.639
14549TIP3    H143592   6.166   6.022   4.690
14549TIP3    H243593   6.295   5.943   4.702
14550TIP3   OH243594   1.513   0.097   3.635
14550TIP3    H143595   1.601   0.070   3.608
14550TIP3    H243596   1.504   0.062   3.724
14551TIP3   OH243597   2.759   1.795   0.457
14551TIP3    H143598   2.729   1.708   0.431
14551TIP3    H243599   2.724   1.853   0.390
14552TIP3   OH243600   4.718   2.374   3.906
14552TIP3    H143601   4.797   2.406   3.863
14552TIP3    H243602   4.666   2.336   3.835
14553TIP3   OH243603   0.691   5.583   5.812
14553TIP3    H143604   0.685   5.677   5.795
14553TIP3    H243605   0.753   5.551   5.746
14554TIP3   OH243606   5.741   1.062   5.519
14554TIP3    H143607   5.676   1.130   5.535
14554TIP3    H243608   5.775   1.040   5.606
14555TIP3   OH243609   5.273   2.472   4.888
14555TIP3    H143610   5.261   2.565   4.907
14555TIP3    H243611   5.185   2.439   4.873
14556TIP3   OH243612   4.131   6.468   0.083
14556TIP3    H143613   4.044   6.449   0.049
14556TIP3    H243614   4.167   6.533   0.022
14557TIP3   OH243615   7.138   3.959   0.946
14557TIP3    H143616   7.228   3.932   0.925
14557TIP3    H243617   7.113   3.902   1.019
14558TIP3   OH243618   6.896   4.537   0.696
14558TIP3    H143619   6.978   4.525   0.649
14558TIP3    H243620   6.906   4.483   0.775
14559TIP3   OH243621   0.318   4.723   4.698
14559TIP3    H143622   0.334   4.708   4.792
14559TIP3    H243623   0.227   4.695   4.685
14560TIP3   OH243624   2.002   5.679   4.471
14560TIP3    H143625   2.004   5.731   4.551
14560TIP3    H243626   1.913   5.643   4.468
14561TIP3   OH243627   6.803   5.421   4.796
14561TIP3    H143628   6.801   5.401   4.890
14561TIP3    H243629   6.741   5.358   4.757
14562TIP3   OH243630   2.618   5.386   1.783
14562TIP3    H143631   2.546   5.323   1.794
14562TIP3    H243632   2.693   5.332   1.757
14563TIP3   OH243633   7.773   5.693   1.641
14563TIP3    H143634   7.740   5.753   1.574
14563TIP3    H243635   7.868   5.695   1.630
14564TIP3   OH243636   6.973   0.995   5.815
14564TIP3    H143637   7.019   0.994   5.899
14564TIP3    H243638   6.892   0.945   5.832
14565TIP3   OH243639   4.509   4.894   6.633
14565TIP3    H143640   4.417   4.868   6.637
14565TIP3    H243641   4.507   4.989   6.622
14566TIP3   OH243642   6.406   2.216   1.941
14566TIP3    H143643   6.314   2.197   1.920
14566TIP3    H243644   6.437   2.268   1.867
14567TIP3   OH243645   1.833   7.400   3.905
14567TIP3    H143646   1.791   7.477   3.943
14567TIP3    H243647   1.803   7.327   3.958
14568TIP3   OH243648   5.129   0.117   5.864
14568TIP3    H143649   5.097   0.040   5.912
14568TIP3    H243650   5.157   0.178   5.933
14569TIP3   OH243651   1.930   2.353   4.311
14569TIP3    H143652   1.992   2.398   4.254
14569TIP3    H243653   1.860   2.418   4.327
14570TIP3   OH243654   7.187   5.799   0.675
14570TIP3    H143655   7.217   5.777   0.587
14570TIP3    H243656   7.100   5.760   0.681
14571TIP3   OH243657   1.060   5.578   4.771
14571TIP3    H143658   0.999   5.590   4.844
14571TIP3    H243659   1.067   5.483   4.761
14572TIP3   OH243660   1.449   4.300   2.134
14572TIP3    H143661   1.417   4.240   2.067
14572TIP3    H243662   1.372   4.319   2.189
14573TIP3   OH243663   7.608   6.871   0.834
14573TIP3    H143664   7.625   6.931   0.905
14573TIP3    H243665   7.652   6.790   0.860
14574TIP3   OH243666   1.139   2.814   2.773
14574TIP3    H143667   1.178   2.728   2.757
14574TIP3    H243668   1.171   2.840   2.859
14575TIP3   OH243669   6.556   0.951   5.110
14575TIP3    H143670   6.559   0.876   5.051
14575TIP3    H243671   6.539   0.914   5.196
14576TIP3   OH243672   6.435   2.493   2.964
14576TIP3    H143673   6.525   2.522   2.977
14576TIP3    H243674   6.392   2.511   3.048
14577TIP3   OH243675   6.198   1.555   4.756
14577TIP3    H143676   6.218   1.462   4.754
14577TIP3    H243677   6.237   1.587   4.837
14578TIP3   OH243678   0.687   3.061   1.266
14578TIP3    H143679   0.736   3.056   1.184
14578TIP3    H243680   0.597   3.037   1.241
14579TIP3   OH243681   4.353   1.060   2.394
14579TIP3    H143682   4.321   1.149   2.410
14579TIP3    H243683   4.281   1.017   2.348
14580TIP3   OH243684   4.714   4.347   5.677
14580TIP3    H143685   4.650   4.290   5.635
14580TIP3    H243686   4.662   4.405   5.732
14581TIP3   OH243687   1.142   1.006   4.118
14581TIP3    H143688   1.113   0.916   4.131
14581TIP3    H243689   1.093   1.036   4.042
14582TIP3   OH243690   3.775   6.371   0.254
14582TIP3    H143691   3.815   6.382   0.168
14582TIP3    H243692   3.768   6.276   0.265
14583TIP3   OH243693   5.813   7.225   5.532
14583TIP3    H143694   5.790   7.226   5.439
14583TIP3    H243695   5.899   7.265   5.536
14584TIP3   OH243696   7.193   6.698   6.665
14584TIP3    H143697   7.206   6.628   6.601
14584TIP3    H243698   7.136   6.761   6.621
14585TIP3   OH243699   6.674   2.756   5.006
14585TIP3    H143700   6.713   2.816   4.943
14585TIP3    H243701   6.592   2.798   5.032
14586TIP3   OH243702   4.724   4.518   6.241
14586TIP3    H143703   4.813   4.489   6.260
14586TIP3    H243704   4.729   4.554   6.152
14587TIP3   OH243705   4.931   1.153   0.042
14587TIP3    H143706   4.984   1.143   0.121
14587TIP3    H243707   4.969   1.092  -0.021
14588TIP3   OH243708   7.982   0.313   0.590
14588TIP3    H143709   8.035   0.319   0.670
14588TIP3    H243710   8.016   0.384   0.534
14589TIP3   OH243711   3.287   3.243   2.842
14589TIP3    H143712   3.293   3.297   2.921
14589TIP3    H243713   3.369   3.260   2.795
14590TIP3   OH243714   6.722   4.275   1.603
14590TIP3    H143715   6.700   4.259   1.695
14590TIP3    H243716   6.672   4.210   1.554
14591TIP3   OH243717   1.869   0.461   2.656
14591TIP3    H143718   1.863   0.515   2.577
14591TIP3    H243719   1.815   0.506   2.721
14592TIP3   OH243720   4.164   5.931   0.935
14592TIP3    H143721   4.257   5.927   0.956
14592TIP3    H243722   4.149   6.021   0.905
14593TIP3   OH243723   0.275   1.295   5.728
14593TIP3    H143724   0.368   1.302   5.708
14593TIP3    H243725   0.271   1.232   5.801
14594TIP3   OH243726   2.303   6.787   0.077
14594TIP3    H143727   2.377   6.731   0.099
14594TIP3    H243728   2.338   6.851   0.016
14595TIP3   OH243729   0.608   0.801   1.715
14595TIP3    H143730   0.525   0.812   1.668
14595TIP3    H243731   0.610   0.708   1.738
14596TIP3   OH243732   4.335   0.253   0.030
14596TIP3    H143733   4.425   0.280   0.050
14596TIP3    H243734   4.343   0.162   0.003
14597TIP3   OH243735   8.264   2.956   2.302
14597TIP3    H143736   8.183   3.002   2.283
14597TIP3    H243737   8.264   2.881   2.242
14598TIP3   OH243738   4.396   6.231   6.061
14598TIP3    H143739   4.432   6.215   5.974
14598TIP3    H243740   4.445   6.173   6.119
14599TIP3   OH243741   6.155   4.656   5.184
14599TIP3    H143742   6.171   4.608   5.103
14599TIP3    H243743   6.066   4.633   5.209
14600TIP3   OH243744   0.703   5.473   5.190
14600TIP3    H143745   0.750   5.430   5.262
14600TIP3    H243746   0.682   5.560   5.224
14601TIP3   OH243747   0.156   3.093   5.240
14601TIP3    H143748   0.228   3.153   5.219
14601TIP3    H243749   0.185   3.008   5.208
14602TIP3   OH243750   4.655   7.630   5.404
14602TIP3    H143751   4.641   7.718   5.436
14602TIP3    H243752   4.740   7.604   5.441
14603TIP3   OH243753   3.081   2.496   5.470
14603TIP3    H143754   3.167   2.466   5.441
14603TIP3    H243755   3.057   2.564   5.407
14604TIP3   OH243756   8.251   0.638   5.447
14604TIP3    H143757   8.170   0.689   5.455
14604TIP3    H243758   8.262   0.597   5.533
14605TIP3   OH243759   5.473   2.103   4.409
14605TIP3    H143760   5.523   2.025   4.387
14605TIP3    H243761   5.512   2.134   4.491
14606TIP3   OH243762   0.675   5.455   6.494
14606TIP3    H143763   0.682   5.466   6.399
14606TIP3    H243764   0.584   5.478   6.514
14607TIP3   OH243765   5.696   7.428   3.843
14607TIP3    H143766   5.759   7.377   3.792
14607TIP3    H243767   5.727   7.422   3.933
14608TIP3   OH243768   1.011   3.977   4.820
14608TIP3    H143769   0.994   3.889   4.787
14608TIP3    H243770   1.044   4.025   4.744
14609TIP3   OH243771   7.558   6.486   4.228
14609TIP3    H143772   7.533   6.519   4.141
14609TIP3    H243773   7.613   6.556   4.264
14610TIP3   OH243774   7.932   2.627   0.050
14610TIP3    H143775   7.873   2.625  -0.025
14610TIP3    H243776   7.982   2.708   0.040
14611TIP3   OH243777   5.963   6.557   2.050
14611TIP3    H143778   6.034   6.612   2.084
14611TIP3    H243779   5.905   6.543   2.124
14612TIP3   OH243780   4.249   0.594   6.435
14612TIP3    H143781   4.200   0.612   6.515
14612TIP3    H243782   4.332   0.639   6.447
14613TIP3   OH243783   6.824   7.630   4.176
14613TIP3    H143784   6.802   7.539   4.153
14613TIP3    H243785   6.764   7.683   4.123
14614TIP3   OH243786   6.596   2.456   2.456
14614TIP3    H143787   6.592   2.430   2.364
14614TIP3    H243788   6.627   2.378   2.502
14615TIP3   OH243789   2.542   5.450   5.151
14615TIP3    H143790   2.561   5.538   5.118
14615TIP3    H243791   2.563   5.392   5.079
14616TIP3   OH243792   4.751   2.361   3.556
14616TIP3    H143793   4.780   2.374   3.466
14616TIP3    H243794   4.710   2.444   3.581
14617TIP3   OH243795   4.805   3.554   2.974
14617TIP3    H143796   4.735   3.562   3.040
14617TIP3    H243797   4.871   3.499   3.016
14618TIP3   OH243798   7.857   7.247   0.646
14618TIP3    H143799   7.883   7.180   0.709
14618TIP3    H243800   7.881   7.211   0.561
14619TIP3   OH243801   6.441   7.397   4.002
14619TIP3    H143802   6.455   7.315   3.955
14619TIP3    H243803   6.491   7.462   3.952
14620TIP3   OH243804   0.417   2.575   5.061
14620TIP3    H143805   0.440   2.483   5.075
14620TIP3    H243806   0.358   2.574   4.985
14621TIP3   OH243807   8.091   7.102   6.338
14621TIP3    H143808   8.007   7.120   6.296
14621TIP3    H243809   8.136   7.186   6.339
14622TIP3   OH243810   8.006   5.976   5.126
14622TIP3    H143811   8.085   5.958   5.177
14622TIP3    H243812   7.953   6.033   5.182
14623TIP3   OH243813   2.578   3.323   6.050
14623TIP3    H143814   2.613   3.234   6.046
14623TIP3    H243815   2.643   3.372   6.100
14624TIP3   OH243816   1.710   3.855   1.436
14624TIP3    H143817   1.750   3.772   1.411
14624TIP3    H243818   1.747   3.875   1.522
14625TIP3   OH243819   3.202   5.263   1.216
14625TIP3    H143820   3.117   5.220   1.226
14625TIP3    H243821   3.182   5.350   1.181
14626TIP3   OH243822   2.363   1.820   3.776
14626TIP3    H143823   2.402   1.896   3.734
14626TIP3    H243824   2.413   1.745   3.742
14627TIP3   OH243825   0.366   6.210   0.316
14627TIP3    H143826   0.402   6.284   0.266
14627TIP3    H243827   0.287   6.185   0.269
14628TIP3   OH243828   5.275   5.637   3.433
14628TIP3    H143829   5.255   5.579   3.360
14628TIP3    H243830   5.264   5.725   3.397
14629TIP3   OH243831   5.652   2.851   1.831
14629TIP3    H143832   5.575   2.881   1.880
14629TIP3    H243833   5.666   2.761   1.860
14630TIP3   OH243834   4.335   6.446   6.469
14630TIP3    H143835   4.260   6.463   6.526
14630TIP3    H243836   4.384   6.528   6.468
14631TIP3   OH243837   1.458   7.620   1.437
14631TIP3    H143838   1.444   7.692   1.500
14631TIP3    H243839   1.391   7.634   1.370
14632TIP3   OH243840   6.048   1.073   1.710
14632TIP3    H143841   6.054   1.075   1.806
14632TIP3    H243842   6.133   1.042   1.681
14633TIP3   OH243843   4.812   1.172   3.309
14633TIP3    H143844   4.740   1.189   3.248
14633TIP3    H243845   4.842   1.260   3.334
14634TIP3   OH243846   3.212   7.456   5.357
14634TIP3    H143847   3.255   7.378   5.393
14634TIP3    H243848   3.193   7.432   5.266
14635TIP3   OH243849   3.960   4.348   0.385
14635TIP3    H143850   3.995   4.436   0.402
14635TIP3    H243851   3.865   4.357   0.394
14636TIP3   OH243852   4.112   4.982   0.183
14636TIP3    H143853   4.088   5.069   0.215
14636TIP3    H243854   4.168   4.945   0.252
14637TIP3   OH243855   1.509   3.297   4.652
14637TIP3    H143856   1.585   3.251   4.688
14637TIP3    H243857   1.545   3.377   4.614
14638TIP3   OH243858   2.617   7.528   5.730
14638TIP3    H143859   2.704   7.514   5.693
14638TIP3    H243860   2.616   7.621   5.753
14639TIP3   OH243861   7.635   0.817   4.922
14639TIP3    H143862   7.541   0.796   4.916
14639TIP3    H243863   7.660   0.839   4.832
14640TIP3   OH243864   6.697   5.710   3.193
14640TIP3    H143865   6.745   5.780   3.149
14640TIP3    H243866   6.756   5.681   3.263
14641TIP3   OH243867   6.362   1.777   6.678
14641TIP3    H143868   6.344   1.822   6.596
14641TIP3    H243869   6.363   1.848   6.744
14642TIP3   OH243870   7.414   1.263   0.079
14642TIP3    H143871   7.429   1.172   0.052
14642TIP3    H243872   7.362   1.255   0.159
14643TIP3   OH243873   5.453   6.607   1.679
14643TIP3    H143874   5.425   6.549   1.608
14643TIP3    H243875   5.380   6.605   1.742
14644TIP3   OH243876   7.423   5.001   4.857
14644TIP3    H143877   7.367   4.928   4.884
14644TIP3    H243878   7.366   5.058   4.806
14645TIP3   OH243879   3.914   6.559   4.816
14645TIP3    H143880   4.007   6.543   4.798
14645TIP3    H243881   3.891   6.496   4.884
14646TIP3   OH243882   1.405   0.910   4.558
14646TIP3    H143883   1.361   0.882   4.478
14646TIP3    H243884   1.492   0.869   4.552
14647TIP3   OH243885   2.673   6.722   0.753
14647TIP3    H143886   2.702   6.632   0.745
14647TIP3    H243887   2.599   6.729   0.691
14648TIP3   OH243888   0.719   2.890   2.197
14648TIP3    H143889   0.747   2.799   2.191
14648TIP3    H243890   0.713   2.906   2.292
14649TIP3   OH243891   4.936   7.466   3.879
14649TIP3    H143892   4.840   7.460   3.879
14649TIP3    H243893   4.962   7.419   3.958
14650TIP3   OH243894   2.179   5.069   4.605
14650TIP3    H143895   2.274   5.063   4.614
14650TIP3    H243896   2.165   5.084   4.511
14651TIP3   OH243897   3.200   2.512   0.089
14651TIP3    H143898   3.148   2.461   0.027
14651TIP3    H243899   3.135   2.546   0.151
14652TIP3   OH243900   0.773   5.341   3.279
14652TIP3    H143901   0.820   5.257   3.283
14652TIP3    H243902   0.824   5.399   3.336
14653TIP3   OH243903   1.843   3.199   6.007
14653TIP3    H143904   1.864   3.114   5.967
14653TIP3    H243905   1.793   3.244   5.939
14654TIP3   OH243906   6.356   5.992   3.196
14654TIP3    H143907   6.295   6.054   3.235
14654TIP3    H243908   6.346   5.912   3.247
14655TIP3   OH243909   3.688   3.534   1.962
14655TIP3    H143910   3.720   3.587   2.035
14655TIP3    H243911   3.718   3.445   1.981
14656TIP3   OH243912   6.122   1.807   3.116
14656TIP3    H143913   6.092   1.727   3.073
14656TIP3    H243914   6.148   1.865   3.044
14657TIP3   OH243915   3.645   3.323   3.325
14657TIP3    H143916   3.620   3.335   3.234
14657TIP3    H243917   3.562   3.320   3.373
14658TIP3   OH243918   5.716   4.063   4.474
14658TIP3    H143919   5.755   3.984   4.437
14658TIP3    H243920   5.776   4.090   4.543
14659TIP3   OH243921   1.451   1.371   2.540
14659TIP3    H143922   1.429   1.427   2.615
14659TIP3    H243923   1.540   1.398   2.515
14660TIP3   OH243924   8.312   3.950   6.462
14660TIP3    H143925   8.235   3.983   6.416
14660TIP3    H243926   8.379   4.018   6.450
14661TIP3   OH243927   7.894   5.754   1.058
14661TIP3    H143928   7.799   5.742   1.068
14661TIP3    H243929   7.902   5.829   0.999
14662TIP3   OH243930   5.957   4.156   2.370
14662TIP3    H143931   6.035   4.106   2.349
14662TIP3    H243932   5.894   4.091   2.400
14663TIP3   OH243933   0.782   4.537   0.169
14663TIP3    H143934   0.821   4.588   0.099
14663TIP3    H243935   0.855   4.488   0.207
14664TIP3   OH243936   5.327   5.029   0.701
14664TIP3    H143937   5.415   5.027   0.738
14664TIP3    H243938   5.306   5.122   0.695
14665TIP3   OH243939   3.074   6.724   4.682
14665TIP3    H143940   3.058   6.739   4.776
14665TIP3    H243941   3.129   6.645   4.679
14666TIP3   OH243942   2.161   6.105   1.149
14666TIP3    H143943   2.157   6.088   1.243
14666TIP3    H243944   2.156   6.200   1.142
14667TIP3   OH243945   0.664   0.123   3.250
14667TIP3    H143946   0.740   0.080   3.209
14667TIP3    H243947   0.688   0.131   3.342
14668TIP3   OH243948   3.160   0.274   5.741
14668TIP3    H143949   3.189   0.308   5.656
14668TIP3    H243950   3.100   0.342   5.774
14669TIP3   OH243951   7.550   7.271   1.922
14669TIP3    H143952   7.492   7.196   1.938
14669TIP3    H243953   7.501   7.347   1.953
14670TIP3   OH243954   1.876   5.795   1.089
14670TIP3    H143955   1.839   5.878   1.061
14670TIP3    H243956   1.970   5.811   1.094
14671TIP3   OH243957   2.780   0.544   5.232
14671TIP3    H143958   2.704   0.594   5.202
14671TIP3    H243959   2.744   0.483   5.297
14672TIP3   OH243960   8.009   0.200   3.117
14672TIP3    H143961   8.081   0.230   3.062
14672TIP3    H243962   8.013   0.255   3.195
14673TIP3   OH243963   1.640   1.396   6.381
14673TIP3    H143964   1.596   1.480   6.369
14673TIP3    H243965   1.733   1.417   6.376
14674TIP3   OH243966   6.725  -0.009   3.113
14674TIP3    H143967   6.682   0.076   3.109
14674TIP3    H243968   6.817   0.011   3.132
14675TIP3   OH243969   6.432   3.442   2.728
14675TIP3    H143970   6.343   3.476   2.725
14675TIP3    H243971   6.450   3.433   2.822
14676TIP3   OH243972   0.570   7.657   1.506
14676TIP3    H143973   0.664   7.650   1.523
14676TIP3    H243974   0.531   7.668   1.592
14677TIP3   OH243975   6.162   5.926   0.073
14677TIP3    H143976   6.079   5.879   0.066
14677TIP3    H243977   6.137   6.018   0.085
14678TIP3   OH243978   0.051   7.623   5.844
14678TIP3    H143979   0.106   7.699   5.863
14678TIP3    H243980   0.113   7.556   5.815
14679TIP3   OH243981   2.503   2.245   3.744
14679TIP3    H143982   2.578   2.234   3.686
14679TIP3    H243983   2.537   2.226   3.832
14680TIP3   OH243984   0.244   3.033   2.216
14680TIP3    H143985   0.227   2.940   2.197
14680TIP3    H243986   0.172   3.059   2.274
14681TIP3   OH243987   3.855   3.503   0.392
14681TIP3    H143988   3.785   3.455   0.348
14681TIP3    H243989   3.878   3.447   0.467
14682TIP3   OH243990   0.120   7.169   1.325
14682TIP3    H143991   0.051   7.163   1.260
14682TIP3    H243992   0.076   7.197   1.405
14683TIP3   OH243993   7.078  -0.038   6.068
14683TIP3    H143994   7.134   0.020   6.118
14683TIP3    H243995   7.087  -0.009   5.977
14684TIP3   OH243996   6.803   6.006   5.574
14684TIP3    H143997   6.717   6.019   5.613
14684TIP3    H243998   6.808   6.070   5.503
14685TIP3   OH243999   6.440   6.905   5.693
14685TIP3    H144000   6.487   6.832   5.652
14685TIP3    H244001   6.418   6.963   5.621
14686TIP3   OH244002   2.899   5.581   3.981
14686TIP3    H144003   2.821   5.526   3.972
14686TIP3    H244004   2.947   5.543   4.055
14687TIP3   OH244005   5.831   0.574   5.926
14687TIP3    H144006   5.906   0.530   5.885
14687TIP3    H244007   5.868   0.615   6.004
14688TIP3   OH244008   6.477   0.111   6.467
14688TIP3    H144009   6.414   0.070   6.526
14688TIP3    H244010   6.490   0.199   6.503
14689TIP3   OH244011   0.242   1.027   4.214
14689TIP3    H144012   0.216   1.103   4.162
14689TIP3    H244013   0.320   0.993   4.170
14690TIP3   OH244014   2.786   0.304   2.946
14690TIP3    H144015   2.788   0.400   2.937
14690TIP3    H244016   2.841   0.272   2.874
14691TIP3   OH244017   3.736   2.881   2.782
14691TIP3    H144018   3.735   2.786   2.770
14691TIP3    H244019   3.775   2.894   2.868
14692TIP3   OH244020   2.500   5.687   2.542
14692TIP3    H144021   2.500   5.650   2.630
14692TIP3    H244022   2.442   5.629   2.492
14693TIP3   OH244023   7.470   3.952   0.743
14693TIP3    H144024   7.383   3.922   0.716
14693TIP3    H244025   7.466   3.955   0.839
14694TIP3   OH244026   6.109   6.511   6.063
14694TIP3    H144027   6.189   6.518   6.010
14694TIP3    H244028   6.067   6.431   6.032
14695TIP3   OH244029   3.130   2.162   1.037
14695TIP3    H144030   3.053   2.118   1.000
14695TIP3    H244031   3.184   2.183   0.961
14696TIP3   OH244032   4.809   1.736   3.783
14696TIP3    H144033   4.812   1.773   3.871
14696TIP3    H244034   4.758   1.800   3.732
14697TIP3   OH244035   0.923   6.627   2.870
14697TIP3    H144036   0.926   6.563   2.941
14697TIP3    H244037   0.896   6.708   2.912
14698TIP3   OH244038   8.084   1.108   0.436
14698TIP3    H144039   8.157   1.105   0.374
14698TIP3    H244040   8.027   1.177   0.403
14699TIP3   OH244041   3.396   5.115   5.746
14699TIP3    H144042   3.391   5.023   5.721
14699TIP3    H244043   3.357   5.118   5.834
14700TIP3   OH244044   8.000   5.267   4.436
14700TIP3    H144045   7.935   5.288   4.503
14700TIP3    H244046   8.047   5.191   4.471
14701TIP3   OH244047   7.423   5.390   0.320
14701TIP3    H144048   7.356   5.341   0.273
14701TIP3    H244049   7.431   5.345   0.404
14702TIP3   OH244050   0.753   0.063   1.893
14702TIP3    H144051   0.795   0.148   1.892
14702TIP3    H244052   0.802   0.012   1.957
14703TIP3   OH244053   4.316   5.300   0.114
14703TIP3    H144054   4.222   5.309   0.101
14703TIP3    H244055   4.326   5.223   0.169
14704TIP3   OH244056   6.768   0.140   0.224
14704TIP3    H144057   6.855   0.177   0.236
14704TIP3    H244058   6.767   0.062   0.279
14705TIP3   OH244059   2.361   6.193   5.224
14705TIP3    H144060   2.356   6.188   5.320
14705TIP3    H244061   2.376   6.103   5.196
14706TIP3   OH244062   2.907   7.112   5.802
14706TIP3    H144063   2.938   7.187   5.751
14706TIP3    H244064   2.889   7.044   5.736
14707TIP3   OH244065   7.381   4.206   5.671
14707TIP3    H144066   7.315   4.146   5.707
14707TIP3    H244067   7.459   4.153   5.661
14708TIP3   OH244068   8.004   2.212   5.147
14708TIP3    H144069   7.915   2.243   5.161
14708TIP3    H244070   8.008   2.127   5.191
14709TIP3   OH244071   1.916   2.030   3.071
14709TIP3    H144072   1.993   2.056   3.123
14709TIP3    H244073   1.951   1.970   3.005
14710TIP3   OH244074   6.568   1.897   1.186
14710TIP3    H144075   6.572   1.866   1.096
14710TIP3    H244076   6.617   1.979   1.185
14711TIP3   OH244077   5.946   6.798   1.086
14711TIP3    H144078   5.903   6.884   1.088
14711TIP3    H244079   5.910   6.751   1.161
14712TIP3   OH244080   8.110   1.105   1.027
14712TIP3    H144081   8.066   1.089   1.111
14712TIP3    H244082   8.041   1.093   0.961
14713TIP3   OH244083   7.988   0.682   2.525
14713TIP3    H144084   7.997   0.621   2.598
14713TIP3    H244085   8.008   0.630   2.447
14714TIP3   OH244086   7.814   5.970   2.382
14714TIP3    H144087   7.786   5.954   2.473
14714TIP3    H244088   7.793   6.062   2.368
14715TIP3   OH244089   3.316   6.431   3.573
14715TIP3    H144090   3.368   6.434   3.653
14715TIP3    H244091   3.381   6.433   3.502
14716TIP3   OH244092   6.119   5.862   4.453
14716TIP3    H144093   6.176   5.908   4.514
14716TIP3    H244094   6.086   5.787   4.504
14717TIP3   OH244095   4.601   5.452   2.048
14717TIP3    H144096   4.678   5.502   2.074
14717TIP3    H244097   4.589   5.472   1.956
14718TIP3   OH244098   4.661   3.872   1.710
14718TIP3    H144099   4.628   3.802   1.766
14718TIP3    H244100   4.741   3.837   1.672
14719TIP3   OH244101   7.547   0.970   3.018
14719TIP3    H144102   7.546   0.992   2.924
14719TIP3    H244103   7.463   1.000   3.051
14720TIP3   OH244104   2.100   6.807   6.264
14720TIP3    H144105   2.079   6.869   6.195
14720TIP3    H244106   2.164   6.748   6.225
14721TIP3   OH244107   6.580   4.503   1.837
14721TIP3    H144108   6.607   4.411   1.834
14721TIP3    H244109   6.492   4.501   1.874
14722TIP3   OH244110   7.926   0.749   4.338
14722TIP3    H144111   7.867   0.677   4.361
14722TIP3    H244112   7.871   0.810   4.289
14723TIP3   OH244113   0.378   1.664   0.471
14723TIP3    H144114   0.452   1.608   0.491
14723TIP3    H244115   0.410   1.723   0.402
14724TIP3   OH244116   6.845   3.746   4.168
14724TIP3    H144117   6.783   3.818   4.159
14724TIP3    H244118   6.897   3.769   4.245
14725TIP3   OH244119   4.687   2.749   1.056
14725TIP3    H144120   4.665   2.725   0.966
14725TIP3    H244121   4.686   2.845   1.057
14726TIP3   OH244122   3.972   0.137   5.412
14726TIP3    H144123   3.962   0.197   5.338
14726TIP3    H244124   3.945   0.189   5.488
14727TIP3   OH244125   0.372   4.647   2.324
14727TIP3    H144126   0.346   4.735   2.295
14727TIP3    H244127   0.459   4.634   2.285
14728TIP3   OH244128   2.272   0.988   3.832
14728TIP3    H144129   2.256   1.036   3.914
14728TIP3    H244130   2.353   0.939   3.848
14729TIP3   OH244131   2.873   6.917   1.594
14729TIP3    H144132   2.790   6.949   1.560
14729TIP3    H244133   2.928   6.904   1.516
14730TIP3   OH244134   4.333   2.443   0.660
14730TIP3    H144135   4.418   2.400   0.652
14730TIP3    H244136   4.275   2.375   0.696
14731TIP3   OH244137   6.106   5.030   4.583
14731TIP3    H144138   6.137   4.946   4.617
14731TIP3    H244139   6.014   5.033   4.607
14732TIP3   OH244140   6.854   1.006   5.562
14732TIP3    H144141   6.806   1.000   5.479
14732TIP3    H244142   6.847   0.918   5.600
14733TIP3   OH244143   3.841   5.933   4.020
14733TIP3    H144144   3.766   5.993   4.019
14733TIP3    H244145   3.897   5.965   4.091
14734TIP3   OH244146   3.772   3.015   6.467
14734TIP3    H144147   3.764   3.000   6.373
14734TIP3    H244148   3.837   3.085   6.475
14735TIP3   OH244149   2.163   5.642   2.676
14735TIP3    H144150   2.175   5.606   2.588
14735TIP3    H244151   2.076   5.682   2.673
14736TIP3   OH244152   1.547   1.357   1.501
14736TIP3    H144153   1.540   1.419   1.574
14736TIP3    H244154   1.493   1.395   1.432
14737TIP3   OH244155   2.151   6.329   3.091
14737TIP3    H144156   2.086   6.262   3.115
14737TIP3    H244157   2.189   6.297   3.009
14738TIP3   OH244158   3.933   0.434   1.294
14738TIP3    H144159   3.884   0.353   1.308
14738TIP3    H244160   3.963   0.428   1.203
14739TIP3   OH244161   5.666   1.121   0.843
14739TIP3    H144162   5.755   1.090   0.856
14739TIP3    H244163   5.670   1.171   0.761
14740TIP3   OH244164   8.148   6.663   3.387
14740TIP3    H144165   8.082   6.620   3.333
14740TIP3    H244166   8.108   6.747   3.411
14741TIP3   OH244167   4.354   0.626   0.607
14741TIP3    H144168   4.313   0.684   0.544
14741TIP3    H244169   4.342   0.670   0.692
14742TIP3   OH244170   7.952   1.564   4.817
14742TIP3    H144171   8.006   1.631   4.774
14742TIP3    H244172   7.905   1.611   4.886
14743TIP3   OH244173   5.338   5.834   4.010
14743TIP3    H144174   5.290   5.814   3.930
14743TIP3    H244175   5.324   5.927   4.024
14744TIP3   OH244176   3.340   5.104   6.016
14744TIP3    H144177   3.399   5.173   6.046
14744TIP3    H244178   3.271   5.101   6.082
14745TIP3   OH244179   0.779   3.822   1.864
14745TIP3    H144180   0.692   3.782   1.875
14745TIP3    H244181   0.809   3.788   1.779
14746TIP3   OH244182   0.076   2.048   5.751
14746TIP3    H144183   0.170   2.068   5.746
14746TIP3    H244184   0.069   1.956   5.726
14747TIP3   OH244185   8.108   2.234   0.595
14747TIP3    H144186   8.145   2.259   0.680
14747TIP3    H244187   8.087   2.318   0.553
14748TIP3   OH244188   4.802   0.056   2.746
14748TIP3    H144189   4.757   0.127   2.700
14748TIP3    H244190   4.791   0.078   2.839
14749TIP3   OH244191   1.618   4.398   4.376
14749TIP3    H144192   1.545   4.461   4.374
14749TIP3    H244193   1.679   4.435   4.440
14750TIP3   OH244194   7.594   2.255   6.023
14750TIP3    H144195   7.558   2.323   5.967
14750TIP3    H244196   7.635   2.193   5.963
14751TIP3   OH244197   4.510   6.893   5.088
14751TIP3    H144198   4.431   6.840   5.100
14751TIP3    H244199   4.535   6.919   5.176
14752TIP3   OH244200   6.869   6.765   4.115
14752TIP3    H144201   6.804   6.750   4.046
14752TIP3    H244202   6.867   6.686   4.168
14753TIP3   OH244203   0.855   3.673   4.981
14753TIP3    H144204   0.791   3.721   5.033
14753TIP3    H244205   0.837   3.581   4.999
14754TIP3   OH244206   4.845   0.905   6.421
14754TIP3    H144207   4.783   0.958   6.371
14754TIP3    H244208   4.791   0.840   6.465
14755TIP3   OH244209   1.481   6.374   0.116
14755TIP3    H144210   1.395   6.339   0.139
14755TIP3    H244211   1.536   6.296   0.103
14756TIP3   OH244212   3.304   4.377   6.603
14756TIP3    H144213   3.361   4.422   6.665
14756TIP3    H244214   3.345   4.389   6.518
14757TIP3   OH244215   6.218   3.382   6.687
14757TIP3    H144216   6.253   3.381   6.598
14757TIP3    H244217   6.149   3.315   6.686
14758TIP3   OH244218   3.425   2.809   1.186
14758TIP3    H144219   3.423   2.793   1.280
14758TIP3    H244220   3.372   2.738   1.149
14759TIP3   OH244221   4.727   3.305   4.811
14759TIP3    H144222   4.722   3.238   4.879
14759TIP3    H244223   4.660   3.279   4.747
14760TIP3   OH244224   4.414   4.893   1.232
14760TIP3    H144225   4.335   4.939   1.204
14760TIP3    H244226   4.482   4.961   1.234
14761TIP3   OH244227   0.620   1.720   3.120
14761TIP3    H144228   0.569   1.801   3.114
14761TIP3    H244229   0.711   1.748   3.121
14762TIP3   OH244230   0.260   7.433   4.191
14762TIP3    H144231   0.213   7.485   4.256
14762TIP3    H244232   0.286   7.354   4.238
14763TIP3   OH244233   6.607   5.346   1.360
14763TIP3    H144234   6.619   5.434   1.395
14763TIP3    H244235   6.691   5.323   1.321
14764TIP3   OH244236   3.217   5.144   3.228
14764TIP3    H144237   3.288   5.207   3.233
14764TIP3    H244238   3.246   5.070   3.283
14765TIP3   OH244239   7.931   3.376   0.488
14765TIP3    H144240   7.928   3.296   0.540
14765TIP3    H244241   7.868   3.435   0.529
14766TIP3   OH244242   8.118   4.967   3.383
14766TIP3    H144243   8.152   4.997   3.467
14766TIP3    H244244   8.125   5.044   3.326
14767TIP3   OH244245   5.858   6.810   1.751
14767TIP3    H144246   5.932   6.831   1.693
14767TIP3    H244247   5.816   6.735   1.708
14768TIP3   OH244248   5.314   0.194   1.818
14768TIP3    H144249   5.362   0.171   1.898
14768TIP3    H244250   5.344   0.282   1.796
14769TIP3   OH244251   4.426   2.800   4.680
14769TIP3    H144252   4.462   2.791   4.592
14769TIP3    H244253   4.333   2.782   4.671
14770TIP3   OH244254   1.537   5.004   2.813
14770TIP3    H144255   1.513   5.070   2.878
14770TIP3    H244256   1.467   4.938   2.819
14771TIP3   OH244257   5.909   0.084   3.639
14771TIP3    H144258   5.959   0.112   3.715
14771TIP3    H244259   5.818   0.109   3.659
14772TIP3   OH244260   0.825   0.188   1.070
14772TIP3    H144261   0.798   0.278   1.052
14772TIP3    H244262   0.848   0.188   1.163
14773TIP3   OH244263   8.029   2.141   0.147
14773TIP3    H144264   7.961   2.203   0.175
14773TIP3    H244265   8.107   2.195   0.133
14774TIP3   OH244266   5.055   6.778   0.078
14774TIP3    H144267   4.960   6.768   0.078
14774TIP3    H244268   5.087   6.705   0.131
14775TIP3   OH244269   1.476   5.584   2.402
14775TIP3    H144270   1.480   5.568   2.497
14775TIP3    H244271   1.565   5.610   2.378
14776TIP3   OH244272   5.121   7.655   6.370
14776TIP3    H144273   5.072   7.579   6.337
14776TIP3    H244274   5.201   7.617   6.407
14777TIP3   OH244275   5.666   7.106   4.381
14777TIP3    H144276   5.595   7.046   4.404
14777TIP3    H244277   5.737   7.084   4.441
14778TIP3   OH244278   6.792   0.934   6.549
14778TIP3    H144279   6.836   0.962   6.469
14778TIP3    H244280   6.756   0.848   6.528
14779TIP3   OH244281   7.386   2.935   5.875
14779TIP3    H144282   7.458   2.978   5.921
14779TIP3    H244283   7.393   2.842   5.900
14780TIP3   OH244284   0.277   7.534   0.995
14780TIP3    H144285   0.292   7.459   1.052
14780TIP3    H244286   0.354   7.589   1.009
14781TIP3   OH244287   1.645   0.871   6.479
14781TIP3    H144288   1.616   0.810   6.546
14781TIP3    H244289   1.611   0.956   6.507
14782TIP3   OH244290   4.934   0.873   2.486
14782TIP3    H144291   4.973   0.882   2.573
14782TIP3    H244292   4.913   0.962   2.460
14783TIP3   OH244293   3.682   2.756   1.134
14783TIP3    H144294   3.723   2.831   1.179
14783TIP3    H244295   3.588   2.773   1.141
14784TIP3   OH244296   5.855   0.989   5.761
14784TIP3    H144297   5.786   0.974   5.827
14784TIP3    H244298   5.896   0.903   5.750
14785TIP3   OH244299   1.640   0.006   0.272
14785TIP3    H144300   1.616  -0.005   0.180
14785TIP3    H244301   1.689   0.089   0.274
14786TIP3   OH244302   1.883   5.524   3.858
14786TIP3    H144303   1.933   5.443   3.843
14786TIP3    H244304   1.947   5.586   3.890
14787TIP3   OH244305   1.898   7.291   2.450
14787TIP3    H144306   1.895   7.376   2.405
14787TIP3    H244307   1.817   7.248   2.425
14788TIP3   OH244308   2.082   0.153   1.850
14788TIP3    H144309   2.159   0.115   1.809
14788TIP3    H244310   2.114   0.190   1.932
14789TIP3   OH244311   6.900   0.120   1.680
14789TIP3    H144312   6.962   0.142   1.611
14789TIP3    H244313   6.955   0.102   1.757
14790TIP3   OH244314   7.568   0.982   1.879
14790TIP3    H144315   7.517   1.037   1.820
14790TIP3    H244316   7.651   1.028   1.890
14791TIP3   OH244317   7.321   3.732   5.593
14791TIP3    H144318   7.274   3.775   5.521
14791TIP3    H244319   7.273   3.650   5.606
14792TIP3   OH244320   4.406   0.181   5.437
14792TIP3    H144321   4.415   0.107   5.376
14792TIP3    H244322   4.354   0.146   5.509
14793TIP3   OH244323   5.971   4.292   2.757
14793TIP3    H144324   5.880   4.293   2.787
14793TIP3    H244325   5.967   4.320   2.666
14794TIP3   OH244326   3.300   5.685   0.488
14794TIP3    H144327   3.217   5.721   0.456
14794TIP3    H244328   3.351   5.668   0.409
14795TIP3   OH244329   2.366   5.365   1.652
14795TIP3    H144330   2.338   5.455   1.634
14795TIP3    H244331   2.287   5.323   1.686
14796TIP3   OH244332   1.477   5.423   4.608
14796TIP3    H144333   1.560   5.389   4.640
14796TIP3    H244334   1.465   5.505   4.656
14797TIP3   OH244335   4.503   4.170   0.114
14797TIP3    H144336   4.594   4.196   0.101
14797TIP3    H244337   4.455   4.253   0.123
14798TIP3   OH244338   7.884   5.644   3.976
14798TIP3    H144339   7.968   5.654   4.022
14798TIP3    H244340   7.863   5.733   3.946
14799TIP3   OH244341   0.442   6.342   1.549
14799TIP3    H144342   0.362   6.390   1.572
14799TIP3    H244343   0.415   6.250   1.548
14800TIP3   OH244344   3.841   5.384   1.489
14800TIP3    H144345   3.788   5.392   1.409
14800TIP3    H244346   3.787   5.423   1.557
14801TIP3   OH244347   2.320   7.706   6.043
14801TIP3    H144348   2.387   7.650   6.083
14801TIP3    H244349   2.249   7.646   6.021
14802TIP3   OH244350   1.641   4.360   1.740
14802TIP3    H144351   1.615   4.276   1.778
14802TIP3    H244352   1.683   4.337   1.658
14803TIP3   OH244353   5.280   4.630   2.085
14803TIP3    H144354   5.195   4.651   2.045
14803TIP3    H244355   5.332   4.594   2.013
14804TIP3   OH244356   7.270   6.141   3.210
14804TIP3    H144357   7.364   6.125   3.207
14804TIP3    H244358   7.231   6.054   3.213
14805TIP3   OH244359   4.284   7.707   0.422
14805TIP3    H144360   4.321   7.749   0.345
14805TIP3    H244361   4.348   7.723   0.492
14806TIP3   OH244362   7.639   4.572   4.085
14806TIP3    H144363   7.694   4.494   4.073
14806TIP3    H244364   7.573   4.565   4.016
14807TIP3   OH244365   1.927   0.456   0.789
14807TIP3    H144366   1.880   0.528   0.833
14807TIP3    H244367   1.987   0.423   0.856
14808TIP3   OH244368   4.344   5.093   4.757
14808TIP3    H144369   4.289   5.087   4.836
14808TIP3    H244370   4.363   5.002   4.734
14809TIP3   OH244371   5.224   3.893   3.984
14809TIP3    H144372   5.203   3.866   4.073
14809TIP3    H244373   5.150   3.947   3.956
14810TIP3   OH244374   8.314   1.927   1.321
14810TIP3    H144375   8.319   1.915   1.416
14810TIP3    H244376   8.266   1.851   1.289
14811TIP3   OH244377   6.885   4.445   6.185
14811TIP3    H144378   6.857   4.498   6.110
14811TIP3    H244379   6.935   4.506   6.240
14812TIP3   OH244380   0.197   0.295   2.424
14812TIP3    H144381   0.234   0.259   2.344
14812TIP3    H244382   0.109   0.323   2.399
14813TIP3   OH244383   4.122   7.495   6.675
14813TIP3    H144384   4.193   7.544   6.634
14813TIP3    H244385   4.084   7.557   6.737
14814TIP3   OH244386   5.604   2.997   4.079
14814TIP3    H144387   5.591   3.084   4.040
14814TIP3    H244388   5.515   2.966   4.096
14815TIP3   OH244389   0.001   2.477   1.458
14815TIP3    H144390  -0.053   2.403   1.431
14815TIP3    H244391   0.091   2.445   1.456
14816TIP3   OH244392   2.476   2.377   4.745
14816TIP3    H144393   2.390   2.414   4.763
14816TIP3    H244394   2.457   2.294   4.700
14817TIP3   OH244395   6.340   6.765   1.761
14817TIP3    H144396   6.257   6.779   1.805
14817TIP3    H244397   6.397   6.834   1.796
14818TIP3   OH244398   1.788   0.945   1.573
14818TIP3    H144399   1.708   0.997   1.586
14818TIP3    H244400   1.851   1.007   1.537
14819TIP3   OH244401   4.229   2.555   2.191
14819TIP3    H144402   4.262   2.605   2.266
14819TIP3    H244403   4.249   2.610   2.115
14820TIP3   OH244404   5.212   1.517   2.926
14820TIP3    H144405   5.180   1.565   2.850
14820TIP3    H244406   5.261   1.443   2.889
14821TIP3   OH244407   7.741   4.901   5.291
14821TIP3    H144408   7.710   4.820   5.331
14821TIP3    H244409   7.830   4.912   5.325
14822TIP3   OH244410   6.844   3.760   2.407
14822TIP3    H144411   6.928   3.731   2.442
14822TIP3    H244412   6.867   3.832   2.348
14823TIP3   OH244413   4.385   3.028   5.269
14823TIP3    H144414   4.396   2.950   5.216
14823TIP3    H244415   4.290   3.034   5.283
14824TIP3   OH244416   6.189   6.057   1.784
14824TIP3    H144417   6.181   6.050   1.689
14824TIP3    H244418   6.272   6.014   1.804
14825TIP3   OH244419   5.956   3.626   3.570
14825TIP3    H144420   6.001   3.626   3.485
14825TIP3    H244421   5.963   3.716   3.600
14826TIP3   OH244422   5.735   5.553   6.472
14826TIP3    H144423   5.759   5.634   6.518
14826TIP3    H244424   5.696   5.498   6.540
14827TIP3   OH244425   0.469   0.573   3.560
14827TIP3    H144426   0.401   0.508   3.578
14827TIP3    H244427   0.486   0.615   3.644
14828TIP3   OH244428   4.535   3.545   2.832
14828TIP3    H144429   4.620   3.573   2.866
14828TIP3    H244430   4.528   3.588   2.747
14829TIP3   OH244431   2.797   1.820   5.599
14829TIP3    H144432   2.749   1.758   5.654
14829TIP3    H244433   2.832   1.767   5.528
14830TIP3   OH244434   5.722   5.650   2.028
14830TIP3    H144435   5.675   5.568   2.044
14830TIP3    H244436   5.684   5.712   2.091
14831TIP3   OH244437   1.062   4.032   3.661
14831TIP3    H144438   1.112   4.091   3.717
14831TIP3    H244439   1.129   3.982   3.613
14832TIP3   OH244440   2.694   6.396   3.727
14832TIP3    H144441   2.667   6.360   3.812
14832TIP3    H244442   2.626   6.461   3.706
14833TIP3   OH244443   4.833   2.218   6.395
14833TIP3    H144444   4.876   2.173   6.321
14833TIP3    H244445   4.836   2.310   6.371
14834TIP3   OH244446   3.106   5.569   1.786
14834TIP3    H144447   3.015   5.599   1.790
14834TIP3    H244448   3.130   5.555   1.877
14835TIP3   OH244449   0.286   4.588   3.990
14835TIP3    H144450   0.281   4.621   3.901
14835TIP3    H244451   0.195   4.578   4.017
14836TIP3   OH244452   1.628   1.592   4.854
14836TIP3    H144453   1.664   1.671   4.894
14836TIP3    H244454   1.695   1.526   4.866
14837TIP3   OH244455   4.227   3.248   0.091
14837TIP3    H144456   4.222   3.299   0.172
14837TIP3    H244457   4.176   3.169   0.109
14838TIP3   OH244458   1.231   5.559   0.385
14838TIP3    H144459   1.190   5.472   0.381
14838TIP3    H244460   1.183   5.605   0.454
14839TIP3   OH244461   6.583   0.056   6.114
14839TIP3    H144462   6.538   0.075   6.031
14839TIP3    H244463   6.515   0.062   6.181
   8.28972   7.81562   6.76852   0.00000   0.00000  -2.76324   0.00000  -2.76324  -3.90781
