Title t= 464.00000 step= 232000
19927
    1ASP      N    1   1.559   0.526   1.715
    1ASP    HT1    2   1.483   0.503   1.782
    1ASP    HT2    3   1.636   0.468   1.753
    1ASP    HT3    4   1.538   0.501   1.616
    1ASP     CA    5   1.589   0.669   1.726
    1ASP     HA    6   1.667   0.693   1.655
    1ASP     CB    7   1.452   0.737   1.689
    1ASP    HB1    8   1.377   0.715   1.768
    1ASP    HB2    9   1.416   0.677   1.602
    1ASP     CG   10   1.455   0.880   1.640
    1ASP    OD1   11   1.564   0.940   1.653
    1ASP    OD2   12   1.360   0.930   1.582
    1ASP      C   13   1.623   0.704   1.873
    1ASP      O   14   1.672   0.616   1.946
    2ALA      N   15   1.610   0.833   1.915
    2ALA     HN   16   1.591   0.902   1.845
    2ALA     CA   17   1.648   0.873   2.046
    2ALA     HA   18   1.622   0.793   2.114
    2ALA     CB   19   1.792   0.919   2.061
    2ALA    HB1   20   1.811   0.959   2.163
    2ALA    HB2   21   1.819   0.996   1.986
    2ALA    HB3   22   1.856   0.828   2.050
    2ALA      C   23   1.563   0.989   2.090
    2ALA      O   24   1.509   1.069   2.013
    3ASP      N   25   1.536   0.996   2.226
    3ASP     HN   26   1.566   0.921   2.286
    3ASP     CA   27   1.482   1.115   2.294
    3ASP     HA   28   1.389   1.143   2.246
    3ASP     CB   29   1.444   1.072   2.441
    3ASP    HB1   30   1.416   1.168   2.489
    3ASP    HB2   31   1.534   1.035   2.495
    3ASP     CG   32   1.334   0.975   2.448
    3ASP    OD1   33   1.239   0.997   2.371
    3ASP    OD2   34   1.328   0.886   2.532
    3ASP      C   35   1.570   1.241   2.284
    3ASP      O   36   1.695   1.236   2.300
    4GLY      N   37   1.506   1.362   2.265
    4GLY     HN   38   1.406   1.361   2.259
    4GLY     CA   39   1.569   1.488   2.255
    4GLY    HA1   40   1.513   1.557   2.193
    4GLY    HA2   41   1.666   1.479   2.208
    4GLY      C   42   1.601   1.546   2.393
    4GLY      O   43   1.608   1.476   2.495
    5PRO      N   44   1.640   1.674   2.411
    5PRO     CD   45   1.658   1.768   2.304
    5PRO    HD1   46   1.572   1.766   2.234
    5PRO    HD2   47   1.753   1.745   2.251
    5PRO     CA   48   1.658   1.738   2.545
    5PRO     HA   49   1.695   1.663   2.614
    5PRO     CB   50   1.735   1.861   2.508
    5PRO    HB1   51   1.843   1.849   2.486
    5PRO    HB2   52   1.725   1.938   2.589
    5PRO     CG   53   1.667   1.900   2.370
    5PRO    HG1   54   1.566   1.939   2.396
    5PRO    HG2   55   1.727   1.981   2.322
    5PRO      C   56   1.527   1.777   2.610
    5PRO      O   57   1.524   1.864   2.701
    6GLY      N   58   1.417   1.704   2.586
    6GLY     HN   59   1.435   1.634   2.517
    6GLY     CA   60   1.285   1.722   2.645
    6GLY    HA1   61   1.295   1.749   2.749
    6GLY    HA2   62   1.235   1.627   2.636
    6GLY      C   63   1.202   1.832   2.576
    6GLY      O   64   1.245   1.900   2.486
    7ASP      N   65   1.069   1.846   2.605
    7ASP     HN   66   1.031   1.791   2.679
    7ASP     CA   67   0.976   1.933   2.530
    7ASP     HA   68   0.984   1.900   2.428
    7ASP     CB   69   0.826   1.906   2.570
    7ASP    HB1   70   0.755   1.944   2.494
    7ASP    HB2   71   0.796   1.957   2.664
    7ASP     CG   72   0.801   1.755   2.590
    7ASP    OD1   73   0.792   1.684   2.491
    7ASP    OD2   74   0.806   1.709   2.703
    7ASP      C   75   1.010   2.079   2.555
    7ASP      O   76   1.046   2.099   2.674
    8PRO      N   77   1.008   2.179   2.463
    8PRO     CD   78   0.979   2.165   2.323
    8PRO    HD1   79   0.874   2.199   2.317
    8PRO    HD2   80   0.995   2.063   2.282
    8PRO     CA   81   1.082   2.300   2.494
    8PRO     HA   82   1.179   2.266   2.526
    8PRO     CB   83   1.076   2.377   2.364
    8PRO    HB1   84   1.162   2.445   2.346
    8PRO    HB2   85   0.982   2.433   2.346
    8PRO     CG   86   1.067   2.269   2.257
    8PRO    HG1   87   1.027   2.298   2.157
    8PRO    HG2   88   1.169   2.229   2.235
    8PRO      C   89   1.034   2.393   2.595
    8PRO      O   90   0.915   2.403   2.608
    9ASP      N   91   1.121   2.456   2.673
    9ASP     HN   92   1.219   2.453   2.655
    9ASP     CA   93   1.090   2.554   2.772
    9ASP     HA   94   1.020   2.512   2.843
    9ASP     CB   95   1.218   2.615   2.839
    9ASP    HB1   96   1.181   2.673   2.926
    9ASP    HB2   97   1.281   2.667   2.764
    9ASP     CG   98   1.305   2.502   2.905
    9ASP    OD1   99   1.263   2.382   2.916
    9ASP    OD2  100   1.414   2.542   2.949
    9ASP      C  101   1.005   2.669   2.714
    9ASP      O  102   1.020   2.709   2.602
   10ALA      N  103   0.911   2.722   2.800
   10ALA     HN  104   0.915   2.679   2.889
   10ALA     CA  105   0.825   2.826   2.761
   10ALA     HA  106   0.802   2.814   2.656
   10ALA     CB  107   0.691   2.811   2.830
   10ALA    HB1  108   0.665   2.706   2.858
   10ALA    HB2  109   0.606   2.850   2.769
   10ALA    HB3  110   0.707   2.859   2.929
   10ALA      C  111   0.881   2.964   2.785
   10ALA      O  112   0.986   2.972   2.849
   11GLY      N  113   0.821   3.062   2.721
   11GLY     HN  114   0.747   3.042   2.657
   11GLY     CA  115   0.871   3.195   2.731
   11GLY    HA1  116   0.973   3.192   2.695
   11GLY    HA2  117   0.861   3.218   2.836
   11GLY      C  118   0.789   3.298   2.648
   11GLY    OT1  119   0.850   3.338   2.546
   11GLY    OT2  120   0.669   3.322   2.681
   12SOD    SOD  121   0.067   2.778   3.559
   13SOD    SOD  122   5.237   3.932   4.102
   14SOD    SOD  123   2.491   5.064   2.544
   15SOD    SOD  124   0.194   1.543   0.493
   16SOD    SOD  125   0.530   4.242   3.086
   17SOD    SOD  126   1.390   2.348   4.933
   18SOD    SOD  127   0.068   2.901   0.808
   19SOD    SOD  128   2.647   1.825   0.848
   20SOD    SOD  129   2.504   4.190   3.433
   21SOD    SOD  130   3.248   2.424   2.093
   22SOD    SOD  131   5.742   3.555   2.274
   23SOD    SOD  132   1.272   2.580   3.732
   24SOD    SOD  133   3.455   0.941   2.173
   25SOD    SOD  134   4.487   5.969   2.510
   26SOD    SOD  135   1.259   3.830   2.053
   27SOD    SOD  136   5.594   2.923   1.783
   28SOD    SOD  137   5.232   3.276   1.089
   29SOD    SOD  138   5.604   2.238   4.340
   30SOD    SOD  139   1.688   1.682   0.438
   31SOD    SOD  140   1.994   4.849   1.404
   32SOD    SOD  141   6.269   4.617   3.815
   33SOD    SOD  142   6.208   1.242   3.994
   34CLA    CLA  143   4.787   2.336   1.141
   35CLA    CLA  144   0.684   4.176   3.517
   36CLA    CLA  145   1.705   0.216   1.758
   37CLA    CLA  146   2.554   4.675   3.374
   38CLA    CLA  147   4.053   2.680   3.552
   39CLA    CLA  148   3.544   0.252   2.841
   40CLA    CLA  149   1.635   4.364   1.409
   41CLA    CLA  150   5.756   4.145   1.727
   42CLA    CLA  151   1.575   2.073   4.577
   43CLA    CLA  152   4.702   2.993   2.221
   44CLA    CLA  153   0.669   4.581   2.494
   45CLA    CLA  154   5.707   3.086   1.589
   46CLA    CLA  155   4.700   3.183   3.904
   47CLA    CLA  156   3.887   0.523   0.182
   48CLA    CLA  157   2.891   2.060   4.962
   49CLA    CLA  158   1.374   2.763   0.901
   50CLA    CLA  159   5.753   0.911   4.740
   51CLA    CLA  160   4.018   5.233   0.710
   52TIP3   OH2  161   1.075   2.885   1.624
   52TIP3    H1  162   1.010   2.924   1.565
   52TIP3    H2  163   1.066   2.934   1.705
   53TIP3   OH2  164   1.099   2.523   3.392
   53TIP3    H1  165   1.004   2.515   3.382
   53TIP3    H2  166   1.133   2.524   3.303
   54TIP3   OH2  167   5.101   3.699   0.890
   54TIP3    H1  168   5.055   3.706   0.806
   54TIP3    H2  169   5.038   3.729   0.955
   55TIP3   OH2  170   2.187   1.174   3.017
   55TIP3    H1  171   2.206   1.081   3.031
   55TIP3    H2  172   2.214   1.216   3.098
   56TIP3   OH2  173   2.060   4.632   1.421
   56TIP3    H1  174   2.130   4.580   1.381
   56TIP3    H2  175   2.035   4.582   1.499
   57TIP3   OH2  176   4.296   1.605   0.884
   57TIP3    H1  177   4.325   1.515   0.902
   57TIP3    H2  178   4.201   1.600   0.882
   58TIP3   OH2  179   4.374   5.288   2.885
   58TIP3    H1  180   4.453   5.259   2.838
   58TIP3    H2  181   4.387   5.381   2.899
   59TIP3   OH2  182   0.292   4.454   1.903
   59TIP3    H1  183   0.217   4.505   1.872
   59TIP3    H2  184   0.268   4.425   1.991
   60TIP3   OH2  185   0.831   1.835   2.924
   60TIP3    H1  186   0.825   1.788   2.841
   60TIP3    H2  187   0.771   1.909   2.914
   61TIP3   OH2  188   5.573   0.616   1.103
   61TIP3    H1  189   5.578   0.709   1.124
   61TIP3    H2  190   5.486   0.589   1.132
   62TIP3   OH2  191   1.061   4.333   2.595
   62TIP3    H1  192   1.058   4.428   2.605
   62TIP3    H2  193   0.974   4.303   2.623
   63TIP3   OH2  194   4.833   0.215   2.213
   63TIP3    H1  195   4.877   0.221   2.129
   63TIP3    H2  196   4.763   0.150   2.199
   64TIP3   OH2  197   2.529   2.504   0.118
   64TIP3    H1  198   2.524   2.530   0.210
   64TIP3    H2  199   2.494   2.415   0.116
   65TIP3   OH2  200   1.887   5.155   3.201
   65TIP3    H1  201   1.843   5.095   3.261
   65TIP3    H2  202   1.873   5.242   3.239
   66TIP3   OH2  203   0.816   3.057   3.765
   66TIP3    H1  204   0.845   3.000   3.694
   66TIP3    H2  205   0.800   3.141   3.722
   67TIP3   OH2  206   5.986   2.190   3.679
   67TIP3    H1  207   5.951   2.152   3.598
   67TIP3    H2  208   5.974   2.284   3.668
   68TIP3   OH2  209   1.641   3.587   4.170
   68TIP3    H1  210   1.553   3.623   4.154
   68TIP3    H2  211   1.648   3.514   4.109
   69TIP3   OH2  212   5.780   5.348   5.121
   69TIP3    H1  213   5.699   5.384   5.157
   69TIP3    H2  214   5.796   5.400   5.042
   70TIP3   OH2  215   1.009   3.070   1.844
   70TIP3    H1  216   0.974   3.109   1.924
   70TIP3    H2  217   1.097   3.105   1.835
   71TIP3   OH2  218   3.508   3.918   4.698
   71TIP3    H1  219   3.540   3.847   4.643
   71TIP3    H2  220   3.421   3.937   4.662
   72TIP3   OH2  221   4.773   2.087   4.145
   72TIP3    H1  222   4.839   2.141   4.190
   72TIP3    H2  223   4.759   2.132   4.062
   73TIP3   OH2  224   4.165   2.740   0.903
   73TIP3    H1  225   4.248   2.786   0.901
   73TIP3    H2  226   4.181   2.664   0.959
   74TIP3   OH2  227   1.054   5.131   4.194
   74TIP3    H1  228   1.072   5.116   4.101
   74TIP3    H2  229   1.133   5.100   4.239
   75TIP3   OH2  230   3.577   3.662   4.559
   75TIP3    H1  231   3.559   3.592   4.496
   75TIP3    H2  232   3.634   3.621   4.624
   76TIP3   OH2  233   5.714   1.870   0.935
   76TIP3    H1  234   5.696   1.782   0.968
   76TIP3    H2  235   5.761   1.856   0.853
   77TIP3   OH2  236   5.930   3.950   0.861
   77TIP3    H1  237   5.982   3.908   0.793
   77TIP3    H2  238   5.929   4.043   0.838
   78TIP3   OH2  239   5.277   3.485   0.398
   78TIP3    H1  240   5.289   3.531   0.482
   78TIP3    H2  241   5.185   3.460   0.398
   79TIP3   OH2  242   0.554   1.114   2.922
   79TIP3    H1  243   0.464   1.126   2.891
   79TIP3    H2  244   0.564   1.178   2.992
   80TIP3   OH2  245   1.533   3.065   2.755
   80TIP3    H1  246   1.619   3.103   2.775
   80TIP3    H2  247   1.534   2.980   2.799
   81TIP3   OH2  248   5.698   5.806   1.773
   81TIP3    H1  249   5.685   5.789   1.680
   81TIP3    H2  250   5.719   5.900   1.778
   82TIP3   OH2  251   1.938   4.942   0.936
   82TIP3    H1  252   1.869   5.004   0.910
   82TIP3    H2  253   1.928   4.869   0.874
   83TIP3   OH2  254   0.712   4.562   0.776
   83TIP3    H1  255   0.802   4.593   0.784
   83TIP3    H2  256   0.689   4.578   0.684
   84TIP3   OH2  257   4.071   0.719   2.458
   84TIP3    H1  258   4.105   0.645   2.409
   84TIP3    H2  259   4.035   0.680   2.538
   85TIP3   OH2  260   3.699   4.257   1.249
   85TIP3    H1  261   3.765   4.297   1.193
   85TIP3    H2  262   3.685   4.170   1.212
   86TIP3   OH2  263   1.145   3.000   3.710
   86TIP3    H1  264   1.148   3.000   3.614
   86TIP3    H2  265   1.104   3.083   3.733
   87TIP3   OH2  266   3.005   4.494   0.537
   87TIP3    H1  267   2.940   4.508   0.606
   87TIP3    H2  268   3.076   4.446   0.580
   88TIP3   OH2  269   2.815   5.452   4.232
   88TIP3    H1  270   2.814   5.410   4.146
   88TIP3    H2  271   2.873   5.397   4.285
   89TIP3   OH2  272   2.492   4.108   4.490
   89TIP3    H1  273   2.455   4.067   4.412
   89TIP3    H2  274   2.431   4.084   4.560
   90TIP3   OH2  275   0.837   2.481   5.192
   90TIP3    H1  276   0.933   2.485   5.197
   90TIP3    H2  277   0.811   2.568   5.161
   91TIP3   OH2  278   1.567   2.648   4.900
   91TIP3    H1  279   1.501   2.651   4.831
   91TIP3    H2  280   1.646   2.615   4.857
   92TIP3   OH2  281   5.173   1.597   3.373
   92TIP3    H1  282   5.083   1.604   3.340
   92TIP3    H2  283   5.202   1.688   3.381
   93TIP3   OH2  284   2.189   0.037   2.082
   93TIP3    H1  285   2.114  -0.022   2.091
   93TIP3    H2  286   2.180   0.073   1.994
   94TIP3   OH2  287   5.916   4.812   4.604
   94TIP3    H1  288   5.837   4.831   4.553
   94TIP3    H2  289   5.958   4.898   4.615
   95TIP3   OH2  290   1.335   4.359   0.695
   95TIP3    H1  291   1.254   4.373   0.744
   95TIP3    H2  292   1.325   4.410   0.615
   96TIP3   OH2  293   2.052   3.628   0.143
   96TIP3    H1  294   2.128   3.592   0.189
   96TIP3    H2  295   2.046   3.577   0.063
   97TIP3   OH2  296   2.279   2.257   3.419
   97TIP3    H1  297   2.322   2.172   3.425
   97TIP3    H2  298   2.345   2.319   3.450
   98TIP3   OH2  299   0.623   3.141   0.105
   98TIP3    H1  300   0.639   3.071   0.169
   98TIP3    H2  301   0.529   3.154   0.107
   99TIP3   OH2  302   0.855   5.073   0.984
   99TIP3    H1  303   0.829   4.981   0.974
   99TIP3    H2  304   0.783   5.123   0.947
  100TIP3   OH2  305   2.242   3.844   2.302
  100TIP3    H1  306   2.222   3.829   2.210
  100TIP3    H2  307   2.158   3.836   2.347
  101TIP3   OH2  308   4.863   1.901   1.226
  101TIP3    H1  309   4.943   1.854   1.248
  101TIP3    H2  310   4.804   1.834   1.191
  102TIP3   OH2  311   6.275   5.631   4.229
  102TIP3    H1  312   6.203   5.655   4.287
  102TIP3    H2  313   6.329   5.710   4.224
  103TIP3   OH2  314   2.752   0.054   4.008
  103TIP3    H1  315   2.806   0.042   3.929
  103TIP3    H2  316   2.795   0.123   4.057
  104TIP3   OH2  317   2.627   4.471   1.137
  104TIP3    H1  318   2.547   4.461   1.187
  104TIP3    H2  319   2.697   4.471   1.203
  105TIP3   OH2  320   5.587   5.883   3.119
  105TIP3    H1  321   5.512   5.830   3.147
  105TIP3    H2  322   5.550   5.946   3.057
  106TIP3   OH2  323   4.061   0.069   3.667
  106TIP3    H1  324   3.993   0.035   3.609
  106TIP3    H2  325   4.019   0.143   3.712
  107TIP3   OH2  326   1.013   4.554   4.917
  107TIP3    H1  327   1.100   4.533   4.949
  107TIP3    H2  328   0.999   4.645   4.943
  108TIP3   OH2  329   3.749   2.635   3.649
  108TIP3    H1  330   3.747   2.723   3.685
  108TIP3    H2  331   3.842   2.615   3.638
  109TIP3   OH2  332   2.790   1.906   1.473
  109TIP3    H1  333   2.880   1.934   1.460
  109TIP3    H2  334   2.791   1.860   1.557
  110TIP3   OH2  335   0.468   2.103   4.819
  110TIP3    H1  336   0.451   2.031   4.758
  110TIP3    H2  337   0.383   2.145   4.830
  111TIP3   OH2  338   4.027   1.186   1.258
  111TIP3    H1  339   4.000   1.128   1.187
  111TIP3    H2  340   3.984   1.150   1.336
  112TIP3   OH2  341   4.024   1.984   1.914
  112TIP3    H1  342   4.015   1.983   2.009
  112TIP3    H2  343   3.982   2.066   1.887
  113TIP3   OH2  344   3.949   3.217   4.008
  113TIP3    H1  345   3.918   3.138   4.053
  113TIP3    H2  346   3.870   3.253   3.968
  114TIP3   OH2  347   0.073   1.105   1.836
  114TIP3    H1  348   0.152   1.107   1.782
  114TIP3    H2  349   0.032   1.191   1.822
  115TIP3   OH2  350   5.879   2.781   3.402
  115TIP3    H1  351   5.906   2.805   3.490
  115TIP3    H2  352   5.791   2.746   3.412
  116TIP3   OH2  353   5.090   1.066   4.462
  116TIP3    H1  354   5.019   1.076   4.526
  116TIP3    H2  355   5.164   1.113   4.501
  117TIP3   OH2  356   6.200   0.380   1.705
  117TIP3    H1  357   6.217   0.304   1.650
  117TIP3    H2  358   6.216   0.455   1.648
  118TIP3   OH2  359   2.307   1.590   5.162
  118TIP3    H1  360   2.353   1.621   5.084
  118TIP3    H2  361   2.329   1.497   5.169
  119TIP3   OH2  362   5.290   3.179   3.208
  119TIP3    H1  363   5.341   3.145   3.135
  119TIP3    H2  364   5.206   3.205   3.169
  120TIP3   OH2  365   4.167   1.112   4.596
  120TIP3    H1  366   4.087   1.123   4.647
  120TIP3    H2  367   4.142   1.055   4.523
  121TIP3   OH2  368   3.638   2.133   3.241
  121TIP3    H1  369   3.729   2.110   3.258
  121TIP3    H2  370   3.628   2.123   3.146
  122TIP3   OH2  371   5.863   0.973   2.352
  122TIP3    H1  372   5.829   0.922   2.425
  122TIP3    H2  373   5.858   0.914   2.277
  123TIP3   OH2  374   2.703   5.841   4.558
  123TIP3    H1  375   2.749   5.922   4.577
  123TIP3    H2  376   2.759   5.794   4.496
  124TIP3   OH2  377   5.453   0.705   0.627
  124TIP3    H1  378   5.535   0.754   0.632
  124TIP3    H2  379   5.438   0.695   0.533
  125TIP3   OH2  380   4.446   2.505   2.612
  125TIP3    H1  381   4.473   2.514   2.521
  125TIP3    H2  382   4.367   2.450   2.608
  126TIP3   OH2  383   1.737   4.607   2.716
  126TIP3    H1  384   1.663   4.643   2.766
  126TIP3    H2  385   1.738   4.659   2.636
  127TIP3   OH2  386   3.260   2.238   3.792
  127TIP3    H1  387   3.199   2.275   3.855
  127TIP3    H2  388   3.224   2.152   3.770
  128TIP3   OH2  389   0.034   2.158   0.719
  128TIP3    H1  390  -0.030   2.164   0.647
  128TIP3    H2  391   0.000   2.218   0.786
  129TIP3   OH2  392   4.339   3.580   3.483
  129TIP3    H1  393   4.403   3.628   3.430
  129TIP3    H2  394   4.353   3.612   3.572
  130TIP3   OH2  395   2.134   2.881   3.474
  130TIP3    H1  396   2.201   2.814   3.487
  130TIP3    H2  397   2.051   2.834   3.484
  131TIP3   OH2  398   3.039   4.987   1.318
  131TIP3    H1  399   2.995   4.970   1.401
  131TIP3    H2  400   2.968   5.010   1.258
  132TIP3   OH2  401   1.243   0.898   0.971
  132TIP3    H1  402   1.212   0.845   1.045
  132TIP3    H2  403   1.322   0.940   1.004
  133TIP3   OH2  404   0.901   4.674   4.642
  133TIP3    H1  405   0.885   4.760   4.679
  133TIP3    H2  406   0.949   4.627   4.710
  134TIP3   OH2  407   1.487   2.768   2.839
  134TIP3    H1  408   1.465   2.675   2.846
  134TIP3    H2  409   1.408   2.814   2.867
  135TIP3   OH2  410   4.505   2.952   2.893
  135TIP3    H1  411   4.559   2.942   2.971
  135TIP3    H2  412   4.551   3.017   2.840
  136TIP3   OH2  413   5.972   2.925   4.538
  136TIP3    H1  414   5.988   2.834   4.564
  136TIP3    H2  415   5.945   2.967   4.619
  137TIP3   OH2  416   5.903   4.467   5.047
  137TIP3    H1  417   5.855   4.395   5.089
  137TIP3    H2  418   5.989   4.465   5.089
  138TIP3   OH2  419   3.756   5.305   1.207
  138TIP3    H1  420   3.759   5.391   1.164
  138TIP3    H2  421   3.713   5.248   1.143
  139TIP3   OH2  422   2.702   5.849   3.344
  139TIP3    H1  423   2.679   5.756   3.347
  139TIP3    H2  424   2.647   5.889   3.412
  140TIP3   OH2  425   1.352   4.846   3.874
  140TIP3    H1  426   1.262   4.875   3.857
  140TIP3    H2  427   1.398   4.859   3.791
  141TIP3   OH2  428   6.113   2.888   4.879
  141TIP3    H1  429   6.019   2.901   4.868
  141TIP3    H2  430   6.123   2.863   4.971
  142TIP3   OH2  431   1.497   4.621   0.390
  142TIP3    H1  432   1.564   4.664   0.338
  142TIP3    H2  433   1.475   4.542   0.341
  143TIP3   OH2  434   0.051   5.556   4.945
  143TIP3    H1  435   0.074   5.500   4.871
  143TIP3    H2  436   0.136   5.585   4.980
  144TIP3   OH2  437   2.055   2.868   4.405
  144TIP3    H1  438   1.980   2.816   4.375
  144TIP3    H2  439   2.016   2.944   4.447
  145TIP3   OH2  440   0.243   5.902   1.665
  145TIP3    H1  441   0.304   5.935   1.731
  145TIP3    H2  442   0.194   5.833   1.710
  146TIP3   OH2  443   2.555   1.339   0.122
  146TIP3    H1  444   2.622   1.403   0.097
  146TIP3    H2  445   2.480   1.359   0.065
  147TIP3   OH2  446   3.264   3.005   3.862
  147TIP3    H1  447   3.239   3.052   3.942
  147TIP3    H2  448   3.277   2.915   3.891
  148TIP3   OH2  449   2.667   0.730   4.943
  148TIP3    H1  450   2.715   0.812   4.952
  148TIP3    H2  451   2.676   0.707   4.851
  149TIP3   OH2  452   4.418   5.211   0.868
  149TIP3    H1  453   4.495   5.266   0.855
  149TIP3    H2  454   4.363   5.261   0.928
  150TIP3   OH2  455   0.671   0.298   3.405
  150TIP3    H1  456   0.726   0.221   3.390
  150TIP3    H2  457   0.640   0.288   3.495
  151TIP3   OH2  458   2.661   0.550   0.598
  151TIP3    H1  459   2.588   0.544   0.660
  151TIP3    H2  460   2.691   0.641   0.605
  152TIP3   OH2  461   4.219   1.543   1.807
  152TIP3    H1  462   4.311   1.561   1.825
  152TIP3    H2  463   4.171   1.594   1.872
  153TIP3   OH2  464   3.408   1.161   4.836
  153TIP3    H1  465   3.343   1.100   4.800
  153TIP3    H2  466   3.467   1.179   4.763
  154TIP3   OH2  467   5.265   3.958   3.671
  154TIP3    H1  468   5.327   3.997   3.609
  154TIP3    H2  469   5.246   3.872   3.635
  155TIP3   OH2  470   5.906   5.466   4.904
  155TIP3    H1  471   5.997   5.453   4.932
  155TIP3    H2  472   5.886   5.390   4.850
  156TIP3   OH2  473   3.131   3.856   2.894
  156TIP3    H1  474   3.193   3.796   2.936
  156TIP3    H2  475   3.129   3.827   2.803
  157TIP3   OH2  476   3.712   0.339   5.184
  157TIP3    H1  477   3.797   0.372   5.157
  157TIP3    H2  478   3.675   0.300   5.105
  158TIP3   OH2  479   5.604   1.986   1.632
  158TIP3    H1  480   5.565   1.899   1.640
  158TIP3    H2  481   5.649   1.984   1.548
  159TIP3   OH2  482   0.376   4.514   4.882
  159TIP3    H1  483   0.398   4.447   4.946
  159TIP3    H2  484   0.458   4.529   4.834
  160TIP3   OH2  485   6.229   0.902   1.236
  160TIP3    H1  486   6.305   0.918   1.181
  160TIP3    H2  487   6.173   0.844   1.183
  161TIP3   OH2  488   0.616   5.441   2.921
  161TIP3    H1  489   0.670   5.370   2.884
  161TIP3    H2  490   0.529   5.425   2.885
  162TIP3   OH2  491   2.516   4.923   2.740
  162TIP3    H1  492   2.599   4.940   2.783
  162TIP3    H2  493   2.451   4.926   2.810
  163TIP3   OH2  494   4.304   0.905   3.747
  163TIP3    H1  495   4.382   0.940   3.705
  163TIP3    H2  496   4.264   0.849   3.681
  164TIP3   OH2  497   2.993   5.523   3.262
  164TIP3    H1  498   2.924   5.462   3.239
  164TIP3    H2  499   3.073   5.471   3.263
  165TIP3   OH2  500   5.656   0.307   1.723
  165TIP3    H1  501   5.682   0.223   1.684
  165TIP3    H2  502   5.702   0.372   1.670
  166TIP3   OH2  503   1.917   1.404   3.638
  166TIP3    H1  504   1.887   1.317   3.610
  166TIP3    H2  505   1.986   1.386   3.703
  167TIP3   OH2  506   3.872   3.968   3.319
  167TIP3    H1  507   3.805   3.996   3.256
  167TIP3    H2  508   3.872   3.872   3.313
  168TIP3   OH2  509   5.749   1.556   1.129
  168TIP3    H1  510   5.709   1.598   1.205
  168TIP3    H2  511   5.784   1.474   1.163
  169TIP3   OH2  512   3.348   3.834   0.155
  169TIP3    H1  513   3.336   3.811   0.247
  169TIP3    H2  514   3.391   3.920   0.158
  170TIP3   OH2  515   0.298   1.165   1.695
  170TIP3    H1  516   0.299   1.137   1.604
  170TIP3    H2  517   0.385   1.203   1.710
  171TIP3   OH2  518   3.937   0.708   0.658
  171TIP3    H1  519   3.879   0.732   0.587
  171TIP3    H2  520   4.025   0.729   0.626
  172TIP3   OH2  521   0.085   5.653   0.995
  172TIP3    H1  522   0.150   5.609   0.939
  172TIP3    H2  523   0.062   5.587   1.061
  173TIP3   OH2  524   3.257   3.165   4.874
  173TIP3    H1  525   3.205   3.200   4.946
  173TIP3    H2  526   3.200   3.101   4.832
  174TIP3   OH2  527   0.007   2.482   4.269
  174TIP3    H1  528   0.095   2.498   4.234
  174TIP3    H2  529   0.016   2.499   4.363
  175TIP3   OH2  530   1.117   2.869   1.063
  175TIP3    H1  531   1.056   2.822   1.006
  175TIP3    H2  532   1.201   2.823   1.052
  176TIP3   OH2  533   3.520   1.367   2.305
  176TIP3    H1  534   3.602   1.398   2.266
  176TIP3    H2  535   3.527   1.271   2.302
  177TIP3   OH2  536   0.165   4.565   4.411
  177TIP3    H1  537   0.111   4.626   4.363
  177TIP3    H2  538   0.164   4.485   4.358
  178TIP3   OH2  539   6.133   1.425   0.003
  178TIP3    H1  540   6.080   1.460   0.075
  178TIP3    H2  541   6.098   1.467  -0.075
  179TIP3   OH2  542   1.198   0.715   4.470
  179TIP3    H1  543   1.281   0.727   4.424
  179TIP3    H2  544   1.218   0.656   4.542
  180TIP3   OH2  545   0.551   3.082   2.117
  180TIP3    H1  546   0.503   3.000   2.133
  180TIP3    H2  547   0.524   3.140   2.188
  181TIP3   OH2  548   3.700   3.237   0.888
  181TIP3    H1  549   3.778   3.265   0.936
  181TIP3    H2  550   3.703   3.141   0.892
  182TIP3   OH2  551   5.236   0.346   0.152
  182TIP3    H1  552   5.265   0.261   0.118
  182TIP3    H2  553   5.143   0.334   0.171
  183TIP3   OH2  554   3.768   4.408   2.567
  183TIP3    H1  555   3.854   4.443   2.591
  183TIP3    H2  556   3.787   4.339   2.504
  184TIP3   OH2  557   3.912   3.704   1.719
  184TIP3    H1  558   3.868   3.674   1.640
  184TIP3    H2  559   3.956   3.626   1.754
  185TIP3   OH2  560   1.615   5.009   1.528
  185TIP3    H1  561   1.592   5.048   1.443
  185TIP3    H2  562   1.680   4.942   1.506
  186TIP3   OH2  563   3.737   3.605   3.965
  186TIP3    H1  564   3.747   3.513   3.939
  186TIP3    H2  565   3.683   3.601   4.044
  187TIP3   OH2  566   4.443   2.519   3.288
  187TIP3    H1  567   4.409   2.554   3.206
  187TIP3    H2  568   4.367   2.519   3.347
  188TIP3   OH2  569   3.218   5.370   2.646
  188TIP3    H1  570   3.245   5.405   2.731
  188TIP3    H2  571   3.206   5.447   2.591
  189TIP3   OH2  572   0.923   3.824   1.839
  189TIP3    H1  573   0.950   3.776   1.917
  189TIP3    H2  574   0.827   3.826   1.843
  190TIP3   OH2  575   4.971   0.318   0.137
  190TIP3    H1  576   4.959   0.375   0.061
  190TIP3    H2  577   4.891   0.265   0.140
  191TIP3   OH2  578   5.127   2.830   4.468
  191TIP3    H1  579   5.098   2.742   4.444
  191TIP3    H2  580   5.104   2.838   4.561
  192TIP3   OH2  581   4.416   4.420   0.939
  192TIP3    H1  582   4.390   4.505   0.904
  192TIP3    H2  583   4.395   4.358   0.869
  193TIP3   OH2  584   0.277   3.346   0.692
  193TIP3    H1  585   0.355   3.399   0.676
  193TIP3    H2  586   0.225   3.399   0.753
  194TIP3   OH2  587   6.133   3.757   2.268
  194TIP3    H1  588   6.186   3.724   2.194
  194TIP3    H2  589   6.171   3.843   2.287
  195TIP3   OH2  590   3.414   4.068   0.777
  195TIP3    H1  591   3.392   3.990   0.728
  195TIP3    H2  592   3.492   4.044   0.828
  196TIP3   OH2  593   5.179   5.125   4.823
  196TIP3    H1  594   5.233   5.118   4.745
  196TIP3    H2  595   5.130   5.207   4.811
  197TIP3   OH2  596   0.781   4.118   2.425
  197TIP3    H1  597   0.763   4.099   2.333
  197TIP3    H2  598   0.698   4.101   2.470
  198TIP3   OH2  599   5.317   1.510   2.443
  198TIP3    H1  600   5.322   1.603   2.418
  198TIP3    H2  601   5.240   1.477   2.396
  199TIP3   OH2  602   0.323   4.266   4.443
  199TIP3    H1  603   0.270   4.328   4.494
  199TIP3    H2  604   0.269   4.187   4.439
  200TIP3   OH2  605   4.448   5.852   1.846
  200TIP3    H1  606   4.477   5.856   1.754
  200TIP3    H2  607   4.385   5.780   1.848
  201TIP3   OH2  608   1.672   1.550   3.718
  201TIP3    H1  609   1.728   1.489   3.670
  201TIP3    H2  610   1.592   1.555   3.667
  202TIP3   OH2  611   4.946   5.703   4.502
  202TIP3    H1  612   5.015   5.728   4.441
  202TIP3    H2  613   4.873   5.762   4.482
  203TIP3   OH2  614   0.402   0.566   0.387
  203TIP3    H1  615   0.451   0.571   0.305
  203TIP3    H2  616   0.381   0.657   0.409
  204TIP3   OH2  617   3.675   2.674   4.001
  204TIP3    H1  618   3.768   2.669   4.025
  204TIP3    H2  619   3.670   2.747   3.940
  205TIP3   OH2  620   0.411   3.811   0.673
  205TIP3    H1  621   0.417   3.904   0.696
  205TIP3    H2  622   0.502   3.780   0.673
  206TIP3   OH2  623   3.335   5.481   3.465
  206TIP3    H1  624   3.345   5.562   3.416
  206TIP3    H2  625   3.297   5.420   3.403
  207TIP3   OH2  626   3.168   2.548   2.269
  207TIP3    H1  627   3.160   2.643   2.276
  207TIP3    H2  628   3.149   2.515   2.356
  208TIP3   OH2  629   3.422   5.855   4.594
  208TIP3    H1  630   3.505   5.893   4.622
  208TIP3    H2  631   3.428   5.854   4.498
  209TIP3   OH2  632   3.508   2.924   0.033
  209TIP3    H1  633   3.525   2.913   0.127
  209TIP3    H2  634   3.499   3.018   0.022
  210TIP3   OH2  635   6.038   2.885   2.387
  210TIP3    H1  636   5.965   2.915   2.333
  210TIP3    H2  637   6.115   2.897   2.331
  211TIP3   OH2  638   5.008   2.040   1.808
  211TIP3    H1  639   5.042   1.981   1.741
  211TIP3    H2  640   5.077   2.105   1.821
  212TIP3   OH2  641   3.025   3.279   2.810
  212TIP3    H1  642   3.069   3.195   2.801
  212TIP3    H2  643   2.937   3.263   2.776
  213TIP3   OH2  644   1.577   0.715   4.719
  213TIP3    H1  645   1.485   0.694   4.733
  213TIP3    H2  646   1.617   0.632   4.694
  214TIP3   OH2  647   5.994   0.078   3.381
  214TIP3    H1  648   5.996   0.022   3.458
  214TIP3    H2  649   6.008   0.166   3.416
  215TIP3   OH2  650   3.094   5.773   1.176
  215TIP3    H1  651   3.109   5.842   1.241
  215TIP3    H2  652   3.092   5.692   1.227
  216TIP3   OH2  653   2.599   0.438   4.293
  216TIP3    H1  654   2.587   0.519   4.244
  216TIP3    H2  655   2.693   0.424   4.294
  217TIP3   OH2  656   4.287   5.235   1.901
  217TIP3    H1  657   4.313   5.259   1.812
  217TIP3    H2  658   4.195   5.208   1.893
  218TIP3   OH2  659   1.149   1.376   4.329
  218TIP3    H1  660   1.069   1.338   4.365
  218TIP3    H2  661   1.162   1.331   4.245
  219TIP3   OH2  662   1.937   2.790   1.437
  219TIP3    H1  663   1.972   2.848   1.505
  219TIP3    H2  664   1.969   2.703   1.462
  220TIP3   OH2  665   1.020   3.549   0.891
  220TIP3    H1  666   0.966   3.626   0.902
  220TIP3    H2  667   1.079   3.550   0.966
  221TIP3   OH2  668   5.339   1.480   3.547
  221TIP3    H1  669   5.384   1.560   3.572
  221TIP3    H2  670   5.272   1.508   3.485
  222TIP3   OH2  671   4.084   2.296   1.327
  222TIP3    H1  672   4.149   2.337   1.384
  222TIP3    H2  673   4.039   2.369   1.285
  223TIP3   OH2  674   2.389   4.101   2.254
  223TIP3    H1  675   2.371   4.007   2.256
  223TIP3    H2  676   2.427   4.120   2.340
  224TIP3   OH2  677   5.828   2.700   0.405
  224TIP3    H1  678   5.823   2.626   0.466
  224TIP3    H2  679   5.755   2.757   0.429
  225TIP3   OH2  680   0.268   3.800   1.677
  225TIP3    H1  681   0.228   3.725   1.719
  225TIP3    H2  682   0.195   3.858   1.655
  226TIP3   OH2  683   5.707   2.720   0.758
  226TIP3    H1  684   5.783   2.728   0.815
  226TIP3    H2  685   5.668   2.636   0.782
  227TIP3   OH2  686   1.827   3.082   4.201
  227TIP3    H1  687   1.739   3.065   4.234
  227TIP3    H2  688   1.883   3.075   4.279
  228TIP3   OH2  689   4.279   2.319   0.584
  228TIP3    H1  690   4.279   2.410   0.615
  228TIP3    H2  691   4.372   2.295   0.584
  229TIP3   OH2  692   2.579   5.683   4.757
  229TIP3    H1  693   2.638   5.747   4.715
  229TIP3    H2  694   2.554   5.624   4.685
  230TIP3   OH2  695   5.054   5.131   3.167
  230TIP3    H1  696   5.065   5.179   3.250
  230TIP3    H2  697   4.995   5.185   3.115
  231TIP3   OH2  698   6.202   3.009   0.724
  231TIP3    H1  699   6.141   3.051   0.785
  231TIP3    H2  700   6.154   2.933   0.691
  232TIP3   OH2  701   5.155   3.330   3.542
  232TIP3    H1  702   5.076   3.344   3.594
  232TIP3    H2  703   5.124   3.328   3.451
  233TIP3   OH2  704   5.713   5.352   2.050
  233TIP3    H1  705   5.807   5.372   2.047
  233TIP3    H2  706   5.672   5.421   1.998
  234TIP3   OH2  707   6.134   0.338   0.303
  234TIP3    H1  708   6.141   0.267   0.366
  234TIP3    H2  709   6.154   0.297   0.219
  235TIP3   OH2  710   3.661   0.318   0.162
  235TIP3    H1  711   3.725   0.390   0.164
  235TIP3    H2  712   3.613   0.328   0.244
  236TIP3   OH2  713   4.337   0.905   2.436
  236TIP3    H1  714   4.321   0.915   2.530
  236TIP3    H2  715   4.262   0.855   2.404
  237TIP3   OH2  716   2.857   0.641   3.681
  237TIP3    H1  717   2.903   0.560   3.661
  237TIP3    H2  718   2.916   0.710   3.651
  238TIP3   OH2  719   0.849   4.331   4.839
  238TIP3    H1  720   0.884   4.318   4.751
  238TIP3    H2  721   0.882   4.417   4.866
  239TIP3   OH2  722   2.207   0.202   2.970
  239TIP3    H1  723   2.186   0.111   2.948
  239TIP3    H2  724   2.131   0.233   3.020
  240TIP3   OH2  725   4.960   1.737   2.943
  240TIP3    H1  726   4.953   1.823   2.903
  240TIP3    H2  727   5.044   1.703   2.911
  241TIP3   OH2  728   3.734   4.091   0.293
  241TIP3    H1  729   3.734   4.186   0.299
  241TIP3    H2  730   3.685   4.062   0.370
  242TIP3   OH2  731   3.574   2.825   0.686
  242TIP3    H1  732   3.622   2.760   0.634
  242TIP3    H2  733   3.494   2.780   0.713
  243TIP3   OH2  734   5.377   1.644   0.473
  243TIP3    H1  735   5.449   1.586   0.499
  243TIP3    H2  736   5.323   1.591   0.416
  244TIP3   OH2  737   0.941   5.438   4.910
  244TIP3    H1  738   0.908   5.506   4.851
  244TIP3    H2  739   0.946   5.481   4.995
  245TIP3   OH2  740   1.202   5.217   1.541
  245TIP3    H1  741   1.224   5.219   1.634
  245TIP3    H2  742   1.116   5.175   1.538
  246TIP3   OH2  743   1.144   5.459   4.176
  246TIP3    H1  744   1.213   5.395   4.195
  246TIP3    H2  745   1.068   5.427   4.224
  247TIP3   OH2  746   1.910   5.594   2.999
  247TIP3    H1  747   1.904   5.644   2.917
  247TIP3    H2  748   1.826   5.608   3.042
  248TIP3   OH2  749   4.700   5.688   3.325
  248TIP3    H1  750   4.689   5.630   3.401
  248TIP3    H2  751   4.746   5.635   3.261
  249TIP3   OH2  752   1.594   3.661   0.998
  249TIP3    H1  753   1.587   3.718   0.922
  249TIP3    H2  754   1.507   3.622   1.008
  250TIP3   OH2  755   1.018   4.494   2.152
  250TIP3    H1  756   0.974   4.455   2.227
  250TIP3    H2  757   1.095   4.438   2.137
  251TIP3   OH2  758   4.364   5.455   0.121
  251TIP3    H1  759   4.419   5.379   0.103
  251TIP3    H2  760   4.310   5.428   0.196
  252TIP3   OH2  761   5.108   5.708   3.242
  252TIP3    H1  762   5.115   5.621   3.203
  252TIP3    H2  763   5.041   5.699   3.310
  253TIP3   OH2  764   1.954   4.937   3.933
  253TIP3    H1  765   1.868   4.896   3.925
  253TIP3    H2  766   1.941   5.026   3.899
  254TIP3   OH2  767   4.284   3.422   1.274
  254TIP3    H1  768   4.357   3.392   1.328
  254TIP3    H2  769   4.325   3.455   1.194
  255TIP3   OH2  770   0.286   2.344   4.838
  255TIP3    H1  771   0.273   2.423   4.890
  255TIP3    H2  772   0.377   2.349   4.808
  256TIP3   OH2  773   2.695   3.062   5.094
  256TIP3    H1  774   2.773   3.024   5.134
  256TIP3    H2  775   2.730   3.127   5.032
  257TIP3   OH2  776   5.176   1.853   0.485
  257TIP3    H1  777   5.137   1.823   0.403
  257TIP3    H2  778   5.255   1.800   0.495
  258TIP3   OH2  779   0.283   4.272   1.543
  258TIP3    H1  780   0.346   4.338   1.572
  258TIP3    H2  781   0.269   4.217   1.621
  259TIP3   OH2  782   0.089   3.770   3.901
  259TIP3    H1  783   0.000   3.797   3.878
  259TIP3    H2  784   0.086   3.674   3.901
  260TIP3   OH2  785   1.750   4.273   1.972
  260TIP3    H1  786   1.767   4.303   1.883
  260TIP3    H2  787   1.729   4.180   1.962
  261TIP3   OH2  788   1.413   3.477   2.835
  261TIP3    H1  789   1.499   3.434   2.837
  261TIP3    H2  790   1.408   3.524   2.918
  262TIP3   OH2  791   3.740   5.631   1.580
  262TIP3    H1  792   3.684   5.599   1.509
  262TIP3    H2  793   3.824   5.649   1.538
  263TIP3   OH2  794   0.253   1.227   0.852
  263TIP3    H1  795   0.260   1.135   0.828
  263TIP3    H2  796   0.321   1.241   0.917
  264TIP3   OH2  797   4.409   0.748   0.205
  264TIP3    H1  798   4.423   0.698   0.285
  264TIP3    H2  799   4.462   0.827   0.217
  265TIP3   OH2  800   6.053   4.189   4.949
  265TIP3    H1  801   6.081   4.263   4.895
  265TIP3    H2  802   6.110   4.191   5.025
  266TIP3   OH2  803   2.010   5.778   3.744
  266TIP3    H1  804   2.030   5.725   3.667
  266TIP3    H2  805   1.914   5.785   3.745
  267TIP3   OH2  806   3.491   2.574   4.528
  267TIP3    H1  807   3.456   2.486   4.520
  267TIP3    H2  808   3.530   2.592   4.442
  268TIP3   OH2  809   1.641   5.859   1.114
  268TIP3    H1  810   1.629   5.852   1.209
  268TIP3    H2  811   1.635   5.953   1.097
  269TIP3   OH2  812   0.515   0.972   1.281
  269TIP3    H1  813   0.509   0.909   1.353
  269TIP3    H2  814   0.502   0.919   1.202
  270TIP3   OH2  815   1.141   5.659   2.023
  270TIP3    H1  816   1.115   5.664   1.931
  270TIP3    H2  817   1.237   5.659   2.021
  271TIP3   OH2  818   0.963   2.799   2.361
  271TIP3    H1  819   0.967   2.751   2.443
  271TIP3    H2  820   1.039   2.769   2.311
  272TIP3   OH2  821   1.221   0.210   2.465
  272TIP3    H1  822   1.196   0.121   2.492
  272TIP3    H2  823   1.263   0.248   2.541
  273TIP3   OH2  824   3.324   5.811   1.832
  273TIP3    H1  825   3.256   5.805   1.899
  273TIP3    H2  826   3.329   5.904   1.811
  274TIP3   OH2  827   2.407   2.945   1.796
  274TIP3    H1  828   2.482   2.893   1.766
  274TIP3    H2  829   2.355   2.884   1.849
  275TIP3   OH2  830   1.925   2.624   3.167
  275TIP3    H1  831   1.841   2.616   3.213
  275TIP3    H2  832   1.986   2.573   3.221
  276TIP3   OH2  833   2.523   0.306   0.756
  276TIP3    H1  834   2.429   0.294   0.773
  276TIP3    H2  835   2.558   0.217   0.753
  277TIP3   OH2  836   1.612   0.682   3.273
  277TIP3    H1  837   1.683   0.622   3.295
  277TIP3    H2  838   1.656   0.762   3.244
  278TIP3   OH2  839   5.127   4.272   4.203
  278TIP3    H1  840   5.184   4.284   4.279
  278TIP3    H2  841   5.048   4.322   4.225
  279TIP3   OH2  842   2.443   1.897   0.913
  279TIP3    H1  843   2.390   1.950   0.854
  279TIP3    H2  844   2.414   1.923   1.001
  280TIP3   OH2  845   4.012   0.665   3.747
  280TIP3    H1  846   4.090   0.611   3.735
  280TIP3    H2  847   3.945   0.620   3.695
  281TIP3   OH2  848   4.202   5.414   3.691
  281TIP3    H1  849   4.168   5.504   3.691
  281TIP3    H2  850   4.166   5.375   3.770
  282TIP3   OH2  851   5.554   4.628   2.227
  282TIP3    H1  852   5.628   4.682   2.255
  282TIP3    H2  853   5.516   4.594   2.308
  283TIP3   OH2  854   3.536   4.345   4.518
  283TIP3    H1  855   3.538   4.306   4.605
  283TIP3    H2  856   3.448   4.325   4.485
  284TIP3   OH2  857   4.569   2.729   1.344
  284TIP3    H1  858   4.617   2.807   1.316
  284TIP3    H2  859   4.631   2.657   1.332
  285TIP3   OH2  860   3.541   0.513   3.290
  285TIP3    H1  861   3.490   0.584   3.250
  285TIP3    H2  862   3.523   0.521   3.384
  286TIP3   OH2  863   4.436   1.510   3.969
  286TIP3    H1  864   4.516   1.543   3.928
  286TIP3    H2  865   4.450   1.415   3.975
  287TIP3   OH2  866   0.428   2.349   1.358
  287TIP3    H1  867   0.477   2.285   1.410
  287TIP3    H2  868   0.476   2.352   1.275
  288TIP3   OH2  869   3.559   3.848   4.974
  288TIP3    H1  870   3.538   3.847   4.881
  288TIP3    H2  871   3.593   3.936   4.990
  289TIP3   OH2  872   5.791   3.693   3.568
  289TIP3    H1  873   5.801   3.702   3.662
  289TIP3    H2  874   5.738   3.614   3.557
  290TIP3   OH2  875   4.539   0.364   4.485
  290TIP3    H1  876   4.580   0.388   4.403
  290TIP3    H2  877   4.448   0.343   4.462
  291TIP3   OH2  878   1.425   1.674   3.360
  291TIP3    H1  879   1.343   1.713   3.330
  291TIP3    H2  880   1.456   1.623   3.285
  292TIP3   OH2  881   3.827   4.964   3.857
  292TIP3    H1  882   3.836   4.900   3.929
  292TIP3    H2  883   3.769   4.921   3.794
  293TIP3   OH2  884   0.252   3.361   1.717
  293TIP3    H1  885   0.204   3.302   1.774
  293TIP3    H2  886   0.203   3.443   1.719
  294TIP3   OH2  887   3.461   4.550   1.373
  294TIP3    H1  888   3.549   4.569   1.341
  294TIP3    H2  889   3.456   4.454   1.375
  295TIP3   OH2  890   5.093   3.407   0.081
  295TIP3    H1  891   5.011   3.454   0.092
  295TIP3    H2  892   5.140   3.457   0.013
  296TIP3   OH2  893   4.472   5.754   0.702
  296TIP3    H1  894   4.551   5.786   0.658
  296TIP3    H2  895   4.405   5.755   0.634
  297TIP3   OH2  896   1.134   3.755   4.311
  297TIP3    H1  897   1.149   3.669   4.352
  297TIP3    H2  898   1.065   3.795   4.363
  298TIP3   OH2  899   3.427   3.699   2.468
  298TIP3    H1  900   3.381   3.664   2.392
  298TIP3    H2  901   3.513   3.725   2.434
  299TIP3   OH2  902   0.209   4.322   4.750
  299TIP3    H1  903   0.227   4.261   4.821
  299TIP3    H2  904   0.249   4.404   4.778
  300TIP3   OH2  905   5.779   3.213   1.955
  300TIP3    H1  906   5.722   3.239   1.882
  300TIP3    H2  907   5.868   3.231   1.923
  301TIP3   OH2  908   3.073   3.361   4.321
  301TIP3    H1  909   3.072   3.355   4.417
  301TIP3    H2  910   3.113   3.278   4.293
  302TIP3   OH2  911   2.075   5.582   0.828
  302TIP3    H1  912   2.068   5.677   0.839
  302TIP3    H2  913   2.067   5.547   0.917
  303TIP3   OH2  914   0.495   5.031   5.102
  303TIP3    H1  915   0.410   5.005   5.066
  303TIP3    H2  916   0.513   5.116   5.062
  304TIP3   OH2  917   3.086   0.980   1.480
  304TIP3    H1  918   3.162   0.961   1.425
  304TIP3    H2  919   3.019   1.011   1.419
  305TIP3   OH2  920   5.334   0.259   2.902
  305TIP3    H1  921   5.245   0.225   2.894
  305TIP3    H2  922   5.335   0.304   2.986
  306TIP3   OH2  923   1.471   1.083   1.383
  306TIP3    H1  924   1.436   1.165   1.417
  306TIP3    H2  925   1.436   1.016   1.442
  307TIP3   OH2  926   4.793   4.787   1.021
  307TIP3    H1  927   4.712   4.742   1.042
  307TIP3    H2  928   4.767   4.856   0.960
  308TIP3   OH2  929   4.597   5.446   1.196
  308TIP3    H1  930   4.518   5.499   1.205
  308TIP3    H2  931   4.659   5.485   1.258
  309TIP3   OH2  932   2.715   5.134   0.315
  309TIP3    H1  933   2.653   5.138   0.388
  309TIP3    H2  934   2.705   5.046   0.280
  310TIP3   OH2  935   0.691   4.613   2.968
  310TIP3    H1  936   0.760   4.619   3.034
  310TIP3    H2  937   0.610   4.627   3.016
  311TIP3   OH2  938   3.701   1.918   0.752
  311TIP3    H1  939   3.773   1.894   0.693
  311TIP3    H2  940   3.658   1.992   0.709
  312TIP3   OH2  941   1.504   5.589   4.563
  312TIP3    H1  942   1.424   5.573   4.612
  312TIP3    H2  943   1.521   5.682   4.575
  313TIP3   OH2  944   1.549   1.712   0.253
  313TIP3    H1  945   1.464   1.754   0.248
  313TIP3    H2  946   1.571   1.691   0.162
  314TIP3   OH2  947   4.696   4.961   3.018
  314TIP3    H1  948   4.632   4.945   3.088
  314TIP3    H2  949   4.685   4.887   2.959
  315TIP3   OH2  950   4.894   5.582   0.899
  315TIP3    H1  951   4.802   5.558   0.902
  315TIP3    H2  952   4.894   5.678   0.902
  316TIP3   OH2  953   2.133   4.496   2.925
  316TIP3    H1  954   2.113   4.436   2.996
  316TIP3    H2  955   2.052   4.500   2.873
  317TIP3   OH2  956   2.124   5.145   4.200
  317TIP3    H1  957   2.097   5.200   4.126
  317TIP3    H2  958   2.165   5.068   4.159
  318TIP3   OH2  959   5.983   1.705   3.406
  318TIP3    H1  960   5.895   1.691   3.440
  318TIP3    H2  961   6.030   1.750   3.476
  319TIP3   OH2  962   4.194   5.521   0.773
  319TIP3    H1  963   4.184   5.448   0.834
  319TIP3    H2  964   4.215   5.596   0.829
  320TIP3   OH2  965   4.071   5.074   3.941
  320TIP3    H1  966   3.989   5.042   3.903
  320TIP3    H2  967   4.121   4.995   3.961
  321TIP3   OH2  968   4.380   1.202   4.447
  321TIP3    H1  969   4.422   1.286   4.466
  321TIP3    H2  970   4.310   1.195   4.512
  322TIP3   OH2  971   6.180   1.001   4.063
  322TIP3    H1  972   6.183   0.977   4.156
  322TIP3    H2  973   6.111   0.945   4.027
  323TIP3   OH2  974   2.466   4.074   0.624
  323TIP3    H1  975   2.456   4.050   0.532
  323TIP3    H2  976   2.437   4.165   0.628
  324TIP3   OH2  977   1.046   3.502   4.083
  324TIP3    H1  978   1.116   3.438   4.069
  324TIP3    H2  979   1.078   3.560   4.151
  325TIP3   OH2  980   4.687   5.320   0.834
  325TIP3    H1  981   4.681   5.396   0.892
  325TIP3    H2  982   4.780   5.310   0.817
  326TIP3   OH2  983   2.270   5.717   3.958
  326TIP3    H1  984   2.231   5.698   3.873
  326TIP3    H2  985   2.249   5.641   4.012
  327TIP3   OH2  986   1.554   1.267   2.688
  327TIP3    H1  987   1.594   1.342   2.643
  327TIP3    H2  988   1.459   1.282   2.679
  328TIP3   OH2  989   2.076   5.697   1.652
  328TIP3    H1  990   2.171   5.692   1.655
  328TIP3    H2  991   2.053   5.658   1.567
  329TIP3   OH2  992   1.884   1.218   5.084
  329TIP3    H1  993   1.903   1.255   4.998
  329TIP3    H2  994   1.844   1.290   5.133
  330TIP3   OH2  995   0.136   1.642   1.138
  330TIP3    H1  996   0.154   1.728   1.100
  330TIP3    H2  997   0.196   1.636   1.213
  331TIP3   OH2  998   3.586   4.440   1.686
  331TIP3    H1  999   3.502   4.457   1.728
  331TIP3    H2 1000   3.564   4.388   1.609
  332TIP3   OH2 1001   4.382   1.648   4.622
  332TIP3    H1 1002   4.308   1.666   4.680
  332TIP3    H2 1003   4.457   1.689   4.666
  333TIP3   OH2 1004   1.175   0.135   0.560
  333TIP3    H1 1005   1.084   0.154   0.536
  333TIP3    H2 1006   1.169   0.101   0.650
  334TIP3   OH2 1007   1.321   1.020   2.787
  334TIP3    H1 1008   1.346   0.962   2.715
  334TIP3    H2 1009   1.289   1.099   2.745
  335TIP3   OH2 1010   4.398   5.348   5.085
  335TIP3    H1 1011   4.488   5.377   5.100
  335TIP3    H2 1012   4.379   5.376   4.995
  336TIP3   OH2 1013   4.384   2.375   1.731
  336TIP3    H1 1014   4.444   2.447   1.713
  336TIP3    H2 1015   4.308   2.393   1.676
  337TIP3   OH2 1016   2.547   3.433   2.899
  337TIP3    H1 1017   2.608   3.439   2.972
  337TIP3    H2 1018   2.481   3.500   2.917
  338TIP3   OH2 1019   5.921   0.509   4.452
  338TIP3    H1 1020   5.877   0.427   4.474
  338TIP3    H2 1021   5.989   0.519   4.519
  339TIP3   OH2 1022   3.400   3.867   3.908
  339TIP3    H1 1023   3.489   3.897   3.929
  339TIP3    H2 1024   3.413   3.806   3.836
  340TIP3   OH2 1025   2.027   5.492   1.440
  340TIP3    H1 1026   2.016   5.498   1.345
  340TIP3    H2 1027   2.119   5.468   1.452
  341TIP3   OH2 1028   3.675   3.501   4.769
  341TIP3    H1 1029   3.751   3.444   4.783
  341TIP3    H2 1030   3.600   3.441   4.766
  342TIP3   OH2 1031   1.740   4.448   4.741
  342TIP3    H1 1032   1.756   4.494   4.824
  342TIP3    H2 1033   1.801   4.490   4.679
  343TIP3   OH2 1034   4.119   5.907   3.960
  343TIP3    H1 1035   4.195   5.959   3.987
  343TIP3    H2 1036   4.096   5.941   3.874
  344TIP3   OH2 1037   1.952   3.269   4.046
  344TIP3    H1 1038   1.901   3.213   4.104
  344TIP3    H2 1039   2.024   3.215   4.016
  345TIP3   OH2 1040   2.799   3.510   4.891
  345TIP3    H1 1041   2.708   3.485   4.909
  345TIP3    H2 1042   2.801   3.524   4.797
  346TIP3   OH2 1043   5.840   4.574   4.802
  346TIP3    H1 1044   5.794   4.658   4.806
  346TIP3    H2 1045   5.842   4.543   4.892
  347TIP3   OH2 1046   5.872   2.409   0.080
  347TIP3    H1 1047   5.876   2.332   0.023
  347TIP3    H2 1048   5.926   2.385   0.155
  348TIP3   OH2 1049   5.318   3.073   1.215
  348TIP3    H1 1050   5.257   3.004   1.240
  348TIP3    H2 1051   5.386   3.027   1.165
  349TIP3   OH2 1052   5.593   1.085   3.232
  349TIP3    H1 1053   5.594   1.167   3.183
  349TIP3    H2 1054   5.507   1.047   3.214
  350TIP3   OH2 1055   3.701   2.096   2.961
  350TIP3    H1 1056   3.673   2.108   2.870
  350TIP3    H2 1057   3.781   2.148   2.968
  351TIP3   OH2 1058   0.428   3.489   0.314
  351TIP3    H1 1059   0.354   3.430   0.329
  351TIP3    H2 1060   0.505   3.431   0.315
  352TIP3   OH2 1061   2.557   5.888   0.702
  352TIP3    H1 1062   2.528   5.910   0.790
  352TIP3    H2 1063   2.544   5.968   0.651
  353TIP3   OH2 1064   4.821   2.224   4.763
  353TIP3    H1 1065   4.903   2.199   4.720
  353TIP3    H2 1066   4.771   2.270   4.695
  354TIP3   OH2 1067   3.957   2.608   0.640
  354TIP3    H1 1068   4.039   2.576   0.677
  354TIP3    H2 1069   3.959   2.702   0.655
  355TIP3   OH2 1070   3.204   4.059   4.017
  355TIP3    H1 1071   3.144   4.005   3.966
  355TIP3    H2 1072   3.291   4.024   3.997
  356TIP3   OH2 1073   0.776   3.775   4.143
  356TIP3    H1 1074   0.766   3.696   4.196
  356TIP3    H2 1075   0.690   3.816   4.144
  357TIP3   OH2 1076   1.873   5.478   1.759
  357TIP3    H1 1077   1.885   5.572   1.767
  357TIP3    H2 1078   1.946   5.440   1.807
  358TIP3   OH2 1079   2.421   5.724   3.636
  358TIP3    H1 1080   2.361   5.657   3.668
  358TIP3    H2 1081   2.367   5.780   3.580
  359TIP3   OH2 1082   4.032   0.984   4.401
  359TIP3    H1 1083   4.063   0.929   4.329
  359TIP3    H2 1084   3.994   1.061   4.357
  360TIP3   OH2 1085   3.333   3.825   4.359
  360TIP3    H1 1086   3.408   3.864   4.313
  360TIP3    H2 1087   3.307   3.752   4.303
  361TIP3   OH2 1088   0.923   4.255   2.954
  361TIP3    H1 1089   0.941   4.194   3.026
  361TIP3    H2 1090   0.906   4.199   2.879
  362TIP3   OH2 1091   3.874   0.572   3.470
  362TIP3    H1 1092   3.831   0.527   3.544
  362TIP3    H2 1093   3.908   0.501   3.416
  363TIP3   OH2 1094   0.813   1.952   0.786
  363TIP3    H1 1095   0.895   1.965   0.833
  363TIP3    H2 1096   0.785   1.864   0.810
  364TIP3   OH2 1097   3.778   4.810   2.629
  364TIP3    H1 1098   3.764   4.733   2.683
  364TIP3    H2 1099   3.805   4.878   2.690
  365TIP3   OH2 1100   5.602   3.593   2.748
  365TIP3    H1 1101   5.525   3.580   2.693
  365TIP3    H2 1102   5.569   3.582   2.837
  366TIP3   OH2 1103   0.280   5.430   4.790
  366TIP3    H1 1104   0.366   5.413   4.752
  366TIP3    H2 1105   0.264   5.523   4.773
  367TIP3   OH2 1106   5.593   4.328   1.933
  367TIP3    H1 1107   5.626   4.345   2.021
  367TIP3    H2 1108   5.663   4.279   1.890
  368TIP3   OH2 1109   3.601   4.562   2.371
  368TIP3    H1 1110   3.600   4.537   2.464
  368TIP3    H2 1111   3.575   4.654   2.372
  369TIP3   OH2 1112   5.366   2.826   3.706
  369TIP3    H1 1113   5.318   2.761   3.758
  369TIP3    H2 1114   5.446   2.841   3.755
  370TIP3   OH2 1115   6.000   5.195   4.037
  370TIP3    H1 1116   6.094   5.214   4.043
  370TIP3    H2 1117   5.959   5.281   4.028
  371TIP3   OH2 1118   2.510   3.248   5.166
  371TIP3    H1 1119   2.424   3.220   5.134
  371TIP3    H2 1120   2.571   3.183   5.130
  372TIP3   OH2 1121   5.392   2.969   1.678
  372TIP3    H1 1122   5.302   2.947   1.701
  372TIP3    H2 1123   5.383   3.033   1.607
  373TIP3   OH2 1124   4.801   4.773   1.607
  373TIP3    H1 1125   4.816   4.743   1.518
  373TIP3    H2 1126   4.827   4.865   1.606
  374TIP3   OH2 1127   4.058   1.654   2.017
  374TIP3    H1 1128   3.977   1.705   2.004
  374TIP3    H2 1129   4.105   1.702   2.085
  375TIP3   OH2 1130   4.941   0.814   4.424
  375TIP3    H1 1131   4.939   0.900   4.466
  375TIP3    H2 1132   5.024   0.814   4.376
  376TIP3   OH2 1133   1.729   0.380   3.582
  376TIP3    H1 1134   1.700   0.311   3.522
  376TIP3    H2 1135   1.752   0.334   3.663
  377TIP3   OH2 1136   2.845   1.650   2.568
  377TIP3    H1 1137   2.927   1.625   2.610
  377TIP3    H2 1138   2.868   1.727   2.516
  378TIP3   OH2 1139   0.140   5.071   0.188
  378TIP3    H1 1140   0.132   4.977   0.173
  378TIP3    H2 1141   0.115   5.111   0.105
  379TIP3   OH2 1142   4.365   4.562   1.308
  379TIP3    H1 1143   4.288   4.506   1.305
  379TIP3    H2 1144   4.330   4.651   1.322
  380TIP3   OH2 1145   4.912   5.724   2.913
  380TIP3    H1 1146   4.913   5.762   2.825
  380TIP3    H2 1147   4.985   5.662   2.913
  381TIP3   OH2 1148   1.714   0.276   3.845
  381TIP3    H1 1149   1.746   0.347   3.901
  381TIP3    H2 1150   1.791   0.223   3.826
  382TIP3   OH2 1151   6.286   1.983   0.992
  382TIP3    H1 1152   6.237   2.043   0.936
  382TIP3    H2 1153   6.231   1.971   1.069
  383TIP3   OH2 1154   2.966   1.984   1.174
  383TIP3    H1 1155   3.042   2.030   1.139
  383TIP3    H2 1156   2.999   1.935   1.249
  384TIP3   OH2 1157   2.228   0.453   0.805
  384TIP3    H1 1158   2.150   0.506   0.791
  384TIP3    H2 1159   2.213   0.410   0.889
  385TIP3   OH2 1160   2.979   1.618   5.130
  385TIP3    H1 1161   3.026   1.553   5.180
  385TIP3    H2 1162   3.044   1.684   5.107
  386TIP3   OH2 1163   0.394   0.027   1.140
  386TIP3    H1 1164   0.333  -0.029   1.188
  386TIP3    H2 1165   0.380   0.004   1.048
  387TIP3   OH2 1166   5.075   2.547   4.375
  387TIP3    H1 1167   5.139   2.477   4.364
  387TIP3    H2 1168   5.019   2.541   4.298
  388TIP3   OH2 1169   5.334   1.054   4.130
  388TIP3    H1 1170   5.306   1.021   4.044
  388TIP3    H2 1171   5.361   0.975   4.178
  389TIP3   OH2 1172   5.353   2.779   1.266
  389TIP3    H1 1173   5.397   2.799   1.184
  389TIP3    H2 1174   5.420   2.795   1.333
  390TIP3   OH2 1175   4.992   3.207   4.583
  390TIP3    H1 1176   4.979   3.292   4.542
  390TIP3    H2 1177   5.025   3.227   4.671
  391TIP3   OH2 1178   6.133   2.150   2.833
  391TIP3    H1 1179   6.137   2.201   2.914
  391TIP3    H2 1180   6.218   2.107   2.827
  392TIP3   OH2 1181   1.908   2.774   2.932
  392TIP3    H1 1182   1.931   2.720   3.009
  392TIP3    H2 1183   1.834   2.827   2.961
  393TIP3   OH2 1184   5.953   3.125   3.728
  393TIP3    H1 1185   5.952   3.221   3.725
  393TIP3    H2 1186   5.941   3.098   3.637
  394TIP3   OH2 1187   3.071   2.681   0.838
  394TIP3    H1 1188   3.033   2.768   0.837
  394TIP3    H2 1189   3.140   2.684   0.771
  395TIP3   OH2 1190   2.106   4.113   2.145
  395TIP3    H1 1191   2.067   4.197   2.117
  395TIP3    H2 1192   2.198   4.134   2.161
  396TIP3   OH2 1193   2.026   4.404   0.773
  396TIP3    H1 1194   1.938   4.407   0.736
  396TIP3    H2 1195   2.041   4.311   0.790
  397TIP3   OH2 1196   1.397   3.697   1.493
  397TIP3    H1 1197   1.451   3.720   1.568
  397TIP3    H2 1198   1.458   3.699   1.419
  398TIP3   OH2 1199   3.774   5.861   1.255
  398TIP3    H1 1200   3.743   5.897   1.338
  398TIP3    H2 1201   3.843   5.800   1.279
  399TIP3   OH2 1202   4.529   1.375   0.617
  399TIP3    H1 1203   4.441   1.361   0.583
  399TIP3    H2 1204   4.582   1.394   0.539
  400TIP3   OH2 1205   1.754   1.931   4.013
  400TIP3    H1 1206   1.759   1.962   4.104
  400TIP3    H2 1207   1.815   1.857   4.010
  401TIP3   OH2 1208   5.256   5.398   1.394
  401TIP3    H1 1209   5.345   5.426   1.370
  401TIP3    H2 1210   5.248   5.422   1.486
  402TIP3   OH2 1211   1.356   5.662   3.355
  402TIP3    H1 1212   1.304   5.690   3.430
  402TIP3    H2 1213   1.428   5.724   3.351
  403TIP3   OH2 1214   2.614   0.378   4.892
  403TIP3    H1 1215   2.548   0.312   4.914
  403TIP3    H2 1216   2.567   0.441   4.837
  404TIP3   OH2 1217   1.268   4.771   4.535
  404TIP3    H1 1218   1.272   4.683   4.571
  404TIP3    H2 1219   1.322   4.824   4.594
  405TIP3   OH2 1220   1.870   5.715   5.130
  405TIP3    H1 1221   1.862   5.650   5.200
  405TIP3    H2 1222   1.782   5.723   5.093
  406TIP3   OH2 1223   1.426   2.775   3.405
  406TIP3    H1 1224   1.496   2.841   3.410
  406TIP3    H2 1225   1.410   2.765   3.311
  407TIP3   OH2 1226   2.416   3.328   2.113
  407TIP3    H1 1227   2.481   3.319   2.183
  407TIP3    H2 1228   2.417   3.244   2.068
  408TIP3   OH2 1229   0.713   1.989   2.185
  408TIP3    H1 1230   0.639   1.929   2.189
  408TIP3    H2 1231   0.693   2.055   2.252
  409TIP3   OH2 1232   3.019   0.712   3.131
  409TIP3    H1 1233   3.087   0.741   3.071
  409TIP3    H2 1234   3.066   0.664   3.199
  410TIP3   OH2 1235   4.797   3.296   1.432
  410TIP3    H1 1236   4.812   3.329   1.520
  410TIP3    H2 1237   4.848   3.215   1.428
  411TIP3   OH2 1238   2.135   1.809   5.170
  411TIP3    H1 1239   2.211   1.751   5.177
  411TIP3    H2 1240   2.060   1.750   5.172
  412TIP3   OH2 1241   1.390   4.877   4.772
  412TIP3    H1 1242   1.438   4.951   4.735
  412TIP3    H2 1243   1.307   4.914   4.800
  413TIP3   OH2 1244   4.312   5.702   0.940
  413TIP3    H1 1245   4.335   5.738   0.854
  413TIP3    H2 1246   4.316   5.777   0.999
  414TIP3   OH2 1247   5.227   5.359   2.628
  414TIP3    H1 1248   5.255   5.341   2.718
  414TIP3    H2 1249   5.153   5.299   2.614
  415TIP3   OH2 1250   0.404   0.785   1.440
  415TIP3    H1 1251   0.319   0.749   1.414
  415TIP3    H2 1252   0.442   0.719   1.498
  416TIP3   OH2 1253   0.823   4.780   1.521
  416TIP3    H1 1254   0.782   4.757   1.604
  416TIP3    H2 1255   0.908   4.736   1.523
  417TIP3   OH2 1256   5.882   0.282   0.889
  417TIP3    H1 1257   5.817   0.326   0.945
  417TIP3    H2 1258   5.879   0.331   0.807
  418TIP3   OH2 1259   4.146   5.628   4.752
  418TIP3    H1 1260   4.153   5.724   4.749
  418TIP3    H2 1261   4.093   5.606   4.675
  419TIP3   OH2 1262   6.213   4.244   2.368
  419TIP3    H1 1263   6.209   4.284   2.281
  419TIP3    H2 1264   6.295   4.195   2.369
  420TIP3   OH2 1265   0.208   2.165   4.538
  420TIP3    H1 1266   0.187   2.192   4.449
  420TIP3    H2 1267   0.242   2.076   4.528
  421TIP3   OH2 1268   0.332   0.072   0.228
  421TIP3    H1 1269   0.405   0.130   0.251
  421TIP3    H2 1270   0.286   0.119   0.158
  422TIP3   OH2 1271   6.256   3.488   4.257
  422TIP3    H1 1272   6.248   3.442   4.174
  422TIP3    H2 1273   6.175   3.467   4.304
  423TIP3   OH2 1274   0.282   4.310   0.163
  423TIP3    H1 1275   0.287   4.405   0.152
  423TIP3    H2 1276   0.333   4.276   0.089
  424TIP3   OH2 1277   6.229   2.265   3.221
  424TIP3    H1 1278   6.231   2.358   3.241
  424TIP3    H2 1279   6.139   2.238   3.239
  425TIP3   OH2 1280   5.081   2.111   2.323
  425TIP3    H1 1281   5.050   2.139   2.237
  425TIP3    H2 1282   5.052   2.180   2.382
  426TIP3   OH2 1283   0.044   1.638   4.122
  426TIP3    H1 1284   0.026   1.614   4.213
  426TIP3    H2 1285   0.139   1.640   4.116
  427TIP3   OH2 1286  -0.023   4.326   3.547
  427TIP3    H1 1287   0.063   4.359   3.570
  427TIP3    H2 1288  -0.023   4.323   3.451
  428TIP3   OH2 1289   6.125   5.603   1.761
  428TIP3    H1 1290   6.085   5.609   1.847
  428TIP3    H2 1291   6.091   5.522   1.723
  429TIP3   OH2 1292   4.569   1.980   1.656
  429TIP3    H1 1293   4.633   1.930   1.605
  429TIP3    H2 1294   4.501   1.917   1.679
  430TIP3   OH2 1295   4.090   0.868   3.274
  430TIP3    H1 1296   4.185   0.857   3.266
  430TIP3    H2 1297   4.053   0.807   3.210
  431TIP3   OH2 1298   1.637   0.818   0.503
  431TIP3    H1 1299   1.631   0.777   0.416
  431TIP3    H2 1300   1.725   0.854   0.506
  432TIP3   OH2 1301   2.521   4.143   0.974
  432TIP3    H1 1302   2.434   4.157   1.009
  432TIP3    H2 1303   2.562   4.082   1.035
  433TIP3   OH2 1304   6.194   3.149   2.616
  433TIP3    H1 1305   6.233   3.151   2.528
  433TIP3    H2 1306   6.238   3.075   2.659
  434TIP3   OH2 1307   3.565   3.683   0.890
  434TIP3    H1 1308   3.475   3.670   0.860
  434TIP3    H2 1309   3.583   3.606   0.944
  435TIP3   OH2 1310   4.630   1.358   1.982
  435TIP3    H1 1311   4.637   1.263   1.977
  435TIP3    H2 1312   4.556   1.373   2.041
  436TIP3   OH2 1313   2.851   5.181   2.253
  436TIP3    H1 1314   2.774   5.213   2.206
  436TIP3    H2 1315   2.922   5.238   2.223
  437TIP3   OH2 1316   2.467   4.365   2.175
  437TIP3    H1 1317   2.459   4.270   2.182
  437TIP3    H2 1318   2.415   4.400   2.247
  438TIP3   OH2 1319   5.806   5.741   4.910
  438TIP3    H1 1320   5.818   5.647   4.902
  438TIP3    H2 1321   5.730   5.760   4.855
  439TIP3   OH2 1322   4.889   0.974   2.552
  439TIP3    H1 1323   4.963   0.991   2.611
  439TIP3    H2 1324   4.858   0.887   2.576
  440TIP3   OH2 1325   3.513   4.592   0.719
  440TIP3    H1 1326   3.473   4.540   0.789
  440TIP3    H2 1327   3.519   4.681   0.756
  441TIP3   OH2 1328   0.664   2.331   1.226
  441TIP3    H1 1329   0.687   2.244   1.194
  441TIP3    H2 1330   0.738   2.386   1.201
  442TIP3   OH2 1331   2.189   0.132   0.800
  442TIP3    H1 1332   2.200   0.168   0.712
  442TIP3    H2 1333   2.180   0.038   0.787
  443TIP3   OH2 1334   4.312   5.225   1.241
  443TIP3    H1 1335   4.394   5.178   1.255
  443TIP3    H2 1336   4.252   5.185   1.305
  444TIP3   OH2 1337   3.919   2.141   0.954
  444TIP3    H1 1338   4.006   2.155   0.992
  444TIP3    H2 1339   3.931   2.071   0.891
  445TIP3   OH2 1340   0.348   4.155   4.943
  445TIP3    H1 1341   0.316   4.117   5.025
  445TIP3    H2 1342   0.437   4.184   4.963
  446TIP3   OH2 1343   6.290   2.567   1.715
  446TIP3    H1 1344   6.383   2.587   1.727
  446TIP3    H2 1345   6.250   2.585   1.800
  447TIP3   OH2 1346   3.554   4.002   3.298
  447TIP3    H1 1347   3.571   3.948   3.375
  447TIP3    H2 1348   3.514   3.942   3.235
  448TIP3   OH2 1349   1.762   0.886   1.476
  448TIP3    H1 1350   1.700   0.911   1.545
  448TIP3    H2 1351   1.716   0.817   1.428
  449TIP3   OH2 1352   2.091   5.053   3.018
  449TIP3    H1 1353   2.117   4.961   3.021
  449TIP3    H2 1354   2.042   5.066   3.100
  450TIP3   OH2 1355   2.844   1.114   3.747
  450TIP3    H1 1356   2.847   1.092   3.654
  450TIP3    H2 1357   2.842   1.029   3.792
  451TIP3   OH2 1358   4.995   0.204   0.622
  451TIP3    H1 1359   5.075   0.255   0.632
  451TIP3    H2 1360   5.007   0.128   0.679
  452TIP3   OH2 1361   3.763   2.589   3.087
  452TIP3    H1 1362   3.781   2.597   3.181
  452TIP3    H2 1363   3.689   2.528   3.082
  453TIP3   OH2 1364   5.835   1.234   5.009
  453TIP3    H1 1365   5.814   1.141   4.999
  453TIP3    H2 1366   5.873   1.259   4.925
  454TIP3   OH2 1367   2.202   2.475   2.549
  454TIP3    H1 1368   2.151   2.525   2.486
  454TIP3    H2 1369   2.152   2.480   2.630
  455TIP3   OH2 1370   3.935   3.337   2.770
  455TIP3    H1 1371   3.924   3.312   2.862
  455TIP3    H2 1372   4.016   3.293   2.743
  456TIP3   OH2 1373   2.097   0.250   1.276
  456TIP3    H1 1374   2.142   0.302   1.342
  456TIP3    H2 1375   2.097   0.161   1.311
  457TIP3   OH2 1376   4.476   2.229   2.962
  457TIP3    H1 1377   4.486   2.304   2.904
  457TIP3    H2 1378   4.500   2.261   3.049
  458TIP3   OH2 1379   3.907   1.489   5.037
  458TIP3    H1 1380   3.930   1.581   5.021
  458TIP3    H2 1381   3.867   1.490   5.124
  459TIP3   OH2 1382   2.757   4.150   0.490
  459TIP3    H1 1383   2.744   4.139   0.584
  459TIP3    H2 1384   2.671   4.130   0.452
  460TIP3   OH2 1385   3.554   4.829   4.053
  460TIP3    H1 1386   3.591   4.753   4.097
  460TIP3    H2 1387   3.591   4.827   3.965
  461TIP3   OH2 1388   0.765   4.767   2.766
  461TIP3    H1 1389   0.739   4.706   2.836
  461TIP3    H2 1390   0.722   4.733   2.688
  462TIP3   OH2 1391   3.250   0.697   4.521
  462TIP3    H1 1392   3.239   0.747   4.440
  462TIP3    H2 1393   3.226   0.758   4.590
  463TIP3   OH2 1394   4.135   4.099   4.064
  463TIP3    H1 1395   4.102   4.134   3.982
  463TIP3    H2 1396   4.088   4.016   4.076
  464TIP3   OH2 1397   3.872   1.405   1.618
  464TIP3    H1 1398   3.813   1.442   1.684
  464TIP3    H2 1399   3.956   1.398   1.663
  465TIP3   OH2 1400   4.398   4.592   2.912
  465TIP3    H1 1401   4.483   4.613   2.873
  465TIP3    H2 1402   4.408   4.503   2.944
  466TIP3   OH2 1403   5.544   3.396   3.193
  466TIP3    H1 1404   5.545   3.305   3.222
  466TIP3    H2 1405   5.486   3.441   3.255
  467TIP3   OH2 1406   3.308   3.184   4.572
  467TIP3    H1 1407   3.261   3.118   4.521
  467TIP3    H2 1408   3.371   3.135   4.624
  468TIP3   OH2 1409   0.285   4.876   0.900
  468TIP3    H1 1410   0.325   4.796   0.866
  468TIP3    H2 1411   0.342   4.901   0.973
  469TIP3   OH2 1412   6.128   1.833   3.596
  469TIP3    H1 1413   6.209   1.783   3.593
  469TIP3    H2 1414   6.082   1.799   3.672
  470TIP3   OH2 1415   4.039   3.279   1.501
  470TIP3    H1 1416   4.106   3.286   1.433
  470TIP3    H2 1417   4.059   3.198   1.547
  471TIP3   OH2 1418   2.285   4.273   3.836
  471TIP3    H1 1419   2.243   4.247   3.918
  471TIP3    H2 1420   2.378   4.281   3.858
  472TIP3   OH2 1421   5.298   4.666   2.660
  472TIP3    H1 1422   5.336   4.722   2.728
  472TIP3    H2 1423   5.222   4.715   2.629
  473TIP3   OH2 1424   2.652   2.044   4.760
  473TIP3    H1 1425   2.661   2.138   4.743
  473TIP3    H2 1426   2.715   2.026   4.830
  474TIP3   OH2 1427   5.559   4.707   3.849
  474TIP3    H1 1428   5.557   4.615   3.873
  474TIP3    H2 1429   5.635   4.715   3.791
  475TIP3   OH2 1430   1.009   5.740   2.622
  475TIP3    H1 1431   1.084   5.781   2.580
  475TIP3    H2 1432   1.031   5.740   2.715
  476TIP3   OH2 1433   3.562   2.125   1.877
  476TIP3    H1 1434   3.585   2.159   1.963
  476TIP3    H2 1435   3.578   2.199   1.818
  477TIP3   OH2 1436   0.933   3.425   1.499
  477TIP3    H1 1437   0.946   3.505   1.550
  477TIP3    H2 1438   0.846   3.393   1.526
  478TIP3   OH2 1439   2.920   4.169   2.932
  478TIP3    H1 1440   3.016   4.162   2.933
  478TIP3    H2 1441   2.897   4.190   3.023
  479TIP3   OH2 1442   0.643   4.695   3.533
  479TIP3    H1 1443   0.571   4.708   3.472
  479TIP3    H2 1444   0.677   4.608   3.513
  480TIP3   OH2 1445   0.875   5.594   1.096
  480TIP3    H1 1446   0.888   5.564   1.006
  480TIP3    H2 1447   0.794   5.646   1.092
  481TIP3   OH2 1448   2.146   2.619   4.676
  481TIP3    H1 1449   2.182   2.593   4.761
  481TIP3    H2 1450   2.223   2.638   4.623
  482TIP3   OH2 1451   3.956   3.734   2.191
  482TIP3    H1 1452   3.956   3.667   2.260
  482TIP3    H2 1453   3.866   3.766   2.188
  483TIP3   OH2 1454   3.130   4.354   3.525
  483TIP3    H1 1455   3.130   4.395   3.611
  483TIP3    H2 1456   3.131   4.260   3.543
  484TIP3   OH2 1457   6.026   1.055   2.918
  484TIP3    H1 1458   5.951   1.031   2.972
  484TIP3    H2 1459   5.999   1.136   2.874
  485TIP3   OH2 1460   2.793   4.251   3.432
  485TIP3    H1 1461   2.834   4.324   3.386
  485TIP3    H2 1462   2.828   4.256   3.521
  486TIP3   OH2 1463   1.225   4.999   1.361
  486TIP3    H1 1464   1.225   5.080   1.410
  486TIP3    H2 1465   1.134   4.972   1.357
  487TIP3   OH2 1466   3.290   4.437   1.147
  487TIP3    H1 1467   3.260   4.390   1.069
  487TIP3    H2 1468   3.386   4.439   1.138
  488TIP3   OH2 1469   2.250   5.515   3.691
  488TIP3    H1 1470   2.314   5.455   3.729
  488TIP3    H2 1471   2.205   5.463   3.625
  489TIP3   OH2 1472   4.938   2.345   4.119
  489TIP3    H1 1473   4.893   2.322   4.038
  489TIP3    H2 1474   4.928   2.440   4.126
  490TIP3   OH2 1475   3.619   1.146   3.093
  490TIP3    H1 1476   3.671   1.066   3.088
  490TIP3    H2 1477   3.530   1.119   3.070
  491TIP3   OH2 1478   0.494   2.332   5.115
  491TIP3    H1 1479   0.485   2.350   5.208
  491TIP3    H2 1480   0.516   2.416   5.076
  492TIP3   OH2 1481   5.657   1.001   3.876
  492TIP3    H1 1482   5.567   0.969   3.872
  492TIP3    H2 1483   5.664   1.060   3.800
  493TIP3   OH2 1484   3.712   3.434   3.295
  493TIP3    H1 1485   3.651   3.408   3.363
  493TIP3    H2 1486   3.678   3.394   3.215
  494TIP3   OH2 1487   3.024   2.703   4.163
  494TIP3    H1 1488   3.039   2.728   4.254
  494TIP3    H2 1489   3.112   2.691   4.127
  495TIP3   OH2 1490   5.325   4.210   3.067
  495TIP3    H1 1491   5.278   4.207   3.150
  495TIP3    H2 1492   5.309   4.298   3.033
  496TIP3   OH2 1493   2.315   2.175   1.250
  496TIP3    H1 1494   2.292   2.210   1.164
  496TIP3    H2 1495   2.390   2.227   1.278
  497TIP3   OH2 1496   5.589   0.087   4.360
  497TIP3    H1 1497   5.545   0.003   4.351
  497TIP3    H2 1498   5.521   0.152   4.348
  498TIP3   OH2 1499   3.599   4.005   2.802
  498TIP3    H1 1500   3.684   3.963   2.808
  498TIP3    H2 1501   3.609   4.073   2.736
  499TIP3   OH2 1502   1.298   4.191   4.455
  499TIP3    H1 1503   1.203   4.198   4.459
  499TIP3    H2 1504   1.331   4.277   4.481
  500TIP3   OH2 1505   5.996   4.026   3.795
  500TIP3    H1 1506   5.970   4.057   3.709
  500TIP3    H2 1507   6.010   4.105   3.846
  501TIP3   OH2 1508   0.703   3.783   3.097
  501TIP3    H1 1509   0.748   3.712   3.144
  501TIP3    H2 1510   0.704   3.856   3.158
  502TIP3   OH2 1511   2.550   0.262   2.172
  502TIP3    H1 1512   2.465   0.266   2.127
  502TIP3    H2 1513   2.546   0.180   2.222
  503TIP3   OH2 1514   1.853   1.040   4.437
  503TIP3    H1 1515   1.910   1.116   4.441
  503TIP3    H2 1516   1.825   1.034   4.346
  504TIP3   OH2 1517   3.372   0.549   0.131
  504TIP3    H1 1518   3.419   0.613   0.184
  504TIP3    H2 1519   3.438   0.485   0.106
  505TIP3   OH2 1520   5.946   1.121   4.608
  505TIP3    H1 1521   5.996   1.175   4.669
  505TIP3    H2 1522   5.885   1.072   4.664
  506TIP3   OH2 1523   1.741   2.692   0.273
  506TIP3    H1 1524   1.767   2.778   0.307
  506TIP3    H2 1525   1.813   2.666   0.216
  507TIP3   OH2 1526   1.503   1.683   0.564
  507TIP3    H1 1527   1.444   1.611   0.587
  507TIP3    H2 1528   1.465   1.759   0.608
  508TIP3   OH2 1529   1.266   5.921   1.231
  508TIP3    H1 1530   1.201   5.891   1.294
  508TIP3    H2 1531   1.333   5.853   1.229
  509TIP3   OH2 1532   1.778   4.729   2.442
  509TIP3    H1 1533   1.850   4.761   2.496
  509TIP3    H2 1534   1.820   4.687   2.367
  510TIP3   OH2 1535   5.049   1.937   2.541
  510TIP3    H1 1536   5.075   1.983   2.462
  510TIP3    H2 1537   4.957   1.916   2.527
  511TIP3   OH2 1538   0.041   1.313   2.965
  511TIP3    H1 1539  -0.028   1.320   2.900
  511TIP3    H2 1540   0.022   1.383   3.028
  512TIP3   OH2 1541   0.428   2.004   2.199
  512TIP3    H1 1542   0.412   1.937   2.266
  512TIP3    H2 1543   0.463   2.079   2.247
  513TIP3   OH2 1544   2.221   4.160   0.141
  513TIP3    H1 1545   2.259   4.095   0.200
  513TIP3    H2 1546   2.292   4.183   0.082
  514TIP3   OH2 1547   1.709   1.332   1.951
  514TIP3    H1 1548   1.798   1.365   1.938
  514TIP3    H2 1549   1.703   1.314   2.045
  515TIP3   OH2 1550   1.001   1.218   2.721
  515TIP3    H1 1551   0.928   1.188   2.775
  515TIP3    H2 1552   1.001   1.313   2.731
  516TIP3   OH2 1553   4.857   4.262   0.237
  516TIP3    H1 1554   4.934   4.217   0.202
  516TIP3    H2 1555   4.815   4.197   0.293
  517TIP3   OH2 1556   4.171   2.493   1.076
  517TIP3    H1 1557   4.205   2.410   1.044
  517TIP3    H2 1558   4.247   2.551   1.076
  518TIP3   OH2 1559   2.163   2.790   1.102
  518TIP3    H1 1560   2.251   2.769   1.135
  518TIP3    H2 1561   2.164   2.885   1.092
  519TIP3   OH2 1562   5.003   3.291   1.041
  519TIP3    H1 1563   4.944   3.346   1.093
  519TIP3    H2 1564   4.954   3.271   0.961
  520TIP3   OH2 1565   4.432   3.564   0.604
  520TIP3    H1 1566   4.386   3.512   0.539
  520TIP3    H2 1567   4.382   3.552   0.685
  521TIP3   OH2 1568   3.607   0.918   4.689
  521TIP3    H1 1569   3.693   0.900   4.651
  521TIP3    H2 1570   3.575   0.994   4.641
  522TIP3   OH2 1571   3.935   1.692   2.289
  522TIP3    H1 1572   3.941   1.738   2.372
  522TIP3    H2 1573   4.004   1.626   2.293
  523TIP3   OH2 1574   2.937   0.064   0.559
  523TIP3    H1 1575   2.944   0.092   0.468
  523TIP3    H2 1576   2.929   0.145   0.608
  524TIP3   OH2 1577   3.490   1.528   5.154
  524TIP3    H1 1578   3.455   1.565   5.073
  524TIP3    H2 1579   3.413   1.490   5.197
  525TIP3   OH2 1580   4.994   5.399   1.250
  525TIP3    H1 1581   4.933   5.333   1.283
  525TIP3    H2 1582   5.078   5.376   1.290
  526TIP3   OH2 1583   1.913   0.723   2.554
  526TIP3    H1 1584   1.876   0.710   2.641
  526TIP3    H2 1585   1.838   0.736   2.497
  527TIP3   OH2 1586   3.302   4.007   2.173
  527TIP3    H1 1587   3.322   4.094   2.140
  527TIP3    H2 1588   3.288   4.018   2.267
  528TIP3   OH2 1589   5.280   5.029   3.554
  528TIP3    H1 1590   5.272   5.121   3.581
  528TIP3    H2 1591   5.193   5.007   3.520
  529TIP3   OH2 1592   4.625   2.724   5.003
  529TIP3    H1 1593   4.590   2.672   4.931
  529TIP3    H2 1594   4.548   2.751   5.053
  530TIP3   OH2 1595   3.866   0.129   4.585
  530TIP3    H1 1596   3.818   0.205   4.553
  530TIP3    H2 1597   3.804   0.057   4.582
  531TIP3   OH2 1598   2.809   5.730   2.079
  531TIP3    H1 1599   2.793   5.775   1.996
  531TIP3    H2 1600   2.793   5.638   2.060
  532TIP3   OH2 1601   3.460   1.815   0.413
  532TIP3    H1 1602   3.391   1.873   0.381
  532TIP3    H2 1603   3.536   1.872   0.422
  533TIP3   OH2 1604   1.418   3.294   3.504
  533TIP3    H1 1605   1.448   3.243   3.429
  533TIP3    H2 1606   1.412   3.230   3.576
  534TIP3   OH2 1607   4.940   1.648   3.193
  534TIP3    H1 1608   4.883   1.694   3.254
  534TIP3    H2 1609   4.935   1.699   3.112
  535TIP3   OH2 1610   3.376   0.213   3.624
  535TIP3    H1 1611   3.363   0.133   3.573
  535TIP3    H2 1612   3.349   0.189   3.713
  536TIP3   OH2 1613   5.684   0.328   4.074
  536TIP3    H1 1614   5.593   0.313   4.102
  536TIP3    H2 1615   5.714   0.243   4.042
  537TIP3   OH2 1616   4.841   0.231   4.982
  537TIP3    H1 1617   4.829   0.234   5.077
  537TIP3    H2 1618   4.845   0.323   4.955
  538TIP3   OH2 1619   1.935   2.359   2.995
  538TIP3    H1 1620   1.961   2.394   3.080
  538TIP3    H2 1621   1.840   2.369   2.992
  539TIP3   OH2 1622   4.006   0.383   2.784
  539TIP3    H1 1623   3.935   0.335   2.742
  539TIP3    H2 1624   3.965   0.464   2.815
  540TIP3   OH2 1625   4.604   4.117   2.327
  540TIP3    H1 1626   4.647   4.032   2.323
  540TIP3    H2 1627   4.528   4.109   2.269
  541TIP3   OH2 1628   5.772   5.924   3.741
  541TIP3    H1 1629   5.736   5.838   3.765
  541TIP3    H2 1630   5.700   5.985   3.758
  542TIP3   OH2 1631   1.308   5.107   1.013
  542TIP3    H1 1632   1.348   5.132   1.097
  542TIP3    H2 1633   1.218   5.139   1.018
  543TIP3   OH2 1634   5.096   2.820   2.772
  543TIP3    H1 1635   5.037   2.857   2.706
  543TIP3    H2 1636   5.089   2.879   2.846
  544TIP3   OH2 1637   2.422   2.940   1.224
  544TIP3    H1 1638   2.394   2.939   1.315
  544TIP3    H2 1639   2.350   2.982   1.177
  545TIP3   OH2 1640   6.261   3.004   2.252
  545TIP3    H1 1641   6.282   3.084   2.300
  545TIP3    H2 1642   6.346   2.960   2.240
  546TIP3   OH2 1643   5.926   3.412   4.402
  546TIP3    H1 1644   5.991   3.399   4.471
  546TIP3    H2 1645   5.864   3.474   4.440
  547TIP3   OH2 1646   1.150   4.690   0.380
  547TIP3    H1 1647   1.182   4.672   0.468
  547TIP3    H2 1648   1.209   4.641   0.322
  548TIP3   OH2 1649   5.503   1.910   3.772
  548TIP3    H1 1650   5.544   1.907   3.686
  548TIP3    H2 1651   5.409   1.900   3.755
  549TIP3   OH2 1652   0.787   1.428   1.859
  549TIP3    H1 1653   0.845   1.474   1.920
  549TIP3    H2 1654   0.774   1.342   1.898
  550TIP3   OH2 1655   4.859   3.046   1.527
  550TIP3    H1 1656   4.952   3.029   1.511
  550TIP3    H2 1657   4.819   2.959   1.524
  551TIP3   OH2 1658   0.646   5.839   4.219
  551TIP3    H1 1659   0.711   5.896   4.260
  551TIP3    H2 1660   0.627   5.880   4.135
  552TIP3   OH2 1661   2.966   2.612   0.162
  552TIP3    H1 1662   2.988   2.577   0.248
  552TIP3    H2 1663   2.914   2.543   0.120
  553TIP3   OH2 1664   2.877   4.434   1.925
  553TIP3    H1 1665   2.782   4.436   1.941
  553TIP3    H2 1666   2.887   4.474   1.838
  554TIP3   OH2 1667   2.525   4.955   2.343
  554TIP3    H1 1668   2.614   4.974   2.312
  554TIP3    H2 1669   2.468   4.982   2.272
  555TIP3   OH2 1670   2.497   4.672   2.359
  555TIP3    H1 1671   2.449   4.660   2.441
  555TIP3    H2 1672   2.541   4.756   2.369
  556TIP3   OH2 1673   5.790   4.984   0.958
  556TIP3    H1 1674   5.729   5.058   0.958
  556TIP3    H2 1675   5.742   4.914   0.913
  557TIP3   OH2 1676   5.476   1.660   2.103
  557TIP3    H1 1677   5.440   1.649   2.015
  557TIP3    H2 1678   5.552   1.718   2.091
  558TIP3   OH2 1679   6.216   3.993   2.891
  558TIP3    H1 1680   6.254   4.078   2.908
  558TIP3    H2 1681   6.291   3.935   2.875
  559TIP3   OH2 1682   5.276   4.700   2.085
  559TIP3    H1 1683   5.293   4.794   2.097
  559TIP3    H2 1684   5.328   4.658   2.153
  560TIP3   OH2 1685   4.408   1.712   1.171
  560TIP3    H1 1686   4.314   1.731   1.164
  560TIP3    H2 1687   4.442   1.779   1.229
  561TIP3   OH2 1688   1.132   1.870   4.031
  561TIP3    H1 1689   1.135   1.892   3.937
  561TIP3    H2 1690   1.068   1.799   4.037
  562TIP3   OH2 1691   5.535   1.644   3.651
  562TIP3    H1 1692   5.511   1.691   3.732
  562TIP3    H2 1693   5.623   1.610   3.668
  563TIP3   OH2 1694   1.696   3.521   2.778
  563TIP3    H1 1695   1.782   3.518   2.819
  563TIP3    H2 1696   1.647   3.587   2.829
  564TIP3   OH2 1697   2.491   4.655   2.050
  564TIP3    H1 1698   2.567   4.711   2.035
  564TIP3    H2 1699   2.461   4.678   2.138
  565TIP3   OH2 1700   3.920   4.957   1.302
  565TIP3    H1 1701   3.892   4.895   1.234
  565TIP3    H2 1702   3.935   5.039   1.256
  566TIP3   OH2 1703   5.994   3.441   1.410
  566TIP3    H1 1704   5.914   3.435   1.358
  566TIP3    H2 1705   6.004   3.354   1.448
  567TIP3   OH2 1706   3.049   1.262   1.360
  567TIP3    H1 1707   2.964   1.250   1.318
  567TIP3    H2 1708   3.036   1.232   1.450
  568TIP3   OH2 1709   1.575   1.483   4.123
  568TIP3    H1 1710   1.512   1.419   4.090
  568TIP3    H2 1711   1.523   1.560   4.144
  569TIP3   OH2 1712   5.121   3.719   2.102
  569TIP3    H1 1713   5.152   3.629   2.096
  569TIP3    H2 1714   5.200   3.772   2.088
  570TIP3   OH2 1715   4.194   0.137   1.482
  570TIP3    H1 1716   4.274   0.177   1.446
  570TIP3    H2 1717   4.178   0.185   1.563
  571TIP3   OH2 1718   1.097   0.116   0.109
  571TIP3    H1 1719   1.076   0.197   0.155
  571TIP3    H2 1720   1.046   0.120   0.028
  572TIP3   OH2 1721   4.282   5.725   3.427
  572TIP3    H1 1722   4.277   5.629   3.430
  572TIP3    H2 1723   4.370   5.745   3.459
  573TIP3   OH2 1724   1.272   2.917   2.933
  573TIP3    H1 1725   1.260   3.004   2.970
  573TIP3    H2 1726   1.192   2.900   2.883
  574TIP3   OH2 1727   0.783   5.276   0.569
  574TIP3    H1 1728   0.793   5.195   0.519
  574TIP3    H2 1729   0.691   5.278   0.594
  575TIP3   OH2 1730   2.025   5.294   3.971
  575TIP3    H1 1731   2.013   5.389   3.962
  575TIP3    H2 1732   1.943   5.257   3.938
  576TIP3   OH2 1733   6.140   3.624   4.890
  576TIP3    H1 1734   6.193   3.630   4.969
  576TIP3    H2 1735   6.060   3.579   4.917
  577TIP3   OH2 1736   0.482   5.884   2.570
  577TIP3    H1 1737   0.575   5.899   2.584
  577TIP3    H2 1738   0.476   5.849   2.481
  578TIP3   OH2 1739   5.498   2.007   2.318
  578TIP3    H1 1740   5.565   1.945   2.346
  578TIP3    H2 1741   5.512   2.016   2.223
  579TIP3   OH2 1742   4.229   5.025   2.197
  579TIP3    H1 1743   4.146   4.986   2.171
  579TIP3    H2 1744   4.236   5.104   2.144
  580TIP3   OH2 1745   3.663   5.297   3.761
  580TIP3    H1 1746   3.579   5.291   3.806
  580TIP3    H2 1747   3.650   5.363   3.693
  581TIP3   OH2 1748   1.296   3.220   1.785
  581TIP3    H1 1749   1.254   3.203   1.701
  581TIP3    H2 1750   1.374   3.164   1.785
  582TIP3   OH2 1751   2.042   4.451   0.455
  582TIP3    H1 1752   2.092   4.425   0.378
  582TIP3    H2 1753   2.097   4.514   0.500
  583TIP3   OH2 1754   6.341   3.428   4.837
  583TIP3    H1 1755   6.361   3.517   4.808
  583TIP3    H2 1756   6.307   3.439   4.926
  584TIP3   OH2 1757   1.636   1.864   0.851
  584TIP3    H1 1758   1.567   1.908   0.803
  584TIP3    H2 1759   1.672   1.932   0.909
  585TIP3   OH2 1760   3.016   1.553   3.171
  585TIP3    H1 1761   3.072   1.504   3.110
  585TIP3    H2 1762   3.045   1.644   3.161
  586TIP3   OH2 1763   5.947   4.490   4.130
  586TIP3    H1 1764   5.906   4.534   4.205
  586TIP3    H2 1765   5.895   4.411   4.117
  587TIP3   OH2 1766   0.745   3.733   3.850
  587TIP3    H1 1767   0.762   3.750   3.942
  587TIP3    H2 1768   0.805   3.791   3.803
  588TIP3   OH2 1769   1.928   5.069   1.394
  588TIP3    H1 1770   1.853   5.093   1.340
  588TIP3    H2 1771   1.927   5.131   1.467
  589TIP3   OH2 1772   6.328   5.502   2.636
  589TIP3    H1 1773   6.350   5.437   2.702
  589TIP3    H2 1774   6.259   5.555   2.676
  590TIP3   OH2 1775   3.979   5.017   5.052
  590TIP3    H1 1776   3.960   4.927   5.027
  590TIP3    H2 1777   3.928   5.070   4.991
  591TIP3   OH2 1778   4.311   3.524   0.176
  591TIP3    H1 1779   4.392   3.473   0.175
  591TIP3    H2 1780   4.312   3.573   0.094
  592TIP3   OH2 1781   5.065   4.925   4.170
  592TIP3    H1 1782   5.005   4.851   4.169
  592TIP3    H2 1783   5.106   4.924   4.083
  593TIP3   OH2 1784   3.020   3.450   0.850
  593TIP3    H1 1785   3.016   3.494   0.935
  593TIP3    H2 1786   2.940   3.478   0.805
  594TIP3   OH2 1787   3.552   1.143   2.700
  594TIP3    H1 1788   3.518   1.225   2.665
  594TIP3    H2 1789   3.634   1.167   2.743
  595TIP3   OH2 1790   5.777   3.826   3.045
  595TIP3    H1 1791   5.701   3.785   3.086
  595TIP3    H2 1792   5.845   3.758   3.047
  596TIP3   OH2 1793   0.131   5.937   1.085
  596TIP3    H1 1794   0.037   5.923   1.070
  596TIP3    H2 1795   0.149   5.889   1.165
  597TIP3   OH2 1796   0.787   0.630   1.105
  597TIP3    H1 1797   0.789   0.589   1.019
  597TIP3    H2 1798   0.744   0.714   1.091
  598TIP3   OH2 1799   3.327   3.690   3.484
  598TIP3    H1 1800   3.272   3.616   3.460
  598TIP3    H2 1801   3.283   3.728   3.560
  599TIP3   OH2 1802   5.721   4.803   4.831
  599TIP3    H1 1803   5.804   4.843   4.859
  599TIP3    H2 1804   5.675   4.874   4.787
  600TIP3   OH2 1805   4.595   4.482   1.429
  600TIP3    H1 1806   4.512   4.525   1.410
  600TIP3    H2 1807   4.647   4.548   1.473
  601TIP3   OH2 1808   0.480   2.230   1.733
  601TIP3    H1 1809   0.398   2.248   1.688
  601TIP3    H2 1810   0.456   2.169   1.803
  602TIP3   OH2 1811   2.046   4.869   4.575
  602TIP3    H1 1812   2.121   4.916   4.612
  602TIP3    H2 1813   1.982   4.937   4.556
  603TIP3   OH2 1814   5.885   0.650   0.984
  603TIP3    H1 1815   5.869   0.591   0.911
  603TIP3    H2 1816   5.973   0.685   0.969
  604TIP3   OH2 1817   0.661   5.956   0.971
  604TIP3    H1 1818   0.566   5.962   0.968
  604TIP3    H2 1819   0.692   6.039   0.935
  605TIP3   OH2 1820   2.604   4.689   0.366
  605TIP3    H1 1821   2.645   4.768   0.331
  605TIP3    H2 1822   2.643   4.617   0.317
  606TIP3   OH2 1823   4.698   0.063   4.047
  606TIP3    H1 1824   4.657   0.150   4.049
  606TIP3    H2 1825   4.705   0.038   4.139
  607TIP3   OH2 1826   4.343   0.519   1.308
  607TIP3    H1 1827   4.343   0.579   1.234
  607TIP3    H2 1828   4.269   0.547   1.362
  608TIP3   OH2 1829   2.239   5.242   3.290
  608TIP3    H1 1830   2.178   5.297   3.240
  608TIP3    H2 1831   2.185   5.203   3.359
  609TIP3   OH2 1832   5.873   3.752   4.827
  609TIP3    H1 1833   5.828   3.829   4.793
  609TIP3    H2 1834   5.921   3.783   4.903
  610TIP3   OH2 1835   0.289   1.061   3.801
  610TIP3    H1 1836   0.267   1.018   3.718
  610TIP3    H2 1837   0.343   0.997   3.847
  611TIP3   OH2 1838   4.295   0.625   2.916
  611TIP3    H1 1839   4.231   0.695   2.899
  611TIP3    H2 1840   4.298   0.575   2.834
  612TIP3   OH2 1841   2.766   2.179   1.176
  612TIP3    H1 1842   2.680   2.139   1.173
  612TIP3    H2 1843   2.828   2.106   1.166
  613TIP3   OH2 1844   5.689   0.722   2.897
  613TIP3    H1 1845   5.731   0.644   2.860
  613TIP3    H2 1846   5.739   0.740   2.977
  614TIP3   OH2 1847   5.696   5.489   4.667
  614TIP3    H1 1848   5.615   5.460   4.624
  614TIP3    H2 1849   5.675   5.576   4.701
  615TIP3   OH2 1850   4.244   2.958   3.856
  615TIP3    H1 1851   4.292   3.041   3.861
  615TIP3    H2 1852   4.311   2.894   3.831
  616TIP3   OH2 1853   1.094   0.717   1.175
  616TIP3    H1 1854   1.000   0.702   1.178
  616TIP3    H2 1855   1.114   0.767   1.254
  617TIP3   OH2 1856   2.961   1.656   3.831
  617TIP3    H1 1857   2.952   1.613   3.916
  617TIP3    H2 1858   2.939   1.588   3.767
  618TIP3   OH2 1859   2.910   0.384   2.621
  618TIP3    H1 1860   2.877   0.411   2.707
  618TIP3    H2 1861   3.005   0.383   2.632
  619TIP3   OH2 1862   5.386   0.010   2.744
  619TIP3    H1 1863   5.410   0.020   2.651
  619TIP3    H2 1864   5.382   0.100   2.777
  620TIP3   OH2 1865   5.755   1.489   2.579
  620TIP3    H1 1866   5.787   1.399   2.571
  620TIP3    H2 1867   5.703   1.503   2.500
  621TIP3   OH2 1868   2.454   3.788   1.599
  621TIP3    H1 1869   2.511   3.761   1.527
  621TIP3    H2 1870   2.475   3.726   1.669
  622TIP3   OH2 1871   0.444   4.652   3.087
  622TIP3    H1 1872   0.397   4.573   3.058
  622TIP3    H2 1873   0.392   4.685   3.160
  623TIP3   OH2 1874   5.212   4.800   1.814
  623TIP3    H1 1875   5.258   4.773   1.893
  623TIP3    H2 1876   5.188   4.718   1.771
  624TIP3   OH2 1877   0.789   0.541   0.835
  624TIP3    H1 1878   0.724   0.524   0.767
  624TIP3    H2 1879   0.862   0.583   0.788
  625TIP3   OH2 1880   3.959   3.428   3.427
  625TIP3    H1 1881   3.897   3.400   3.359
  625TIP3    H2 1882   4.039   3.449   3.379
  626TIP3   OH2 1883   1.706   3.640   3.850
  626TIP3    H1 1884   1.645   3.696   3.802
  626TIP3    H2 1885   1.672   3.551   3.837
  627TIP3   OH2 1886   5.147   1.685   2.635
  627TIP3    H1 1887   5.105   1.771   2.632
  627TIP3    H2 1888   5.240   1.703   2.624
  628TIP3   OH2 1889   4.938   5.192   2.083
  628TIP3    H1 1890   4.903   5.148   2.161
  628TIP3    H2 1891   5.014   5.242   2.116
  629TIP3   OH2 1892   5.713   5.664   2.306
  629TIP3    H1 1893   5.725   5.668   2.212
  629TIP3    H2 1894   5.801   5.678   2.342
  630TIP3   OH2 1895   3.098   0.300   1.337
  630TIP3    H1 1896   3.089   0.395   1.350
  630TIP3    H2 1897   3.008   0.268   1.335
  631TIP3   OH2 1898   6.170   3.527   3.202
  631TIP3    H1 1899   6.122   3.445   3.205
  631TIP3    H2 1900   6.252   3.505   3.158
  632TIP3   OH2 1901   6.030   2.827   5.153
  632TIP3    H1 1902   5.947   2.870   5.175
  632TIP3    H2 1903   6.004   2.742   5.117
  633TIP3   OH2 1904   4.078   1.501   0.637
  633TIP3    H1 1905   4.008   1.508   0.572
  633TIP3    H2 1906   4.035   1.514   0.721
  634TIP3   OH2 1907   3.526   3.207   0.016
  634TIP3    H1 1908   3.434   3.185   0.004
  634TIP3    H2 1909   3.525   3.295   0.053
  635TIP3   OH2 1910   3.363   1.885   0.069
  635TIP3    H1 1911   3.278   1.919   0.095
  635TIP3    H2 1912   3.426   1.942   0.115
  636TIP3   OH2 1913   5.446   0.860   4.591
  636TIP3    H1 1914   5.463   0.777   4.547
  636TIP3    H2 1915   5.532   0.897   4.609
  637TIP3   OH2 1916   5.987   3.494   2.289
  637TIP3    H1 1917   6.018   3.425   2.230
  637TIP3    H2 1918   6.040   3.483   2.367
  638TIP3   OH2 1919   3.105   2.444   2.545
  638TIP3    H1 1920   3.158   2.471   2.620
  638TIP3    H2 1921   3.074   2.356   2.568
  639TIP3   OH2 1922   0.095   3.467   0.864
  639TIP3    H1 1923   0.132   3.553   0.886
  639TIP3    H2 1924   0.104   3.416   0.944
  640TIP3   OH2 1925   3.403   5.088   4.701
  640TIP3    H1 1926   3.439   5.095   4.613
  640TIP3    H2 1927   3.334   5.155   4.704
  641TIP3   OH2 1928   0.584   0.225   3.014
  641TIP3    H1 1929   0.558   0.309   2.978
  641TIP3    H2 1930   0.618   0.176   2.939
  642TIP3   OH2 1931   3.333   3.403   5.015
  642TIP3    H1 1932   3.310   3.391   4.922
  642TIP3    H2 1933   3.427   3.421   5.014
  643TIP3   OH2 1934   3.243   1.297   0.110
  643TIP3    H1 1935   3.270   1.238   0.180
  643TIP3    H2 1936   3.278   1.257   0.030
  644TIP3   OH2 1937   4.760   3.562   4.048
  644TIP3    H1 1938   4.671   3.595   4.039
  644TIP3    H2 1939   4.751   3.483   4.101
  645TIP3   OH2 1940   5.966   5.308   1.052
  645TIP3    H1 1941   6.003   5.225   1.081
  645TIP3    H2 1942   5.873   5.290   1.038
  646TIP3   OH2 1943   5.576   0.329   3.374
  646TIP3    H1 1944   5.620   0.283   3.446
  646TIP3    H2 1945   5.590   0.422   3.393
  647TIP3   OH2 1946   3.636   3.979   0.895
  647TIP3    H1 1947   3.731   3.976   0.899
  647TIP3    H2 1948   3.610   3.890   0.870
  648TIP3   OH2 1949   5.305   3.991   4.734
  648TIP3    H1 1950   5.372   3.932   4.700
  648TIP3    H2 1951   5.321   3.992   4.829
  649TIP3   OH2 1952   0.666   5.767   1.842
  649TIP3    H1 1953   0.603   5.717   1.790
  649TIP3    H2 1954   0.739   5.784   1.782
  650TIP3   OH2 1955   4.529   4.248   0.582
  650TIP3    H1 1956   4.525   4.181   0.650
  650TIP3    H2 1957   4.458   4.308   0.603
  651TIP3   OH2 1958   0.692   3.888   2.725
  651TIP3    H1 1959   0.757   3.848   2.668
  651TIP3    H2 1960   0.618   3.828   2.723
  652TIP3   OH2 1961   5.833   2.945   3.936
  652TIP3    H1 1962   5.868   2.977   3.853
  652TIP3    H2 1963   5.894   2.875   3.962
  653TIP3   OH2 1964   3.734   0.113   0.992
  653TIP3    H1 1965   3.744   0.103   0.897
  653TIP3    H2 1966   3.698   0.201   1.003
  654TIP3   OH2 1967   4.693   1.216   3.516
  654TIP3    H1 1968   4.774   1.165   3.516
  654TIP3    H2 1969   4.674   1.231   3.608
  655TIP3   OH2 1970   4.019   4.909   3.129
  655TIP3    H1 1971   4.064   4.837   3.085
  655TIP3    H2 1972   4.087   4.953   3.180
  656TIP3   OH2 1973   0.625   4.240   4.951
  656TIP3    H1 1974   0.709   4.277   4.922
  656TIP3    H2 1975   0.609   4.281   5.036
  657TIP3   OH2 1976   3.523   5.810   2.945
  657TIP3    H1 1977   3.532   5.810   2.850
  657TIP3    H2 1978   3.481   5.894   2.965
  658TIP3   OH2 1979   3.260   4.970   1.146
  658TIP3    H1 1980   3.184   4.978   1.203
  658TIP3    H2 1981   3.303   4.889   1.174
  659TIP3   OH2 1982   5.745   3.881   1.044
  659TIP3    H1 1983   5.817   3.886   0.980
  659TIP3    H2 1984   5.666   3.898   0.992
  660TIP3   OH2 1985   3.337   2.314   1.912
  660TIP3    H1 1986   3.400   2.357   1.855
  660TIP3    H2 1987   3.341   2.221   1.887
  661TIP3   OH2 1988   3.132   5.778   2.052
  661TIP3    H1 1989   3.156   5.688   2.030
  661TIP3    H2 1990   3.036   5.778   2.056
  662TIP3   OH2 1991   1.270   0.717   0.719
  662TIP3    H1 1992   1.277   0.791   0.779
  662TIP3    H2 1993   1.329   0.651   0.755
  663TIP3   OH2 1994   0.705   3.840   2.148
  663TIP3    H1 1995   0.789   3.803   2.173
  663TIP3    H2 1996   0.644   3.766   2.148
  664TIP3   OH2 1997   4.031   3.538   1.140
  664TIP3    H1 1998   4.010   3.541   1.234
  664TIP3    H2 1999   4.124   3.560   1.136
  665TIP3   OH2 2000   6.068   3.808   3.538
  665TIP3    H1 2001   5.983   3.779   3.506
  665TIP3    H2 2002   6.092   3.744   3.605
  666TIP3   OH2 2003   0.025   1.995   3.908
  666TIP3    H1 2004  -0.012   2.052   3.841
  666TIP3    H2 2005  -0.004   1.907   3.884
  667TIP3   OH2 2006   1.251   0.098   2.986
  667TIP3    H1 2007   1.230   0.172   3.044
  667TIP3    H2 2008   1.324   0.129   2.933
  668TIP3   OH2 2009   0.592   1.522   3.974
  668TIP3    H1 2010   0.640   1.532   3.892
  668TIP3    H2 2011   0.634   1.582   4.034
  669TIP3   OH2 2012   5.197   0.438   0.665
  669TIP3    H1 2013   5.116   0.483   0.691
  669TIP3    H2 2014   5.232   0.403   0.747
  670TIP3   OH2 2015   3.573   4.430   0.479
  670TIP3    H1 2016   3.555   4.501   0.541
  670TIP3    H2 2017   3.521   4.357   0.511
  671TIP3   OH2 2018   2.568   0.023   4.525
  671TIP3    H1 2019   2.640  -0.025   4.567
  671TIP3    H2 2020   2.569   0.109   4.566
  672TIP3   OH2 2021   0.960   0.212   2.934
  672TIP3    H1 2022   0.973   0.167   3.017
  672TIP3    H2 2023   1.022   0.284   2.935
  673TIP3   OH2 2024   3.510   5.188   3.397
  673TIP3    H1 2025   3.528   5.250   3.326
  673TIP3    H2 2026   3.481   5.108   3.352
  674TIP3   OH2 2027   3.846   0.615   2.677
  674TIP3    H1 2028   3.783   0.669   2.630
  674TIP3    H2 2029   3.798   0.581   2.752
  675TIP3   OH2 2030   0.410   2.586   0.205
  675TIP3    H1 2031   0.464   2.511   0.226
  675TIP3    H2 2032   0.461   2.637   0.142
  676TIP3   OH2 2033   6.021   1.837   2.743
  676TIP3    H1 2034   6.038   1.759   2.795
  676TIP3    H2 2035   6.106   1.860   2.706
  677TIP3   OH2 2036   1.473   4.276   4.788
  677TIP3    H1 2037   1.539   4.345   4.783
  677TIP3    H2 2038   1.520   4.196   4.766
  678TIP3   OH2 2039   0.857   5.650   3.927
  678TIP3    H1 2040   0.895   5.675   3.843
  678TIP3    H2 2041   0.763   5.660   3.915
  679TIP3   OH2 2042   2.231   3.083   4.582
  679TIP3    H1 2043   2.231   3.036   4.499
  679TIP3    H2 2044   2.169   3.155   4.569
  680TIP3   OH2 2045   4.419   3.660   2.301
  680TIP3    H1 2046   4.497   3.625   2.259
  680TIP3    H2 2047   4.351   3.596   2.281
  681TIP3   OH2 2048   6.069   2.910   1.342
  681TIP3    H1 2049   6.074   2.891   1.436
  681TIP3    H2 2050   6.131   2.982   1.329
  682TIP3   OH2 2051   3.574   5.902   3.498
  682TIP3    H1 2052   3.492   5.923   3.454
  682TIP3    H2 2053   3.632   5.974   3.475
  683TIP3   OH2 2054   0.342   1.641   4.919
  683TIP3    H1 2055   0.405   1.675   4.982
  683TIP3    H2 2056   0.259   1.640   4.967
  684TIP3   OH2 2057   1.775   5.597   1.456
  684TIP3    H1 2058   1.731   5.540   1.520
  684TIP3    H2 2059   1.846   5.544   1.422
  685TIP3   OH2 2060   0.142   5.182   0.848
  685TIP3    H1 2061   0.076   5.115   0.829
  685TIP3    H2 2062   0.225   5.139   0.828
  686TIP3   OH2 2063   5.060   2.338   0.806
  686TIP3    H1 2064   5.037   2.313   0.717
  686TIP3    H2 2065   5.134   2.281   0.828
  687TIP3   OH2 2066   0.221   2.679   3.707
  687TIP3    H1 2067   0.259   2.702   3.791
  687TIP3    H2 2068   0.275   2.606   3.676
  688TIP3   OH2 2069   0.731   3.281   4.955
  688TIP3    H1 2070   0.646   3.301   4.994
  688TIP3    H2 2071   0.762   3.365   4.921
  689TIP3   OH2 2072   1.521   2.941   0.161
  689TIP3    H1 2073   1.572   2.995   0.102
  689TIP3    H2 2074   1.516   2.992   0.242
  690TIP3   OH2 2075   5.744   3.557   2.517
  690TIP3    H1 2076   5.693   3.596   2.588
  690TIP3    H2 2077   5.795   3.488   2.559
  691TIP3   OH2 2078   1.665   5.647   0.947
  691TIP3    H1 2079   1.721   5.687   0.881
  691TIP3    H2 2080   1.657   5.714   1.015
  692TIP3   OH2 2081   2.921   4.015   5.209
  692TIP3    H1 2082   2.976   4.089   5.183
  692TIP3    H2 2083   2.840   4.026   5.158
  693TIP3   OH2 2084   1.214   3.494   1.467
  693TIP3    H1 2085   1.268   3.573   1.459
  693TIP3    H2 2086   1.131   3.526   1.503
  694TIP3   OH2 2087   1.364   2.464   3.918
  694TIP3    H1 2088   1.313   2.431   3.993
  694TIP3    H2 2089   1.443   2.410   3.918
  695TIP3   OH2 2090   3.240   2.815   2.268
  695TIP3    H1 2091   3.264   2.873   2.195
  695TIP3    H2 2092   3.323   2.781   2.300
  696TIP3   OH2 2093   4.581   5.723   4.878
  696TIP3    H1 2094   4.612   5.771   4.801
  696TIP3    H2 2095   4.634   5.756   4.950
  697TIP3   OH2 2096   6.063   3.221   2.189
  697TIP3    H1 2097   6.123   3.201   2.260
  697TIP3    H2 2098   5.995   3.154   2.194
  698TIP3   OH2 2099   4.757   3.907   2.312
  698TIP3    H1 2100   4.787   3.860   2.234
  698TIP3    H2 2101   4.770   3.844   2.383
  699TIP3   OH2 2102   0.412   5.552   3.820
  699TIP3    H1 2103   0.332   5.569   3.771
  699TIP3    H2 2104   0.385   5.495   3.892
  700TIP3   OH2 2105   5.231   4.899   3.137
  700TIP3    H1 2106   5.157   4.959   3.138
  700TIP3    H2 2107   5.291   4.934   3.202
  701TIP3   OH2 2108   3.784   0.173   2.214
  701TIP3    H1 2109   3.724   0.115   2.262
  701TIP3    H2 2110   3.738   0.193   2.132
  702TIP3   OH2 2111   5.010   0.461   4.680
  702TIP3    H1 2112   5.041   0.424   4.598
  702TIP3    H2 2113   5.067   0.424   4.747
  703TIP3   OH2 2114   4.649   3.929   0.578
  703TIP3    H1 2115   4.744   3.930   0.588
  703TIP3    H2 2116   4.616   3.984   0.649
  704TIP3   OH2 2117   3.093   3.422   3.184
  704TIP3    H1 2118   3.036   3.480   3.235
  704TIP3    H2 2119   3.101   3.465   3.099
  705TIP3   OH2 2120   4.229   0.614   0.639
  705TIP3    H1 2121   4.319   0.586   0.619
  705TIP3    H2 2122   4.192   0.639   0.555
  706TIP3   OH2 2123   1.583   0.838   2.955
  706TIP3    H1 2124   1.652   0.810   3.015
  706TIP3    H2 2125   1.578   0.933   2.967
  707TIP3   OH2 2126   4.196   1.165   0.718
  707TIP3    H1 2127   4.113   1.210   0.703
  707TIP3    H2 2128   4.172   1.083   0.762
  708TIP3   OH2 2129   2.448   0.563   1.521
  708TIP3    H1 2130   2.534   0.543   1.559
  708TIP3    H2 2131   2.398   0.600   1.594
  709TIP3   OH2 2132   4.084   3.116   0.657
  709TIP3    H1 2133   4.072   3.205   0.625
  709TIP3    H2 2134   4.177   3.113   0.683
  710TIP3   OH2 2135   3.047   5.586   4.506
  710TIP3    H1 2136   3.038   5.595   4.601
  710TIP3    H2 2137   3.078   5.496   4.494
  711TIP3   OH2 2138   5.713   0.563   1.588
  711TIP3    H1 2139   5.741   0.653   1.604
  711TIP3    H2 2140   5.623   0.560   1.621
  712TIP3   OH2 2141   2.972   1.546   1.895
  712TIP3    H1 2142   3.064   1.521   1.890
  712TIP3    H2 2143   2.964   1.623   1.839
  713TIP3   OH2 2144   1.369   0.724   5.138
  713TIP3    H1 2145   1.434   0.790   5.114
  713TIP3    H2 2146   1.307   0.770   5.194
  714TIP3   OH2 2147   5.114   0.818   1.786
  714TIP3    H1 2148   5.037   0.871   1.805
  714TIP3    H2 2149   5.169   0.826   1.864
  715TIP3   OH2 2150   2.348   5.251   1.137
  715TIP3    H1 2151   2.338   5.219   1.048
  715TIP3    H2 2152   2.258   5.268   1.166
  716TIP3   OH2 2153   1.627   5.173   0.405
  716TIP3    H1 2154   1.590   5.257   0.434
  716TIP3    H2 2155   1.567   5.108   0.441
  717TIP3   OH2 2156   4.220   3.464   0.430
  717TIP3    H1 2157   4.227   3.369   0.426
  717TIP3    H2 2158   4.239   3.493   0.341
  718TIP3   OH2 2159   3.299   1.611   3.699
  718TIP3    H1 2160   3.205   1.603   3.685
  718TIP3    H2 2161   3.323   1.692   3.653
  719TIP3   OH2 2162   0.299   4.731   2.049
  719TIP3    H1 2163   0.374   4.762   2.099
  719TIP3    H2 2164   0.326   4.645   2.017
  720TIP3   OH2 2165   6.258   4.921   4.570
  720TIP3    H1 2166   6.255   4.854   4.638
  720TIP3    H2 2167   6.170   4.959   4.570
  721TIP3   OH2 2168   1.471   5.684   1.692
  721TIP3    H1 2169   1.393   5.685   1.636
  721TIP3    H2 2170   1.530   5.621   1.649
  722TIP3   OH2 2171   6.288   3.180   3.684
  722TIP3    H1 2172   6.340   3.105   3.712
  722TIP3    H2 2173   6.258   3.156   3.596
  723TIP3   OH2 2174   2.875   1.302   3.042
  723TIP3    H1 2175   2.912   1.214   3.032
  723TIP3    H2 2176   2.860   1.332   2.953
  724TIP3   OH2 2177   5.040   4.052   3.474
  724TIP3    H1 2178   5.120   4.000   3.468
  724TIP3    H2 2179   5.059   4.118   3.541
  725TIP3   OH2 2180   0.411   0.931   5.052
  725TIP3    H1 2181   0.434   0.844   5.020
  725TIP3    H2 2182   0.429   0.989   4.979
  726TIP3   OH2 2183   1.974   4.633   3.656
  726TIP3    H1 2184   2.021   4.605   3.577
  726TIP3    H2 2185   2.043   4.663   3.716
  727TIP3   OH2 2186   4.129   1.992   0.049
  727TIP3    H1 2187   4.218   2.026   0.043
  727TIP3    H2 2188   4.073   2.067   0.028
  728TIP3   OH2 2189   0.824   0.270   1.905
  728TIP3    H1 2190   0.893   0.267   1.838
  728TIP3    H2 2191   0.785   0.356   1.895
  729TIP3   OH2 2192   5.974   0.288   4.758
  729TIP3    H1 2193   5.920   0.290   4.680
  729TIP3    H2 2194   5.914   0.308   4.830
  730TIP3   OH2 2195   4.631   5.065   0.392
  730TIP3    H1 2196   4.701   5.130   0.383
  730TIP3    H2 2197   4.626   5.024   0.306
  731TIP3   OH2 2198   0.831   3.066   0.669
  731TIP3    H1 2199   0.756   3.074   0.728
  731TIP3    H2 2200   0.817   2.982   0.624
  732TIP3   OH2 2201   4.900   1.666   2.425
  732TIP3    H1 2202   4.962   1.634   2.490
  732TIP3    H2 2203   4.846   1.730   2.473
  733TIP3   OH2 2204   4.840   5.149   1.336
  733TIP3    H1 2205   4.772   5.110   1.391
  733TIP3    H2 2206   4.870   5.077   1.280
  734TIP3   OH2 2207   5.080   5.494   0.307
  734TIP3    H1 2208   5.016   5.546   0.356
  734TIP3    H2 2209   5.029   5.422   0.270
  735TIP3   OH2 2210   2.022   0.662   0.676
  735TIP3    H1 2211   1.927   0.658   0.687
  735TIP3    H2 2212   2.046   0.749   0.707
  736TIP3   OH2 2213   1.748   0.323   2.059
  736TIP3    H1 2214   1.825   0.343   2.005
  736TIP3    H2 2215   1.682   0.295   1.996
  737TIP3   OH2 2216   0.781   0.523   5.010
  737TIP3    H1 2217   0.822   0.508   4.925
  737TIP3    H2 2218   0.852   0.515   5.074
  738TIP3   OH2 2219   2.282   5.809   4.434
  738TIP3    H1 2220   2.352   5.793   4.371
  738TIP3    H2 2221   2.304   5.753   4.508
  739TIP3   OH2 2222   0.243   2.996   0.292
  739TIP3    H1 2223   0.253   3.037   0.378
  739TIP3    H2 2224   0.285   3.057   0.232
  740TIP3   OH2 2225   0.821   0.295   0.193
  740TIP3    H1 2226   0.862   0.339   0.267
  740TIP3    H2 2227   0.831   0.357   0.120
  741TIP3   OH2 2228   3.605   2.570   4.256
  741TIP3    H1 2229   3.671   2.501   4.266
  741TIP3    H2 2230   3.599   2.583   4.162
  742TIP3   OH2 2231   1.960   5.522   1.091
  742TIP3    H1 2232   1.892   5.499   1.028
  742TIP3    H2 2233   1.933   5.607   1.125
  743TIP3   OH2 2234   5.600   1.497   2.357
  743TIP3    H1 2235   5.644   1.451   2.287
  743TIP3    H2 2236   5.507   1.487   2.337
  744TIP3   OH2 2237   3.723   2.896   2.626
  744TIP3    H1 2238   3.734   2.854   2.712
  744TIP3    H2 2239   3.629   2.914   2.620
  745TIP3   OH2 2240   1.754   1.464   1.227
  745TIP3    H1 2241   1.727   1.387   1.176
  745TIP3    H2 2242   1.724   1.445   1.316
  746TIP3   OH2 2243   3.437   4.790   1.987
  746TIP3    H1 2244   3.434   4.874   2.032
  746TIP3    H2 2245   3.366   4.794   1.923
  747TIP3   OH2 2246   3.544   1.882   3.090
  747TIP3    H1 2247   3.590   1.963   3.067
  747TIP3    H2 2248   3.582   1.816   3.032
  748TIP3   OH2 2249   5.134   1.979   3.222
  748TIP3    H1 2250   5.148   1.936   3.138
  748TIP3    H2 2251   5.154   2.071   3.206
  749TIP3   OH2 2252   3.326   3.128   3.513
  749TIP3    H1 2253   3.254   3.089   3.463
  749TIP3    H2 2254   3.299   3.119   3.605
  750TIP3   OH2 2255   4.629   2.746   2.026
  750TIP3    H1 2256   4.683   2.811   1.980
  750TIP3    H2 2257   4.613   2.786   2.112
  751TIP3   OH2 2258   3.903   0.863   1.404
  751TIP3    H1 2259   3.847   0.823   1.471
  751TIP3    H2 2260   3.922   0.950   1.439
  752TIP3   OH2 2261   3.580   3.763   3.460
  752TIP3    H1 2262   3.614   3.720   3.381
  752TIP3    H2 2263   3.486   3.749   3.456
  753TIP3   OH2 2264   1.985   3.735   3.700
  753TIP3    H1 2265   1.948   3.700   3.781
  753TIP3    H2 2266   1.961   3.828   3.701
  754TIP3   OH2 2267   5.366   0.101   1.756
  754TIP3    H1 2268   5.406   0.118   1.671
  754TIP3    H2 2269   5.398   0.170   1.813
  755TIP3   OH2 2270   1.413   1.699   0.950
  755TIP3    H1 2271   1.385   1.740   1.032
  755TIP3    H2 2272   1.495   1.742   0.927
  756TIP3   OH2 2273   3.265   3.381   2.693
  756TIP3    H1 2274   3.237   3.443   2.626
  756TIP3    H2 2275   3.188   3.368   2.747
  757TIP3   OH2 2276   1.768   2.733   1.689
  757TIP3    H1 2277   1.681   2.745   1.651
  757TIP3    H2 2278   1.826   2.723   1.613
  758TIP3   OH2 2279   3.797   0.804   0.229
  758TIP3    H1 2280   3.821   0.711   0.220
  758TIP3    H2 2281   3.761   0.828   0.144
  759TIP3   OH2 2282   2.229   5.310   1.467
  759TIP3    H1 2283   2.262   5.265   1.545
  759TIP3    H2 2284   2.234   5.245   1.397
  760TIP3   OH2 2285   3.245   2.878   5.084
  760TIP3    H1 2286   3.151   2.886   5.074
  760TIP3    H2 2287   3.270   2.948   5.144
  761TIP3   OH2 2288   5.848   3.422   3.288
  761TIP3    H1 2289   5.834   3.517   3.281
  761TIP3    H2 2290   5.760   3.384   3.280
  762TIP3   OH2 2291   5.473   2.052   4.439
  762TIP3    H1 2292   5.467   2.034   4.345
  762TIP3    H2 2293   5.383   2.068   4.466
  763TIP3   OH2 2294   0.212   4.913   4.313
  763TIP3    H1 2295   0.271   4.840   4.331
  763TIP3    H2 2296   0.143   4.875   4.259
  764TIP3   OH2 2297   4.981   0.023   4.041
  764TIP3    H1 2298   4.888   0.042   4.025
  764TIP3    H2 2299   5.006  -0.037   3.970
  765TIP3   OH2 2300   0.500   5.187   0.245
  765TIP3    H1 2301   0.423   5.185   0.302
  765TIP3    H2 2302   0.542   5.270   0.263
  766TIP3   OH2 2303   1.081   4.689   1.476
  766TIP3    H1 2304   1.070   4.610   1.529
  766TIP3    H2 2305   1.169   4.720   1.497
  767TIP3   OH2 2306   4.972   3.977   4.173
  767TIP3    H1 2307   4.908   3.940   4.234
  767TIP3    H2 2308   4.940   3.953   4.086
  768TIP3   OH2 2309   4.075   5.949   5.120
  768TIP3    H1 2310   4.070   5.853   5.122
  768TIP3    H2 2311   4.041   5.973   5.034
  769TIP3   OH2 2312   2.491   2.185   4.350
  769TIP3    H1 2313   2.581   2.181   4.318
  769TIP3    H2 2314   2.462   2.094   4.353
  770TIP3   OH2 2315   5.629   3.704   0.491
  770TIP3    H1 2316   5.647   3.790   0.454
  770TIP3    H2 2317   5.690   3.646   0.446
  771TIP3   OH2 2318   1.806   0.805   4.100
  771TIP3    H1 2319   1.789   0.761   4.017
  771TIP3    H2 2320   1.859   0.881   4.076
  772TIP3   OH2 2321   5.248   3.991   2.687
  772TIP3    H1 2322   5.213   3.949   2.608
  772TIP3    H2 2323   5.342   3.996   2.672
  773TIP3   OH2 2324   4.986  -0.012   2.510
  773TIP3    H1 2325   5.006   0.080   2.490
  773TIP3    H2 2326   4.898  -0.010   2.548
  774TIP3   OH2 2327   3.782   1.909   4.607
  774TIP3    H1 2328   3.837   1.883   4.533
  774TIP3    H2 2329   3.837   1.897   4.684
  775TIP3   OH2 2330   2.814   0.885   3.866
  775TIP3    H1 2331   2.870   0.825   3.916
  775TIP3    H2 2332   2.725   0.855   3.885
  776TIP3   OH2 2333   5.133   2.228   4.266
  776TIP3    H1 2334   5.068   2.266   4.207
  776TIP3    H2 2335   5.127   2.134   4.252
  777TIP3   OH2 2336   3.644   0.791   2.581
  777TIP3    H1 2337   3.585   0.854   2.539
  777TIP3    H2 2338   3.610   0.705   2.555
  778TIP3   OH2 2339   5.069   5.157   2.510
  778TIP3    H1 2340   5.102   5.138   2.423
  778TIP3    H2 2341   4.974   5.145   2.503
  779TIP3   OH2 2342   1.378   5.592   0.928
  779TIP3    H1 2343   1.471   5.613   0.938
  779TIP3    H2 2344   1.372   5.499   0.948
  780TIP3   OH2 2345   6.335   2.223   1.618
  780TIP3    H1 2346   6.263   2.258   1.670
  780TIP3    H2 2347   6.292   2.170   1.551
  781TIP3   OH2 2348   2.439   2.837   3.715
  781TIP3    H1 2349   2.446   2.896   3.640
  781TIP3    H2 2350   2.527   2.803   3.727
  782TIP3   OH2 2351   3.083   1.538   1.245
  782TIP3    H1 2352   3.095   1.446   1.270
  782TIP3    H2 2353   3.002   1.565   1.288
  783TIP3   OH2 2354   4.186   4.328   4.229
  783TIP3    H1 2355   4.196   4.266   4.157
  783TIP3    H2 2356   4.113   4.384   4.202
  784TIP3   OH2 2357   1.833   3.942   0.767
  784TIP3    H1 2358   1.815   3.866   0.713
  784TIP3    H2 2359   1.927   3.940   0.782
  785TIP3   OH2 2360   3.119   4.143   1.944
  785TIP3    H1 2361   3.179   4.096   2.002
  785TIP3    H2 2362   3.138   4.235   1.961
  786TIP3   OH2 2363   5.590   5.506   1.502
  786TIP3    H1 2364   5.619   5.431   1.554
  786TIP3    H2 2365   5.577   5.470   1.414
  787TIP3   OH2 2366   6.304   0.344   2.243
  787TIP3    H1 2367   6.273   0.319   2.156
  787TIP3    H2 2368   6.332   0.435   2.233
  788TIP3   OH2 2369   5.737   1.861   1.438
  788TIP3    H1 2370   5.704   1.886   1.352
  788TIP3    H2 2371   5.700   1.774   1.453
  789TIP3   OH2 2372   2.189   1.623   1.838
  789TIP3    H1 2373   2.232   1.597   1.757
  789TIP3    H2 2374   2.222   1.561   1.904
  790TIP3   OH2 2375   5.510   2.368   2.055
  790TIP3    H1 2376   5.490   2.333   2.142
  790TIP3    H2 2377   5.498   2.462   2.063
  791TIP3   OH2 2378   2.705   2.003   0.718
  791TIP3    H1 2379   2.775   2.069   0.721
  791TIP3    H2 2380   2.625   2.055   0.707
  792TIP3   OH2 2381   1.873   2.136   1.981
  792TIP3    H1 2382   1.913   2.216   2.016
  792TIP3    H2 2383   1.937   2.067   1.997
  793TIP3   OH2 2384   1.852   1.119   4.782
  793TIP3    H1 2385   1.757   1.123   4.794
  793TIP3    H2 2386   1.864   1.063   4.705
  794TIP3   OH2 2387   5.753   1.808   2.912
  794TIP3    H1 2388   5.745   1.790   3.006
  794TIP3    H2 2389   5.674   1.857   2.890
  795TIP3   OH2 2390   1.488   0.895   0.129
  795TIP3    H1 2391   1.499   0.987   0.152
  795TIP3    H2 2392   1.419   0.895   0.063
  796TIP3   OH2 2393   4.892   5.934   1.115
  796TIP3    H1 2394   4.818   5.993   1.128
  796TIP3    H2 2395   4.924   5.916   1.203
  797TIP3   OH2 2396   4.800   4.488   2.769
  797TIP3    H1 2397   4.752   4.412   2.801
  797TIP3    H2 2398   4.834   4.461   2.684
  798TIP3   OH2 2399   2.581   0.932   4.493
  798TIP3    H1 2400   2.579   1.026   4.513
  798TIP3    H2 2401   2.503   0.897   4.535
  799TIP3   OH2 2402   4.608   3.974   1.386
  799TIP3    H1 2403   4.605   4.045   1.450
  799TIP3    H2 2404   4.627   4.016   1.303
  800TIP3   OH2 2405   5.059   1.495   0.151
  800TIP3    H1 2406   5.120   1.464   0.083
  800TIP3    H2 2407   4.989   1.539   0.103
  801TIP3   OH2 2408   5.669   5.219   0.749
  801TIP3    H1 2409   5.760   5.223   0.777
  801TIP3    H2 2410   5.672   5.223   0.653
  802TIP3   OH2 2411   2.299   1.182   3.621
  802TIP3    H1 2412   2.304   1.276   3.642
  802TIP3    H2 2413   2.371   1.143   3.670
  803TIP3   OH2 2414   1.882   0.815   3.450
  803TIP3    H1 2415   1.953   0.842   3.507
  803TIP3    H2 2416   1.896   0.721   3.435
  804TIP3   OH2 2417   0.196   0.855   1.765
  804TIP3    H1 2418   0.272   0.912   1.753
  804TIP3    H2 2419   0.174   0.864   1.858
  805TIP3   OH2 2420   1.662   0.085   0.478
  805TIP3    H1 2421   1.570   0.077   0.455
  805TIP3    H2 2422   1.691   0.164   0.432
  806TIP3   OH2 2423   5.372   0.997   0.997
  806TIP3    H1 2424   5.377   0.904   1.022
  806TIP3    H2 2425   5.463   1.027   0.999
  807TIP3   OH2 2426   4.286   5.323   0.551
  807TIP3    H1 2427   4.347   5.376   0.602
  807TIP3    H2 2428   4.212   5.307   0.610
  808TIP3   OH2 2429   0.038   4.797   0.519
  808TIP3    H1 2430   0.121   4.843   0.526
  808TIP3    H2 2431   0.015   4.803   0.426
  809TIP3   OH2 2432   0.511   0.512   1.373
  809TIP3    H1 2433   0.533   0.493   1.282
  809TIP3    H2 2434   0.591   0.549   1.410
  810TIP3   OH2 2435   6.096   0.061   4.883
  810TIP3    H1 2436   6.077   0.002   4.810
  810TIP3    H2 2437   6.052   0.142   4.859
  811TIP3   OH2 2438   5.044   5.688   1.910
  811TIP3    H1 2439   5.087   5.768   1.881
  811TIP3    H2 2440   5.007   5.650   1.830
  812TIP3   OH2 2441   3.998   0.175   2.979
  812TIP3    H1 2442   4.034   0.183   3.068
  812TIP3    H2 2443   4.002   0.264   2.944
  813TIP3   OH2 2444   3.843   1.433   4.785
  813TIP3    H1 2445   3.884   1.478   4.859
  813TIP3    H2 2446   3.758   1.405   4.819
  814TIP3   OH2 2447   5.616   0.368   0.554
  814TIP3    H1 2448   5.640   0.281   0.524
  814TIP3    H2 2449   5.526   0.359   0.585
  815TIP3   OH2 2450   3.183   0.813   2.928
  815TIP3    H1 2451   3.138   0.817   2.843
  815TIP3    H2 2452   3.274   0.797   2.906
  816TIP3   OH2 2453   3.665   3.772   2.368
  816TIP3    H1 2454   3.727   3.796   2.436
  816TIP3    H2 2455   3.644   3.855   2.325
  817TIP3   OH2 2456   1.089   3.594   5.028
  817TIP3    H1 2457   1.033   3.588   5.105
  817TIP3    H2 2458   1.120   3.685   5.028
  818TIP3   OH2 2459   1.486   4.004   1.696
  818TIP3    H1 2460   1.519   4.031   1.610
  818TIP3    H2 2461   1.469   4.086   1.742
  819TIP3   OH2 2462   1.797   5.394   3.318
  819TIP3    H1 2463   1.817   5.475   3.271
  819TIP3    H2 2464   1.821   5.413   3.408
  820TIP3   OH2 2465   4.321   3.370   5.023
  820TIP3    H1 2466   4.279   3.378   4.937
  820TIP3    H2 2467   4.256   3.402   5.085
  821TIP3   OH2 2468   5.631   5.953   0.456
  821TIP3    H1 2469   5.618   5.917   0.369
  821TIP3    H2 2470   5.556   6.012   0.469
  822TIP3   OH2 2471   2.450   3.172   2.895
  822TIP3    H1 2472   2.495   3.256   2.891
  822TIP3    H2 2473   2.461   3.143   2.986
  823TIP3   OH2 2474   4.767   2.519   3.300
  823TIP3    H1 2475   4.823   2.577   3.351
  823TIP3    H2 2476   4.824   2.484   3.231
  824TIP3   OH2 2477   2.587   2.821   0.213
  824TIP3    H1 2478   2.581   2.737   0.260
  824TIP3    H2 2479   2.678   2.826   0.185
  825TIP3   OH2 2480   4.655   2.874   3.914
  825TIP3    H1 2481   4.667   2.964   3.883
  825TIP3    H2 2482   4.744   2.840   3.923
  826TIP3   OH2 2483   0.724   2.177   4.689
  826TIP3    H1 2484   0.766   2.126   4.758
  826TIP3    H2 2485   0.631   2.175   4.712
  827TIP3   OH2 2486   2.085   0.140   4.256
  827TIP3    H1 2487   2.005   0.192   4.248
  827TIP3    H2 2488   2.138   0.187   4.322
  828TIP3   OH2 2489   3.354   2.306   3.163
  828TIP3    H1 2490   3.364   2.370   3.234
  828TIP3    H2 2491   3.333   2.224   3.207
  829TIP3   OH2 2492   0.104   5.734   1.820
  829TIP3    H1 2493   0.130   5.734   1.912
  829TIP3    H2 2494   0.018   5.693   1.819
  830TIP3   OH2 2495   4.027   5.877   2.008
  830TIP3    H1 2496   3.990   5.789   2.010
  830TIP3    H2 2497   4.111   5.866   1.964
  831TIP3   OH2 2498   2.717   3.545   2.221
  831TIP3    H1 2499   2.805   3.580   2.233
  831TIP3    H2 2500   2.659   3.620   2.233
  832TIP3   OH2 2501   3.322   0.157   2.640
  832TIP3    H1 2502   3.399   0.166   2.696
  832TIP3    H2 2503   3.344   0.087   2.579
  833TIP3   OH2 2504   2.579   4.032   1.237
  833TIP3    H1 2505   2.650   4.074   1.189
  833TIP3    H2 2506   2.554   4.095   1.304
  834TIP3   OH2 2507   2.327   0.616   1.771
  834TIP3    H1 2508   2.253   0.677   1.763
  834TIP3    H2 2509   2.368   0.640   1.853
  835TIP3   OH2 2510   5.483   2.609   3.068
  835TIP3    H1 2511   5.418   2.631   3.002
  835TIP3    H2 2512   5.465   2.517   3.089
  836TIP3   OH2 2513   0.111   5.923   2.509
  836TIP3    H1 2514   0.182   5.968   2.555
  836TIP3    H2 2515   0.152   5.889   2.429
  837TIP3   OH2 2516   0.188   1.942   5.027
  837TIP3    H1 2517   0.207   2.023   5.074
  837TIP3    H2 2518   0.164   1.880   5.096
  838TIP3   OH2 2519   1.984   1.364   1.985
  838TIP3    H1 2520   2.074   1.386   2.009
  838TIP3    H2 2521   1.993   1.289   1.925
  839TIP3   OH2 2522   1.855   5.397   3.589
  839TIP3    H1 2523   1.857   5.492   3.597
  839TIP3    H2 2524   1.774   5.371   3.634
  840TIP3   OH2 2525   0.586   4.956   3.058
  840TIP3    H1 2526   0.569   4.999   2.974
  840TIP3    H2 2527   0.582   4.862   3.039
  841TIP3   OH2 2528   6.225   2.237   0.471
  841TIP3    H1 2529   6.276   2.188   0.407
  841TIP3    H2 2530   6.262   2.325   0.469
  842TIP3   OH2 2531   5.531   5.629   2.497
  842TIP3    H1 2532   5.588   5.634   2.420
  842TIP3    H2 2533   5.591   5.627   2.571
  843TIP3   OH2 2534   2.173   0.033   4.848
  843TIP3    H1 2535   2.123   0.088   4.909
  843TIP3    H2 2536   2.108  -0.028   4.812
  844TIP3   OH2 2537   2.839   0.217   0.324
  844TIP3    H1 2538   2.825   0.240   0.232
  844TIP3    H2 2539   2.753   0.228   0.364
  845TIP3   OH2 2540   1.082   4.109   4.991
  845TIP3    H1 2541   1.174   4.133   4.989
  845TIP3    H2 2542   1.075   4.036   4.930
  846TIP3   OH2 2543   0.455   1.348   4.981
  846TIP3    H1 2544   0.510   1.426   4.976
  846TIP3    H2 2545   0.516   1.275   4.992
  847TIP3   OH2 2546   5.992   5.974   0.225
  847TIP3    H1 2547   5.949   6.059   0.229
  847TIP3    H2 2548   5.941   5.924   0.161
  848TIP3   OH2 2549   0.620   1.167   0.823
  848TIP3    H1 2550   0.581   1.080   0.832
  848TIP3    H2 2551   0.567   1.222   0.881
  849TIP3   OH2 2552   5.906   3.708   4.505
  849TIP3    H1 2553   5.854   3.788   4.495
  849TIP3    H2 2554   5.901   3.688   4.598
  850TIP3   OH2 2555   1.987   0.081   0.059
  850TIP3    H1 2556   2.034   0.156   0.093
  850TIP3    H2 2557   1.951   0.037   0.137
  851TIP3   OH2 2558   3.012   4.679   1.872
  851TIP3    H1 2559   2.938   4.719   1.826
  851TIP3    H2 2560   3.082   4.744   1.867
  852TIP3   OH2 2561   3.312   4.805   2.304
  852TIP3    H1 2562   3.318   4.890   2.260
  852TIP3    H2 2563   3.375   4.810   2.375
  853TIP3   OH2 2564   1.507   4.108   4.135
  853TIP3    H1 2565   1.522   4.034   4.193
  853TIP3    H2 2566   1.416   4.133   4.149
  854TIP3   OH2 2567   1.522   2.988   2.030
  854TIP3    H1 2568   1.602   2.935   2.035
  854TIP3    H2 2569   1.487   2.969   1.943
  855TIP3   OH2 2570   0.578   1.245   1.252
  855TIP3    H1 2571   0.568   1.155   1.282
  855TIP3    H2 2572   0.633   1.287   1.319
  856TIP3   OH2 2573   1.081   4.712   2.302
  856TIP3    H1 2574   1.079   4.630   2.254
  856TIP3    H2 2575   1.076   4.780   2.235
  857TIP3   OH2 2576   5.640   5.179   3.574
  857TIP3    H1 2577   5.715   5.151   3.626
  857TIP3    H2 2578   5.641   5.121   3.497
  858TIP3   OH2 2579   3.014   4.575   4.027
  858TIP3    H1 2580   2.969   4.510   3.973
  858TIP3    H2 2581   3.032   4.647   3.966
  859TIP3   OH2 2582   2.267   1.363   1.632
  859TIP3    H1 2583   2.285   1.275   1.663
  859TIP3    H2 2584   2.184   1.356   1.586
  860TIP3   OH2 2585   2.688   0.825   0.307
  860TIP3    H1 2586   2.634   0.843   0.230
  860TIP3    H2 2587   2.637   0.859   0.381
  861TIP3   OH2 2588   2.300   5.502   2.419
  861TIP3    H1 2589   2.317   5.558   2.495
  861TIP3    H2 2590   2.205   5.505   2.408
  862TIP3   OH2 2591   6.009   5.916   4.829
  862TIP3    H1 2592   6.076   5.848   4.822
  862TIP3    H2 2593   5.934   5.872   4.867
  863TIP3   OH2 2594   1.703   5.374   4.563
  863TIP3    H1 2595   1.654   5.371   4.645
  863TIP3    H2 2596   1.747   5.459   4.565
  864TIP3   OH2 2597   2.335   2.896   0.143
  864TIP3    H1 2598   2.282   2.840   0.087
  864TIP3    H2 2599   2.420   2.852   0.147
  865TIP3   OH2 2600   0.054   4.210   4.956
  865TIP3    H1 2601   0.043   4.218   4.861
  865TIP3    H2 2602   0.041   4.117   4.974
  866TIP3   OH2 2603   6.159   5.426   0.922
  866TIP3    H1 2604   6.229   5.403   0.983
  866TIP3    H2 2605   6.081   5.385   0.960
  867TIP3   OH2 2606   4.470   2.190   2.241
  867TIP3    H1 2607   4.518   2.199   2.158
  867TIP3    H2 2608   4.538   2.194   2.308
  868TIP3   OH2 2609   0.562   5.327   1.442
  868TIP3    H1 2610   0.632   5.335   1.507
  868TIP3    H2 2611   0.603   5.349   1.359
  869TIP3   OH2 2612   5.966   4.229   0.378
  869TIP3    H1 2613   5.899   4.276   0.426
  869TIP3    H2 2614   5.924   4.202   0.297
  870TIP3   OH2 2615   0.892   3.830   2.539
  870TIP3    H1 2616   0.965   3.892   2.531
  870TIP3    H2 2617   0.934   3.748   2.566
  871TIP3   OH2 2618   4.816   5.637   3.883
  871TIP3    H1 2619   4.832   5.593   3.966
  871TIP3    H2 2620   4.725   5.616   3.862
  872TIP3   OH2 2621   5.462   2.837   1.950
  872TIP3    H1 2622   5.408   2.759   1.951
  872TIP3    H2 2623   5.400   2.910   1.951
  873TIP3   OH2 2624   4.638   3.034   2.508
  873TIP3    H1 2625   4.592   2.955   2.539
  873TIP3    H2 2626   4.654   3.018   2.415
  874TIP3   OH2 2627   1.381   5.941   1.813
  874TIP3    H1 2628   1.424   5.856   1.822
  874TIP3    H2 2629   1.417   5.978   1.733
  875TIP3   OH2 2630   4.749   3.341   4.187
  875TIP3    H1 2631   4.743   3.289   4.107
  875TIP3    H2 2632   4.683   3.302   4.245
  876TIP3   OH2 2633   6.309   3.242   1.606
  876TIP3    H1 2634   6.358   3.224   1.525
  876TIP3    H2 2635   6.286   3.334   1.600
  877TIP3   OH2 2636   5.752   4.340   2.877
  877TIP3    H1 2637   5.818   4.410   2.881
  877TIP3    H2 2638   5.796   4.264   2.915
  878TIP3   OH2 2639   0.358   1.782   3.878
  878TIP3    H1 2640   0.342   1.719   3.807
  878TIP3    H2 2641   0.352   1.729   3.958
  879TIP3   OH2 2642   4.959   0.342   3.715
  879TIP3    H1 2643   4.992   0.274   3.655
  879TIP3    H2 2644   4.935   0.414   3.657
  880TIP3   OH2 2645   0.987   0.331   4.516
  880TIP3    H1 2646   1.071   0.336   4.563
  880TIP3    H2 2647   0.983   0.412   4.465
  881TIP3   OH2 2648   6.174   0.521   1.261
  881TIP3    H1 2649   6.141   0.582   1.196
  881TIP3    H2 2650   6.215   0.451   1.210
  882TIP3   OH2 2651   1.109   1.248   2.422
  882TIP3    H1 2652   1.182   1.192   2.396
  882TIP3    H2 2653   1.082   1.216   2.507
  883TIP3   OH2 2654   6.175   0.237   2.452
  883TIP3    H1 2655   6.220   0.263   2.371
  883TIP3    H2 2656   6.145   0.148   2.434
  884TIP3   OH2 2657   4.023   1.232   2.804
  884TIP3    H1 2658   3.945   1.179   2.789
  884TIP3    H2 2659   4.078   1.217   2.727
  885TIP3   OH2 2660   3.014   2.488   1.034
  885TIP3    H1 2661   3.055   2.544   0.968
  885TIP3    H2 2662   3.084   2.428   1.062
  886TIP3   OH2 2663   5.838   4.070   4.719
  886TIP3    H1 2664   5.818   4.157   4.684
  886TIP3    H2 2665   5.930   4.076   4.746
  887TIP3   OH2 2666   4.621   1.201   3.799
  887TIP3    H1 2667   4.636   1.156   3.882
  887TIP3    H2 2668   4.530   1.229   3.802
  888TIP3   OH2 2669   1.796   4.756   4.783
  888TIP3    H1 2670   1.781   4.728   4.693
  888TIP3    H2 2671   1.884   4.723   4.804
  889TIP3   OH2 2672   1.689   1.013   1.210
  889TIP3    H1 2673   1.621   1.012   1.277
  889TIP3    H2 2674   1.770   1.032   1.259
  890TIP3   OH2 2675   0.938   4.022   3.096
  890TIP3    H1 2676   0.960   3.947   3.042
  890TIP3    H2 2677   0.993   4.013   3.174
  891TIP3   OH2 2678   3.893   1.141   1.499
  891TIP3    H1 2679   3.802   1.169   1.503
  891TIP3    H2 2680   3.942   1.210   1.543
  892TIP3   OH2 2681   2.273   4.756   4.406
  892TIP3    H1 2682   2.178   4.755   4.406
  892TIP3    H2 2683   2.296   4.841   4.368
  893TIP3   OH2 2684   2.285   2.168   2.521
  893TIP3    H1 2685   2.363   2.171   2.465
  893TIP3    H2 2686   2.268   2.260   2.543
  894TIP3   OH2 2687   2.938   0.615   1.423
  894TIP3    H1 2688   2.946   0.602   1.518
  894TIP3    H2 2689   3.028   0.609   1.391
  895TIP3   OH2 2690   1.102   4.651   2.816
  895TIP3    H1 2691   1.047   4.685   2.886
  895TIP3    H2 2692   1.048   4.655   2.738
  896TIP3   OH2 2693   3.483   2.694   0.924
  896TIP3    H1 2694   3.484   2.646   1.007
  896TIP3    H2 2695   3.448   2.780   0.947
  897TIP3   OH2 2696   1.985   4.853   2.759
  897TIP3    H1 2697   2.019   4.822   2.842
  897TIP3    H2 2698   1.897   4.883   2.778
  898TIP3   OH2 2699   4.373   5.463   3.178
  898TIP3    H1 2700   4.447   5.404   3.166
  898TIP3    H2 2701   4.353   5.457   3.272
  899TIP3   OH2 2702   3.410   0.465   2.350
  899TIP3    H1 2703   3.425   0.371   2.341
  899TIP3    H2 2704   3.336   0.473   2.410
  900TIP3   OH2 2705   4.431   3.314   3.599
  900TIP3    H1 2706   4.385   3.234   3.577
  900TIP3    H2 2707   4.408   3.375   3.529
  901TIP3   OH2 2708   2.349   5.677   0.841
  901TIP3    H1 2709   2.275   5.661   0.900
  901TIP3    H2 2710   2.310   5.688   0.755
  902TIP3   OH2 2711   1.692   1.398   1.495
  902TIP3    H1 2712   1.597   1.411   1.501
  902TIP3    H2 2713   1.716   1.361   1.580
  903TIP3   OH2 2714   5.620   4.637   0.467
  903TIP3    H1 2715   5.549   4.632   0.531
  903TIP3    H2 2716   5.659   4.724   0.481
  904TIP3   OH2 2717   0.038   1.820   0.552
  904TIP3    H1 2718   0.111   1.881   0.562
  904TIP3    H2 2719  -0.034   1.861   0.600
  905TIP3   OH2 2720   4.511   1.686   2.706
  905TIP3    H1 2721   4.535   1.599   2.674
  905TIP3    H2 2722   4.422   1.699   2.675
  906TIP3   OH2 2723   3.982   3.014   2.732
  906TIP3    H1 2724   4.026   3.091   2.696
  906TIP3    H2 2725   3.891   3.022   2.702
  907TIP3   OH2 2726   5.318   4.280   4.445
  907TIP3    H1 2727   5.408   4.310   4.463
  907TIP3    H2 2728   5.264   4.330   4.505
  908TIP3   OH2 2729   1.568   1.002   4.711
  908TIP3    H1 2730   1.578   0.908   4.726
  908TIP3    H2 2731   1.551   1.038   4.798
  909TIP3   OH2 2732   1.064   4.495   1.654
  909TIP3    H1 2733   1.019   4.419   1.616
  909TIP3    H2 2734   1.023   4.507   1.739
  910TIP3   OH2 2735   1.620   5.376   0.938
  910TIP3    H1 2736   1.613   5.360   0.843
  910TIP3    H2 2737   1.628   5.471   0.945
  911TIP3   OH2 2738   3.644   4.371   3.916
  911TIP3    H1 2739   3.689   4.314   3.978
  911TIP3    H2 2740   3.704   4.378   3.842
  912TIP3   OH2 2741   4.629   5.410   4.336
  912TIP3    H1 2742   4.632   5.330   4.284
  912TIP3    H2 2743   4.631   5.380   4.427
  913TIP3   OH2 2744   3.251   0.569   1.345
  913TIP3    H1 2745   3.293   0.627   1.409
  913TIP3    H2 2746   3.324   0.523   1.304
  914TIP3   OH2 2747   4.740   2.788   1.534
  914TIP3    H1 2748   4.652   2.761   1.509
  914TIP3    H2 2749   4.786   2.706   1.553
  915TIP3   OH2 2750   2.382   0.087   0.187
  915TIP3    H1 2751   2.400   0.085   0.092
  915TIP3    H2 2752   2.327   0.010   0.202
  916TIP3   OH2 2753   0.679   3.261   3.607
  916TIP3    H1 2754   0.762   3.269   3.561
  916TIP3    H2 2755   0.660   3.349   3.640
  917TIP3   OH2 2756   1.796   4.021   1.586
  917TIP3    H1 2757   1.776   3.949   1.646
  917TIP3    H2 2758   1.714   4.036   1.538
  918TIP3   OH2 2759   2.695   2.699   3.804
  918TIP3    H1 2760   2.779   2.725   3.843
  918TIP3    H2 2761   2.664   2.627   3.859
  919TIP3   OH2 2762   5.678   3.718   1.285
  919TIP3    H1 2763   5.707   3.766   1.208
  919TIP3    H2 2764   5.679   3.783   1.355
  920TIP3   OH2 2765   2.288   2.225   4.774
  920TIP3    H1 2766   2.344   2.219   4.851
  920TIP3    H2 2767   2.243   2.141   4.770
  921TIP3   OH2 2768   2.907   5.936   0.177
  921TIP3    H1 2769   2.952   5.960   0.258
  921TIP3    H2 2770   2.960   5.975   0.108
  922TIP3   OH2 2771   4.165   3.260   2.663
  922TIP3    H1 2772   4.186   3.286   2.573
  922TIP3    H2 2773   4.243   3.284   2.713
  923TIP3   OH2 2774   4.313   2.792   2.270
  923TIP3    H1 2775   4.334   2.791   2.177
  923TIP3    H2 2776   4.378   2.735   2.310
  924TIP3   OH2 2777  -0.003   3.539   2.355
  924TIP3    H1 2778   0.056   3.603   2.395
  924TIP3    H2 2779  -0.020   3.573   2.267
  925TIP3   OH2 2780   2.067   5.818   0.948
  925TIP3    H1 2781   2.022   5.845   1.028
  925TIP3    H2 2782   2.129   5.889   0.929
  926TIP3   OH2 2783   5.995   3.164   0.577
  926TIP3    H1 2784   6.088   3.181   0.558
  926TIP3    H2 2785   5.972   3.092   0.518
  927TIP3   OH2 2786   4.324   4.468   1.974
  927TIP3    H1 2787   4.306   4.546   1.921
  927TIP3    H2 2788   4.241   4.422   1.978
  928TIP3   OH2 2789   3.183   0.145   0.925
  928TIP3    H1 2790   3.216   0.099   0.848
  928TIP3    H2 2791   3.154   0.076   0.984
  929TIP3   OH2 2792   6.129   5.538   3.280
  929TIP3    H1 2793   6.058   5.477   3.300
  929TIP3    H2 2794   6.209   5.486   3.285
  930TIP3   OH2 2795   0.654   4.413   3.205
  930TIP3    H1 2796   0.733   4.439   3.158
  930TIP3    H2 2797   0.678   4.420   3.298
  931TIP3   OH2 2798   1.534   1.968   2.945
  931TIP3    H1 2799   1.545   2.063   2.945
  931TIP3    H2 2800   1.525   1.945   2.852
  932TIP3   OH2 2801   2.138   3.156   1.574
  932TIP3    H1 2802   2.150   3.251   1.572
  932TIP3    H2 2803   2.066   3.140   1.514
  933TIP3   OH2 2804   6.041   5.346   1.697
  933TIP3    H1 2805   6.090   5.274   1.735
  933TIP3    H2 2806   5.951   5.314   1.692
  934TIP3   OH2 2807   2.561   4.308   3.892
  934TIP3    H1 2808   2.575   4.371   3.962
  934TIP3    H2 2809   2.622   4.237   3.910
  935TIP3   OH2 2810   2.124   5.172   0.825
  935TIP3    H1 2811   2.071   5.166   0.904
  935TIP3    H2 2812   2.067   5.212   0.760
  936TIP3   OH2 2813   4.401   3.808   2.532
  936TIP3    H1 2814   4.423   3.755   2.456
  936TIP3    H2 2815   4.318   3.850   2.508
  937TIP3   OH2 2816   2.481   4.621   3.818
  937TIP3    H1 2817   2.474   4.531   3.850
  937TIP3    H2 2818   2.427   4.623   3.739
  938TIP3   OH2 2819   1.391   0.407   2.214
  938TIP3    H1 2820   1.426   0.331   2.259
  938TIP3    H2 2821   1.367   0.468   2.284
  939TIP3   OH2 2822   0.584   4.979   4.757
  939TIP3    H1 2823   0.648   4.978   4.686
  939TIP3    H2 2824   0.499   4.971   4.712
  940TIP3   OH2 2825   3.376   4.863   2.676
  940TIP3    H1 2826   3.311   4.794   2.664
  940TIP3    H2 2827   3.435   4.829   2.744
  941TIP3   OH2 2828   5.589   2.836   3.859
  941TIP3    H1 2829   5.573   2.790   3.942
  941TIP3    H2 2830   5.670   2.885   3.875
  942TIP3   OH2 2831   0.078   0.390   4.648
  942TIP3    H1 2832   0.101   0.483   4.645
  942TIP3    H2 2833   0.108   0.360   4.733
  943TIP3   OH2 2834   4.327   3.798   0.358
  943TIP3    H1 2835   4.399   3.737   0.374
  943TIP3    H2 2836   4.248   3.749   0.380
  944TIP3   OH2 2837   4.596   3.804   4.863
  944TIP3    H1 2838   4.595   3.712   4.836
  944TIP3    H2 2839   4.505   3.825   4.882
  945TIP3   OH2 2840   2.355   2.706   0.621
  945TIP3    H1 2841   2.260   2.702   0.614
  945TIP3    H2 2842   2.374   2.691   0.713
  946TIP3   OH2 2843   0.356   1.177   2.123
  946TIP3    H1 2844   0.419   1.106   2.125
  946TIP3    H2 2845   0.281   1.145   2.172
  947TIP3   OH2 2846   2.157   1.183   0.295
  947TIP3    H1 2847   2.125   1.271   0.276
  947TIP3    H2 2848   2.143   1.172   0.389
  948TIP3   OH2 2849   6.009   3.271   1.105
  948TIP3    H1 2850   6.003   3.253   1.011
  948TIP3    H2 2851   5.956   3.203   1.146
  949TIP3   OH2 2852   1.848   1.517   1.747
  949TIP3    H1 2853   1.884   1.535   1.834
  949TIP3    H2 2854   1.881   1.589   1.693
  950TIP3   OH2 2855   4.354   1.360   4.177
  950TIP3    H1 2856   4.351   1.453   4.157
  950TIP3    H2 2857   4.294   1.349   4.251
  951TIP3   OH2 2858   3.397   5.059   3.974
  951TIP3    H1 2859   3.422   5.140   4.020
  951TIP3    H2 2860   3.457   4.993   4.008
  952TIP3   OH2 2861   4.637   3.665   0.160
  952TIP3    H1 2862   4.727   3.667   0.128
  952TIP3    H2 2863   4.616   3.757   0.175
  953TIP3   OH2 2864   1.776   3.076   1.211
  953TIP3    H1 2865   1.680   3.077   1.215
  953TIP3    H2 2866   1.803   3.072   1.303
  954TIP3   OH2 2867   2.601   4.822   4.991
  954TIP3    H1 2868   2.589   4.832   5.085
  954TIP3    H2 2869   2.538   4.754   4.965
  955TIP3   OH2 2870   3.497   3.370   3.463
  955TIP3    H1 2871   3.460   3.284   3.485
  955TIP3    H2 2872   3.422   3.424   3.442
  956TIP3   OH2 2873   5.207   5.331   2.187
  956TIP3    H1 2874   5.266   5.371   2.123
  956TIP3    H2 2875   5.266   5.300   2.257
  957TIP3   OH2 2876   4.584   5.322   3.458
  957TIP3    H1 2877   4.632   5.392   3.503
  957TIP3    H2 2878   4.493   5.351   3.460
  958TIP3   OH2 2879   0.866   5.677   2.948
  958TIP3    H1 2880   0.951   5.712   2.920
  958TIP3    H2 2881   0.857   5.705   3.039
  959TIP3   OH2 2882   1.768   4.366   0.393
  959TIP3    H1 2883   1.861   4.385   0.404
  959TIP3    H2 2884   1.763   4.270   0.393
  960TIP3   OH2 2885   4.958   4.643   2.034
  960TIP3    H1 2886   4.998   4.664   1.950
  960TIP3    H2 2887   5.028   4.604   2.086
  961TIP3   OH2 2888   3.206   3.711   4.078
  961TIP3    H1 2889   3.153   3.787   4.103
  961TIP3    H2 2890   3.271   3.745   4.017
  962TIP3   OH2 2891   2.732   4.465   2.279
  962TIP3    H1 2892   2.641   4.461   2.251
  962TIP3    H2 2893   2.729   4.470   2.374
  963TIP3   OH2 2894   2.215   0.418   3.328
  963TIP3    H1 2895   2.308   0.400   3.315
  963TIP3    H2 2896   2.189   0.360   3.400
  964TIP3   OH2 2897   1.829   3.339   0.414
  964TIP3    H1 2898   1.839   3.424   0.372
  964TIP3    H2 2899   1.810   3.360   0.506
  965TIP3   OH2 2900   3.692   4.914   4.759
  965TIP3    H1 2901   3.688   4.905   4.664
  965TIP3    H2 2902   3.626   4.853   4.792
  966TIP3   OH2 2903   0.416   0.300   3.316
  966TIP3    H1 2904   0.396   0.227   3.259
  966TIP3    H2 2905   0.512   0.297   3.326
  967TIP3   OH2 2906   3.582   3.087   2.843
  967TIP3    H1 2907   3.549   3.052   2.761
  967TIP3    H2 2908   3.625   3.013   2.885
  968TIP3   OH2 2909   5.254   5.156   0.506
  968TIP3    H1 2910   5.161   5.174   0.520
  968TIP3    H2 2911   5.299   5.213   0.568
  969TIP3   OH2 2912   3.736   1.221   0.414
  969TIP3    H1 2913   3.772   1.132   0.409
  969TIP3    H2 2914   3.785   1.270   0.348
  970TIP3   OH2 2915   0.639   1.559   4.987
  970TIP3    H1 2916   0.726   1.518   4.987
  970TIP3    H2 2917   0.654   1.646   4.950
  971TIP3   OH2 2918   2.706   3.082   3.176
  971TIP3    H1 2919   2.630   3.140   3.174
  971TIP3    H2 2920   2.713   3.056   3.268
  972TIP3   OH2 2921   6.302   3.786   1.894
  972TIP3    H1 2922   6.216   3.817   1.864
  972TIP3    H2 2923   6.361   3.859   1.877
  973TIP3   OH2 2924   4.810   2.755   4.759
  973TIP3    H1 2925   4.769   2.747   4.845
  973TIP3    H2 2926   4.824   2.849   4.747
  974TIP3   OH2 2927   2.357   0.909   1.906
  974TIP3    H1 2928   2.441   0.881   1.870
  974TIP3    H2 2929   2.350   0.864   1.990
  975TIP3   OH2 2930   3.790   1.117   1.994
  975TIP3    H1 2931   3.712   1.090   2.044
  975TIP3    H2 2932   3.784   1.212   1.991
  976TIP3   OH2 2933   4.388   0.091   5.141
  976TIP3    H1 2934   4.374   0.156   5.072
  976TIP3    H2 2935   4.319   0.027   5.128
  977TIP3   OH2 2936   0.614   3.089   0.842
  977TIP3    H1 2937   0.617   3.012   0.899
  977TIP3    H2 2938   0.637   3.162   0.900
  978TIP3   OH2 2939   6.074   2.135   5.157
  978TIP3    H1 2940   6.029   2.206   5.204
  978TIP3    H2 2941   6.138   2.180   5.101
  979TIP3   OH2 2942   0.904   5.057   2.469
  979TIP3    H1 2943   0.997   5.046   2.451
  979TIP3    H2 2944   0.896   5.045   2.563
  980TIP3   OH2 2945   5.344   4.696   1.502
  980TIP3    H1 2946   5.385   4.733   1.580
  980TIP3    H2 2947   5.417   4.685   1.440
  981TIP3   OH2 2948   0.560   1.287   4.216
  981TIP3    H1 2949   0.584   1.374   4.184
  981TIP3    H2 2950   0.464   1.286   4.213
  982TIP3   OH2 2951   1.474   4.254   3.457
  982TIP3    H1 2952   1.533   4.313   3.412
  982TIP3    H2 2953   1.387   4.274   3.421
  983TIP3   OH2 2954   2.149   5.527   1.939
  983TIP3    H1 2955   2.215   5.537   1.870
  983TIP3    H2 2956   2.172   5.593   2.004
  984TIP3   OH2 2957   2.340   5.192  -0.008
  984TIP3    H1 2958   2.381   5.165   0.074
  984TIP3    H2 2959   2.413   5.221  -0.063
  985TIP3   OH2 2960   0.864   3.871   3.326
  985TIP3    H1 2961   0.782   3.868   3.376
  985TIP3    H2 2962   0.929   3.831   3.384
  986TIP3   OH2 2963   5.623   2.847   3.052
  986TIP3    H1 2964   5.580   2.761   3.054
  986TIP3    H2 2965   5.713   2.829   3.079
  987TIP3   OH2 2966   1.693   4.083   0.384
  987TIP3    H1 2967   1.727   4.041   0.305
  987TIP3    H2 2968   1.598   4.080   0.373
  988TIP3   OH2 2969   0.493   4.328   2.663
  988TIP3    H1 2970   0.515   4.400   2.603
  988TIP3    H2 2971   0.547   4.345   2.740
  989TIP3   OH2 2972   0.054   0.065   4.116
  989TIP3    H1 2973   0.116   0.089   4.185
  989TIP3    H2 2974  -0.032   0.079   4.155
  990TIP3   OH2 2975   5.218   3.124   4.188
  990TIP3    H1 2976   5.167   3.172   4.123
  990TIP3    H2 2977   5.209   3.176   4.269
  991TIP3   OH2 2978   1.934   2.103   2.527
  991TIP3    H1 2979   1.916   2.130   2.617
  991TIP3    H2 2980   1.977   2.018   2.535
  992TIP3   OH2 2981   4.985   4.434   3.488
  992TIP3    H1 2982   5.051   4.389   3.541
  992TIP3    H2 2983   4.964   4.512   3.538
  993TIP3   OH2 2984   5.757   2.203   0.373
  993TIP3    H1 2985   5.783   2.137   0.309
  993TIP3    H2 2986   5.661   2.204   0.369
  994TIP3   OH2 2987   4.727   1.805   2.191
  994TIP3    H1 2988   4.782   1.836   2.263
  994TIP3    H2 2989   4.651   1.767   2.233
  995TIP3   OH2 2990   5.405   4.380   3.632
  995TIP3    H1 2991   5.376   4.345   3.547
  995TIP3    H2 2992   5.416   4.474   3.615
  996TIP3   OH2 2993   5.021   0.616   1.466
  996TIP3    H1 2994   5.049   0.706   1.449
  996TIP3    H2 2995   4.980   0.588   1.384
  997TIP3   OH2 2996   4.897   1.739   4.577
  997TIP3    H1 2997   4.988   1.768   4.574
  997TIP3    H2 2998   4.858   1.775   4.497
  998TIP3   OH2 2999   1.402   0.464   5.013
  998TIP3    H1 3000   1.396   0.559   5.024
  998TIP3    H2 3001   1.476   0.438   5.066
  999TIP3   OH2 3002   0.735   3.622   0.186
  999TIP3    H1 3003   0.719   3.670   0.267
  999TIP3    H2 3004   0.829   3.628   0.171
 1000TIP3   OH2 3005   0.633   5.915   5.217
 1000TIP3    H1 3006   0.644   5.861   5.139
 1000TIP3    H2 3007   0.597   5.997   5.185
 1001TIP3   OH2 3008   2.497   0.925   0.758
 1001TIP3    H1 3009   2.494   0.914   0.854
 1001TIP3    H2 3010   2.529   0.841   0.726
 1002TIP3   OH2 3011   1.762   1.375   4.301
 1002TIP3    H1 3012   1.765   1.286   4.267
 1002TIP3    H2 3013   1.704   1.422   4.240
 1003TIP3   OH2 3014   1.074   0.576   0.922
 1003TIP3    H1 3015   1.075   0.663   0.882
 1003TIP3    H2 3016   1.045   0.590   1.012
 1004TIP3   OH2 3017   0.587   0.043   3.702
 1004TIP3    H1 3018   0.672   0.006   3.675
 1004TIP3    H2 3019   0.531   0.030   3.626
 1005TIP3   OH2 3020   2.299   3.292   4.961
 1005TIP3    H1 3021   2.332   3.208   4.930
 1005TIP3    H2 3022   2.243   3.324   4.890
 1006TIP3   OH2 3023   4.705   0.538   0.141
 1006TIP3    H1 3024   4.797   0.552   0.119
 1006TIP3    H2 3025   4.670   0.625   0.159
 1007TIP3   OH2 3026   0.035   3.911   5.082
 1007TIP3    H1 3027   0.084   3.866   5.150
 1007TIP3    H2 3028  -0.055   3.911   5.113
 1008TIP3   OH2 3029   4.846   3.766   2.530
 1008TIP3    H1 3030   4.779   3.737   2.591
 1008TIP3    H2 3031   4.901   3.826   2.580
 1009TIP3   OH2 3032   4.816   0.489   2.858
 1009TIP3    H1 3033   4.733   0.511   2.900
 1009TIP3    H2 3034   4.801   0.402   2.820
 1010TIP3   OH2 3035   3.652   4.337   2.195
 1010TIP3    H1 3036   3.726   4.315   2.252
 1010TIP3    H2 3037   3.608   4.410   2.239
 1011TIP3   OH2 3038   3.293   5.833   3.830
 1011TIP3    H1 3039   3.266   5.755   3.782
 1011TIP3    H2 3040   3.233   5.837   3.905
 1012TIP3   OH2 3041   2.680   2.389   3.644
 1012TIP3    H1 3042   2.678   2.314   3.585
 1012TIP3    H2 3043   2.621   2.453   3.603
 1013TIP3   OH2 3044   3.494   4.731   4.823
 1013TIP3    H1 3045   3.434   4.744   4.749
 1013TIP3    H2 3046   3.437   4.731   4.900
 1014TIP3   OH2 3047   3.526   1.098   3.793
 1014TIP3    H1 3048   3.512   1.145   3.875
 1014TIP3    H2 3049   3.588   1.152   3.744
 1015TIP3   OH2 3050   4.552   2.845   0.591
 1015TIP3    H1 3051   4.482   2.886   0.539
 1015TIP3    H2 3052   4.546   2.752   0.571
 1016TIP3   OH2 3053   0.098   1.352   3.433
 1016TIP3    H1 3054   0.134   1.355   3.344
 1016TIP3    H2 3055   0.012   1.311   3.423
 1017TIP3   OH2 3056   3.585   3.923   1.793
 1017TIP3    H1 3057   3.585   4.014   1.822
 1017TIP3    H2 3058   3.654   3.880   1.844
 1018TIP3   OH2 3059   1.079   4.435   3.380
 1018TIP3    H1 3060   1.133   4.363   3.347
 1018TIP3    H2 3061   1.140   4.508   3.390
 1019TIP3   OH2 3062   4.637   3.505   4.780
 1019TIP3    H1 3063   4.689   3.516   4.700
 1019TIP3    H2 3064   4.694   3.455   4.839
 1020TIP3   OH2 3065   2.819   4.658   3.175
 1020TIP3    H1 3066   2.731   4.680   3.206
 1020TIP3    H2 3067   2.877   4.683   3.247
 1021TIP3   OH2 3068   3.709   2.068   4.999
 1021TIP3    H1 3069   3.736   2.126   4.928
 1021TIP3    H2 3070   3.775   2.081   5.067
 1022TIP3   OH2 3071   5.866   1.383   0.621
 1022TIP3    H1 3072   5.782   1.409   0.582
 1022TIP3    H2 3073   5.920   1.462   0.617
 1023TIP3   OH2 3074   1.001   1.842   5.131
 1023TIP3    H1 3075   0.912   1.860   5.161
 1023TIP3    H2 3076   1.055   1.910   5.171
 1024TIP3   OH2 3077   0.131   5.025   2.800
 1024TIP3    H1 3078   0.082   4.944   2.790
 1024TIP3    H2 3079   0.193   5.008   2.870
 1025TIP3   OH2 3080   4.231   4.477   4.842
 1025TIP3    H1 3081   4.315   4.518   4.863
 1025TIP3    H2 3082   4.171   4.509   4.910
 1026TIP3   OH2 3083   6.042   0.162   1.916
 1026TIP3    H1 3084   6.108   0.095   1.934
 1026TIP3    H2 3085   6.091   0.238   1.885
 1027TIP3   OH2 3086   5.830   3.193   2.477
 1027TIP3    H1 3087   5.751   3.178   2.528
 1027TIP3    H2 3088   5.799   3.232   2.395
 1028TIP3   OH2 3089   2.032   3.845   0.333
 1028TIP3    H1 3090   2.057   3.793   0.256
 1028TIP3    H2 3091   1.946   3.880   0.311
 1029TIP3   OH2 3092   0.524   5.350   2.325
 1029TIP3    H1 3093   0.589   5.286   2.296
 1029TIP3    H2 3094   0.550   5.371   2.415
 1030TIP3   OH2 3095   5.293   1.606   0.868
 1030TIP3    H1 3096   5.234   1.681   0.873
 1030TIP3    H2 3097   5.319   1.603   0.775
 1031TIP3   OH2 3098   4.799   2.952   1.924
 1031TIP3    H1 3099   4.892   2.953   1.948
 1031TIP3    H2 3100   4.752   2.951   2.007
 1032TIP3   OH2 3101   5.354   2.498   1.292
 1032TIP3    H1 3102   5.307   2.415   1.291
 1032TIP3    H2 3103   5.322   2.545   1.215
 1033TIP3   OH2 3104   2.135   3.858   1.740
 1033TIP3    H1 3105   2.189   3.828   1.813
 1033TIP3    H2 3106   2.049   3.818   1.756
 1034TIP3   OH2 3107   4.171   4.776   1.281
 1034TIP3    H1 3108   4.122   4.715   1.336
 1034TIP3    H2 3109   4.129   4.861   1.296
 1035TIP3   OH2 3110   0.475   5.779   3.351
 1035TIP3    H1 3111   0.496   5.740   3.266
 1035TIP3    H2 3112   0.381   5.800   3.345
 1036TIP3   OH2 3113   2.588   2.627   4.683
 1036TIP3    H1 3114   2.524   2.692   4.653
 1036TIP3    H2 3115   2.549   2.543   4.659
 1037TIP3   OH2 3116   3.406   1.255   0.727
 1037TIP3    H1 3117   3.409   1.166   0.693
 1037TIP3    H2 3118   3.485   1.297   0.694
 1038TIP3   OH2 3119   1.508   3.951   2.249
 1038TIP3    H1 3120   1.464   3.887   2.304
 1038TIP3    H2 3121   1.579   3.903   2.207
 1039TIP3   OH2 3122   1.961   5.789   2.652
 1039TIP3    H1 3123   1.989   5.873   2.690
 1039TIP3    H2 3124   2.042   5.747   2.624
 1040TIP3   OH2 3125   2.037   3.321   2.276
 1040TIP3    H1 3126   2.043   3.338   2.182
 1040TIP3    H2 3127   2.095   3.247   2.291
 1041TIP3   OH2 3128   4.648   1.278   2.881
 1041TIP3    H1 3129   4.658   1.373   2.892
 1041TIP3    H2 3130   4.687   1.241   2.960
 1042TIP3   OH2 3131   0.205   2.723   0.384
 1042TIP3    H1 3132   0.232   2.789   0.320
 1042TIP3    H2 3133   0.155   2.659   0.333
 1043TIP3   OH2 3134   4.797   3.719   2.976
 1043TIP3    H1 3135   4.721   3.661   2.986
 1043TIP3    H2 3136   4.767   3.804   3.010
 1044TIP3   OH2 3137   5.793   3.464   0.585
 1044TIP3    H1 3138   5.805   3.533   0.650
 1044TIP3    H2 3139   5.803   3.508   0.501
 1045TIP3   OH2 3140   2.676   0.782   2.869
 1045TIP3    H1 3141   2.729   0.853   2.833
 1045TIP3    H2 3142   2.628   0.748   2.794
 1046TIP3   OH2 3143   2.570   0.853   2.520
 1046TIP3    H1 3144   2.485   0.876   2.482
 1046TIP3    H2 3145   2.548   0.813   2.604
 1047TIP3   OH2 3146   4.049   3.449   1.702
 1047TIP3    H1 3147   4.008   3.383   1.758
 1047TIP3    H2 3148   4.063   3.405   1.618
 1048TIP3   OH2 3149   3.663   4.623   2.119
 1048TIP3    H1 3150   3.624   4.591   2.200
 1048TIP3    H2 3151   3.600   4.687   2.085
 1049TIP3   OH2 3152   2.689   3.412   1.977
 1049TIP3    H1 3153   2.664   3.321   1.993
 1049TIP3    H2 3154   2.701   3.448   2.065
 1050TIP3   OH2 3155   3.711   3.339   3.863
 1050TIP3    H1 3156   3.622   3.307   3.849
 1050TIP3    H2 3157   3.761   3.307   3.787
 1051TIP3   OH2 3158   5.558   1.316   1.964
 1051TIP3    H1 3159   5.616   1.257   1.916
 1051TIP3    H2 3160   5.607   1.339   2.042
 1052TIP3   OH2 3161   0.747   2.194   0.396
 1052TIP3    H1 3162   0.662   2.160   0.425
 1052TIP3    H2 3163   0.792   2.118   0.359
 1053TIP3   OH2 3164   2.018   1.196   2.807
 1053TIP3    H1 3165   2.040   1.142   2.731
 1053TIP3    H2 3166   2.093   1.186   2.866
 1054TIP3   OH2 3167   3.807   1.728   1.926
 1054TIP3    H1 3168   3.785   1.814   1.892
 1054TIP3    H2 3169   3.778   1.667   1.857
 1055TIP3   OH2 3170   5.087   4.064   2.062
 1055TIP3    H1 3171   5.174   4.025   2.061
 1055TIP3    H2 3172   5.052   4.047   1.974
 1056TIP3   OH2 3173   0.368   0.745   4.598
 1056TIP3    H1 3174   0.383   0.671   4.657
 1056TIP3    H2 3175   0.311   0.804   4.647
 1057TIP3   OH2 3176   4.019   0.903   3.616
 1057TIP3    H1 3177   4.009   0.825   3.670
 1057TIP3    H2 3178   3.950   0.895   3.550
 1058TIP3   OH2 3179   3.576   3.507   1.099
 1058TIP3    H1 3180   3.501   3.518   1.158
 1058TIP3    H2 3181   3.633   3.445   1.145
 1059TIP3   OH2 3182   0.888   3.935   5.116
 1059TIP3    H1 3183   0.953   3.995   5.080
 1059TIP3    H2 3184   0.824   3.924   5.045
 1060TIP3   OH2 3185   2.731   1.395   1.230
 1060TIP3    H1 3186   2.705   1.341   1.304
 1060TIP3    H2 3187   2.715   1.485   1.259
 1061TIP3   OH2 3188   6.306   4.023   3.617
 1061TIP3    H1 3189   6.273   4.110   3.595
 1061TIP3    H2 3190   6.226   3.970   3.630
 1062TIP3   OH2 3191   4.439   5.625   2.767
 1062TIP3    H1 3192   4.475   5.593   2.685
 1062TIP3    H2 3193   4.344   5.610   2.759
 1063TIP3   OH2 3194   2.395   1.143   1.755
 1063TIP3    H1 3195   2.367   1.074   1.815
 1063TIP3    H2 3196   2.485   1.163   1.782
 1064TIP3   OH2 3197   5.982   3.289   2.667
 1064TIP3    H1 3198   5.922   3.249   2.605
 1064TIP3    H2 3199   6.069   3.263   2.636
 1065TIP3   OH2 3200   4.198   1.557   3.359
 1065TIP3    H1 3201   4.210   1.632   3.418
 1065TIP3    H2 3202   4.262   1.572   3.289
 1066TIP3   OH2 3203   3.650   5.810   0.522
 1066TIP3    H1 3204   3.640   5.721   0.487
 1066TIP3    H2 3205   3.570   5.855   0.496
 1067TIP3   OH2 3206   4.169   4.332   0.287
 1067TIP3    H1 3207   4.234   4.402   0.288
 1067TIP3    H2 3208   4.194   4.277   0.213
 1068TIP3   OH2 3209   6.050   0.143   4.083
 1068TIP3    H1 3210   6.010   0.118   4.000
 1068TIP3    H2 3211   5.978   0.144   4.145
 1069TIP3   OH2 3212   6.255   3.091   1.255
 1069TIP3    H1 3213   6.218   3.178   1.243
 1069TIP3    H2 3214   6.329   3.104   1.314
 1070TIP3   OH2 3215   3.031   3.367   1.964
 1070TIP3    H1 3216   2.956   3.426   1.970
 1070TIP3    H2 3217   3.108   3.425   1.965
 1071TIP3   OH2 3218   4.573   0.764   1.156
 1071TIP3    H1 3219   4.603   0.713   1.231
 1071TIP3    H2 3220   4.636   0.745   1.087
 1072TIP3   OH2 3221   0.580   0.884   0.839
 1072TIP3    H1 3222   0.627   0.901   0.921
 1072TIP3    H2 3223   0.638   0.824   0.791
 1073TIP3   OH2 3224   1.550   2.532   4.457
 1073TIP3    H1 3225   1.638   2.501   4.438
 1073TIP3    H2 3226   1.517   2.566   4.374
 1074TIP3   OH2 3227   1.042   1.712   4.892
 1074TIP3    H1 3228   1.009   1.626   4.916
 1074TIP3    H2 3229   1.038   1.763   4.973
 1075TIP3   OH2 3230   0.029   2.826   5.083
 1075TIP3    H1 3231   0.113   2.794   5.051
 1075TIP3    H2 3232  -0.035   2.760   5.055
 1076TIP3   OH2 3233   5.606   5.546   1.821
 1076TIP3    H1 3234   5.537   5.589   1.872
 1076TIP3    H2 3235   5.662   5.618   1.791
 1077TIP3   OH2 3236   2.983   2.467   1.726
 1077TIP3    H1 3237   2.915   2.403   1.747
 1077TIP3    H2 3238   3.027   2.429   1.649
 1078TIP3   OH2 3239   2.387   1.919   4.344
 1078TIP3    H1 3240   2.337   1.838   4.345
 1078TIP3    H2 3241   2.434   1.920   4.428
 1079TIP3   OH2 3242   0.717   0.282   2.248
 1079TIP3    H1 3243   0.699   0.213   2.184
 1079TIP3    H2 3244   0.677   0.361   2.211
 1080TIP3   OH2 3245   4.846   3.295   3.066
 1080TIP3    H1 3246   4.753   3.318   3.066
 1080TIP3    H2 3247   4.858   3.244   3.146
 1081TIP3   OH2 3248   4.707   5.866   4.439
 1081TIP3    H1 3249   4.614   5.847   4.428
 1081TIP3    H2 3250   4.710   5.929   4.511
 1082TIP3   OH2 3251   2.462   0.636   0.861
 1082TIP3    H1 3252   2.427   0.665   0.777
 1082TIP3    H2 3253   2.386   0.634   0.919
 1083TIP3   OH2 3254   0.935   4.124   0.086
 1083TIP3    H1 3255   0.846   4.109   0.116
 1083TIP3    H2 3256   0.984   4.148   0.165
 1084TIP3   OH2 3257   4.885   4.750   1.354
 1084TIP3    H1 3258   4.963   4.806   1.351
 1084TIP3    H2 3259   4.914   4.667   1.318
 1085TIP3   OH2 3260   0.988   4.474   4.125
 1085TIP3    H1 3261   1.000   4.511   4.212
 1085TIP3    H2 3262   0.974   4.381   4.140
 1086TIP3   OH2 3263   0.354   4.138   0.364
 1086TIP3    H1 3264   0.354   4.213   0.304
 1086TIP3    H2 3265   0.262   4.111   0.370
 1087TIP3   OH2 3266   1.860   1.147   3.096
 1087TIP3    H1 3267   1.924   1.157   3.025
 1087TIP3    H2 3268   1.788   1.206   3.071
 1088TIP3   OH2 3269   2.161   5.850   2.231
 1088TIP3    H1 3270   2.095   5.806   2.178
 1088TIP3    H2 3271   2.111   5.897   2.297
 1089TIP3   OH2 3272   4.513   2.617   1.689
 1089TIP3    H1 3273   4.488   2.673   1.763
 1089TIP3    H2 3274   4.457   2.647   1.617
 1090TIP3   OH2 3275   5.965   4.300   1.189
 1090TIP3    H1 3276   5.981   4.259   1.274
 1090TIP3    H2 3277   5.886   4.352   1.202
 1091TIP3   OH2 3278   1.075   2.732   0.806
 1091TIP3    H1 3279   1.054   2.797   0.739
 1091TIP3    H2 3280   1.168   2.743   0.823
 1092TIP3   OH2 3281   0.508   2.344   0.308
 1092TIP3    H1 3282   0.552   2.277   0.256
 1092TIP3    H2 3283   0.570   2.364   0.379
 1093TIP3   OH2 3284   4.778   3.426   5.015
 1093TIP3    H1 3285   4.700   3.452   5.064
 1093TIP3    H2 3286   4.836   3.502   5.020
 1094TIP3   OH2 3287   0.502   3.837   1.791
 1094TIP3    H1 3288   0.500   3.744   1.814
 1094TIP3    H2 3289   0.421   3.851   1.742
 1095TIP3   OH2 3290   3.214   3.796   1.014
 1095TIP3    H1 3291   3.262   3.870   1.052
 1095TIP3    H2 3292   3.128   3.832   0.993
 1096TIP3   OH2 3293   0.244   3.108   0.818
 1096TIP3    H1 3294   0.267   3.178   0.756
 1096TIP3    H2 3295   0.260   3.146   0.904
 1097TIP3   OH2 3296   0.268   4.950   2.288
 1097TIP3    H1 3297   0.299   5.039   2.300
 1097TIP3    H2 3298   0.200   4.957   2.220
 1098TIP3   OH2 3299   5.562   0.986   1.476
 1098TIP3    H1 3300   5.635   0.959   1.532
 1098TIP3    H2 3301   5.500   1.028   1.535
 1099TIP3   OH2 3302   2.844   0.598   4.440
 1099TIP3    H1 3303   2.916   0.658   4.422
 1099TIP3    H2 3304   2.860   0.523   4.382
 1100TIP3   OH2 3305   2.385   5.957   2.417
 1100TIP3    H1 3306   2.345   5.994   2.339
 1100TIP3    H2 3307   2.469   5.922   2.388
 1101TIP3   OH2 3308   6.322   1.036   4.790
 1101TIP3    H1 3309   6.316   1.046   4.695
 1101TIP3    H2 3310   6.413   1.055   4.811
 1102TIP3   OH2 3311   4.416   2.999   3.567
 1102TIP3    H1 3312   4.400   2.906   3.551
 1102TIP3    H2 3313   4.504   3.002   3.605
 1103TIP3   OH2 3314   5.390   5.631   3.262
 1103TIP3    H1 3315   5.320   5.695   3.249
 1103TIP3    H2 3316   5.412   5.602   3.173
 1104TIP3   OH2 3317   4.726   0.825   1.743
 1104TIP3    H1 3318   4.776   0.873   1.677
 1104TIP3    H2 3319   4.779   0.832   1.823
 1105TIP3   OH2 3320   3.123   3.641   1.878
 1105TIP3    H1 3321   3.049   3.692   1.911
 1105TIP3    H2 3322   3.199   3.678   1.922
 1106TIP3   OH2 3323   4.398   3.188   3.842
 1106TIP3    H1 3324   4.401   3.245   3.765
 1106TIP3    H2 3325   4.487   3.187   3.875
 1107TIP3   OH2 3326   5.593   3.806   0.197
 1107TIP3    H1 3327   5.585   3.868   0.270
 1107TIP3    H2 3328   5.641   3.855   0.130
 1108TIP3   OH2 3329   3.894   3.975   0.707
 1108TIP3    H1 3330   3.905   3.926   0.789
 1108TIP3    H2 3331   3.937   4.058   0.723
 1109TIP3   OH2 3332   4.535   3.459   5.131
 1109TIP3    H1 3333   4.484   3.409   5.067
 1109TIP3    H2 3334   4.491   3.543   5.136
 1110TIP3   OH2 3335   4.685   2.031   4.547
 1110TIP3    H1 3336   4.723   1.976   4.480
 1110TIP3    H2 3337   4.674   1.973   4.623
 1111TIP3   OH2 3338   5.231   1.253   0.429
 1111TIP3    H1 3339   5.138   1.261   0.407
 1111TIP3    H2 3340   5.276   1.306   0.363
 1112TIP3   OH2 3341   2.786   1.030   2.812
 1112TIP3    H1 3342   2.804   1.029   2.717
 1112TIP3    H2 3343   2.705   1.080   2.820
 1113TIP3   OH2 3344   3.836   5.065   2.761
 1113TIP3    H1 3345   3.896   5.074   2.834
 1113TIP3    H2 3346   3.860   5.136   2.701
 1114TIP3   OH2 3347   1.335   5.240   0.464
 1114TIP3    H1 3348   1.323   5.197   0.549
 1114TIP3    H2 3349   1.346   5.332   0.485
 1115TIP3   OH2 3350   0.104   1.808   2.321
 1115TIP3    H1 3351   0.028   1.749   2.329
 1115TIP3    H2 3352   0.168   1.756   2.273
 1116TIP3   OH2 3353   1.259   1.935   2.967
 1116TIP3    H1 3354   1.262   2.005   2.902
 1116TIP3    H2 3355   1.351   1.917   2.987
 1117TIP3   OH2 3356   4.334   4.261   1.657
 1117TIP3    H1 3357   4.369   4.251   1.746
 1117TIP3    H2 3358   4.338   4.355   1.639
 1118TIP3   OH2 3359   4.357   4.455   3.934
 1118TIP3    H1 3360   4.373   4.362   3.921
 1118TIP3    H2 3361   4.381   4.472   4.025
 1119TIP3   OH2 3362   5.718   0.114   0.495
 1119TIP3    H1 3363   5.729   0.050   0.425
 1119TIP3    H2 3364   5.792   0.174   0.484
 1120TIP3   OH2 3365   3.606   4.455   0.993
 1120TIP3    H1 3366   3.624   4.488   1.081
 1120TIP3    H2 3367   3.692   4.445   0.953
 1121TIP3   OH2 3368   3.544   0.613   4.484
 1121TIP3    H1 3369   3.453   0.640   4.496
 1121TIP3    H2 3370   3.580   0.607   4.572
 1122TIP3   OH2 3371   5.388   4.825   0.116
 1122TIP3    H1 3372   5.443   4.900   0.092
 1122TIP3    H2 3373   5.370   4.839   0.209
 1123TIP3   OH2 3374   1.364   0.058   4.726
 1123TIP3    H1 3375   1.411   0.142   4.724
 1123TIP3    H2 3376   1.287   0.074   4.779
 1124TIP3   OH2 3377   2.082   5.249   3.594
 1124TIP3    H1 3378   2.063   5.227   3.685
 1124TIP3    H2 3379   2.016   5.315   3.571
 1125TIP3   OH2 3380   5.197   1.762   4.468
 1125TIP3    H1 3381   5.154   1.697   4.413
 1125TIP3    H2 3382   5.251   1.813   4.407
 1126TIP3   OH2 3383   4.176   0.021   3.922
 1126TIP3    H1 3384   4.268  -0.002   3.931
 1126TIP3    H2 3385   4.161   0.022   3.827
 1127TIP3   OH2 3386   5.672   1.653   0.073
 1127TIP3    H1 3387   5.761   1.673   0.045
 1127TIP3    H2 3388   5.629   1.738   0.078
 1128TIP3   OH2 3389   0.366   3.877   4.637
 1128TIP3    H1 3390   0.283   3.898   4.681
 1128TIP3    H2 3391   0.339   3.853   4.548
 1129TIP3   OH2 3392   0.029   4.548   1.896
 1129TIP3    H1 3393   0.029   4.618   1.831
 1129TIP3    H2 3394   0.025   4.594   1.980
 1130TIP3   OH2 3395   1.800   0.672   5.155
 1130TIP3    H1 3396   1.794   0.719   5.071
 1130TIP3    H2 3397   1.761   0.732   5.218
 1131TIP3   OH2 3398   5.833   0.713   3.153
 1131TIP3    H1 3399   5.912   0.668   3.184
 1131TIP3    H2 3400   5.859   0.805   3.146
 1132TIP3   OH2 3401   5.670   0.881   0.624
 1132TIP3    H1 3402   5.630   0.966   0.603
 1132TIP3    H2 3403   5.694   0.889   0.717
 1133TIP3   OH2 3404   5.234   2.584   2.899
 1133TIP3    H1 3405   5.179   2.629   2.963
 1133TIP3    H2 3406   5.198   2.610   2.814
 1134TIP3   OH2 3407   0.783   2.703   1.551
 1134TIP3    H1 3408   0.877   2.710   1.566
 1134TIP3    H2 3409   0.766   2.609   1.546
 1135TIP3   OH2 3410   4.025   3.536   2.398
 1135TIP3    H1 3411   3.942   3.494   2.420
 1135TIP3    H2 3412   4.057   3.571   2.481
 1136TIP3   OH2 3413   3.678   5.270   1.974
 1136TIP3    H1 3414   3.732   5.260   1.896
 1136TIP3    H2 3415   3.591   5.291   1.941
 1137TIP3   OH2 3416   4.914   5.039   1.834
 1137TIP3    H1 3417   4.851   4.969   1.853
 1137TIP3    H2 3418   4.922   5.086   1.917
 1138TIP3   OH2 3419   0.821   5.239   3.859
 1138TIP3    H1 3420   0.790   5.158   3.899
 1138TIP3    H2 3421   0.741   5.292   3.847
 1139TIP3   OH2 3422   1.068   1.634   1.079
 1139TIP3    H1 3423   1.081   1.576   1.154
 1139TIP3    H2 3424   1.112   1.590   1.007
 1140TIP3   OH2 3425   0.583   4.713   4.568
 1140TIP3    H1 3426   0.547   4.797   4.540
 1140TIP3    H2 3427   0.643   4.688   4.497
 1141TIP3   OH2 3428   2.177   1.798   1.556
 1141TIP3    H1 3429   2.263   1.797   1.599
 1141TIP3    H2 3430   2.115   1.819   1.626
 1142TIP3   OH2 3431   1.737   5.106   0.918
 1142TIP3    H1 3432   1.660   5.063   0.882
 1142TIP3    H2 3433   1.718   5.200   0.909
 1143TIP3   OH2 3434   4.088   0.558   2.215
 1143TIP3    H1 3435   3.993   0.564   2.200
 1143TIP3    H2 3436   4.117   0.649   2.224
 1144TIP3   OH2 3437   1.736   3.333   2.548
 1144TIP3    H1 3438   1.652   3.299   2.517
 1144TIP3    H2 3439   1.717   3.367   2.636
 1145TIP3   OH2 3440   2.282   3.502   0.246
 1145TIP3    H1 3441   2.266   3.415   0.281
 1145TIP3    H2 3442   2.374   3.502   0.220
 1146TIP3   OH2 3443   3.115   1.589   2.627
 1146TIP3    H1 3444   3.118   1.494   2.626
 1146TIP3    H2 3445   3.125   1.615   2.535
 1147TIP3   OH2 3446   6.196   3.061   3.433
 1147TIP3    H1 3447   6.242   3.039   3.352
 1147TIP3    H2 3448   6.200   3.156   3.438
 1148TIP3   OH2 3449   3.141   1.072   1.144
 1148TIP3    H1 3450   3.207   1.114   1.089
 1148TIP3    H2 3451   3.121   1.136   1.212
 1149TIP3   OH2 3452   4.715   4.177   3.231
 1149TIP3    H1 3453   4.775   4.251   3.220
 1149TIP3    H2 3454   4.685   4.183   3.321
 1150TIP3   OH2 3455   0.545   3.490   4.559
 1150TIP3    H1 3456   0.528   3.407   4.516
 1150TIP3    H2 3457   0.502   3.483   4.644
 1151TIP3   OH2 3458   1.093   3.976   1.692
 1151TIP3    H1 3459   1.175   3.938   1.724
 1151TIP3    H2 3460   1.025   3.933   1.743
 1152TIP3   OH2 3461   1.035   2.900   3.964
 1152TIP3    H1 3462   1.019   2.987   4.001
 1152TIP3    H2 3463   1.052   2.917   3.871
 1153TIP3   OH2 3464   4.405   4.542   0.257
 1153TIP3    H1 3465   4.451   4.558   0.175
 1153TIP3    H2 3466   4.428   4.451   0.279
 1154TIP3   OH2 3467   4.508   3.112   3.316
 1154TIP3    H1 3468   4.440   3.079   3.375
 1154TIP3    H2 3469   4.543   3.034   3.274
 1155TIP3   OH2 3470   1.313   2.422   3.566
 1155TIP3    H1 3471   1.379   2.448   3.503
 1155TIP3    H2 3472   1.232   2.415   3.515
 1156TIP3   OH2 3473   4.283   1.521   2.903
 1156TIP3    H1 3474   4.269   1.512   2.809
 1156TIP3    H2 3475   4.195   1.536   2.939
 1157TIP3   OH2 3476   0.390   1.967   4.257
 1157TIP3    H1 3477   0.450   1.903   4.218
 1157TIP3    H2 3478   0.400   1.955   4.352
 1158TIP3   OH2 3479   3.575   0.910   5.126
 1158TIP3    H1 3480   3.668   0.891   5.143
 1158TIP3    H2 3481   3.554   0.859   5.048
 1159TIP3   OH2 3482   3.260   5.218   1.458
 1159TIP3    H1 3483   3.329   5.227   1.524
 1159TIP3    H2 3484   3.238   5.125   1.460
 1160TIP3   OH2 3485   3.837   0.617   1.929
 1160TIP3    H1 3486   3.814   0.534   1.889
 1160TIP3    H2 3487   3.928   0.632   1.903
 1161TIP3   OH2 3488   3.427   0.445   0.542
 1161TIP3    H1 3489   3.432   0.414   0.451
 1161TIP3    H2 3490   3.513   0.482   0.560
 1162TIP3   OH2 3491   4.012   5.545   2.767
 1162TIP3    H1 3492   4.056   5.529   2.851
 1162TIP3    H2 3493   4.079   5.528   2.702
 1163TIP3   OH2 3494   1.578   3.622   4.477
 1163TIP3    H1 3495   1.604   3.538   4.514
 1163TIP3    H2 3496   1.610   3.620   4.387
 1164TIP3   OH2 3497   3.507   5.028   0.296
 1164TIP3    H1 3498   3.514   5.080   0.376
 1164TIP3    H2 3499   3.423   4.982   0.305
 1165TIP3   OH2 3500   0.472   5.085  -0.028
 1165TIP3    H1 3501   0.482   5.114   0.063
 1165TIP3    H2 3502   0.399   5.023  -0.025
 1166TIP3   OH2 3503   2.616   2.130   3.554
 1166TIP3    H1 3504   2.546   2.103   3.494
 1166TIP3    H2 3505   2.574   2.130   3.640
 1167TIP3   OH2 3506   3.865   1.547   3.189
 1167TIP3    H1 3507   3.817   1.622   3.225
 1167TIP3    H2 3508   3.922   1.585   3.122
 1168TIP3   OH2 3509   0.355   3.668   4.438
 1168TIP3    H1 3510   0.274   3.623   4.460
 1168TIP3    H2 3511   0.418   3.638   4.504
 1169TIP3   OH2 3512   0.033   4.236   2.887
 1169TIP3    H1 3513   0.094   4.246   2.814
 1169TIP3    H2 3514  -0.020   4.315   2.884
 1170TIP3   OH2 3515   2.708   0.692   2.344
 1170TIP3    H1 3516   2.643   0.753   2.379
 1170TIP3    H2 3517   2.673   0.606   2.364
 1171TIP3   OH2 3518   4.414   4.542   1.640
 1171TIP3    H1 3519   4.341   4.603   1.649
 1171TIP3    H2 3520   4.484   4.581   1.693
 1172TIP3   OH2 3521   5.848   5.613   1.206
 1172TIP3    H1 3522   5.882   5.700   1.189
 1172TIP3    H2 3523   5.886   5.588   1.290
 1173TIP3   OH2 3524   4.446   2.808   0.860
 1173TIP3    H1 3525   4.512   2.836   0.797
 1173TIP3    H2 3526   4.482   2.727   0.898
 1174TIP3   OH2 3527   4.902   3.329   3.687
 1174TIP3    H1 3528   4.865   3.300   3.771
 1174TIP3    H2 3529   4.835   3.309   3.623
 1175TIP3   OH2 3530   3.798   3.667   0.390
 1175TIP3    H1 3531   3.820   3.586   0.344
 1175TIP3    H2 3532   3.877   3.688   0.440
 1176TIP3   OH2 3533   2.522   1.608   3.225
 1176TIP3    H1 3534   2.580   1.682   3.210
 1176TIP3    H2 3535   2.579   1.532   3.223
 1177TIP3   OH2 3536   1.296   3.637   3.036
 1177TIP3    H1 3537   1.264   3.611   3.122
 1177TIP3    H2 3538   1.217   3.663   2.988
 1178TIP3   OH2 3539   3.614   1.051   4.331
 1178TIP3    H1 3540   3.657   1.130   4.365
 1178TIP3    H2 3541   3.577   1.078   4.247
 1179TIP3   OH2 3542   0.937  -0.018   4.735
 1179TIP3    H1 3543   0.849   0.015   4.714
 1179TIP3    H2 3544   0.978   0.054   4.783
 1180TIP3   OH2 3545   0.150   2.406   1.039
 1180TIP3    H1 3546   0.242   2.420   1.060
 1180TIP3    H2 3547   0.139   2.311   1.038
 1181TIP3   OH2 3548   0.906   4.495   1.868
 1181TIP3    H1 3549   0.948   4.495   1.955
 1181TIP3    H2 3550   0.827   4.442   1.879
 1182TIP3   OH2 3551   2.420   2.034   1.757
 1182TIP3    H1 3552   2.412   2.022   1.662
 1182TIP3    H2 3553   2.494   2.095   1.767
 1183TIP3   OH2 3554   5.085   4.843   2.649
 1183TIP3    H1 3555   5.023   4.898   2.698
 1183TIP3    H2 3556   5.083   4.879   2.560
 1184TIP3   OH2 3557   0.251   4.925   5.017
 1184TIP3    H1 3558   0.216   4.836   5.028
 1184TIP3    H2 3559   0.279   4.928   4.926
 1185TIP3   OH2 3560   2.555   3.770   2.247
 1185TIP3    H1 3561   2.553   3.789   2.341
 1185TIP3    H2 3562   2.471   3.729   2.229
 1186TIP3   OH2 3563   1.262   2.162   2.812
 1186TIP3    H1 3564   1.172   2.146   2.785
 1186TIP3    H2 3565   1.266   2.257   2.827
 1187TIP3   OH2 3566   6.336   4.829   2.691
 1187TIP3    H1 3567   6.396   4.792   2.626
 1187TIP3    H2 3568   6.272   4.879   2.639
 1188TIP3   OH2 3569   3.031   2.704   3.178
 1188TIP3    H1 3570   3.122   2.712   3.206
 1188TIP3    H2 3571   2.983   2.767   3.232
 1189TIP3   OH2 3572   0.610   2.140   1.462
 1189TIP3    H1 3573   0.682   2.131   1.524
 1189TIP3    H2 3574   0.649   2.122   1.376
 1190TIP3   OH2 3575   6.232   2.519   3.862
 1190TIP3    H1 3576   6.240   2.559   3.949
 1190TIP3    H2 3577   6.319   2.485   3.843
 1191TIP3   OH2 3578   0.465   3.744   4.878
 1191TIP3    H1 3579   0.458   3.649   4.873
 1191TIP3    H2 3580   0.435   3.775   4.792
 1192TIP3   OH2 3581   0.417   4.419   4.233
 1192TIP3    H1 3582   0.395   4.374   4.314
 1192TIP3    H2 3583   0.473   4.358   4.186
 1193TIP3   OH2 3584   0.476   5.508   2.102
 1193TIP3    H1 3585   0.516   5.460   2.030
 1193TIP3    H2 3586   0.507   5.463   2.181
 1194TIP3   OH2 3587   6.121   4.647   3.469
 1194TIP3    H1 3588   6.191   4.651   3.534
 1194TIP3    H2 3589   6.047   4.609   3.516
 1195TIP3   OH2 3590   4.618   5.714   2.152
 1195TIP3    H1 3591   4.577   5.641   2.106
 1195TIP3    H2 3592   4.710   5.711   2.124
 1196TIP3   OH2 3593   0.286   5.001   3.014
 1196TIP3    H1 3594   0.285   5.085   3.059
 1196TIP3    H2 3595   0.375   4.967   3.029
 1197TIP3   OH2 3596   2.419   2.016   3.400
 1197TIP3    H1 3597   2.350   1.955   3.428
 1197TIP3    H2 3598   2.423   2.004   3.305
 1198TIP3   OH2 3599   3.189   2.048   4.232
 1198TIP3    H1 3600   3.271   2.089   4.205
 1198TIP3    H2 3601   3.168   2.089   4.316
 1199TIP3   OH2 3602   2.881   2.591   2.372
 1199TIP3    H1 3603   2.928   2.581   2.454
 1199TIP3    H2 3604   2.809   2.651   2.392
 1200TIP3   OH2 3605   5.639   5.974   1.260
 1200TIP3    H1 3606   5.731   5.988   1.237
 1200TIP3    H2 3607   5.642   5.917   1.337
 1201TIP3   OH2 3608   2.069   1.847   0.029
 1201TIP3    H1 3609   2.002   1.904  -0.008
 1201TIP3    H2 3610   2.057   1.853   0.124
 1202TIP3   OH2 3611   5.413   4.344   4.906
 1202TIP3    H1 3612   5.483   4.338   4.971
 1202TIP3    H2 3613   5.333   4.349   4.959
 1203TIP3   OH2 3614   5.972   3.443   5.057
 1203TIP3    H1 3615   5.965   3.451   5.152
 1203TIP3    H2 3616   5.891   3.483   5.024
 1204TIP3   OH2 3617   4.751   5.485  -0.026
 1204TIP3    H1 3618   4.724   5.395  -0.004
 1204TIP3    H2 3619   4.709   5.539   0.041
 1205TIP3   OH2 3620   5.594   4.075   3.216
 1205TIP3    H1 3621   5.656   4.002   3.218
 1205TIP3    H2 3622   5.558   4.074   3.127
 1206TIP3   OH2 3623   6.367   4.895   3.345
 1206TIP3    H1 3624   6.278   4.923   3.325
 1206TIP3    H2 3625   6.379   4.814   3.295
 1207TIP3   OH2 3626   1.771   0.448   4.046
 1207TIP3    H1 3627   1.697   0.509   4.049
 1207TIP3    H2 3628   1.846   0.502   4.021
 1208TIP3   OH2 3629   3.256   1.999   0.357
 1208TIP3    H1 3630   3.256   2.078   0.412
 1208TIP3    H2 3631   3.177   2.006   0.304
 1209TIP3   OH2 3632   6.176   0.243   2.745
 1209TIP3    H1 3633   6.239   0.222   2.814
 1209TIP3    H2 3634   6.228   0.285   2.676
 1210TIP3   OH2 3635   0.447   2.224   3.577
 1210TIP3    H1 3636   0.495   2.153   3.534
 1210TIP3    H2 3637   0.378   2.179   3.627
 1211TIP3   OH2 3638   3.614   5.439   3.289
 1211TIP3    H1 3639   3.550   5.454   3.219
 1211TIP3    H2 3640   3.692   5.407   3.244
 1212TIP3   OH2 3641   0.201   4.554   2.922
 1212TIP3    H1 3642   0.157   4.492   2.865
 1212TIP3    H2 3643   0.137   4.624   2.936
 1213TIP3   OH2 3644   3.737   1.079   0.089
 1213TIP3    H1 3645   3.676   1.152   0.082
 1213TIP3    H2 3646   3.817   1.118   0.122
 1214TIP3   OH2 3647   1.668   4.200   5.056
 1214TIP3    H1 3648   1.592   4.148   5.081
 1214TIP3    H2 3649   1.714   4.147   4.991
 1215TIP3   OH2 3650   1.825   2.249   2.325
 1215TIP3    H1 3651   1.742   2.202   2.318
 1215TIP3    H2 3652   1.863   2.218   2.408
 1216TIP3   OH2 3653   2.450   2.285   5.011
 1216TIP3    H1 3654   2.392   2.289   5.088
 1216TIP3    H2 3655   2.525   2.234   5.040
 1217TIP3   OH2 3656   0.300   5.079   1.321
 1217TIP3    H1 3657   0.337   5.021   1.255
 1217TIP3    H2 3658   0.264   5.019   1.387
 1218TIP3   OH2 3659   4.635   0.470   1.790
 1218TIP3    H1 3660   4.588   0.547   1.823
 1218TIP3    H2 3661   4.721   0.504   1.765
 1219TIP3   OH2 3662   4.634   2.145   0.296
 1219TIP3    H1 3663   4.613   2.072   0.239
 1219TIP3    H2 3664   4.589   2.126   0.378
 1220TIP3   OH2 3665   5.628   0.605   3.322
 1220TIP3    H1 3666   5.669   0.676   3.370
 1220TIP3    H2 3667   5.679   0.599   3.241
 1221TIP3   OH2 3668   0.536   3.320   1.960
 1221TIP3    H1 3669   0.626   3.302   1.933
 1221TIP3    H2 3670   0.523   3.264   2.036
 1222TIP3   OH2 3671   2.780   0.434   0.838
 1222TIP3    H1 3672   2.807   0.516   0.878
 1222TIP3    H2 3673   2.689   0.447   0.813
 1223TIP3   OH2 3674   5.365   4.269   3.335
 1223TIP3    H1 3675   5.431   4.205   3.308
 1223TIP3    H2 3676   5.387   4.348   3.286
 1224TIP3   OH2 3677   1.917   2.120   0.894
 1224TIP3    H1 3678   1.844   2.090   0.948
 1224TIP3    H2 3679   1.943   2.204   0.932
 1225TIP3   OH2 3680   5.926   3.219   0.254
 1225TIP3    H1 3681   5.913   3.264   0.338
 1225TIP3    H2 3682   5.920   3.289   0.189
 1226TIP3   OH2 3683   3.393   1.615   2.280
 1226TIP3    H1 3684   3.468   1.668   2.256
 1226TIP3    H2 3685   3.428   1.526   2.287
 1227TIP3   OH2 3686   4.370   1.726   3.766
 1227TIP3    H1 3687   4.384   1.808   3.813
 1227TIP3    H2 3688   4.446   1.672   3.788
 1228TIP3   OH2 3689   5.928   4.792   1.112
 1228TIP3    H1 3690   5.864   4.849   1.069
 1228TIP3    H2 3691   5.990   4.769   1.043
 1229TIP3   OH2 3692   0.202   2.860   2.635
 1229TIP3    H1 3693   0.119   2.875   2.681
 1229TIP3    H2 3694   0.177   2.815   2.554
 1230TIP3   OH2 3695   0.264   1.112   1.428
 1230TIP3    H1 3696   0.293   1.022   1.413
 1230TIP3    H2 3697   0.180   1.119   1.382
 1231TIP3   OH2 3698   1.932   5.764   1.222
 1231TIP3    H1 3699   1.877   5.805   1.288
 1231TIP3    H2 3700   2.019   5.800   1.237
 1232TIP3   OH2 3701   0.371   4.618   2.543
 1232TIP3    H1 3702   0.361   4.650   2.632
 1232TIP3    H2 3703   0.466   4.609   2.531
 1233TIP3   OH2 3704   2.271   2.552   2.971
 1233TIP3    H1 3705   2.249   2.461   2.951
 1233TIP3    H2 3706   2.257   2.598   2.888
 1234TIP3   OH2 3707   2.932   4.279   2.225
 1234TIP3    H1 3708   2.952   4.287   2.132
 1234TIP3    H2 3709   2.861   4.342   2.240
 1235TIP3   OH2 3710   4.776   5.074   2.300
 1235TIP3    H1 3711   4.805   4.990   2.266
 1235TIP3    H2 3712   4.680   5.072   2.290
 1236TIP3   OH2 3713   6.213   0.934   1.837
 1236TIP3    H1 3714   6.155   0.986   1.781
 1236TIP3    H2 3715   6.292   0.988   1.846
 1237TIP3   OH2 3716   4.952   3.981   1.819
 1237TIP3    H1 3717   4.868   4.010   1.783
 1237TIP3    H2 3718   4.979   3.910   1.761
 1238TIP3   OH2 3719   3.776   2.633   1.058
 1238TIP3    H1 3720   3.725   2.678   0.990
 1238TIP3    H2 3721   3.772   2.540   1.034
 1239TIP3   OH2 3722   3.332   1.672   2.774
 1239TIP3    H1 3723   3.239   1.656   2.758
 1239TIP3    H2 3724   3.360   1.599   2.829
 1240TIP3   OH2 3725   1.596   5.205   5.077
 1240TIP3    H1 3726   1.563   5.231   4.991
 1240TIP3    H2 3727   1.663   5.140   5.058
 1241TIP3   OH2 3728   0.182   5.845   2.258
 1241TIP3    H1 3729   0.129   5.917   2.225
 1241TIP3    H2 3730   0.179   5.779   2.189
 1242TIP3   OH2 3731   5.839   1.756   4.683
 1242TIP3    H1 3732   5.791   1.713   4.612
 1242TIP3    H2 3733   5.932   1.744   4.660
 1243TIP3   OH2 3734   1.900   2.138   3.368
 1243TIP3    H1 3735   1.893   2.210   3.430
 1243TIP3    H2 3736   1.866   2.062   3.415
 1244TIP3   OH2 3737   0.815   3.130   2.063
 1244TIP3    H1 3738   0.805   3.108   2.155
 1244TIP3    H2 3739   0.738   3.092   2.021
 1245TIP3   OH2 3740   1.711   1.105   1.784
 1245TIP3    H1 3741   1.647   1.143   1.844
 1245TIP3    H2 3742   1.658   1.070   1.712
 1246TIP3   OH2 3743   2.921   5.075   3.253
 1246TIP3    H1 3744   2.996   5.017   3.271
 1246TIP3    H2 3745   2.895   5.107   3.339
 1247TIP3   OH2 3746   3.063   5.326   2.148
 1247TIP3    H1 3747   3.103   5.375   2.077
 1247TIP3    H2 3748   3.137   5.290   2.197
 1248TIP3   OH2 3749   1.033   5.688   1.770
 1248TIP3    H1 3750   0.962   5.696   1.706
 1248TIP3    H2 3751   1.113   5.686   1.718
 1249TIP3   OH2 3752   5.736   4.264   3.362
 1249TIP3    H1 3753   5.816   4.246   3.312
 1249TIP3    H2 3754   5.669   4.211   3.321
 1250TIP3   OH2 3755   3.186   2.812  -0.014
 1250TIP3    H1 3756   3.275   2.792  -0.040
 1250TIP3    H2 3757   3.191   2.830   0.080
 1251TIP3   OH2 3758   1.130   1.486   1.288
 1251TIP3    H1 3759   1.225   1.484   1.277
 1251TIP3    H2 3760   1.107   1.398   1.317
 1252TIP3   OH2 3761   1.623   5.348   3.740
 1252TIP3    H1 3762   1.608   5.436   3.706
 1252TIP3    H2 3763   1.570   5.291   3.685
 1253TIP3   OH2 3764   3.114   2.004   0.031
 1253TIP3    H1 3765   3.061   2.023  -0.046
 1253TIP3    H2 3766   3.051   1.973   0.096
 1254TIP3   OH2 3767   2.413   4.624   4.758
 1254TIP3    H1 3768   2.423   4.529   4.753
 1254TIP3    H2 3769   2.452   4.657   4.677
 1255TIP3   OH2 3770   2.406   4.336   4.149
 1255TIP3    H1 3771   2.491   4.380   4.148
 1255TIP3    H2 3772   2.342   4.406   4.157
 1256TIP3   OH2 3773   0.814   3.280   1.815
 1256TIP3    H1 3774   0.760   3.308   1.741
 1256TIP3    H2 3775   0.865   3.207   1.782
 1257TIP3   OH2 3776   6.219   5.886   3.865
 1257TIP3    H1 3777   6.133   5.907   3.828
 1257TIP3    H2 3778   6.277   5.878   3.789
 1258TIP3   OH2 3779   5.865   5.148   3.772
 1258TIP3    H1 3780   5.913   5.158   3.854
 1258TIP3    H2 3781   5.933   5.128   3.707
 1259TIP3   OH2 3782   1.384   0.676   3.083
 1259TIP3    H1 3783   1.437   0.652   3.159
 1259TIP3    H2 3784   1.435   0.744   3.038
 1260TIP3   OH2 3785   2.382   0.232   4.791
 1260TIP3    H1 3786   2.308   0.174   4.810
 1260TIP3    H2 3787   2.357   0.276   4.709
 1261TIP3   OH2 3788   6.244   4.460   1.611
 1261TIP3    H1 3789   6.255   4.401   1.537
 1261TIP3    H2 3790   6.277   4.410   1.686
 1262TIP3   OH2 3791   5.066   0.541   2.734
 1262TIP3    H1 3792   5.129   0.516   2.801
 1262TIP3    H2 3793   4.982   0.544   2.780
 1263TIP3   OH2 3794   5.086   5.999   3.640
 1263TIP3    H1 3795   5.147   6.042   3.700
 1263TIP3    H2 3796   5.083   5.908   3.670
 1264TIP3   OH2 3797   5.737   2.242   2.055
 1264TIP3    H1 3798   5.795   2.259   1.981
 1264TIP3    H2 3799   5.662   2.301   2.041
 1265TIP3   OH2 3800   0.321   3.436   3.153
 1265TIP3    H1 3801   0.416   3.451   3.151
 1265TIP3    H2 3802   0.282   3.522   3.139
 1266TIP3   OH2 3803   5.059   1.105   0.784
 1266TIP3    H1 3804   5.011   1.152   0.716
 1266TIP3    H2 3805   5.072   1.170   0.853
 1267TIP3   OH2 3806   0.831   3.334   0.251
 1267TIP3    H1 3807   0.799   3.419   0.219
 1267TIP3    H2 3808   0.806   3.273   0.182
 1268TIP3   OH2 3809   4.535   5.777   3.554
 1268TIP3    H1 3810   4.521   5.849   3.616
 1268TIP3    H2 3811   4.587   5.815   3.484
 1269TIP3   OH2 3812   5.889   2.343   1.240
 1269TIP3    H1 3813   5.796   2.361   1.229
 1269TIP3    H2 3814   5.903   2.345   1.335
 1270TIP3   OH2 3815   5.802   0.325   0.300
 1270TIP3    H1 3816   5.806   0.420   0.296
 1270TIP3    H2 3817   5.824   0.296   0.212
 1271TIP3   OH2 3818   2.984   0.177   4.148
 1271TIP3    H1 3819   2.987   0.130   4.232
 1271TIP3    H2 3820   3.036   0.124   4.088
 1272TIP3   OH2 3821   3.236   1.989   4.786
 1272TIP3    H1 3822   3.287   1.946   4.854
 1272TIP3    H2 3823   3.171   1.924   4.759
 1273TIP3   OH2 3824   4.173   4.420   4.552
 1273TIP3    H1 3825   4.261   4.418   4.590
 1273TIP3    H2 3826   4.178   4.490   4.486
 1274TIP3   OH2 3827   0.249   2.345   2.941
 1274TIP3    H1 3828   0.247   2.251   2.958
 1274TIP3    H2 3829   0.338   2.373   2.962
 1275TIP3   OH2 3830   1.177   0.825   4.185
 1275TIP3    H1 3831   1.159   0.869   4.101
 1275TIP3    H2 3832   1.174   0.732   4.164
 1276TIP3   OH2 3833   3.852   0.402   2.346
 1276TIP3    H1 3834   3.847   0.332   2.282
 1276TIP3    H2 3835   3.841   0.482   2.295
 1277TIP3   OH2 3836   2.976   3.568   4.152
 1277TIP3    H1 3837   2.999   3.500   4.215
 1277TIP3    H2 3838   3.048   3.631   4.159
 1278TIP3   OH2 3839   3.899   2.871   2.407
 1278TIP3    H1 3840   3.837   2.888   2.478
 1278TIP3    H2 3841   3.985   2.890   2.444
 1279TIP3   OH2 3842   5.815   3.022   1.293
 1279TIP3    H1 3843   5.790   3.075   1.368
 1279TIP3    H2 3844   5.904   2.993   1.313
 1280TIP3   OH2 3845   1.841   5.000   0.416
 1280TIP3    H1 3846   1.926   5.043   0.411
 1280TIP3    H2 3847   1.778   5.070   0.397
 1281TIP3   OH2 3848   1.307   0.236   1.321
 1281TIP3    H1 3849   1.356   0.159   1.292
 1281TIP3    H2 3850   1.284   0.281   1.240
 1282TIP3   OH2 3851   5.527   5.052   0.922
 1282TIP3    H1 3852   5.553   5.128   0.871
 1282TIP3    H2 3853   5.448   5.079   0.969
 1283TIP3   OH2 3854   5.635   3.865   1.798
 1283TIP3    H1 3855   5.677   3.951   1.791
 1283TIP3    H2 3856   5.696   3.805   1.756
 1284TIP3   OH2 3857   5.702   2.910   0.544
 1284TIP3    H1 3858   5.716   2.992   0.592
 1284TIP3    H2 3859   5.706   2.842   0.612
 1285TIP3   OH2 3860   4.867   1.436   2.117
 1285TIP3    H1 3861   4.792   1.419   2.060
 1285TIP3    H2 3862   4.944   1.416   2.063
 1286TIP3   OH2 3863   5.385   5.356   2.412
 1286TIP3    H1 3864   5.478   5.335   2.422
 1286TIP3    H2 3865   5.343   5.321   2.490
 1287TIP3   OH2 3866   4.034   1.167   3.611
 1287TIP3    H1 3867   4.064   1.076   3.615
 1287TIP3    H2 3868   4.005   1.178   3.520
 1288TIP3   OH2 3869   1.449   1.094   4.095
 1288TIP3    H1 3870   1.468   1.060   4.008
 1288TIP3    H2 3871   1.441   1.189   4.082
 1289TIP3   OH2 3872   3.118   5.618   1.498
 1289TIP3    H1 3873   3.138   5.706   1.530
 1289TIP3    H2 3874   3.028   5.623   1.466
 1290TIP3   OH2 3875   3.712   0.876   3.766
 1290TIP3    H1 3876   3.739   0.841   3.851
 1290TIP3    H2 3877   3.660   0.954   3.787
 1291TIP3   OH2 3878   3.505   3.278   4.792
 1291TIP3    H1 3879   3.573   3.211   4.804
 1291TIP3    H2 3880   3.429   3.243   4.837
 1292TIP3   OH2 3881   5.414   4.502   3.196
 1292TIP3    H1 3882   5.411   4.530   3.105
 1292TIP3    H2 3883   5.358   4.564   3.242
 1293TIP3   OH2 3884   2.872   3.724   5.195
 1293TIP3    H1 3885   2.907   3.812   5.179
 1293TIP3    H2 3886   2.780   3.730   5.168
 1294TIP3   OH2 3887   4.805   0.637   2.339
 1294TIP3    H1 3888   4.752   0.713   2.313
 1294TIP3    H2 3889   4.774   0.614   2.426
 1295TIP3   OH2 3890   1.107   5.591   0.711
 1295TIP3    H1 3891   1.202   5.600   0.707
 1295TIP3    H2 3892   1.076   5.677   0.739
 1296TIP3   OH2 3893   3.661   4.255   5.086
 1296TIP3    H1 3894   3.645   4.285   5.176
 1296TIP3    H2 3895   3.737   4.307   5.057
 1297TIP3   OH2 3896   3.162   5.729   4.270
 1297TIP3    H1 3897   3.134   5.678   4.346
 1297TIP3    H2 3898   3.146   5.671   4.195
 1298TIP3   OH2 3899   2.274   4.297   3.535
 1298TIP3    H1 3900   2.285   4.245   3.615
 1298TIP3    H2 3901   2.311   4.382   3.558
 1299TIP3   OH2 3902   0.079   2.552   3.076
 1299TIP3    H1 3903   0.128   2.543   3.158
 1299TIP3    H2 3904   0.114   2.481   3.020
 1300TIP3   OH2 3905   4.528   3.386   1.394
 1300TIP3    H1 3906   4.536   3.460   1.334
 1300TIP3    H2 3907   4.617   3.355   1.405
 1301TIP3   OH2 3908   1.857   5.142   2.481
 1301TIP3    H1 3909   1.866   5.178   2.393
 1301TIP3    H2 3910   1.916   5.195   2.535
 1302TIP3   OH2 3911   0.400   4.019   2.322
 1302TIP3    H1 3912   0.446   3.935   2.321
 1302TIP3    H2 3913   0.428   4.061   2.403
 1303TIP3   OH2 3914   3.235   5.458   0.031
 1303TIP3    H1 3915   3.272   5.432  -0.053
 1303TIP3    H2 3916   3.309   5.452   0.093
 1304TIP3   OH2 3917   1.366   3.819   1.160
 1304TIP3    H1 3918   1.306   3.839   1.232
 1304TIP3    H2 3919   1.451   3.805   1.202
 1305TIP3   OH2 3920   2.437   4.923   3.037
 1305TIP3    H1 3921   2.401   4.888   3.119
 1305TIP3    H2 3922   2.526   4.949   3.059
 1306TIP3   OH2 3923   1.147   4.713   4.158
 1306TIP3    H1 3924   1.114   4.630   4.123
 1306TIP3    H2 3925   1.239   4.714   4.134
 1307TIP3   OH2 3926   3.280   0.129   4.492
 1307TIP3    H1 3927   3.330   0.141   4.411
 1307TIP3    H2 3928   3.324   0.186   4.555
 1308TIP3   OH2 3929   1.369   3.210   3.245
 1308TIP3    H1 3930   1.430   3.253   3.185
 1308TIP3    H2 3931   1.319   3.281   3.284
 1309TIP3   OH2 3932   0.316   3.470   1.994
 1309TIP3    H1 3933   0.389   3.409   1.987
 1309TIP3    H2 3934   0.239   3.418   1.968
 1310TIP3   OH2 3935   5.324   3.533   2.885
 1310TIP3    H1 3936   5.367   3.618   2.883
 1310TIP3    H2 3937   5.250   3.542   2.826
 1311TIP3   OH2 3938   6.000   2.923   0.424
 1311TIP3    H1 3939   6.057   2.926   0.348
 1311TIP3    H2 3940   5.934   2.857   0.402
 1312TIP3   OH2 3941   1.663   2.071   1.042
 1312TIP3    H1 3942   1.569   2.090   1.034
 1312TIP3    H2 3943   1.683   2.089   1.134
 1313TIP3   OH2 3944   3.491   1.648   4.904
 1313TIP3    H1 3945   3.541   1.621   4.827
 1313TIP3    H2 3946   3.430   1.714   4.871
 1314TIP3   OH2 3947   0.943   2.258   3.336
 1314TIP3    H1 3948   1.024   2.288   3.294
 1314TIP3    H2 3949   0.963   2.169   3.367
 1315TIP3   OH2 3950   5.428   5.945   2.596
 1315TIP3    H1 3951   5.512   5.900   2.600
 1315TIP3    H2 3952   5.384   5.922   2.678
 1316TIP3   OH2 3953   2.464   5.710   1.471
 1316TIP3    H1 3954   2.511   5.715   1.387
 1316TIP3    H2 3955   2.468   5.618   1.495
 1317TIP3   OH2 3956   0.054   5.880   3.315
 1317TIP3    H1 3957  -0.024   5.935   3.312
 1317TIP3    H2 3958   0.127   5.942   3.312
 1318TIP3   OH2 3959   0.254   0.150   4.331
 1318TIP3    H1 3960   0.178   0.208   4.339
 1318TIP3    H2 3961   0.262   0.108   4.416
 1319TIP3   OH2 3962   0.773   4.710   1.786
 1319TIP3    H1 3963   0.706   4.659   1.832
 1319TIP3    H2 3964   0.855   4.664   1.803
 1320TIP3   OH2 3965   1.802   1.310   3.961
 1320TIP3    H1 3966   1.884   1.355   3.983
 1320TIP3    H2 3967   1.734   1.376   3.975
 1321TIP3   OH2 3968   2.131   3.084   2.312
 1321TIP3    H1 3969   2.196   3.081   2.382
 1321TIP3    H2 3970   2.079   3.004   2.324
 1322TIP3   OH2 3971   1.755   5.883   2.216
 1322TIP3    H1 3972   1.744   5.944   2.143
 1322TIP3    H2 3973   1.667   5.875   2.253
 1323TIP3   OH2 3974   0.775   5.221   2.291
 1323TIP3    H1 3975   0.820   5.160   2.350
 1323TIP3    H2 3976   0.846   5.262   2.241
 1324TIP3   OH2 3977   3.212   3.691   5.033
 1324TIP3    H1 3978   3.301   3.664   5.011
 1324TIP3    H2 3979   3.159   3.662   4.959
 1325TIP3   OH2 3980   4.475   1.455   4.918
 1325TIP3    H1 3981   4.541   1.408   4.970
 1325TIP3    H2 3982   4.519   1.472   4.834
 1326TIP3   OH2 3983   5.672   4.940   0.553
 1326TIP3    H1 3984   5.705   5.028   0.535
 1326TIP3    H2 3985   5.583   4.954   0.584
 1327TIP3   OH2 3986   3.637   5.182   0.518
 1327TIP3    H1 3987   3.603   5.176   0.608
 1327TIP3    H2 3988   3.706   5.248   0.523
 1328TIP3   OH2 3989   5.883   2.545   4.169
 1328TIP3    H1 3990   5.810   2.538   4.230
 1328TIP3    H2 3991   5.960   2.558   4.224
 1329TIP3   OH2 3992   2.372   0.263   1.699
 1329TIP3    H1 3993   2.461   0.234   1.677
 1329TIP3    H2 3994   2.323   0.181   1.711
 1330TIP3   OH2 3995   6.062   3.137   4.218
 1330TIP3    H1 3996   6.107   3.178   4.291
 1330TIP3    H2 3997   6.053   3.045   4.244
 1331TIP3   OH2 3998   6.238   4.065   4.629
 1331TIP3    H1 3999   6.209   4.011   4.702
 1331TIP3    H2 4000   6.325   4.031   4.607
 1332TIP3   OH2 4001   1.345   3.577   2.059
 1332TIP3    H1 4002   1.290   3.535   1.993
 1332TIP3    H2 4003   1.339   3.520   2.135
 1333TIP3   OH2 4004   3.226   4.854   1.786
 1333TIP3    H1 4005   3.257   4.880   1.699
 1333TIP3    H2 4006   3.184   4.932   1.821
 1334TIP3   OH2 4007   1.136   5.842   4.751
 1334TIP3    H1 4008   1.083   5.887   4.817
 1334TIP3    H2 4009   1.205   5.904   4.729
 1335TIP3   OH2 4010   6.262   1.917   1.847
 1335TIP3    H1 4011   6.335   1.941   1.789
 1335TIP3    H2 4012   6.294   1.843   1.897
 1336TIP3   OH2 4013   4.696   0.856   4.863
 1336TIP3    H1 4014   4.748   0.934   4.880
 1336TIP3    H2 4015   4.747   0.806   4.800
 1337TIP3   OH2 4016   4.006   1.731   1.673
 1337TIP3    H1 4017   3.958   1.753   1.753
 1337TIP3    H2 4018   4.084   1.685   1.704
 1338TIP3   OH2 4019   6.348   1.531   3.111
 1338TIP3    H1 4020   6.300   1.525   3.194
 1338TIP3    H2 4021   6.364   1.625   3.100
 1339TIP3   OH2 4022   1.969   1.900   1.691
 1339TIP3    H1 4023   1.900   1.967   1.687
 1339TIP3    H2 4024   2.008   1.910   1.778
 1340TIP3   OH2 4025   4.371   5.485   4.844
 1340TIP3    H1 4026   4.295   5.538   4.818
 1340TIP3    H2 4027   4.446   5.543   4.832
 1341TIP3   OH2 4028   6.119   2.725   1.127
 1341TIP3    H1 4029   6.213   2.711   1.134
 1341TIP3    H2 4030   6.099   2.787   1.198
 1342TIP3   OH2 4031   4.823   5.443   2.818
 1342TIP3    H1 4032   4.853   5.533   2.834
 1342TIP3    H2 4033   4.865   5.391   2.886
 1343TIP3   OH2 4034   4.200   3.835   0.903
 1343TIP3    H1 4035   4.237   3.916   0.939
 1343TIP3    H2 4036   4.228   3.834   0.812
 1344TIP3   OH2 4037   2.082   1.277   3.829
 1344TIP3    H1 4038   2.125   1.192   3.836
 1344TIP3    H2 4039   2.153   1.340   3.846
 1345TIP3   OH2 4040   3.801   1.011   2.719
 1345TIP3    H1 4041   3.718   1.022   2.673
 1345TIP3    H2 4042   3.793   0.927   2.764
 1346TIP3   OH2 4043   4.106   3.750   4.421
 1346TIP3    H1 4044   4.075   3.661   4.404
 1346TIP3    H2 4045   4.026   3.800   4.439
 1347TIP3   OH2 4046   1.481   2.396   1.143
 1347TIP3    H1 4047   1.406   2.432   1.190
 1347TIP3    H2 4048   1.554   2.403   1.205
 1348TIP3   OH2 4049   5.856   4.031   0.178
 1348TIP3    H1 4050   5.918   3.966   0.145
 1348TIP3    H2 4051   5.823   4.075   0.100
 1349TIP3   OH2 4052   2.045   3.832   0.967
 1349TIP3    H1 4053   2.027   3.826   1.061
 1349TIP3    H2 4054   2.137   3.855   0.961
 1350TIP3   OH2 4055   3.729   3.432  -0.002
 1350TIP3    H1 4056   3.725   3.452   0.092
 1350TIP3    H2 4057   3.763   3.512  -0.042
 1351TIP3   OH2 4058   5.704   5.022   3.345
 1351TIP3    H1 4059   5.797   5.021   3.366
 1351TIP3    H2 4060   5.698   5.072   3.263
 1352TIP3   OH2 4061   3.101   5.190   0.457
 1352TIP3    H1 4062   3.041   5.200   0.383
 1352TIP3    H2 4063   3.108   5.095   0.469
 1353TIP3   OH2 4064   1.725   5.962   2.554
 1353TIP3    H1 4065   1.686   5.997   2.634
 1353TIP3    H2 4066   1.792   5.901   2.585
 1354TIP3   OH2 4067   2.632   5.293   1.198
 1354TIP3    H1 4068   2.540   5.285   1.175
 1354TIP3    H2 4069   2.660   5.375   1.157
 1355TIP3   OH2 4070   5.346   3.924   2.095
 1355TIP3    H1 4071   5.394   3.890   2.020
 1355TIP3    H2 4072   5.411   3.969   2.149
 1356TIP3   OH2 4073   1.073   5.451   1.456
 1356TIP3    H1 4074   1.101   5.362   1.477
 1356TIP3    H2 4075   1.095   5.463   1.364
 1357TIP3   OH2 4076   4.536   4.121   2.646
 1357TIP3    H1 4077   4.568   4.147   2.560
 1357TIP3    H2 4078   4.503   4.032   2.634
 1358TIP3   OH2 4079   6.319   3.224   2.372
 1358TIP3    H1 4080   6.413   3.221   2.392
 1358TIP3    H2 4081   6.302   3.317   2.353
 1359TIP3   OH2 4082   4.895   5.962   2.320
 1359TIP3    H1 4083   4.905   6.008   2.238
 1359TIP3    H2 4084   4.968   5.900   2.322
 1360TIP3   OH2 4085   5.967   3.854   1.399
 1360TIP3    H1 4086   6.035   3.815   1.343
 1360TIP3    H2 4087   5.891   3.796   1.388
 1361TIP3   OH2 4088   4.105   5.426   1.524
 1361TIP3    H1 4089   4.198   5.446   1.536
 1361TIP3    H2 4090   4.101   5.381   1.440
 1362TIP3   OH2 4091   3.688   0.256   4.931
 1362TIP3    H1 4092   3.645   0.216   4.855
 1362TIP3    H2 4093   3.773   0.285   4.897
 1363TIP3   OH2 4094   0.960   2.568   0.544
 1363TIP3    H1 4095   0.992   2.623   0.474
 1363TIP3    H2 4096   1.008   2.597   0.622
 1364TIP3   OH2 4097   2.769   2.471   1.172
 1364TIP3    H1 4098   2.853   2.491   1.131
 1364TIP3    H2 4099   2.762   2.376   1.168
 1365TIP3   OH2 4100   3.211   2.883   1.536
 1365TIP3    H1 4101   3.236   2.962   1.488
 1365TIP3    H2 4102   3.282   2.821   1.518
 1366TIP3   OH2 4103   3.616   1.821   1.232
 1366TIP3    H1 4104   3.654   1.876   1.163
 1366TIP3    H2 4105   3.552   1.766   1.187
 1367TIP3   OH2 4106   5.310   1.227   3.818
 1367TIP3    H1 4107   5.304   1.244   3.912
 1367TIP3    H2 4108   5.230   1.178   3.798
 1368TIP3   OH2 4109   6.212   4.013   3.190
 1368TIP3    H1 4110   6.223   4.007   3.095
 1368TIP3    H2 4111   6.125   3.976   3.206
 1369TIP3   OH2 4112   0.984   4.612   2.563
 1369TIP3    H1 4113   0.889   4.609   2.556
 1369TIP3    H2 4114   1.014   4.645   2.479
 1370TIP3   OH2 4115   3.248   3.380   3.933
 1370TIP3    H1 4116   3.312   3.435   3.889
 1370TIP3    H2 4117   3.266   3.392   4.026
 1371TIP3   OH2 4118   3.300   0.626   0.933
 1371TIP3    H1 4119   3.330   0.595   1.019
 1371TIP3    H2 4120   3.285   0.546   0.883
 1372TIP3   OH2 4121   1.893   1.993   4.525
 1372TIP3    H1 4122   1.929   2.057   4.587
 1372TIP3    H2 4123   1.799   2.009   4.526
 1373TIP3   OH2 4124   1.159   5.744   2.853
 1373TIP3    H1 4125   1.212   5.821   2.834
 1373TIP3    H2 4126   1.214   5.689   2.909
 1374TIP3   OH2 4127   2.468   5.277   2.422
 1374TIP3    H1 4128   2.436   5.264   2.333
 1374TIP3    H2 4129   2.414   5.348   2.457
 1375TIP3   OH2 4130   4.272   3.140   4.725
 1375TIP3    H1 4131   4.350   3.122   4.674
 1375TIP3    H2 4132   4.236   3.220   4.687
 1376TIP3   OH2 4133   5.499   5.023   4.192
 1376TIP3    H1 4134   5.550   5.029   4.112
 1376TIP3    H2 4135   5.559   5.051   4.261
 1377TIP3   OH2 4136   2.052   2.491   2.772
 1377TIP3    H1 4137   2.031   2.437   2.848
 1377TIP3    H2 4138   1.967   2.513   2.734
 1378TIP3   OH2 4139   0.414   0.350   2.335
 1378TIP3    H1 4140   0.436   0.270   2.384
 1378TIP3    H2 4141   0.359   0.319   2.263
 1379TIP3   OH2 4142   2.608   3.278   2.341
 1379TIP3    H1 4143   2.672   3.226   2.293
 1379TIP3    H2 4144   2.636   3.368   2.331
 1380TIP3   OH2 4145   5.846   3.493   4.744
 1380TIP3    H1 4146   5.764   3.473   4.789
 1380TIP3    H2 4147   5.877   3.574   4.786
 1381TIP3   OH2 4148   4.152   4.206   4.751
 1381TIP3    H1 4149   4.159   4.293   4.713
 1381TIP3    H2 4150   4.220   4.155   4.708
 1382TIP3   OH2 4151   4.308   2.946   0.400
 1382TIP3    H1 4152   4.276   2.879   0.339
 1382TIP3    H2 4153   4.386   2.982   0.357
 1383TIP3   OH2 4154   4.370   1.887   0.914
 1383TIP3    H1 4155   4.317   1.919   0.987
 1383TIP3    H2 4156   4.323   1.810   0.882
 1384TIP3   OH2 4157   4.333   0.055   0.935
 1384TIP3    H1 4158   4.269   0.082   0.869
 1384TIP3    H2 4159   4.351   0.135   0.985
 1385TIP3   OH2 4160   2.778   2.255   4.268
 1385TIP3    H1 4161   2.772   2.241   4.174
 1385TIP3    H2 4162   2.762   2.168   4.306
 1386TIP3   OH2 4163   3.042   4.681   3.358
 1386TIP3    H1 4164   3.123   4.691   3.308
 1386TIP3    H2 4165   3.060   4.722   3.443
 1387TIP3   OH2 4166   2.001   4.314   2.372
 1387TIP3    H1 4167   2.002   4.293   2.279
 1387TIP3    H2 4168   1.909   4.303   2.398
 1388TIP3   OH2 4169   0.800   2.448   3.881
 1388TIP3    H1 4170   0.853   2.499   3.942
 1388TIP3    H2 4171   0.845   2.364   3.874
 1389TIP3   OH2 4172   2.036   4.110   1.669
 1389TIP3    H1 4173   1.956   4.077   1.627
 1389TIP3    H2 4174   2.090   4.032   1.681
 1390TIP3   OH2 4175   2.403   3.393   4.378
 1390TIP3    H1 4176   2.389   3.384   4.472
 1390TIP3    H2 4177   2.315   3.394   4.341
 1391TIP3   OH2 4178   4.621   1.708   3.260
 1391TIP3    H1 4179   4.596   1.622   3.293
 1391TIP3    H2 4180   4.549   1.765   3.286
 1392TIP3   OH2 4181   4.749   1.328   0.803
 1392TIP3    H1 4182   4.673   1.343   0.746
 1392TIP3    H2 4183   4.713   1.331   0.892
 1393TIP3   OH2 4184  -0.009   0.717  -0.006
 1393TIP3    H1 4185  -0.051   0.676   0.071
 1393TIP3    H2 4186   0.079   0.680  -0.008
 1394TIP3   OH2 4187   4.067   4.583   1.422
 1394TIP3    H1 4188   4.054   4.561   1.514
 1394TIP3    H2 4189   4.030   4.509   1.373
 1395TIP3   OH2 4190   4.743   2.990   0.731
 1395TIP3    H1 4191   4.695   2.923   0.683
 1395TIP3    H2 4192   4.822   2.945   0.762
 1396TIP3   OH2 4193   0.487   3.333   5.065
 1396TIP3    H1 4194   0.481   3.394   5.138
 1396TIP3    H2 4195   0.463   3.248   5.101
 1397TIP3   OH2 4196   3.444   2.881   3.131
 1397TIP3    H1 4197   3.528   2.926   3.139
 1397TIP3    H2 4198   3.390   2.939   3.078
 1398TIP3   OH2 4199   0.359   3.120   4.745
 1398TIP3    H1 4200   0.337   3.206   4.711
 1398TIP3    H2 4201   0.288   3.063   4.716
 1399TIP3   OH2 4202   4.121   3.190   2.386
 1399TIP3    H1 4203   4.195   3.183   2.326
 1399TIP3    H2 4204   4.108   3.101   2.419
 1400TIP3   OH2 4205   4.871   5.814   4.762
 1400TIP3    H1 4206   4.907   5.749   4.703
 1400TIP3    H2 4207   4.915   5.797   4.846
 1401TIP3   OH2 4208   2.856   2.671   1.869
 1401TIP3    H1 4209   2.902   2.621   1.802
 1401TIP3    H2 4210   2.830   2.606   1.934
 1402TIP3   OH2 4211   3.569   3.137   3.136
 1402TIP3    H1 4212   3.608   3.104   3.056
 1402TIP3    H2 4213   3.488   3.180   3.108
 1403TIP3   OH2 4214   0.259   0.797   0.421
 1403TIP3    H1 4215   0.293   0.872   0.373
 1403TIP3    H2 4216   0.174   0.779   0.381
 1404TIP3   OH2 4217   6.300   1.207   0.660
 1404TIP3    H1 4218   6.306   1.126   0.610
 1404TIP3    H2 4219   6.387   1.218   0.698
 1405TIP3   OH2 4220   0.580   5.342   3.750
 1405TIP3    H1 4221   0.525   5.420   3.747
 1405TIP3    H2 4222   0.557   5.294   3.670
 1406TIP3   OH2 4223   1.101   3.058   2.155
 1406TIP3    H1 4224   1.020   3.089   2.196
 1406TIP3    H2 4225   1.085   2.965   2.138
 1407TIP3   OH2 4226   2.762   3.357   4.571
 1407TIP3    H1 4227   2.852   3.326   4.559
 1407TIP3    H2 4228   2.711   3.277   4.586
 1408TIP3   OH2 4229   1.114   5.528   1.201
 1408TIP3    H1 4230   1.139   5.450   1.152
 1408TIP3    H2 4231   1.029   5.553   1.166
 1409TIP3   OH2 4232   3.217   3.166   4.230
 1409TIP3    H1 4233   3.308   3.140   4.216
 1409TIP3    H2 4234   3.171   3.137   4.151
 1410TIP3   OH2 4235   1.267   0.489   0.275
 1410TIP3    H1 4236   1.203   0.478   0.205
 1410TIP3    H2 4237   1.269   0.583   0.291
 1411TIP3   OH2 4238   3.872   0.888   4.629
 1411TIP3    H1 4239   3.947   0.844   4.670
 1411TIP3    H2 4240   3.909   0.928   4.550
 1412TIP3   OH2 4241   2.515   5.647   0.312
 1412TIP3    H1 4242   2.537   5.635   0.404
 1412TIP3    H2 4243   2.580   5.708   0.279
 1413TIP3   OH2 4244   6.272   1.909   2.601
 1413TIP3    H1 4245   6.304   1.937   2.515
 1413TIP3    H2 4246   6.319   1.963   2.663
 1414TIP3   OH2 4247   1.120   0.546   2.546
 1414TIP3    H1 4248   1.082   0.543   2.458
 1414TIP3    H2 4249   1.092   0.631   2.581
 1415TIP3   OH2 4250   0.409   3.861   0.111
 1415TIP3    H1 4251   0.395   3.867   0.205
 1415TIP3    H2 4252   0.328   3.895   0.073
 1416TIP3   OH2 4253   3.880   2.022   3.313
 1416TIP3    H1 4254   3.849   1.935   3.339
 1416TIP3    H2 4255   3.925   2.007   3.230
 1417TIP3   OH2 4256   4.230   1.025   4.166
 1417TIP3    H1 4257   4.295   0.969   4.124
 1417TIP3    H2 4258   4.267   1.045   4.252
 1418TIP3   OH2 4259   2.946   1.901   4.127
 1418TIP3    H1 4260   3.019   1.962   4.127
 1418TIP3    H2 4261   2.868   1.956   4.117
 1419TIP3   OH2 4262   2.598   4.258   1.448
 1419TIP3    H1 4263   2.623   4.201   1.521
 1419TIP3    H2 4264   2.677   4.309   1.430
 1420TIP3   OH2 4265   1.691   1.226   1.050
 1420TIP3    H1 4266   1.673   1.154   1.111
 1420TIP3    H2 4267   1.785   1.242   1.059
 1421TIP3   OH2 4268   5.401   3.238   0.493
 1421TIP3    H1 4269   5.373   3.309   0.434
 1421TIP3    H2 4270   5.390   3.159   0.441
 1422TIP3   OH2 4271   0.757   1.441   3.267
 1422TIP3    H1 4272   0.777   1.522   3.219
 1422TIP3    H2 4273   0.688   1.399   3.215
 1423TIP3   OH2 4274   2.524   4.752   4.061
 1423TIP3    H1 4275   2.433   4.765   4.088
 1423TIP3    H2 4276   2.517   4.706   3.977
 1424TIP3   OH2 4277   1.948   0.159   5.031
 1424TIP3    H1 4278   1.989   0.156   5.117
 1424TIP3    H2 4279   1.855   0.145   5.047
 1425TIP3   OH2 4280   1.008   4.566   1.237
 1425TIP3    H1 4281   0.964   4.488   1.270
 1425TIP3    H2 4282   1.025   4.619   1.315
 1426TIP3   OH2 4283   2.756   1.482   3.229
 1426TIP3    H1 4284   2.764   1.394   3.193
 1426TIP3    H2 4285   2.838   1.525   3.206
 1427TIP3   OH2 4286   1.586   0.642   4.052
 1427TIP3    H1 4287   1.616   0.706   4.117
 1427TIP3    H2 4288   1.544   0.696   3.985
 1428TIP3   OH2 4289   5.518   3.793   2.381
 1428TIP3    H1 4290   5.573   3.850   2.326
 1428TIP3    H2 4291   5.576   3.768   2.453
 1429TIP3   OH2 4292   0.493   1.429   2.706
 1429TIP3    H1 4293   0.550   1.433   2.629
 1429TIP3    H2 4294   0.550   1.454   2.779
 1430TIP3   OH2 4295   2.049   4.366   1.074
 1430TIP3    H1 4296   1.971   4.403   1.113
 1430TIP3    H2 4297   2.017   4.296   1.016
 1431TIP3   OH2 4298   0.507   0.006   1.609
 1431TIP3    H1 4299   0.505   0.083   1.552
 1431TIP3    H2 4300   0.597   0.002   1.642
 1432TIP3   OH2 4301   0.054   3.896   4.506
 1432TIP3    H1 4302  -0.030   3.880   4.463
 1432TIP3    H2 4303   0.108   3.935   4.437
 1433TIP3   OH2 4304   0.534   2.589   4.074
 1433TIP3    H1 4305   0.582   2.527   4.020
 1433TIP3    H2 4306   0.598   2.620   4.138
 1434TIP3   OH2 4307   5.217   3.387   1.299
 1434TIP3    H1 4308   5.188   3.475   1.322
 1434TIP3    H2 4309   5.285   3.367   1.363
 1435TIP3   OH2 4310   5.248   2.896   0.564
 1435TIP3    H1 4311   5.259   2.802   0.554
 1435TIP3    H2 4312   5.303   2.934   0.495
 1436TIP3   OH2 4313   0.226   3.349   2.266
 1436TIP3    H1 4314   0.221   3.417   2.333
 1436TIP3    H2 4315   0.220   3.397   2.183
 1437TIP3   OH2 4316   1.543   1.136   2.977
 1437TIP3    H1 4317   1.591   1.190   2.914
 1437TIP3    H2 4318   1.476   1.093   2.924
 1438TIP3   OH2 4319   3.336   1.891   3.546
 1438TIP3    H1 4320   3.277   1.931   3.611
 1438TIP3    H2 4321   3.279   1.872   3.471
 1439TIP3   OH2 4322   5.597   1.508   4.391
 1439TIP3    H1 4323   5.648   1.427   4.395
 1439TIP3    H2 4324   5.569   1.522   4.482
 1440TIP3   OH2 4325   0.551   4.937   0.584
 1440TIP3    H1 4326   0.535   4.870   0.517
 1440TIP3    H2 4327   0.631   4.982   0.553
 1441TIP3   OH2 4328   0.025   1.139   2.533
 1441TIP3    H1 4329  -0.034   1.105   2.600
 1441TIP3    H2 4330   0.102   1.168   2.582
 1442TIP3   OH2 4331   5.091   2.025   2.874
 1442TIP3    H1 4332   5.156   1.981   2.929
 1442TIP3    H2 4333   5.127   2.019   2.785
 1443TIP3   OH2 4334   3.663   5.879   1.535
 1443TIP3    H1 4335   3.677   5.953   1.594
 1443TIP3    H2 4336   3.697   5.803   1.583
 1444TIP3   OH2 4337   3.316   3.431   1.960
 1444TIP3    H1 4338   3.358   3.484   1.892
 1444TIP3    H2 4339   3.389   3.400   2.014
 1445TIP3   OH2 4340   3.013   2.352   2.028
 1445TIP3    H1 4341   2.946   2.414   2.056
 1445TIP3    H2 4342   3.038   2.381   1.940
 1446TIP3   OH2 4343   5.789   2.388   1.734
 1446TIP3    H1 4344   5.697   2.363   1.748
 1446TIP3    H2 4345   5.810   2.350   1.648
 1447TIP3   OH2 4346   0.598   1.721   1.142
 1447TIP3    H1 4347   0.689   1.749   1.136
 1447TIP3    H2 4348   0.558   1.750   1.059
 1448TIP3   OH2 4349   1.492   5.845   4.688
 1448TIP3    H1 4350   1.449   5.804   4.763
 1448TIP3    H2 4351   1.462   5.936   4.689
 1449TIP3   OH2 4352   5.474   0.073   3.363
 1449TIP3    H1 4353   5.445   0.060   3.273
 1449TIP3    H2 4354   5.507   0.163   3.365
 1450TIP3   OH2 4355   2.283   0.927   1.044
 1450TIP3    H1 4356   2.222   0.956   0.976
 1450TIP3    H2 4357   2.344   0.999   1.054
 1451TIP3   OH2 4358   5.059   1.121   0.220
 1451TIP3    H1 4359   5.040   1.033   0.189
 1451TIP3    H2 4360   5.154   1.130   0.215
 1452TIP3   OH2 4361   2.175   1.481   2.525
 1452TIP3    H1 4362   2.206   1.534   2.452
 1452TIP3    H2 4363   2.130   1.543   2.582
 1453TIP3   OH2 4364   4.840   5.256   0.391
 1453TIP3    H1 4365   4.884   5.213   0.319
 1453TIP3    H2 4366   4.898   5.243   0.467
 1454TIP3   OH2 4367   0.819   0.741   4.244
 1454TIP3    H1 4368   0.868   0.813   4.285
 1454TIP3    H2 4369   0.744   0.783   4.202
 1455TIP3   OH2 4370   5.916   0.976   1.257
 1455TIP3    H1 4371   5.919   1.000   1.164
 1455TIP3    H2 4372   5.944   0.885   1.259
 1456TIP3   OH2 4373   0.634   5.377   1.776
 1456TIP3    H1 4374   0.570   5.448   1.769
 1456TIP3    H2 4375   0.700   5.399   1.710
 1457TIP3   OH2 4376   1.986   1.555   2.238
 1457TIP3    H1 4377   2.058   1.607   2.275
 1457TIP3    H2 4378   1.968   1.489   2.305
 1458TIP3   OH2 4379   3.349   0.252   1.246
 1458TIP3    H1 4380   3.351   0.162   1.212
 1458TIP3    H2 4381   3.260   0.262   1.280
 1459TIP3   OH2 4382   2.858   0.908   2.232
 1459TIP3    H1 4383   2.923   0.941   2.294
 1459TIP3    H2 4384   2.812   0.838   2.280
 1460TIP3   OH2 4385   3.074   0.828   3.655
 1460TIP3    H1 4386   3.101   0.788   3.572
 1460TIP3    H2 4387   3.068   0.921   3.636
 1461TIP3   OH2 4388   1.953   5.377   5.118
 1461TIP3    H1 4389   1.915   5.313   5.178
 1461TIP3    H2 4390   2.035   5.404   5.161
 1462TIP3   OH2 4391   4.005   1.609   2.962
 1462TIP3    H1 4392   3.986   1.590   2.870
 1462TIP3    H2 4393   4.049   1.695   2.960
 1463TIP3   OH2 4394   3.317   3.479   4.203
 1463TIP3    H1 4395   3.292   3.556   4.152
 1463TIP3    H2 4396   3.239   3.458   4.254
 1464TIP3   OH2 4397   6.109   4.114   4.241
 1464TIP3    H1 4398   6.151   4.029   4.241
 1464TIP3    H2 4399   6.016   4.096   4.225
 1465TIP3   OH2 4400   1.586   4.656   3.322
 1465TIP3    H1 4401   1.575   4.734   3.375
 1465TIP3    H2 4402   1.594   4.688   3.232
 1466TIP3   OH2 4403   4.642   5.408   3.121
 1466TIP3    H1 4404   4.730   5.446   3.125
 1466TIP3    H2 4405   4.590   5.473   3.073
 1467TIP3   OH2 4406   2.992   0.803   4.333
 1467TIP3    H1 4407   3.032   0.780   4.249
 1467TIP3    H2 4408   2.994   0.899   4.336
 1468TIP3   OH2 4409   0.499   4.987   4.435
 1468TIP3    H1 4410   0.472   5.077   4.453
 1468TIP3    H2 4411   0.532   4.990   4.345
 1469TIP3   OH2 4412   4.959   4.338   1.120
 1469TIP3    H1 4413   4.877   4.309   1.080
 1469TIP3    H2 4414   5.017   4.262   1.114
 1470TIP3   OH2 4415   5.041   3.599   3.014
 1470TIP3    H1 4416   4.948   3.616   2.999
 1470TIP3    H2 4417   5.076   3.683   3.045
 1471TIP3   OH2 4418   4.053   0.112   4.779
 1471TIP3    H1 4419   4.035   0.200   4.814
 1471TIP3    H2 4420   3.998   0.107   4.701
 1472TIP3   OH2 4421   1.884   0.896   1.709
 1472TIP3    H1 4422   1.826   0.971   1.722
 1472TIP3    H2 4423   1.854   0.857   1.626
 1473TIP3   OH2 4424   0.110   3.085   4.984
 1473TIP3    H1 4425   0.107   3.003   5.032
 1473TIP3    H2 4426   0.082   3.063   4.895
 1474TIP3   OH2 4427   3.742   3.120   4.712
 1474TIP3    H1 4428   3.805   3.180   4.753
 1474TIP3    H2 4429   3.780   3.099   4.627
 1475TIP3   OH2 4430   2.407   5.987   4.864
 1475TIP3    H1 4431   2.369   6.036   4.790
 1475TIP3    H2 4432   2.469   5.927   4.823
 1476TIP3   OH2 4433   1.134   6.019   3.482
 1476TIP3    H1 4434   1.087   5.936   3.486
 1476TIP3    H2 4435   1.198   6.006   3.412
 1477TIP3   OH2 4436   4.117   2.914   1.764
 1477TIP3    H1 4437   4.197   2.943   1.720
 1477TIP3    H2 4438   4.113   2.967   1.843
 1478TIP3   OH2 4439   4.636   0.682   5.079
 1478TIP3    H1 4440   4.659   0.739   5.152
 1478TIP3    H2 4441   4.635   0.740   5.003
 1479TIP3   OH2 4442   0.085   1.240   1.254
 1479TIP3    H1 4443   0.120   1.166   1.205
 1479TIP3    H2 4444  -0.010   1.235   1.241
 1480TIP3   OH2 4445   5.368   4.672   3.546
 1480TIP3    H1 4446   5.310   4.671   3.470
 1480TIP3    H2 4447   5.418   4.753   3.537
 1481TIP3   OH2 4448   6.281   2.222   4.269
 1481TIP3    H1 4449   6.369   2.194   4.242
 1481TIP3    H2 4450   6.281   2.317   4.254
 1482TIP3   OH2 4451   1.721   0.427   1.182
 1482TIP3    H1 4452   1.769   0.402   1.261
 1482TIP3    H2 4453   1.784   0.477   1.131
 1483TIP3   OH2 4454   4.554   3.432   0.257
 1483TIP3    H1 4455   4.616   3.373   0.215
 1483TIP3    H2 4456   4.584   3.520   0.235
 1484TIP3   OH2 4457   3.484   0.330   1.542
 1484TIP3    H1 4458   3.428   0.252   1.538
 1484TIP3    H2 4459   3.552   0.313   1.477
 1485TIP3   OH2 4460   2.345   1.775   2.763
 1485TIP3    H1 4461   2.334   1.691   2.806
 1485TIP3    H2 4462   2.426   1.766   2.713
 1486TIP3   OH2 4463   3.215   0.983   4.720
 1486TIP3    H1 4464   3.140   1.015   4.772
 1486TIP3    H2 4465   3.213   1.037   4.641
 1487TIP3   OH2 4466   3.745   1.792   3.309
 1487TIP3    H1 4467   3.673   1.808   3.248
 1487TIP3    H2 4468   3.706   1.742   3.381
 1488TIP3   OH2 4469   2.074   4.863   2.146
 1488TIP3    H1 4470   1.991   4.843   2.102
 1488TIP3    H2 4471   2.120   4.779   2.149
 1489TIP3   OH2 4472   4.419   0.792   4.793
 1489TIP3    H1 4473   4.420   0.701   4.763
 1489TIP3    H2 4474   4.511   0.813   4.809
 1490TIP3   OH2 4475   0.853   1.096   3.047
 1490TIP3    H1 4476   0.869   1.077   3.139
 1490TIP3    H2 4477   0.884   1.018   3.001
 1491TIP3   OH2 4478   2.940   5.985   1.059
 1491TIP3    H1 4479   2.964   5.911   1.114
 1491TIP3    H2 4480   2.851   6.008   1.087
 1492TIP3   OH2 4481   3.795   4.535   4.922
 1492TIP3    H1 4482   3.831   4.469   4.862
 1492TIP3    H2 4483   3.701   4.518   4.923
 1493TIP3   OH2 4484   3.074   0.749   2.660
 1493TIP3    H1 4485   3.032   0.673   2.698
 1493TIP3    H2 4486   3.164   0.720   2.641
 1494TIP3   OH2 4487   6.342   1.458   0.573
 1494TIP3    H1 4488   6.340   1.506   0.656
 1494TIP3    H2 4489   6.303   1.373   0.593
 1495TIP3   OH2 4490   2.906   0.629   0.982
 1495TIP3    H1 4491   2.967   0.701   0.969
 1495TIP3    H2 4492   2.959   0.558   1.018
 1496TIP3   OH2 4493   5.600   2.224   1.402
 1496TIP3    H1 4494   5.512   2.191   1.421
 1496TIP3    H2 4495   5.586   2.300   1.346
 1497TIP3   OH2 4496   3.363   5.136   5.177
 1497TIP3    H1 4497   3.409   5.128   5.094
 1497TIP3    H2 4498   3.322   5.051   5.190
 1498TIP3   OH2 4499   1.123   1.061   5.016
 1498TIP3    H1 4500   1.114   1.080   4.922
 1498TIP3    H2 4501   1.160   1.141   5.053
 1499TIP3   OH2 4502   2.870   2.209   2.874
 1499TIP3    H1 4503   2.807   2.240   2.939
 1499TIP3    H2 4504   2.943   2.174   2.926
 1500TIP3   OH2 4505   0.339   3.786   4.046
 1500TIP3    H1 4506   0.263   3.778   3.989
 1500TIP3    H2 4507   0.395   3.850   4.002
 1501TIP3   OH2 4508   3.823   1.641   1.105
 1501TIP3    H1 4509   3.757   1.696   1.149
 1501TIP3    H2 4510   3.816   1.556   1.148
 1502TIP3   OH2 4511   0.644   4.349   2.905
 1502TIP3    H1 4512   0.662   4.443   2.909
 1502TIP3    H2 4513   0.728   4.310   2.880
 1503TIP3   OH2 4514   1.296   2.363   0.308
 1503TIP3    H1 4515   1.384   2.398   0.289
 1503TIP3    H2 4516   1.264   2.417   0.380
 1504TIP3   OH2 4517   1.542   0.777   2.645
 1504TIP3    H1 4518   1.520   0.722   2.721
 1504TIP3    H2 4519   1.457   0.812   2.617
 1505TIP3   OH2 4520   5.335   1.274   1.810
 1505TIP3    H1 4521   5.415   1.300   1.856
 1505TIP3    H2 4522   5.272   1.256   1.880
 1506TIP3   OH2 4523   4.777   0.759   2.693
 1506TIP3    H1 4524   4.682   0.765   2.688
 1506TIP3    H2 4525   4.795   0.668   2.716
 1507TIP3   OH2 4526   2.177   1.991   4.949
 1507TIP3    H1 4527   2.163   1.930   5.021
 1507TIP3    H2 4528   2.268   1.976   4.922
 1508TIP3   OH2 4529   5.951   1.476   1.429
 1508TIP3    H1 4530   6.043   1.505   1.425
 1508TIP3    H2 4531   5.939   1.424   1.350
 1509TIP3   OH2 4532   4.064   3.460   0.054
 1509TIP3    H1 4533   4.153   3.493   0.063
 1509TIP3    H2 4534   4.014   3.534   0.018
 1510TIP3   OH2 4535   2.987   4.415   3.316
 1510TIP3    H1 4536   3.009   4.508   3.322
 1510TIP3    H2 4537   3.031   4.376   3.392
 1511TIP3   OH2 4538   3.904   2.742   4.872
 1511TIP3    H1 4539   3.892   2.832   4.903
 1511TIP3    H2 4540   3.819   2.717   4.838
 1512TIP3   OH2 4541   0.274   4.992   3.380
 1512TIP3    H1 4542   0.290   4.978   3.473
 1512TIP3    H2 4543   0.193   4.944   3.361
 1513TIP3   OH2 4544   6.289   0.583   1.508
 1513TIP3    H1 4545   6.241   0.565   1.427
 1513TIP3    H2 4546   6.342   0.660   1.487
 1514TIP3   OH2 4547   4.413   4.027   0.263
 1514TIP3    H1 4548   4.353   4.058   0.195
 1514TIP3    H2 4549   4.376   3.944   0.292
 1515TIP3   OH2 4550   0.355   3.218   0.097
 1515TIP3    H1 4551   0.295   3.155   0.058
 1515TIP3    H2 4552   0.367   3.285   0.029
 1516TIP3   OH2 4553   2.763   2.492  -0.013
 1516TIP3    H1 4554   2.773   2.397  -0.005
 1516TIP3    H2 4555   2.685   2.513   0.039
 1517TIP3   OH2 4556   0.287   0.069   5.024
 1517TIP3    H1 4557   0.365   0.032   5.065
 1517TIP3    H2 4558   0.246   0.121   5.092
 1518TIP3   OH2 4559   2.073   0.955   2.301
 1518TIP3    H1 4560   2.094   1.042   2.267
 1518TIP3    H2 4561   1.992   0.968   2.350
 1519TIP3   OH2 4562   3.083   0.804   3.917
 1519TIP3    H1 4563   3.157   0.858   3.946
 1519TIP3    H2 4564   3.066   0.832   3.827
 1520TIP3   OH2 4565   0.225   4.219   0.809
 1520TIP3    H1 4566   0.195   4.216   0.718
 1520TIP3    H2 4567   0.320   4.221   0.802
 1521TIP3   OH2 4568   5.895   0.308   0.035
 1521TIP3    H1 4569   5.987   0.286   0.041
 1521TIP3    H2 4570   5.861   0.253  -0.036
 1522TIP3   OH2 4571   5.710   0.385   1.073
 1522TIP3    H1 4572   5.680   0.473   1.049
 1522TIP3    H2 4573   5.630   0.333   1.076
 1523TIP3   OH2 4574   6.043   1.696   3.843
 1523TIP3    H1 4575   6.003   1.726   3.925
 1523TIP3    H2 4576   6.136   1.689   3.863
 1524TIP3   OH2 4577   0.571   2.204   0.608
 1524TIP3    H1 4578   0.636   2.274   0.618
 1524TIP3    H2 4579   0.488   2.250   0.598
 1525TIP3   OH2 4580   4.943   3.013   2.619
 1525TIP3    H1 4581   4.848   3.011   2.604
 1525TIP3    H2 4582   4.954   3.072   2.694
 1526TIP3   OH2 4583   2.476   3.045   2.081
 1526TIP3    H1 4584   2.446   2.981   2.146
 1526TIP3    H2 4585   2.506   2.993   2.007
 1527TIP3   OH2 4586   4.892   5.263   1.576
 1527TIP3    H1 4587   4.898   5.222   1.490
 1527TIP3    H2 4588   4.827   5.210   1.623
 1528TIP3   OH2 4589   5.254   4.872   4.868
 1528TIP3    H1 4590   5.255   4.967   4.873
 1528TIP3    H2 4591   5.220   4.844   4.953
 1529TIP3   OH2 4592   5.366   1.700   1.524
 1529TIP3    H1 4593   5.366   1.774   1.583
 1529TIP3    H2 4594   5.290   1.647   1.550
 1530TIP3   OH2 4595   4.065   5.603   0.523
 1530TIP3    H1 4596   4.096   5.554   0.600
 1530TIP3    H2 4597   4.037   5.535   0.461
 1531TIP3   OH2 4598   4.622   1.821   3.885
 1531TIP3    H1 4599   4.648   1.736   3.920
 1531TIP3    H2 4600   4.588   1.868   3.962
 1532TIP3   OH2 4601   5.522   0.533   1.794
 1532TIP3    H1 4602   5.555   0.444   1.783
 1532TIP3    H2 4603   5.438   0.534   1.749
 1533TIP3   OH2 4604   4.767   4.248   3.493
 1533TIP3    H1 4605   4.789   4.218   3.582
 1533TIP3    H2 4606   4.837   4.308   3.469
 1534TIP3   OH2 4607   6.183   5.313   1.347
 1534TIP3    H1 4608   6.159   5.240   1.290
 1534TIP3    H2 4609   6.172   5.279   1.436
 1535TIP3   OH2 4610   4.350   3.698   3.095
 1535TIP3    H1 4611   4.290   3.726   3.165
 1535TIP3    H2 4612   4.437   3.703   3.136
 1536TIP3   OH2 4613   0.764   0.032   0.234
 1536TIP3    H1 4614   0.789   0.121   0.209
 1536TIP3    H2 4615   0.835   0.002   0.290
 1537TIP3   OH2 4616   5.706   5.917   0.725
 1537TIP3    H1 4617   5.760   5.839   0.715
 1537TIP3    H2 4618   5.688   5.945   0.635
 1538TIP3   OH2 4619   2.352   3.946   4.673
 1538TIP3    H1 4620   2.355   3.877   4.607
 1538TIP3    H2 4621   2.385   3.905   4.752
 1539TIP3   OH2 4622   3.647   0.872   2.015
 1539TIP3    H1 4623   3.640   0.788   1.970
 1539TIP3    H2 4624   3.728   0.911   1.981
 1540TIP3   OH2 4625   0.929   1.974   0.357
 1540TIP3    H1 4626   1.002   2.012   0.405
 1540TIP3    H2 4627   0.904   1.897   0.408
 1541TIP3   OH2 4628   4.454   4.382   5.160
 1541TIP3    H1 4629   4.408   4.458   5.194
 1541TIP3    H2 4630   4.394   4.345   5.095
 1542TIP3   OH2 4631   0.515   0.458   1.090
 1542TIP3    H1 4632   0.475   0.488   1.008
 1542TIP3    H2 4633   0.578   0.392   1.063
 1543TIP3   OH2 4634   0.594   4.556   0.455
 1543TIP3    H1 4635   0.673   4.606   0.474
 1543TIP3    H2 4636   0.544   4.612   0.395
 1544TIP3   OH2 4637   2.658   0.949   1.196
 1544TIP3    H1 4638   2.592   1.017   1.182
 1544TIP3    H2 4639   2.639   0.884   1.128
 1545TIP3   OH2 4640   3.297   1.185   0.368
 1545TIP3    H1 4641   3.302   1.272   0.408
 1545TIP3    H2 4642   3.225   1.142   0.414
 1546TIP3   OH2 4643   4.184   5.369   0.306
 1546TIP3    H1 4644   4.212   5.347   0.395
 1546TIP3    H2 4645   4.089   5.376   0.313
 1547TIP3   OH2 4646   1.984   1.017   4.038
 1547TIP3    H1 4647   2.041   1.022   3.961
 1547TIP3    H2 4648   2.018   1.085   4.098
 1548TIP3   OH2 4649   2.079   3.376   1.409
 1548TIP3    H1 4650   2.148   3.424   1.364
 1548TIP3    H2 4651   2.036   3.326   1.339
 1549TIP3   OH2 4652   0.054   1.119   3.159
 1549TIP3    H1 4653   0.085   1.044   3.108
 1549TIP3    H2 4654   0.055   1.192   3.097
 1550TIP3   OH2 4655   4.674   0.781   4.260
 1550TIP3    H1 4656   4.619   0.853   4.290
 1550TIP3    H2 4657   4.752   0.786   4.314
 1551TIP3   OH2 4658   4.927   0.111   2.982
 1551TIP3    H1 4659   5.001   0.098   2.922
 1551TIP3    H2 4660   4.962   0.087   3.068
 1552TIP3   OH2 4661   2.766   5.633   1.619
 1552TIP3    H1 4662   2.766   5.722   1.584
 1552TIP3    H2 4663   2.832   5.587   1.568
 1553TIP3   OH2 4664   5.636   5.093   3.092
 1553TIP3    H1 4665   5.718   5.064   3.053
 1553TIP3    H2 4666   5.620   5.179   3.054
 1554TIP3   OH2 4667   1.165   0.364   4.902
 1554TIP3    H1 4668   1.223   0.403   4.968
 1554TIP3    H2 4669   1.128   0.439   4.856
 1555TIP3   OH2 4670   4.565   3.360   1.684
 1555TIP3    H1 4671   4.565   3.386   1.592
 1555TIP3    H2 4672   4.654   3.375   1.713
 1556TIP3   OH2 4673   6.094   0.713   3.447
 1556TIP3    H1 4674   6.049   0.791   3.479
 1556TIP3    H2 4675   6.172   0.706   3.501
 1557TIP3   OH2 4676   5.511   2.285   1.786
 1557TIP3    H1 4677   5.480   2.195   1.773
 1557TIP3    H2 4678   5.502   2.300   1.880
 1558TIP3   OH2 4679   0.798   3.859   0.336
 1558TIP3    H1 4680   0.737   3.932   0.349
 1558TIP3    H2 4681   0.883   3.894   0.362
 1559TIP3   OH2 4682   1.852  -0.004   0.643
 1559TIP3    H1 4683   1.890   0.078   0.675
 1559TIP3    H2 4684   1.770   0.022   0.600
 1560TIP3   OH2 4685   3.689   0.191   0.687
 1560TIP3    H1 4686   3.651   0.169   0.603
 1560TIP3    H2 4687   3.780   0.214   0.667
 1561TIP3   OH2 4688   5.923   4.049   1.961
 1561TIP3    H1 4689   5.859   4.054   1.890
 1561TIP3    H2 4690   5.966   3.964   1.948
 1562TIP3   OH2 4691   0.953   4.606   3.678
 1562TIP3    H1 4692   1.027   4.647   3.633
 1562TIP3    H2 4693   0.892   4.582   3.608
 1563TIP3   OH2 4694   2.861   1.056   1.007
 1563TIP3    H1 4695   2.819   1.022   1.086
 1563TIP3    H2 4696   2.935   0.996   0.992
 1564TIP3   OH2 4697   3.321   1.477   3.466
 1564TIP3    H1 4698   3.380   1.401   3.468
 1564TIP3    H2 4699   3.329   1.515   3.553
 1565TIP3   OH2 4700   5.095   2.180   1.478
 1565TIP3    H1 4701   4.999   2.185   1.476
 1565TIP3    H2 4702   5.121   2.252   1.535
 1566TIP3   OH2 4703   2.435   3.981   3.497
 1566TIP3    H1 4704   2.399   3.935   3.572
 1566TIP3    H2 4705   2.391   3.943   3.421
 1567TIP3   OH2 4706   3.906   1.518   3.555
 1567TIP3    H1 4707   3.965   1.535   3.482
 1567TIP3    H2 4708   3.963   1.514   3.632
 1568TIP3   OH2 4709   3.844   3.305   4.895
 1568TIP3    H1 4710   3.807   3.292   4.982
 1568TIP3    H2 4711   3.932   3.267   4.900
 1569TIP3   OH2 4712   1.368   5.703   4.896
 1569TIP3    H1 4713   1.433   5.638   4.922
 1569TIP3    H2 4714   1.318   5.661   4.826
 1570TIP3   OH2 4715   2.300   5.459   4.545
 1570TIP3    H1 4716   2.355   5.413   4.609
 1570TIP3    H2 4717   2.356   5.530   4.513
 1571TIP3   OH2 4718   2.622   1.552   2.392
 1571TIP3    H1 4719   2.683   1.506   2.335
 1571TIP3    H2 4720   2.676   1.584   2.464
 1572TIP3   OH2 4721   3.056   3.769   4.683
 1572TIP3    H1 4722   2.982   3.782   4.742
 1572TIP3    H2 4723   3.120   3.835   4.711
 1573TIP3   OH2 4724   5.698   4.429   1.637
 1573TIP3    H1 4725   5.713   4.334   1.633
 1573TIP3    H2 4726   5.785   4.467   1.640
 1574TIP3   OH2 4727   3.065   0.171   5.078
 1574TIP3    H1 4728   3.003   0.236   5.045
 1574TIP3    H2 4729   3.144   0.221   5.099
 1575TIP3   OH2 4730   4.969   3.407   4.398
 1575TIP3    H1 4731   5.056   3.369   4.387
 1575TIP3    H2 4732   4.939   3.424   4.309
 1576TIP3   OH2 4733   2.625   4.498   2.815
 1576TIP3    H1 4734   2.683   4.572   2.831
 1576TIP3    H2 4735   2.537   4.537   2.812
 1577TIP3   OH2 4736   4.936   3.736   3.280
 1577TIP3    H1 4737   4.983   3.799   3.226
 1577TIP3    H2 4738   4.876   3.788   3.332
 1578TIP3   OH2 4739   4.614   1.504   2.517
 1578TIP3    H1 4740   4.697   1.553   2.522
 1578TIP3    H2 4741   4.569   1.541   2.442
 1579TIP3   OH2 4742   6.037   2.475   1.037
 1579TIP3    H1 4743   6.063   2.557   1.079
 1579TIP3    H2 4744   6.011   2.418   1.108
 1580TIP3   OH2 4745   2.326   5.649   2.120
 1580TIP3    H1 4746   2.294   5.575   2.172
 1580TIP3    H2 4747   2.286   5.726   2.159
 1581TIP3   OH2 4748   2.006   3.529   4.941
 1581TIP3    H1 4749   2.077   3.536   5.005
 1581TIP3    H2 4750   2.049   3.543   4.857
 1582TIP3   OH2 4751   2.257   4.908   0.766
 1582TIP3    H1 4752   2.344   4.947   0.759
 1582TIP3    H2 4753   2.203   4.975   0.806
 1583TIP3   OH2 4754   3.089   5.500   1.932
 1583TIP3    H1 4755   2.995   5.495   1.915
 1583TIP3    H2 4756   3.128   5.439   1.869
 1584TIP3   OH2 4757   4.165   2.580   3.833
 1584TIP3    H1 4758   4.133   2.627   3.756
 1584TIP3    H2 4759   4.260   2.580   3.824
 1585TIP3   OH2 4760   4.582   1.912   0.127
 1585TIP3    H1 4761   4.608   1.959   0.047
 1585TIP3    H2 4762   4.507   1.859   0.100
 1586TIP3   OH2 4763   5.067   3.727   1.679
 1586TIP3    H1 4764   5.045   3.675   1.756
 1586TIP3    H2 4765   5.162   3.717   1.669
 1587TIP3   OH2 4766   5.027   0.800   1.181
 1587TIP3    H1 4767   5.011   0.706   1.171
 1587TIP3    H2 4768   5.043   0.831   1.092
 1588TIP3   OH2 4769   4.903   2.117   2.093
 1588TIP3    H1 4770   4.836   2.186   2.093
 1588TIP3    H2 4771   4.923   2.105   2.000
 1589TIP3   OH2 4772   3.672   2.714   1.618
 1589TIP3    H1 4773   3.613   2.651   1.660
 1589TIP3    H2 4774   3.749   2.717   1.676
 1590TIP3   OH2 4775   5.200   5.894   0.367
 1590TIP3    H1 4776   5.285   5.852   0.350
 1590TIP3    H2 4777   5.171   5.856   0.450
 1591TIP3   OH2 4778   0.047   1.570   0.798
 1591TIP3    H1 4779   0.102   1.567   0.877
 1591TIP3    H2 4780  -0.001   1.652   0.806
 1592TIP3   OH2 4781   3.954   1.347   3.796
 1592TIP3    H1 4782   4.034   1.395   3.819
 1592TIP3    H2 4783   3.983   1.280   3.735
 1593TIP3   OH2 4784   0.536   3.541   1.780
 1593TIP3    H1 4785   0.483   3.530   1.701
 1593TIP3    H2 4786   0.494   3.483   1.844
 1594TIP3   OH2 4787   2.131   3.519   3.070
 1594TIP3    H1 4788   2.059   3.517   3.008
 1594TIP3    H2 4789   2.186   3.444   3.047
 1595TIP3   OH2 4790   1.105   1.094   4.729
 1595TIP3    H1 4791   1.053   1.016   4.716
 1595TIP3    H2 4792   1.187   1.077   4.682
 1596TIP3   OH2 4793   6.050   4.356   3.058
 1596TIP3    H1 4794   6.003   4.435   3.084
 1596TIP3    H2 4795   6.043   4.297   3.133
 1597TIP3   OH2 4796   2.403   5.012   3.315
 1597TIP3    H1 4797   2.369   5.082   3.260
 1597TIP3    H2 4798   2.498   5.022   3.311
 1598TIP3   OH2 4799   5.001   5.974   1.378
 1598TIP3    H1 4800   4.983   5.908   1.445
 1598TIP3    H2 4801   4.992   6.057   1.425
 1599TIP3   OH2 4802   4.498   0.541   4.233
 1599TIP3    H1 4803   4.467   0.551   4.142
 1599TIP3    H2 4804   4.563   0.610   4.244
 1600TIP3   OH2 4805   1.461   4.242   1.869
 1600TIP3    H1 4806   1.529   4.289   1.917
 1600TIP3    H2 4807   1.418   4.310   1.817
 1601TIP3   OH2 4808   5.119   3.058   2.979
 1601TIP3    H1 4809   5.214   3.050   2.991
 1601TIP3    H2 4810   5.105   3.149   2.955
 1602TIP3   OH2 4811   6.282   4.370   1.201
 1602TIP3    H1 4812   6.303   4.395   1.111
 1602TIP3    H2 4813   6.213   4.431   1.227
 1603TIP3   OH2 4814   5.056   1.574   1.058
 1603TIP3    H1 4815   5.012   1.655   1.032
 1603TIP3    H2 4816   5.121   1.601   1.122
 1604TIP3   OH2 4817   0.158   0.493   1.013
 1604TIP3    H1 4818   0.066   0.514   1.002
 1604TIP3    H2 4819   0.198   0.514   0.928
 1605TIP3   OH2 4820   5.794   0.661   2.207
 1605TIP3    H1 4821   5.790   0.565   2.203
 1605TIP3    H2 4822   5.757   0.690   2.124
 1606TIP3   OH2 4823   3.046   0.086   4.632
 1606TIP3    H1 4824   3.053   0.159   4.693
 1606TIP3    H2 4825   3.131   0.083   4.588
 1607TIP3   OH2 4826   0.117   5.857   0.744
 1607TIP3    H1 4827   0.088   5.830   0.831
 1607TIP3    H2 4828   0.129   5.774   0.697
 1608TIP3   OH2 4829   5.946   5.690   2.444
 1608TIP3    H1 4830   5.999   5.616   2.416
 1608TIP3    H2 4831   6.008   5.746   2.492
 1609TIP3   OH2 4832   6.031   1.115   3.336
 1609TIP3    H1 4833   6.008   1.178   3.268
 1609TIP3    H2 4834   6.076   1.045   3.289
 1610TIP3   OH2 4835   0.641   4.201   4.432
 1610TIP3    H1 4836   0.687   4.277   4.469
 1610TIP3    H2 4837   0.548   4.219   4.447
 1611TIP3   OH2 4838   1.169   1.621   4.229
 1611TIP3    H1 4839   1.196   1.538   4.270
 1611TIP3    H2 4840   1.231   1.634   4.158
 1612TIP3   OH2 4841   4.555   2.998   0.291
 1612TIP3    H1 4842   4.608   3.077   0.283
 1612TIP3    H2 4843   4.618   2.929   0.310
 1613TIP3   OH2 4844   0.534   1.340   3.120
 1613TIP3    H1 4845   0.465   1.379   3.173
 1613TIP3    H2 4846   0.522   1.379   3.033
 1614TIP3   OH2 4847   4.437   0.647   1.874
 1614TIP3    H1 4848   4.396   0.659   1.789
 1614TIP3    H2 4849   4.370   0.605   1.927
 1615TIP3   OH2 4850   0.885   1.554   4.509
 1615TIP3    H1 4851   0.970   1.512   4.521
 1615TIP3    H2 4852   0.832   1.521   4.582
 1616TIP3   OH2 4853   4.423   1.933   2.001
 1616TIP3    H1 4854   4.372   1.944   1.921
 1616TIP3    H2 4855   4.511   1.962   1.977
 1617TIP3   OH2 4856   2.226   2.706   3.833
 1617TIP3    H1 4857   2.283   2.742   3.766
 1617TIP3    H2 4858   2.183   2.783   3.871
 1618TIP3   OH2 4859   1.140   3.430   2.837
 1618TIP3    H1 4860   1.124   3.349   2.789
 1618TIP3    H2 4861   1.235   3.437   2.840
 1619TIP3   OH2 4862   2.963   0.208   2.301
 1619TIP3    H1 4863   2.930   0.119   2.310
 1619TIP3    H2 4864   3.018   0.222   2.378
 1620TIP3   OH2 4865   0.333   4.598   0.850
 1620TIP3    H1 4866   0.386   4.523   0.875
 1620TIP3    H2 4867   0.285   4.569   0.772
 1621TIP3   OH2 4868   6.240   5.268   3.344
 1621TIP3    H1 4869   6.272   5.272   3.434
 1621TIP3    H2 4870   6.311   5.225   3.296
 1622TIP3   OH2 4871   2.827   3.286   4.076
 1622TIP3    H1 4872   2.779   3.328   4.147
 1622TIP3    H2 4873   2.851   3.357   4.017
 1623TIP3   OH2 4874   5.030   3.591   2.384
 1623TIP3    H1 4875   5.022   3.666   2.443
 1623TIP3    H2 4876   5.038   3.630   2.297
 1624TIP3   OH2 4877   4.951   2.451   4.586
 1624TIP3    H1 4878   5.007   2.499   4.524
 1624TIP3    H2 4879   4.878   2.420   4.532
 1625TIP3   OH2 4880   4.724   5.508   3.585
 1625TIP3    H1 4881   4.670   5.559   3.645
 1625TIP3    H2 4882   4.806   5.557   3.578
 1626TIP3   OH2 4883   1.460   4.854   1.778
 1626TIP3    H1 4884   1.477   4.767   1.812
 1626TIP3    H2 4885   1.518   4.862   1.702
 1627TIP3   OH2 4886   1.811   5.581   0.251
 1627TIP3    H1 4887   1.895   5.544   0.222
 1627TIP3    H2 4888   1.828   5.610   0.340
 1628TIP3   OH2 4889   2.622   3.697   1.913
 1628TIP3    H1 4890   2.694   3.759   1.913
 1628TIP3    H2 4891   2.654   3.623   1.966
 1629TIP3   OH2 4892   5.558  -0.003   2.249
 1629TIP3    H1 4893   5.622  -0.006   2.178
 1629TIP3    H2 4894   5.570   0.083   2.289
 1630TIP3   OH2 4895   4.428   1.693   0.087
 1630TIP3    H1 4896   4.338   1.684   0.056
 1630TIP3    H2 4897   4.461   1.603   0.089
 1631TIP3   OH2 4898   0.217   2.203   2.695
 1631TIP3    H1 4899   0.187   2.213   2.605
 1631TIP3    H2 4900   0.221   2.292   2.729
 1632TIP3   OH2 4901   3.179   5.312   1.739
 1632TIP3    H1 4902   3.087   5.287   1.732
 1632TIP3    H2 4903   3.205   5.334   1.649
 1633TIP3   OH2 4904   5.438   0.306   2.658
 1633TIP3    H1 4905   5.521   0.272   2.693
 1633TIP3    H2 4906   5.379   0.307   2.733
 1634TIP3   OH2 4907   4.381   2.439   0.143
 1634TIP3    H1 4908   4.464   2.397   0.164
 1634TIP3    H2 4909   4.399   2.487   0.062
 1635TIP3   OH2 4910   6.077   2.278   1.746
 1635TIP3    H1 4911   5.984   2.256   1.743
 1635TIP3    H2 4912   6.086   2.335   1.822
 1636TIP3   OH2 4913   2.599  -0.015   0.491
 1636TIP3    H1 4914   2.603   0.080   0.479
 1636TIP3    H2 4915   2.571  -0.026   0.582
 1637TIP3   OH2 4916   1.872   1.306   0.337
 1637TIP3    H1 4917   1.917   1.305   0.422
 1637TIP3    H2 4918   1.903   1.387   0.296
 1638TIP3   OH2 4919   1.372   1.170   0.823
 1638TIP3    H1 4920   1.400   1.243   0.878
 1638TIP3    H2 4921   1.384   1.093   0.879
 1639TIP3   OH2 4922   0.978   3.193   4.061
 1639TIP3    H1 4923   0.933   3.252   4.000
 1639TIP3    H2 4924   0.969   3.235   4.146
 1640TIP3   OH2 4925   1.930   5.793   4.723
 1640TIP3    H1 4926   1.989   5.820   4.653
 1640TIP3    H2 4927   1.925   5.870   4.780
 1641TIP3   OH2 4928   4.209   0.292   4.480
 1641TIP3    H1 4929   4.149   0.238   4.428
 1641TIP3    H2 4930   4.169   0.379   4.480
 1642TIP3   OH2 4931   3.234   5.080   4.314
 1642TIP3    H1 4932   3.208   5.036   4.233
 1642TIP3    H2 4933   3.173   5.047   4.380
 1643TIP3   OH2 4934   2.504   2.022   0.485
 1643TIP3    H1 4935   2.508   2.113   0.515
 1643TIP3    H2 4936   2.411   2.000   0.488
 1644TIP3   OH2 4937   3.358   3.736   2.004
 1644TIP3    H1 4938   3.432   3.713   1.947
 1644TIP3    H2 4939   3.369   3.829   2.021
 1645TIP3   OH2 4940   5.022   4.100   3.218
 1645TIP3    H1 4941   4.991   4.190   3.225
 1645TIP3    H2 4942   5.053   4.077   3.306
 1646TIP3   OH2 4943   1.237   3.921   3.876
 1646TIP3    H1 4944   1.153   3.894   3.915
 1646TIP3    H2 4945   1.216   3.997   3.823
 1647TIP3   OH2 4946   3.676   0.663   0.901
 1647TIP3    H1 4947   3.669   0.706   0.986
 1647TIP3    H2 4948   3.743   0.596   0.912
 1648TIP3   OH2 4949   4.050   1.810   3.781
 1648TIP3    H1 4950   4.115   1.842   3.844
 1648TIP3    H2 4951   4.076   1.848   3.697
 1649TIP3   OH2 4952   3.277   2.026   2.135
 1649TIP3    H1 4953   3.269   2.033   2.040
 1649TIP3    H2 4954   3.189   2.004   2.165
 1650TIP3   OH2 4955   0.123   2.513   2.727
 1650TIP3    H1 4956   0.111   2.444   2.792
 1650TIP3    H2 4957   0.204   2.557   2.753
 1651TIP3   OH2 4958   2.858   4.013   4.432
 1651TIP3    H1 4959   2.863   4.046   4.522
 1651TIP3    H2 4960   2.883   4.088   4.378
 1652TIP3   OH2 4961   3.433   1.372   2.565
 1652TIP3    H1 4962   3.432   1.465   2.589
 1652TIP3    H2 4963   3.436   1.372   2.469
 1653TIP3   OH2 4964   5.039   3.449   4.078
 1653TIP3    H1 4965   5.115   3.495   4.044
 1653TIP3    H2 4966   4.964   3.496   4.042
 1654TIP3   OH2 4967   5.780   2.227   3.908
 1654TIP3    H1 4968   5.782   2.186   3.994
 1654TIP3    H2 4969   5.853   2.288   3.908
 1655TIP3   OH2 4970   1.947   5.625   0.484
 1655TIP3    H1 4971   1.997   5.704   0.504
 1655TIP3    H2 4972   2.009   5.553   0.500
 1656TIP3   OH2 4973   5.200   4.868   3.935
 1656TIP3    H1 4974   5.261   4.934   3.902
 1656TIP3    H2 4975   5.255   4.801   3.974
 1657TIP3   OH2 4976   1.994   2.348   2.140
 1657TIP3    H1 4977   2.074   2.307   2.172
 1657TIP3    H2 4978   1.928   2.326   2.206
 1658TIP3   OH2 4979   1.897   3.497   4.201
 1658TIP3    H1 4980   1.903   3.409   4.164
 1658TIP3    H2 4981   1.803   3.515   4.204
 1659TIP3   OH2 4982   1.533   2.486   0.295
 1659TIP3    H1 4983   1.588   2.564   0.295
 1659TIP3    H2 4984   1.585   2.420   0.251
 1660TIP3   OH2 4985   3.172   0.839   0.196
 1660TIP3    H1 4986   3.169   0.797   0.282
 1660TIP3    H2 4987   3.108   0.911   0.201
 1661TIP3   OH2 4988   4.097   0.764   4.726
 1661TIP3    H1 4989   4.116   0.769   4.820
 1661TIP3    H2 4990   4.124   0.676   4.701
 1662TIP3   OH2 4991   4.568   0.069   4.525
 1662TIP3    H1 4992   4.538   0.160   4.537
 1662TIP3    H2 4993   4.487   0.019   4.514
 1663TIP3   OH2 4994   2.885   0.791   3.385
 1663TIP3    H1 4995   2.854   0.874   3.350
 1663TIP3    H2 4996   2.959   0.768   3.329
 1664TIP3   OH2 4997   5.609   1.117   1.063
 1664TIP3    H1 4998   5.691   1.147   1.103
 1664TIP3    H2 4999   5.551   1.193   1.066
 1665TIP3   OH2 5000   6.138   5.948   1.625
 1665TIP3    H1 5001   6.085   5.868   1.622
 1665TIP3    H2 5002   6.078   6.016   1.655
 1666TIP3   OH2 5003   1.841   4.297   4.012
 1666TIP3    H1 5004   1.802   4.362   3.952
 1666TIP3    H2 5005   1.807   4.213   3.981
 1667TIP3   OH2 5006   3.943   2.946   1.099
 1667TIP3    H1 5007   3.866   2.932   1.044
 1667TIP3    H2 5008   3.937   2.878   1.166
 1668TIP3   OH2 5009   4.975   6.020   3.983
 1668TIP3    H1 5010   5.018   6.012   3.898
 1668TIP3    H2 5011   4.986   5.935   4.025
 1669TIP3   OH2 5012   4.855   1.841   0.167
 1669TIP3    H1 5013   4.763   1.866   0.154
 1669TIP3    H2 5014   4.899   1.923   0.189
 1670TIP3   OH2 5015   1.242   3.873   5.038
 1670TIP3    H1 5016   1.213   3.910   5.122
 1670TIP3    H2 5017   1.334   3.850   5.053
 1671TIP3   OH2 5018   1.453   0.159   2.278
 1671TIP3    H1 5019   1.532   0.153   2.226
 1671TIP3    H2 5020   1.382   0.142   2.216
 1672TIP3   OH2 5021   1.964   5.317   2.927
 1672TIP3    H1 5022   1.952   5.262   3.004
 1672TIP3    H2 5023   1.912   5.396   2.946
 1673TIP3   OH2 5024   5.068   4.094   1.035
 1673TIP3    H1 5025   4.998   4.033   1.060
 1673TIP3    H2 5026   5.131   4.089   1.107
 1674TIP3   OH2 5027   5.161   0.733   0.321
 1674TIP3    H1 5028   5.242   0.762   0.364
 1674TIP3    H2 5029   5.092   0.754   0.384
 1675TIP3   OH2 5030   5.765   3.943   3.442
 1675TIP3    H1 5031   5.760   3.856   3.482
 1675TIP3    H2 5032   5.803   3.999   3.509
 1676TIP3   OH2 5033   4.210   5.528   2.977
 1676TIP3    H1 5034   4.262   5.504   3.053
 1676TIP3    H2 5035   4.163   5.607   3.002
 1677TIP3   OH2 5036   3.619   1.880   1.763
 1677TIP3    H1 5037   3.663   1.910   1.684
 1677TIP3    H2 5038   3.597   1.960   1.810
 1678TIP3   OH2 5039   3.159   1.186   3.205
 1678TIP3    H1 5040   3.121   1.252   3.263
 1678TIP3    H2 5041   3.084   1.144   3.164
 1679TIP3   OH2 5042   4.688   4.050   0.343
 1679TIP3    H1 5043   4.602   4.053   0.301
 1679TIP3    H2 5044   4.670   4.034   0.436
 1680TIP3   OH2 5045   3.230   1.217   2.923
 1680TIP3    H1 5046   3.211   1.195   3.014
 1680TIP3    H2 5047   3.311   1.170   2.903
 1681TIP3   OH2 5048   1.602   0.757   4.340
 1681TIP3    H1 5049   1.558   0.842   4.337
 1681TIP3    H2 5050   1.631   0.747   4.431
 1682TIP3   OH2 5051   2.655   2.665   1.378
 1682TIP3    H1 5052   2.636   2.629   1.465
 1682TIP3    H2 5053   2.737   2.622   1.352
 1683TIP3   OH2 5054   4.518   2.259   0.655
 1683TIP3    H1 5055   4.594   2.276   0.598
 1683TIP3    H2 5056   4.555   2.213   0.730
 1684TIP3   OH2 5057   0.500   3.908   1.358
 1684TIP3    H1 5058   0.558   3.907   1.434
 1684TIP3    H2 5059   0.510   3.996   1.321
 1685TIP3   OH2 5060   3.926   5.147   2.129
 1685TIP3    H1 5061   3.961   5.107   2.209
 1685TIP3    H2 5062   3.894   5.073   2.078
 1686TIP3   OH2 5063   2.678   2.169   5.163
 1686TIP3    H1 5064   2.732   2.159   5.084
 1686TIP3    H2 5065   2.696   2.089   5.213
 1687TIP3   OH2 5066   2.493   4.078   3.229
 1687TIP3    H1 5067   2.484   4.140   3.157
 1687TIP3    H2 5068   2.489   3.992   3.188
 1688TIP3   OH2 5069   2.661   3.135   0.617
 1688TIP3    H1 5070   2.570   3.140   0.644
 1688TIP3    H2 5071   2.693   3.052   0.654
 1689TIP3   OH2 5072   6.188   2.778   3.210
 1689TIP3    H1 5073   6.178   2.782   3.115
 1689TIP3    H2 5074   6.261   2.837   3.229
 1690TIP3   OH2 5075   2.639   5.474   2.466
 1690TIP3    H1 5076   2.578   5.417   2.420
 1690TIP3    H2 5077   2.715   5.419   2.484
 1691TIP3   OH2 5078   2.612   2.721   4.417
 1691TIP3    H1 5079   2.662   2.704   4.336
 1691TIP3    H2 5080   2.654   2.666   4.483
 1692TIP3   OH2 5081   2.825   0.320   0.065
 1692TIP3    H1 5082   2.914   0.355   0.070
 1692TIP3    H2 5083   2.786   0.364  -0.010
 1693TIP3   OH2 5084   4.233   5.950   3.041
 1693TIP3    H1 5085   4.316   5.906   3.062
 1693TIP3    H2 5086   4.183   5.945   3.122
 1694TIP3   OH2 5087   2.400   3.615   4.655
 1694TIP3    H1 5088   2.488   3.636   4.688
 1694TIP3    H2 5089   2.404   3.635   4.562
 1695TIP3   OH2 5090   5.041   0.152   2.073
 1695TIP3    H1 5091   5.017   0.098   1.998
 1695TIP3    H2 5092   5.132   0.128   2.092
 1696TIP3   OH2 5093   2.614   2.332   4.717
 1696TIP3    H1 5094   2.629   2.366   4.628
 1696TIP3    H2 5095   2.526   2.362   4.739
 1697TIP3   OH2 5096   1.835   5.368   4.870
 1697TIP3    H1 5097   1.852   5.274   4.865
 1697TIP3    H2 5098   1.855   5.392   4.960
 1698TIP3   OH2 5099   4.688   4.246   2.827
 1698TIP3    H1 5100   4.636   4.191   2.769
 1698TIP3    H2 5101   4.650   4.232   2.913
 1699TIP3   OH2 5102   1.407   4.573   3.757
 1699TIP3    H1 5103   1.439   4.638   3.820
 1699TIP3    H2 5104   1.357   4.623   3.693
 1700TIP3   OH2 5105   4.520   5.167   4.215
 1700TIP3    H1 5106   4.425   5.161   4.216
 1700TIP3    H2 5107   4.549   5.083   4.180
 1701TIP3   OH2 5108   0.699   2.940   0.331
 1701TIP3    H1 5109   0.779   2.912   0.375
 1701TIP3    H2 5110   0.639   2.866   0.341
 1702TIP3   OH2 5111   4.914   5.864   0.854
 1702TIP3    H1 5112   4.909   5.879   0.948
 1702TIP3    H2 5113   4.994   5.910   0.827
 1703TIP3   OH2 5114   2.593   5.592   3.322
 1703TIP3    H1 5115   2.605   5.554   3.235
 1703TIP3    H2 5116   2.555   5.522   3.375
 1704TIP3   OH2 5117   0.585   0.317   3.676
 1704TIP3    H1 5118   0.523   0.368   3.728
 1704TIP3    H2 5119   0.578   0.228   3.711
 1705TIP3   OH2 5120   6.061   2.803   2.905
 1705TIP3    H1 5121   6.039   2.816   2.813
 1705TIP3    H2 5122   5.977   2.806   2.951
 1706TIP3   OH2 5123   5.325   1.995   1.944
 1706TIP3    H1 5124   5.259   1.958   2.002
 1706TIP3    H2 5125   5.396   2.021   2.003
 1707TIP3   OH2 5126   2.757   0.469   1.246
 1707TIP3    H1 5127   2.681   0.528   1.244
 1707TIP3    H2 5128   2.833   0.528   1.242
 1708TIP3   OH2 5129   0.129   1.933   1.676
 1708TIP3    H1 5130   0.221   1.932   1.650
 1708TIP3    H2 5131   0.083   1.894   1.602
 1709TIP3   OH2 5132   2.480   0.866   0.126
 1709TIP3    H1 5133   2.428   0.944   0.143
 1709TIP3    H2 5134   2.433   0.820   0.057
 1710TIP3   OH2 5135   4.176   1.182   0.251
 1710TIP3    H1 5136   4.210   1.132   0.326
 1710TIP3    H2 5137   4.082   1.171   0.255
 1711TIP3   OH2 5138   4.019   1.642   0.869
 1711TIP3    H1 5139   4.017   1.733   0.841
 1711TIP3    H2 5140   3.966   1.640   0.949
 1712TIP3   OH2 5141   5.487   5.125   5.093
 1712TIP3    H1 5142   5.548   5.137   5.166
 1712TIP3    H2 5143   5.436   5.048   5.117
 1713TIP3   OH2 5144   0.836   4.001   1.372
 1713TIP3    H1 5145   0.780   3.994   1.449
 1713TIP3    H2 5146   0.823   3.919   1.324
 1714TIP3   OH2 5147   0.160   4.781   2.494
 1714TIP3    H1 5148   0.245   4.740   2.507
 1714TIP3    H2 5149   0.173   4.838   2.417
 1715TIP3   OH2 5150   4.121   5.666   5.048
 1715TIP3    H1 5151   4.034   5.653   5.085
 1715TIP3    H2 5152   4.116   5.626   4.961
 1716TIP3   OH2 5153   6.237   4.981   4.260
 1716TIP3    H1 5154   6.188   4.922   4.317
 1716TIP3    H2 5155   6.257   5.056   4.315
 1717TIP3   OH2 5156   4.124   5.500   2.211
 1717TIP3    H1 5157   4.110   5.573   2.271
 1717TIP3    H2 5158   4.054   5.509   2.146
 1718TIP3   OH2 5159   1.496   3.366   1.462
 1718TIP3    H1 5160   1.422   3.425   1.451
 1718TIP3    H2 5161   1.548   3.376   1.382
 1719TIP3   OH2 5162   2.324   5.990   3.947
 1719TIP3    H1 5163   2.335   5.895   3.943
 1719TIP3    H2 5164   2.412   6.024   3.962
 1720TIP3   OH2 5165   4.184   4.677   0.453
 1720TIP3    H1 5166   4.181   4.771   0.440
 1720TIP3    H2 5167   4.258   4.647   0.401
 1721TIP3   OH2 5168   0.214   5.102   3.862
 1721TIP3    H1 5169   0.140   5.074   3.916
 1721TIP3    H2 5170   0.285   5.042   3.885
 1722TIP3   OH2 5171   2.426   1.896   2.477
 1722TIP3    H1 5172   2.364   1.965   2.503
 1722TIP3    H2 5173   2.512   1.933   2.496
 1723TIP3   OH2 5174   1.711   1.705   1.564
 1723TIP3    H1 5175   1.721   1.610   1.560
 1723TIP3    H2 5176   1.636   1.724   1.508
 1724TIP3   OH2 5177   2.336   2.386   1.637
 1724TIP3    H1 5178   2.272   2.433   1.691
 1724TIP3    H2 5179   2.300   2.298   1.629
 1725TIP3   OH2 5180   0.766   2.342   3.568
 1725TIP3    H1 5181   0.771   2.271   3.632
 1725TIP3    H2 5182   0.834   2.322   3.504
 1726TIP3   OH2 5183   2.995   4.487   0.933
 1726TIP3    H1 5184   2.947   4.461   0.854
 1726TIP3    H2 5185   2.995   4.409   0.988
 1727TIP3   OH2 5186   4.879   2.536   2.819
 1727TIP3    H1 5187   4.890   2.630   2.810
 1727TIP3    H2 5188   4.926   2.499   2.745
 1728TIP3   OH2 5189   1.025   5.321   2.756
 1728TIP3    H1 5190   1.029   5.379   2.680
 1728TIP3    H2 5191   0.948   5.350   2.804
 1729TIP3   OH2 5192   2.388   2.829   5.045
 1729TIP3    H1 5193   2.312   2.770   5.044
 1729TIP3    H2 5194   2.457   2.781   5.001
 1730TIP3   OH2 5195   1.675   0.772   2.394
 1730TIP3    H1 5196   1.603   0.758   2.457
 1730TIP3    H2 5197   1.664   0.702   2.330
 1731TIP3   OH2 5198   0.529   2.366   3.893
 1731TIP3    H1 5199   0.533   2.272   3.909
 1731TIP3    H2 5200   0.618   2.390   3.865
 1732TIP3   OH2 5201   2.497   1.656   4.964
 1732TIP3    H1 5202   2.478   1.653   4.870
 1732TIP3    H2 5203   2.584   1.618   4.972
 1733TIP3   OH2 5204   2.370   3.455   1.507
 1733TIP3    H1 5205   2.417   3.466   1.590
 1733TIP3    H2 5206   2.373   3.360   1.492
 1734TIP3   OH2 5207   0.989   4.794   3.122
 1734TIP3    H1 5208   0.920   4.806   3.187
 1734TIP3    H2 5209   1.030   4.710   3.146
 1735TIP3   OH2 5210   3.371   3.822   0.643
 1735TIP3    H1 5211   3.331   3.853   0.561
 1735TIP3    H2 5212   3.406   3.735   0.622
 1736TIP3   OH2 5213   3.110   3.501   2.467
 1736TIP3    H1 5214   3.183   3.533   2.415
 1736TIP3    H2 5215   3.033   3.546   2.431
 1737TIP3   OH2 5216   3.171   0.181   0.003
 1737TIP3    H1 5217   3.107   0.251   0.008
 1737TIP3    H2 5218   3.167   0.138   0.089
 1738TIP3   OH2 5219   3.960   4.038   3.824
 1738TIP3    H1 5220   3.886   4.085   3.861
 1738TIP3    H2 5221   3.921   3.959   3.786
 1739TIP3   OH2 5222   2.405   2.211   3.130
 1739TIP3    H1 5223   2.352   2.226   3.051
 1739TIP3    H2 5224   2.381   2.123   3.158
 1740TIP3   OH2 5225   1.646   2.769   2.616
 1740TIP3    H1 5226   1.624   2.827   2.543
 1740TIP3    H2 5227   1.571   2.774   2.675
 1741TIP3   OH2 5228   1.914   4.196   0.182
 1741TIP3    H1 5229   2.008   4.183   0.197
 1741TIP3    H2 5230   1.910   4.241   0.097
 1742TIP3   OH2 5231   2.408   3.253   0.328
 1742TIP3    H1 5232   2.365   3.191   0.387
 1742TIP3    H2 5233   2.449   3.318   0.386
 1743TIP3   OH2 5234   0.525   3.169   2.879
 1743TIP3    H1 5235   0.567   3.201   2.799
 1743TIP3    H2 5236   0.592   3.179   2.946
 1744TIP3   OH2 5237   4.764   1.256   2.295
 1744TIP3    H1 5238   4.702   1.197   2.251
 1744TIP3    H2 5239   4.799   1.310   2.224
 1745TIP3   OH2 5240   1.422   3.265   0.969
 1745TIP3    H1 5241   1.408   3.352   1.006
 1745TIP3    H2 5242   1.441   3.281   0.876
 1746TIP3   OH2 5243   3.651   3.571   2.640
 1746TIP3    H1 5244   3.563   3.609   2.637
 1746TIP3    H2 5245   3.657   3.532   2.727
 1747TIP3   OH2 5246   0.701   5.366   1.210
 1747TIP3    H1 5247   0.642   5.361   1.135
 1747TIP3    H2 5248   0.770   5.426   1.182
 1748TIP3   OH2 5249   1.526   5.969   2.375
 1748TIP3    H1 5250   1.479   5.891   2.406
 1748TIP3    H2 5251   1.603   5.973   2.431
 1749TIP3   OH2 5252   5.631   5.118   2.181
 1749TIP3    H1 5253   5.664   5.178   2.114
 1749TIP3    H2 5254   5.709   5.076   2.217
 1750TIP3   OH2 5255   3.466   5.421   0.891
 1750TIP3    H1 5256   3.435   5.459   0.808
 1750TIP3    H2 5257   3.386   5.397   0.937
 1751TIP3   OH2 5258   3.138   2.966   2.494
 1751TIP3    H1 5259   3.161   2.893   2.437
 1751TIP3    H2 5260   3.062   3.005   2.451
 1752TIP3   OH2 5261   3.563   1.320   4.212
 1752TIP3    H1 5262   3.654   1.325   4.182
 1752TIP3    H2 5263   3.539   1.411   4.232
 1753TIP3   OH2 5264   5.925   3.371   3.596
 1753TIP3    H1 5265   5.914   3.439   3.662
 1753TIP3    H2 5266   5.839   3.364   3.554
 1754TIP3   OH2 5267   5.263   5.930   1.892
 1754TIP3    H1 5268   5.301   5.851   1.929
 1754TIP3    H2 5269   5.243   5.985   1.968
 1755TIP3   OH2 5270   5.846   4.004   4.195
 1755TIP3    H1 5271   5.782   4.030   4.261
 1755TIP3    H2 5272   5.836   3.909   4.188
 1756TIP3   OH2 5273   1.852   3.608   0.349
 1756TIP3    H1 5274   1.913   3.628   0.277
 1756TIP3    H2 5275   1.772   3.655   0.326
 1757TIP3   OH2 5276   0.519   2.092   3.993
 1757TIP3    H1 5277   0.507   2.165   4.054
 1757TIP3    H2 5278   0.522   2.014   4.050
 1758TIP3   OH2 5279   5.097   4.306   0.827
 1758TIP3    H1 5280   5.095   4.226   0.879
 1758TIP3    H2 5281   5.157   4.364   0.875
 1759TIP3   OH2 5282   6.257   1.311   2.023
 1759TIP3    H1 5283   6.322   1.346   2.083
 1759TIP3    H2 5284   6.304   1.298   1.941
 1760TIP3   OH2 5285   6.295   0.622   3.017
 1760TIP3    H1 5286   6.380   0.586   2.994
 1760TIP3    H2 5287   6.281   0.692   2.954
 1761TIP3   OH2 5288   4.301   1.240   4.950
 1761TIP3    H1 5289   4.357   1.314   4.929
 1761TIP3    H2 5290   4.338   1.167   4.900
 1762TIP3   OH2 5291   1.332   1.983   2.230
 1762TIP3    H1 5292   1.299   1.956   2.316
 1762TIP3    H2 5293   1.325   1.904   2.177
 1763TIP3   OH2 5294   1.881   0.800   1.199
 1763TIP3    H1 5295   1.825   0.876   1.213
 1763TIP3    H2 5296   1.970   0.832   1.215
 1764TIP3   OH2 5297   5.969   5.063   3.399
 1764TIP3    H1 5298   6.023   5.082   3.476
 1764TIP3    H2 5299   5.982   5.139   3.341
 1765TIP3   OH2 5300   3.630   4.299   4.265
 1765TIP3    H1 5301   3.602   4.384   4.232
 1765TIP3    H2 5302   3.592   4.293   4.353
 1766TIP3   OH2 5303   2.544   0.266   1.165
 1766TIP3    H1 5304   2.615   0.325   1.191
 1766TIP3    H2 5305   2.487   0.320   1.111
 1767TIP3   OH2 5306   4.200   5.547   2.543
 1767TIP3    H1 5307   4.284   5.502   2.532
 1767TIP3    H2 5308   4.208   5.626   2.489
 1768TIP3   OH2 5309   4.384   2.654   1.103
 1768TIP3    H1 5310   4.471   2.680   1.133
 1768TIP3    H2 5311   4.326   2.674   1.176
 1769TIP3   OH2 5312   2.677   4.248   4.616
 1769TIP3    H1 5313   2.746   4.189   4.645
 1769TIP3    H2 5314   2.617   4.192   4.566
 1770TIP3   OH2 5315   1.450   0.326   4.789
 1770TIP3    H1 5316   1.406   0.370   4.861
 1770TIP3    H2 5317   1.535   0.370   4.782
 1771TIP3   OH2 5318   3.476   2.538   1.740
 1771TIP3    H1 5319   3.393   2.515   1.699
 1771TIP3    H2 5320   3.457   2.617   1.790
 1772TIP3   OH2 5321   3.270   3.021   2.984
 1772TIP3    H1 5322   3.224   2.993   2.905
 1772TIP3    H2 5323   3.205   3.072   3.033
 1773TIP3   OH2 5324   5.598   1.938   4.717
 1773TIP3    H1 5325   5.563   2.008   4.661
 1773TIP3    H2 5326   5.634   1.874   4.656
 1774TIP3   OH2 5327   3.326   1.510   1.571
 1774TIP3    H1 5328   3.395   1.574   1.553
 1774TIP3    H2 5329   3.370   1.440   1.619
 1775TIP3   OH2 5330   5.591   2.240   3.723
 1775TIP3    H1 5331   5.660   2.247   3.789
 1775TIP3    H2 5332   5.623   2.292   3.650
 1776TIP3   OH2 5333   2.605   3.102   0.215
 1776TIP3    H1 5334   2.525   3.153   0.225
 1776TIP3    H2 5335   2.579   3.012   0.232
 1777TIP3   OH2 5336   2.201   3.634   2.792
 1777TIP3    H1 5337   2.252   3.588   2.725
 1777TIP3    H2 5338   2.246   3.615   2.874
 1778TIP3   OH2 5339   1.595   4.826   4.460
 1778TIP3    H1 5340   1.667   4.859   4.408
 1778TIP3    H2 5341   1.534   4.900   4.466
 1779TIP3   OH2 5342   3.154   1.995   3.748
 1779TIP3    H1 5343   3.066   1.969   3.719
 1779TIP3    H2 5344   3.165   1.954   3.833
 1780TIP3   OH2 5345   6.140   0.937   0.362
 1780TIP3    H1 5346   6.117   1.026   0.333
 1780TIP3    H2 5347   6.057   0.900   0.394
 1781TIP3   OH2 5348   0.767   0.606   3.979
 1781TIP3    H1 5349   0.749   0.697   3.954
 1781TIP3    H2 5350   0.787   0.611   4.073
 1782TIP3   OH2 5351   3.083   3.519   2.921
 1782TIP3    H1 5352   3.043   3.591   2.872
 1782TIP3    H2 5353   3.052   3.440   2.877
 1783TIP3   OH2 5354   2.483   5.730   4.265
 1783TIP3    H1 5355   2.498   5.667   4.194
 1783TIP3    H2 5356   2.548   5.799   4.250
 1784TIP3   OH2 5357   1.490   1.393   0.974
 1784TIP3    H1 5358   1.570   1.347   1.000
 1784TIP3    H2 5359   1.522   1.469   0.925
 1785TIP3   OH2 5360   3.745   1.404   2.610
 1785TIP3    H1 5361   3.780   1.380   2.696
 1785TIP3    H2 5362   3.683   1.474   2.629
 1786TIP3   OH2 5363   6.213   5.582   3.945
 1786TIP3    H1 5364   6.119   5.596   3.929
 1786TIP3    H2 5365   6.235   5.645   4.014
 1787TIP3   OH2 5366   2.522   5.357   4.688
 1787TIP3    H1 5367   2.569   5.339   4.607
 1787TIP3    H2 5368   2.589   5.357   4.756
 1788TIP3   OH2 5369   5.525   2.277   1.044
 1788TIP3    H1 5370   5.579   2.230   0.980
 1788TIP3    H2 5371   5.588   2.329   1.094
 1789TIP3   OH2 5372   0.869   2.880   5.040
 1789TIP3    H1 5373   0.802   2.831   5.087
 1789TIP3    H2 5374   0.822   2.956   5.005
 1790TIP3   OH2 5375   1.757   0.390   2.378
 1790TIP3    H1 5376   1.719   0.439   2.305
 1790TIP3    H2 5377   1.839   0.355   2.343
 1791TIP3   OH2 5378   1.548   4.650   1.490
 1791TIP3    H1 5379   1.454   4.658   1.508
 1791TIP3    H2 5380   1.556   4.567   1.441
 1792TIP3   OH2 5381   5.933   0.575   1.904
 1792TIP3    H1 5382   5.950   0.491   1.947
 1792TIP3    H2 5383   5.963   0.641   1.966
 1793TIP3   OH2 5384   3.893   2.301   5.056
 1793TIP3    H1 5385   3.837   2.378   5.072
 1793TIP3    H2 5386   3.882   2.248   5.135
 1794TIP3   OH2 5387   3.184   0.339   2.044
 1794TIP3    H1 5388   3.123   0.277   2.003
 1794TIP3    H2 5389   3.248   0.283   2.088
 1795TIP3   OH2 5390   3.619   3.999   2.207
 1795TIP3    H1 5391   3.551   4.041   2.259
 1795TIP3    H2 5392   3.669   4.071   2.169
 1796TIP3   OH2 5393   4.578   0.151   0.602
 1796TIP3    H1 5394   4.635   0.126   0.530
 1796TIP3    H2 5395   4.632   0.208   0.657
 1797TIP3   OH2 5396   4.825   3.620   3.767
 1797TIP3    H1 5397   4.892   3.560   3.800
 1797TIP3    H2 5398   4.746   3.567   3.761
 1798TIP3   OH2 5399   1.892   5.854   0.226
 1798TIP3    H1 5400   1.872   5.843   0.133
 1798TIP3    H2 5401   1.818   5.903   0.261
 1799TIP3   OH2 5402   1.184   0.586   3.307
 1799TIP3    H1 5403   1.095   0.611   3.333
 1799TIP3    H2 5404   1.208   0.651   3.240
 1800TIP3   OH2 5405   5.408   0.342   4.115
 1800TIP3    H1 5406   5.389   0.298   4.032
 1800TIP3    H2 5407   5.363   0.288   4.181
 1801TIP3   OH2 5408   4.982   2.672   1.636
 1801TIP3    H1 5409   5.060   2.676   1.580
 1801TIP3    H2 5410   4.955   2.580   1.633
 1802TIP3   OH2 5411   4.776   2.477   3.700
 1802TIP3    H1 5412   4.709   2.444   3.640
 1802TIP3    H2 5413   4.778   2.571   3.684
 1803TIP3   OH2 5414   5.927   1.476   4.241
 1803TIP3    H1 5415   5.854   1.419   4.219
 1803TIP3    H2 5416   5.895   1.565   4.221
 1804TIP3   OH2 5417   0.508   2.961   1.515
 1804TIP3    H1 5418   0.587   2.946   1.463
 1804TIP3    H2 5419   0.476   2.873   1.536
 1805TIP3   OH2 5420   2.673   4.932   4.740
 1805TIP3    H1 5421   2.650   4.878   4.816
 1805TIP3    H2 5422   2.727   5.002   4.776
 1806TIP3   OH2 5423   6.309   5.101   1.824
 1806TIP3    H1 5424   6.293   5.116   1.730
 1806TIP3    H2 5425   6.325   5.189   1.859
 1807TIP3   OH2 5426   2.217   0.674   0.988
 1807TIP3    H1 5427   2.231   0.768   0.995
 1807TIP3    H2 5428   2.155   0.653   1.058
 1808TIP3   OH2 5429   6.220   4.438   2.864
 1808TIP3    H1 5430   6.156   4.424   2.933
 1808TIP3    H2 5431   6.175   4.493   2.799
 1809TIP3   OH2 5432   4.589   0.419   5.070
 1809TIP3    H1 5433   4.662   0.425   5.008
 1809TIP3    H2 5434   4.563   0.509   5.086
 1810TIP3   OH2 5435   0.146   0.832   3.185
 1810TIP3    H1 5436   0.231   0.858   3.149
 1810TIP3    H2 5437   0.164   0.752   3.233
 1811TIP3   OH2 5438   2.577   5.604   2.998
 1811TIP3    H1 5439   2.607   5.571   2.914
 1811TIP3    H2 5440   2.605   5.695   3.000
 1812TIP3   OH2 5441   1.962   5.902   3.221
 1812TIP3    H1 5442   2.020   5.905   3.145
 1812TIP3    H2 5443   2.011   5.947   3.290
 1813TIP3   OH2 5444   3.647   5.524   1.062
 1813TIP3    H1 5445   3.584   5.478   1.007
 1813TIP3    H2 5446   3.661   5.608   1.017
 1814TIP3   OH2 5447   2.740   3.216   3.690
 1814TIP3    H1 5448   2.720   3.304   3.658
 1814TIP3    H2 5449   2.704   3.215   3.779
 1815TIP3   OH2 5450   4.248   5.128   4.973
 1815TIP3    H1 5451   4.319   5.185   5.000
 1815TIP3    H2 5452   4.182   5.137   5.042
 1816TIP3   OH2 5453   5.006   1.139   3.502
 1816TIP3    H1 5454   4.980   1.049   3.521
 1816TIP3    H2 5455   4.979   1.153   3.412
 1817TIP3   OH2 5456   1.412   0.278   0.933
 1817TIP3    H1 5457   1.413   0.352   0.873
 1817TIP3    H2 5458   1.349   0.217   0.894
 1818TIP3   OH2 5459   0.245   3.620   1.164
 1818TIP3    H1 5460   0.280   3.656   1.082
 1818TIP3    H2 5461   0.229   3.697   1.219
 1819TIP3   OH2 5462   5.993   0.334   2.932
 1819TIP3    H1 5463   5.982   0.251   2.978
 1819TIP3    H2 5464   6.050   0.313   2.858
 1820TIP3   OH2 5465   2.334   3.874   0.156
 1820TIP3    H1 5466   2.334   3.871   0.252
 1820TIP3    H2 5467   2.392   3.803   0.130
 1821TIP3   OH2 5468   0.906   2.996   0.074
 1821TIP3    H1 5469   0.876   3.086   0.061
 1821TIP3    H2 5470   0.829   2.948   0.104
 1822TIP3   OH2 5471   4.991   2.918   4.999
 1822TIP3    H1 5472   4.938   2.954   5.070
 1822TIP3    H2 5473   5.042   2.848   5.041
 1823TIP3   OH2 5474   1.655   2.640   0.853
 1823TIP3    H1 5475   1.615   2.606   0.773
 1823TIP3    H2 5476   1.595   2.709   0.882
 1824TIP3   OH2 5477   4.502   1.632   2.280
 1824TIP3    H1 5478   4.488   1.547   2.239
 1824TIP3    H2 5479   4.438   1.689   2.237
 1825TIP3   OH2 5480   2.134   3.641   4.709
 1825TIP3    H1 5481   2.229   3.650   4.718
 1825TIP3    H2 5482   2.116   3.674   4.621
 1826TIP3   OH2 5483   0.879   1.200   4.303
 1826TIP3    H1 5484   0.856   1.283   4.343
 1826TIP3    H2 5485   0.855   1.210   4.211
 1827TIP3   OH2 5486   0.016   3.773   2.676
 1827TIP3    H1 5487   0.070   3.839   2.719
 1827TIP3    H2 5488  -0.037   3.736   2.746
 1828TIP3   OH2 5489   2.583   1.714   4.421
 1828TIP3    H1 5490   2.574   1.721   4.516
 1828TIP3    H2 5491   2.552   1.626   4.401
 1829TIP3   OH2 5492   5.928   4.832   2.711
 1829TIP3    H1 5493   5.969   4.798   2.631
 1829TIP3    H2 5494   5.899   4.920   2.687
 1830TIP3   OH2 5495   3.219   0.102   3.895
 1830TIP3    H1 5496   3.261   0.186   3.914
 1830TIP3    H2 5497   3.228   0.052   3.976
 1831TIP3   OH2 5498   0.316   3.525   3.712
 1831TIP3    H1 5499   0.311   3.503   3.619
 1831TIP3    H2 5500   0.230   3.502   3.747
 1832TIP3   OH2 5501   5.678   0.927   0.888
 1832TIP3    H1 5502   5.707   0.998   0.946
 1832TIP3    H2 5503   5.695   0.847   0.938
 1833TIP3   OH2 5504   3.926   5.093   3.544
 1833TIP3    H1 5505   3.931   5.112   3.638
 1833TIP3    H2 5506   3.844   5.045   3.534
 1834TIP3   OH2 5507   3.926   5.832   0.530
 1834TIP3    H1 5508   3.976   5.757   0.562
 1834TIP3    H2 5509   3.835   5.803   0.530
 1835TIP3   OH2 5510   2.470   4.962   1.077
 1835TIP3    H1 5511   2.377   4.986   1.083
 1835TIP3    H2 5512   2.490   4.968   0.983
 1836TIP3   OH2 5513   1.026   5.285   1.047
 1836TIP3    H1 5514   1.024   5.306   0.954
 1836TIP3    H2 5515   0.971   5.208   1.056
 1837TIP3   OH2 5516   5.067   0.258   4.462
 1837TIP3    H1 5517   4.981   0.219   4.476
 1837TIP3    H2 5518   5.072   0.271   4.368
 1838TIP3   OH2 5519   0.492   0.003   3.463
 1838TIP3    H1 5520   0.572   0.014   3.412
 1838TIP3    H2 5521   0.421   0.026   3.402
 1839TIP3   OH2 5522   2.390   5.256   3.742
 1839TIP3    H1 5523   2.415   5.289   3.828
 1839TIP3    H2 5524   2.434   5.171   3.736
 1840TIP3   OH2 5525   1.867   0.217   4.786
 1840TIP3    H1 5526   1.900   0.189   4.871
 1840TIP3    H2 5527   1.813   0.145   4.756
 1841TIP3   OH2 5528   2.191   5.776   3.415
 1841TIP3    H1 5529   2.136   5.853   3.402
 1841TIP3    H2 5530   2.271   5.794   3.365
 1842TIP3   OH2 5531   4.446   5.814   4.417
 1842TIP3    H1 5532   4.422   5.833   4.327
 1842TIP3    H2 5533   4.446   5.718   4.422
 1843TIP3   OH2 5534   0.578   4.913   2.152
 1843TIP3    H1 5535   0.600   4.824   2.123
 1843TIP3    H2 5536   0.600   4.914   2.245
 1844TIP3   OH2 5537   2.396   1.925   3.141
 1844TIP3    H1 5538   2.438   1.954   3.060
 1844TIP3    H2 5539   2.366   1.836   3.121
 1845TIP3   OH2 5540   1.425   1.187   1.702
 1845TIP3    H1 5541   1.445   1.094   1.692
 1845TIP3    H2 5542   1.403   1.217   1.614
 1846TIP3   OH2 5543   1.686   4.452   3.803
 1846TIP3    H1 5544   1.600   4.476   3.767
 1846TIP3    H2 5545   1.736   4.533   3.800
 1847TIP3   OH2 5546   5.664   3.163   3.240
 1847TIP3    H1 5547   5.749   3.134   3.206
 1847TIP3    H2 5548   5.635   3.091   3.295
 1848TIP3   OH2 5549   0.515   0.554   0.022
 1848TIP3    H1 5550   0.587   0.593   0.071
 1848TIP3    H2 5551   0.502   0.468   0.063
 1849TIP3   OH2 5552   1.608   2.342   1.739
 1849TIP3    H1 5553   1.554   2.270   1.771
 1849TIP3    H2 5554   1.572   2.363   1.653
 1850TIP3   OH2 5555   6.176   5.750   0.728
 1850TIP3    H1 5556   6.175   5.687   0.656
 1850TIP3    H2 5557   6.148   5.832   0.688
 1851TIP3   OH2 5558   1.985   0.999   2.608
 1851TIP3    H1 5559   1.902   1.010   2.653
 1851TIP3    H2 5560   1.981   0.911   2.571
 1852TIP3   OH2 5561   4.407   0.302   0.755
 1852TIP3    H1 5562   4.447   0.224   0.715
 1852TIP3    H2 5563   4.356   0.341   0.684
 1853TIP3   OH2 5564   4.281   1.018   0.424
 1853TIP3    H1 5565   4.366   1.021   0.380
 1853TIP3    H2 5566   4.301   1.032   0.516
 1854TIP3   OH2 5567   0.289   1.033   0.228
 1854TIP3    H1 5568   0.359   1.095   0.248
 1854TIP3    H2 5569   0.211   1.069   0.271
 1855TIP3   OH2 5570   0.705   3.163   3.116
 1855TIP3    H1 5571   0.700   3.130   3.206
 1855TIP3    H2 5572   0.786   3.127   3.081
 1856TIP3   OH2 5573   6.071   5.619   0.259
 1856TIP3    H1 5574   6.084   5.620   0.164
 1856TIP3    H2 5575   6.139   5.677   0.293
 1857TIP3   OH2 5576   5.903   2.669   2.498
 1857TIP3    H1 5577   5.977   2.723   2.471
 1857TIP3    H2 5578   5.900   2.599   2.433
 1858TIP3   OH2 5579   0.438   0.175   1.398
 1858TIP3    H1 5580   0.348   0.207   1.390
 1858TIP3    H2 5581   0.470   0.170   1.308
 1859TIP3   OH2 5582   2.955   3.814   0.885
 1859TIP3    H1 5583   2.872   3.848   0.851
 1859TIP3    H2 5584   3.008   3.799   0.806
 1860TIP3   OH2 5585   5.740   4.787   3.474
 1860TIP3    H1 5586   5.717   4.708   3.425
 1860TIP3    H2 5587   5.728   4.859   3.412
 1861TIP3   OH2 5588   0.228   5.638   2.680
 1861TIP3    H1 5589   0.144   5.604   2.650
 1861TIP3    H2 5590   0.287   5.628   2.605
 1862TIP3   OH2 5591   4.369   2.745   3.544
 1862TIP3    H1 5592   4.396   2.720   3.632
 1862TIP3    H2 5593   4.281   2.709   3.535
 1863TIP3   OH2 5594   2.572   0.184   2.498
 1863TIP3    H1 5595   2.538   0.144   2.579
 1863TIP3    H2 5596   2.587   0.110   2.439
 1864TIP3   OH2 5597   5.632   1.438   5.066
 1864TIP3    H1 5598   5.689   1.363   5.053
 1864TIP3    H2 5599   5.667   1.506   5.008
 1865TIP3   OH2 5600   4.575   4.072   0.805
 1865TIP3    H1 5601   4.502   4.011   0.817
 1865TIP3    H2 5602   4.620   4.074   0.889
 1866TIP3   OH2 5603   5.167   3.387   1.626
 1866TIP3    H1 5604   5.078   3.404   1.593
 1866TIP3    H2 5605   5.158   3.389   1.721
 1867TIP3   OH2 5606   2.905   0.359   3.036
 1867TIP3    H1 5607   2.825   0.383   3.083
 1867TIP3    H2 5608   2.885   0.276   2.994
 1868TIP3   OH2 5609   4.775   0.037   1.151
 1868TIP3    H1 5610   4.718   0.044   1.074
 1868TIP3    H2 5611   4.754  -0.047   1.190
 1869TIP3   OH2 5612   3.855   0.966   5.079
 1869TIP3    H1 5613   3.834   1.059   5.086
 1869TIP3    H2 5614   3.950   0.962   5.085
 1870TIP3   OH2 5615   4.373   3.703   3.744
 1870TIP3    H1 5616   4.436   3.650   3.792
 1870TIP3    H2 5617   4.326   3.751   3.812
 1871TIP3   OH2 5618   2.176   2.944   2.607
 1871TIP3    H1 5619   2.166   2.898   2.690
 1871TIP3    H2 5620   2.087   2.970   2.583
 1872TIP3   OH2 5621   0.023   4.660   3.218
 1872TIP3    H1 5622  -0.012   4.668   3.129
 1872TIP3    H2 5623  -0.001   4.572   3.246
 1873TIP3   OH2 5624   1.437   5.135   2.800
 1873TIP3    H1 5625   1.346   5.133   2.769
 1873TIP3    H2 5626   1.489   5.108   2.724
 1874TIP3   OH2 5627   1.250   4.939   1.954
 1874TIP3    H1 5628   1.181   4.910   1.895
 1874TIP3    H2 5629   1.332   4.916   1.909
 1875TIP3   OH2 5630   4.116   2.347   0.164
 1875TIP3    H1 5631   4.208   2.373   0.154
 1875TIP3    H2 5632   4.099   2.355   0.257
 1876TIP3   OH2 5633   0.307   0.280   2.050
 1876TIP3    H1 5634   0.233   0.308   1.996
 1876TIP3    H2 5635   0.346   0.207   2.001
 1877TIP3   OH2 5636   2.661   1.041   2.107
 1877TIP3    H1 5637   2.723   1.017   2.175
 1877TIP3    H2 5638   2.637   0.958   2.066
 1878TIP3   OH2 5639   3.032   2.491   5.021
 1878TIP3    H1 5640   2.973   2.520   5.090
 1878TIP3    H2 5641   2.974   2.457   4.952
 1879TIP3   OH2 5642   4.794   1.861   4.327
 1879TIP3    H1 5643   4.855   1.853   4.253
 1879TIP3    H2 5644   4.711   1.885   4.286
 1880TIP3   OH2 5645   4.916   2.813   0.875
 1880TIP3    H1 5646   4.987   2.842   0.931
 1880TIP3    H2 5647   4.924   2.718   0.873
 1881TIP3   OH2 5648   4.441   0.121   3.582
 1881TIP3    H1 5649   4.392   0.132   3.663
 1881TIP3    H2 5650   4.526   0.162   3.600
 1882TIP3   OH2 5651   4.757   3.379   0.571
 1882TIP3    H1 5652   4.742   3.474   0.567
 1882TIP3    H2 5653   4.678   3.341   0.532
 1883TIP3   OH2 5654   4.781   5.309   4.841
 1883TIP3    H1 5655   4.759   5.279   4.929
 1883TIP3    H2 5656   4.864   5.356   4.853
 1884TIP3   OH2 5657   4.861   3.508   1.605
 1884TIP3    H1 5658   4.863   3.595   1.564
 1884TIP3    H2 5659   4.821   3.523   1.690
 1885TIP3   OH2 5660   1.729   2.134   1.298
 1885TIP3    H1 5661   1.792   2.072   1.335
 1885TIP3    H2 5662   1.763   2.220   1.321
 1886TIP3   OH2 5663   4.304   3.871   0.654
 1886TIP3    H1 5664   4.340   3.789   0.619
 1886TIP3    H2 5665   4.315   3.934   0.583
 1887TIP3   OH2 5666   3.685   3.386   5.155
 1887TIP3    H1 5667   3.655   3.465   5.110
 1887TIP3    H2 5668   3.640   3.387   5.239
 1888TIP3   OH2 5669   0.487   5.997   2.288
 1888TIP3    H1 5670   0.582   5.989   2.301
 1888TIP3    H2 5671   0.467   5.931   2.222
 1889TIP3   OH2 5672   1.355   5.936   2.862
 1889TIP3    H1 5673   1.380   5.909   2.950
 1889TIP3    H2 5674   1.385   6.027   2.855
 1890TIP3   OH2 5675   2.965   3.917   3.940
 1890TIP3    H1 5676   2.970   3.897   4.033
 1890TIP3    H2 5677   2.958   3.831   3.897
 1891TIP3   OH2 5678   5.878   4.280   1.463
 1891TIP3    H1 5679   5.967   4.248   1.480
 1891TIP3    H2 5680   5.826   4.241   1.533
 1892TIP3   OH2 5681   5.831   3.543   2.062
 1892TIP3    H1 5682   5.908   3.574   2.110
 1892TIP3    H2 5683   5.860   3.542   1.970
 1893TIP3   OH2 5684   5.964   5.068   1.453
 1893TIP3    H1 5685   5.997   5.040   1.368
 1893TIP3    H2 5686   5.870   5.050   1.449
 1894TIP3   OH2 5687   3.086   5.232   3.741
 1894TIP3    H1 5688   3.076   5.214   3.835
 1894TIP3    H2 5689   3.177   5.210   3.722
 1895TIP3   OH2 5690   5.104   4.084   2.889
 1895TIP3    H1 5691   5.160   4.141   2.942
 1895TIP3    H2 5692   5.153   4.070   2.808
 1896TIP3   OH2 5693   4.371   5.666   5.152
 1896TIP3    H1 5694   4.282   5.665   5.115
 1896TIP3    H2 5695   4.428   5.663   5.075
 1897TIP3   OH2 5696   0.166   2.855   4.145
 1897TIP3    H1 5697   0.213   2.804   4.079
 1897TIP3    H2 5698   0.236   2.894   4.199
 1898TIP3   OH2 5699   3.003   1.178   2.452
 1898TIP3    H1 5700   3.058   1.236   2.504
 1898TIP3    H2 5701   2.963   1.120   2.517
 1899TIP3   OH2 5702   2.727   2.264   3.116
 1899TIP3    H1 5703   2.714   2.359   3.109
 1899TIP3    H2 5704   2.646   2.227   3.081
 1900TIP3   OH2 5705   4.389   2.126   3.276
 1900TIP3    H1 5706   4.466   2.171   3.241
 1900TIP3    H2 5707   4.315   2.167   3.231
 1901TIP3   OH2 5708   4.827   5.482   1.718
 1901TIP3    H1 5709   4.739   5.516   1.702
 1901TIP3    H2 5710   4.837   5.409   1.657
 1902TIP3   OH2 5711   3.547   2.062   0.119
 1902TIP3    H1 5712   3.608   2.053   0.046
 1902TIP3    H2 5713   3.601   2.045   0.197
 1903TIP3   OH2 5714   1.394   0.055   4.211
 1903TIP3    H1 5715   1.374   0.146   4.230
 1903TIP3    H2 5716   1.378   0.009   4.294
 1904TIP3   OH2 5717   0.680   5.333   2.586
 1904TIP3    H1 5718   0.766   5.297   2.566
 1904TIP3    H2 5719   0.697   5.422   2.617
 1905TIP3   OH2 5720   6.229   5.090   1.544
 1905TIP3    H1 5721   6.142   5.099   1.506
 1905TIP3    H2 5722   6.281   5.050   1.475
 1906TIP3   OH2 5723   0.744   2.431   1.477
 1906TIP3    H1 5724   0.746   2.380   1.557
 1906TIP3    H2 5725   0.699   2.375   1.413
 1907TIP3   OH2 5726   0.456   1.703   2.579
 1907TIP3    H1 5727   0.435   1.772   2.516
 1907TIP3    H2 5728   0.406   1.627   2.548
 1908TIP3   OH2 5729   4.356   1.963   4.258
 1908TIP3    H1 5730   4.343   1.940   4.350
 1908TIP3    H2 5731   4.269   1.958   4.219
 1909TIP3   OH2 5732   0.805   1.799   0.534
 1909TIP3    H1 5733   0.750   1.721   0.535
 1909TIP3    H2 5734   0.787   1.843   0.617
 1910TIP3   OH2 5735   1.089   3.989   2.047
 1910TIP3    H1 5736   1.079   4.017   2.138
 1910TIP3    H2 5737   1.095   4.070   1.997
 1911TIP3   OH2 5738   1.215   1.043   0.069
 1911TIP3    H1 5739   1.175   1.050   0.157
 1911TIP3    H2 5740   1.157   0.983   0.022
 1912TIP3   OH2 5741   2.935   2.678   2.658
 1912TIP3    H1 5742   2.985   2.596   2.658
 1912TIP3    H2 5743   2.952   2.716   2.745
 1913TIP3   OH2 5744   0.168   2.452   3.875
 1913TIP3    H1 5745   0.192   2.454   3.783
 1913TIP3    H2 5746   0.185   2.362   3.903
 1914TIP3   OH2 5747   5.293   2.570   2.031
 1914TIP3    H1 5748   5.240   2.611   1.963
 1914TIP3    H2 5749   5.262   2.609   2.113
 1915TIP3   OH2 5750   3.605   1.629   2.565
 1915TIP3    H1 5751   3.655   1.620   2.484
 1915TIP3    H2 5752   3.585   1.723   2.570
 1916TIP3   OH2 5753   3.542   2.136   0.675
 1916TIP3    H1 5754   3.601   2.184   0.617
 1916TIP3    H2 5755   3.477   2.201   0.703
 1917TIP3   OH2 5756   5.931   3.558   1.103
 1917TIP3    H1 5757   5.848   3.556   1.150
 1917TIP3    H2 5758   5.959   3.466   1.101
 1918TIP3   OH2 5759   3.568   4.246   1.479
 1918TIP3    H1 5760   3.644   4.215   1.529
 1918TIP3    H2 5761   3.602   4.266   1.392
 1919TIP3   OH2 5762   2.640   0.038   4.884
 1919TIP3    H1 5763   2.627   0.111   4.944
 1919TIP3    H2 5764   2.571  -0.025   4.907
 1920TIP3   OH2 5765   2.349   2.696   3.220
 1920TIP3    H1 5766   2.317   2.635   3.287
 1920TIP3    H2 5767   2.336   2.649   3.137
 1921TIP3   OH2 5768   2.139   2.540   0.991
 1921TIP3    H1 5769   2.071   2.568   0.929
 1921TIP3    H2 5770   2.162   2.621   1.038
 1922TIP3   OH2 5771   0.232   0.265   1.172
 1922TIP3    H1 5772   0.251   0.180   1.133
 1922TIP3    H2 5773   0.250   0.328   1.102
 1923TIP3   OH2 5774   1.297   3.318   0.275
 1923TIP3    H1 5775   1.214   3.293   0.234
 1923TIP3    H2 5776   1.310   3.255   0.345
 1924TIP3   OH2 5777   5.085   2.069   4.760
 1924TIP3    H1 5778   5.087   2.148   4.815
 1924TIP3    H2 5779   5.097   1.997   4.821
 1925TIP3   OH2 5780   2.770   4.842   0.219
 1925TIP3    H1 5781   2.835   4.779   0.249
 1925TIP3    H2 5782   2.790   4.856   0.127
 1926TIP3   OH2 5783   5.653   5.430   3.722
 1926TIP3    H1 5784   5.670   5.346   3.680
 1926TIP3    H2 5785   5.730   5.446   3.776
 1927TIP3   OH2 5786   3.791   1.213   4.460
 1927TIP3    H1 5787   3.852   1.171   4.521
 1927TIP3    H2 5788   3.814   1.306   4.463
 1928TIP3   OH2 5789   3.401   2.963   2.079
 1928TIP3    H1 5790   3.454   3.011   2.142
 1928TIP3    H2 5791   3.355   3.030   2.029
 1929TIP3   OH2 5792   0.041   0.836   0.870
 1929TIP3    H1 5793   0.103   0.855   0.800
 1929TIP3    H2 5794  -0.039   0.808   0.825
 1930TIP3   OH2 5795   0.028   4.949   0.808
 1930TIP3    H1 5796   0.096   4.894   0.847
 1930TIP3    H2 5797   0.002   4.903   0.729
 1931TIP3   OH2 5798   3.041   0.562   2.334
 1931TIP3    H1 5799   3.005   0.488   2.285
 1931TIP3    H2 5800   3.041   0.533   2.425
 1932TIP3   OH2 5801   2.843   1.801   4.792
 1932TIP3    H1 5802   2.799   1.727   4.833
 1932TIP3    H2 5803   2.845   1.868   4.860
 1933TIP3   OH2 5804   4.131   0.239   5.186
 1933TIP3    H1 5805   4.186   0.265   5.111
 1933TIP3    H2 5806   4.067   0.178   5.148
 1934TIP3   OH2 5807   1.505   0.276   3.214
 1934TIP3    H1 5808   1.516   0.207   3.280
 1934TIP3    H2 5809   1.491   0.356   3.265
 1935TIP3   OH2 5810   0.934   1.986   3.239
 1935TIP3    H1 5811   0.949   2.053   3.172
 1935TIP3    H2 5812   0.840   1.968   3.235
 1936TIP3   OH2 5813   5.142   4.439   5.036
 1936TIP3    H1 5814   5.086   4.483   4.972
 1936TIP3    H2 5815   5.096   4.357   5.055
 1937TIP3   OH2 5816   4.407   5.040   1.558
 1937TIP3    H1 5817   4.449   5.051   1.472
 1937TIP3    H2 5818   4.316   5.066   1.544
 1938TIP3   OH2 5819  -0.014   3.896   2.443
 1938TIP3    H1 5820  -0.004   3.855   2.529
 1938TIP3    H2 5821   0.065   3.872   2.395
 1939TIP3   OH2 5822   5.605   2.900   5.142
 1939TIP3    H1 5823   5.587   2.816   5.099
 1939TIP3    H2 5824   5.546   2.902   5.216
 1940TIP3   OH2 5825   3.601   1.601   0.378
 1940TIP3    H1 5826   3.622   1.593   0.285
 1940TIP3    H2 5827   3.543   1.677   0.383
 1941TIP3   OH2 5828   0.288   1.504   3.198
 1941TIP3    H1 5829   0.337   1.545   3.126
 1941TIP3    H2 5830   0.196   1.514   3.172
 1942TIP3   OH2 5831   6.076   4.454   4.507
 1942TIP3    H1 5832   6.054   4.515   4.438
 1942TIP3    H2 5833   6.162   4.419   4.482
 1943TIP3   OH2 5834   4.921   2.127   3.059
 1943TIP3    H1 5835   4.991   2.102   2.999
 1943TIP3    H2 5836   4.940   2.079   3.139
 1944TIP3   OH2 5837   1.662   3.925   4.401
 1944TIP3    H1 5838   1.671   4.005   4.452
 1944TIP3    H2 5839   1.570   3.899   4.413
 1945TIP3   OH2 5840   2.429   3.054   2.639
 1945TIP3    H1 5841   2.348   3.009   2.614
 1945TIP3    H2 5842   2.421   3.068   2.733
 1946TIP3   OH2 5843   3.400   4.563   1.844
 1946TIP3    H1 5844   3.324   4.529   1.892
 1946TIP3    H2 5845   3.447   4.616   1.909
 1947TIP3   OH2 5846   3.588   2.348   2.525
 1947TIP3    H1 5847   3.540   2.270   2.495
 1947TIP3    H2 5848   3.629   2.382   2.445
 1948TIP3   OH2 5849   0.868   2.192   4.016
 1948TIP3    H1 5850   0.850   2.266   4.073
 1948TIP3    H2 5851   0.882   2.118   4.076
 1949TIP3   OH2 5852   5.718   0.818   3.481
 1949TIP3    H1 5853   5.713   0.844   3.573
 1949TIP3    H2 5854   5.759   0.893   3.437
 1950TIP3   OH2 5855   5.815   0.011   2.084
 1950TIP3    H1 5856   5.910   0.013   2.083
 1950TIP3    H2 5857   5.789   0.089   2.034
 1951TIP3   OH2 5858   3.514   1.312   1.191
 1951TIP3    H1 5859   3.542   1.338   1.103
 1951TIP3    H2 5860   3.586   1.339   1.248
 1952TIP3   OH2 5861   2.374   0.530   3.570
 1952TIP3    H1 5862   2.311   0.476   3.522
 1952TIP3    H2 5863   2.381   0.610   3.518
 1953TIP3   OH2 5864   4.705   0.321   3.785
 1953TIP3    H1 5865   4.792   0.355   3.767
 1953TIP3    H2 5866   4.705   0.303   3.879
 1954TIP3   OH2 5867   2.426   5.373   3.442
 1954TIP3    H1 5868   2.418   5.346   3.534
 1954TIP3    H2 5869   2.369   5.313   3.394
 1955TIP3   OH2 5870   4.057   0.937   2.633
 1955TIP3    H1 5871   3.970   0.939   2.672
 1955TIP3    H2 5872   4.056   0.862   2.574
 1956TIP3   OH2 5873   5.279   3.971   5.046
 1956TIP3    H1 5874   5.358   3.974   5.101
 1956TIP3    H2 5875   5.209   4.002   5.103
 1957TIP3   OH2 5876   4.715   1.975   4.853
 1957TIP3    H1 5877   4.740   1.955   4.943
 1957TIP3    H2 5878   4.784   2.033   4.821
 1958TIP3   OH2 5879   1.197   3.289   1.194
 1958TIP3    H1 5880   1.108   3.322   1.199
 1958TIP3    H2 5881   1.188   3.194   1.186
 1959TIP3   OH2 5882   1.363   3.450   2.541
 1959TIP3    H1 5883   1.363   3.483   2.630
 1959TIP3    H2 5884   1.390   3.358   2.549
 1960TIP3   OH2 5885   0.577   5.661   3.097
 1960TIP3    H1 5886   0.507   5.598   3.110
 1960TIP3    H2 5887   0.638   5.617   3.037
 1961TIP3   OH2 5888   1.588   4.389   4.133
 1961TIP3    H1 5889   1.545   4.305   4.115
 1961TIP3    H2 5890   1.679   4.376   4.106
 1962TIP3   OH2 5891   1.048  -0.026   4.156
 1962TIP3    H1 5892   1.018   0.035   4.088
 1962TIP3    H2 5893   1.041   0.024   4.237
 1963TIP3   OH2 5894   2.253   2.419   0.186
 1963TIP3    H1 5895   2.198   2.484   0.230
 1963TIP3    H2 5896   2.272   2.459   0.101
 1964TIP3   OH2 5897   0.386   0.089   4.579
 1964TIP3    H1 5898   0.323   0.075   4.650
 1964TIP3    H2 5899   0.440   0.163   4.608
 1965TIP3   OH2 5900   4.507   1.341   0.165
 1965TIP3    H1 5901   4.474   1.420   0.209
 1965TIP3    H2 5902   4.523   1.279   0.236
 1966TIP3   OH2 5903   2.715   4.738   1.471
 1966TIP3    H1 5904   2.692   4.761   1.381
 1966TIP3    H2 5905   2.801   4.696   1.463
 1967TIP3   OH2 5906   2.102   2.221   1.633
 1967TIP3    H1 5907   2.149   2.152   1.586
 1967TIP3    H2 5908   2.011   2.190   1.635
 1968TIP3   OH2 5909   3.325   5.219   3.607
 1968TIP3    H1 5910   3.396   5.205   3.543
 1968TIP3    H2 5911   3.263   5.276   3.561
 1969TIP3   OH2 5912   2.058   2.843   4.030
 1969TIP3    H1 5913   2.082   2.925   4.073
 1969TIP3    H2 5914   1.999   2.869   3.959
 1970TIP3   OH2 5915   6.301   2.370   0.864
 1970TIP3    H1 5916   6.238   2.372   0.937
 1970TIP3    H2 5917   6.380   2.411   0.900
 1971TIP3   OH2 5918   5.355   1.038   1.693
 1971TIP3    H1 5919   5.373   1.128   1.721
 1971TIP3    H2 5920   5.332   0.992   1.774
 1972TIP3   OH2 5921   5.880   2.330   4.808
 1972TIP3    H1 5922   5.807   2.314   4.867
 1972TIP3    H2 5923   5.911   2.243   4.783
 1973TIP3   OH2 5924   1.263   1.849   0.297
 1973TIP3    H1 5925   1.224   1.892   0.373
 1973TIP3    H2 5926   1.302   1.920   0.246
 1974TIP3   OH2 5927   2.581   2.062   1.362
 1974TIP3    H1 5928   2.640   2.017   1.422
 1974TIP3    H2 5929   2.503   2.080   1.414
 1975TIP3   OH2 5930   6.026   4.025   2.390
 1975TIP3    H1 5931   6.034   3.981   2.475
 1975TIP3    H2 5932   6.116   4.046   2.366
 1976TIP3   OH2 5933   0.052   4.736   1.046
 1976TIP3    H1 5934   0.103   4.673   1.096
 1976TIP3    H2 5935   0.116   4.800   1.016
 1977TIP3   OH2 5936   4.804   1.962   2.828
 1977TIP3    H1 5937   4.734   1.956   2.894
 1977TIP3    H2 5938   4.881   1.991   2.877
 1978TIP3   OH2 5939   0.848   3.438   4.551
 1978TIP3    H1 5940   0.756   3.462   4.543
 1978TIP3    H2 5941   0.890   3.516   4.587
 1979TIP3   OH2 5942   1.890   2.276   3.600
 1979TIP3    H1 5943   1.954   2.347   3.599
 1979TIP3    H2 5944   1.895   2.239   3.688
 1980TIP3   OH2 5945   3.904   2.296   2.969
 1980TIP3    H1 5946   3.864   2.328   2.888
 1980TIP3    H2 5947   3.898   2.370   3.030
 1981TIP3   OH2 5948   1.743   4.424   0.674
 1981TIP3    H1 5949   1.686   4.348   0.663
 1981TIP3    H2 5950   1.740   4.468   0.589
 1982TIP3   OH2 5951   3.174   0.941   1.747
 1982TIP3    H1 5952   3.129   0.950   1.663
 1982TIP3    H2 5953   3.117   0.884   1.799
 1983TIP3   OH2 5954   4.872   5.562   3.129
 1983TIP3    H1 5955   4.942   5.503   3.099
 1983TIP3    H2 5956   4.903   5.649   3.104
 1984TIP3   OH2 5957   4.853   5.857   2.673
 1984TIP3    H1 5958   4.760   5.873   2.689
 1984TIP3    H2 5959   4.862   5.861   2.578
 1985TIP3   OH2 5960   4.997   3.198   3.983
 1985TIP3    H1 5961   4.905   3.172   3.977
 1985TIP3    H2 5962   4.996   3.282   4.029
 1986TIP3   OH2 5963   5.164   3.710   4.169
 1986TIP3    H1 5964   5.068   3.708   4.174
 1986TIP3    H2 5965   5.193   3.680   4.255
 1987TIP3   OH2 5966   1.152   2.317   0.562
 1987TIP3    H1 5967   1.070   2.363   0.544
 1987TIP3    H2 5968   1.213   2.387   0.586
 1988TIP3   OH2 5969   3.190   0.823   4.955
 1988TIP3    H1 5970   3.285   0.813   4.962
 1988TIP3    H2 5971   3.176   0.852   4.864
 1989TIP3   OH2 5972   5.301   1.102   4.591
 1989TIP3    H1 5973   5.349   1.020   4.577
 1989TIP3    H2 5974   5.347   1.144   4.664
 1990TIP3   OH2 5975   2.359   0.133   2.711
 1990TIP3    H1 5976   2.297   0.085   2.767
 1990TIP3    H2 5977   2.369   0.218   2.754
 1991TIP3   OH2 5978   1.564   3.422   3.133
 1991TIP3    H1 5979   1.606   3.491   3.080
 1991TIP3    H2 5980   1.535   3.467   3.212
 1992TIP3   OH2 5981   5.519   3.323   2.918
 1992TIP3    H1 5982   5.528   3.356   3.007
 1992TIP3    H2 5983   5.456   3.383   2.877
 1993TIP3   OH2 5984   1.529   3.705   3.529
 1993TIP3    H1 5985   1.508   3.691   3.621
 1993TIP3    H2 5986   1.534   3.800   3.520
 1994TIP3   OH2 5987   3.794   4.131   1.639
 1994TIP3    H1 5988   3.762   4.051   1.597
 1994TIP3    H2 5989   3.888   4.131   1.622
 1995TIP3   OH2 5990   4.313   3.946   4.275
 1995TIP3    H1 5991   4.274   3.876   4.327
 1995TIP3    H2 5992   4.262   4.024   4.297
 1996TIP3   OH2 5993   3.699   0.813   1.609
 1996TIP3    H1 5994   3.619   0.845   1.653
 1996TIP3    H2 5995   3.770   0.847   1.662
 1997TIP3   OH2 5996   5.115   1.838   4.939
 1997TIP3    H1 5997   5.175   1.817   4.867
 1997TIP3    H2 5998   5.127   1.767   5.002
 1998TIP3   OH2 5999   0.563   1.820   4.534
 1998TIP3    H1 6000   0.633   1.885   4.529
 1998TIP3    H2 6001   0.591   1.760   4.603
 1999TIP3   OH2 6002   1.952   1.078   1.365
 1999TIP3    H1 6003   1.909   1.031   1.436
 1999TIP3    H2 6004   2.030   1.026   1.346
 2000TIP3   OH2 6005   2.291   0.920   3.175
 2000TIP3    H1 6006   2.369   0.938   3.123
 2000TIP3    H2 6007   2.271   1.003   3.218
 2001TIP3   OH2 6008   2.805   3.730   4.428
 2001TIP3    H1 6009   2.889   3.692   4.403
 2001TIP3    H2 6010   2.826   3.819   4.456
 2002TIP3   OH2 6011   3.466   0.749   2.845
 2002TIP3    H1 6012   3.456   0.654   2.837
 2002TIP3    H2 6013   3.518   0.774   2.768
 2003TIP3   OH2 6014   5.266   2.626   0.630
 2003TIP3    H1 6015   5.341   2.608   0.574
 2003TIP3    H2 6016   5.201   2.561   0.604
 2004TIP3   OH2 6017   0.329   2.772   3.948
 2004TIP3    H1 6018   0.383   2.708   3.996
 2004TIP3    H2 6019   0.381   2.853   3.950
 2005TIP3   OH2 6020   2.928   5.961   4.742
 2005TIP3    H1 6021   2.913   6.041   4.692
 2005TIP3    H2 6022   3.021   5.943   4.730
 2006TIP3   OH2 6023   3.086   3.534   1.622
 2006TIP3    H1 6024   3.136   3.605   1.582
 2006TIP3    H2 6025   3.080   3.558   1.715
 2007TIP3   OH2 6026   3.930   1.171   4.707
 2007TIP3    H1 6027   3.907   1.249   4.758
 2007TIP3    H2 6028   3.876   1.101   4.743
 2008TIP3   OH2 6029   1.232   5.413   3.904
 2008TIP3    H1 6030   1.321   5.442   3.884
 2008TIP3    H2 6031   1.213   5.450   3.990
 2009TIP3   OH2 6032   2.128   4.049   2.585
 2009TIP3    H1 6033   2.144   3.981   2.650
 2009TIP3    H2 6034   2.065   4.011   2.525
 2010TIP3   OH2 6035   2.044   0.308   2.304
 2010TIP3    H1 6036   2.106   0.279   2.371
 2010TIP3    H2 6037   2.061   0.402   2.295
 2011TIP3   OH2 6038   0.574   5.479   0.989
 2011TIP3    H1 6039   0.485   5.483   0.955
 2011TIP3    H2 6040   0.587   5.562   1.034
 2012TIP3   OH2 6041   6.108   3.482   0.056
 2012TIP3    H1 6042   6.139   3.392   0.039
 2012TIP3    H2 6043   6.150   3.507   0.138
 2013TIP3   OH2 6044   5.911   1.072   1.005
 2013TIP3    H1 6045   5.957   1.022   0.937
 2013TIP3    H2 6046   5.940   1.162   0.992
 2014TIP3   OH2 6047   3.981   5.141   2.953
 2014TIP3    H1 6048   4.065   5.152   2.908
 2014TIP3    H2 6049   4.000   5.082   3.026
 2015TIP3   OH2 6050   2.205   1.917   4.674
 2015TIP3    H1 6051   2.170   1.872   4.596
 2015TIP3    H2 6052   2.155   1.881   4.747
 2016TIP3   OH2 6053   0.662   2.978   4.694
 2016TIP3    H1 6054   0.574   3.008   4.713
 2016TIP3    H2 6055   0.716   3.057   4.698
 2017TIP3   OH2 6056   2.531   3.188   1.793
 2017TIP3    H1 6057   2.503   3.199   1.702
 2017TIP3    H2 6058   2.482   3.112   1.825
 2018TIP3   OH2 6059   2.427   1.930   4.912
 2018TIP3    H1 6060   2.495   1.954   4.849
 2018TIP3    H2 6061   2.462   1.853   4.957
 2019TIP3   OH2 6062   4.983   5.306   0.135
 2019TIP3    H1 6063   4.922   5.296   0.061
 2019TIP3    H2 6064   5.061   5.258   0.108
 2020TIP3   OH2 6065   4.593   1.407   3.276
 2020TIP3    H1 6066   4.591   1.367   3.362
 2020TIP3    H2 6067   4.686   1.413   3.253
 2021TIP3   OH2 6068   4.279   1.232   2.024
 2021TIP3    H1 6069   4.227   1.164   2.066
 2021TIP3    H2 6070   4.309   1.193   1.942
 2022TIP3   OH2 6071   3.723   2.899   2.981
 2022TIP3    H1 6072   3.689   2.810   2.994
 2022TIP3    H2 6073   3.813   2.886   2.952
 2023TIP3   OH2 6074   5.231   0.385   1.469
 2023TIP3    H1 6075   5.199   0.448   1.533
 2023TIP3    H2 6076   5.313   0.352   1.506
 2024TIP3   OH2 6077   4.971   0.903   0.938
 2024TIP3    H1 6078   5.015   0.974   0.891
 2024TIP3    H2 6079   4.894   0.883   0.885
 2025TIP3   OH2 6080   4.171   0.645   1.088
 2025TIP3    H1 6081   4.211   0.562   1.061
 2025TIP3    H2 6082   4.077   0.633   1.072
 2026TIP3   OH2 6083   2.906   1.193   2.031
 2026TIP3    H1 6084   2.840   1.125   2.043
 2026TIP3    H2 6085   2.890   1.227   1.942
 2027TIP3   OH2 6086   3.222   5.121   0.092
 2027TIP3    H1 6087   3.257   5.108   0.180
 2027TIP3    H2 6088   3.136   5.162   0.107
 2028TIP3   OH2 6089   4.643   5.242   4.617
 2028TIP3    H1 6090   4.553   5.227   4.647
 2028TIP3    H2 6091   4.695   5.247   4.697
 2029TIP3   OH2 6092   0.546   4.100   2.544
 2029TIP3    H1 6093   0.544   4.023   2.601
 2029TIP3    H2 6094   0.529   4.174   2.603
 2030TIP3   OH2 6095   3.864   2.787   4.541
 2030TIP3    H1 6096   3.827   2.725   4.604
 2030TIP3    H2 6097   3.945   2.817   4.581
 2031TIP3   OH2 6098   3.056   4.085   1.626
 2031TIP3    H1 6099   3.028   4.117   1.712
 2031TIP3    H2 6100   3.135   4.135   1.607
 2032TIP3   OH2 6101   4.237   2.989   4.295
 2032TIP3    H1 6102   4.181   2.963   4.222
 2032TIP3    H2 6103   4.319   2.942   4.282
 2033TIP3   OH2 6104   4.420   2.951   0.047
 2033TIP3    H1 6105   4.468   2.970   0.127
 2033TIP3    H2 6106   4.355   2.885   0.072
 2034TIP3   OH2 6107   3.918   3.245   3.037
 2034TIP3    H1 6108   3.969   3.167   3.059
 2034TIP3    H2 6109   3.962   3.316   3.083
 2035TIP3   OH2 6110   6.202   0.697   4.426
 2035TIP3    H1 6111   6.296   0.716   4.417
 2035TIP3    H2 6112   6.192   0.670   4.517
 2036TIP3   OH2 6113   3.159   5.086   1.904
 2036TIP3    H1 6114   3.216   5.125   1.837
 2036TIP3    H2 6115   3.216   5.074   1.980
 2037TIP3   OH2 6116   4.128   3.124   0.964
 2037TIP3    H1 6117   4.089   3.052   1.014
 2037TIP3    H2 6118   4.054   3.181   0.943
 2038TIP3   OH2 6119   3.727   2.948   0.879
 2038TIP3    H1 6120   3.651   2.899   0.847
 2038TIP3    H2 6121   3.802   2.906   0.838
 2039TIP3   OH2 6122   5.265   5.636   2.527
 2039TIP3    H1 6123   5.354   5.641   2.493
 2039TIP3    H2 6124   5.246   5.543   2.532
 2040TIP3   OH2 6125   6.344   3.272   5.141
 2040TIP3    H1 6126   6.383   3.219   5.072
 2040TIP3    H2 6127   6.327   3.211   5.213
 2041TIP3   OH2 6128   6.034   1.488   1.757
 2041TIP3    H1 6129   6.079   1.573   1.761
 2041TIP3    H2 6130   6.105   1.424   1.745
 2042TIP3   OH2 6131   3.352   4.716   1.176
 2042TIP3    H1 6132   3.273   4.661   1.173
 2042TIP3    H2 6133   3.393   4.694   1.259
 2043TIP3   OH2 6134   5.274   1.845   3.408
 2043TIP3    H1 6135   5.348   1.898   3.438
 2043TIP3    H2 6136   5.228   1.901   3.345
 2044TIP3   OH2 6137   3.958   2.860   0.763
 2044TIP3    H1 6138   4.014   2.835   0.836
 2044TIP3    H2 6139   4.003   2.933   0.721
 2045TIP3   OH2 6140   4.311   2.568   4.210
 2045TIP3    H1 6141   4.249   2.641   4.223
 2045TIP3    H2 6142   4.379   2.605   4.154
 2046TIP3   OH2 6143   2.645   1.311   2.607
 2046TIP3    H1 6144   2.645   1.272   2.520
 2046TIP3    H2 6145   2.561   1.357   2.612
 2047TIP3   OH2 6146   5.603   1.484   0.589
 2047TIP3    H1 6147   5.642   1.518   0.669
 2047TIP3    H2 6148   5.528   1.432   0.619
 2048TIP3   OH2 6149   5.709   2.952   0.271
 2048TIP3    H1 6150   5.796   2.975   0.236
 2048TIP3    H2 6151   5.720   2.957   0.366
 2049TIP3   OH2 6152   2.433   1.123   0.228
 2049TIP3    H1 6153   2.474   1.198   0.185
 2049TIP3    H2 6154   2.343   1.152   0.246
 2050TIP3   OH2 6155   3.840   1.997   0.171
 2050TIP3    H1 6156   3.853   2.081   0.128
 2050TIP3    H2 6157   3.859   1.932   0.103
 2051TIP3   OH2 6158   3.658   0.278   1.325
 2051TIP3    H1 6159   3.730   0.326   1.285
 2051TIP3    H2 6160   3.580   0.306   1.276
 2052TIP3   OH2 6161   2.160   0.349   2.068
 2052TIP3    H1 6162   2.148   0.299   2.148
 2052TIP3    H2 6163   2.087   0.323   2.011
 2053TIP3   OH2 6164   4.134   2.360   4.193
 2053TIP3    H1 6165   4.189   2.437   4.210
 2053TIP3    H2 6166   4.130   2.355   4.097
 2054TIP3   OH2 6167   2.978   2.681   1.405
 2054TIP3    H1 6168   3.041   2.740   1.363
 2054TIP3    H2 6169   2.966   2.717   1.493
 2055TIP3   OH2 6170   1.073   2.268   0.182
 2055TIP3    H1 6171   1.110   2.209   0.116
 2055TIP3    H2 6172   1.149   2.314   0.219
 2056TIP3   OH2 6173   0.339   1.911   2.427
 2056TIP3    H1 6174   0.266   1.858   2.394
 2056TIP3    H2 6175   0.314   2.001   2.405
 2057TIP3   OH2 6176   0.922   2.702   0.114
 2057TIP3    H1 6177   0.909   2.612   0.143
 2057TIP3    H2 6178   0.976   2.742   0.182
 2058TIP3   OH2 6179   4.805   1.917   3.228
 2058TIP3    H1 6180   4.733   1.861   3.255
 2058TIP3    H2 6181   4.771   1.966   3.153
 2059TIP3   OH2 6182   3.265   0.107   2.180
 2059TIP3    H1 6183   3.258   0.012   2.171
 2059TIP3    H2 6184   3.175   0.139   2.173
 2060TIP3   OH2 6185   1.511   4.926   0.761
 2060TIP3    H1 6186   1.518   4.950   0.668
 2060TIP3    H2 6187   1.549   4.839   0.766
 2061TIP3   OH2 6188   4.360   4.214   3.855
 2061TIP3    H1 6189   4.317   4.197   3.772
 2061TIP3    H2 6190   4.348   4.133   3.905
 2062TIP3   OH2 6191   0.076   1.429   2.184
 2062TIP3    H1 6192   0.146   1.477   2.139
 2062TIP3    H2 6193   0.121   1.376   2.250
 2063TIP3   OH2 6194   3.374   4.235  -0.004
 2063TIP3    H1 6195   3.326   4.226   0.079
 2063TIP3    H2 6196   3.451   4.180   0.007
 2064TIP3   OH2 6197   0.329   2.744   1.535
 2064TIP3    H1 6198   0.365   2.661   1.568
 2064TIP3    H2 6199   0.246   2.719   1.495
 2065TIP3   OH2 6200   5.408   4.961   3.327
 2065TIP3    H1 6201   5.383   4.991   3.414
 2065TIP3    H2 6202   5.492   5.004   3.310
 2066TIP3   OH2 6203   1.543   4.315   0.263
 2066TIP3    H1 6204   1.617   4.345   0.315
 2066TIP3    H2 6205   1.568   4.334   0.173
 2067TIP3   OH2 6206   4.859   5.115   3.938
 2067TIP3    H1 6207   4.843   5.093   4.030
 2067TIP3    H2 6208   4.772   5.119   3.899
 2068TIP3   OH2 6209   2.422   2.653   2.289
 2068TIP3    H1 6210   2.451   2.742   2.308
 2068TIP3    H2 6211   2.414   2.611   2.374
 2069TIP3   OH2 6212   1.223   5.820   0.942
 2069TIP3    H1 6213   1.266   5.735   0.955
 2069TIP3    H2 6214   1.273   5.880   0.998
 2070TIP3   OH2 6215   4.467   1.449   1.194
 2070TIP3    H1 6216   4.434   1.536   1.215
 2070TIP3    H2 6217   4.403   1.414   1.132
 2071TIP3   OH2 6218  -0.008   5.363   3.582
 2071TIP3    H1 6219   0.075   5.320   3.600
 2071TIP3    H2 6220   0.016   5.440   3.531
 2072TIP3   OH2 6221   0.427   3.664   1.447
 2072TIP3    H1 6222   0.337   3.694   1.450
 2072TIP3    H2 6223   0.476   3.738   1.410
 2073TIP3   OH2 6224   4.459   4.885   3.203
 2073TIP3    H1 6225   4.454   4.860   3.296
 2073TIP3    H2 6226   4.377   4.932   3.187
 2074TIP3   OH2 6227   1.755   0.920   3.235
 2074TIP3    H1 6228   1.795   0.903   3.320
 2074TIP3    H2 6229   1.780   1.010   3.214
 2075TIP3   OH2 6230   1.607   5.164   1.754
 2075TIP3    H1 6231   1.663   5.102   1.801
 2075TIP3    H2 6232   1.601   5.129   1.665
 2076TIP3   OH2 6233   0.030   4.791   3.912
 2076TIP3    H1 6234   0.090   4.780   3.985
 2076TIP3    H2 6235   0.002   4.882   3.916
 2077TIP3   OH2 6236   1.764   5.624   2.779
 2077TIP3    H1 6237   1.809   5.673   2.710
 2077TIP3    H2 6238   1.671   5.640   2.762
 2078TIP3   OH2 6239   3.901   2.222   1.884
 2078TIP3    H1 6240   3.931   2.297   1.936
 2078TIP3    H2 6241   3.924   2.245   1.794
 2079TIP3   OH2 6242   4.313   3.431   0.809
 2079TIP3    H1 6243   4.234   3.474   0.842
 2079TIP3    H2 6244   4.328   3.359   0.870
 2080TIP3   OH2 6245   4.809   2.846   0.304
 2080TIP3    H1 6246   4.824   2.861   0.211
 2080TIP3    H2 6247   4.875   2.901   0.348
 2081TIP3   OH2 6248   4.124   4.934   3.451
 2081TIP3    H1 6249   4.081   4.855   3.418
 2081TIP3    H2 6250   4.053   4.987   3.485
 2082TIP3   OH2 6251   2.835   0.912   2.541
 2082TIP3    H1 6252   2.870   0.833   2.584
 2082TIP3    H2 6253   2.758   0.881   2.495
 2083TIP3   OH2 6254   4.725   4.770   0.714
 2083TIP3    H1 6255   4.751   4.725   0.634
 2083TIP3    H2 6256   4.718   4.700   0.779
 2084TIP3   OH2 6257   3.884   4.367   3.702
 2084TIP3    H1 6258   3.946   4.338   3.769
 2084TIP3    H2 6259   3.893   4.302   3.631
 2085TIP3   OH2 6260   1.126   2.227   0.880
 2085TIP3    H1 6261   1.217   2.211   0.855
 2085TIP3    H2 6262   1.124   2.319   0.905
 2086TIP3   OH2 6263   2.455   3.326   4.650
 2086TIP3    H1 6264   2.460   3.397   4.714
 2086TIP3    H2 6265   2.543   3.290   4.646
 2087TIP3   OH2 6266   5.919   4.197   0.762
 2087TIP3    H1 6267   5.871   4.239   0.691
 2087TIP3    H2 6268   6.008   4.231   0.754
 2088TIP3   OH2 6269   3.706   1.301   2.864
 2088TIP3    H1 6270   3.663   1.352   2.932
 2088TIP3    H2 6271   3.722   1.216   2.904
 2089TIP3   OH2 6272   2.723   4.800   2.057
 2089TIP3    H1 6273   2.767   4.884   2.042
 2089TIP3    H2 6274   2.768   4.763   2.133
 2090TIP3   OH2 6275   2.057   2.936   4.809
 2090TIP3    H1 6276   2.126   2.957   4.872
 2090TIP3    H2 6277   2.092   2.967   4.725
 2091TIP3   OH2 6278   3.185   5.012   2.485
 2091TIP3    H1 6279   3.265   5.015   2.538
 2091TIP3    H2 6280   3.188   5.091   2.432
 2092TIP3   OH2 6281   0.543   0.396   5.103
 2092TIP3    H1 6282   0.623   0.442   5.078
 2092TIP3    H2 6283   0.549   0.310   5.060
 2093TIP3   OH2 6284   1.926   3.639   1.381
 2093TIP3    H1 6285   1.999   3.580   1.360
 2093TIP3    H2 6286   1.958   3.726   1.360
 2094TIP3   OH2 6287   4.622   1.125   4.636
 2094TIP3    H1 6288   4.553   1.117   4.702
 2094TIP3    H2 6289   4.587   1.079   4.559
 2095TIP3   OH2 6290   5.608   2.476   3.551
 2095TIP3    H1 6291   5.587   2.538   3.481
 2095TIP3    H2 6292   5.639   2.398   3.504
 2096TIP3   OH2 6293   0.077   4.429   3.842
 2096TIP3    H1 6294   0.094   4.337   3.824
 2096TIP3    H2 6295   0.149   4.457   3.899
 2097TIP3   OH2 6296   3.144   5.484   4.100
 2097TIP3    H1 6297   3.054   5.516   4.108
 2097TIP3    H2 6298   3.135   5.399   4.056
 2098TIP3   OH2 6299   2.598   2.278   2.751
 2098TIP3    H1 6300   2.656   2.249   2.680
 2098TIP3    H2 6301   2.544   2.346   2.711
 2099TIP3   OH2 6302   3.910   5.818   4.138
 2099TIP3    H1 6303   3.822   5.825   4.100
 2099TIP3    H2 6304   3.964   5.874   4.083
 2100TIP3   OH2 6305   2.756   2.194   2.113
 2100TIP3    H1 6306   2.739   2.255   2.185
 2100TIP3    H2 6307   2.832   2.231   2.068
 2101TIP3   OH2 6308   1.719   2.776   2.264
 2101TIP3    H1 6309   1.723   2.690   2.304
 2101TIP3    H2 6310   1.711   2.759   2.170
 2102TIP3   OH2 6311   5.103   0.243   4.191
 2102TIP3    H1 6312   5.076   0.160   4.151
 2102TIP3    H2 6313   5.111   0.303   4.117
 2103TIP3   OH2 6314   6.171   3.819   3.907
 2103TIP3    H1 6315   6.175   3.830   4.002
 2103TIP3    H2 6316   6.128   3.898   3.876
 2104TIP3   OH2 6317   2.658   5.650   0.601
 2104TIP3    H1 6318   2.601   5.609   0.666
 2104TIP3    H2 6319   2.645   5.744   0.613
 2105TIP3   OH2 6320   3.505   0.955   1.756
 2105TIP3    H1 6321   3.510   0.942   1.850
 2105TIP3    H2 6322   3.413   0.977   1.739
 2106TIP3   OH2 6323   6.169   0.585   0.171
 2106TIP3    H1 6324   6.177   0.490   0.171
 2106TIP3    H2 6325   6.077   0.601   0.189
 2107TIP3   OH2 6326   1.052   3.669   2.074
 2107TIP3    H1 6327   1.030   3.579   2.048
 2107TIP3    H2 6328   1.042   3.670   2.169
 2108TIP3   OH2 6329   0.613   4.701   0.096
 2108TIP3    H1 6330   0.619   4.790   0.131
 2108TIP3    H2 6331   0.675   4.651   0.149
 2109TIP3   OH2 6332   0.383   2.498   0.810
 2109TIP3    H1 6333   0.471   2.512   0.777
 2109TIP3    H2 6334   0.392   2.428   0.875
 2110TIP3   OH2 6335   3.837   5.307   3.165
 2110TIP3    H1 6336   3.803   5.244   3.101
 2110TIP3    H2 6337   3.928   5.280   3.179
 2111TIP3   OH2 6338   4.138   0.022   2.787
 2111TIP3    H1 6339   4.173  -0.032   2.858
 2111TIP3    H2 6340   4.103   0.100   2.830
 2112TIP3   OH2 6341   4.558   4.325   4.369
 2112TIP3    H1 6342   4.611   4.246   4.356
 2112TIP3    H2 6343   4.522   4.344   4.283
 2113TIP3   OH2 6344   3.852   3.030   4.187
 2113TIP3    H1 6345   3.924   2.968   4.183
 2113TIP3    H2 6346   3.795   2.996   4.256
 2114TIP3   OH2 6347   4.449   5.969   0.464
 2114TIP3    H1 6348   4.494   5.986   0.381
 2114TIP3    H2 6349   4.397   5.891   0.447
 2115TIP3   OH2 6350   2.930   2.974   4.816
 2115TIP3    H1 6351   2.968   2.901   4.864
 2115TIP3    H2 6352   2.881   2.933   4.745
 2116TIP3   OH2 6353   6.065   5.412   3.722
 2116TIP3    H1 6354   6.161   5.414   3.725
 2116TIP3    H2 6355   6.042   5.472   3.651
 2117TIP3   OH2 6356   2.674   5.903   2.294
 2117TIP3    H1 6357   2.707   5.858   2.217
 2117TIP3    H2 6358   2.746   5.960   2.322
 2118TIP3   OH2 6359   0.841   1.716   0.922
 2118TIP3    H1 6360   0.933   1.737   0.938
 2118TIP3    H2 6361   0.829   1.630   0.963
 2119TIP3   OH2 6362   1.892   3.059   4.522
 2119TIP3    H1 6363   1.801   3.035   4.504
 2119TIP3    H2 6364   1.897   3.065   4.617
 2120TIP3   OH2 6365   6.266   3.549   5.156
 2120TIP3    H1 6366   6.300   3.460   5.150
 2120TIP3    H2 6367   6.191   3.543   5.215
 2121TIP3   OH2 6368   0.240   2.544   5.006
 2121TIP3    H1 6369   0.259   2.517   5.096
 2121TIP3    H2 6370   0.261   2.637   5.004
 2122TIP3   OH2 6371   1.800   3.226   0.119
 2122TIP3    H1 6372   1.891   3.236   0.093
 2122TIP3    H2 6373   1.796   3.263   0.207
 2123TIP3   OH2 6374   0.435   2.634   4.702
 2123TIP3    H1 6375   0.369   2.642   4.633
 2123TIP3    H2 6376   0.466   2.544   4.695
 2124TIP3   OH2 6377   0.273   4.524   4.004
 2124TIP3    H1 6378   0.249   4.605   4.048
 2124TIP3    H2 6379   0.322   4.474   4.070
 2125TIP3   OH2 6380   3.137   4.175   3.189
 2125TIP3    H1 6381   3.096   4.090   3.206
 2125TIP3    H2 6382   3.088   4.237   3.242
 2126TIP3   OH2 6383   1.310   4.493   4.424
 2126TIP3    H1 6384   1.334   4.533   4.340
 2126TIP3    H2 6385   1.385   4.511   4.481
 2127TIP3   OH2 6386   3.312   0.708   2.551
 2127TIP3    H1 6387   3.340   0.798   2.534
 2127TIP3    H2 6388   3.361   0.655   2.487
 2128TIP3   OH2 6389   4.881   0.566   2.079
 2128TIP3    H1 6390   4.790   0.557   2.052
 2128TIP3    H2 6391   4.878   0.565   2.175
 2129TIP3   OH2 6392   0.158   2.486   0.211
 2129TIP3    H1 6393   0.191   2.463   0.124
 2129TIP3    H2 6394   0.237   2.495   0.264
 2130TIP3   OH2 6395   5.570   0.954   1.880
 2130TIP3    H1 6396   5.625   0.879   1.900
 2130TIP3    H2 6397   5.631   1.020   1.847
 2131TIP3   OH2 6398   1.948   0.164   3.591
 2131TIP3    H1 6399   1.897   0.185   3.513
 2131TIP3    H2 6400   1.918   0.077   3.616
 2132TIP3   OH2 6401   2.645   1.590   0.953
 2132TIP3    H1 6402   2.567   1.596   1.009
 2132TIP3    H2 6403   2.671   1.497   0.959
 2133TIP3   OH2 6404   4.825   3.826   2.074
 2133TIP3    H1 6405   4.805   3.880   1.997
 2133TIP3    H2 6406   4.915   3.795   2.059
 2134TIP3   OH2 6407   3.556   1.655   1.505
 2134TIP3    H1 6408   3.641   1.650   1.461
 2134TIP3    H2 6409   3.505   1.718   1.454
 2135TIP3   OH2 6410   2.498   2.030   2.903
 2135TIP3    H1 6411   2.532   1.962   2.846
 2135TIP3    H2 6412   2.527   2.112   2.863
 2136TIP3   OH2 6413   6.161   3.879   4.809
 2136TIP3    H1 6414   6.157   3.783   4.811
 2136TIP3    H2 6415   6.086   3.908   4.861
 2137TIP3   OH2 6416   1.068   5.153   5.012
 2137TIP3    H1 6417   1.161   5.178   5.014
 2137TIP3    H2 6418   1.021   5.235   5.004
 2138TIP3   OH2 6419   2.831   4.909   2.304
 2138TIP3    H1 6420   2.863   4.997   2.284
 2138TIP3    H2 6421   2.856   4.894   2.395
 2139TIP3   OH2 6422   1.145   2.406   4.188
 2139TIP3    H1 6423   1.107   2.322   4.213
 2139TIP3    H2 6424   1.123   2.465   4.259
 2140TIP3   OH2 6425   0.152   5.624   0.557
 2140TIP3    H1 6426   0.215   5.679   0.509
 2140TIP3    H2 6427   0.076   5.618   0.499
 2141TIP3   OH2 6428   5.034   5.619   0.042
 2141TIP3    H1 6429   4.947   5.580   0.032
 2141TIP3    H2 6430   5.073   5.571   0.116
 2142TIP3   OH2 6431   5.164   2.294   1.232
 2142TIP3    H1 6432   5.156   2.219   1.174
 2142TIP3    H2 6433   5.144   2.259   1.319
 2143TIP3   OH2 6434   1.189   0.965   3.528
 2143TIP3    H1 6435   1.119   0.907   3.560
 2143TIP3    H2 6436   1.259   0.905   3.502
 2144TIP3   OH2 6437   2.127   0.387   4.953
 2144TIP3    H1 6438   2.050   0.330   4.964
 2144TIP3    H2 6439   2.162   0.363   4.867
 2145TIP3   OH2 6440   3.854   3.158   3.316
 2145TIP3    H1 6441   3.853   3.141   3.222
 2145TIP3    H2 6442   3.763   3.152   3.343
 2146TIP3   OH2 6443   0.081   0.638   2.311
 2146TIP3    H1 6444   0.058   0.662   2.401
 2146TIP3    H2 6445   0.177   0.629   2.312
 2147TIP3   OH2 6446   5.819   4.396   0.552
 2147TIP3    H1 6447   5.784   4.468   0.500
 2147TIP3    H2 6448   5.848   4.437   0.633
 2148TIP3   OH2 6449   6.018   3.440   4.144
 2148TIP3    H1 6450   5.987   3.368   4.090
 2148TIP3    H2 6451   5.991   3.417   4.233
 2149TIP3   OH2 6452   6.046   0.668   2.404
 2149TIP3    H1 6453   5.992   0.609   2.351
 2149TIP3    H2 6454   6.100   0.714   2.341
 2150TIP3   OH2 6455   1.065   3.245   0.145
 2150TIP3    H1 6456   1.023   3.205   0.068
 2150TIP3    H2 6457   0.992   3.282   0.195
 2151TIP3   OH2 6458   1.567   4.944   3.402
 2151TIP3    H1 6459   1.537   5.021   3.352
 2151TIP3    H2 6460   1.659   4.934   3.378
 2152TIP3   OH2 6461   3.909   4.351   4.490
 2152TIP3    H1 6462   3.853   4.429   4.489
 2152TIP3    H2 6463   3.997   4.384   4.475
 2153TIP3   OH2 6464   2.074   5.117   2.722
 2153TIP3    H1 6465   2.058   5.024   2.738
 2153TIP3    H2 6466   2.062   5.159   2.808
 2154TIP3   OH2 6467   1.344   5.256   4.213
 2154TIP3    H1 6468   1.402   5.325   4.244
 2154TIP3    H2 6469   1.397   5.176   4.218
 2155TIP3   OH2 6470   2.890   0.584   2.821
 2155TIP3    H1 6471   2.845   0.664   2.845
 2155TIP3    H2 6472   2.894   0.533   2.902
 2156TIP3   OH2 6473   4.510   1.027   1.148
 2156TIP3    H1 6474   4.550   0.943   1.168
 2156TIP3    H2 6475   4.440   1.037   1.213
 2157TIP3   OH2 6476   4.110   3.897   0.159
 2157TIP3    H1 6477   4.183   3.853   0.116
 2157TIP3    H2 6478   4.033   3.844   0.136
 2158TIP3   OH2 6479   0.303   5.684   4.728
 2158TIP3    H1 6480   0.255   5.727   4.657
 2158TIP3    H2 6481   0.285   5.737   4.805
 2159TIP3   OH2 6482   0.771   2.135   3.762
 2159TIP3    H1 6483   0.679   2.109   3.769
 2159TIP3    H2 6484   0.801   2.145   3.853
 2160TIP3   OH2 6485   0.734   5.893   4.750
 2160TIP3    H1 6486   0.696   5.956   4.812
 2160TIP3    H2 6487   0.787   5.946   4.691
 2161TIP3   OH2 6488   5.986   5.266   3.200
 2161TIP3    H1 6489   5.975   5.341   3.141
 2161TIP3    H2 6490   6.080   5.260   3.213
 2162TIP3   OH2 6491   6.154   4.880   1.843
 2162TIP3    H1 6492   6.184   4.970   1.828
 2162TIP3    H2 6493   6.180   4.833   1.764
 2163TIP3   OH2 6494   0.211   5.627   2.101
 2163TIP3    H1 6495   0.295   5.583   2.097
 2163TIP3    H2 6496   0.148   5.557   2.118
 2164TIP3   OH2 6497   1.101   4.916   3.935
 2164TIP3    H1 6498   1.130   4.907   4.025
 2164TIP3    H2 6499   1.055   5.000   3.933
 2165TIP3   OH2 6500   2.378   3.762   4.427
 2165TIP3    H1 6501   2.425   3.805   4.355
 2165TIP3    H2 6502   2.292   3.742   4.390
 2166TIP3   OH2 6503   4.985   1.460   0.404
 2166TIP3    H1 6504   5.032   1.475   0.322
 2166TIP3    H2 6505   4.919   1.529   0.406
 2167TIP3   OH2 6506   3.409   5.330   1.909
 2167TIP3    H1 6507   3.348   5.321   1.836
 2167TIP3    H2 6508   3.418   5.424   1.922
 2168TIP3   OH2 6509   0.867   1.386   3.959
 2168TIP3    H1 6510   0.851   1.389   3.865
 2168TIP3    H2 6511   0.936   1.320   3.969
 2169TIP3   OH2 6512   6.039   2.529   4.390
 2169TIP3    H1 6513   6.018   2.475   4.467
 2169TIP3    H2 6514   6.133   2.545   4.397
 2170TIP3   OH2 6515   1.632   1.813   4.759
 2170TIP3    H1 6516   1.537   1.802   4.755
 2170TIP3    H2 6517   1.648   1.891   4.706
 2171TIP3   OH2 6518   0.782   1.184   0.584
 2171TIP3    H1 6519   0.752   1.110   0.531
 2171TIP3    H2 6520   0.724   1.184   0.661
 2172TIP3   OH2 6521   2.037   1.960   2.077
 2172TIP3    H1 6522   2.086   1.913   2.010
 2172TIP3    H2 6523   2.103   2.012   2.123
 2173TIP3   OH2 6524   4.589   0.566   2.969
 2173TIP3    H1 6525   4.573   0.642   3.025
 2173TIP3    H2 6526   4.508   0.554   2.920
 2174TIP3   OH2 6527   3.363   5.851   0.523
 2174TIP3    H1 6528   3.336   5.795   0.451
 2174TIP3    H2 6529   3.351   5.940   0.490
 2175TIP3   OH2 6530   4.603   5.780   2.427
 2175TIP3    H1 6531   4.647   5.700   2.457
 2175TIP3    H2 6532   4.609   5.776   2.332
 2176TIP3   OH2 6533   3.022   3.820   0.615
 2176TIP3    H1 6534   2.932   3.794   0.601
 2176TIP3    H2 6535   3.073   3.765   0.556
 2177TIP3   OH2 6536   0.392   0.893   0.014
 2177TIP3    H1 6537   0.345   0.932   0.088
 2177TIP3    H2 6538   0.372   0.800   0.020
 2178TIP3   OH2 6539   1.685   1.944   3.231
 2178TIP3    H1 6540   1.737   1.996   3.169
 2178TIP3    H2 6541   1.601   1.932   3.188
 2179TIP3   OH2 6542   5.261   3.837   3.313
 2179TIP3    H1 6543   5.223   3.858   3.228
 2179TIP3    H2 6544   5.333   3.899   3.324
 2180TIP3   OH2 6545   0.574   1.738   2.285
 2180TIP3    H1 6546   0.627   1.703   2.357
 2180TIP3    H2 6547   0.623   1.715   2.206
 2181TIP3   OH2 6548   1.519   3.130   1.240
 2181TIP3    H1 6549   1.474   3.183   1.307
 2181TIP3    H2 6550   1.481   3.160   1.157
 2182TIP3   OH2 6551   4.985   0.927   0.484
 2182TIP3    H1 6552   5.051   0.928   0.553
 2182TIP3    H2 6553   5.009   0.998   0.426
 2183TIP3   OH2 6554   3.763   1.207   2.415
 2183TIP3    H1 6555   3.726   1.267   2.480
 2183TIP3    H2 6556   3.836   1.255   2.376
 2184TIP3   OH2 6557   4.612   2.546   4.772
 2184TIP3    H1 6558   4.548   2.480   4.744
 2184TIP3    H2 6559   4.696   2.500   4.773
 2185TIP3   OH2 6560   5.945   1.298   3.137
 2185TIP3    H1 6561   5.883   1.314   3.067
 2185TIP3    H2 6562   5.948   1.381   3.186
 2186TIP3   OH2 6563   5.145   0.424   3.265
 2186TIP3    H1 6564   5.166   0.494   3.327
 2186TIP3    H2 6565   5.068   0.381   3.302
 2187TIP3   OH2 6566   5.803   4.529   1.296
 2187TIP3    H1 6567   5.793   4.622   1.315
 2187TIP3    H2 6568   5.837   4.491   1.377
 2188TIP3   OH2 6569   6.241   3.998   2.142
 2188TIP3    H1 6570   6.291   4.012   2.062
 2188TIP3    H2 6571   6.169   4.062   2.137
 2189TIP3   OH2 6572   0.013   4.714   1.376
 2189TIP3    H1 6573   0.048   4.802   1.390
 2189TIP3    H2 6574   0.075   4.674   1.315
 2190TIP3   OH2 6575   6.142   1.818   3.215
 2190TIP3    H1 6576   6.100   1.807   3.301
 2190TIP3    H2 6577   6.072   1.851   3.158
 2191TIP3   OH2 6578   0.624   4.077   0.400
 2191TIP3    H1 6579   0.535   4.084   0.366
 2191TIP3    H2 6580   0.614   4.089   0.495
 2192TIP3   OH2 6581   5.326   5.699   1.164
 2192TIP3    H1 6582   5.245   5.663   1.128
 2192TIP3    H2 6583   5.298   5.756   1.235
 2193TIP3   OH2 6584   5.945   5.067   1.755
 2193TIP3    H1 6585   5.894   5.000   1.800
 2193TIP3    H2 6586   5.900   5.078   1.671
 2194TIP3   OH2 6587   4.637   2.757   4.524
 2194TIP3    H1 6588   4.674   2.736   4.610
 2194TIP3    H2 6589   4.712   2.761   4.465
 2195TIP3   OH2 6590   0.976   1.572   0.627
 2195TIP3    H1 6591   1.032   1.645   0.653
 2195TIP3    H2 6592   0.906   1.613   0.576
 2196TIP3   OH2 6593   1.464   4.017   5.135
 2196TIP3    H1 6594   1.411   4.057   5.066
 2196TIP3    H2 6595   1.495   3.935   5.097
 2197TIP3   OH2 6596   1.412   0.592   3.729
 2197TIP3    H1 6597   1.432   0.661   3.792
 2197TIP3    H2 6598   1.472   0.609   3.656
 2198TIP3   OH2 6599   3.795   3.973   1.419
 2198TIP3    H1 6600   3.865   3.924   1.377
 2198TIP3    H2 6601   3.730   3.986   1.350
 2199TIP3   OH2 6602   4.932   2.424   1.926
 2199TIP3    H1 6603   4.968   2.512   1.938
 2199TIP3    H2 6604   4.932   2.411   1.832
 2200TIP3   OH2 6605   2.791   1.086   4.142
 2200TIP3    H1 6606   2.751   0.999   4.132
 2200TIP3    H2 6607   2.716   1.146   4.146
 2201TIP3   OH2 6608   0.106   3.234   4.355
 2201TIP3    H1 6609   0.098   3.301   4.423
 2201TIP3    H2 6610   0.025   3.185   4.360
 2202TIP3   OH2 6611   4.663   4.012   1.739
 2202TIP3    H1 6612   4.662   4.061   1.657
 2202TIP3    H2 6613   4.628   4.072   1.804
 2203TIP3   OH2 6614   3.029   4.246   1.365
 2203TIP3    H1 6615   3.080   4.290   1.432
 2203TIP3    H2 6616   3.009   4.160   1.403
 2204TIP3   OH2 6617   1.054   0.060   4.415
 2204TIP3    H1 6618   1.039   0.016   4.499
 2204TIP3    H2 6619   1.002   0.140   4.421
 2205TIP3   OH2 6620   0.770   2.826   0.578
 2205TIP3    H1 6621   0.685   2.854   0.544
 2205TIP3    H2 6622   0.768   2.730   0.573
 2206TIP3   OH2 6623   2.901   5.164   5.165
 2206TIP3    H1 6624   2.986   5.177   5.124
 2206TIP3    H2 6625   2.847   5.235   5.132
 2207TIP3   OH2 6626   1.163   3.665   3.303
 2207TIP3    H1 6627   1.183   3.648   3.395
 2207TIP3    H2 6628   1.135   3.756   3.301
 2208TIP3   OH2 6629   1.272   4.738   3.027
 2208TIP3    H1 6630   1.223   4.715   2.947
 2208TIP3    H2 6631   1.279   4.833   3.024
 2209TIP3   OH2 6632   0.677   3.531   4.283
 2209TIP3    H1 6633   0.611   3.519   4.214
 2209TIP3    H2 6634   0.629   3.512   4.364
 2210TIP3   OH2 6635   2.790   5.502   4.576
 2210TIP3    H1 6636   2.761   5.530   4.663
 2210TIP3    H2 6637   2.875   5.545   4.564
 2211TIP3   OH2 6638   3.644   0.985   2.293
 2211TIP3    H1 6639   3.676   1.062   2.340
 2211TIP3    H2 6640   3.723   0.936   2.271
 2212TIP3   OH2 6641   2.770   4.225   1.159
 2212TIP3    H1 6642   2.856   4.224   1.116
 2212TIP3    H2 6643   2.727   4.303   1.123
 2213TIP3   OH2 6644   5.941   3.180   0.848
 2213TIP3    H1 6645   5.963   3.191   0.756
 2213TIP3    H2 6646   5.850   3.152   0.848
 2214TIP3   OH2 6647   4.132   2.611   1.980
 2214TIP3    H1 6648   4.088   2.624   2.064
 2214TIP3    H2 6649   4.215   2.657   1.989
 2215TIP3   OH2 6650   0.260   0.592   1.240
 2215TIP3    H1 6651   0.335   0.543   1.274
 2215TIP3    H2 6652   0.234   0.544   1.161
 2216TIP3   OH2 6653   2.766   3.181   2.725
 2216TIP3    H1 6654   2.766   3.168   2.630
 2216TIP3    H2 6655   2.756   3.093   2.761
 2217TIP3   OH2 6656   1.312   1.273   1.934
 2217TIP3    H1 6657   1.320   1.246   1.842
 2217TIP3    H2 6658   1.367   1.212   1.982
 2218TIP3   OH2 6659   6.240   1.663   2.389
 2218TIP3    H1 6660   6.179   1.640   2.319
 2218TIP3    H2 6661   6.187   1.706   2.456
 2219TIP3   OH2 6662   4.402   3.849   1.287
 2219TIP3    H1 6663   4.378   3.782   1.351
 2219TIP3    H2 6664   4.457   3.910   1.336
 2220TIP3   OH2 6665   3.318   1.858   0.956
 2220TIP3    H1 6666   3.231   1.826   0.933
 2220TIP3    H2 6667   3.360   1.878   0.872
 2221TIP3   OH2 6668   4.308   3.670   1.086
 2221TIP3    H1 6669   4.266   3.737   1.032
 2221TIP3    H2 6670   4.354   3.719   1.154
 2222TIP3   OH2 6671   0.047   2.819   2.999
 2222TIP3    H1 6672   0.048   2.880   3.073
 2222TIP3    H2 6673   0.043   2.732   3.041
 2223TIP3   OH2 6674   5.309   1.044   3.276
 2223TIP3    H1 6675   5.300   1.082   3.364
 2223TIP3    H2 6676   5.300   0.950   3.290
 2224TIP3   OH2 6677   4.848   0.075   1.505
 2224TIP3    H1 6678   4.809   0.155   1.539
 2224TIP3    H2 6679   4.803   0.005   1.551
 2225TIP3   OH2 6680   4.929   0.492   1.707
 2225TIP3    H1 6681   4.966   0.546   1.638
 2225TIP3    H2 6682   4.982   0.512   1.784
 2226TIP3   OH2 6683   6.238   5.264   0.154
 2226TIP3    H1 6684   6.285   5.256   0.237
 2226TIP3    H2 6685   6.301   5.235   0.088
 2227TIP3   OH2 6686   1.170   2.907   0.147
 2227TIP3    H1 6687   1.078   2.934   0.146
 2227TIP3    H2 6688   1.217   2.988   0.167
 2228TIP3   OH2 6689   5.523   4.607   1.315
 2228TIP3    H1 6690   5.542   4.689   1.268
 2228TIP3    H2 6691   5.602   4.554   1.303
 2229TIP3   OH2 6692   4.274   0.744   3.524
 2229TIP3    H1 6693   4.326   0.749   3.444
 2229TIP3    H2 6694   4.185   0.765   3.495
 2230TIP3   OH2 6695   2.393   3.623   3.019
 2230TIP3    H1 6696   2.307   3.643   3.054
 2230TIP3    H2 6697   2.438   3.708   3.014
 2231TIP3   OH2 6698   0.491   3.493   1.184
 2231TIP3    H1 6699   0.462   3.429   1.248
 2231TIP3    H2 6700   0.415   3.548   1.168
 2232TIP3   OH2 6701   2.681   5.746   1.208
 2232TIP3    H1 6702   2.725   5.672   1.251
 2232TIP3    H2 6703   2.717   5.748   1.120
 2233TIP3   OH2 6704   2.440   3.538   3.751
 2233TIP3    H1 6705   2.392   3.485   3.814
 2233TIP3    H2 6706   2.526   3.552   3.791
 2234TIP3   OH2 6707   3.894   0.586   1.570
 2234TIP3    H1 6708   3.910   0.503   1.613
 2234TIP3    H2 6709   3.810   0.616   1.607
 2235TIP3   OH2 6710   3.312   4.558   4.209
 2235TIP3    H1 6711   3.270   4.472   4.216
 2235TIP3    H2 6712   3.239   4.618   4.195
 2236TIP3   OH2 6713   4.168   2.822   1.227
 2236TIP3    H1 6714   4.101   2.843   1.162
 2236TIP3    H2 6715   4.171   2.898   1.284
 2237TIP3   OH2 6716   5.929   5.670   5.211
 2237TIP3    H1 6717   5.917   5.622   5.129
 2237TIP3    H2 6718   5.879   5.751   5.199
 2238TIP3   OH2 6719   1.788   3.128   2.812
 2238TIP3    H1 6720   1.772   3.063   2.880
 2238TIP3    H2 6721   1.863   3.095   2.763
 2239TIP3   OH2 6722   2.991   5.216   0.189
 2239TIP3    H1 6723   2.976   5.292   0.133
 2239TIP3    H2 6724   2.904   5.177   0.201
 2240TIP3   OH2 6725   1.303   0.382   2.686
 2240TIP3    H1 6726   1.349   0.459   2.719
 2240TIP3    H2 6727   1.218   0.416   2.657
 2241TIP3   OH2 6728   5.513   1.691   1.010
 2241TIP3    H1 6729   5.490   1.665   1.100
 2241TIP3    H2 6730   5.443   1.655   0.956
 2242TIP3   OH2 6731   2.082   0.430   3.092
 2242TIP3    H1 6732   2.140   0.414   3.166
 2242TIP3    H2 6733   2.092   0.523   3.073
 2243TIP3   OH2 6734   3.476   0.118   0.507
 2243TIP3    H1 6735   3.406   0.086   0.565
 2243TIP3    H2 6736   3.430   0.163   0.437
 2244TIP3   OH2 6737   0.304   0.750   3.799
 2244TIP3    H1 6738   0.246   0.699   3.855
 2244TIP3    H2 6739   0.360   0.798   3.859
 2245TIP3   OH2 6740   2.604   4.215   2.919
 2245TIP3    H1 6741   2.689   4.215   2.963
 2245TIP3    H2 6742   2.606   4.293   2.864
 2246TIP3   OH2 6743   6.063   0.810   3.860
 2246TIP3    H1 6744   6.081   0.834   3.769
 2246TIP3    H2 6745   6.129   0.743   3.880
 2247TIP3   OH2 6746   4.612   3.170   2.734
 2247TIP3    H1 6747   4.631   3.128   2.650
 2247TIP3    H2 6748   4.697   3.198   2.767
 2248TIP3   OH2 6749   1.913   2.320   4.638
 2248TIP3    H1 6750   1.999   2.357   4.618
 2248TIP3    H2 6751   1.930   2.259   4.710
 2249TIP3   OH2 6752   0.930   0.586   3.004
 2249TIP3    H1 6753   1.015   0.550   2.980
 2249TIP3    H2 6754   0.888   0.517   3.054
 2250TIP3   OH2 6755   1.649   0.662   1.380
 2250TIP3    H1 6756   1.569   0.685   1.333
 2250TIP3    H2 6757   1.649   0.566   1.384
 2251TIP3   OH2 6758   5.167   4.459   4.621
 2251TIP3    H1 6759   5.261   4.467   4.632
 2251TIP3    H2 6760   5.146   4.370   4.649
 2252TIP3   OH2 6761   4.920   5.002   0.201
 2252TIP3    H1 6762   5.006   5.034   0.176
 2252TIP3    H2 6763   4.937   4.944   0.276
 2253TIP3   OH2 6764   1.178   1.079   2.142
 2253TIP3    H1 6765   1.209   1.013   2.080
 2253TIP3    H2 6766   1.213   1.051   2.227
 2254TIP3   OH2 6767   1.777   2.541   2.695
 2254TIP3    H1 6768   1.741   2.627   2.675
 2254TIP3    H2 6769   1.784   2.497   2.611
 2255TIP3   OH2 6770   5.917   4.622   1.582
 2255TIP3    H1 6771   6.012   4.635   1.583
 2255TIP3    H2 6772   5.883   4.697   1.533
 2256TIP3   OH2 6773   3.711   0.826   0.499
 2256TIP3    H1 6774   3.759   0.843   0.419
 2256TIP3    H2 6775   3.619   0.841   0.476
 2257TIP3   OH2 6776   1.082   0.641   4.885
 2257TIP3    H1 6777   1.065   0.631   4.979
 2257TIP3    H2 6778   1.035   0.721   4.861
 2258TIP3   OH2 6779   0.268   5.885   4.974
 2258TIP3    H1 6780   0.238   5.909   5.062
 2258TIP3    H2 6781   0.214   5.937   4.915
 2259TIP3   OH2 6782   3.848   2.699   1.828
 2259TIP3    H1 6783   3.915   2.766   1.811
 2259TIP3    H2 6784   3.892   2.637   1.887
 2260TIP3   OH2 6785   3.991   2.741   1.554
 2260TIP3    H1 6786   3.974   2.759   1.461
 2260TIP3    H2 6787   4.020   2.825   1.590
 2261TIP3   OH2 6788   0.035   2.547   4.531
 2261TIP3    H1 6789   0.123   2.515   4.553
 2261TIP3    H2 6790  -0.024   2.482   4.567
 2262TIP3   OH2 6791   4.054   4.683   4.629
 2262TIP3    H1 6792   3.967   4.646   4.641
 2262TIP3    H2 6793   4.113   4.619   4.669
 2263TIP3   OH2 6794   2.756   1.185   1.421
 2263TIP3    H1 6795   2.721   1.170   1.509
 2263TIP3    H2 6796   2.751   1.099   1.378
 2264TIP3   OH2 6797   2.340   0.456   0.412
 2264TIP3    H1 6798   2.249   0.452   0.441
 2264TIP3    H2 6799   2.335   0.464   0.317
 2265TIP3   OH2 6800   2.972   1.222   3.990
 2265TIP3    H1 6801   2.967   1.197   3.898
 2265TIP3    H2 6802   2.910   1.163   4.034
 2266TIP3   OH2 6803   1.593   0.842   0.781
 2266TIP3    H1 6804   1.681   0.878   0.793
 2266TIP3    H2 6805   1.578   0.846   0.686
 2267TIP3   OH2 6806   0.067   2.124   0.295
 2267TIP3    H1 6807   0.063   2.144   0.202
 2267TIP3    H2 6808   0.160   2.135   0.317
 2268TIP3   OH2 6809   4.167   1.495   3.874
 2268TIP3    H1 6810   4.209   1.549   3.806
 2268TIP3    H2 6811   4.227   1.498   3.948
 2269TIP3   OH2 6812   4.996   2.096   0.210
 2269TIP3    H1 6813   5.074   2.058   0.170
 2269TIP3    H2 6814   5.025   2.179   0.248
 2270TIP3   OH2 6815   3.854   0.930   1.802
 2270TIP3    H1 6816   3.842   0.993   1.874
 2270TIP3    H2 6817   3.945   0.940   1.776
 2271TIP3   OH2 6818   2.729   1.569   1.507
 2271TIP3    H1 6819   2.651   1.545   1.557
 2271TIP3    H2 6820   2.786   1.493   1.513
 2272TIP3   OH2 6821   5.731   2.236   2.552
 2272TIP3    H1 6822   5.772   2.181   2.619
 2272TIP3    H2 6823   5.750   2.190   2.469
 2273TIP3   OH2 6824   3.011   4.747   0.395
 2273TIP3    H1 6825   2.956   4.790   0.460
 2273TIP3    H2 6826   3.020   4.657   0.428
 2274TIP3   OH2 6827   6.254   2.755   0.882
 2274TIP3    H1 6828   6.217   2.750   0.970
 2274TIP3    H2 6829   6.178   2.744   0.824
 2275TIP3   OH2 6830   5.655   0.113   1.135
 2275TIP3    H1 6831   5.739   0.155   1.152
 2275TIP3    H2 6832   5.665   0.074   1.048
 2276TIP3   OH2 6833   4.719   5.833   0.593
 2276TIP3    H1 6834   4.769   5.856   0.672
 2276TIP3    H2 6835   4.774   5.862   0.521
 2277TIP3   OH2 6836   0.507   1.489   1.820
 2277TIP3    H1 6837   0.595   1.484   1.857
 2277TIP3    H2 6838   0.506   1.572   1.772
 2278TIP3   OH2 6839   0.747   4.413   0.077
 2278TIP3    H1 6840   0.806   4.366   0.018
 2278TIP3    H2 6841   0.659   4.390   0.048
 2279TIP3   OH2 6842   4.681   4.653   4.811
 2279TIP3    H1 6843   4.658   4.564   4.838
 2279TIP3    H2 6844   4.671   4.653   4.716
 2280TIP3   OH2 6845   6.313   1.805   1.492
 2280TIP3    H1 6846   6.231   1.812   1.539
 2280TIP3    H2 6847   6.315   1.715   1.459
 2281TIP3   OH2 6848   1.837   5.757   1.783
 2281TIP3    H1 6849   1.799   5.844   1.775
 2281TIP3    H2 6850   1.928   5.767   1.756
 2282TIP3   OH2 6851   1.144   0.096   4.891
 2282TIP3    H1 6852   1.158   0.065   4.980
 2282TIP3    H2 6853   1.180   0.184   4.890
 2283TIP3   OH2 6854   3.934   5.011   0.488
 2283TIP3    H1 6855   3.929   5.060   0.570
 2283TIP3    H2 6856   4.028   5.005   0.469
 2284TIP3   OH2 6857   4.381   3.243   0.328
 2284TIP3    H1 6858   4.427   3.209   0.404
 2284TIP3    H2 6859   4.444   3.301   0.286
 2285TIP3   OH2 6860   4.110   0.217   3.212
 2285TIP3    H1 6861   4.150   0.170   3.285
 2285TIP3    H2 6862   4.170   0.290   3.194
 2286TIP3   OH2 6863   4.943   1.964   3.661
 2286TIP3    H1 6864   4.961   2.026   3.590
 2286TIP3    H2 6865   4.870   2.004   3.709
 2287TIP3   OH2 6866   0.259   5.316   3.675
 2287TIP3    H1 6867   0.230   5.393   3.724
 2287TIP3    H2 6868   0.238   5.242   3.731
 2288TIP3   OH2 6869   4.487   5.778   1.240
 2288TIP3    H1 6870   4.557   5.795   1.303
 2288TIP3    H2 6871   4.407   5.786   1.291
 2289TIP3   OH2 6872   2.793   0.152   2.847
 2289TIP3    H1 6873   2.847   0.130   2.771
 2289TIP3    H2 6874   2.795   0.073   2.902
 2290TIP3   OH2 6875   0.166   4.488   2.377
 2290TIP3    H1 6876   0.245   4.512   2.427
 2290TIP3    H2 6877   0.102   4.464   2.444
 2291TIP3   OH2 6878   1.683   4.419   3.319
 2291TIP3    H1 6879   1.646   4.506   3.329
 2291TIP3    H2 6880   1.712   4.395   3.408
 2292TIP3   OH2 6881   0.751   3.925   0.936
 2292TIP3    H1 6882   0.712   4.013   0.939
 2292TIP3    H2 6883   0.844   3.939   0.955
 2293TIP3   OH2 6884   3.362   3.508   3.139
 2293TIP3    H1 6885   3.280   3.480   3.179
 2293TIP3    H2 6886   3.382   3.439   3.075
 2294TIP3   OH2 6887   2.683   0.836   4.268
 2294TIP3    H1 6888   2.744   0.767   4.294
 2294TIP3    H2 6889   2.659   0.878   4.350
 2295TIP3   OH2 6890   5.879   2.759   0.967
 2295TIP3    H1 6891   5.812   2.743   1.033
 2295TIP3    H2 6892   5.962   2.745   1.013
 2296TIP3   OH2 6893   1.889   1.670   2.005
 2296TIP3    H1 6894   1.942   1.739   2.045
 2296TIP3    H2 6895   1.912   1.590   2.053
 2297TIP3   OH2 6896   0.349   5.344   1.627
 2297TIP3    H1 6897   0.411   5.277   1.658
 2297TIP3    H2 6898   0.357   5.341   1.532
 2298TIP3   OH2 6899   6.105   5.665   4.448
 2298TIP3    H1 6900   6.014   5.641   4.428
 2298TIP3    H2 6901   6.137   5.594   4.504
 2299TIP3   OH2 6902   4.094   3.923   2.483
 2299TIP3    H1 6903   4.035   3.850   2.499
 2299TIP3    H2 6904   4.122   3.951   2.570
 2300TIP3   OH2 6905   4.608   4.832   5.068
 2300TIP3    H1 6906   4.648   4.829   4.981
 2300TIP3    H2 6907   4.577   4.922   5.076
 2301TIP3   OH2 6908   2.819   3.856   4.839
 2301TIP3    H1 6909   2.762   3.780   4.829
 2301TIP3    H2 6910   2.795   3.893   4.924
 2302TIP3   OH2 6911   2.224   1.621   0.092
 2302TIP3    H1 6912   2.283   1.674   0.146
 2302TIP3    H2 6913   2.199   1.679   0.021
 2303TIP3   OH2 6914   0.951   5.142   1.552
 2303TIP3    H1 6915   0.907   5.106   1.629
 2303TIP3    H2 6916   0.902   5.107   1.478
 2304TIP3   OH2 6917   4.322   3.072   2.221
 2304TIP3    H1 6918   4.340   2.987   2.260
 2304TIP3    H2 6919   4.408   3.107   2.198
 2305TIP3   OH2 6920   3.284   1.045   2.298
 2305TIP3    H1 6921   3.222   0.972   2.307
 2305TIP3    H2 6922   3.235   1.113   2.251
 2306TIP3   OH2 6923   0.758   2.631   3.683
 2306TIP3    H1 6924   0.762   2.537   3.702
 2306TIP3    H2 6925   0.746   2.672   3.769
 2307TIP3   OH2 6926   5.271   1.841   3.029
 2307TIP3    H1 6927   5.279   1.750   3.058
 2307TIP3    H2 6928   5.348   1.855   2.974
 2308TIP3   OH2 6929   4.193   1.354   1.145
 2308TIP3    H1 6930   4.157   1.439   1.170
 2308TIP3    H2 6931   4.131   1.290   1.181
 2309TIP3   OH2 6932   3.600   3.311   2.040
 2309TIP3    H1 6933   3.610   3.249   2.113
 2309TIP3    H2 6934   3.674   3.371   2.050
 2310TIP3   OH2 6935   3.377   0.930   4.380
 2310TIP3    H1 6936   3.318   0.972   4.443
 2310TIP3    H2 6937   3.463   0.968   4.398
 2311TIP3   OH2 6938   2.339   5.899   3.200
 2311TIP3    H1 6939   2.363   5.977   3.251
 2311TIP3    H2 6940   2.409   5.890   3.136
 2312TIP3   OH2 6941   1.574   1.203   4.512
 2312TIP3    H1 6942   1.558   1.141   4.583
 2312TIP3    H2 6943   1.654   1.171   4.469
 2313TIP3   OH2 6944   3.739   3.732   1.927
 2313TIP3    H1 6945   3.731   3.651   1.978
 2313TIP3    H2 6946   3.802   3.710   1.858
 2314TIP3   OH2 6947   5.383   5.624   2.779
 2314TIP3    H1 6948   5.332   5.704   2.770
 2314TIP3    H2 6949   5.349   5.566   2.711
 2315TIP3   OH2 6950   0.639   5.623   2.437
 2315TIP3    H1 6951   0.545   5.640   2.440
 2315TIP3    H2 6952   0.664   5.612   2.529
 2316TIP3   OH2 6953   5.058   1.418   2.936
 2316TIP3    H1 6954   5.021   1.332   2.957
 2316TIP3    H2 6955   5.071   1.416   2.841
 2317TIP3   OH2 6956   2.442   0.787   4.651
 2317TIP3    H1 6957   2.473   0.808   4.739
 2317TIP3    H2 6958   2.347   0.781   4.660
 2318TIP3   OH2 6959   6.109   5.123   3.627
 2318TIP3    H1 6960   6.165   5.080   3.692
 2318TIP3    H2 6961   6.125   5.216   3.640
 2319TIP3   OH2 6962   1.674   4.921   3.879
 2319TIP3    H1 6963   1.579   4.933   3.872
 2319TIP3    H2 6964   1.686   4.869   3.958
 2320TIP3   OH2 6965   1.407   0.444   1.927
 2320TIP3    H1 6966   1.314   0.467   1.922
 2320TIP3    H2 6967   1.422   0.423   2.019
 2321TIP3   OH2 6968   0.821   5.567   4.367
 2321TIP3    H1 6969   0.846   5.516   4.445
 2321TIP3    H2 6970   0.725   5.560   4.365
 2322TIP3   OH2 6971   0.717   2.713   4.683
 2322TIP3    H1 6972   0.634   2.682   4.645
 2322TIP3    H2 6973   0.700   2.805   4.704
 2323TIP3   OH2 6974   3.305   0.594   3.780
 2323TIP3    H1 6975   3.339   0.679   3.808
 2323TIP3    H2 6976   3.215   0.613   3.751
 2324TIP3   OH2 6977   0.469   5.164   2.080
 2324TIP3    H1 6978   0.546   5.216   2.058
 2324TIP3    H2 6979   0.505   5.079   2.106
 2325TIP3   OH2 6980   4.310   3.809   4.889
 2325TIP3    H1 6981   4.315   3.868   4.814
 2325TIP3    H2 6982   4.294   3.722   4.850
 2326TIP3   OH2 6983   2.630   2.392   0.833
 2326TIP3    H1 6984   2.571   2.467   0.819
 2326TIP3    H2 6985   2.717   2.428   0.818
 2327TIP3   OH2 6986   1.265   4.429   0.442
 2327TIP3    H1 6987   1.172   4.416   0.461
 2327TIP3    H2 6988   1.271   4.432   0.347
 2328TIP3   OH2 6989   3.123   1.670   0.846
 2328TIP3    H1 6990   3.192   1.659   0.781
 2328TIP3    H2 6991   3.108   1.582   0.880
 2329TIP3   OH2 6992   6.094   5.907   2.861
 2329TIP3    H1 6993   6.051   5.923   2.945
 2329TIP3    H2 6994   6.022   5.912   2.797
 2330TIP3   OH2 6995   2.207   5.389   2.809
 2330TIP3    H1 6996   2.261   5.332   2.864
 2330TIP3    H2 6997   2.118   5.375   2.841
 2331TIP3   OH2 6998   5.280   2.919   3.297
 2331TIP3    H1 6999   5.361   2.919   3.348
 2331TIP3    H2 7000   5.261   3.012   3.282
 2332TIP3   OH2 7001   0.903   2.182   4.961
 2332TIP3    H1 7002   0.814   2.157   4.988
 2332TIP3    H2 7003   0.954   2.101   4.971
 2333TIP3   OH2 7004   1.190   0.496   2.982
 2333TIP3    H1 7005   1.253   0.564   3.003
 2333TIP3    H2 7006   1.214   0.468   2.893
 2334TIP3   OH2 7007   5.150   5.928   3.071
 2334TIP3    H1 7008   5.140   5.857   3.134
 2334TIP3    H2 7009   5.061   5.945   3.040
 2335TIP3   OH2 7010   3.508   2.082   4.716
 2335TIP3    H1 7011   3.434   2.126   4.757
 2335TIP3    H2 7012   3.485   1.989   4.717
 2336TIP3   OH2 7013   0.379   5.702   0.400
 2336TIP3    H1 7014   0.329   5.782   0.385
 2336TIP3    H2 7015   0.470   5.731   0.405
 2337TIP3   OH2 7016   3.409   5.075   2.049
 2337TIP3    H1 7017   3.425   5.104   2.139
 2337TIP3    H2 7018   3.415   5.156   1.998
 2338TIP3   OH2 7019   0.648   4.888   2.428
 2338TIP3    H1 7020   0.669   4.797   2.445
 2338TIP3    H2 7021   0.731   4.934   2.442
 2339TIP3   OH2 7022   1.470   4.478   3.056
 2339TIP3    H1 7023   1.540   4.544   3.057
 2339TIP3    H2 7024   1.435   4.481   2.967
 2340TIP3   OH2 7025   3.475   0.722   2.214
 2340TIP3    H1 7026   3.492   0.695   2.124
 2340TIP3    H2 7027   3.504   0.647   2.267
 2341TIP3   OH2 7028   5.751   2.141   4.482
 2341TIP3    H1 7029   5.813   2.105   4.545
 2341TIP3    H2 7030   5.699   2.204   4.533
 2342TIP3   OH2 7031   1.306   0.070   3.908
 2342TIP3    H1 7032   1.328   0.161   3.888
 2342TIP3    H2 7033   1.351   0.052   3.991
 2343TIP3   OH2 7034   6.332   2.692   0.208
 2343TIP3    H1 7035   6.375   2.608   0.193
 2343TIP3    H2 7036   6.240   2.670   0.223
 2344TIP3   OH2 7037   4.304   4.543   3.464
 2344TIP3    H1 7038   4.316   4.477   3.397
 2344TIP3    H2 7039   4.312   4.627   3.418
 2345TIP3   OH2 7040   1.512   1.856   1.686
 2345TIP3    H1 7041   1.512   1.917   1.613
 2345TIP3    H2 7042   1.604   1.844   1.708
 2346TIP3   OH2 7043   2.625   4.064   0.087
 2346TIP3    H1 7044   2.573   4.046   0.008
 2346TIP3    H2 7045   2.715   4.053   0.058
 2347TIP3   OH2 7046   4.386   0.858   0.925
 2347TIP3    H1 7047   4.344   0.841   1.009
 2347TIP3    H2 7048   4.456   0.921   0.944
 2348TIP3   OH2 7049   6.132   3.828   4.389
 2348TIP3    H1 7050   6.058   3.795   4.441
 2348TIP3    H2 7051   6.122   3.785   4.304
 2349TIP3   OH2 7052   1.206   1.456   2.238
 2349TIP3    H1 7053   1.158   1.496   2.311
 2349TIP3    H2 7054   1.150   1.385   2.208
 2350TIP3   OH2 7055   5.059   5.916  -0.008
 2350TIP3    H1 7056   5.069   5.821   0.000
 2350TIP3    H2 7057   5.060   5.947   0.083
 2351TIP3   OH2 7058   3.412   0.956   2.514
 2351TIP3    H1 7059   3.465   1.020   2.561
 2351TIP3    H2 7060   3.353   1.008   2.459
 2352TIP3   OH2 7061   2.394   5.522   0.091
 2352TIP3    H1 7062   2.419   5.609   0.123
 2352TIP3    H2 7063   2.346   5.483   0.164
 2353TIP3   OH2 7064   2.534   5.050   4.563
 2353TIP3    H1 7065   2.616   5.094   4.583
 2353TIP3    H2 7066   2.535   4.971   4.617
 2354TIP3   OH2 7067   4.938   1.208   1.785
 2354TIP3    H1 7068   4.879   1.279   1.760
 2354TIP3    H2 7069   4.979   1.182   1.703
 2355TIP3   OH2 7070   4.549   0.434   1.001
 2355TIP3    H1 7071   4.504   0.405   0.922
 2355TIP3    H2 7072   4.573   0.525   0.983
 2356TIP3   OH2 7073   3.490   4.787   2.960
 2356TIP3    H1 7074   3.425   4.840   3.006
 2356TIP3    H2 7075   3.564   4.847   2.946
 2357TIP3   OH2 7076   4.637   5.863   3.966
 2357TIP3    H1 7077   4.720   5.819   3.951
 2357TIP3    H2 7078   4.661   5.949   4.001
 2358TIP3   OH2 7079   4.610   0.509   2.091
 2358TIP3    H1 7080   4.589   0.553   2.173
 2358TIP3    H2 7081   4.534   0.525   2.035
 2359TIP3   OH2 7082   2.004   5.269   1.961
 2359TIP3    H1 7083   1.928   5.297   2.012
 2359TIP3    H2 7084   2.057   5.348   1.950
 2360TIP3   OH2 7085   3.950   2.530   1.234
 2360TIP3    H1 7086   3.901   2.599   1.190
 2360TIP3    H2 7087   4.036   2.531   1.191
 2361TIP3   OH2 7088   2.320   5.172   2.948
 2361TIP3    H1 7089   2.229   5.163   2.978
 2361TIP3    H2 7090   2.365   5.097   2.987
 2362TIP3   OH2 7091   1.051   2.602   4.434
 2362TIP3    H1 7092   1.005   2.652   4.367
 2362TIP3    H2 7093   1.026   2.644   4.517
 2363TIP3   OH2 7094   1.365   2.202   0.710
 2363TIP3    H1 7095   1.402   2.284   0.742
 2363TIP3    H2 7096   1.277   2.226   0.679
 2364TIP3   OH2 7097   0.538   3.855   4.253
 2364TIP3    H1 7098   0.556   3.834   4.345
 2364TIP3    H2 7099   0.450   3.820   4.237
 2365TIP3   OH2 7100   3.111   2.120   3.354
 2365TIP3    H1 7101   3.161   2.201   3.344
 2365TIP3    H2 7102   3.054   2.137   3.429
 2366TIP3   OH2 7103   3.605   5.473   3.571
 2366TIP3    H1 7104   3.642   5.468   3.483
 2366TIP3    H2 7105   3.510   5.468   3.558
 2367TIP3   OH2 7106   5.725   3.306   3.961
 2367TIP3    H1 7107   5.677   3.299   3.878
 2367TIP3    H2 7108   5.717   3.220   4.001
 2368TIP3   OH2 7109   5.567   0.662   4.810
 2368TIP3    H1 7110   5.629   0.732   4.789
 2368TIP3    H2 7111   5.482   0.698   4.784
 2369TIP3   OH2 7112   2.596   3.642   4.233
 2369TIP3    H1 7113   2.673   3.675   4.279
 2369TIP3    H2 7114   2.607   3.546   4.234
 2370TIP3   OH2 7115   0.996   4.397   3.834
 2370TIP3    H1 7116   1.014   4.434   3.921
 2370TIP3    H2 7117   0.987   4.474   3.777
 2371TIP3   OH2 7118   4.828   3.448   1.185
 2371TIP3    H1 7119   4.743   3.484   1.160
 2371TIP3    H2 7120   4.817   3.421   1.276
 2372TIP3   OH2 7121   0.666   2.482   0.483
 2372TIP3    H1 7122   0.672   2.503   0.576
 2372TIP3    H2 7123   0.733   2.415   0.470
 2373TIP3   OH2 7124   2.058   5.560   4.398
 2373TIP3    H1 7125   2.130   5.541   4.458
 2373TIP3    H2 7126   2.085   5.640   4.353
 2374TIP3   OH2 7127   4.760   2.838   4.174
 2374TIP3    H1 7128   4.709   2.898   4.119
 2374TIP3    H2 7129   4.800   2.894   4.241
 2375TIP3   OH2 7130   1.510   2.235   2.343
 2375TIP3    H1 7131   1.521   2.170   2.412
 2375TIP3    H2 7132   1.431   2.209   2.296
 2376TIP3   OH2 7133   3.572   4.571   4.139
 2376TIP3    H1 7134   3.579   4.533   4.051
 2376TIP3    H2 7135   3.481   4.555   4.164
 2377TIP3   OH2 7136   0.736   4.188   1.733
 2377TIP3    H1 7137   0.650   4.229   1.746
 2377TIP3    H2 7138   0.747   4.131   1.810
 2378TIP3   OH2 7139   2.872   2.662   4.613
 2378TIP3    H1 7140   2.932   2.590   4.634
 2378TIP3    H2 7141   2.789   2.636   4.652
 2379TIP3   OH2 7142   4.468  -0.020   2.052
 2379TIP3    H1 7143   4.497   0.068   2.073
 2379TIP3    H2 7144   4.403  -0.041   2.119
 2380TIP3   OH2 7145   4.031   1.167   0.032
 2380TIP3    H1 7146   4.105   1.194   0.087
 2380TIP3    H2 7147   4.019   1.074   0.052
 2381TIP3   OH2 7148   5.041   4.008   4.474
 2381TIP3    H1 7149   5.108   3.986   4.409
 2381TIP3    H2 7150   5.004   4.091   4.444
 2382TIP3   OH2 7151   5.567   5.752   4.715
 2382TIP3    H1 7152   5.580   5.843   4.689
 2382TIP3    H2 7153   5.473   5.737   4.706
 2383TIP3   OH2 7154   5.680   3.494   5.060
 2383TIP3    H1 7155   5.626   3.416   5.044
 2383TIP3    H2 7156   5.618   3.567   5.060
 2384TIP3   OH2 7157   2.476   3.495   1.785
 2384TIP3    H1 7158   2.535   3.421   1.800
 2384TIP3    H2 7159   2.523   3.571   1.818
 2385TIP3   OH2 7160   6.315   3.008   1.779
 2385TIP3    H1 7161   6.328   3.079   1.716
 2385TIP3    H2 7162   6.399   2.963   1.782
 2386TIP3   OH2 7163   2.885   2.743   0.506
 2386TIP3    H1 7164   2.793   2.769   0.505
 2386TIP3    H2 7165   2.931   2.816   0.546
 2387TIP3   OH2 7166   4.875   0.715   4.697
 2387TIP3    H1 7167   4.925   0.634   4.689
 2387TIP3    H2 7168   4.879   0.755   4.610
 2388TIP3   OH2 7169   5.520   1.011   3.556
 2388TIP3    H1 7170   5.601   1.035   3.511
 2388TIP3    H2 7171   5.472   1.093   3.565
 2389TIP3   OH2 7172   5.612   3.981   0.419
 2389TIP3    H1 7173   5.605   4.053   0.483
 2389TIP3    H2 7174   5.687   4.004   0.366
 2390TIP3   OH2 7175   1.670   1.777   1.896
 2390TIP3    H1 7176   1.608   1.727   1.949
 2390TIP3    H2 7177   1.751   1.725   1.900
 2391TIP3   OH2 7178   4.428   0.996   3.399
 2391TIP3    H1 7179   4.395   1.074   3.444
 2391TIP3    H2 7180   4.435   1.022   3.308
 2392TIP3   OH2 7181   0.216   4.068   3.411
 2392TIP3    H1 7182   0.180   4.008   3.476
 2392TIP3    H2 7183   0.145   4.130   3.393
 2393TIP3   OH2 7184   3.250   2.050   1.865
 2393TIP3    H1 7185   3.160   2.073   1.844
 2393TIP3    H2 7186   3.274   1.982   1.803
 2394TIP3   OH2 7187   2.309   3.397   0.946
 2394TIP3    H1 7188   2.289   3.473   1.000
 2394TIP3    H2 7189   2.403   3.381   0.961
 2395TIP3   OH2 7190   3.818   5.704   2.273
 2395TIP3    H1 7191   3.757   5.758   2.324
 2395TIP3    H2 7192   3.834   5.627   2.327
 2396TIP3   OH2 7193   4.026   5.563   1.747
 2396TIP3    H1 7194   4.037   5.528   1.658
 2396TIP3    H2 7195   3.978   5.495   1.794
 2397TIP3   OH2 7196   1.274   3.028   0.748
 2397TIP3    H1 7197   1.296   3.102   0.805
 2397TIP3    H2 7198   1.308   2.952   0.794
 2398TIP3   OH2 7199   6.039   0.935   3.603
 2398TIP3    H1 7200   6.015   1.004   3.665
 2398TIP3    H2 7201   6.079   0.982   3.530
 2399TIP3   OH2 7202   1.301   1.339   2.681
 2399TIP3    H1 7203   1.221   1.369   2.638
 2399TIP3    H2 7204   1.291   1.368   2.772
 2400TIP3   OH2 7205   0.609   0.468   2.860
 2400TIP3    H1 7206   0.570   0.465   2.773
 2400TIP3    H2 7207   0.602   0.560   2.887
 2401TIP3   OH2 7208   4.403   1.583   3.142
 2401TIP3    H1 7209   4.373   1.542   3.061
 2401TIP3    H2 7210   4.483   1.536   3.165
 2402TIP3   OH2 7211   0.210   2.495   1.860
 2402TIP3    H1 7212   0.280   2.531   1.806
 2402TIP3    H2 7213   0.210   2.401   1.841
 2403TIP3   OH2 7214   1.410   3.765   2.724
 2403TIP3    H1 7215   1.385   3.684   2.768
 2403TIP3    H2 7216   1.433   3.826   2.794
 2404TIP3   OH2 7217   1.445   5.109   1.288
 2404TIP3    H1 7218   1.376   5.048   1.312
 2404TIP3    H2 7219   1.519   5.053   1.265
 2405TIP3   OH2 7220   5.152   2.734   3.172
 2405TIP3    H1 7221   5.187   2.664   3.226
 2405TIP3    H2 7222   5.190   2.814   3.209
 2406TIP3   OH2 7223   5.156   0.619   4.013
 2406TIP3    H1 7224   5.174   0.525   4.004
 2406TIP3    H2 7225   5.178   0.639   4.104
 2407TIP3   OH2 7226   5.691   5.664   4.226
 2407TIP3    H1 7227   5.768   5.720   4.218
 2407TIP3    H2 7228   5.618   5.726   4.229
 2408TIP3   OH2 7229   0.608   1.767   0.141
 2408TIP3    H1 7230   0.682   1.818   0.109
 2408TIP3    H2 7231   0.568   1.821   0.209
 2409TIP3   OH2 7232   4.753   5.953   5.117
 2409TIP3    H1 7233   4.814   5.881   5.099
 2409TIP3    H2 7234   4.739   5.948   5.212
 2410TIP3   OH2 7235   4.051   0.777   2.900
 2410TIP3    H1 7236   4.049   0.722   2.978
 2410TIP3    H2 7237   4.044   0.867   2.933
 2411TIP3   OH2 7238   3.550   0.544   4.110
 2411TIP3    H1 7239   3.537   0.624   4.160
 2411TIP3    H2 7240   3.488   0.481   4.146
 2412TIP3   OH2 7241   0.395   6.001   4.233
 2412TIP3    H1 7242   0.391   5.996   4.328
 2412TIP3    H2 7243   0.405   5.910   4.205
 2413TIP3   OH2 7244   3.366   2.620   3.055
 2413TIP3    H1 7245   3.398   2.710   3.060
 2413TIP3    H2 7246   3.286   2.620   3.108
 2414TIP3   OH2 7247   1.068   0.906   0.543
 2414TIP3    H1 7248   1.053   0.943   0.631
 2414TIP3    H2 7249   1.162   0.916   0.529
 2415TIP3   OH2 7250   0.694   0.564   0.267
 2415TIP3    H1 7251   0.734   0.651   0.274
 2415TIP3    H2 7252   0.720   0.519   0.347
 2416TIP3   OH2 7253   5.101   3.339   3.017
 2416TIP3    H1 7254   5.108   3.434   3.013
 2416TIP3    H2 7255   5.010   3.323   3.043
 2417TIP3   OH2 7256   6.163   4.189   1.949
 2417TIP3    H1 7257   6.101   4.118   1.936
 2417TIP3    H2 7258   6.120   4.266   1.912
 2418TIP3   OH2 7259   1.241   5.856   3.801
 2418TIP3    H1 7260   1.275   5.806   3.876
 2418TIP3    H2 7261   1.217   5.940   3.838
 2419TIP3   OH2 7262   3.303   2.095   5.146
 2419TIP3    H1 7263   3.353   2.021   5.112
 2419TIP3    H2 7264   3.349   2.119   5.227
 2420TIP3   OH2 7265   4.926   2.536   0.933
 2420TIP3    H1 7266   4.855   2.529   0.997
 2420TIP3    H2 7267   4.934   2.447   0.897
 2421TIP3   OH2 7268   0.857   3.513   4.890
 2421TIP3    H1 7269   0.948   3.490   4.910
 2421TIP3    H2 7270   0.863   3.580   4.822
 2422TIP3   OH2 7271   3.229   2.525   3.827
 2422TIP3    H1 7272   3.154   2.471   3.852
 2422TIP3    H2 7273   3.293   2.464   3.791
 2423TIP3   OH2 7274   0.821   5.255   5.106
 2423TIP3    H1 7275   0.753   5.217   5.162
 2423TIP3    H2 7276   0.788   5.243   5.017
 2424TIP3   OH2 7277   4.093   4.909   1.720
 2424TIP3    H1 7278   4.181   4.900   1.758
 2424TIP3    H2 7279   4.036   4.862   1.781
 2425TIP3   OH2 7280   3.224   0.779   3.432
 2425TIP3    H1 7281   3.259   0.819   3.352
 2425TIP3    H2 7282   3.258   0.689   3.431
 2426TIP3   OH2 7283   2.816   4.706   2.923
 2426TIP3    H1 7284   2.819   4.675   3.013
 2426TIP3    H2 7285   2.802   4.800   2.930
 2427TIP3   OH2 7286   3.060   0.617   4.096
 2427TIP3    H1 7287   3.043   0.543   4.038
 2427TIP3    H2 7288   3.071   0.692   4.037
 2428TIP3   OH2 7289   6.247   0.712   1.977
 2428TIP3    H1 7290   6.233   0.794   1.929
 2428TIP3    H2 7291   6.222   0.731   2.067
 2429TIP3   OH2 7292   3.365   1.221   1.418
 2429TIP3    H1 7293   3.426   1.263   1.357
 2429TIP3    H2 7294   3.289   1.280   1.421
 2430TIP3   OH2 7295   3.373   5.121   2.798
 2430TIP3    H1 7296   3.346   5.033   2.772
 2430TIP3    H2 7297   3.298   5.176   2.777
 2431TIP3   OH2 7298   4.872   3.180   2.819
 2431TIP3    H1 7299   4.897   3.258   2.769
 2431TIP3    H2 7300   4.882   3.206   2.910
 2432TIP3   OH2 7301   5.911   3.686   0.098
 2432TIP3    H1 7302   5.951   3.599   0.096
 2432TIP3    H2 7303   5.977   3.742   0.137
 2433TIP3   OH2 7304   3.814   0.473   3.141
 2433TIP3    H1 7305   3.725   0.498   3.168
 2433TIP3    H2 7306   3.838   0.404   3.202
 2434TIP3   OH2 7307   1.482   3.348   0.537
 2434TIP3    H1 7308   1.472   3.425   0.481
 2434TIP3    H2 7309   1.393   3.318   0.553
 2435TIP3   OH2 7310   2.904   0.982   0.307
 2435TIP3    H1 7311   2.856   1.050   0.261
 2435TIP3    H2 7312   2.844   0.907   0.309
 2436TIP3   OH2 7313   0.614   3.203   0.460
 2436TIP3    H1 7314   0.653   3.134   0.407
 2436TIP3    H2 7315   0.541   3.161   0.505
 2437TIP3   OH2 7316   6.173   4.592   0.383
 2437TIP3    H1 7317   6.148   4.628   0.468
 2437TIP3    H2 7318   6.224   4.661   0.341
 2438TIP3   OH2 7319   4.405   5.683   0.273
 2438TIP3    H1 7320   4.396   5.619   0.203
 2438TIP3    H2 7321   4.489   5.725   0.256
 2439TIP3   OH2 7322   1.026   0.784   0.093
 2439TIP3    H1 7323   1.064   0.751   0.012
 2439TIP3    H2 7324   0.934   0.760   0.089
 2440TIP3   OH2 7325   6.249   4.832   0.270
 2440TIP3    H1 7326   6.184   4.881   0.320
 2440TIP3    H2 7327   6.252   4.875   0.185
 2441TIP3   OH2 7328   2.879   3.173   0.925
 2441TIP3    H1 7329   2.803   3.136   0.969
 2441TIP3    H2 7330   2.878   3.266   0.949
 2442TIP3   OH2 7331   5.821   0.837   1.597
 2442TIP3    H1 7332   5.865   0.851   1.513
 2442TIP3    H2 7333   5.860   0.902   1.655
 2443TIP3   OH2 7334   3.882   3.328   1.091
 2443TIP3    H1 7335   3.831   3.334   1.172
 2443TIP3    H2 7336   3.940   3.405   1.095
 2444TIP3   OH2 7337   1.991   2.540   1.960
 2444TIP3    H1 7338   1.896   2.528   1.950
 2444TIP3    H2 7339   2.015   2.481   2.032
 2445TIP3   OH2 7340   2.622   5.487   2.757
 2445TIP3    H1 7341   2.655   5.495   2.667
 2445TIP3    H2 7342   2.533   5.522   2.753
 2446TIP3   OH2 7343   2.868   5.771   3.141
 2446TIP3    H1 7344   2.828   5.796   3.224
 2446TIP3    H2 7345   2.867   5.675   3.143
 2447TIP3   OH2 7346   1.573   1.361   0.619
 2447TIP3    H1 7347   1.622   1.315   0.687
 2447TIP3    H2 7348   1.519   1.425   0.666
 2448TIP3   OH2 7349   4.170   3.836   3.536
 2448TIP3    H1 7350   4.114   3.790   3.598
 2448TIP3    H2 7351   4.259   3.806   3.558
 2449TIP3   OH2 7352   0.819   4.681   4.080
 2449TIP3    H1 7353   0.878   4.606   4.073
 2449TIP3    H2 7354   0.803   4.707   3.989
 2450TIP3   OH2 7355   0.147   0.084   0.712
 2450TIP3    H1 7356   0.071   0.036   0.744
 2450TIP3    H2 7357   0.163   0.049   0.624
 2451TIP3   OH2 7358   2.308   4.462   1.592
 2451TIP3    H1 7359   2.365   4.413   1.533
 2451TIP3    H2 7360   2.345   4.550   1.595
 2452TIP3   OH2 7361   3.121   4.921   4.098
 2452TIP3    H1 7362   3.136   4.873   4.016
 2452TIP3    H2 7363   3.135   4.855   4.166
 2453TIP3   OH2 7364   3.901   4.084   4.565
 2453TIP3    H1 7365   3.983   4.097   4.613
 2453TIP3    H2 7366   3.894   4.162   4.510
 2454TIP3   OH2 7367   2.373   2.360   3.718
 2454TIP3    H1 7368   2.453   2.406   3.746
 2454TIP3    H2 7369   2.389   2.268   3.740
 2455TIP3   OH2 7370   1.994   1.476   4.090
 2455TIP3    H1 7371   1.933   1.545   4.066
 2455TIP3    H2 7372   2.080   1.513   4.070
 2456TIP3   OH2 7373   2.780   2.585   4.234
 2456TIP3    H1 7374   2.866   2.620   4.209
 2456TIP3    H2 7375   2.795   2.492   4.247
 2457TIP3   OH2 7376   4.696   1.349   1.081
 2457TIP3    H1 7377   4.619   1.405   1.095
 2457TIP3    H2 7378   4.763   1.386   1.138
 2458TIP3   OH2 7379   2.779   5.303   3.983
 2458TIP3    H1 7380   2.689   5.282   4.006
 2458TIP3    H2 7381   2.778   5.309   3.887
 2459TIP3   OH2 7382   0.346   0.644   5.191
 2459TIP3    H1 7383   0.392   0.592   5.125
 2459TIP3    H2 7384   0.254   0.618   5.182
 2460TIP3   OH2 7385   0.399   2.922   2.931
 2460TIP3    H1 7386   0.448   2.999   2.902
 2460TIP3    H2 7387   0.308   2.941   2.910
 2461TIP3   OH2 7388   3.401   1.668   3.951
 2461TIP3    H1 7389   3.335   1.733   3.973
 2461TIP3    H2 7390   3.382   1.643   3.861
 2462TIP3   OH2 7391   1.989   0.161   3.981
 2462TIP3    H1 7392   1.989   0.073   3.946
 2462TIP3    H2 7393   1.952   0.153   4.069
 2463TIP3   OH2 7394   4.774   4.516   2.307
 2463TIP3    H1 7395   4.743   4.442   2.360
 2463TIP3    H2 7396   4.867   4.524   2.329
 2464TIP3   OH2 7397   1.641   0.395   4.418
 2464TIP3    H1 7398   1.595   0.333   4.474
 2464TIP3    H2 7399   1.573   0.452   4.385
 2465TIP3   OH2 7400   3.967   0.012   1.380
 2465TIP3    H1 7401   3.903   0.034   1.447
 2465TIP3    H2 7402   4.050   0.043   1.416
 2466TIP3   OH2 7403   1.647   0.733   0.249
 2466TIP3    H1 7404   1.594   0.804   0.212
 2466TIP3    H2 7405   1.721   0.726   0.190
 2467TIP3   OH2 7406   6.214   5.743   4.820
 2467TIP3    H1 7407   6.256   5.728   4.905
 2467TIP3    H2 7408   6.256   5.680   4.762
 2468TIP3   OH2 7409   0.777   3.020   4.418
 2468TIP3    H1 7410   0.741   3.029   4.506
 2468TIP3    H2 7411   0.796   3.110   4.391
 2469TIP3   OH2 7412   4.629   1.997   3.027
 2469TIP3    H1 7413   4.591   2.085   3.020
 2469TIP3    H2 7414   4.554   1.938   3.022
 2470TIP3   OH2 7415   3.107   5.497   0.759
 2470TIP3    H1 7416   3.097   5.523   0.667
 2470TIP3    H2 7417   3.189   5.538   0.786
 2471TIP3   OH2 7418   4.267   0.693   1.631
 2471TIP3    H1 7419   4.324   0.766   1.606
 2471TIP3    H2 7420   4.200   0.690   1.562
 2472TIP3   OH2 7421   4.426   0.401   2.421
 2472TIP3    H1 7422   4.522   0.398   2.426
 2472TIP3    H2 7423   4.397   0.333   2.482
 2473TIP3   OH2 7424   2.969   3.366   1.447
 2473TIP3    H1 7425   2.970   3.443   1.504
 2473TIP3    H2 7426   3.051   3.371   1.399
 2474TIP3   OH2 7427   5.494   0.215   5.090
 2474TIP3    H1 7428   5.500   0.302   5.049
 2474TIP3    H2 7429   5.494   0.233   5.184
 2475TIP3   OH2 7430   3.963   5.380   1.941
 2475TIP3    H1 7431   3.940   5.294   1.977
 2475TIP3    H2 7432   3.921   5.443   2.000
 2476TIP3   OH2 7433   2.622   0.409   3.549
 2476TIP3    H1 7434   2.650   0.468   3.479
 2476TIP3    H2 7435   2.535   0.442   3.573
 2477TIP3   OH2 7436   5.557   3.536   3.550
 2477TIP3    H1 7437   5.473   3.519   3.508
 2477TIP3    H2 7438   5.603   3.452   3.545
 2478TIP3   OH2 7439   1.090   0.911   2.875
 2478TIP3    H1 7440   1.173   0.958   2.885
 2478TIP3    H2 7441   1.100   0.861   2.793
 2479TIP3   OH2 7442   1.802   3.703   5.011
 2479TIP3    H1 7443   1.823   3.738   5.098
 2479TIP3    H2 7444   1.880   3.654   4.986
 2480TIP3   OH2 7445   2.029   2.695   0.593
 2480TIP3    H1 7446   2.013   2.780   0.634
 2480TIP3    H2 7447   1.982   2.632   0.649
 2481TIP3   OH2 7448   2.850   1.775   3.013
 2481TIP3    H1 7449   2.786   1.719   2.970
 2481TIP3    H2 7450   2.812   1.794   3.098
 2482TIP3   OH2 7451   6.066   2.053   1.964
 2482TIP3    H1 7452   6.026   2.125   1.914
 2482TIP3    H2 7453   6.139   2.025   1.910
 2483TIP3   OH2 7454   4.059   2.107   4.951
 2483TIP3    H1 7455   4.139   2.128   5.001
 2483TIP3    H2 7456   3.996   2.174   4.979
 2484TIP3   OH2 7457   3.860   1.462   4.497
 2484TIP3    H1 7458   3.946   1.498   4.474
 2484TIP3    H2 7459   3.856   1.469   4.593
 2485TIP3   OH2 7460   0.243   2.514   0.571
 2485TIP3    H1 7461   0.251   2.607   0.549
 2485TIP3    H2 7462   0.291   2.505   0.653
 2486TIP3   OH2 7463   6.158   1.310   2.468
 2486TIP3    H1 7464   6.239   1.259   2.471
 2486TIP3    H2 7465   6.183   1.393   2.428
 2487TIP3   OH2 7466   4.622   4.115   5.080
 2487TIP3    H1 7467   4.696   4.167   5.110
 2487TIP3    H2 7468   4.546   4.173   5.090
 2488TIP3   OH2 7469   2.973   5.051   2.971
 2488TIP3    H1 7470   3.009   5.125   2.921
 2488TIP3    H2 7471   3.006   5.065   3.060
 2489TIP3   OH2 7472   1.206   5.659   1.578
 2489TIP3    H1 7473   1.155   5.583   1.551
 2489TIP3    H2 7474   1.203   5.718   1.503
 2490TIP3   OH2 7475   0.844   0.829   2.948
 2490TIP3    H1 7476   0.857   0.735   2.958
 2490TIP3    H2 7477   0.926   0.860   2.911
 2491TIP3   OH2 7478   4.102   1.851   2.895
 2491TIP3    H1 7479   4.192   1.855   2.926
 2491TIP3    H2 7480   4.094   1.924   2.834
 2492TIP3   OH2 7481   0.637   2.826   4.237
 2492TIP3    H1 7482   0.629   2.881   4.159
 2492TIP3    H2 7483   0.674   2.884   4.303
 2493TIP3   OH2 7484   0.466   4.458   1.614
 2493TIP3    H1 7485   0.516   4.499   1.543
 2493TIP3    H2 7486   0.434   4.532   1.666
 2494TIP3   OH2 7487   3.793   2.151   4.030
 2494TIP3    H1 7488   3.720   2.137   3.969
 2494TIP3    H2 7489   3.850   2.212   3.984
 2495TIP3   OH2 7490   1.795   5.197   1.188
 2495TIP3    H1 7491   1.789   5.152   1.103
 2495TIP3    H2 7492   1.715   5.249   1.193
 2496TIP3   OH2 7493   0.928   3.784   0.705
 2496TIP3    H1 7494   0.845   3.759   0.746
 2496TIP3    H2 7495   0.986   3.804   0.779
 2497TIP3   OH2 7496   5.680   0.817   4.414
 2497TIP3    H1 7497   5.755   0.832   4.357
 2497TIP3    H2 7498   5.716   0.821   4.503
 2498TIP3   OH2 7499   5.542   2.680   0.245
 2498TIP3    H1 7500   5.569   2.615   0.181
 2498TIP3    H2 7501   5.599   2.755   0.230
 2499TIP3   OH2 7502   3.525   1.052   3.396
 2499TIP3    H1 7503   3.619   1.066   3.383
 2499TIP3    H2 7504   3.520   0.981   3.460
 2500TIP3   OH2 7505   3.428   3.293   2.916
 2500TIP3    H1 7506   3.387   3.322   2.835
 2500TIP3    H2 7507   3.495   3.230   2.888
 2501TIP3   OH2 7508   1.186   0.736   0.302
 2501TIP3    H1 7509   1.247   0.808   0.313
 2501TIP3    H2 7510   1.149   0.749   0.214
 2502TIP3   OH2 7511   5.361   2.555   1.762
 2502TIP3    H1 7512   5.430   2.563   1.696
 2502TIP3    H2 7513   5.389   2.481   1.817
 2503TIP3   OH2 7514   0.440   5.023   2.505
 2503TIP3    H1 7515   0.519   4.976   2.479
 2503TIP3    H2 7516   0.368   4.964   2.483
 2504TIP3   OH2 7517   1.534   2.639   3.668
 2504TIP3    H1 7518   1.498   2.686   3.593
 2504TIP3    H2 7519   1.626   2.625   3.645
 2505TIP3   OH2 7520   5.003   3.469   3.322
 2505TIP3    H1 7521   4.977   3.535   3.258
 2505TIP3    H2 7522   4.933   3.403   3.319
 2506TIP3   OH2 7523   5.675   3.301   3.498
 2506TIP3    H1 7524   5.640   3.273   3.414
 2506TIP3    H2 7525   5.701   3.220   3.542
 2507TIP3   OH2 7526   1.517   4.454   1.110
 2507TIP3    H1 7527   1.524   4.369   1.067
 2507TIP3    H2 7528   1.525   4.434   1.203
 2508TIP3   OH2 7529   3.816   1.380   1.181
 2508TIP3    H1 7530   3.851   1.324   1.251
 2508TIP3    H2 7531   3.863   1.352   1.102
 2509TIP3   OH2 7532   0.024   3.045   0.992
 2509TIP3    H1 7533   0.012   3.075   1.082
 2509TIP3    H2 7534  -0.025   3.109   0.939
 2510TIP3   OH2 7535   5.410   5.957   1.615
 2510TIP3    H1 7536   5.334   5.955   1.674
 2510TIP3    H2 7537   5.484   5.976   1.672
 2511TIP3   OH2 7538   4.397   3.392   4.679
 2511TIP3    H1 7539   4.446   3.440   4.746
 2511TIP3    H2 7540   4.439   3.417   4.596
 2512TIP3   OH2 7541   4.335   5.549   4.046
 2512TIP3    H1 7542   4.298   5.548   4.135
 2512TIP3    H2 7543   4.275   5.605   3.996
 2513TIP3   OH2 7544   3.466   4.247   2.625
 2513TIP3    H1 7545   3.390   4.298   2.598
 2513TIP3    H2 7546   3.467   4.253   2.720
 2514TIP3   OH2 7547   4.764   0.301   0.703
 2514TIP3    H1 7548   4.834   0.242   0.678
 2514TIP3    H2 7549   4.796   0.345   0.782
 2515TIP3   OH2 7550   4.264   2.745   2.663
 2515TIP3    H1 7551   4.263   2.776   2.754
 2515TIP3    H2 7552   4.305   2.658   2.668
 2516TIP3   OH2 7553   0.971   1.038   0.268
 2516TIP3    H1 7554   0.985   0.952   0.308
 2516TIP3    H2 7555   0.920   1.020   0.189
 2517TIP3   OH2 7556   3.774   5.239   0.902
 2517TIP3    H1 7557   3.829   5.259   0.826
 2517TIP3    H2 7558   3.685   5.237   0.868
 2518TIP3   OH2 7559   3.840   2.555   2.516
 2518TIP3    H1 7560   3.749   2.577   2.537
 2518TIP3    H2 7561   3.886   2.560   2.599
 2519TIP3   OH2 7562   1.150   1.238   3.580
 2519TIP3    H1 7563   1.087   1.263   3.512
 2519TIP3    H2 7564   1.170   1.146   3.561
 2520TIP3   OH2 7565   6.275   4.726   1.643
 2520TIP3    H1 7566   6.338   4.745   1.574
 2520TIP3    H2 7567   6.248   4.636   1.627
 2521TIP3   OH2 7568   4.448   0.496   0.552
 2521TIP3    H1 7569   4.462   0.589   0.531
 2521TIP3    H2 7570   4.519   0.451   0.507
 2522TIP3   OH2 7571   6.189   5.841   2.496
 2522TIP3    H1 7572   6.136   5.921   2.503
 2522TIP3    H2 7573   6.278   5.873   2.482
 2523TIP3   OH2 7574   3.750   3.594   1.540
 2523TIP3    H1 7575   3.754   3.498   1.537
 2523TIP3    H2 7576   3.672   3.616   1.490
 2524TIP3   OH2 7577   5.644   5.122   4.430
 2524TIP3    H1 7578   5.627   5.205   4.473
 2524TIP3    H2 7579   5.733   5.129   4.395
 2525TIP3   OH2 7580   0.257   0.467   0.754
 2525TIP3    H1 7581   0.214   0.497   0.674
 2525TIP3    H2 7582   0.288   0.379   0.733
 2526TIP3   OH2 7583   2.586   0.845   4.011
 2526TIP3    H1 7584   2.610   0.821   4.100
 2526TIP3    H2 7585   2.554   0.935   4.018
 2527TIP3   OH2 7586   2.415   4.864   3.578
 2527TIP3    H1 7587   2.449   4.803   3.513
 2527TIP3    H2 7588   2.345   4.815   3.622
 2528TIP3   OH2 7589   5.111   2.314   4.896
 2528TIP3    H1 7590   5.096   2.311   4.990
 2528TIP3    H2 7591   5.067   2.393   4.866
 2529TIP3   OH2 7592   3.238   2.470   1.590
 2529TIP3    H1 7593   3.230   2.490   1.497
 2529TIP3    H2 7594   3.209   2.550   1.635
 2530TIP3   OH2 7595   5.431   1.347   2.667
 2530TIP3    H1 7596   5.412   1.390   2.583
 2530TIP3    H2 7597   5.346   1.317   2.698
 2531TIP3   OH2 7598   4.400   4.307   2.852
 2531TIP3    H1 7599   4.419   4.239   2.916
 2531TIP3    H2 7600   4.433   4.272   2.769
 2532TIP3   OH2 7601   0.208   2.174   4.265
 2532TIP3    H1 7602   0.265   2.098   4.250
 2532TIP3    H2 7603   0.221   2.230   4.189
 2533TIP3   OH2 7604   5.987   1.937   3.003
 2533TIP3    H1 7605   6.018   1.913   2.916
 2533TIP3    H2 7606   5.893   1.919   3.000
 2534TIP3   OH2 7607   0.993   4.090   3.428
 2534TIP3    H1 7608   0.961   4.010   3.388
 2534TIP3    H2 7609   0.916   4.127   3.473
 2535TIP3   OH2 7610   3.241   3.882   0.401
 2535TIP3    H1 7611   3.193   3.799   0.402
 2535TIP3    H2 7612   3.174   3.949   0.403
 2536TIP3   OH2 7613   4.922   5.009   4.599
 2536TIP3    H1 7614   5.003   4.968   4.568
 2536TIP3    H2 7615   4.910   5.085   4.543
 2537TIP3   OH2 7616   3.198   2.301   1.127
 2537TIP3    H1 7617   3.181   2.244   1.052
 2537TIP3    H2 7618   3.245   2.246   1.189
 2538TIP3   OH2 7619   3.574   5.294   4.048
 2538TIP3    H1 7620   3.618   5.290   3.963
 2538TIP3    H2 7621   3.643   5.281   4.112
 2539TIP3   OH2 7622   3.561   4.207   4.771
 2539TIP3    H1 7623   3.650   4.185   4.800
 2539TIP3    H2 7624   3.529   4.128   4.729
 2540TIP3   OH2 7625   3.808   0.034   2.847
 2540TIP3    H1 7626   3.877   0.083   2.891
 2540TIP3    H2 7627   3.727   0.069   2.885
 2541TIP3   OH2 7628   0.117   0.794   4.406
 2541TIP3    H1 7629   0.150   0.828   4.489
 2541TIP3    H2 7630   0.193   0.798   4.347
 2542TIP3   OH2 7631   4.599   4.459   3.147
 2542TIP3    H1 7632   4.600   4.551   3.173
 2542TIP3    H2 7633   4.671   4.451   3.084
 2543TIP3   OH2 7634   5.587   2.310   4.617
 2543TIP3    H1 7635   5.594   2.404   4.632
 2543TIP3    H2 7636   5.523   2.280   4.681
 2544TIP3   OH2 7637   1.421   0.827   3.904
 2544TIP3    H1 7638   1.326   0.837   3.898
 2544TIP3    H2 7639   1.457   0.903   3.859
 2545TIP3   OH2 7640   1.266   5.647   4.329
 2545TIP3    H1 7641   1.232   5.592   4.259
 2545TIP3    H2 7642   1.305   5.586   4.391
 2546TIP3   OH2 7643   0.415   3.400   3.971
 2546TIP3    H1 7644   0.329   3.362   3.986
 2546TIP3    H2 7645   0.422   3.471   4.035
 2547TIP3   OH2 7646   4.441   4.350   4.635
 2547TIP3    H1 7647   4.487   4.345   4.551
 2547TIP3    H2 7648   4.470   4.273   4.683
 2548TIP3   OH2 7649   3.962   2.151   0.543
 2548TIP3    H1 7650   4.035   2.183   0.595
 2548TIP3    H2 7651   3.995   2.151   0.453
 2549TIP3   OH2 7652   5.172   2.264   3.176
 2549TIP3    H1 7653   5.145   2.262   3.268
 2549TIP3    H2 7654   5.114   2.329   3.136
 2550TIP3   OH2 7655   1.097   5.755   2.282
 2550TIP3    H1 7656   1.002   5.763   2.283
 2550TIP3    H2 7657   1.116   5.712   2.199
 2551TIP3   OH2 7658   4.481   5.015   1.289
 2551TIP3    H1 7659   4.436   4.943   1.245
 2551TIP3    H2 7660   4.572   4.985   1.296
 2552TIP3   OH2 7661   1.998   2.529   1.534
 2552TIP3    H1 7662   1.975   2.537   1.626
 2552TIP3    H2 7663   2.070   2.466   1.532
 2553TIP3   OH2 7664   4.835   0.487   4.927
 2553TIP3    H1 7665   4.861   0.511   4.838
 2553TIP3    H2 7666   4.852   0.566   4.979
 2554TIP3   OH2 7667   3.597   0.723   1.169
 2554TIP3    H1 7668   3.558   0.636   1.165
 2554TIP3    H2 7669   3.526   0.780   1.200
 2555TIP3   OH2 7670   2.356   5.340   0.812
 2555TIP3    H1 7671   2.265   5.313   0.814
 2555TIP3    H2 7672   2.372   5.366   0.721
 2556TIP3   OH2 7673   1.711   4.623   3.061
 2556TIP3    H1 7674   1.735   4.715   3.064
 2556TIP3    H2 7675   1.788   4.576   3.091
 2557TIP3   OH2 7676   2.048   0.440   0.496
 2557TIP3    H1 7677   2.031   0.363   0.550
 2557TIP3    H2 7678   2.041   0.514   0.556
 2558TIP3   OH2 7679   3.462   0.807   4.160
 2558TIP3    H1 7680   3.427   0.865   4.228
 2558TIP3    H2 7681   3.554   0.796   4.182
 2559TIP3   OH2 7682   4.443   4.105   3.008
 2559TIP3    H1 7683   4.361   4.073   3.047
 2559TIP3    H2 7684   4.502   4.115   3.082
 2560TIP3   OH2 7685   1.786   4.781   1.496
 2560TIP3    H1 7686   1.703   4.734   1.492
 2560TIP3    H2 7687   1.835   4.739   1.567
 2561TIP3   OH2 7688   5.338   4.163   4.002
 2561TIP3    H1 7689   5.418   4.184   3.955
 2561TIP3    H2 7690   5.268   4.192   3.943
 2562TIP3   OH2 7691   1.832   5.916   4.246
 2562TIP3    H1 7692   1.773   5.845   4.220
 2562TIP3    H2 7693   1.920   5.878   4.238
 2563TIP3   OH2 7694   2.428   1.432   3.695
 2563TIP3    H1 7695   2.519   1.410   3.677
 2563TIP3    H2 7696   2.412   1.511   3.644
 2564TIP3   OH2 7697   3.379   0.852   3.896
 2564TIP3    H1 7698   3.428   0.842   3.978
 2564TIP3    H2 7699   3.375   0.946   3.882
 2565TIP3   OH2 7700   2.413   3.389   4.023
 2565TIP3    H1 7701   2.324   3.413   3.997
 2565TIP3    H2 7702   2.416   3.407   4.117
 2566TIP3   OH2 7703   4.930   4.319   4.435
 2566TIP3    H1 7704   4.939   4.336   4.528
 2566TIP3    H2 7705   4.874   4.390   4.403
 2567TIP3   OH2 7706   5.659   1.380   0.037
 2567TIP3    H1 7707   5.674   1.469   0.070
 2567TIP3    H2 7708   5.697   1.323   0.104
 2568TIP3   OH2 7709   0.490   4.414   3.610
 2568TIP3    H1 7710   0.544   4.365   3.548
 2568TIP3    H2 7711   0.533   4.401   3.694
 2569TIP3   OH2 7712   3.442   3.072   0.752
 2569TIP3    H1 7713   3.523   3.030   0.722
 2569TIP3    H2 7714   3.471   3.155   0.790
 2570TIP3   OH2 7715   1.298   4.165   2.591
 2570TIP3    H1 7716   1.225   4.226   2.592
 2570TIP3    H2 7717   1.375   4.220   2.604
 2571TIP3   OH2 7718   1.891   0.447   2.910
 2571TIP3    H1 7719   1.824   0.382   2.927
 2571TIP3    H2 7720   1.945   0.447   2.989
 2572TIP3   OH2 7721   5.705   4.551   3.356
 2572TIP3    H1 7722   5.619   4.577   3.323
 2572TIP3    H2 7723   5.705   4.455   3.352
 2573TIP3   OH2 7724   2.233   2.305   0.847
 2573TIP3    H1 7725   2.209   2.393   0.876
 2573TIP3    H2 7726   2.290   2.272   0.917
 2574TIP3   OH2 7727   4.044   0.900   0.027
 2574TIP3    H1 7728   3.967   0.856  -0.008
 2574TIP3    H2 7729   4.067   0.850   0.106
 2575TIP3   OH2 7730   2.797   2.532   2.110
 2575TIP3    H1 7731   2.702   2.531   2.124
 2575TIP3    H2 7732   2.832   2.582   2.183
 2576TIP3   OH2 7733   4.923   2.874   3.101
 2576TIP3    H1 7734   4.975   2.937   3.052
 2576TIP3    H2 7735   4.988   2.816   3.141
 2577TIP3   OH2 7736   1.298   2.687   1.567
 2577TIP3    H1 7737   1.227   2.746   1.593
 2577TIP3    H2 7738   1.302   2.623   1.638
 2578TIP3   OH2 7739   2.762   3.401   0.688
 2578TIP3    H1 7740   2.700   3.330   0.705
 2578TIP3    H2 7741   2.817   3.367   0.617
 2579TIP3   OH2 7742   1.743   0.580   0.722
 2579TIP3    H1 7743   1.767   0.489   0.740
 2579TIP3    H2 7744   1.766   0.627   0.802
 2580TIP3   OH2 7745   4.152   4.617   4.368
 2580TIP3    H1 7746   4.110   4.683   4.423
 2580TIP3    H2 7747   4.243   4.646   4.361
 2581TIP3   OH2 7748   1.965   1.231   1.137
 2581TIP3    H1 7749   2.040   1.286   1.157
 2581TIP3    H2 7750   1.957   1.172   1.213
 2582TIP3   OH2 7751   0.794   5.242   2.890
 2582TIP3    H1 7752   0.822   5.225   2.980
 2582TIP3    H2 7753   0.839   5.174   2.839
 2583TIP3   OH2 7754   0.966   3.577   2.618
 2583TIP3    H1 7755   0.924   3.498   2.585
 2583TIP3    H2 7756   0.977   3.560   2.712
 2584TIP3   OH2 7757   0.826   4.223   0.942
 2584TIP3    H1 7758   0.903   4.266   0.980
 2584TIP3    H2 7759   0.768   4.207   1.017
 2585TIP3   OH2 7760   3.655   1.497   3.888
 2585TIP3    H1 7761   3.598   1.557   3.936
 2585TIP3    H2 7762   3.659   1.533   3.799
 2586TIP3   OH2 7763   3.936   4.356   1.153
 2586TIP3    H1 7764   4.003   4.410   1.111
 2586TIP3    H2 7765   3.965   4.346   1.243
 2587TIP3   OH2 7766   1.164   3.829   1.352
 2587TIP3    H1 7767   1.236   3.842   1.413
 2587TIP3    H2 7768   1.099   3.895   1.377
 2588TIP3   OH2 7769   5.468   0.117   0.768
 2588TIP3    H1 7770   5.386   0.134   0.814
 2588TIP3    H2 7771   5.450   0.038   0.716
 2589TIP3   OH2 7772   5.960   1.362   1.191
 2589TIP3    H1 7773   5.936   1.348   1.099
 2589TIP3    H2 7774   6.029   1.298   1.207
 2590TIP3   OH2 7775   4.006   3.610   3.631
 2590TIP3    H1 7776   4.030   3.540   3.692
 2590TIP3    H2 7777   3.996   3.565   3.547
 2591TIP3   OH2 7778   5.586   0.878   2.691
 2591TIP3    H1 7779   5.618   0.814   2.754
 2591TIP3    H2 7780   5.649   0.874   2.618
 2592TIP3   OH2 7781   2.370   4.545   0.442
 2592TIP3    H1 7782   2.439   4.609   0.429
 2592TIP3    H2 7783   2.314   4.583   0.510
 2593TIP3   OH2 7784   5.656   2.716   1.670
 2593TIP3    H1 7785   5.737   2.668   1.689
 2593TIP3    H2 7786   5.599   2.650   1.630
 2594TIP3   OH2 7787   3.922   5.383   0.318
 2594TIP3    H1 7788   3.860   5.341   0.259
 2594TIP3    H2 7789   3.903   5.344   0.404
 2595TIP3   OH2 7790   5.977   1.811   2.243
 2595TIP3    H1 7791   5.973   1.890   2.298
 2595TIP3    H2 7792   5.971   1.738   2.305
 2596TIP3   OH2 7793   3.521   2.229   3.969
 2596TIP3    H1 7794   3.467   2.173   3.914
 2596TIP3    H2 7795   3.512   2.317   3.931
 2597TIP3   OH2 7796   4.709   3.584   2.372
 2597TIP3    H1 7797   4.724   3.505   2.423
 2597TIP3    H2 7798   4.776   3.645   2.402
 2598TIP3   OH2 7799   2.044   5.344   2.585
 2598TIP3    H1 7800   2.008   5.390   2.661
 2598TIP3    H2 7801   2.090   5.269   2.622
 2599TIP3   OH2 7802   5.896   4.136   2.984
 2599TIP3    H1 7803   5.921   4.061   3.038
 2599TIP3    H2 7804   5.964   4.201   3.000
 2600TIP3   OH2 7805   3.464   4.279   2.899
 2600TIP3    H1 7806   3.437   4.234   2.979
 2600TIP3    H2 7807   3.560   4.276   2.902
 2601TIP3   OH2 7808   2.974   4.681   1.414
 2601TIP3    H1 7809   3.051   4.697   1.469
 2601TIP3    H2 7810   3.010   4.643   1.333
 2602TIP3   OH2 7811   2.667   3.378   4.295
 2602TIP3    H1 7812   2.582   3.394   4.338
 2602TIP3    H2 7813   2.728   3.365   4.367
 2603TIP3   OH2 7814   0.396   1.460   0.114
 2603TIP3    H1 7815   0.412   1.394   0.047
 2603TIP3    H2 7816   0.377   1.540   0.065
 2604TIP3   OH2 7817   0.044   1.676   2.719
 2604TIP3    H1 7818   0.046   1.659   2.625
 2604TIP3    H2 7819   0.111   1.743   2.732
 2605TIP3   OH2 7820   5.889   2.167   0.630
 2605TIP3    H1 7821   5.899   2.248   0.680
 2605TIP3    H2 7822   5.852   2.194   0.546
 2606TIP3   OH2 7823   2.588   0.302   0.444
 2606TIP3    H1 7824   2.531   0.356   0.390
 2606TIP3    H2 7825   2.607   0.357   0.521
 2607TIP3   OH2 7826   5.036   0.865   4.044
 2607TIP3    H1 7827   5.035   0.777   4.007
 2607TIP3    H2 7828   5.085   0.855   4.126
 2608TIP3   OH2 7829   2.741   4.873   3.541
 2608TIP3    H1 7830   2.696   4.841   3.462
 2608TIP3    H2 7831   2.739   4.800   3.602
 2609TIP3   OH2 7832   2.025   2.178   0.151
 2609TIP3    H1 7833   2.112   2.218   0.159
 2609TIP3    H2 7834   1.979   2.231   0.086
 2610TIP3   OH2 7835   5.089   2.938   1.341
 2610TIP3    H1 7836   5.165   2.976   1.386
 2610TIP3    H2 7837   5.099   2.844   1.354
 2611TIP3   OH2 7838   6.327   0.724   3.817
 2611TIP3    H1 7839   6.307   0.632   3.834
 2611TIP3    H2 7840   6.349   0.726   3.724
 2612TIP3   OH2 7841   5.263   3.144   0.901
 2612TIP3    H1 7842   5.279   3.214   0.838
 2612TIP3    H2 7843   5.297   3.065   0.860
 2613TIP3   OH2 7844   1.354   1.371   4.038
 2613TIP3    H1 7845   1.324   1.439   3.977
 2613TIP3    H2 7846   1.279   1.312   4.046
 2614TIP3   OH2 7847   2.313   0.741   0.302
 2614TIP3    H1 7848   2.381   0.785   0.250
 2614TIP3    H2 7849   2.362   0.689   0.366
 2615TIP3   OH2 7850   4.618   5.566   0.926
 2615TIP3    H1 7851   4.532   5.600   0.901
 2615TIP3    H2 7852   4.622   5.579   1.021
 2616TIP3   OH2 7853  -0.001   5.389   1.732
 2616TIP3    H1 7854   0.091   5.370   1.712
 2616TIP3    H2 7855  -0.028   5.451   1.666
 2617TIP3   OH2 7856   1.791   5.166   3.860
 2617TIP3    H1 7857   1.737   5.088   3.854
 2617TIP3    H2 7858   1.733   5.237   3.833
 2618TIP3   OH2 7859   4.034   5.768   3.031
 2618TIP3    H1 7860   4.113   5.823   3.026
 2618TIP3    H2 7861   3.970   5.823   3.076
 2619TIP3   OH2 7862   3.823   4.470   0.595
 2619TIP3    H1 7863   3.762   4.430   0.532
 2619TIP3    H2 7864   3.819   4.563   0.575
 2620TIP3   OH2 7865   2.134   4.106   4.820
 2620TIP3    H1 7866   2.152   4.091   4.913
 2620TIP3    H2 7867   2.204   4.060   4.774
 2621TIP3   OH2 7868   4.053   5.990   0.730
 2621TIP3    H1 7869   4.008   5.943   0.660
 2621TIP3    H2 7870   4.029   5.943   0.810
 2622TIP3   OH2 7871   2.256   1.419   2.037
 2622TIP3    H1 7872   2.322   1.350   2.028
 2622TIP3    H2 7873   2.283   1.468   2.115
 2623TIP3   OH2 7874   3.530   1.294   0.249
 2623TIP3    H1 7875   3.569   1.265   0.331
 2623TIP3    H2 7876   3.445   1.329   0.274
 2624TIP3   OH2 7877   0.468   0.896   3.960
 2624TIP3    H1 7878   0.562   0.881   3.966
 2624TIP3    H2 7879   0.441   0.921   4.048
 2625TIP3   OH2 7880   4.291   5.757   0.499
 2625TIP3    H1 7881   4.198   5.732   0.497
 2625TIP3    H2 7882   4.327   5.718   0.419
 2626TIP3   OH2 7883   2.878   0.427   4.225
 2626TIP3    H1 7884   2.896   0.345   4.180
 2626TIP3    H2 7885   2.930   0.492   4.179
 2627TIP3   OH2 7886   2.222   0.383   1.493
 2627TIP3    H1 7887   2.262   0.332   1.564
 2627TIP3    H2 7888   2.287   0.450   1.472
 2628TIP3   OH2 7889   6.323   3.720   1.538
 2628TIP3    H1 7890   6.380   3.725   1.460
 2628TIP3    H2 7891   6.296   3.811   1.553
 2629TIP3   OH2 7892   3.726   2.502   5.108
 2629TIP3    H1 7893   3.658   2.484   5.043
 2629TIP3    H2 7894   3.678   2.525   5.187
 2630TIP3   OH2 7895   1.768   3.494   4.783
 2630TIP3    H1 7896   1.823   3.439   4.838
 2630TIP3    H2 7897   1.779   3.583   4.818
 2631TIP3   OH2 7898   4.111   5.345   3.940
 2631TIP3    H1 7899   4.205   5.336   3.955
 2631TIP3    H2 7900   4.082   5.257   3.917
 2632TIP3   OH2 7901   2.921   3.351   0.478
 2632TIP3    H1 7902   2.898   3.270   0.433
 2632TIP3    H2 7903   2.975   3.399   0.415
 2633TIP3   OH2 7904   0.100   5.608   3.479
 2633TIP3    H1 7905   0.063   5.680   3.428
 2633TIP3    H2 7906   0.192   5.606   3.453
 2634TIP3   OH2 7907   4.034   0.393   1.392
 2634TIP3    H1 7908   4.087   0.322   1.356
 2634TIP3    H2 7909   4.055   0.393   1.486
 2635TIP3   OH2 7910   1.027   2.097   1.572
 2635TIP3    H1 7911   1.062   2.014   1.541
 2635TIP3    H2 7912   0.951   2.073   1.625
 2636TIP3   OH2 7913   0.468   1.288   1.002
 2636TIP3    H1 7914   0.454   1.383   1.004
 2636TIP3    H2 7915   0.519   1.269   1.080
 2637TIP3   OH2 7916   3.835   3.838   0.190
 2637TIP3    H1 7917   3.792   3.917   0.221
 2637TIP3    H2 7918   3.819   3.773   0.258
 2638TIP3   OH2 7919   0.188   0.609   2.755
 2638TIP3    H1 7920   0.164   0.537   2.813
 2638TIP3    H2 7921   0.258   0.574   2.700
 2639TIP3   OH2 7922   2.322   3.546   2.571
 2639TIP3    H1 7923   2.376   3.467   2.562
 2639TIP3    H2 7924   2.278   3.555   2.487
 2640TIP3   OH2 7925   5.082   4.314   2.482
 2640TIP3    H1 7926   5.038   4.249   2.427
 2640TIP3    H2 7927   5.052   4.294   2.571
 2641TIP3   OH2 7928   2.586   1.186   2.340
 2641TIP3    H1 7929   2.496   1.220   2.339
 2641TIP3    H2 7930   2.589   1.124   2.267
 2642TIP3   OH2 7931   4.801   1.844   1.524
 2642TIP3    H1 7932   4.892   1.827   1.547
 2642TIP3    H2 7933   4.805   1.876   1.434
 2643TIP3   OH2 7934   2.550   3.000   4.435
 2643TIP3    H1 7935   2.495   2.991   4.513
 2643TIP3    H2 7936   2.578   2.910   4.416
 2644TIP3   OH2 7937   0.073   3.564   1.770
 2644TIP3    H1 7938   0.026   3.642   1.802
 2644TIP3    H2 7939   0.008   3.518   1.717
 2645TIP3   OH2 7940   5.561   2.416   2.392
 2645TIP3    H1 7941   5.482   2.363   2.388
 2645TIP3    H2 7942   5.623   2.362   2.441
 2646TIP3   OH2 7943   0.913   5.816   0.677
 2646TIP3    H1 7944   0.853   5.743   0.662
 2646TIP3    H2 7945   0.859   5.894   0.662
 2647TIP3   OH2 7946   3.651   0.330   4.445
 2647TIP3    H1 7947   3.603   0.412   4.456
 2647TIP3    H2 7948   3.604   0.285   4.374
 2648TIP3   OH2 7949   0.222   3.837   1.335
 2648TIP3    H1 7950   0.302   3.888   1.322
 2648TIP3    H2 7951   0.151   3.896   1.311
 2649TIP3   OH2 7952   3.873   4.334   0.280
 2649TIP3    H1 7953   3.886   4.397   0.209
 2649TIP3    H2 7954   3.959   4.326   0.321
 2650TIP3   OH2 7955   0.751   5.877   2.583
 2650TIP3    H1 7956   0.823   5.813   2.580
 2650TIP3    H2 7957   0.795   5.961   2.598
 2651TIP3   OH2 7958   3.250   1.750   1.325
 2651TIP3    H1 7959   3.328   1.709   1.288
 2651TIP3    H2 7960   3.180   1.687   1.307
 2652TIP3   OH2 7961   0.147   2.978   2.045
 2652TIP3    H1 7962   0.205   2.957   1.973
 2652TIP3    H2 7963   0.195   2.950   2.123
 2653TIP3   OH2 7964   6.181   1.995   2.205
 2653TIP3    H1 7965   6.139   1.912   2.228
 2653TIP3    H2 7966   6.145   2.017   2.120
 2654TIP3   OH2 7967   5.468   0.234   1.483
 2654TIP3    H1 7968   5.485   0.152   1.437
 2654TIP3    H2 7969   5.531   0.296   1.447
 2655TIP3   OH2 7970   6.030   4.910   4.023
 2655TIP3    H1 7971   6.063   4.879   4.108
 2655TIP3    H2 7972   6.004   5.001   4.039
 2656TIP3   OH2 7973   1.283   1.949   1.806
 2656TIP3    H1 7974   1.375   1.939   1.780
 2656TIP3    H2 7975   1.284   1.939   1.901
 2657TIP3   OH2 7976   5.703   4.038   1.255
 2657TIP3    H1 7977   5.702   3.979   1.330
 2657TIP3    H2 7978   5.725   3.981   1.181
 2658TIP3   OH2 7979   1.363   1.717   5.056
 2658TIP3    H1 7980   1.281   1.673   5.076
 2658TIP3    H2 7981   1.391   1.756   5.139
 2659TIP3   OH2 7982   0.171   1.190   4.377
 2659TIP3    H1 7983   0.093   1.155   4.420
 2659TIP3    H2 7984   0.233   1.205   4.448
 2660TIP3   OH2 7985   0.664   2.443   2.226
 2660TIP3    H1 7986   0.710   2.527   2.227
 2660TIP3    H2 7987   0.650   2.423   2.319
 2661TIP3   OH2 7988   5.129   4.279   3.662
 2661TIP3    H1 7989   5.083   4.284   3.746
 2661TIP3    H2 7990   5.217   4.311   3.681
 2662TIP3   OH2 7991   1.907   3.348   3.286
 2662TIP3    H1 7992   1.874   3.438   3.289
 2662TIP3    H2 7993   1.864   3.309   3.210
 2663TIP3   OH2 7994   5.296   0.314   0.461
 2663TIP3    H1 7995   5.270   0.367   0.536
 2663TIP3    H2 7996   5.240   0.345   0.390
 2664TIP3   OH2 7997   4.228   2.077   0.713
 2664TIP3    H1 7998   4.242   2.168   0.685
 2664TIP3    H2 7999   4.303   2.057   0.769
 2665TIP3   OH2 8000   4.781   2.337   5.034
 2665TIP3    H1 8001   4.793   2.291   4.951
 2665TIP3    H2 8002   4.741   2.272   5.092
 2666TIP3   OH2 8003   3.687   1.999   0.384
 2666TIP3    H1 8004   3.701   2.078   0.436
 2666TIP3    H2 8005   3.760   1.997   0.322
 2667TIP3   OH2 8006   5.289   0.490   3.730
 2667TIP3    H1 8007   5.230   0.562   3.708
 2667TIP3    H2 8008   5.251   0.450   3.808
 2668TIP3   OH2 8009   1.786   2.881   0.450
 2668TIP3    H1 8010   1.693   2.900   0.462
 2668TIP3    H2 8011   1.823   2.888   0.538
 2669TIP3   OH2 8012   1.090   0.558   4.149
 2669TIP3    H1 8013   1.078   0.474   4.104
 2669TIP3    H2 8014   1.094   0.535   4.242
 2670TIP3   OH2 8015   0.054   0.996   2.761
 2670TIP3    H1 8016  -0.011   0.928   2.778
 2670TIP3    H2 8017   0.139   0.953   2.772
 2671TIP3   OH2 8018   0.631   3.093   3.364
 2671TIP3    H1 8019   0.667   3.143   3.438
 2671TIP3    H2 8020   0.660   3.003   3.379
 2672TIP3   OH2 8021   4.868   4.657   3.605
 2672TIP3    H1 8022   4.772   4.655   3.609
 2672TIP3    H2 8023   4.894   4.694   3.689
 2673TIP3   OH2 8024   6.043   3.179   4.959
 2673TIP3    H1 8025   5.957   3.145   4.985
 2673TIP3    H2 8026   6.051   3.262   5.007
 2674TIP3   OH2 8027   2.631   1.774   2.720
 2674TIP3    H1 8028   2.686   1.737   2.651
 2674TIP3    H2 8029   2.627   1.705   2.786
 2675TIP3   OH2 8030   6.203   2.709   4.123
 2675TIP3    H1 8031   6.161   2.774   4.179
 2675TIP3    H2 8032   6.270   2.668   4.178
 2676TIP3   OH2 8033   0.672   1.027   4.123
 2676TIP3    H1 8034   0.674   1.088   4.050
 2676TIP3    H2 8035   0.650   1.081   4.199
 2677TIP3   OH2 8036   3.986   4.183   0.902
 2677TIP3    H1 8037   3.945   4.270   0.899
 2677TIP3    H2 8038   3.948   4.141   0.979
 2678TIP3   OH2 8039   0.549   2.403   4.748
 2678TIP3    H1 8040   0.526   2.348   4.673
 2678TIP3    H2 8041   0.645   2.405   4.748
 2679TIP3   OH2 8042   2.276   4.954   4.048
 2679TIP3    H1 8043   2.359   5.002   4.051
 2679TIP3    H2 8044   2.261   4.937   3.955
 2680TIP3   OH2 8045   6.083   3.427   4.635
 2680TIP3    H1 8046   6.140   3.481   4.690
 2680TIP3    H2 8047   5.996   3.439   4.672
 2681TIP3   OH2 8048   5.603   1.644   3.361
 2681TIP3    H1 8049   5.586   1.732   3.394
 2681TIP3    H2 8050   5.540   1.589   3.407
 2682TIP3   OH2 8051   0.059   0.131   3.418
 2682TIP3    H1 8052  -0.002   0.058   3.407
 2682TIP3    H2 8053   0.024   0.181   3.491
 2683TIP3   OH2 8054   3.259   4.906   0.373
 2683TIP3    H1 8055   3.235   4.818   0.345
 2683TIP3    H2 8056   3.233   4.910   0.465
 2684TIP3   OH2 8057   2.084   2.603   0.294
 2684TIP3    H1 8058   2.111   2.681   0.246
 2684TIP3    H2 8059   2.054   2.635   0.379
 2685TIP3   OH2 8060   4.234   4.860   4.043
 2685TIP3    H1 8061   4.207   4.860   4.135
 2685TIP3    H2 8062   4.176   4.796   4.001
 2686TIP3   OH2 8063   2.444   2.045   2.083
 2686TIP3    H1 8064   2.376   2.108   2.109
 2686TIP3    H2 8065   2.485   2.084   2.005
 2687TIP3   OH2 8066   0.708   4.160   1.184
 2687TIP3    H1 8067   0.770   4.100   1.225
 2687TIP3    H2 8068   0.630   4.154   1.238
 2688TIP3   OH2 8069   5.883   0.379   2.226
 2688TIP3    H1 8070   5.962   0.327   2.233
 2688TIP3    H2 8071   5.834   0.339   2.154
 2689TIP3   OH2 8072   3.412   1.149   4.061
 2689TIP3    H1 8073   3.473   1.181   4.127
 2689TIP3    H2 8074   3.375   1.228   4.022
 2690TIP3   OH2 8075   2.964   3.467   5.114
 2690TIP3    H1 8076   2.928   3.466   5.026
 2690TIP3    H2 8077   2.950   3.558   5.144
 2691TIP3   OH2 8078   1.081   4.114   1.347
 2691TIP3    H1 8079   0.990   4.092   1.329
 2691TIP3    H2 8080   1.077   4.175   1.421
 2692TIP3   OH2 8081   6.110   1.231   0.386
 2692TIP3    H1 8082   6.040   1.227   0.320
 2692TIP3    H2 8083   6.067   1.205   0.467
 2693TIP3   OH2 8084   1.908   2.089   2.812
 2693TIP3    H1 8085   2.003   2.076   2.809
 2693TIP3    H2 8086   1.881   2.052   2.896
 2694TIP3   OH2 8087   3.232   2.252   4.754
 2694TIP3    H1 8088   3.203   2.164   4.778
 2694TIP3    H2 8089   3.249   2.295   4.838
 2695TIP3   OH2 8090   0.077   5.646   0.023
 2695TIP3    H1 8091   0.019   5.688  -0.040
 2695TIP3    H2 8092   0.054   5.553   0.020
 2696TIP3   OH2 8093   0.511   5.277   0.611
 2696TIP3    H1 8094   0.509   5.371   0.628
 2696TIP3    H2 8095   0.432   5.243   0.653
 2697TIP3   OH2 8096   5.048   4.543   2.353
 2697TIP3    H1 8097   5.078   4.488   2.425
 2697TIP3    H2 8098   5.041   4.484   2.278
 2698TIP3   OH2 8099   6.101   4.774   3.777
 2698TIP3    H1 8100   6.089   4.822   3.859
 2698TIP3    H2 8101   6.160   4.829   3.725
 2699TIP3   OH2 8102   0.907   5.643   3.238
 2699TIP3    H1 8103   0.956   5.567   3.209
 2699TIP3    H2 8104   0.823   5.608   3.269
 2700TIP3   OH2 8105   1.722   2.504   2.365
 2700TIP3    H1 8106   1.636   2.465   2.350
 2700TIP3    H2 8107   1.784   2.431   2.358
 2701TIP3   OH2 8108   0.393   2.633   2.764
 2701TIP3    H1 8109   0.397   2.668   2.675
 2701TIP3    H2 8110   0.395   2.710   2.820
 2702TIP3   OH2 8111   2.824   2.989   1.330
 2702TIP3    H1 8112   2.813   2.928   1.403
 2702TIP3    H2 8113   2.803   3.075   1.367
 2703TIP3   OH2 8114   5.066   1.362   2.423
 2703TIP3    H1 8115   4.986   1.321   2.457
 2703TIP3    H2 8116   5.035   1.429   2.363
 2704TIP3   OH2 8117   4.306   1.083   1.334
 2704TIP3    H1 8118   4.285   1.166   1.377
 2704TIP3    H2 8119   4.231   1.065   1.278
 2705TIP3   OH2 8120   3.167   0.378   2.619
 2705TIP3    H1 8121   3.230   0.440   2.654
 2705TIP3    H2 8122   3.209   0.292   2.629
 2706TIP3   OH2 8123   4.543   3.693   3.313
 2706TIP3    H1 8124   4.597   3.652   3.246
 2706TIP3    H2 8125   4.602   3.754   3.357
 2707TIP3   OH2 8126   0.979   4.576   0.921
 2707TIP3    H1 8127   1.032   4.527   0.857
 2707TIP3    H2 8128   1.032   4.574   1.001
 2708TIP3   OH2 8129   3.107   3.035   3.383
 2708TIP3    H1 8130   3.110   3.064   3.292
 2708TIP3    H2 8131   3.037   2.970   3.385
 2709TIP3   OH2 8132   2.612   0.727   3.741
 2709TIP3    H1 8133   2.702   0.697   3.728
 2709TIP3    H2 8134   2.565   0.649   3.771
 2710TIP3   OH2 8135   0.089   3.054   3.976
 2710TIP3    H1 8136  -0.003   3.046   3.949
 2710TIP3    H2 8137   0.100   2.987   4.044
 2711TIP3   OH2 8138   3.029   5.150   4.712
 2711TIP3    H1 8139   3.064   5.086   4.774
 2711TIP3    H2 8140   3.079   5.230   4.729
 2712TIP3   OH2 8141   0.875   0.788   0.367
 2712TIP3    H1 8142   0.919   0.841   0.432
 2712TIP3    H2 8143   0.937   0.718   0.346
 2713TIP3   OH2 8144   3.814   5.148   4.870
 2713TIP3    H1 8145   3.771   5.068   4.839
 2713TIP3    H2 8146   3.749   5.217   4.856
 2714TIP3   OH2 8147   1.158   3.018   1.303
 2714TIP3    H1 8148   1.088   3.002   1.366
 2714TIP3    H2 8149   1.159   2.940   1.247
 2715TIP3   OH2 8150   5.910   1.343   0.918
 2715TIP3    H1 8151   5.940   1.367   0.830
 2715TIP3    H2 8152   5.815   1.345   0.913
 2716TIP3   OH2 8153   2.805   4.072   2.403
 2716TIP3    H1 8154   2.845   4.146   2.358
 2716TIP3    H2 8155   2.717   4.102   2.427
 2717TIP3   OH2 8156   2.658   3.999   4.206
 2717TIP3    H1 8157   2.693   3.919   4.244
 2717TIP3    H2 8158   2.631   4.052   4.281
 2718TIP3   OH2 8159   6.224   3.347   2.005
 2718TIP3    H1 8160   6.176   3.292   2.067
 2718TIP3    H2 8161   6.164   3.359   1.932
 2719TIP3   OH2 8162   5.721   1.681   3.941
 2719TIP3    H1 8163   5.738   1.669   4.035
 2719TIP3    H2 8164   5.632   1.648   3.929
 2720TIP3   OH2 8165   6.152   2.370   4.658
 2720TIP3    H1 8166   6.168   2.282   4.626
 2720TIP3    H2 8167   6.104   2.358   4.740
 2721TIP3   OH2 8168   3.489   0.478   3.608
 2721TIP3    H1 8169   3.459   0.388   3.612
 2721TIP3    H2 8170   3.425   0.527   3.660
 2722TIP3   OH2 8171   1.715   5.370   0.068
 2722TIP3    H1 8172   1.733   5.434   0.138
 2722TIP3    H2 8173   1.682   5.423  -0.005
 2723TIP3   OH2 8174   1.078   3.856   0.918
 2723TIP3    H1 8175   1.123   3.790   0.969
 2723TIP3    H2 8176   1.120   3.938   0.941
 2724TIP3   OH2 8177   0.899   2.847   3.591
 2724TIP3    H1 8178   0.859   2.762   3.607
 2724TIP3    H2 8179   0.993   2.832   3.595
 2725TIP3   OH2 8180   5.039   5.283   3.372
 2725TIP3    H1 8181   4.965   5.294   3.431
 2725TIP3    H2 8182   5.116   5.284   3.429
 2726TIP3   OH2 8183   2.395   1.486   2.871
 2726TIP3    H1 8184   2.363   1.426   2.804
 2726TIP3    H2 8185   2.376   1.442   2.954
 2727TIP3   OH2 8186   4.672   1.717   1.081
 2727TIP3    H1 8187   4.662   1.734   0.987
 2727TIP3    H2 8188   4.583   1.698   1.111
 2728TIP3   OH2 8189   5.323   0.053   2.132
 2728TIP3    H1 8190   5.400   0.035   2.186
 2728TIP3    H2 8191   5.288  -0.033   2.110
 2729TIP3   OH2 8192   4.669   4.726   2.873
 2729TIP3    H1 8193   4.722   4.654   2.839
 2729TIP3    H2 8194   4.659   4.786   2.800
 2730TIP3   OH2 8195   4.167   0.475   4.150
 2730TIP3    H1 8196   4.168   0.384   4.181
 2730TIP3    H2 8197   4.077   0.491   4.123
 2731TIP3   OH2 8198   5.306   2.845   0.881
 2731TIP3    H1 8199   5.292   2.834   0.787
 2731TIP3    H2 8200   5.354   2.766   0.908
 2732TIP3   OH2 8201   3.624   3.644   5.131
 2732TIP3    H1 8202   3.674   3.684   5.202
 2732TIP3    H2 8203   3.612   3.715   5.067
 2733TIP3   OH2 8204   4.496   0.705   2.660
 2733TIP3    H1 8205   4.446   0.627   2.637
 2733TIP3    H2 8206   4.431   0.767   2.692
 2734TIP3   OH2 8207   0.364   0.608   3.569
 2734TIP3    H1 8208   0.331   0.521   3.594
 2734TIP3    H2 8209   0.379   0.653   3.653
 2735TIP3   OH2 8210   5.096   1.758   1.292
 2735TIP3    H1 8211   5.184   1.779   1.260
 2735TIP3    H2 8212   5.108   1.740   1.385
 2736TIP3   OH2 8213   3.631   3.112   3.675
 2736TIP3    H1 8214   3.569   3.185   3.670
 2736TIP3    H2 8215   3.695   3.130   3.606
 2737TIP3   OH2 8216   3.325   4.519  -0.004
 2737TIP3    H1 8217   3.314   4.501   0.089
 2737TIP3    H2 8218   3.347   4.434  -0.043
 2738TIP3   OH2 8219   5.751   2.134   2.302
 2738TIP3    H1 8220   5.676   2.075   2.307
 2738TIP3    H2 8221   5.742   2.178   2.217
 2739TIP3   OH2 8222   4.270   3.962   1.639
 2739TIP3    H1 8223   4.204   3.978   1.706
 2739TIP3    H2 8224   4.309   4.048   1.623
 2740TIP3   OH2 8225   6.159   5.057   2.555
 2740TIP3    H1 8226   6.162   5.006   2.474
 2740TIP3    H2 8227   6.095   5.126   2.537
 2741TIP3   OH2 8228   3.120   3.341   0.146
 2741TIP3    H1 8229   3.167   3.329   0.229
 2741TIP3    H2 8230   3.059   3.268   0.142
 2742TIP3   OH2 8231   3.765   0.505   3.712
 2742TIP3    H1 8232   3.678   0.512   3.671
 2742TIP3    H2 8233   3.755   0.435   3.776
 2743TIP3   OH2 8234   2.153   0.779   5.141
 2743TIP3    H1 8235   2.239   0.740   5.127
 2743TIP3    H2 8236   2.114   0.782   5.053
 2744TIP3   OH2 8237   2.053   5.932   4.520
 2744TIP3    H1 8238   2.077   6.014   4.477
 2744TIP3    H2 8239   2.118   5.869   4.488
 2745TIP3   OH2 8240   3.570   0.611   0.319
 2745TIP3    H1 8241   3.632   0.671   0.278
 2745TIP3    H2 8242   3.623   0.535   0.343
 2746TIP3   OH2 8243   0.087   4.369   4.249
 2746TIP3    H1 8244   0.041   4.329   4.323
 2746TIP3    H2 8245   0.130   4.295   4.204
 2747TIP3   OH2 8246   5.169   2.664   1.442
 2747TIP3    H1 8247   5.132   2.579   1.420
 2747TIP3    H2 8248   5.238   2.678   1.377
 2748TIP3   OH2 8249   3.187   4.966   3.252
 2748TIP3    H1 8250   3.196   4.928   3.165
 2748TIP3    H2 8251   3.264   4.936   3.300
 2749TIP3   OH2 8252   5.380   5.009   3.825
 2749TIP3    H1 8253   5.469   4.973   3.829
 2749TIP3    H2 8254   5.351   4.990   3.735
 2750TIP3   OH2 8255   4.777   4.545   0.544
 2750TIP3    H1 8256   4.756   4.469   0.598
 2750TIP3    H2 8257   4.867   4.530   0.516
 2751TIP3   OH2 8258   0.152   5.868   0.395
 2751TIP3    H1 8259   0.057   5.859   0.405
 2751TIP3    H2 8260   0.170   5.957   0.427
 2752TIP3   OH2 8261   1.374   0.344   0.509
 2752TIP3    H1 8262   1.302   0.390   0.467
 2752TIP3    H2 8263   1.336   0.262   0.541
 2753TIP3   OH2 8264   1.108   3.265   2.378
 2753TIP3    H1 8265   1.028   3.293   2.423
 2753TIP3    H2 8266   1.132   3.183   2.422
 2754TIP3   OH2 8267   0.643   5.205   4.899
 2754TIP3    H1 8268   0.617   5.118   4.867
 2754TIP3    H2 8269   0.670   5.252   4.820
 2755TIP3   OH2 8270   0.773   1.675   1.741
 2755TIP3    H1 8271   0.687   1.709   1.766
 2755TIP3    H2 8272   0.784   1.597   1.795
 2756TIP3   OH2 8273   5.022   1.379   0.668
 2756TIP3    H1 8274   5.022   1.422   0.582
 2756TIP3    H2 8275   4.935   1.398   0.704
 2757TIP3   OH2 8276   0.810   4.992   1.756
 2757TIP3    H1 8277   0.790   4.898   1.758
 2757TIP3    H2 8278   0.795   5.021   1.846
 2758TIP3   OH2 8279   4.524   1.127   0.865
 2758TIP3    H1 8280   4.571   1.148   0.946
 2758TIP3    H2 8281   4.478   1.208   0.842
 2759TIP3   OH2 8282   1.186   1.779   1.407
 2759TIP3    H1 8283   1.174   1.784   1.502
 2759TIP3    H2 8284   1.162   1.689   1.384
 2760TIP3   OH2 8285   1.276   4.564   5.015
 2760TIP3    H1 8286   1.352   4.575   4.959
 2760TIP3    H2 8287   1.308   4.513   5.089
 2761TIP3   OH2 8288   4.418   4.477   4.192
 2761TIP3    H1 8289   4.342   4.433   4.232
 2761TIP3    H2 8290   4.422   4.562   4.236
 2762TIP3   OH2 8291   0.097   1.090   2.270
 2762TIP3    H1 8292   0.042   1.023   2.231
 2762TIP3    H2 8293   0.063   1.103   2.358
 2763TIP3   OH2 8294   2.016   1.765   3.082
 2763TIP3    H1 8295   2.018   1.674   3.051
 2763TIP3    H2 8296   2.105   1.782   3.111
 2764TIP3   OH2 8297   2.081   5.953   1.703
 2764TIP3    H1 8298   2.099   5.859   1.690
 2764TIP3    H2 8299   2.101   5.993   1.619
 2765TIP3   OH2 8300   1.258   5.618   4.668
 2765TIP3    H1 8301   1.218   5.547   4.618
 2765TIP3    H2 8302   1.184   5.673   4.694
 2766TIP3   OH2 8303   0.667   1.625   2.033
 2766TIP3    H1 8304   0.752   1.617   2.075
 2766TIP3    H2 8305   0.625   1.540   2.045
 2767TIP3   OH2 8306   3.659   0.910   0.767
 2767TIP3    H1 8307   3.641   0.819   0.793
 2767TIP3    H2 8308   3.671   0.905   0.672
 2768TIP3   OH2 8309   1.168   2.070   0.468
 2768TIP3    H1 8310   1.183   2.032   0.555
 2768TIP3    H2 8311   1.138   2.159   0.486
 2769TIP3   OH2 8312   5.140   0.358   3.929
 2769TIP3    H1 8313   5.076   0.372   3.859
 2769TIP3    H2 8314   5.187   0.278   3.904
 2770TIP3   OH2 8315   1.176   4.829   5.076
 2770TIP3    H1 8316   1.252   4.855   5.128
 2770TIP3    H2 8317   1.196   4.739   5.048
 2771TIP3   OH2 8318   3.233   2.767   1.168
 2771TIP3    H1 8319   3.313   2.785   1.119
 2771TIP3    H2 8320   3.167   2.825   1.130
 2772TIP3   OH2 8321   2.909   5.946   0.799
 2772TIP3    H1 8322   2.850   5.871   0.800
 2772TIP3    H2 8323   2.942   5.951   0.889
 2773TIP3   OH2 8324   2.065   0.461   4.181
 2773TIP3    H1 8325   2.065   0.413   4.098
 2773TIP3    H2 8326   1.988   0.428   4.228
 2774TIP3   OH2 8327   5.214   2.313   0.113
 2774TIP3    H1 8328   5.242   2.401   0.088
 2774TIP3    H2 8329   5.168   2.280   0.036
 2775TIP3   OH2 8330   6.160   2.924   2.021
 2775TIP3    H1 8331   6.238   2.946   1.972
 2775TIP3    H2 8332   6.170   2.971   2.104
 2776TIP3   OH2 8333   2.848   0.858   5.194
 2776TIP3    H1 8334   2.784   0.917   5.233
 2776TIP3    H2 8335   2.885   0.908   5.121
 2777TIP3   OH2 8336   4.153   3.203   0.102
 2777TIP3    H1 8337   4.218   3.211   0.172
 2777TIP3    H2 8338   4.130   3.294   0.082
 2778TIP3   OH2 8339   0.878   2.656   4.222
 2778TIP3    H1 8340   0.827   2.724   4.178
 2778TIP3    H2 8341   0.866   2.579   4.167
 2779TIP3   OH2 8342   5.706   4.765   0.765
 2779TIP3    H1 8343   5.616   4.734   0.771
 2779TIP3    H2 8344   5.704   4.830   0.695
 2780TIP3   OH2 8345   5.177   4.634   3.751
 2780TIP3    H1 8346   5.153   4.725   3.768
 2780TIP3    H2 8347   5.252   4.639   3.692
 2781TIP3   OH2 8348   3.668   1.544   1.749
 2781TIP3    H1 8349   3.646   1.586   1.666
 2781TIP3    H2 8350   3.590   1.495   1.773
 2782TIP3   OH2 8351   1.181   1.612   3.611
 2782TIP3    H1 8352   1.119   1.570   3.552
 2782TIP3    H2 8353   1.200   1.697   3.570
 2783TIP3   OH2 8354   5.761   1.370   3.538
 2783TIP3    H1 8355   5.692   1.387   3.602
 2783TIP3    H2 8356   5.735   1.419   3.460
 2784TIP3   OH2 8357   0.850   0.200   4.151
 2784TIP3    H1 8358   0.797   0.144   4.095
 2784TIP3    H2 8359   0.802   0.203   4.234
 2785TIP3   OH2 8360   3.816  -0.012   1.942
 2785TIP3    H1 8361   3.732   0.034   1.941
 2785TIP3    H2 8362   3.878   0.050   1.902
 2786TIP3   OH2 8363   4.739   4.288   2.469
 2786TIP3    H1 8364   4.675   4.241   2.417
 2786TIP3    H2 8365   4.792   4.219   2.511
 2787TIP3   OH2 8366   1.414   5.964   1.526
 2787TIP3    H1 8367   1.328   5.933   1.497
 2787TIP3    H2 8368   1.475   5.924   1.465
 2788TIP3   OH2 8369   6.084   4.879   3.261
 2788TIP3    H1 8370   6.026   4.945   3.298
 2788TIP3    H2 8371   6.063   4.799   3.309
 2789TIP3   OH2 8372   5.618   2.452   1.238
 2789TIP3    H1 8373   5.527   2.481   1.237
 2789TIP3    H2 8374   5.668   2.534   1.239
 2790TIP3   OH2 8375   2.680   1.956   2.502
 2790TIP3    H1 8376   2.706   1.935   2.591
 2790TIP3    H2 8377   2.744   1.911   2.447
 2791TIP3   OH2 8378   5.352   3.898   0.572
 2791TIP3    H1 8379   5.390   3.933   0.491
 2791TIP3    H2 8380   5.424   3.850   0.613
 2792TIP3   OH2 8381   4.173   1.508   2.259
 2792TIP3    H1 8382   4.259   1.468   2.276
 2792TIP3    H2 8383   4.189   1.572   2.190
 2793TIP3   OH2 8384   3.271   3.742   2.693
 2793TIP3    H1 8385   3.323   3.732   2.613
 2793TIP3    H2 8386   3.188   3.698   2.673
 2794TIP3   OH2 8387   2.087   1.564   0.514
 2794TIP3    H1 8388   2.071   1.476   0.549
 2794TIP3    H2 8389   2.027   1.571   0.440
 2795TIP3   OH2 8390   0.105   1.274   3.961
 2795TIP3    H1 8391   0.097   1.338   3.891
 2795TIP3    H2 8392   0.140   1.196   3.919
 2796TIP3   OH2 8393   1.813   4.054   3.090
 2796TIP3    H1 8394   1.741   4.113   3.068
 2796TIP3    H2 8395   1.891   4.108   3.083
 2797TIP3   OH2 8396   2.678   1.495   1.917
 2797TIP3    H1 8397   2.667   1.517   1.825
 2797TIP3    H2 8398   2.770   1.516   1.936
 2798TIP3   OH2 8399   2.951   0.040   3.806
 2798TIP3    H1 8400   2.952   0.069   3.715
 2798TIP3    H2 8401   3.037   0.066   3.840
 2799TIP3   OH2 8402   3.078   1.341   1.680
 2799TIP3    H1 8403   2.990   1.342   1.717
 2799TIP3    H2 8404   3.082   1.418   1.624
 2800TIP3   OH2 8405   5.719   1.116   4.149
 2800TIP3    H1 8406   5.739   1.022   4.148
 2800TIP3    H2 8407   5.687   1.135   4.061
 2801TIP3   OH2 8408   3.795   2.889   2.087
 2801TIP3    H1 8409   3.789   2.796   2.108
 2801TIP3    H2 8410   3.887   2.910   2.100
 2802TIP3   OH2 8411   4.079   3.372   4.583
 2802TIP3    H1 8412   4.143   3.323   4.531
 2802TIP3    H2 8413   4.016   3.404   4.519
 2803TIP3   OH2 8414   4.411   0.820   4.063
 2803TIP3    H1 8415   4.501   0.825   4.031
 2803TIP3    H2 8416   4.382   0.731   4.043
 2804TIP3   OH2 8417   5.588   5.033   0.200
 2804TIP3    H1 8418   5.672   5.077   0.207
 2804TIP3    H2 8419   5.535   5.070   0.270
 2805TIP3   OH2 8420   4.241   2.996   1.434
 2805TIP3    H1 8421   4.207   3.068   1.381
 2805TIP3    H2 8422   4.330   3.022   1.455
 2806TIP3   OH2 8423   3.149   3.547  -0.034
 2806TIP3    H1 8424   3.180   3.625   0.012
 2806TIP3    H2 8425   3.146   3.479   0.033
 2807TIP3   OH2 8426   0.489   2.803   2.239
 2807TIP3    H1 8427   0.544   2.727   2.220
 2807TIP3    H2 8428   0.416   2.797   2.177
 2808TIP3   OH2 8429   4.553   5.568   1.559
 2808TIP3    H1 8430   4.636   5.553   1.515
 2808TIP3    H2 8431   4.536   5.662   1.548
 2809TIP3   OH2 8432   0.408   3.153   2.340
 2809TIP3    H1 8433   0.461   3.218   2.387
 2809TIP3    H2 8434   0.334   3.203   2.305
 2810TIP3   OH2 8435   1.238   4.031   4.170
 2810TIP3    H1 8436   1.290   3.994   4.242
 2810TIP3    H2 8437   1.283   4.001   4.091
 2811TIP3   OH2 8438   1.192   1.164   3.023
 2811TIP3    H1 8439   1.131   1.129   2.959
 2811TIP3    H2 8440   1.206   1.093   3.085
 2812TIP3   OH2 8441   4.103   0.888   0.872
 2812TIP3    H1 8442   4.183   0.857   0.915
 2812TIP3    H2 8443   4.067   0.810   0.830
 2813TIP3   OH2 8444   2.655   4.381   0.375
 2813TIP3    H1 8445   2.713   4.315   0.412
 2813TIP3    H2 8446   2.579   4.381   0.433
 2814TIP3   OH2 8447   6.196   5.354   3.017
 2814TIP3    H1 8448   6.257   5.308   3.075
 2814TIP3    H2 8449   6.182   5.293   2.944
 2815TIP3   OH2 8450   1.483   3.999   4.654
 2815TIP3    H1 8451   1.527   3.915   4.664
 2815TIP3    H2 8452   1.554   4.063   4.650
 2816TIP3   OH2 8453   3.856   3.691   3.251
 2816TIP3    H1 8454   3.846   3.610   3.301
 2816TIP3    H2 8455   3.815   3.673   3.167
 2817TIP3   OH2 8456   5.189   5.307   3.609
 2817TIP3    H1 8457   5.110   5.279   3.655
 2817TIP3    H2 8458   5.244   5.344   3.678
 2818TIP3   OH2 8459   1.249   5.938   0.187
 2818TIP3    H1 8460   1.161   5.905   0.207
 2818TIP3    H2 8461   1.272   5.993   0.261
 2819TIP3   OH2 8462   4.613   3.983   4.528
 2819TIP3    H1 8463   4.660   4.029   4.459
 2819TIP3    H2 8464   4.673   3.982   4.602
 2820TIP3   OH2 8465   2.514   3.973   2.766
 2820TIP3    H1 8466   2.526   4.068   2.758
 2820TIP3    H2 8467   2.442   3.953   2.707
 2821TIP3   OH2 8468   1.404   4.097   0.734
 2821TIP3    H1 8469   1.366   4.185   0.734
 2821TIP3    H2 8470   1.496   4.110   0.714
 2822TIP3   OH2 8471   0.406   5.298   2.591
 2822TIP3    H1 8472   0.500   5.282   2.589
 2822TIP3    H2 8473   0.366   5.214   2.570
 2823TIP3   OH2 8474   5.838   5.352   1.444
 2823TIP3    H1 8475   5.794   5.367   1.528
 2823TIP3    H2 8476   5.800   5.270   1.412
 2824TIP3   OH2 8477   4.629   1.817   3.576
 2824TIP3    H1 8478   4.653   1.811   3.669
 2824TIP3    H2 8479   4.573   1.741   3.560
 2825TIP3   OH2 8480   5.816   0.277   4.536
 2825TIP3    H1 8481   5.731   0.268   4.579
 2825TIP3    H2 8482   5.814   0.213   4.465
 2826TIP3   OH2 8483   2.565   1.901   3.873
 2826TIP3    H1 8484   2.524   1.857   3.947
 2826TIP3    H2 8485   2.621   1.834   3.834
 2827TIP3   OH2 8486   2.136   5.731   0.158
 2827TIP3    H1 8487   2.128   5.785   0.079
 2827TIP3    H2 8488   2.067   5.762   0.215
 2828TIP3   OH2 8489   3.978   1.852   4.408
 2828TIP3    H1 8490   4.032   1.932   4.413
 2828TIP3    H2 8491   3.947   1.850   4.317
 2829TIP3   OH2 8492   4.004   5.263   1.326
 2829TIP3    H1 8493   3.916   5.299   1.334
 2829TIP3    H2 8494   4.010   5.234   1.235
 2830TIP3   OH2 8495   4.693   4.921   1.944
 2830TIP3    H1 8496   4.627   4.988   1.961
 2830TIP3    H2 8497   4.646   4.853   1.895
 2831TIP3   OH2 8498   5.324   3.632   1.687
 2831TIP3    H1 8499   5.367   3.634   1.772
 2831TIP3    H2 8500   5.315   3.539   1.666
 2832TIP3   OH2 8501   2.464   2.203   0.725
 2832TIP3    H1 8502   2.532   2.267   0.744
 2832TIP3    H2 8503   2.383   2.243   0.757
 2833TIP3   OH2 8504   1.313   1.465   0.607
 2833TIP3    H1 8505   1.242   1.509   0.560
 2833TIP3    H2 8506   1.285   1.373   0.612
 2834TIP3   OH2 8507   4.306   2.726   0.207
 2834TIP3    H1 8508   4.325   2.646   0.158
 2834TIP3    H2 8509   4.214   2.743   0.191
 2835TIP3   OH2 8510   0.415   2.254   0.976
 2835TIP3    H1 8511   0.367   2.213   1.048
 2835TIP3    H2 8512   0.507   2.237   0.997
 2836TIP3   OH2 8513   6.191   4.932   3.019
 2836TIP3    H1 8514   6.127   4.903   2.953
 2836TIP3    H2 8515   6.154   4.902   3.102
 2837TIP3   OH2 8516   5.116   2.250   3.438
 2837TIP3    H1 8517   5.027   2.234   3.469
 2837TIP3    H2 8518   5.170   2.249   3.516
 2838TIP3   OH2 8519   5.316   5.768   4.607
 2838TIP3    H1 8520   5.275   5.778   4.522
 2838TIP3    H2 8521   5.276   5.836   4.662
 2839TIP3   OH2 8522   4.584   5.852   2.738
 2839TIP3    H1 8523   4.527   5.783   2.771
 2839TIP3    H2 8524   4.600   5.908   2.814
 2840TIP3   OH2 8525   4.902   2.771   3.866
 2840TIP3    H1 8526   4.964   2.842   3.853
 2840TIP3    H2 8527   4.888   2.734   3.779
 2841TIP3   OH2 8528   0.982   4.370   0.478
 2841TIP3    H1 8529   0.955   4.361   0.570
 2841TIP3    H2 8530   0.929   4.305   0.431
 2842TIP3   OH2 8531   3.794   4.604   3.628
 2842TIP3    H1 8532   3.753   4.590   3.543
 2842TIP3    H2 8533   3.834   4.519   3.649
 2843TIP3   OH2 8534   5.314   3.590   4.696
 2843TIP3    H1 8535   5.343   3.547   4.776
 2843TIP3    H2 8536   5.307   3.519   4.632
 2844TIP3   OH2 8537   1.881   0.494   4.547
 2844TIP3    H1 8538   1.914   0.555   4.480
 2844TIP3    H2 8539   1.795   0.468   4.515
 2845TIP3   OH2 8540   0.714   3.886   4.903
 2845TIP3    H1 8541   0.641   3.829   4.930
 2845TIP3    H2 8542   0.678   3.937   4.831
 2846TIP3   OH2 8543   5.844   0.079   2.960
 2846TIP3    H1 8544   5.748   0.074   2.957
 2846TIP3    H2 8545   5.871   0.081   2.868
 2847TIP3   OH2 8546   1.862   2.978   3.802
 2847TIP3    H1 8547   1.793   2.985   3.868
 2847TIP3    H2 8548   1.857   3.060   3.754
 2848TIP3   OH2 8549   4.702   0.348   2.431
 2848TIP3    H1 8550   4.757   0.328   2.356
 2848TIP3    H2 8551   4.729   0.285   2.498
 2849TIP3   OH2 8552   6.218   0.821   2.843
 2849TIP3    H1 8553   6.159   0.792   2.774
 2849TIP3    H2 8554   6.173   0.896   2.883
 2850TIP3   OH2 8555   4.647   2.436   4.224
 2850TIP3    H1 8556   4.586   2.373   4.187
 2850TIP3    H2 8557   4.656   2.503   4.156
 2851TIP3   OH2 8558   6.149   0.450   4.619
 2851TIP3    H1 8559   6.243   0.436   4.631
 2851TIP3    H2 8560   6.107   0.391   4.682
 2852TIP3   OH2 8561   4.600   2.068   3.494
 2852TIP3    H1 8562   4.535   2.074   3.424
 2852TIP3    H2 8563   4.605   1.975   3.515
 2853TIP3   OH2 8564   3.027   3.870   4.208
 2853TIP3    H1 8565   2.988   3.945   4.254
 2853TIP3    H2 8566   3.060   3.814   4.278
 2854TIP3   OH2 8567   1.708   4.407   4.432
 2854TIP3    H1 8568   1.777   4.469   4.454
 2854TIP3    H2 8569   1.705   4.406   4.337
 2855TIP3   OH2 8570   4.580   1.497   3.737
 2855TIP3    H1 8571   4.634   1.475   3.662
 2855TIP3    H2 8572   4.510   1.432   3.736
 2856TIP3   OH2 8573   6.068   1.228   4.843
 2856TIP3    H1 8574   6.096   1.314   4.814
 2856TIP3    H2 8575   6.144   1.190   4.886
 2857TIP3   OH2 8576   4.565   0.685   1.543
 2857TIP3    H1 8577   4.619   0.726   1.609
 2857TIP3    H2 8578   4.510   0.755   1.509
 2858TIP3   OH2 8579   4.373   5.520   2.125
 2858TIP3    H1 8580   4.287   5.519   2.166
 2858TIP3    H2 8581   4.403   5.429   2.131
 2859TIP3   OH2 8582   1.696   4.508   5.008
 2859TIP3    H1 8583   1.669   4.417   5.021
 2859TIP3    H2 8584   1.622   4.548   4.963
 2860TIP3   OH2 8585   0.262   1.866   2.755
 2860TIP3    H1 8586   0.283   1.959   2.765
 2860TIP3    H2 8587   0.327   1.833   2.693
 2861TIP3   OH2 8588   3.857   4.436   0.852
 2861TIP3    H1 8589   3.916   4.502   0.888
 2861TIP3    H2 8590   3.864   4.447   0.757
 2862TIP3   OH2 8591   0.969   5.343   0.797
 2862TIP3    H1 8592   1.025   5.413   0.764
 2862TIP3    H2 8593   0.902   5.330   0.730
 2863TIP3   OH2 8594   2.900   4.011   0.010
 2863TIP3    H1 8595   2.948   4.093   0.020
 2863TIP3    H2 8596   2.962   3.943   0.036
 2864TIP3   OH2 8597   1.370   5.654   1.306
 2864TIP3    H1 8598   1.417   5.582   1.347
 2864TIP3    H2 8599   1.287   5.616   1.277
 2865TIP3   OH2 8600   2.952   2.701   3.868
 2865TIP3    H1 8601   2.973   2.678   3.958
 2865TIP3    H2 8602   3.036   2.729   3.830
 2866TIP3   OH2 8603   3.973   5.142   1.069
 2866TIP3    H1 8604   4.027   5.079   1.021
 2866TIP3    H2 8605   3.896   5.155   1.014
 2867TIP3   OH2 8606   2.697   5.281   1.452
 2867TIP3    H1 8607   2.659   5.297   1.365
 2867TIP3    H2 8608   2.676   5.189   1.470
 2868TIP3   OH2 8609   4.463   5.800   3.155
 2868TIP3    H1 8610   4.524   5.742   3.110
 2868TIP3    H2 8611   4.394   5.742   3.187
 2869TIP3   OH2 8612   1.830   1.813   0.312
 2869TIP3    H1 8613   1.789   1.861   0.240
 2869TIP3    H2 8614   1.918   1.851   0.319
 2870TIP3   OH2 8615   4.494   4.239   1.912
 2870TIP3    H1 8616   4.454   4.195   1.986
 2870TIP3    H2 8617   4.475   4.332   1.926
 2871TIP3   OH2 8618   0.105   3.500   4.490
 2871TIP3    H1 8619   0.056   3.514   4.409
 2871TIP3    H2 8620   0.054   3.546   4.557
 2872TIP3   OH2 8621   4.889   4.154   3.783
 2872TIP3    H1 8622   4.880   4.064   3.751
 2872TIP3    H2 8623   4.965   4.150   3.842
 2873TIP3   OH2 8624   3.191   4.477   4.597
 2873TIP3    H1 8625   3.160   4.564   4.622
 2873TIP3    H2 8626   3.264   4.459   4.657
 2874TIP3   OH2 8627   4.217   0.068   0.189
 2874TIP3    H1 8628   4.177  -0.015   0.216
 2874TIP3    H2 8629   4.159   0.135   0.225
 2875TIP3   OH2 8630   6.201   3.706   2.891
 2875TIP3    H1 8631   6.145   3.641   2.849
 2875TIP3    H2 8632   6.142   3.779   2.910
 2876TIP3   OH2 8633   2.043   1.072   0.574
 2876TIP3    H1 8634   2.096   1.004   0.616
 2876TIP3    H2 8635   2.061   1.151   0.624
 2877TIP3   OH2 8636   5.241   0.712   2.101
 2877TIP3    H1 8637   5.282   0.795   2.074
 2877TIP3    H2 8638   5.196   0.732   2.183
 2878TIP3   OH2 8639   6.108   2.554   3.328
 2878TIP3    H1 8640   6.050   2.519   3.260
 2878TIP3    H2 8641   6.130   2.642   3.297
 2879TIP3   OH2 8642   2.237   4.780   4.884
 2879TIP3    H1 8643   2.300   4.711   4.865
 2879TIP3    H2 8644   2.173   4.774   4.813
 2880TIP3   OH2 8645   5.094   3.634   1.160
 2880TIP3    H1 8646   5.045   3.567   1.208
 2880TIP3    H2 8647   5.132   3.587   1.086
 2881TIP3   OH2 8648   1.459   2.069   4.097
 2881TIP3    H1 8649   1.513   2.000   4.135
 2881TIP3    H2 8650   1.407   2.102   4.170
 2882TIP3   OH2 8651   1.814   4.309   3.563
 2882TIP3    H1 8652   1.902   4.289   3.593
 2882TIP3    H2 8653   1.781   4.373   3.626
 2883TIP3   OH2 8654   4.216   2.732   3.228
 2883TIP3    H1 8655   4.213   2.754   3.321
 2883TIP3    H2 8656   4.282   2.790   3.192
 2884TIP3   OH2 8657   1.419   2.509   2.382
 2884TIP3    H1 8658   1.446   2.417   2.385
 2884TIP3    H2 8659   1.446   2.545   2.466
 2885TIP3   OH2 8660   4.299   2.439   1.441
 2885TIP3    H1 8661   4.315   2.528   1.471
 2885TIP3    H2 8662   4.382   2.410   1.403
 2886TIP3   OH2 8663   0.158   2.221   1.863
 2886TIP3    H1 8664   0.118   2.217   1.776
 2886TIP3    H2 8665   0.193   2.133   1.878
 2887TIP3   OH2 8666   1.673   4.151   0.666
 2887TIP3    H1 8667   1.684   4.133   0.572
 2887TIP3    H2 8668   1.721   4.080   0.709
 2888TIP3   OH2 8669   2.617   0.787   2.031
 2888TIP3    H1 8670   2.676   0.713   2.015
 2888TIP3    H2 8671   2.534   0.746   2.055
 2889TIP3   OH2 8672   5.575   2.066   4.172
 2889TIP3    H1 8673   5.529   2.091   4.092
 2889TIP3    H2 8674   5.645   2.007   4.142
 2890TIP3   OH2 8675   2.806   5.067   1.188
 2890TIP3    H1 8676   2.755   4.987   1.198
 2890TIP3    H2 8677   2.742   5.138   1.196
 2891TIP3   OH2 8678   5.014   2.215   2.686
 2891TIP3    H1 8679   4.998   2.164   2.765
 2891TIP3    H2 8680   4.971   2.166   2.616
 2892TIP3   OH2 8681   3.866   4.388   3.307
 2892TIP3    H1 8682   3.874   4.364   3.399
 2892TIP3    H2 8683   3.821   4.313   3.266
 2893TIP3   OH2 8684   3.894   4.660   2.286
 2893TIP3    H1 8685   3.833   4.624   2.222
 2893TIP3    H2 8686   3.949   4.585   2.311
 2894TIP3   OH2 8687   0.380   4.034   2.027
 2894TIP3    H1 8688   0.431   4.062   2.103
 2894TIP3    H2 8689   0.396   3.939   2.022
 2895TIP3   OH2 8690   5.490   0.634   3.852
 2895TIP3    H1 8691   5.426   0.577   3.811
 2895TIP3    H2 8692   5.509   0.701   3.786
 2896TIP3   OH2 8693   0.697   5.297   4.529
 2896TIP3    H1 8694   0.723   5.213   4.566
 2896TIP3    H2 8695   0.725   5.293   4.438
 2897TIP3   OH2 8696   2.475   1.673   1.965
 2897TIP3    H1 8697   2.566   1.645   1.960
 2897TIP3    H2 8698   2.447   1.648   2.053
 2898TIP3   OH2 8699   4.758   0.331   1.547
 2898TIP3    H1 8700   4.819   0.388   1.595
 2898TIP3    H2 8701   4.715   0.390   1.485
 2899TIP3   OH2 8702   0.285   3.211   0.452
 2899TIP3    H1 8703   0.289   3.248   0.540
 2899TIP3    H2 8704   0.235   3.275   0.401
 2900TIP3   OH2 8705   5.441   2.146   0.148
 2900TIP3    H1 8706   5.350   2.170   0.129
 2900TIP3    H2 8707   5.458   2.180   0.236
 2901TIP3   OH2 8708   4.695   0.035   2.618
 2901TIP3    H1 8709   4.692  -0.042   2.675
 2901TIP3    H2 8710   4.631   0.016   2.549
 2902TIP3   OH2 8711   4.818   2.028   2.367
 2902TIP3    H1 8712   4.776   2.096   2.420
 2902TIP3    H2 8713   4.849   2.075   2.289
 2903TIP3   OH2 8714   1.865   0.302   4.250
 2903TIP3    H1 8715   1.824   0.349   4.177
 2903TIP3    H2 8716   1.821   0.337   4.328
 2904TIP3   OH2 8717   5.932   2.645   1.774
 2904TIP3    H1 8718   5.893   2.558   1.765
 2904TIP3    H2 8719   6.012   2.630   1.825
 2905TIP3   OH2 8720   1.319   3.815   1.817
 2905TIP3    H1 8721   1.368   3.881   1.767
 2905TIP3    H2 8722   1.376   3.738   1.818
 2906TIP3   OH2 8723   5.177   0.848   2.992
 2906TIP3    H1 8724   5.222   0.873   2.912
 2906TIP3    H2 8725   5.244   0.810   3.048
 2907TIP3   OH2 8726   3.589   3.526   2.905
 2907TIP3    H1 8727   3.530   3.596   2.930
 2907TIP3    H2 8728   3.538   3.446   2.914
 2908TIP3   OH2 8729   0.048   2.050   2.833
 2908TIP3    H1 8730   0.106   1.977   2.854
 2908TIP3    H2 8731   0.103   2.111   2.784
 2909TIP3   OH2 8732   3.162   1.208   2.100
 2909TIP3    H1 8733   3.161   1.304   2.091
 2909TIP3    H2 8734   3.076   1.180   2.069
 2910TIP3   OH2 8735   2.792   4.068   1.545
 2910TIP3    H1 8736   2.885   4.084   1.562
 2910TIP3    H2 8737   2.790   3.982   1.502
 2911TIP3   OH2 8738   5.346   3.348   0.751
 2911TIP3    H1 8739   5.380   3.430   0.716
 2911TIP3    H2 8740   5.357   3.285   0.680
 2912TIP3   OH2 8741   5.937   3.943   3.227
 2912TIP3    H1 8742   5.884   3.958   3.306
 2912TIP3    H2 8743   5.879   3.896   3.168
 2913TIP3   OH2 8744   0.266   1.829   0.976
 2913TIP3    H1 8745   0.232   1.884   0.905
 2913TIP3    H2 8746   0.352   1.867   0.996
 2914TIP3   OH2 8747   2.366   5.318   5.164
 2914TIP3    H1 8748   2.346   5.388   5.102
 2914TIP3    H2 8749   2.445   5.277   5.128
 2915TIP3   OH2 8750   5.510   5.188   2.707
 2915TIP3    H1 8751   5.468   5.193   2.793
 2915TIP3    H2 8752   5.458   5.124   2.659
 2916TIP3   OH2 8753   5.366   5.656   1.983
 2916TIP3    H1 8754   5.412   5.622   2.061
 2916TIP3    H2 8755   5.291   5.598   1.973
 2917TIP3   OH2 8756   1.787   5.057   1.958
 2917TIP3    H1 8757   1.861   5.116   1.939
 2917TIP3    H2 8758   1.826   4.970   1.958
 2918TIP3   OH2 8759   0.313   4.653   0.208
 2918TIP3    H1 8760   0.261   4.690   0.136
 2918TIP3    H2 8761   0.253   4.591   0.251
 2919TIP3   OH2 8762   3.662   2.830   4.337
 2919TIP3    H1 8763   3.705   2.803   4.419
 2919TIP3    H2 8764   3.657   2.750   4.285
 2920TIP3   OH2 8765   3.187   4.917   5.161
 2920TIP3    H1 8766   3.107   4.913   5.213
 2920TIP3    H2 8767   3.161   4.887   5.074
 2921TIP3   OH2 8768   1.256   3.887   0.572
 2921TIP3    H1 8769   1.317   3.838   0.518
 2921TIP3    H2 8770   1.305   3.964   0.600
 2922TIP3   OH2 8771   6.205   4.977   2.272
 2922TIP3    H1 8772   6.170   4.893   2.243
 2922TIP3    H2 8773   6.286   4.988   2.222
 2923TIP3   OH2 8774   0.948   5.120   3.200
 2923TIP3    H1 8775   0.985   5.034   3.184
 2923TIP3    H2 8776   0.869   5.103   3.251
 2924TIP3   OH2 8777   5.647   3.087   4.110
 2924TIP3    H1 8778   5.564   3.088   4.063
 2924TIP3    H2 8779   5.687   3.003   4.086
 2925TIP3   OH2 8780   2.205   2.600   3.435
 2925TIP3    H1 8781   2.157   2.545   3.373
 2925TIP3    H2 8782   2.177   2.568   3.521
 2926TIP3   OH2 8783   1.767   5.831   3.048
 2926TIP3    H1 8784   1.796   5.870   2.965
 2926TIP3    H2 8785   1.832   5.861   3.112
 2927TIP3   OH2 8786   6.322   0.951   0.561
 2927TIP3    H1 8787   6.280   0.962   0.476
 2927TIP3    H2 8788   6.281   0.874   0.599
 2928TIP3   OH2 8789   0.809   5.000   0.480
 2928TIP3    H1 8790   0.850   4.940   0.543
 2928TIP3    H2 8791   0.859   4.987   0.400
 2929TIP3   OH2 8792   6.177   0.945   4.550
 2929TIP3    H1 8793   6.143   0.874   4.605
 2929TIP3    H2 8794   6.106   1.008   4.545
 2930TIP3   OH2 8795   4.948   4.831   3.049
 2930TIP3    H1 8796   4.862   4.873   3.044
 2930TIP3    H2 8797   4.951   4.793   3.136
 2931TIP3   OH2 8798   6.194   0.899   5.002
 2931TIP3    H1 8799   6.275   0.865   5.039
 2931TIP3    H2 8800   6.221   0.970   4.944
 2932TIP3   OH2 8801   3.221   4.530   2.136
 2932TIP3    H1 8802   3.130   4.559   2.133
 2932TIP3    H2 8803   3.270   4.607   2.165
 2933TIP3   OH2 8804   3.643   5.312   0.205
 2933TIP3    H1 8805   3.563   5.363   0.194
 2933TIP3    H2 8806   3.615   5.234   0.253
 2934TIP3   OH2 8807   1.771   2.523   1.089
 2934TIP3    H1 8808   1.797   2.612   1.110
 2934TIP3    H2 8809   1.712   2.532   1.013
 2935TIP3   OH2 8810   5.485   3.574   0.233
 2935TIP3    H1 8811   5.407   3.583   0.289
 2935TIP3    H2 8812   5.520   3.663   0.227
 2936TIP3   OH2 8813   5.055   4.362   2.154
 2936TIP3    H1 8814   5.009   4.278   2.152
 2936TIP3    H2 8815   5.102   4.366   2.070
 2937TIP3   OH2 8816   2.979   1.907   0.272
 2937TIP3    H1 8817   2.898   1.912   0.323
 2937TIP3    H2 8818   3.019   1.824   0.297
 2938TIP3   OH2 8819   1.828   5.641   4.491
 2938TIP3    H1 8820   1.867   5.703   4.553
 2938TIP3    H2 8821   1.903   5.601   4.448
 2939TIP3   OH2 8822   3.112   1.117   3.524
 2939TIP3    H1 8823   3.203   1.144   3.536
 2939TIP3    H2 8824   3.073   1.186   3.472
 2940TIP3   OH2 8825   6.061   1.638   0.892
 2940TIP3    H1 8826   6.108   1.718   0.870
 2940TIP3    H2 8827   6.127   1.580   0.929
 2941TIP3   OH2 8828   5.373   2.581   0.875
 2941TIP3    H1 8829   5.347   2.597   0.784
 2941TIP3    H2 8830   5.298   2.536   0.914
 2942TIP3   OH2 8831   2.138   0.799   2.826
 2942TIP3    H1 8832   2.170   0.737   2.761
 2942TIP3    H2 8833   2.047   0.773   2.842
 2943TIP3   OH2 8834   0.984   2.635   3.143
 2943TIP3    H1 8835   1.040   2.560   3.124
 2943TIP3    H2 8836   0.907   2.597   3.187
 2944TIP3   OH2 8837   5.494   4.700   2.976
 2944TIP3    H1 8838   5.508   4.617   2.930
 2944TIP3    H2 8839   5.418   4.739   2.933
 2945TIP3   OH2 8840   4.369   0.528   4.692
 2945TIP3    H1 8841   4.430   0.476   4.640
 2945TIP3    H2 8842   4.292   0.537   4.636
 2946TIP3   OH2 8843   0.317   4.694   4.605
 2946TIP3    H1 8844   0.407   4.668   4.587
 2946TIP3    H2 8845   0.264   4.627   4.562
 2947TIP3   OH2 8846   3.656   2.084   1.412
 2947TIP3    H1 8847   3.631   2.007   1.360
 2947TIP3    H2 8848   3.573   2.121   1.442
 2948TIP3   OH2 8849   1.285   1.630   4.757
 2948TIP3    H1 8850   1.201   1.652   4.798
 2948TIP3    H2 8851   1.295   1.696   4.688
 2949TIP3   OH2 8852   2.536   2.422   4.457
 2949TIP3    H1 8853   2.523   2.335   4.419
 2949TIP3    H2 8854   2.503   2.483   4.391
 2950TIP3   OH2 8855   6.311   5.616   1.571
 2950TIP3    H1 8856   6.257   5.644   1.646
 2950TIP3    H2 8857   6.269   5.658   1.496
 2951TIP3   OH2 8858   2.594   5.707   5.128
 2951TIP3    H1 8859   2.509   5.685   5.089
 2951TIP3    H2 8860   2.644   5.743   5.055
 2952TIP3   OH2 8861   6.208   3.215   4.473
 2952TIP3    H1 8862   6.220   3.139   4.531
 2952TIP3    H2 8863   6.175   3.284   4.530
 2953TIP3   OH2 8864   3.803   3.890   4.731
 2953TIP3    H1 8865   3.847   3.955   4.677
 2953TIP3    H2 8866   3.761   3.940   4.800
 2954TIP3   OH2 8867   0.955   3.411   3.041
 2954TIP3    H1 8868   0.993   3.438   2.957
 2954TIP3    H2 8869   0.962   3.316   3.041
 2955TIP3   OH2 8870   2.404   3.099   4.225
 2955TIP3    H1 8871   2.428   3.191   4.230
 2955TIP3    H2 8872   2.446   3.059   4.302
 2956TIP3   OH2 8873   1.172   1.160   4.119
 2956TIP3    H1 8874   1.234   1.087   4.109
 2956TIP3    H2 8875   1.130   1.168   4.034
 2957TIP3   OH2 8876   5.122   4.511   1.511
 2957TIP3    H1 8877   5.107   4.499   1.418
 2957TIP3    H2 8878   5.195   4.572   1.516
 2958TIP3   OH2 8879   3.233   1.821   4.400
 2958TIP3    H1 8880   3.266   1.857   4.483
 2958TIP3    H2 8881   3.182   1.892   4.362
 2959TIP3   OH2 8882   3.441   5.626   2.233
 2959TIP3    H1 8883   3.460   5.598   2.143
 2959TIP3    H2 8884   3.401   5.712   2.224
 2960TIP3   OH2 8885   3.422   3.111   1.497
 2960TIP3    H1 8886   3.508   3.094   1.534
 2960TIP3    H2 8887   3.377   3.165   1.562
 2961TIP3   OH2 8888   2.656   3.604   1.527
 2961TIP3    H1 8889   2.642   3.549   1.450
 2961TIP3    H2 8890   2.691   3.544   1.593
 2962TIP3   OH2 8891   5.897   0.917   1.896
 2962TIP3    H1 8892   5.810   0.878   1.896
 2962TIP3    H2 8893   5.941   0.878   1.821
 2963TIP3   OH2 8894   2.774   3.697   0.585
 2963TIP3    H1 8895   2.774   3.603   0.568
 2963TIP3    H2 8896   2.738   3.736   0.505
 2964TIP3   OH2 8897   1.080   2.970   4.377
 2964TIP3    H1 8898   0.985   2.980   4.372
 2964TIP3    H2 8899   1.101   2.993   4.468
 2965TIP3   OH2 8900   4.602   0.191   2.995
 2965TIP3    H1 8901   4.575   0.279   2.970
 2965TIP3    H2 8902   4.692   0.184   2.965
 2966TIP3   OH2 8903   5.227   4.683   3.319
 2966TIP3    H1 8904   5.135   4.688   3.345
 2966TIP3    H2 8905   5.236   4.747   3.248
 2967TIP3   OH2 8906   3.129   1.658   2.367
 2967TIP3    H1 8907   3.074   1.642   2.290
 2967TIP3    H2 8908   3.218   1.656   2.332
 2968TIP3   OH2 8909   4.918   2.615   4.090
 2968TIP3    H1 8910   4.937   2.666   4.011
 2968TIP3    H2 8911   4.863   2.672   4.143
 2969TIP3   OH2 8912   5.521   4.041   2.951
 2969TIP3    H1 8913   5.470   4.114   2.985
 2969TIP3    H2 8914   5.596   4.082   2.908
 2970TIP3   OH2 8915   2.315   1.224   2.335
 2970TIP3    H1 8916   2.234   1.228   2.284
 2970TIP3    H2 8917   2.293   1.265   2.419
 2971TIP3   OH2 8918   4.757   2.754   3.618
 2971TIP3    H1 8919   4.721   2.735   3.532
 2971TIP3    H2 8920   4.735   2.846   3.633
 2972TIP3   OH2 8921   0.839   4.165   3.937
 2972TIP3    H1 8922   0.850   4.136   4.028
 2972TIP3    H2 8923   0.909   4.229   3.924
 2973TIP3   OH2 8924   3.625   4.869   4.441
 2973TIP3    H1 8925   3.558   4.801   4.452
 2973TIP3    H2 8926   3.576   4.947   4.416
 2974TIP3   OH2 8927   3.350   0.966   1.305
 2974TIP3    H1 8928   3.334   1.050   1.348
 2974TIP3    H2 8929   3.304   0.972   1.222
 2975TIP3   OH2 8930   2.183   4.999   1.070
 2975TIP3    H1 8931   2.100   4.976   1.029
 2975TIP3    H2 8932   2.158   5.045   1.150
 2976TIP3   OH2 8933   2.478   2.165   2.334
 2976TIP3    H1 8934   2.504   2.118   2.255
 2976TIP3    H2 8935   2.539   2.238   2.340
 2977TIP3   OH2 8936   1.749   3.567   3.322
 2977TIP3    H1 8937   1.776   3.653   3.289
 2977TIP3    H2 8938   1.664   3.583   3.362
 2978TIP3   OH2 8939   0.252   0.326   3.521
 2978TIP3    H1 8940   0.312   0.330   3.447
 2978TIP3    H2 8941   0.169   0.295   3.483
 2979TIP3   OH2 8942   6.340   0.720   0.349
 2979TIP3    H1 8943   6.297   0.657   0.291
 2979TIP3    H2 8944   6.284   0.798   0.344
 2980TIP3   OH2 8945   3.708   2.887   3.823
 2980TIP3    H1 8946   3.800   2.911   3.809
 2980TIP3    H2 8947   3.658   2.961   3.790
 2981TIP3   OH2 8948   5.295   4.238   0.535
 2981TIP3    H1 8949   5.250   4.163   0.574
 2981TIP3    H2 8950   5.383   4.236   0.573
 2982TIP3   OH2 8951   5.482   1.982   0.792
 2982TIP3    H1 8952   5.523   1.946   0.713
 2982TIP3    H2 8953   5.551   1.981   0.858
 2983TIP3   OH2 8954   5.321   1.917   1.675
 2983TIP3    H1 8955   5.299   1.958   1.759
 2983TIP3    H2 8956   5.362   1.987   1.624
 2984TIP3   OH2 8957   0.695   1.436   2.527
 2984TIP3    H1 8958   0.705   1.531   2.539
 2984TIP3    H2 8959   0.775   1.409   2.481
 2985TIP3   OH2 8960   2.311   3.936   0.967
 2985TIP3    H1 8961   2.319   4.023   1.006
 2985TIP3    H2 8962   2.344   3.876   1.034
 2986TIP3   OH2 8963   2.515   1.453   4.662
 2986TIP3    H1 8964   2.489   1.407   4.742
 2986TIP3    H2 8965   2.439   1.507   4.640
 2987TIP3   OH2 8966   2.067   5.421   0.585
 2987TIP3    H1 8967   1.992   5.369   0.612
 2987TIP3    H2 8968   2.072   5.492   0.649
 2988TIP3   OH2 8969   1.974   0.277   0.692
 2988TIP3    H1 8970   1.879   0.289   0.694
 2988TIP3    H2 8971   1.996   0.243   0.779
 2989TIP3   OH2 8972   2.811   2.948   4.542
 2989TIP3    H1 8973   2.802   2.979   4.452
 2989TIP3    H2 8974   2.834   2.855   4.533
 2990TIP3   OH2 8975   2.683   0.692   4.675
 2990TIP3    H1 8976   2.597   0.708   4.635
 2990TIP3    H2 8977   2.737   0.662   4.602
 2991TIP3   OH2 8978  -0.016   5.553   0.282
 2991TIP3    H1 8979   0.079   5.546   0.284
 2991TIP3    H2 8980  -0.034   5.605   0.203
 2992TIP3   OH2 8981   6.253   0.217   5.169
 2992TIP3    H1 8982   6.347   0.231   5.161
 2992TIP3    H2 8983   6.242   0.122   5.161
 2993TIP3   OH2 8984   3.118   3.830   3.602
 2993TIP3    H1 8985   3.027   3.836   3.572
 2993TIP3    H2 8986   3.153   3.918   3.593
 2994TIP3   OH2 8987   5.602   1.992   2.052
 2994TIP3    H1 8988   5.605   1.916   1.994
 2994TIP3    H2 8989   5.679   2.043   2.028
 2995TIP3   OH2 8990   5.410   5.699   3.556
 2995TIP3    H1 8991   5.460   5.715   3.476
 2995TIP3    H2 8992   5.345   5.633   3.531
 2996TIP3   OH2 8993   6.023   0.876   0.077
 2996TIP3    H1 8994   6.097   0.908   0.128
 2996TIP3    H2 8995   5.981   0.811   0.133
 2997TIP3   OH2 8996   3.553   2.428   3.001
 2997TIP3    H1 8997   3.515   2.346   3.034
 2997TIP3    H2 8998   3.481   2.492   3.007
 2998TIP3   OH2 8999   3.444   4.113   2.371
 2998TIP3    H1 9000   3.375   4.178   2.386
 2998TIP3    H2 9001   3.510   4.131   2.439
 2999TIP3   OH2 9002   0.627   2.183   3.102
 2999TIP3    H1 9003   0.651   2.097   3.137
 2999TIP3    H2 9004   0.642   2.244   3.174
 3000TIP3   OH2 9005   0.245   0.905   3.549
 3000TIP3    H1 9006   0.334   0.918   3.516
 3000TIP3    H2 9007   0.254   0.837   3.616
 3001TIP3   OH2 9008   6.073   2.487   2.740
 3001TIP3    H1 9009   5.998   2.528   2.784
 3001TIP3    H2 9010   6.111   2.557   2.687
 3002TIP3   OH2 9011   6.220   1.825   0.771
 3002TIP3    H1 9012   6.277   1.853   0.843
 3002TIP3    H2 9013   6.201   1.906   0.723
 3003TIP3   OH2 9014   1.810   4.922   4.292
 3003TIP3    H1 9015   1.803   5.010   4.256
 3003TIP3    H2 9016   1.890   4.924   4.345
 3004TIP3   OH2 9017   5.060   5.457   4.527
 3004TIP3    H1 9018   5.031   5.549   4.524
 3004TIP3    H2 9019   5.055   5.433   4.619
 3005TIP3   OH2 9020   3.699   2.268   0.497
 3005TIP3    H1 9021   3.703   2.364   0.493
 3005TIP3    H2 9022   3.783   2.242   0.535
 3006TIP3   OH2 9023   1.407   0.508   4.310
 3006TIP3    H1 9024   1.381   0.434   4.255
 3006TIP3    H2 9025   1.429   0.577   4.248
 3007TIP3   OH2 9026   5.187   5.301   5.010
 3007TIP3    H1 9027   5.252   5.238   4.982
 3007TIP3    H2 9028   5.237   5.372   5.050
 3008TIP3   OH2 9029   3.697   3.355   4.388
 3008TIP3    H1 9030   3.614   3.368   4.434
 3008TIP3    H2 9031   3.721   3.264   4.406
 3009TIP3   OH2 9032   5.037   0.256   1.662
 3009TIP3    H1 9033   5.085   0.264   1.580
 3009TIP3    H2 9034   5.011   0.346   1.684
 3010TIP3   OH2 9035   3.811   0.083   3.489
 3010TIP3    H1 9036   3.779   0.060   3.576
 3010TIP3    H2 9037   3.737   0.127   3.447
 3011TIP3   OH2 9038   5.703   3.572   1.613
 3011TIP3    H1 9039   5.661   3.489   1.634
 3011TIP3    H2 9040   5.643   3.615   1.552
 3012TIP3   OH2 9041   2.191   1.407   1.239
 3012TIP3    H1 9042   2.238   1.412   1.155
 3012TIP3    H2 9043   2.208   1.492   1.280
 3013TIP3   OH2 9044   2.965   2.038   1.794
 3013TIP3    H1 9045   2.965   2.054   1.699
 3013TIP3    H2 9046   2.883   2.077   1.824
 3014TIP3   OH2 9047   0.635   5.753   0.402
 3014TIP3    H1 9048   0.606   5.838   0.437
 3014TIP3    H2 9049   0.672   5.775   0.316
 3015TIP3   OH2 9050   1.887   4.506   4.196
 3015TIP3    H1 9051   1.973   4.546   4.193
 3015TIP3    H2 9052   1.893   4.430   4.139
 3016TIP3   OH2 9053   5.760   1.929   4.028
 3016TIP3    H1 9054   5.850   1.914   4.054
 3016TIP3    H2 9055   5.740   1.858   3.966
 3017TIP3   OH2 9056   4.073   1.986   0.338
 3017TIP3    H1 9057   4.002   1.970   0.276
 3017TIP3    H2 9058   4.146   2.018   0.284
 3018TIP3   OH2 9059   0.306   0.059   3.248
 3018TIP3    H1 9060   0.220   0.079   3.284
 3018TIP3    H2 9061   0.296  -0.029   3.211
 3019TIP3   OH2 9062   0.713   4.994   3.922
 3019TIP3    H1 9063   0.745   4.958   4.004
 3019TIP3    H2 9064   0.694   4.917   3.868
 3020TIP3   OH2 9065   4.767   0.946   2.892
 3020TIP3    H1 9066   4.804   0.882   2.831
 3020TIP3    H2 9067   4.799   1.030   2.860
 3021TIP3   OH2 9068   1.058   0.340   1.489
 3021TIP3    H1 9069   1.132   0.289   1.455
 3021TIP3    H2 9070   0.981   0.290   1.462
 3022TIP3   OH2 9071   3.405   1.527   3.212
 3022TIP3    H1 9072   3.357   1.605   3.185
 3022TIP3    H2 9073   3.367   1.502   3.295
 3023TIP3   OH2 9074   1.822   5.131   4.624
 3023TIP3    H1 9075   1.768   5.208   4.606
 3023TIP3    H2 9076   1.896   5.140   4.564
 3024TIP3   OH2 9077   4.814   2.724   2.452
 3024TIP3    H1 9078   4.738   2.757   2.499
 3024TIP3    H2 9079   4.841   2.798   2.397
 3025TIP3   OH2 9080   4.651   1.496   1.394
 3025TIP3    H1 9081   4.571   1.486   1.342
 3025TIP3    H2 9082   4.719   1.457   1.341
 3026TIP3   OH2 9083   3.142   3.818   1.659
 3026TIP3    H1 9084   3.084   3.894   1.668
 3026TIP3    H2 9085   3.152   3.785   1.748
 3027TIP3   OH2 9086   0.125   3.936   2.873
 3027TIP3    H1 9087   0.180   3.934   2.951
 3027TIP3    H2 9088   0.173   3.991   2.811
 3028TIP3   OH2 9089   1.994   0.532   3.644
 3028TIP3    H1 9090   2.064   0.482   3.686
 3028TIP3    H2 9091   1.943   0.467   3.596
 3029TIP3   OH2 9092   4.340   4.106   3.430
 3029TIP3    H1 9093   4.367   4.173   3.492
 3029TIP3    H2 9094   4.404   4.036   3.441
 3030TIP3   OH2 9095   1.603   3.676   3.007
 3030TIP3    H1 9096   1.633   3.766   2.995
 3030TIP3    H2 9097   1.508   3.683   3.012
 3031TIP3   OH2 9098   1.837   1.164   3.511
 3031TIP3    H1 9099   1.905   1.098   3.519
 3031TIP3    H2 9100   1.757   1.120   3.540
 3032TIP3   OH2 9101   4.896   2.503   1.395
 3032TIP3    H1 9102   4.862   2.440   1.331
 3032TIP3    H2 9103   4.894   2.587   1.351
 3033TIP3   OH2 9104   2.990   0.469   0.636
 3033TIP3    H1 9105   3.075   0.475   0.679
 3033TIP3    H2 9106   2.927   0.469   0.709
 3034TIP3   OH2 9107   2.007   2.863   0.179
 3034TIP3    H1 9108   2.003   2.897   0.090
 3034TIP3    H2 9109   2.035   2.937   0.232
 3035TIP3   OH2 9110   1.179   0.845   1.432
 3035TIP3    H1 9111   1.249   0.897   1.473
 3035TIP3    H2 9112   1.098   0.886   1.463
 3036TIP3   OH2 9113   6.046   1.518   3.625
 3036TIP3    H1 9114   6.054   1.567   3.707
 3036TIP3    H2 9115   5.956   1.535   3.596
 3037TIP3   OH2 9116   6.335   4.647   4.223
 3037TIP3    H1 9117   6.266   4.646   4.290
 3037TIP3    H2 9118   6.331   4.560   4.183
 3038TIP3   OH2 9119   4.809   0.825   0.674
 3038TIP3    H1 9120   4.739   0.884   0.646
 3038TIP3    H2 9121   4.875   0.831   0.605
 3039TIP3   OH2 9122   3.977   3.853   1.223
 3039TIP3    H1 9123   3.988   3.765   1.258
 3039TIP3    H2 9124   4.062   3.895   1.234
 3040TIP3   OH2 9125   3.507   0.464   1.146
 3040TIP3    H1 9126   3.444   0.397   1.174
 3040TIP3    H2 9127   3.533   0.436   1.058
 3041TIP3   OH2 9128   2.203   3.951   2.989
 3041TIP3    H1 9129   2.145   3.939   2.914
 3041TIP3    H2 9130   2.164   3.898   3.058
 3042TIP3   OH2 9131   5.150   1.587   5.091
 3042TIP3    H1 9132   5.226   1.529   5.101
 3042TIP3    H2 9133   5.114   1.596   5.179
 3043TIP3   OH2 9134   5.485   1.868   2.857
 3043TIP3    H1 9135   5.420   1.894   2.791
 3043TIP3    H2 9136   5.509   1.779   2.834
 3044TIP3   OH2 9137   6.094   2.762   0.642
 3044TIP3    H1 9138   6.036   2.799   0.575
 3044TIP3    H2 9139   6.094   2.668   0.624
 3045TIP3   OH2 9140   0.283   3.182   3.007
 3045TIP3    H1 9141   0.278   3.253   3.070
 3045TIP3    H2 9142   0.352   3.208   2.946
 3046TIP3   OH2 9143   2.432   3.562   0.633
 3046TIP3    H1 9144   2.401   3.643   0.673
 3046TIP3    H2 9145   2.355   3.506   0.629
 3047TIP3   OH2 9146   4.409   2.599   3.030
 3047TIP3    H1 9147   4.499   2.592   2.996
 3047TIP3    H2 9148   4.357   2.544   2.971
 3048TIP3   OH2 9149   0.304   4.165   1.800
 3048TIP3    H1 9150   0.343   4.139   1.883
 3048TIP3    H2 9151   0.277   4.256   1.814
 3049TIP3   OH2 9152   2.058   1.073   0.899
 3049TIP3    H1 9153   2.106   1.141   0.852
 3049TIP3    H2 9154   2.029   1.116   0.980
 3050TIP3   OH2 9155   1.837   0.942   0.826
 3050TIP3    H1 9156   1.835   0.875   0.895
 3050TIP3    H2 9157   1.917   0.991   0.843
 3051TIP3   OH2 9158   0.458   5.601   1.747
 3051TIP3    H1 9159   0.374   5.602   1.792
 3051TIP3    H2 9160   0.443   5.548   1.669
 3052TIP3   OH2 9161   5.919   1.474   4.504
 3052TIP3    H1 9162   5.978   1.399   4.498
 3052TIP3    H2 9163   5.907   1.502   4.413
 3053TIP3   OH2 9164   5.228   1.417   4.239
 3053TIP3    H1 9165   5.204   1.499   4.195
 3053TIP3    H2 9166   5.239   1.442   4.331
 3054TIP3   OH2 9167   1.691   2.920   2.989
 3054TIP3    H1 9168   1.676   2.944   3.081
 3054TIP3    H2 9169   1.619   2.860   2.968
 3055TIP3   OH2 9170   0.678   0.744   2.164
 3055TIP3    H1 9171   0.696   0.650   2.169
 3055TIP3    H2 9172   0.617   0.753   2.091
 3056TIP3   OH2 9173   2.623   0.210   3.363
 3056TIP3    H1 9174   2.664   0.247   3.441
 3056TIP3    H2 9175   2.581   0.285   3.320
 3057TIP3   OH2 9176   3.984   4.053   0.358
 3057TIP3    H1 9177   3.896   4.059   0.321
 3057TIP3    H2 9178   4.033   3.998   0.297
 3058TIP3   OH2 9179   4.698   5.951   2.992
 3058TIP3    H1 9180   4.710   6.000   3.074
 3058TIP3    H2 9181   4.786   5.925   2.967
 3059TIP3   OH2 9182   0.594   3.329   0.977
 3059TIP3    H1 9183   0.510   3.288   0.957
 3059TIP3    H2 9184   0.575   3.389   1.049
 3060TIP3   OH2 9185   5.511   4.094   2.283
 3060TIP3    H1 9186   5.474   4.181   2.272
 3060TIP3    H2 9187   5.585   4.092   2.223
 3061TIP3   OH2 9188   1.122   5.912   1.479
 3061TIP3    H1 9189   1.035   5.910   1.439
 3061TIP3    H2 9190   1.107   5.952   1.565
 3062TIP3   OH2 9191   4.153   3.090   1.978
 3062TIP3    H1 9192   4.183   3.144   1.904
 3062TIP3    H2 9193   4.225   3.093   2.041
 3063TIP3   OH2 9194   2.179   2.845   2.865
 3063TIP3    H1 9195   2.220   2.892   2.938
 3063TIP3    H2 9196   2.093   2.820   2.899
 3064TIP3   OH2 9197   1.780   4.155   2.467
 3064TIP3    H1 9198   1.750   4.065   2.480
 3064TIP3    H2 9199   1.751   4.201   2.546
 3065TIP3   OH2 9200   1.189   0.285   3.189
 3065TIP3    H1 9201   1.277   0.316   3.210
 3065TIP3    H2 9202   1.137   0.364   3.182
 3066TIP3   OH2 9203   5.103   0.268   5.140
 3066TIP3    H1 9204   5.122   0.358   5.113
 3066TIP3    H2 9205   5.035   0.239   5.079
 3067TIP3   OH2 9206   1.921   2.947   0.696
 3067TIP3    H1 9207   1.911   2.950   0.791
 3067TIP3    H2 9208   1.941   3.038   0.671
 3068TIP3   OH2 9209   5.808   2.559   4.616
 3068TIP3    H1 9210   5.753   2.603   4.681
 3068TIP3    H2 9211   5.840   2.481   4.661
 3069TIP3   OH2 9212   5.835   0.443   0.684
 3069TIP3    H1 9213   5.875   0.492   0.611
 3069TIP3    H2 9214   5.753   0.409   0.648
 3070TIP3   OH2 9215   0.100   1.946   3.500
 3070TIP3    H1 9216   0.098   1.851   3.488
 3070TIP3    H2 9217   0.088   1.982   3.412
 3071TIP3   OH2 9218   1.084   2.486   0.971
 3071TIP3    H1 9219   1.116   2.559   0.918
 3071TIP3    H2 9220   0.994   2.510   0.993
 3072TIP3   OH2 9221   5.689   3.284   4.326
 3072TIP3    H1 9222   5.722   3.235   4.250
 3072TIP3    H2 9223   5.765   3.329   4.361
 3073TIP3   OH2 9224   6.317   5.992   1.414
 3073TIP3    H1 9225   6.304   5.907   1.370
 3073TIP3    H2 9226   6.261   5.987   1.491
 3074TIP3   OH2 9227   4.280   0.361   2.193
 3074TIP3    H1 9228   4.322   0.390   2.274
 3074TIP3    H2 9229   4.201   0.416   2.186
 3075TIP3   OH2 9230   1.287   3.567   0.175
 3075TIP3    H1 9231   1.312   3.481   0.209
 3075TIP3    H2 9232   1.349   3.584   0.104
 3076TIP3   OH2 9233   2.531   4.042   0.360
 3076TIP3    H1 9234   2.438   4.056   0.342
 3076TIP3    H2 9235   2.574   4.058   0.275
 3077TIP3   OH2 9236   4.555   0.888   1.981
 3077TIP3    H1 9237   4.533   0.828   2.052
 3077TIP3    H2 9238   4.566   0.832   1.905
 3078TIP3   OH2 9239   5.237   3.476   2.077
 3078TIP3    H1 9240   5.267   3.419   2.007
 3078TIP3    H2 9241   5.279   3.440   2.156
 3079TIP3   OH2 9242   2.361   5.610   2.732
 3079TIP3    H1 9243   2.308   5.535   2.757
 3079TIP3    H2 9244   2.299   5.673   2.695
 3080TIP3   OH2 9245   4.915   2.713   1.230
 3080TIP3    H1 9246   4.983   2.759   1.180
 3080TIP3    H2 9247   4.844   2.702   1.168
 3081TIP3   OH2 9248   0.314   1.603   4.117
 3081TIP3    H1 9249   0.324   1.509   4.107
 3081TIP3    H2 9250   0.350   1.622   4.204
 3082TIP3   OH2 9251   4.912   1.064   4.688
 3082TIP3    H1 9252   4.925   1.059   4.783
 3082TIP3    H2 9253   4.821   1.094   4.678
 3083TIP3   OH2 9254   1.617   1.937   4.282
 3083TIP3    H1 9255   1.633   1.975   4.368
 3083TIP3    H2 9256   1.589   1.847   4.300
 3084TIP3   OH2 9257   1.213   5.366   4.859
 3084TIP3    H1 9258   1.132   5.416   4.868
 3084TIP3    H2 9259   1.242   5.351   4.949
 3085TIP3   OH2 9260   4.932   3.864   1.195
 3085TIP3    H1 9261   4.943   3.891   1.286
 3085TIP3    H2 9262   4.997   3.795   1.182
 3086TIP3   OH2 9263   5.617   0.460   1.355
 3086TIP3    H1 9264   5.661   0.521   1.414
 3086TIP3    H2 9265   5.658   0.475   1.270
 3087TIP3   OH2 9266   1.244   0.374   4.565
 3087TIP3    H1 9267   1.286   0.398   4.483
 3087TIP3    H2 9268   1.316   0.343   4.620
 3088TIP3   OH2 9269   3.603   1.668   0.808
 3088TIP3    H1 9270   3.682   1.659   0.861
 3088TIP3    H2 9271   3.612   1.753   0.765
 3089TIP3   OH2 9272   3.534   1.934   2.180
 3089TIP3    H1 9273   3.443   1.962   2.169
 3089TIP3    H2 9274   3.586   2.013   2.165
 3090TIP3   OH2 9275   1.376   5.367   1.378
 3090TIP3    H1 9276   1.409   5.278   1.366
 3090TIP3    H2 9277   1.316   5.361   1.452
 3091TIP3   OH2 9278   5.360   3.587   2.567
 3091TIP3    H1 9279   5.273   3.580   2.606
 3091TIP3    H2 9280   5.369   3.680   2.546
 3092TIP3   OH2 9281   6.021   5.971   4.466
 3092TIP3    H1 9282   6.046   5.879   4.453
 3092TIP3    H2 9283   6.069   5.998   4.544
 3093TIP3   OH2 9284   3.903   3.096   4.473
 3093TIP3    H1 9285   3.968   3.109   4.404
 3093TIP3    H2 9286   3.923   3.010   4.509
 3094TIP3   OH2 9287   5.420   3.744   0.887
 3094TIP3    H1 9288   5.326   3.734   0.900
 3094TIP3    H2 9289   5.436   3.837   0.900
 3095TIP3   OH2 9290   2.637   0.557   3.040
 3095TIP3    H1 9291   2.573   0.488   3.023
 3095TIP3    H2 9292   2.618   0.625   2.976
 3096TIP3   OH2 9293   4.150   3.783   3.267
 3096TIP3    H1 9294   4.061   3.761   3.238
 3096TIP3    H2 9295   4.147   3.771   3.362
 3097TIP3   OH2 9296   5.307   1.908   1.143
 3097TIP3    H1 9297   5.386   1.856   1.156
 3097TIP3    H2 9298   5.279   1.888   1.054
 3098TIP3   OH2 9299   0.977   0.831   4.714
 3098TIP3    H1 9300   1.019   0.810   4.631
 3098TIP3    H2 9301   0.886   0.849   4.691
 3099TIP3   OH2 9302   4.904   5.333   3.742
 3099TIP3    H1 9303   4.839   5.269   3.771
 3099TIP3    H2 9304   4.852   5.405   3.705
 3100TIP3   OH2 9305   4.398   5.066   0.533
 3100TIP3    H1 9306   4.492   5.066   0.514
 3100TIP3    H2 9307   4.373   5.159   0.527
 3101TIP3   OH2 9308   1.926   2.603   0.831
 3101TIP3    H1 9309   1.843   2.628   0.871
 3101TIP3    H2 9310   1.906   2.523   0.782
 3102TIP3   OH2 9311   3.986   2.799   2.866
 3102TIP3    H1 9312   4.074   2.780   2.900
 3102TIP3    H2 9313   3.999   2.875   2.809
 3103TIP3   OH2 9314   0.998   1.322   3.337
 3103TIP3    H1 9315   0.905   1.334   3.317
 3103TIP3    H2 9316   1.043   1.363   3.263
 3104TIP3   OH2 9317   0.333   0.226   2.874
 3104TIP3    H1 9318   0.378   0.172   2.940
 3104TIP3    H2 9319   0.283   0.289   2.924
 3105TIP3   OH2 9320   3.239   1.519   1.964
 3105TIP3    H1 9321   3.286   1.455   2.017
 3105TIP3    H2 9322   3.296   1.596   1.962
 3106TIP3   OH2 9323   2.206   1.888   1.884
 3106TIP3    H1 9324   2.297   1.918   1.883
 3106TIP3    H2 9325   2.212   1.793   1.892
 3107TIP3   OH2 9326   5.975   1.186   3.729
 3107TIP3    H1 9327   5.935   1.198   3.816
 3107TIP3    H2 9328   5.923   1.242   3.671
 3108TIP3   OH2 9329   2.777   5.510   1.863
 3108TIP3    H1 9330   2.687   5.480   1.876
 3108TIP3    H2 9331   2.776   5.555   1.779
 3109TIP3   OH2 9332   5.915   3.605   1.811
 3109TIP3    H1 9333   5.988   3.546   1.792
 3109TIP3    H2 9334   5.860   3.602   1.733
 3110TIP3   OH2 9335   2.090   4.137   4.378
 3110TIP3    H1 9336   2.179   4.160   4.351
 3110TIP3    H2 9337   2.060   4.074   4.313
 3111TIP3   OH2 9338   6.157   5.209   2.791
 3111TIP3    H1 9339   6.158   5.137   2.728
 3111TIP3    H2 9340   6.249   5.233   2.802
 3112TIP3   OH2 9341   2.653   3.797   0.372
 3112TIP3    H1 9342   2.684   3.774   0.284
 3112TIP3    H2 9343   2.615   3.885   0.361
 3113TIP3   OH2 9344   0.396   2.027   1.933
 3113TIP3    H1 9345   0.486   1.998   1.914
 3113TIP3    H2 9346   0.397   2.046   2.026
 3114TIP3   OH2 9347   5.314   5.213   0.957
 3114TIP3    H1 9348   5.258   5.157   0.904
 3114TIP3    H2 9349   5.276   5.300   0.949
 3115TIP3   OH2 9350   1.547   5.371   1.961
 3115TIP3    H1 9351   1.589   5.331   2.037
 3115TIP3    H2 9352   1.534   5.299   1.900
 3116TIP3   OH2 9353   5.627   1.957   1.217
 3116TIP3    H1 9354   5.555   2.016   1.192
 3116TIP3    H2 9355   5.647   1.909   1.137
 3117TIP3   OH2 9356   0.276   0.192   1.658
 3117TIP3    H1 9357   0.206   0.155   1.604
 3117TIP3    H2 9358   0.340   0.224   1.595
 3118TIP3   OH2 9359   0.388   1.161   2.443
 3118TIP3    H1 9360   0.383   1.068   2.421
 3118TIP3    H2 9361   0.342   1.168   2.526
 3119TIP3   OH2 9362   5.703   4.808   2.506
 3119TIP3    H1 9363   5.724   4.724   2.548
 3119TIP3    H2 9364   5.613   4.798   2.475
 3120TIP3   OH2 9365   4.906   4.568   0.216
 3120TIP3    H1 9366   4.831   4.567   0.275
 3120TIP3    H2 9367   4.871   4.542   0.131
 3121TIP3   OH2 9368   3.913   3.662   4.845
 3121TIP3    H1 9369   3.839   3.606   4.824
 3121TIP3    H2 9370   3.884   3.750   4.821
 3122TIP3   OH2 9371   4.504   2.983   4.621
 3122TIP3    H1 9372   4.575   2.985   4.684
 3122TIP3    H2 9373   4.482   2.890   4.612
 3123TIP3   OH2 9374   3.004   3.208   4.594
 3123TIP3    H1 9375   3.031   3.136   4.537
 3123TIP3    H2 9376   2.938   3.170   4.652
 3124TIP3   OH2 9377   3.258   1.181   1.799
 3124TIP3    H1 9378   3.220   1.098   1.770
 3124TIP3    H2 9379   3.197   1.248   1.768
 3125TIP3   OH2 9380   3.240   5.423   0.414
 3125TIP3    H1 9381   3.169   5.472   0.456
 3125TIP3    H2 9382   3.219   5.331   0.431
 3126TIP3   OH2 9383   5.590   5.634   5.156
 3126TIP3    H1 9384   5.624   5.718   5.126
 3126TIP3    H2 9385   5.553   5.652   5.242
 3127TIP3   OH2 9386   1.894   3.236   3.683
 3127TIP3    H1 9387   1.817   3.285   3.655
 3127TIP3    H2 9388   1.967   3.296   3.670
 3128TIP3   OH2 9389   4.519   3.928   3.569
 3128TIP3    H1 9390   4.563   3.946   3.652
 3128TIP3    H2 9391   4.468   3.849   3.585
 3129TIP3   OH2 9392   3.014   4.569   0.108
 3129TIP3    H1 9393   3.080   4.531   0.166
 3129TIP3    H2 9394   3.034   4.662   0.107
 3130TIP3   OH2 9395   1.451   5.132   3.643
 3130TIP3    H1 9396   1.366   5.107   3.679
 3130TIP3    H2 9397   1.468   5.069   3.574
 3131TIP3   OH2 9398   3.278   1.402   3.960
 3131TIP3    H1 9399   3.340   1.475   3.954
 3131TIP3    H2 9400   3.229   1.406   3.878
 3132TIP3   OH2 9401   5.309   0.155   3.892
 3132TIP3    H1 9402   5.318   0.076   3.945
 3132TIP3    H2 9403   5.339   0.130   3.805
 3133TIP3   OH2 9404   3.007   3.387   3.803
 3133TIP3    H1 9405   3.088   3.365   3.849
 3133TIP3    H2 9406   3.018   3.350   3.715
 3134TIP3   OH2 9407   5.599   5.291   4.026
 3134TIP3    H1 9408   5.658   5.334   3.963
 3134TIP3    H2 9409   5.606   5.198   4.006
 3135TIP3   OH2 9410   2.394   3.824   4.930
 3135TIP3    H1 9411   2.331   3.764   4.971
 3135TIP3    H2 9412   2.436   3.868   5.004
 3136TIP3   OH2 9413   1.503   5.713   2.744
 3136TIP3    H1 9414   1.450   5.791   2.763
 3136TIP3    H2 9415   1.441   5.651   2.705
 3137TIP3   OH2 9416   4.166   3.798   3.939
 3137TIP3    H1 9417   4.131   3.735   3.876
 3137TIP3    H2 9418   4.088   3.831   3.985
 3138TIP3   OH2 9419   2.811   1.990   2.730
 3138TIP3    H1 9420   2.789   1.933   2.804
 3138TIP3    H2 9421   2.846   2.069   2.771
 3139TIP3   OH2 9422   1.046   0.336   3.997
 3139TIP3    H1 9423   1.040   0.345   3.902
 3139TIP3    H2 9424   0.962   0.298   4.023
 3140TIP3   OH2 9425   1.441   5.630   2.419
 3140TIP3    H1 9426   1.416   5.615   2.328
 3140TIP3    H2 9427   1.474   5.545   2.449
 3141TIP3   OH2 9428   5.804   2.275   4.187
 3141TIP3    H1 9429   5.869   2.212   4.221
 3141TIP3    H2 9430   5.853   2.357   4.179
 3142TIP3   OH2 9431   0.350   5.734   1.121
 3142TIP3    H1 9432   0.300   5.785   1.057
 3142TIP3    H2 9433   0.307   5.751   1.205
 3143TIP3   OH2 9434   2.407   0.380   1.936
 3143TIP3    H1 9435   2.320   0.389   1.974
 3143TIP3    H2 9436   2.390   0.354   1.845
 3144TIP3   OH2 9437   3.144   5.244   5.043
 3144TIP3    H1 9438   3.211   5.245   5.112
 3144TIP3    H2 9439   3.170   5.314   4.983
 3145TIP3   OH2 9440   2.958   5.480   3.692
 3145TIP3    H1 9441   2.874   5.440   3.667
 3145TIP3    H2 9442   3.014   5.405   3.714
 3146TIP3   OH2 9443   1.519   1.476   5.093
 3146TIP3    H1 9444   1.484   1.441   5.174
 3146TIP3    H2 9445   1.454   1.541   5.065
 3147TIP3   OH2 9446   6.175   0.720   1.028
 3147TIP3    H1 9447   6.174   0.628   1.003
 3147TIP3    H2 9448   6.252   0.756   0.985
 3148TIP3   OH2 9449   1.434   3.547   3.319
 3148TIP3    H1 9450   1.448   3.609   3.391
 3148TIP3    H2 9451   1.356   3.580   3.274
 3149TIP3   OH2 9452   1.843   5.493   2.072
 3149TIP3    H1 9453   1.918   5.548   2.053
 3149TIP3    H2 9454   1.768   5.543   2.040
 3150TIP3   OH2 9455   1.862   2.751   4.997
 3150TIP3    H1 9456   1.941   2.713   4.958
 3150TIP3    H2 9457   1.831   2.683   5.057
 3151TIP3   OH2 9458   6.074   3.740   4.137
 3151TIP3    H1 9459   5.983   3.724   4.160
 3151TIP3    H2 9460   6.109   3.653   4.118
 3152TIP3   OH2 9461   1.705   1.992   0.115
 3152TIP3    H1 9462   1.769   2.019   0.049
 3152TIP3    H2 9463   1.633   1.954   0.064
 3153TIP3   OH2 9464   6.020   3.183   1.509
 3153TIP3    H1 9465   6.084   3.178   1.580
 3153TIP3    H2 9466   5.941   3.143   1.546
 3154TIP3   OH2 9467   4.482   2.844   4.307
 3154TIP3    H1 9468   4.534   2.829   4.386
 3154TIP3    H2 9469   4.526   2.915   4.261
 3155TIP3   OH2 9470   0.740   2.009   4.474
 3155TIP3    H1 9471   0.731   2.076   4.541
 3155TIP3    H2 9472   0.828   1.972   4.488
 3156TIP3   OH2 9473   0.128   2.937   0.588
 3156TIP3    H1 9474   0.086   3.020   0.564
 3156TIP3    H2 9475   0.102   2.876   0.518
 3157TIP3   OH2 9476   0.186   4.021   4.319
 3157TIP3    H1 9477   0.249   3.970   4.267
 3157TIP3    H2 9478   0.170   4.099   4.266
 3158TIP3   OH2 9479   0.806   2.386   4.199
 3158TIP3    H1 9480   0.832   2.410   4.288
 3158TIP3    H2 9481   0.722   2.343   4.209
 3159TIP3   OH2 9482   0.480   0.063   4.188
 3159TIP3    H1 9483   0.513  -0.022   4.218
 3159TIP3    H2 9484   0.406   0.082   4.246
 3160TIP3   OH2 9485  -0.009   3.546   0.631
 3160TIP3    H1 9486   0.049   3.523   0.704
 3160TIP3    H2 9487   0.042   3.607   0.578
 3161TIP3   OH2 9488   1.977   3.107   0.390
 3161TIP3    H1 9489   1.905   3.053   0.358
 3161TIP3    H2 9490   1.935   3.188   0.419
 3162TIP3   OH2 9491   1.797   1.637   3.945
 3162TIP3    H1 9492   1.773   1.602   3.859
 3162TIP3    H2 9493   1.721   1.621   4.000
 3163TIP3   OH2 9494   3.337   0.636   3.183
 3163TIP3    H1 9495   3.271   0.570   3.160
 3163TIP3    H2 9496   3.345   0.690   3.104
 3164TIP3   OH2 9497   1.209   5.031   3.705
 3164TIP3    H1 9498   1.159   5.051   3.784
 3164TIP3    H2 9499   1.144   4.999   3.643
 3165TIP3   OH2 9500   3.896   5.629   2.016
 3165TIP3    H1 9501   3.852   5.662   2.095
 3165TIP3    H2 9502   3.827   5.627   1.950
 3166TIP3   OH2 9503   5.146   2.400   1.627
 3166TIP3    H1 9504   5.165   2.395   1.720
 3166TIP3    H2 9505   5.199   2.474   1.595
 3167TIP3   OH2 9506   2.685   1.846   5.196
 3167TIP3    H1 9507   2.697   1.819   5.105
 3167TIP3    H2 9508   2.770   1.883   5.221
 3168TIP3   OH2 9509   5.701   5.162   4.910
 3168TIP3    H1 9510   5.752   5.126   4.983
 3168TIP3    H2 9511   5.610   5.151   4.936
 3169TIP3   OH2 9512   2.551   5.087   5.099
 3169TIP3    H1 9513   2.561   5.032   5.021
 3169TIP3    H2 9514   2.460   5.075   5.125
 3170TIP3   OH2 9515   1.066   1.699   2.933
 3170TIP3    H1 9516   1.116   1.778   2.911
 3170TIP3    H2 9517   0.980   1.732   2.958
 3171TIP3   OH2 9518   2.603   3.624   1.143
 3171TIP3    H1 9519   2.628   3.604   1.053
 3171TIP3    H2 9520   2.585   3.539   1.182
 3172TIP3   OH2 9521   0.630   0.756   4.992
 3172TIP3    H1 9522   0.708   0.781   5.042
 3172TIP3    H2 9523   0.638   0.661   4.981
 3173TIP3   OH2 9524   1.408   2.093   0.231
 3173TIP3    H1 9525   1.363   2.149   0.293
 3173TIP3    H2 9526   1.403   2.141   0.148
 3174TIP3   OH2 9527   5.688   4.844   4.430
 3174TIP3    H1 9528   5.671   4.938   4.442
 3174TIP3    H2 9529   5.601   4.805   4.428
 3175TIP3   OH2 9530   6.267   0.306   1.133
 3175TIP3    H1 9531   6.288   0.233   1.191
 3175TIP3    H2 9532   6.227   0.265   1.057
 3176TIP3   OH2 9533   5.441   1.310   4.112
 3176TIP3    H1 9534   5.376   1.350   4.170
 3176TIP3    H2 9535   5.442   1.218   4.138
 3177TIP3   OH2 9536   2.092   5.864   0.563
 3177TIP3    H1 9537   2.036   5.908   0.627
 3177TIP3    H2 9538   2.139   5.936   0.519
 3178TIP3   OH2 9539   6.068   2.365   2.023
 3178TIP3    H1 9540   6.138   2.410   2.070
 3178TIP3    H2 9541   6.033   2.302   2.086
 3179TIP3   OH2 9542   1.551   2.289   3.924
 3179TIP3    H1 9543   1.641   2.280   3.894
 3179TIP3    H2 9544   1.529   2.204   3.962
 3180TIP3   OH2 9545   1.650   0.164   5.054
 3180TIP3    H1 9546   1.598   0.238   5.087
 3180TIP3    H2 9547   1.610   0.143   4.970
 3181TIP3   OH2 9548   6.285   5.068   4.894
 3181TIP3    H1 9549   6.326   5.098   4.975
 3181TIP3    H2 9550   6.344   5.096   4.824
 3182TIP3   OH2 9551   4.155   3.180   1.252
 3182TIP3    H1 9552   4.213   3.252   1.227
 3182TIP3    H2 9553   4.087   3.180   1.185
 3183TIP3   OH2 9554   2.664   1.330   3.612
 3183TIP3    H1 9555   2.675   1.244   3.571
 3183TIP3    H2 9556   2.743   1.378   3.588
 3184TIP3   OH2 9557   1.326   4.118   0.203
 3184TIP3    H1 9558   1.296   4.124   0.294
 3184TIP3    H2 9559   1.393   4.186   0.195
 3185TIP3   OH2 9560   3.081   1.867   2.938
 3185TIP3    H1 9561   3.076   1.945   2.993
 3185TIP3    H2 9562   2.993   1.830   2.940
 3186TIP3   OH2 9563   4.705   1.381   4.596
 3186TIP3    H1 9564   4.627   1.406   4.545
 3186TIP3    H2 9565   4.709   1.285   4.588
 3187TIP3   OH2 9566   6.230   4.303   0.391
 3187TIP3    H1 9567   6.141   4.270   0.404
 3187TIP3    H2 9568   6.219   4.398   0.385
 3188TIP3   OH2 9569   3.961   5.529   0.961
 3188TIP3    H1 9570   4.019   5.457   0.936
 3188TIP3    H2 9571   3.873   5.495   0.947
 3189TIP3   OH2 9572   5.535   1.469   3.133
 3189TIP3    H1 9573   5.574   1.534   3.193
 3189TIP3    H2 9574   5.458   1.513   3.097
 3190TIP3   OH2 9575   5.773   4.551   2.592
 3190TIP3    H1 9576   5.751   4.459   2.577
 3190TIP3    H2 9577   5.842   4.549   2.659
 3191TIP3   OH2 9578   0.765   2.841   3.330
 3191TIP3    H1 9579   0.791   2.827   3.420
 3191TIP3    H2 9580   0.709   2.766   3.308
 3192TIP3   OH2 9581   6.161   1.181   1.178
 3192TIP3    H1 9582   6.141   1.098   1.221
 3192TIP3    H2 9583   6.180   1.157   1.087
 3193TIP3   OH2 9584   2.606   4.408   1.931
 3193TIP3    H1 9585   2.570   4.400   2.019
 3193TIP3    H2 9586   2.530   4.412   1.873
 3194TIP3   OH2 9587   2.007   4.671   0.176
 3194TIP3    H1 9588   1.927   4.650   0.127
 3194TIP3    H2 9589   2.051   4.587   0.188
 3195TIP3   OH2 9590   0.600   5.380   3.208
 3195TIP3    H1 9591   0.638   5.460   3.243
 3195TIP3    H2 9592   0.602   5.392   3.113
 3196TIP3   OH2 9593   3.638   1.336   3.313
 3196TIP3    H1 9594   3.636   1.309   3.221
 3196TIP3    H2 9595   3.644   1.254   3.362
 3197TIP3   OH2 9596   1.985   4.197   2.789
 3197TIP3    H1 9597   1.899   4.225   2.756
 3197TIP3    H2 9598   2.022   4.145   2.718
 3198TIP3   OH2 9599   0.858   3.291   4.309
 3198TIP3    H1 9600   0.875   3.350   4.382
 3198TIP3    H2 9601   0.801   3.340   4.251
 3199TIP3   OH2 9602   6.020   2.335   0.311
 3199TIP3    H1 9603   5.941   2.312   0.361
 3199TIP3    H2 9604   6.091   2.290   0.357
 3200TIP3   OH2 9605   1.767   5.706   0.690
 3200TIP3    H1 9606   1.826   5.645   0.647
 3200TIP3    H2 9607   1.739   5.766   0.621
 3201TIP3   OH2 9608   2.349   0.622   0.634
 3201TIP3    H1 9609   2.295   0.565   0.689
 3201TIP3    H2 9610   2.384   0.565   0.566
 3202TIP3   OH2 9611   3.483   2.401   0.944
 3202TIP3    H1 9612   3.452   2.356   1.022
 3202TIP3    H2 9613   3.577   2.383   0.941
 3203TIP3   OH2 9614   2.186   0.668   4.676
 3203TIP3    H1 9615   2.100   0.696   4.644
 3203TIP3    H2 9616   2.174   0.575   4.699
 3204TIP3   OH2 9617   5.912   5.655   0.758
 3204TIP3    H1 9618   5.885   5.686   0.672
 3204TIP3    H2 9619   5.990   5.706   0.778
 3205TIP3   OH2 9620   2.677   5.578   3.604
 3205TIP3    H1 9621   2.722   5.619   3.530
 3205TIP3    H2 9622   2.598   5.631   3.616
 3206TIP3   OH2 9623   3.279   4.453   3.051
 3206TIP3    H1 9624   3.255   4.372   3.096
 3206TIP3    H2 9625   3.322   4.423   2.971
 3207TIP3   OH2 9626   0.303   2.216   2.407
 3207TIP3    H1 9627   0.318   2.300   2.451
 3207TIP3    H2 9628   0.297   2.239   2.314
 3208TIP3   OH2 9629   3.936   1.897   4.838
 3208TIP3    H1 9630   3.904   1.865   4.922
 3208TIP3    H2 9631   3.964   1.987   4.855
 3209TIP3   OH2 9632   2.385   0.762   3.421
 3209TIP3    H1 9633   2.349   0.807   3.345
 3209TIP3    H2 9634   2.466   0.809   3.441
 3210TIP3   OH2 9635   2.694   2.917   0.817
 3210TIP3    H1 9636   2.723   2.841   0.867
 3210TIP3    H2 9637   2.656   2.975   0.883
 3211TIP3   OH2 9638   3.443   0.528   4.852
 3211TIP3    H1 9639   3.477   0.519   4.941
 3211TIP3    H2 9640   3.369   0.468   4.848
 3212TIP3   OH2 9641   5.528   5.354   4.507
 3212TIP3    H1 9642   5.502   5.364   4.416
 3212TIP3    H2 9643   5.458   5.397   4.557
 3213TIP3   OH2 9644   0.810   3.987   3.732
 3213TIP3    H1 9645   0.829   4.043   3.807
 3213TIP3    H2 9646   0.759   4.043   3.673
 3214TIP3   OH2 9647   3.847   5.564   2.482
 3214TIP3    H1 9648   3.752   5.553   2.473
 3214TIP3    H2 9649   3.878   5.479   2.514
 3215TIP3   OH2 9650   0.713   1.302   4.561
 3215TIP3    H1 9651   0.621   1.290   4.539
 3215TIP3    H2 9652   0.749   1.213   4.563
 3216TIP3   OH2 9653   3.878   1.831   0.545
 3216TIP3    H1 9654   3.925   1.871   0.471
 3216TIP3    H2 9655   3.878   1.738   0.525
 3217TIP3   OH2 9656   1.876   5.407   4.211
 3217TIP3    H1 9657   1.887   5.470   4.140
 3217TIP3    H2 9658   1.917   5.450   4.287
 3218TIP3   OH2 9659   3.197   5.015   4.901
 3218TIP3    H1 9660   3.292   5.005   4.899
 3218TIP3    H2 9661   3.182   5.098   4.946
 3219TIP3   OH2 9662   3.709   5.312   2.278
 3219TIP3    H1 9663   3.680   5.324   2.188
 3219TIP3    H2 9664   3.785   5.254   2.271
 3220TIP3   OH2 9665   3.657   1.568   3.459
 3220TIP3    H1 9666   3.641   1.481   3.421
 3220TIP3    H2 9667   3.749   1.566   3.484
 3221TIP3   OH2 9668   2.619   5.905   3.730
 3221TIP3    H1 9669   2.538   5.856   3.745
 3221TIP3    H2 9670   2.598   5.965   3.658
 3222TIP3   OH2 9671   2.824   5.451   0.671
 3222TIP3    H1 9672   2.765   5.525   0.655
 3222TIP3    H2 9673   2.900   5.470   0.617
 3223TIP3   OH2 9674   4.598   2.457   2.871
 3223TIP3    H1 9675   4.567   2.463   2.780
 3223TIP3    H2 9676   4.693   2.455   2.864
 3224TIP3   OH2 9677   0.265   3.716   0.898
 3224TIP3    H1 9678   0.327   3.742   0.829
 3224TIP3    H2 9679   0.244   3.798   0.943
 3225TIP3   OH2 9680   3.918   1.783   5.102
 3225TIP3    H1 9681   4.001   1.787   5.150
 3225TIP3    H2 9682   3.856   1.829   5.158
 3226TIP3   OH2 9683   5.599   4.355   5.119
 3226TIP3    H1 9684   5.595   4.450   5.124
 3226TIP3    H2 9685   5.620   4.327   5.208
 3227TIP3   OH2 9686   1.736   5.514   2.350
 3227TIP3    H1 9687   1.681   5.458   2.295
 3227TIP3    H2 9688   1.687   5.597   2.356
 3228TIP3   OH2 9689   5.390   5.394   3.823
 3228TIP3    H1 9690   5.426   5.370   3.908
 3228TIP3    H2 9691   5.465   5.430   3.775
 3229TIP3   OH2 9692   1.991   3.900   2.033
 3229TIP3    H1 9693   2.034   3.869   1.953
 3229TIP3    H2 9694   2.038   3.981   2.055
 3230TIP3   OH2 9695   2.448   1.191   0.664
 3230TIP3    H1 9696   2.517   1.253   0.687
 3230TIP3    H2 9697   2.490   1.105   0.667
 3231TIP3   OH2 9698   0.029   2.068   2.378
 3231TIP3    H1 9699   0.060   1.982   2.349
 3231TIP3    H2 9700  -0.047   2.086   2.323
 3232TIP3   OH2 9701   3.123   0.835   2.333
 3232TIP3    H1 9702   3.123   0.844   2.429
 3232TIP3    H2 9703   3.087   0.747   2.318
 3233TIP3   OH2 9704   0.554   2.105   0.158
 3233TIP3    H1 9705   0.499   2.098   0.080
 3233TIP3    H2 9706   0.633   2.150   0.127
 3234TIP3   OH2 9707   1.965   2.000   0.640
 3234TIP3    H1 9708   1.928   2.057   0.708
 3234TIP3    H2 9709   1.905   2.010   0.566
 3235TIP3   OH2 9710   3.247   4.638   1.588
 3235TIP3    H1 9711   3.239   4.669   1.678
 3235TIP3    H2 9712   3.341   4.621   1.577
 3236TIP3   OH2 9713   0.515   5.017   2.800
 3236TIP3    H1 9714   0.569   4.965   2.740
 3236TIP3    H2 9715   0.467   5.077   2.743
 3237TIP3   OH2 9716   0.346   4.074   2.774
 3237TIP3    H1 9717   0.334   4.162   2.740
 3237TIP3    H2 9718   0.417   4.082   2.837
 3238TIP3   OH2 9719   0.858   0.212   2.476
 3238TIP3    H1 9720   0.927   0.147   2.461
 3238TIP3    H2 9721   0.808   0.213   2.395
 3239TIP3   OH2 9722   2.522   1.458   4.320
 3239TIP3    H1 9723   2.596   1.432   4.266
 3239TIP3    H2 9724   2.476   1.376   4.339
 3240TIP3   OH2 9725   2.493   2.427   1.276
 3240TIP3    H1 9726   2.584   2.457   1.280
 3240TIP3    H2 9727   2.444   2.492   1.327
 3241TIP3   OH2 9728   0.392   3.051   2.630
 3241TIP3    H1 9729   0.343   2.969   2.623
 3241TIP3    H2 9730   0.327   3.119   2.610
 3242TIP3   OH2 9731   0.256   5.845   3.594
 3242TIP3    H1 9732   0.280   5.906   3.524
 3242TIP3    H2 9733   0.337   5.829   3.642
 3243TIP3   OH2 9734   0.935   3.474   3.467
 3243TIP3    H1 9735   0.956   3.536   3.537
 3243TIP3    H2 9736   1.017   3.428   3.451
 3244TIP3   OH2 9737   2.591   2.831   0.570
 3244TIP3    H1 9738   2.497   2.846   0.576
 3244TIP3    H2 9739   2.626   2.864   0.653
 3245TIP3   OH2 9740   0.117   3.372   1.149
 3245TIP3    H1 9741   0.024   3.389   1.160
 3245TIP3    H2 9742   0.158   3.459   1.154
 3246TIP3   OH2 9743   6.192   2.419   2.969
 3246TIP3    H1 9744   6.245   2.491   3.004
 3246TIP3    H2 9745   6.160   2.452   2.885
 3247TIP3   OH2 9746   2.225   4.604   2.161
 3247TIP3    H1 9747   2.251   4.535   2.222
 3247TIP3    H2 9748   2.246   4.569   2.074
 3248TIP3   OH2 9749   5.497   4.091   5.168
 3248TIP3    H1 9750   5.547   4.024   5.214
 3248TIP3    H2 9751   5.535   4.094   5.080
 3249TIP3   OH2 9752   1.734   2.527   1.886
 3249TIP3    H1 9753   1.700   2.614   1.865
 3249TIP3    H2 9754   1.684   2.467   1.830
 3250TIP3   OH2 9755   4.952   4.887   3.775
 3250TIP3    H1 9756   4.894   4.956   3.808
 3250TIP3    H2 9757   5.037   4.906   3.815
 3251TIP3   OH2 9758   4.136   1.877   4.113
 3251TIP3    H1 9759   4.152   1.791   4.151
 3251TIP3    H2 9760   4.041   1.883   4.105
 3252TIP3   OH2 9761  -0.029   0.143   2.013
 3252TIP3    H1 9762   0.033   0.193   1.961
 3252TIP3    H2 9763   0.023   0.072   2.051
 3253TIP3   OH2 9764   2.325   4.222   2.641
 3253TIP3    H1 9765   2.291   4.295   2.693
 3253TIP3    H2 9766   2.247   4.171   2.618
 3254TIP3   OH2 9767   0.355   1.487   4.606
 3254TIP3    H1 9768   0.374   1.512   4.696
 3254TIP3    H2 9769   0.379   1.394   4.602
 3255TIP3   OH2 9770   4.914   3.065   1.183
 3255TIP3    H1 9771   4.993   3.014   1.200
 3255TIP3    H2 9772   4.945   3.147   1.145
 3256TIP3   OH2 9773   1.511   5.530   3.143
 3256TIP3    H1 9774   1.506   5.442   3.105
 3256TIP3    H2 9775   1.419   5.552   3.162
 3257TIP3   OH2 9776   5.249   4.464   2.941
 3257TIP3    H1 9777   5.319   4.471   2.876
 3257TIP3    H2 9778   5.197   4.544   2.929
 3258TIP3   OH2 9779   2.320   1.344   0.478
 3258TIP3    H1 9780   2.374   1.280   0.523
 3258TIP3    H2 9781   2.381   1.414   0.454
 3259TIP3   OH2 9782   1.240   4.021   3.554
 3259TIP3    H1 9783   1.188   4.074   3.494
 3259TIP3    H2 9784   1.208   4.044   3.641
 3260TIP3   OH2 9785   2.769   1.570   0.315
 3260TIP3    H1 9786   2.807   1.551   0.229
 3260TIP3    H2 9787   2.732   1.658   0.306
 3261TIP3   OH2 9788   2.153   3.107   3.960
 3261TIP3    H1 9789   2.149   3.088   3.866
 3261TIP3    H2 9790   2.241   3.079   3.986
 3262TIP3   OH2 9791   2.256   3.012   0.419
 3262TIP3    H1 9792   2.165   3.030   0.395
 3262TIP3    H2 9793   2.281   2.940   0.360
 3263TIP3   OH2 9794   0.909   0.989   2.530
 3263TIP3    H1 9795   0.900   1.021   2.620
 3263TIP3    H2 9796   0.841   1.036   2.481
 3264TIP3   OH2 9797   2.865   1.363   2.745
 3264TIP3    H1 9798   2.939   1.329   2.696
 3264TIP3    H2 9799   2.789   1.346   2.689
 3265TIP3   OH2 9800   1.148   2.369   4.539
 3265TIP3    H1 9801   1.178   2.362   4.630
 3265TIP3    H2 9802   1.115   2.458   4.532
 3266TIP3   OH2 9803   1.474   3.048   4.147
 3266TIP3    H1 9804   1.526   3.055   4.227
 3266TIP3    H2 9805   1.384   3.064   4.175
 3267TIP3   OH2 9806   5.065   1.555   4.843
 3267TIP3    H1 9807   5.096   1.568   4.933
 3267TIP3    H2 9808   5.092   1.466   4.821
 3268TIP3   OH2 9809   3.639   1.489   3.040
 3268TIP3    H1 9810   3.557   1.503   3.087
 3268TIP3    H2 9811   3.705   1.482   3.108
 3269TIP3   OH2 9812   2.131   2.119   2.299
 3269TIP3    H1 9813   2.191   2.130   2.373
 3269TIP3    H2 9814   2.051   2.084   2.338
 3270TIP3   OH2 9815   1.779   1.775   0.638
 3270TIP3    H1 9816   1.862   1.816   0.662
 3270TIP3    H2 9817   1.715   1.813   0.699
 3271TIP3   OH2 9818   5.557   3.343   1.645
 3271TIP3    H1 9819   5.614   3.266   1.655
 3271TIP3    H2 9820   5.510   3.327   1.563
 3272TIP3   OH2 9821   1.818   3.786   4.243
 3272TIP3    H1 9822   1.775   3.845   4.305
 3272TIP3    H2 9823   1.748   3.728   4.212
 3273TIP3   OH2 9824   6.057   3.547   0.700
 3273TIP3    H1 9825   6.151   3.531   0.698
 3273TIP3    H2 9826   6.025   3.511   0.617
 3274TIP3   OH2 9827   1.774   0.069   2.442
 3274TIP3    H1 9828   1.768   0.155   2.483
 3274TIP3    H2 9829   1.685   0.034   2.447
 3275TIP3   OH2 9830   1.538   4.451   2.086
 3275TIP3    H1 9831   1.551   4.526   2.144
 3275TIP3    H2 9832   1.623   4.407   2.084
 3276TIP3   OH2 9833   0.312   5.774   0.082
 3276TIP3    H1 9834   0.224   5.740   0.064
 3276TIP3    H2 9835   0.352   5.707   0.138
 3277TIP3   OH2 9836   4.444   0.409   1.597
 3277TIP3    H1 9837   4.481   0.403   1.685
 3277TIP3    H2 9838   4.449   0.502   1.575
 3278TIP3   OH2 9839   3.785   5.418   0.609
 3278TIP3    H1 9840   3.847   5.361   0.653
 3278TIP3    H2 9841   3.770   5.490   0.671
 3279TIP3   OH2 9842   4.818   5.207   2.996
 3279TIP3    H1 9843   4.751   5.268   3.029
 3279TIP3    H2 9844   4.774   5.122   2.998
 3280TIP3   OH2 9845   5.143   4.648   4.405
 3280TIP3    H1 9846   5.133   4.578   4.470
 3280TIP3    H2 9847   5.164   4.726   4.457
 3281TIP3   OH2 9848   0.292   2.229   0.699
 3281TIP3    H1 9849   0.197   2.222   0.687
 3281TIP3    H2 9850   0.303   2.276   0.781
 3282TIP3   OH2 9851   5.949   5.371   2.750
 3282TIP3    H1 9852   6.024   5.314   2.737
 3282TIP3    H2 9853   5.888   5.347   2.680
 3283TIP3   OH2 9854   4.547   0.197   3.272
 3283TIP3    H1 9855   4.509   0.283   3.288
 3283TIP3    H2 9856   4.585   0.203   3.184
 3284TIP3   OH2 9857   0.838   5.794   1.625
 3284TIP3    H1 9858   0.846   5.879   1.582
 3284TIP3    H2 9859   0.791   5.739   1.561
 3285TIP3   OH2 9860   0.193   3.284   4.104
 3285TIP3    H1 9861   0.151   3.205   4.069
 3285TIP3    H2 9862   0.174   3.281   4.198
 3286TIP3   OH2 9863   0.297   5.202   3.199
 3286TIP3    H1 9864   0.342   5.276   3.239
 3286TIP3    H2 9865   0.309   5.130   3.260
 3287TIP3   OH2 9866   2.451   1.655   1.159
 3287TIP3    H1 9867   2.392   1.728   1.140
 3287TIP3    H2 9868   2.521   1.693   1.212
 3288TIP3   OH2 9869   1.034   1.786   3.439
 3288TIP3    H1 9870   1.100   1.781   3.369
 3288TIP3    H2 9871   0.979   1.860   3.413
 3289TIP3   OH2 9872   0.942   3.083   1.070
 3289TIP3    H1 9873   0.969   3.144   1.002
 3289TIP3    H2 9874   1.010   3.016   1.071
 3290TIP3   OH2 9875   3.165   3.231   0.765
 3290TIP3    H1 9876   3.105   3.303   0.786
 3290TIP3    H2 9877   3.248   3.257   0.806
 3291TIP3   OH2 9878   0.434   3.790   3.698
 3291TIP3    H1 9879   0.362   3.848   3.672
 3291TIP3    H2 9880   0.394   3.704   3.704
 3292TIP3   OH2 9881   0.902   5.689   4.808
 3292TIP3    H1 9882   0.839   5.760   4.795
 3292TIP3    H2 9883   0.987   5.727   4.786
 3293TIP3   OH2 9884   5.262   5.084   4.319
 3293TIP3    H1 9885   5.332   5.073   4.254
 3293TIP3    H2 9886   5.191   5.030   4.286
 3294TIP3   OH2 9887   5.696   1.683   4.206
 3294TIP3    H1 9888   5.690   1.749   4.275
 3294TIP3    H2 9889   5.637   1.613   4.235
 3295TIP3   OH2 9890   4.785   0.652   3.845
 3295TIP3    H1 9891   4.765   0.708   3.920
 3295TIP3    H2 9892   4.704   0.650   3.794
 3296TIP3   OH2 9893   0.020   2.634   1.134
 3296TIP3    H1 9894   0.008   2.574   1.207
 3296TIP3    H2 9895   0.066   2.583   1.068
 3297TIP3   OH2 9896   3.581   0.318   0.922
 3297TIP3    H1 9897   3.552   0.247   0.865
 3297TIP3    H2 9898   3.646   0.366   0.870
 3298TIP3   OH2 9899   0.655   4.949   0.205
 3298TIP3    H1 9900   0.629   5.041   0.217
 3298TIP3    H2 9901   0.739   4.942   0.250
 3299TIP3   OH2 9902   0.994   4.112   4.595
 3299TIP3    H1 9903   1.031   4.079   4.677
 3299TIP3    H2 9904   0.907   4.144   4.619
 3300TIP3   OH2 9905   1.566   1.282   4.888
 3300TIP3    H1 9906   1.568   1.334   4.968
 3300TIP3    H2 9907   1.533   1.342   4.821
 3301TIP3   OH2 9908   3.852   4.717   3.994
 3301TIP3    H1 9909   3.898   4.649   3.944
 3301TIP3    H2 9910   3.858   4.687   4.085
 3302TIP3   OH2 9911   3.260   4.075   1.032
 3302TIP3    H1 9912   3.313   4.103   1.106
 3302TIP3    H2 9913   3.308   4.105   0.955
 3303TIP3   OH2 9914   5.158   3.844   3.063
 3303TIP3    H1 9915   5.247   3.863   3.034
 3303TIP3    H2 9916   5.109   3.925   3.045
 3304TIP3   OH2 9917   3.654   4.762   3.798
 3304TIP3    H1 9918   3.724   4.723   3.850
 3304TIP3    H2 9919   3.673   4.735   3.708
 3305TIP3   OH2 9920   5.361   3.451   4.954
 3305TIP3    H1 9921   5.420   3.378   4.974
 3305TIP3    H2 9922   5.407   3.529   4.985
 3306TIP3   OH2 9923   1.592   3.632   0.221
 3306TIP3    H1 9924   1.540   3.712   0.210
 3306TIP3    H2 9925   1.585   3.587   0.136
 3307TIP3   OH2 9926   2.357   2.651   1.416
 3307TIP3    H1 9927   2.387   2.618   1.501
 3307TIP3    H2 9928   2.338   2.744   1.431
 3308TIP3   OH2 9929   3.172   3.173   2.124
 3308TIP3    H1 9930   3.204   3.199   2.210
 3308TIP3    H2 9931   3.133   3.253   2.087
 3309TIP3   OH2 9932   4.245   2.112   1.543
 3309TIP3    H1 9933   4.289   2.175   1.486
 3309TIP3    H2 9934   4.152   2.125   1.526
 3310TIP3   OH2 9935   5.242   1.851   0.853
 3310TIP3    H1 9936   5.162   1.888   0.815
 3310TIP3    H2 9937   5.313   1.891   0.803
 3311TIP3   OH2 9938   1.591   4.709   1.065
 3311TIP3    H1 9939   1.553   4.622   1.079
 3311TIP3    H2 9940   1.599   4.717   0.970
 3312TIP3   OH2 9941   5.025   0.401   1.017
 3312TIP3    H1 9942   5.032   0.311   1.050
 3312TIP3    H2 9943   4.964   0.444   1.076
 3313TIP3   OH2 9944   2.860   5.530   1.214
 3313TIP3    H1 9945   2.914   5.468   1.264
 3313TIP3    H2 9946   2.876   5.507   1.122
 3314TIP3   OH2 9947   2.061   4.745   2.510
 3314TIP3    H1 9948   2.139   4.790   2.478
 3314TIP3    H2 9949   2.050   4.777   2.600
 3315TIP3   OH2 9950   0.621   0.869   3.132
 3315TIP3    H1 9951   0.667   0.839   3.210
 3315TIP3    H2 9952   0.686   0.864   3.062
 3316TIP3   OH2 9953   3.892   3.773   3.815
 3316TIP3    H1 9954   3.838   3.717   3.871
 3316TIP3    H2 9955   3.922   3.716   3.745
 3317TIP3   OH2 9956   1.233   2.467   1.224
 3317TIP3    H1 9957   1.185   2.466   1.142
 3317TIP3    H2 9958   1.232   2.559   1.251
 3318TIP3   OH2 9959   1.785   1.649   3.199
 3318TIP3    H1 9960   1.858   1.699   3.161
 3318TIP3    H2 9961   1.742   1.712   3.257
 3319TIP3   OH2 9962   5.008   2.023   5.126
 3319TIP3    H1 9963   5.042   1.973   5.052
 3319TIP3    H2 9964   4.934   1.971   5.157
 3320TIP3   OH2 9965   2.612   5.758   2.511
 3320TIP3    H1 9966   2.616   5.804   2.427
 3320TIP3    H2 9967   2.601   5.666   2.487
 3321TIP3   OH2 9968   2.336   4.579   3.563
 3321TIP3    H1 9969   2.399   4.613   3.500
 3321TIP3    H2 9970   2.252   4.584   3.519
 3322TIP3   OH2 9971   0.578   1.586   0.807
 3322TIP3    H1 9972   0.519   1.515   0.833
 3322TIP3    H2 9973   0.651   1.580   0.869
 3323TIP3   OH2 9974   2.895   2.853   3.366
 3323TIP3    H1 9975   2.886   2.780   3.426
 3323TIP3    H2 9976   2.829   2.916   3.394
 3324TIP3   OH2 9977   2.468   0.273   4.128
 3324TIP3    H1 9978   2.509   0.339   4.184
 3324TIP3    H2 9979   2.487   0.189   4.172
 3325TIP3   OH2 9980   3.853   3.638   2.945
 3325TIP3    H1 9981   3.778   3.585   2.918
 3325TIP3    H2 9982   3.926   3.577   2.949
 3326TIP3   OH2 9983   2.637   0.861   3.507
 3326TIP3    H1 9984   2.643   0.842   3.601
 3326TIP3    H2 9985   2.706   0.808   3.467
 3327TIP3   OH2 9986   0.315   1.872   4.784
 3327TIP3    H1 9987   0.283   1.915   4.864
 3327TIP3    H2 9988   0.310   1.779   4.803
 3328TIP3   OH2 9989   0.669   3.722   0.562
 3328TIP3    H1 9990   0.718   3.799   0.531
 3328TIP3    H2 9991   0.729   3.649   0.546
 3329TIP3   OH2 9992   3.019   3.120   4.008
 3329TIP3    H1 9993   2.964   3.055   3.964
 3329TIP3    H2 9994   2.963   3.196   4.019
 3330TIP3   OH2 9995   5.871   2.241   1.502
 3330TIP3    H1 9996   5.907   2.152   1.499
 3330TIP3    H2 9997   5.788   2.234   1.454
 3331TIP3   OH2 9998   3.437   5.485   0.197
 3331TIP3    H1 9999   3.390   5.485   0.281
 3331TIP3    H210000   3.471   5.574   0.189
 3332TIP3   OH210001   0.361   5.949   1.948
 3332TIP3    H110002   0.319   5.977   2.030
 3332TIP3    H210003   0.439   5.901   1.976
 3333TIP3   OH210004   1.797   4.317   1.689
 3333TIP3    H110005   1.810   4.222   1.686
 3333TIP3    H210006   1.769   4.339   1.601
 3334TIP3   OH210007   1.353   4.182   2.879
 3334TIP3    H110008   1.355   4.156   2.787
 3334TIP3    H210009   1.273   4.233   2.888
 3335TIP3   OH210010   4.530   2.333   1.317
 3335TIP3    H110011   4.603   2.326   1.256
 3335TIP3    H210012   4.565   2.303   1.401
 3336TIP3   OH210013   4.107   4.979   0.895
 3336TIP3    H110014   4.095   5.051   0.832
 3336TIP3    H210015   4.202   4.973   0.907
 3337TIP3   OH210016   4.640   4.644   1.813
 3337TIP3    H110017   4.696   4.671   1.740
 3337TIP3    H210018   4.694   4.582   1.863
 3338TIP3   OH210019   3.375   2.171   2.479
 3338TIP3    H110020   3.314   2.181   2.552
 3338TIP3    H210021   3.359   2.083   2.446
 3339TIP3   OH210022   6.131   1.107   2.174
 3339TIP3    H110023   6.088   1.128   2.256
 3339TIP3    H210024   6.196   1.177   2.162
 3340TIP3   OH210025   6.183   0.446   1.980
 3340TIP3    H110026   6.196   0.541   1.973
 3340TIP3    H210027   6.186   0.415   1.889
 3341TIP3   OH210028   5.131   5.706   0.652
 3341TIP3    H110029   5.050   5.725   0.700
 3341TIP3    H210030   5.102   5.658   0.575
 3342TIP3   OH210031   5.960   5.794   1.495
 3342TIP3    H110032   5.992   5.704   1.493
 3342TIP3    H210033   5.865   5.786   1.498
 3343TIP3   OH210034   0.998   1.301   4.586
 3343TIP3    H110035   0.940   1.245   4.534
 3343TIP3    H210036   1.050   1.239   4.638
 3344TIP3   OH210037   4.242   3.483   2.228
 3344TIP3    H110038   4.213   3.497   2.138
 3344TIP3    H210039   4.170   3.516   2.282
 3345TIP3   OH210040   2.222   1.845   3.503
 3345TIP3    H110041   2.165   1.769   3.491
 3345TIP3    H210042   2.203   1.876   3.591
 3346TIP3   OH210043   5.412   4.978   0.652
 3346TIP3    H110044   5.371   5.051   0.605
 3346TIP3    H210045   5.374   4.982   0.740
 3347TIP3   OH210046   3.453   0.200   2.345
 3347TIP3    H110047   3.412   0.188   2.259
 3347TIP3    H210048   3.519   0.131   2.350
 3348TIP3   OH210049   4.678   3.631   0.573
 3348TIP3    H110050   4.666   3.726   0.579
 3348TIP3    H210051   4.591   3.595   0.591
 3349TIP3   OH210052   4.448   0.728   3.268
 3349TIP3    H110053   4.455   0.776   3.185
 3349TIP3    H210054   4.492   0.784   3.332
 3350TIP3   OH210055   6.171   0.025   2.268
 3350TIP3    H110056   6.252   0.075   2.270
 3350TIP3    H210057   6.180  -0.034   2.194
 3351TIP3   OH210058   3.665   5.714   3.694
 3351TIP3    H110059   3.656   5.623   3.667
 3351TIP3    H210060   3.640   5.764   3.616
 3352TIP3   OH210061   1.720   0.553   0.450
 3352TIP3    H110062   1.713   0.585   0.540
 3352TIP3    H210063   1.647   0.594   0.405
 3353TIP3   OH210064   6.319   1.002   4.332
 3353TIP3    H110065   6.393   0.942   4.324
 3353TIP3    H210066   6.276   0.977   4.413
 3354TIP3   OH210067   2.853   1.012   4.973
 3354TIP3    H110068   2.787   1.069   4.934
 3354TIP3    H210069   2.877   0.952   4.902
 3355TIP3   OH210070   2.245   4.562   4.212
 3355TIP3    H110071   2.185   4.610   4.156
 3355TIP3    H210072   2.235   4.603   4.298
 3356TIP3   OH210073   4.518   0.687   3.654
 3356TIP3    H110074   4.433   0.703   3.613
 3356TIP3    H210075   4.568   0.767   3.636
 3357TIP3   OH210076   6.039   0.589   0.442
 3357TIP3    H110077   5.971   0.644   0.402
 3357TIP3    H210078   6.039   0.509   0.390
 3358TIP3   OH210079   5.736   4.675   0.193
 3358TIP3    H110080   5.701   4.665   0.281
 3358TIP3    H210081   5.687   4.611   0.141
 3359TIP3   OH210082   2.819   3.418   1.112
 3359TIP3    H110083   2.911   3.445   1.109
 3359TIP3    H210084   2.781   3.470   1.183
 3360TIP3   OH210085   0.496   2.536   2.009
 3360TIP3    H110086   0.566   2.543   1.944
 3360TIP3    H210087   0.527   2.471   2.071
 3361TIP3   OH210088   0.664   0.805   4.708
 3361TIP3    H110089   0.642   0.784   4.798
 3361TIP3    H210090   0.635   0.729   4.658
 3362TIP3   OH210091   4.645   1.047   0.620
 3362TIP3    H110092   4.701   1.124   0.608
 3362TIP3    H210093   4.594   1.066   0.699
 3363TIP3   OH210094   3.470   1.162   5.099
 3363TIP3    H110095   3.523   1.082   5.095
 3363TIP3    H210096   3.451   1.182   5.007
 3364TIP3   OH210097   0.847   1.759   2.222
 3364TIP3    H110098   0.814   1.849   2.215
 3364TIP3    H210099   0.830   1.734   2.312
 3365TIP3   OH210100   5.529   4.478   2.837
 3365TIP3    H110101   5.608   4.424   2.840
 3365TIP3    H210102   5.493   4.463   2.750
 3366TIP3   OH210103   5.803   2.889   1.919
 3366TIP3    H110104   5.859   2.963   1.896
 3366TIP3    H210105   5.863   2.814   1.924
 3367TIP3   OH210106   4.606   2.558   0.881
 3367TIP3    H110107   4.648   2.490   0.934
 3367TIP3    H210108   4.661   2.566   0.803
 3368TIP3   OH210109   1.111   0.231   1.917
 3368TIP3    H110110   1.108   0.324   1.938
 3368TIP3    H210111   1.036   0.193   1.962
 3369TIP3   OH210112   0.763   4.151   0.676
 3369TIP3    H110113   0.836   4.092   0.660
 3369TIP3    H210114   0.781   4.189   0.762
 3370TIP3   OH210115   2.375   0.666   2.052
 3370TIP3    H110116   2.395   0.613   2.129
 3370TIP3    H210117   2.279   0.673   2.052
 3371TIP3   OH210118   5.874   0.523   3.506
 3371TIP3    H110119   5.813   0.568   3.565
 3371TIP3    H210120   5.933   0.592   3.475
 3372TIP3   OH210121   4.481   4.988   2.298
 3372TIP3    H110122   4.395   5.003   2.259
 3372TIP3    H210123   4.503   4.898   2.272
 3373TIP3   OH210124   0.213   1.611   3.715
 3373TIP3    H110125   0.289   1.612   3.657
 3373TIP3    H210126   0.204   1.519   3.741
 3374TIP3   OH210127   0.732   0.245   4.424
 3374TIP3    H110128   0.697   0.171   4.474
 3374TIP3    H210129   0.798   0.283   4.481
 3375TIP3   OH210130   5.051   2.597   2.391
 3375TIP3    H110131   5.071   2.557   2.476
 3375TIP3    H210132   4.969   2.644   2.405
 3376TIP3   OH210133   1.878   1.584   4.445
 3376TIP3    H110134   1.825   1.519   4.397
 3376TIP3    H210135   1.838   1.588   4.532
 3377TIP3   OH210136   3.529   3.674   0.440
 3377TIP3    H110137   3.623   3.684   0.425
 3377TIP3    H210138   3.522   3.593   0.490
 3378TIP3   OH210139   2.969   0.040   3.158
 3378TIP3    H110140   2.894   0.002   3.114
 3378TIP3    H210141   2.939   0.057   3.247
 3379TIP3   OH210142   5.667   2.927   2.776
 3379TIP3    H110143   5.718   3.005   2.755
 3379TIP3    H210144   5.656   2.931   2.871
 3380TIP3   OH210145   0.040   0.159   4.535
 3380TIP3    H110146   0.082   0.097   4.595
 3380TIP3    H210147   0.069   0.245   4.566
 3381TIP3   OH210148   6.051   4.912   0.445
 3381TIP3    H110149   6.094   4.856   0.510
 3381TIP3    H210150   6.068   5.001   0.475
 3382TIP3   OH210151   2.653   0.221   1.613
 3382TIP3    H110152   2.695   0.307   1.609
 3382TIP3    H210153   2.700   0.174   1.682
 3383TIP3   OH210154   3.587   3.036   3.388
 3383TIP3    H110155   3.578   3.079   3.302
 3383TIP3    H210156   3.515   3.071   3.440
 3384TIP3   OH210157   1.212   3.227   1.533
 3384TIP3    H110158   1.210   3.193   1.444
 3384TIP3    H210159   1.201   3.321   1.523
 3385TIP3   OH210160   5.438   3.602   0.666
 3385TIP3    H110161   5.454   3.656   0.744
 3385TIP3    H210162   5.511   3.623   0.608
 3386TIP3   OH210163   5.442   0.286   1.117
 3386TIP3    H110164   5.358   0.265   1.157
 3386TIP3    H210165   5.501   0.216   1.145
 3387TIP3   OH210166   0.491   0.755   1.969
 3387TIP3    H110167   0.428   0.773   2.038
 3387TIP3    H210168   0.519   0.841   1.938
 3388TIP3   OH210169   1.954   3.656   3.992
 3388TIP3    H110170   1.865   3.659   3.958
 3388TIP3    H210171   1.945   3.619   4.080
 3389TIP3   OH210172   4.837   1.047   4.994
 3389TIP3    H110173   4.881   0.988   5.057
 3389TIP3    H210174   4.894   1.124   4.991
 3390TIP3   OH210175   4.743   3.175   0.255
 3390TIP3    H110176   4.811   3.178   0.189
 3390TIP3    H210177   4.789   3.187   0.338
 3391TIP3   OH210178   2.297   2.742   4.488
 3391TIP3    H110179   2.356   2.767   4.417
 3391TIP3    H210180   2.216   2.790   4.469
 3392TIP3   OH210181   4.036   3.784   0.573
 3392TIP3    H110182   3.974   3.851   0.602
 3392TIP3    H210183   4.120   3.830   0.570
 3393TIP3   OH210184   0.193   3.816   2.257
 3393TIP3    H110185   0.185   3.755   2.183
 3393TIP3    H210186   0.286   3.813   2.281
 3394TIP3   OH210187   6.238   1.520   1.079
 3394TIP3    H110188   6.318   1.567   1.101
 3394TIP3    H210189   6.269   1.433   1.051
 3395TIP3   OH210190   5.649   5.579   0.498
 3395TIP3    H110191   5.713   5.647   0.483
 3395TIP3    H210192   5.568   5.613   0.460
 3396TIP3   OH210193   6.059   1.789   1.704
 3396TIP3    H110194   6.128   1.815   1.765
 3396TIP3    H210195   5.977   1.803   1.753
 3397TIP3   OH210196   3.921   4.264   2.309
 3397TIP3    H110197   3.977   4.339   2.291
 3397TIP3    H210198   3.964   4.190   2.267
 3398TIP3   OH210199   5.085   3.399   4.829
 3398TIP3    H110200   5.017   3.451   4.872
 3398TIP3    H210201   5.166   3.430   4.868
 3399TIP3   OH210202   1.243   1.845   4.351
 3399TIP3    H110203   1.215   1.914   4.291
 3399TIP3    H210204   1.229   1.764   4.304
 3400TIP3   OH210205   3.045   0.594   5.055
 3400TIP3    H110206   3.097   0.668   5.024
 3400TIP3    H210207   2.975   0.584   4.990
 3401TIP3   OH210208   4.070   0.268   2.502
 3401TIP3    H110209   4.016   0.254   2.579
 3401TIP3    H210210   4.038   0.351   2.466
 3402TIP3   OH210211   2.706   5.314   3.682
 3402TIP3    H110212   2.625   5.268   3.704
 3402TIP3    H210213   2.681   5.407   3.678
 3403TIP3   OH210214   1.293   2.549   5.006
 3403TIP3    H110215   1.359   2.594   5.059
 3403TIP3    H210216   1.242   2.620   4.966
 3404TIP3   OH210217   4.131   1.120   3.329
 3404TIP3    H110218   4.102   1.029   3.331
 3404TIP3    H210219   4.064   1.165   3.277
 3405TIP3   OH210220   5.316   5.491   0.877
 3405TIP3    H110221   5.377   5.563   0.869
 3405TIP3    H210222   5.252   5.519   0.942
 3406TIP3   OH210223   5.607   5.226   0.478
 3406TIP3    H110224   5.521   5.260   0.503
 3406TIP3    H210225   5.642   5.291   0.418
 3407TIP3   OH210226   1.808   5.665   3.554
 3407TIP3    H110227   1.729   5.680   3.501
 3407TIP3    H210228   1.877   5.650   3.490
 3408TIP3   OH210229   2.818   3.126   1.714
 3408TIP3    H110230   2.743   3.162   1.761
 3408TIP3    H210231   2.878   3.096   1.782
 3409TIP3   OH210232   1.684   5.421   2.607
 3409TIP3    H110233   1.737   5.466   2.541
 3409TIP3    H210234   1.725   5.443   2.691
 3410TIP3   OH210235   5.372   4.371   1.196
 3410TIP3    H110236   5.444   4.338   1.248
 3410TIP3    H210237   5.393   4.463   1.181
 3411TIP3   OH210238   5.489   5.756   4.060
 3411TIP3    H110239   5.446   5.838   4.083
 3411TIP3    H210240   5.424   5.689   4.081
 3412TIP3   OH210241   6.327   3.604   2.093
 3412TIP3    H110242   6.308   3.521   2.051
 3412TIP3    H210243   6.336   3.666   2.021
 3413TIP3   OH210244   4.021   0.639   3.136
 3413TIP3    H110245   3.943   0.588   3.156
 3413TIP3    H210246   4.094   0.579   3.150
 3414TIP3   OH210247   3.891   2.240   0.026
 3414TIP3    H110248   3.809   2.280  -0.003
 3414TIP3    H210249   3.935   2.310   0.074
 3415TIP3   OH210250   2.806   4.418   1.357
 3415TIP3    H110251   2.859   4.342   1.332
 3415TIP3    H210252   2.869   4.489   1.367
 3416TIP3   OH210253   0.640   1.174   2.503
 3416TIP3    H110254   0.647   1.269   2.509
 3416TIP3    H210255   0.568   1.159   2.441
 3417TIP3   OH210256   4.481   0.183   0.074
 3417TIP3    H110257   4.414   0.130   0.117
 3417TIP3    H210258   4.439   0.268   0.060
 3418TIP3   OH210259   5.302   3.518   3.990
 3418TIP3    H110260   5.371   3.475   4.041
 3418TIP3    H210261   5.295   3.465   3.910
 3419TIP3   OH210262   0.615   0.184   4.923
 3419TIP3    H110263   0.613   0.119   4.994
 3419TIP3    H210264   0.707   0.207   4.914
 3420TIP3   OH210265   5.772   3.540   0.304
 3420TIP3    H110266   5.699   3.529   0.244
 3420TIP3    H210267   5.819   3.617   0.270
 3421TIP3   OH210268   0.441   3.469   4.820
 3421TIP3    H110269   0.464   3.420   4.898
 3421TIP3    H210270   0.368   3.420   4.781
 3422TIP3   OH210271   0.243   5.348   0.043
 3422TIP3    H110272   0.246   5.390   0.129
 3422TIP3    H210273   0.313   5.389  -0.007
 3423TIP3   OH210274   4.775   3.874   5.052
 3423TIP3    H110275   4.692   3.887   5.006
 3423TIP3    H210276   4.756   3.898   5.143
 3424TIP3   OH210277   5.909   4.494   0.086
 3424TIP3    H110278   5.871   4.430   0.146
 3424TIP3    H210279   5.860   4.575   0.104
 3425TIP3   OH210280   6.246   2.534   2.180
 3425TIP3    H110281   6.261   2.484   2.260
 3425TIP3    H210282   6.325   2.586   2.168
 3426TIP3   OH210283   5.457   0.838   4.246
 3426TIP3    H110284   5.516   0.858   4.319
 3426TIP3    H210285   5.501   0.768   4.198
 3427TIP3   OH210286   6.168   3.637   3.716
 3427TIP3    H110287   6.159   3.554   3.763
 3427TIP3    H210288   6.197   3.699   3.782
 3428TIP3   OH210289   4.931   1.765   3.451
 3428TIP3    H110290   4.893   1.828   3.511
 3428TIP3    H210291   4.986   1.817   3.393
 3429TIP3   OH210292   0.154   5.758   4.487
 3429TIP3    H110293   0.075   5.708   4.510
 3429TIP3    H210294   0.134   5.796   4.401
 3430TIP3   OH210295   1.907   1.892   1.415
 3430TIP3    H110296   1.981   1.900   1.475
 3430TIP3    H210297   1.840   1.845   1.466
 3431TIP3   OH210298   5.083   1.426   3.693
 3431TIP3    H110299   5.167   1.442   3.651
 3431TIP3    H210300   5.029   1.386   3.625
 3432TIP3   OH210301   0.777   1.985   1.700
 3432TIP3    H110302   0.762   1.948   1.787
 3432TIP3    H210303   0.735   1.923   1.640
 3433TIP3   OH210304   1.639   1.448   0.374
 3433TIP3    H110305   1.625   1.422   0.465
 3433TIP3    H210306   1.708   1.390   0.343
 3434TIP3   OH210307   4.916   1.422   1.236
 3434TIP3    H110308   4.917   1.326   1.228
 3434TIP3    H210309   4.967   1.452   1.161
 3435TIP3   OH210310   0.836   4.148   2.707
 3435TIP3    H110311   0.860   4.142   2.615
 3435TIP3    H210312   0.773   4.076   2.720
 3436TIP3   OH210313   0.737   0.083   2.830
 3436TIP3    H110314   0.816   0.123   2.865
 3436TIP3    H210315   0.762   0.052   2.743
 3437TIP3   OH210316   0.690   0.068   4.639
 3437TIP3    H110317   0.664   0.119   4.716
 3437TIP3    H210318   0.675  -0.023   4.664
 3438TIP3   OH210319   0.304   5.416   2.830
 3438TIP3    H110320   0.285   5.508   2.810
 3438TIP3    H210321   0.329   5.378   2.745
 3439TIP3   OH210322   0.029   4.295   1.805
 3439TIP3    H110323  -0.030   4.230   1.843
 3439TIP3    H210324   0.027   4.369   1.866
 3440TIP3   OH210325   1.562   5.529   4.992
 3440TIP3    H110326   1.573   5.476   4.913
 3440TIP3    H210327   1.628   5.495   5.053
 3441TIP3   OH210328   5.363   2.479   3.696
 3441TIP3    H110329   5.440   2.489   3.640
 3441TIP3    H210330   5.399   2.473   3.784
 3442TIP3   OH210331   2.804   3.841   1.428
 3442TIP3    H110332   2.783   3.759   1.474
 3442TIP3    H210333   2.812   3.815   1.336
 3443TIP3   OH210334   3.198   0.756   0.454
 3443TIP3    H110335   3.263   0.720   0.515
 3443TIP3    H210336   3.133   0.687   0.445
 3444TIP3   OH210337   5.791   4.275   4.097
 3444TIP3    H110338   5.706   4.268   4.139
 3444TIP3    H210339   5.838   4.196   4.125
 3445TIP3   OH210340   0.420   3.565   4.189
 3445TIP3    H110341   0.399   3.642   4.137
 3445TIP3    H210342   0.399   3.589   4.279
 3446TIP3   OH210343   0.386   5.946   3.957
 3446TIP3    H110344   0.438   6.015   4.000
 3446TIP3    H210345   0.298   5.956   3.994
 3447TIP3   OH210346   2.220   3.511   1.884
 3447TIP3    H110347   2.302   3.492   1.840
 3447TIP3    H210348   2.233   3.598   1.922
 3448TIP3   OH210349   1.137   0.297   2.213
 3448TIP3    H110350   1.223   0.320   2.177
 3448TIP3    H210351   1.156   0.260   2.299
 3449TIP3   OH210352   5.162   2.274   0.371
 3449TIP3    H110353   5.108   2.353   0.374
 3449TIP3    H210354   5.213   2.283   0.290
 3450TIP3   OH210355   2.142   4.147   4.048
 3450TIP3    H110356   2.182   4.111   4.127
 3450TIP3    H210357   2.048   4.132   4.060
 3451TIP3   OH210358   0.761   3.807   1.203
 3451TIP3    H110359   0.716   3.849   1.130
 3451TIP3    H210360   0.752   3.713   1.187
 3452TIP3   OH210361   1.547   1.413   1.739
 3452TIP3    H110362   1.520   1.327   1.709
 3452TIP3    H210363   1.596   1.396   1.820
 3453TIP3   OH210364   4.766   3.164   4.999
 3453TIP3    H110365   4.788   3.257   4.988
 3453TIP3    H210366   4.675   3.165   5.030
 3454TIP3   OH210367   1.588   5.824   1.386
 3454TIP3    H110368   1.659   5.767   1.417
 3454TIP3    H210369   1.521   5.763   1.354
 3455TIP3   OH210370   0.563   5.725   4.616
 3455TIP3    H110371   0.613   5.784   4.671
 3455TIP3    H210372   0.482   5.708   4.665
 3456TIP3   OH210373   3.480   5.120   4.430
 3456TIP3    H110374   3.471   5.215   4.436
 3456TIP3    H210375   3.396   5.090   4.395
 3457TIP3   OH210376   2.007   0.272   1.851
 3457TIP3    H110377   1.916   0.242   1.852
 3457TIP3    H210378   2.055   0.204   1.802
 3458TIP3   OH210379   5.558   3.672   4.197
 3458TIP3    H110380   5.525   3.584   4.214
 3458TIP3    H210381   5.493   3.711   4.139
 3459TIP3   OH210382   3.911   4.770   4.892
 3459TIP3    H110383   3.833   4.814   4.857
 3459TIP3    H210384   3.881   4.680   4.907
 3460TIP3   OH210385   0.011   0.730   4.773
 3460TIP3    H110386   0.030   0.725   4.867
 3460TIP3    H210387  -0.034   0.814   4.763
 3461TIP3   OH210388   2.537   0.962   3.036
 3461TIP3    H110389   2.551   1.026   2.967
 3461TIP3    H210390   2.613   0.904   3.031
 3462TIP3   OH210391   5.346   0.518   4.309
 3462TIP3    H110392   5.424   0.529   4.363
 3462TIP3    H210393   5.380   0.500   4.222
 3463TIP3   OH210394   4.958   3.767   4.588
 3463TIP3    H110395   4.973   3.856   4.555
 3463TIP3    H210396   5.004   3.766   4.672
 3464TIP3   OH210397   2.111   2.212   3.911
 3464TIP3    H110398   2.174   2.281   3.890
 3464TIP3    H210399   2.076   2.235   3.996
 3465TIP3   OH210400   2.332   1.145   1.370
 3465TIP3    H110401   2.270   1.089   1.416
 3465TIP3    H210402   2.283   1.225   1.350
 3466TIP3   OH210403   4.589   5.096   3.869
 3466TIP3    H110404   4.554   5.025   3.923
 3466TIP3    H210405   4.540   5.173   3.896
 3467TIP3   OH210406   1.692   3.979   3.499
 3467TIP3    H110407   1.726   3.947   3.583
 3467TIP3    H210408   1.635   4.053   3.524
 3468TIP3   OH210409   4.792   0.233   2.773
 3468TIP3    H110410   4.854   0.184   2.826
 3468TIP3    H210411   4.744   0.165   2.724
 3469TIP3   OH210412   0.378   0.560   4.800
 3469TIP3    H110413   0.311   0.578   4.866
 3469TIP3    H210414   0.382   0.464   4.794
 3470TIP3   OH210415   5.528   1.894   4.980
 3470TIP3    H110416   5.458   1.959   4.985
 3470TIP3    H210417   5.570   1.910   4.896
 3471TIP3   OH210418   5.229   1.879   3.691
 3471TIP3    H110419   5.139   1.908   3.707
 3471TIP3    H210420   5.226   1.837   3.605
 3472TIP3   OH210421   3.941   4.163   3.503
 3472TIP3    H110422   3.934   4.076   3.465
 3472TIP3    H210423   4.031   4.168   3.535
 3473TIP3   OH210424   5.457   4.481   1.769
 3473TIP3    H110425   5.502   4.462   1.851
 3473TIP3    H210426   5.514   4.445   1.702
 3474TIP3   OH210427   3.062   3.522   1.131
 3474TIP3    H110428   3.045   3.606   1.174
 3474TIP3    H210429   3.108   3.470   1.197
 3475TIP3   OH210430   0.644   2.522   0.767
 3475TIP3    H110431   0.699   2.449   0.796
 3475TIP3    H210432   0.660   2.591   0.832
 3476TIP3   OH210433   5.797   1.089   3.492
 3476TIP3    H110434   5.872   1.076   3.434
 3476TIP3    H210435   5.791   1.184   3.502
 3477TIP3   OH210436   3.418   5.377   4.428
 3477TIP3    H110437   3.473   5.415   4.496
 3477TIP3    H210438   3.436   5.429   4.350
 3478TIP3   OH210439   2.971   4.186   4.237
 3478TIP3    H110440   2.969   4.192   4.142
 3478TIP3    H210441   2.996   4.274   4.266
 3479TIP3   OH210442   2.594   5.896   0.040
 3479TIP3    H110443   2.512   5.897   0.089
 3479TIP3    H210444   2.576   5.951  -0.037
 3480TIP3   OH210445   5.134   3.688   3.509
 3480TIP3    H110446   5.193   3.725   3.444
 3480TIP3    H210447   5.068   3.641   3.458
 3481TIP3   OH210448   6.046   0.367   3.387
 3481TIP3    H110449   6.047   0.398   3.296
 3481TIP3    H210450   5.977   0.419   3.429
 3482TIP3   OH210451   5.776   5.860   0.064
 3482TIP3    H110452   5.760   5.831  -0.026
 3482TIP3    H210453   5.699   5.913   0.085
 3483TIP3   OH210454   1.916   0.622   3.893
 3483TIP3    H110455   1.898   0.582   3.808
 3483TIP3    H210456   1.982   0.689   3.875
 3484TIP3   OH210457   1.158   2.049   4.748
 3484TIP3    H110458   1.094   2.097   4.695
 3484TIP3    H210459   1.224   2.020   4.685
 3485TIP3   OH210460   0.817   1.706   3.174
 3485TIP3    H110461   0.814   1.751   3.090
 3485TIP3    H210462   0.860   1.768   3.233
 3486TIP3   OH210463   2.067   3.978   5.118
 3486TIP3    H110464   2.134   3.912   5.137
 3486TIP3    H210465   1.984   3.931   5.127
 3487TIP3   OH210466   2.848   3.903   2.167
 3487TIP3    H110467   2.765   3.858   2.178
 3487TIP3    H210468   2.849   3.968   2.237
 3488TIP3   OH210469   4.112   0.645   1.869
 3488TIP3    H110470   4.132   0.552   1.869
 3488TIP3    H210471   4.155   0.679   1.790
 3489TIP3   OH210472   0.911   4.461   3.131
 3489TIP3    H110473   0.969   4.423   3.197
 3489TIP3    H210474   0.920   4.403   3.056
 3490TIP3   OH210475   0.695   3.264   1.549
 3490TIP3    H110476   0.725   3.244   1.460
 3490TIP3    H210477   0.609   3.304   1.536
 3491TIP3   OH210478   5.549   5.007   4.741
 3491TIP3    H110479   5.591   5.091   4.759
 3491TIP3    H210480   5.478   5.028   4.681
 3492TIP3   OH210481   2.861   2.315   0.305
 3492TIP3    H110482   2.947   2.294   0.270
 3492TIP3    H210483   2.799   2.277   0.242
 3493TIP3   OH210484   1.298   4.616   3.273
 3493TIP3    H110485   1.281   4.666   3.194
 3493TIP3    H210486   1.393   4.603   3.273
 3494TIP3   OH210487   3.437   1.135   2.041
 3494TIP3    H110488   3.369   1.190   2.081
 3494TIP3    H210489   3.404   1.116   1.954
 3495TIP3   OH210490   3.102   2.997   2.762
 3495TIP3    H110491   3.116   2.973   2.670
 3495TIP3    H210492   3.044   2.929   2.796
 3496TIP3   OH210493   4.333   3.682   1.506
 3496TIP3    H110494   4.327   3.769   1.545
 3496TIP3    H210495   4.380   3.629   1.572
 3497TIP3   OH210496   4.268   1.374   0.522
 3497TIP3    H110497   4.210   1.435   0.567
 3497TIP3    H210498   4.242   1.288   0.554
 3498TIP3   OH210499   2.273   1.666   3.157
 3498TIP3    H110500   2.364   1.635   3.160
 3498TIP3    H210501   2.225   1.606   3.213
 3499TIP3   OH210502   2.781   3.484   2.653
 3499TIP3    H110503   2.737   3.419   2.707
 3499TIP3    H210504   2.712   3.518   2.595
 3500TIP3   OH210505   1.306   0.692   4.735
 3500TIP3    H110506   1.255   0.635   4.793
 3500TIP3    H210507   1.250   0.769   4.722
 3501TIP3   OH210508   2.455   1.920   4.597
 3501TIP3    H110509   2.365   1.919   4.627
 3501TIP3    H210510   2.497   1.991   4.646
 3502TIP3   OH210511   0.334   5.859   2.810
 3502TIP3    H110512   0.382   5.901   2.738
 3502TIP3    H210513   0.304   5.776   2.772
 3503TIP3   OH210514   6.243   1.006   1.501
 3503TIP3    H110515   6.156   1.013   1.540
 3503TIP3    H210516   6.227   0.971   1.414
 3504TIP3   OH210517   1.751   3.843   2.181
 3504TIP3    H110518   1.782   3.907   2.116
 3504TIP3    H210519   1.814   3.849   2.252
 3505TIP3   OH210520   3.934   5.154   0.074
 3505TIP3    H110521   4.027   5.158   0.094
 3505TIP3    H210522   3.902   5.079   0.124
 3506TIP3   OH210523   6.262   5.306   3.995
 3506TIP3    H110524   6.321   5.323   4.068
 3506TIP3    H210525   6.252   5.390   3.951
 3507TIP3   OH210526   5.897   2.376   0.829
 3507TIP3    H110527   5.807   2.394   0.857
 3507TIP3    H210528   5.951   2.408   0.901
 3508TIP3   OH210529   5.708   2.344   3.029
 3508TIP3    H110530   5.697   2.322   2.936
 3508TIP3    H210531   5.619   2.363   3.059
 3509TIP3   OH210532   4.130   2.887   4.567
 3509TIP3    H110533   4.191   2.920   4.501
 3509TIP3    H210534   4.185   2.866   4.642
 3510TIP3   OH210535   1.152   3.020   2.505
 3510TIP3    H110536   1.081   2.995   2.447
 3510TIP3    H210537   1.231   3.006   2.453
 3511TIP3   OH210538   4.288   1.921   4.516
 3511TIP3    H110539   4.316   1.834   4.542
 3511TIP3    H210540   4.330   1.980   4.578
 3512TIP3   OH210541   4.158   2.166   1.097
 3512TIP3    H110542   4.246   2.203   1.089
 3512TIP3    H210543   4.126   2.198   1.181
 3513TIP3   OH210544   5.078   1.987   4.133
 3513TIP3    H110545   5.138   1.994   4.059
 3513TIP3    H210546   5.005   1.934   4.100
 3514TIP3   OH210547   5.022   1.074   2.169
 3514TIP3    H110548   5.071   1.014   2.225
 3514TIP3    H210549   4.949   1.104   2.223
 3515TIP3   OH210550   6.186   2.049   3.460
 3515TIP3    H110551   6.156   1.963   3.490
 3515TIP3    H210552   6.279   2.052   3.483
 3516TIP3   OH210553   4.641   3.807   4.283
 3516TIP3    H110554   4.598   3.722   4.297
 3516TIP3    H210555   4.638   3.849   4.369
 3517TIP3   OH210556   1.670   2.814   4.549
 3517TIP3    H110557   1.739   2.796   4.612
 3517TIP3    H210558   1.702   2.778   4.467
 3518TIP3   OH210559   3.454   2.783   4.875
 3518TIP3    H110560   3.415   2.852   4.928
 3518TIP3    H210561   3.403   2.783   4.794
 3519TIP3   OH210562   2.700   5.008   3.113
 3519TIP3    H110563   2.786   5.015   3.153
 3519TIP3    H210564   2.717   4.993   3.020
 3520TIP3   OH210565   6.136   5.173   0.506
 3520TIP3    H110566   6.059   5.231   0.498
 3520TIP3    H210567   6.191   5.215   0.572
 3521TIP3   OH210568   5.199   4.926   0.829
 3521TIP3    H110569   5.111   4.963   0.823
 3521TIP3    H210570   5.189   4.847   0.882
 3522TIP3   OH210571   1.048   4.548   4.382
 3522TIP3    H110572   1.137   4.514   4.392
 3522TIP3    H210573   1.045   4.626   4.438
 3523TIP3   OH210574   2.949   1.581   2.193
 3523TIP3    H110575   2.894   1.518   2.240
 3523TIP3    H210576   2.969   1.539   2.110
 3524TIP3   OH210577   1.421   4.622   4.150
 3524TIP3    H110578   1.503   4.671   4.153
 3524TIP3    H210579   1.447   4.533   4.125
 3525TIP3   OH210580   5.673   0.616   0.371
 3525TIP3    H110581   5.590   0.659   0.350
 3525TIP3    H210582   5.648   0.544   0.429
 3526TIP3   OH210583   1.765   1.311   2.861
 3526TIP3    H110584   1.837   1.297   2.799
 3526TIP3    H210585   1.687   1.315   2.807
 3527TIP3   OH210586   2.750   4.104   3.943
 3527TIP3    H110587   2.721   4.072   4.028
 3527TIP3    H210588   2.817   4.041   3.916
 3528TIP3   OH210589   4.146   1.288   1.686
 3528TIP3    H110590   4.204   1.295   1.611
 3528TIP3    H210591   4.181   1.349   1.751
 3529TIP3   OH210592   5.589   4.339   4.484
 3529TIP3    H110593   5.541   4.391   4.548
 3529TIP3    H210594   5.681   4.358   4.503
 3530TIP3   OH210595   4.081   2.973   3.383
 3530TIP3    H110596   4.093   2.919   3.461
 3530TIP3    H210597   4.005   3.028   3.404
 3531TIP3   OH210598   4.190   5.113   2.779
 3531TIP3    H110599   4.267   5.161   2.808
 3531TIP3    H210600   4.223   5.025   2.757
 3532TIP3   OH210601   4.086   0.550   4.976
 3532TIP3    H110602   4.129   0.510   5.051
 3532TIP3    H210603   4.105   0.644   4.984
 3533TIP3   OH210604   4.342   2.714   1.501
 3533TIP3    H110605   4.407   2.735   1.434
 3533TIP3    H210606   4.271   2.776   1.487
 3534TIP3   OH210607   4.679   0.664   0.864
 3534TIP3    H110608   4.711   0.683   0.776
 3534TIP3    H210609   4.598   0.715   0.872
 3535TIP3   OH210610   0.975   4.340   5.116
 3535TIP3    H110611   0.992   4.401   5.044
 3535TIP3    H210612   0.972   4.253   5.074
 3536TIP3   OH210613   6.010   4.773   2.456
 3536TIP3    H110614   5.931   4.805   2.412
 3536TIP3    H210615   6.070   4.750   2.385
 3537TIP3   OH210616   0.492   5.804   3.744
 3537TIP3    H110617   0.486   5.711   3.767
 3537TIP3    H210618   0.476   5.850   3.826
 3538TIP3   OH210619   6.162   1.471   4.759
 3538TIP3    H110620   6.217   1.514   4.824
 3538TIP3    H210621   6.154   1.536   4.689
 3539TIP3   OH210622   4.238   4.838   4.751
 3539TIP3    H110623   4.145   4.817   4.741
 3539TIP3    H210624   4.243   4.881   4.836
 3540TIP3   OH210625   0.779   2.706   2.192
 3540TIP3    H110626   0.838   2.750   2.252
 3540TIP3    H210627   0.795   2.748   2.107
 3541TIP3   OH210628   1.412   1.496   1.249
 3541TIP3    H110629   1.436   1.522   1.160
 3541TIP3    H210630   1.424   1.575   1.301
 3542TIP3   OH210631   2.662   1.311   3.913
 3542TIP3    H110632   2.671   1.407   3.912
 3542TIP3    H210633   2.707   1.283   3.833
 3543TIP3   OH210634   0.606   0.266   2.639
 3543TIP3    H110635   0.631   0.237   2.726
 3543TIP3    H210636   0.689   0.286   2.595
 3544TIP3   OH210637   5.469   1.604   4.637
 3544TIP3    H110638   5.391   1.553   4.617
 3544TIP3    H210639   5.473   1.607   4.732
 3545TIP3   OH210640   2.572   0.815   1.673
 3545TIP3    H110641   2.588   0.723   1.696
 3545TIP3    H210642   2.488   0.813   1.626
 3546TIP3   OH210643   0.772   5.449   4.104
 3546TIP3    H110644   0.819   5.491   4.033
 3546TIP3    H210645   0.785   5.506   4.180
 3547TIP3   OH210646   3.629   5.543   0.399
 3547TIP3    H110647   3.613   5.470   0.340
 3547TIP3    H210648   3.705   5.516   0.451
 3548TIP3   OH210649   5.345   2.906   4.305
 3548TIP3    H110650   5.308   2.974   4.249
 3548TIP3    H210651   5.270   2.871   4.353
 3549TIP3   OH210652   1.845   4.725   0.498
 3549TIP3    H110653   1.826   4.818   0.508
 3549TIP3    H210654   1.849   4.711   0.403
 3550TIP3   OH210655   4.410   4.750   1.949
 3550TIP3    H110656   4.493   4.717   1.916
 3550TIP3    H210657   4.395   4.832   1.901
 3551TIP3   OH210658   4.179   1.422   5.112
 3551TIP3    H110659   4.089   1.425   5.082
 3551TIP3    H210660   4.222   1.359   5.054
 3552TIP3   OH210661   2.851   4.915   0.915
 3552TIP3    H110662   2.881   4.956   0.996
 3552TIP3    H210663   2.824   4.989   0.860
 3553TIP3   OH210664   1.176   2.668   2.254
 3553TIP3    H110665   1.227   2.727   2.198
 3553TIP3    H210666   1.241   2.615   2.300
 3554TIP3   OH210667   4.193   1.885   5.201
 3554TIP3    H110668   4.243   1.963   5.181
 3554TIP3    H210669   4.227   1.818   5.141
 3555TIP3   OH210670   0.118   2.157   1.113
 3555TIP3    H110671   0.104   2.123   1.202
 3555TIP3    H210672   0.060   2.104   1.058
 3556TIP3   OH210673   0.644   2.140   5.009
 3556TIP3    H110674   0.585   2.106   4.942
 3556TIP3    H210675   0.590   2.201   5.060
 3557TIP3   OH210676   3.671   4.942   0.983
 3557TIP3    H110677   3.715   4.994   0.916
 3557TIP3    H210678   3.615   4.882   0.934
 3558TIP3   OH210679   4.886   1.005   3.703
 3558TIP3    H110680   4.851   1.080   3.751
 3558TIP3    H210681   4.811   0.946   3.692
 3559TIP3   OH210682   0.343   1.035   3.181
 3559TIP3    H110683   0.418   0.986   3.146
 3559TIP3    H210684   0.321   1.097   3.113
 3560TIP3   OH210685   0.037   4.597   0.168
 3560TIP3    H110686  -0.008   4.680   0.183
 3560TIP3    H210687  -0.023   4.548   0.111
 3561TIP3   OH210688   4.771   4.135   4.320
 3561TIP3    H110689   4.839   4.189   4.362
 3561TIP3    H210690   4.778   4.154   4.227
 3562TIP3   OH210691   1.161   3.025   3.406
 3562TIP3    H110692   1.235   3.074   3.372
 3562TIP3    H210693   1.123   2.981   3.330
 3563TIP3   OH210694   0.130   0.158   2.373
 3563TIP3    H110695   0.148   0.240   2.419
 3563TIP3    H210696   0.087   0.185   2.292
 3564TIP3   OH210697   2.733   3.142   2.054
 3564TIP3    H110698   2.652   3.092   2.062
 3564TIP3    H210699   2.789   3.089   1.998
 3565TIP3   OH210700   0.792   4.458   3.444
 3565TIP3    H110701   0.760   4.374   3.478
 3565TIP3    H210702   0.876   4.437   3.403
 3566TIP3   OH210703   0.827   1.113   1.347
 3566TIP3    H110704   0.837   1.052   1.275
 3566TIP3    H210705   0.858   1.066   1.424
 3567TIP3   OH210706   0.853   3.197   4.700
 3567TIP3    H110707   0.858   3.276   4.647
 3567TIP3    H210708   0.912   3.214   4.774
 3568TIP3   OH210709   3.759   5.666   4.739
 3568TIP3    H110710   3.806   5.749   4.733
 3568TIP3    H210711   3.679   5.687   4.788
 3569TIP3   OH210712   1.444   1.238   3.622
 3569TIP3    H110713   1.349   1.242   3.620
 3569TIP3    H210714   1.472   1.329   3.608
 3570TIP3   OH210715   5.634   4.979   1.685
 3570TIP3    H110716   5.578   5.050   1.716
 3570TIP3    H210717   5.584   4.900   1.702
 3571TIP3   OH210718   4.389   4.825   3.462
 3571TIP3    H110719   4.301   4.852   3.439
 3571TIP3    H210720   4.408   4.870   3.545
 3572TIP3   OH210721   0.075   0.245   4.898
 3572TIP3    H110722   0.094   0.170   4.841
 3572TIP3    H210723  -0.020   0.244   4.908
 3573TIP3   OH210724   0.525   1.141   0.275
 3573TIP3    H110725   0.586   1.195   0.223
 3573TIP3    H210726   0.582   1.083   0.325
 3574TIP3   OH210727   4.040   3.406   0.645
 3574TIP3    H110728   4.054   3.458   0.724
 3574TIP3    H210729   4.077   3.459   0.575
 3575TIP3   OH210730   4.337   4.324   3.223
 3575TIP3    H110731   4.349   4.264   3.297
 3575TIP3    H210732   4.426   4.348   3.197
 3576TIP3   OH210733   2.048   1.808   2.603
 3576TIP3    H110734   1.980   1.748   2.635
 3576TIP3    H210735   2.127   1.781   2.650
 3577TIP3   OH210736   1.409   0.098   1.778
 3577TIP3    H110737   1.488   0.148   1.759
 3577TIP3    H210738   1.341   0.164   1.791
 3578TIP3   OH210739   5.402   0.630   3.043
 3578TIP3    H110740   5.482   0.662   3.001
 3578TIP3    H210741   5.417   0.537   3.056
 3579TIP3   OH210742   6.128   5.637   2.746
 3579TIP3    H110743   6.116   5.730   2.765
 3579TIP3    H210744   6.046   5.610   2.705
 3580TIP3   OH210745   5.231   4.543   0.604
 3580TIP3    H110746   5.265   4.458   0.629
 3580TIP3    H210747   5.152   4.524   0.554
 3581TIP3   OH210748   1.689   4.008   1.912
 3581TIP3    H110749   1.597   3.988   1.896
 3581TIP3    H210750   1.733   3.924   1.905
 3582TIP3   OH210751   1.473   5.711   0.310
 3582TIP3    H110752   1.404   5.658   0.271
 3582TIP3    H210753   1.507   5.763   0.238
 3583TIP3   OH210754   1.537   1.731   1.357
 3583TIP3    H110755   1.562   1.722   1.265
 3583TIP3    H210756   1.484   1.810   1.360
 3584TIP3   OH210757   2.077   2.403   4.962
 3584TIP3    H110758   2.081   2.340   5.034
 3584TIP3    H210759   2.087   2.350   4.883
 3585TIP3   OH210760   5.664   5.631   2.750
 3585TIP3    H110761   5.688   5.545   2.715
 3585TIP3    H210762   5.571   5.623   2.771
 3586TIP3   OH210763   4.203   2.245   3.607
 3586TIP3    H110764   4.139   2.299   3.653
 3586TIP3    H210765   4.235   2.301   3.536
 3587TIP3   OH210766   0.937   2.836   1.982
 3587TIP3    H110767   0.946   2.912   1.925
 3587TIP3    H210768   1.024   2.798   1.985
 3588TIP3   OH210769   5.186   2.502   1.056
 3588TIP3    H110770   5.173   2.421   1.107
 3588TIP3    H210771   5.098   2.532   1.037
 3589TIP3   OH210772   1.543   1.695   4.383
 3589TIP3    H110773   1.480   1.626   4.360
 3589TIP3    H210774   1.593   1.659   4.456
 3590TIP3   OH210775   5.046   0.698   3.731
 3590TIP3    H110776   4.973   0.662   3.782
 3590TIP3    H210777   5.027   0.791   3.722
 3591TIP3   OH210778   1.425   2.643   4.226
 3591TIP3    H110779   1.414   2.621   4.133
 3591TIP3    H210780   1.455   2.734   4.225
 3592TIP3   OH210781   0.561   0.762   4.411
 3592TIP3    H110782   0.580   0.674   4.378
 3592TIP3    H210783   0.516   0.748   4.494
 3593TIP3   OH210784   5.019   1.170   3.231
 3593TIP3    H110785   4.986   1.086   3.199
 3593TIP3    H210786   5.113   1.158   3.237
 3594TIP3   OH210787   1.603   5.185   2.132
 3594TIP3    H110788   1.534   5.148   2.187
 3594TIP3    H210789   1.643   5.109   2.090
 3595TIP3   OH210790   5.041   5.947   1.674
 3595TIP3    H110791   5.029   6.041   1.659
 3595TIP3    H210792   5.106   5.943   1.744
 3596TIP3   OH210793   4.311   4.198   5.020
 3596TIP3    H110794   4.266   4.174   4.939
 3596TIP3    H210795   4.266   4.148   5.088
 3597TIP3   OH210796   0.779   1.149   3.764
 3597TIP3    H110797   0.740   1.173   3.680
 3597TIP3    H210798   0.708   1.160   3.827
 3598TIP3   OH210799   5.205   0.216   1.227
 3598TIP3    H110800   5.121   0.171   1.215
 3598TIP3    H210801   5.201   0.250   1.317
 3599TIP3   OH210802   3.015   0.160   3.560
 3599TIP3    H110803   2.964   0.125   3.487
 3599TIP3    H210804   3.103   0.126   3.547
 3600TIP3   OH210805   0.109   5.120   5.114
 3600TIP3    H110806   0.172   5.063   5.072
 3600TIP3    H210807   0.161   5.195   5.145
 3601TIP3   OH210808   6.022   2.206   2.264
 3601TIP3    H110809   5.940   2.163   2.288
 3601TIP3    H210810   6.088   2.138   2.274
 3602TIP3   OH210811   1.267   3.093   4.867
 3602TIP3    H110812   1.266   3.176   4.915
 3602TIP3    H210813   1.222   3.032   4.925
 3603TIP3   OH210814   3.310   4.571   2.682
 3603TIP3    H110815   3.285   4.493   2.632
 3603TIP3    H210816   3.228   4.605   2.716
 3604TIP3   OH210817   0.559   1.771   3.021
 3604TIP3    H110818   0.612   1.692   3.022
 3604TIP3    H210819   0.523   1.775   2.933
 3605TIP3   OH210820   1.952   3.600   2.158
 3605TIP3    H110821   1.906   3.537   2.102
 3605TIP3    H210822   1.997   3.657   2.096
 3606TIP3   OH210823   5.664   5.569   0.124
 3606TIP3    H110824   5.581   5.601   0.089
 3606TIP3    H210825   5.715   5.647   0.140
 3607TIP3   OH210826   2.999   3.886   1.935
 3607TIP3    H110827   2.960   3.897   2.022
 3607TIP3    H210828   3.033   3.973   1.913
 3608TIP3   OH210829   5.252   5.508   4.233
 3608TIP3    H110830   5.342   5.479   4.253
 3608TIP3    H210831   5.210   5.432   4.195
 3609TIP3   OH210832   3.333   5.468   3.172
 3609TIP3    H110833   3.323   5.488   3.079
 3609TIP3    H210834   3.319   5.373   3.178
 3610TIP3   OH210835   2.734   2.866   2.259
 3610TIP3    H110836   2.735   2.838   2.350
 3610TIP3    H210837   2.821   2.905   2.245
 3611TIP3   OH210838   2.679   4.825   1.206
 3611TIP3    H110839   2.589   4.840   1.178
 3611TIP3    H210840   2.718   4.773   1.135
 3612TIP3   OH210841   3.624   4.600   2.733
 3612TIP3    H110842   3.538   4.582   2.771
 3612TIP3    H210843   3.651   4.518   2.693
 3613TIP3   OH210844   3.449   1.607   1.145
 3613TIP3    H110845   3.444   1.622   1.051
 3613TIP3    H210846   3.443   1.512   1.155
 3614TIP3   OH210847   0.881   2.545   1.235
 3614TIP3    H110848   0.801   2.588   1.265
 3614TIP3    H210849   0.949   2.577   1.295
 3615TIP3   OH210850   5.849   5.432   3.931
 3615TIP3    H110851   5.901   5.429   3.851
 3615TIP3    H210852   5.878   5.511   3.976
 3616TIP3   OH210853   5.957   1.231   4.005
 3616TIP3    H110854   5.895   1.303   4.016
 3616TIP3    H210855   5.956   1.185   4.089
 3617TIP3   OH210856   5.109   5.540   2.863
 3617TIP3    H110857   5.195   5.582   2.856
 3617TIP3    H210858   5.128   5.453   2.897
 3618TIP3   OH210859   1.132   4.164   3.773
 3618TIP3    H110860   1.197   4.214   3.822
 3618TIP3    H210861   1.067   4.229   3.747
 3619TIP3   OH210862   4.078   5.732   2.328
 3619TIP3    H110863   3.989   5.714   2.298
 3619TIP3    H210864   4.079   5.827   2.343
 3620TIP3   OH210865   1.976   4.355   2.101
 3620TIP3    H110866   1.903   4.311   2.057
 3620TIP3    H210867   1.998   4.429   2.044
 3621TIP3   OH210868   6.304   3.238   3.114
 3621TIP3    H110869   6.335   3.303   3.051
 3621TIP3    H210870   6.208   3.246   3.112
 3622TIP3   OH210871   0.283   4.689   3.327
 3622TIP3    H110872   0.199   4.674   3.285
 3622TIP3    H210873   0.262   4.733   3.409
 3623TIP3   OH210874   2.805   1.250   1.767
 3623TIP3    H110875   2.794   1.170   1.715
 3623TIP3    H210876   2.726   1.253   1.822
 3624TIP3   OH210877   2.397   3.829   0.725
 3624TIP3    H110878   2.365   3.874   0.803
 3624TIP3    H210879   2.428   3.899   0.668
 3625TIP3   OH210880   4.092   2.910   4.093
 3625TIP3    H110881   4.065   2.820   4.076
 3625TIP3    H210882   4.134   2.938   4.012
 3626TIP3   OH210883   3.464   0.862   3.586
 3626TIP3    H110884   3.508   0.817   3.658
 3626TIP3    H210885   3.373   0.834   3.591
 3627TIP3   OH210886   0.146   0.520   4.962
 3627TIP3    H110887   0.055   0.519   4.990
 3627TIP3    H210888   0.173   0.428   4.964
 3628TIP3   OH210889   1.113   2.146   1.139
 3628TIP3    H110890   1.101   2.191   1.055
 3628TIP3    H210891   1.083   2.209   1.204
 3629TIP3   OH210892   5.805   1.369   1.649
 3629TIP3    H110893   5.872   1.428   1.681
 3629TIP3    H210894   5.833   1.346   1.561
 3630TIP3   OH210895   3.477   2.992   2.612
 3630TIP3    H110896   3.414   3.045   2.563
 3630TIP3    H210897   3.423   2.923   2.652
 3631TIP3   OH210898   2.284   4.755   0.263
 3631TIP3    H110899   2.206   4.781   0.214
 3631TIP3    H210900   2.251   4.696   0.331
 3632TIP3   OH210901   2.317   3.577   2.194
 3632TIP3    H110902   2.356   3.496   2.162
 3632TIP3    H210903   2.231   3.551   2.229
 3633TIP3   OH210904   5.142   5.009   1.678
 3633TIP3    H110905   5.057   5.038   1.709
 3633TIP3    H210906   5.167   4.938   1.738
 3634TIP3   OH210907   1.263   5.323   3.558
 3634TIP3    H110908   1.278   5.232   3.584
 3634TIP3    H210909   1.172   5.325   3.531
 3635TIP3   OH210910   4.598   1.224   4.191
 3635TIP3    H110911   4.620   1.294   4.253
 3635TIP3    H210912   4.513   1.249   4.155
 3636TIP3   OH210913   4.473   1.668   1.863
 3636TIP3    H110914   4.503   1.741   1.917
 3636TIP3    H210915   4.519   1.680   1.779
 3637TIP3   OH210916   6.099   4.261   3.920
 3637TIP3    H110917   6.123   4.330   3.858
 3637TIP3    H210918   6.064   4.309   3.995
 3638TIP3   OH210919   1.452   2.223   3.062
 3638TIP3    H110920   1.524   2.238   3.001
 3638TIP3    H210921   1.376   2.264   3.020
 3639TIP3   OH210922   1.610   5.456   1.651
 3639TIP3    H110923   1.607   5.360   1.655
 3639TIP3    H210924   1.677   5.480   1.714
 3640TIP3   OH210925   3.388   3.152   1.173
 3640TIP3    H110926   3.399   3.222   1.108
 3640TIP3    H210927   3.330   3.190   1.239
 3641TIP3   OH210928   2.039   2.910   1.663
 3641TIP3    H110929   2.021   2.894   1.756
 3641TIP3    H210930   2.076   2.999   1.662
 3642TIP3   OH210931   5.656   3.155   4.643
 3642TIP3    H110932   5.653   3.084   4.578
 3642TIP3    H210933   5.749   3.170   4.658
 3643TIP3   OH210934   0.208   2.237   3.285
 3643TIP3    H110935   0.145   2.266   3.219
 3643TIP3    H210936   0.211   2.141   3.275
 3644TIP3   OH210937   3.750   5.073   2.476
 3644TIP3    H110938   3.729   5.164   2.499
 3644TIP3    H210939   3.751   5.027   2.560
 3645TIP3   OH210940   4.314   0.257   2.630
 3645TIP3    H110941   4.226   0.242   2.595
 3645TIP3    H210942   4.315   0.211   2.714
 3646TIP3   OH210943   0.097   3.028   4.698
 3646TIP3    H110944   0.011   3.071   4.699
 3646TIP3    H210945   0.078   2.936   4.685
 3647TIP3   OH210946   3.139   4.767   3.834
 3647TIP3    H110947   3.207   4.702   3.822
 3647TIP3    H210948   3.112   4.790   3.745
 3648TIP3   OH210949   1.616   5.091   2.576
 3648TIP3    H110950   1.585   5.175   2.542
 3648TIP3    H210951   1.699   5.075   2.533
 3649TIP3   OH210952   0.178   0.429   3.048
 3649TIP3    H110953   0.263   0.470   3.062
 3649TIP3    H210954   0.150   0.401   3.135
 3650TIP3   OH210955   4.571   3.037   0.962
 3650TIP3    H110956   4.544   2.946   0.972
 3650TIP3    H210957   4.605   3.042   0.873
 3651TIP3   OH210958   2.981   4.136   2.631
 3651TIP3    H110959   3.064   4.110   2.672
 3651TIP3    H210960   2.921   4.147   2.705
 3652TIP3   OH210961   5.024   0.714   3.376
 3652TIP3    H110962   5.051   0.772   3.305
 3652TIP3    H210963   5.106   0.679   3.411
 3653TIP3   OH210964   1.033   1.259   0.414
 3653TIP3    H110965   1.026   1.186   0.352
 3653TIP3    H210966   0.964   1.241   0.478
 3654TIP3   OH210967   0.328   5.646   2.403
 3654TIP3    H110968   0.274   5.709   2.357
 3654TIP3    H210969   0.297   5.561   2.373
 3655TIP3   OH210970   1.480   2.667   1.808
 3655TIP3    H110971   1.451   2.669   1.899
 3655TIP3    H210972   1.443   2.587   1.773
 3656TIP3   OH210973   3.091   3.669   4.425
 3656TIP3    H110974   3.086   3.731   4.497
 3656TIP3    H210975   3.091   3.583   4.467
 3657TIP3   OH210976   4.074   0.039   2.347
 3657TIP3    H110977   3.989  -0.005   2.345
 3657TIP3    H210978   4.065   0.104   2.417
 3658TIP3   OH210979   4.259   5.976   1.275
 3658TIP3    H110980   4.281   5.990   1.183
 3658TIP3    H210981   4.163   5.979   1.278
 3659TIP3   OH210982   2.189   1.768   4.447
 3659TIP3    H110983   2.124   1.802   4.385
 3659TIP3    H210984   2.206   1.679   4.417
 3660TIP3   OH210985   3.439   1.756   1.943
 3660TIP3    H110986   3.449   1.775   2.036
 3660TIP3    H210987   3.519   1.789   1.903
 3661TIP3   OH210988   2.274   3.824   3.323
 3661TIP3    H110989   2.258   3.751   3.383
 3661TIP3    H210990   2.196   3.826   3.267
 3662TIP3   OH210991   3.781   5.271   4.232
 3662TIP3    H110992   3.864   5.317   4.224
 3662TIP3    H210993   3.805   5.179   4.239
 3663TIP3   OH210994   3.269   2.378   4.984
 3663TIP3    H110995   3.279   2.308   5.049
 3663TIP3    H210996   3.179   2.409   4.997
 3664TIP3   OH210997   6.061   2.678   4.665
 3664TIP3    H110998   6.024   2.601   4.624
 3664TIP3    H210999   5.996   2.705   4.730
 3665TIP3   OH211000   5.099   5.515   3.959
 3665TIP3    H111001   5.136   5.431   3.987
 3665TIP3    H211002   5.023   5.490   3.905
 3666TIP3   OH211003   0.953   4.963   1.331
 3666TIP3    H111004   0.894   4.913   1.387
 3666TIP3    H211005   0.895   5.015   1.275
 3667TIP3   OH211006   2.534   2.620   0.382
 3667TIP3    H111007   2.567   2.547   0.433
 3667TIP3    H211008   2.517   2.689   0.446
 3668TIP3   OH211009   2.250   5.415   4.049
 3668TIP3    H111010   2.271   5.376   4.134
 3668TIP3    H211011   2.169   5.372   4.022
 3669TIP3   OH211012   2.555   4.707  -0.002
 3669TIP3    H111013   2.635   4.687   0.047
 3669TIP3    H211014   2.487   4.656   0.042
 3670TIP3   OH211015   0.327   5.517   4.450
 3670TIP3    H111016   0.410   5.543   4.411
 3670TIP3    H211017   0.273   5.597   4.446
 3671TIP3   OH211018   5.733   5.332   1.706
 3671TIP3    H111019   5.681   5.409   1.726
 3671TIP3    H211020   5.716   5.272   1.779
 3672TIP3   OH211021   3.022   1.928   0.638
 3672TIP3    H111022   3.045   2.010   0.594
 3672TIP3    H211023   3.078   1.862   0.597
 3673TIP3   OH211024   5.899   4.163   3.581
 3673TIP3    H111025   5.847   4.200   3.653
 3673TIP3    H211026   5.895   4.230   3.512
 3674TIP3   OH211027   5.119   3.575   2.729
 3674TIP3    H111028   5.058   3.505   2.702
 3674TIP3    H211029   5.064   3.637   2.776
 3675TIP3   OH211030   0.957   1.809   4.479
 3675TIP3    H111031   1.045   1.787   4.447
 3675TIP3    H211032   0.915   1.724   4.494
 3676TIP3   OH211033   6.103   5.682   2.030
 3676TIP3    H111034   6.157   5.735   2.089
 3676TIP3    H211035   6.055   5.746   1.979
 3677TIP3   OH211036   1.268   2.560   0.579
 3677TIP3    H111037   1.288   2.629   0.516
 3677TIP3    H211038   1.322   2.581   0.656
 3678TIP3   OH211039   1.317   4.372   1.449
 3678TIP3    H111040   1.412   4.361   1.452
 3678TIP3    H211041   1.289   4.321   1.373
 3679TIP3   OH211042   1.271   0.098   3.524
 3679TIP3    H111043   1.210   0.077   3.595
 3679TIP3    H211044   1.217   0.145   3.460
 3680TIP3   OH211045   0.314   0.961   0.747
 3680TIP3    H111046   0.316   0.923   0.659
 3680TIP3    H211047   0.388   0.922   0.792
 3681TIP3   OH211048   0.489   3.466   3.479
 3681TIP3    H111049   0.435   3.388   3.489
 3681TIP3    H211050   0.518   3.486   3.568
 3682TIP3   OH211051   4.792   3.544   4.557
 3682TIP3    H111052   4.857   3.520   4.491
 3682TIP3    H211053   4.819   3.631   4.587
 3683TIP3   OH211054   3.517   3.307   1.789
 3683TIP3    H111055   3.572   3.303   1.867
 3683TIP3    H211056   3.574   3.275   1.718
 3684TIP3   OH211057   3.866   0.493   4.577
 3684TIP3    H111058   3.816   0.564   4.619
 3684TIP3    H211059   3.803   0.453   4.517
 3685TIP3   OH211060   1.654   2.916   4.963
 3685TIP3    H111061   1.602   2.837   4.951
 3685TIP3    H211062   1.744   2.885   4.965
 3686TIP3   OH211063   3.431   0.852   0.111
 3686TIP3    H111064   3.345   0.865   0.152
 3686TIP3    H211065   3.487   0.823   0.183
 3687TIP3   OH211066   0.515   0.917   3.465
 3687TIP3    H111067   0.604   0.881   3.460
 3687TIP3    H211068   0.520   0.998   3.415
 3688TIP3   OH211069   4.294   1.689   5.022
 3688TIP3    H111070   4.316   1.606   5.063
 3688TIP3    H211071   4.264   1.666   4.934
 3689TIP3   OH211072   0.750   1.016   4.525
 3689TIP3    H111073   0.743   0.938   4.580
 3689TIP3    H211074   0.810   0.991   4.455
 3690TIP3   OH211075   2.169   2.643   5.086
 3690TIP3    H111076   2.152   2.619   5.177
 3690TIP3    H211077   2.146   2.565   5.036
 3691TIP3   OH211078   6.047   3.347   1.785
 3691TIP3    H111079   6.043   3.255   1.759
 3691TIP3    H211080   6.078   3.392   1.707
 3692TIP3   OH211081   1.062   1.436   3.081
 3692TIP3    H111082   1.062   1.527   3.051
 3692TIP3    H211083   1.130   1.393   3.029
 3693TIP3   OH211084   3.868   4.117   2.030
 3693TIP3    H111085   3.918   4.070   2.096
 3693TIP3    H211086   3.879   4.065   1.950
 3694TIP3   OH211087   2.771   4.656   3.757
 3694TIP3    H111088   2.686   4.682   3.793
 3694TIP3    H211089   2.784   4.566   3.788
 3695TIP3   OH211090   5.135   4.876   1.407
 3695TIP3    H111091   5.187   4.797   1.423
 3695TIP3    H211092   5.150   4.930   1.484
 3696TIP3   OH211093   0.332   5.522   3.138
 3696TIP3    H111094   0.267   5.592   3.129
 3696TIP3    H211095   0.342   5.488   3.049
 3697TIP3   OH211096   5.866   2.618   1.455
 3697TIP3    H111097   5.940   2.559   1.472
 3697TIP3    H211098   5.891   2.700   1.496
 3698TIP3   OH211099   6.026   4.487   0.987
 3698TIP3    H111100   6.073   4.566   1.011
 3698TIP3    H211101   6.036   4.429   1.062
 3699TIP3   OH211102   1.007   5.403   1.848
 3699TIP3    H111103   1.020   5.489   1.807
 3699TIP3    H211104   1.092   5.360   1.841
 3700TIP3   OH211105   6.016   1.080   1.643
 3700TIP3    H111106   5.946   1.101   1.581
 3700TIP3    H211107   6.039   1.164   1.682
 3701TIP3   OH211108   0.525   2.632   1.214
 3701TIP3    H111109   0.542   2.569   1.284
 3701TIP3    H211110   0.433   2.656   1.225
 3702TIP3   OH211111   3.607   5.483   1.374
 3702TIP3    H111112   3.567   5.539   1.308
 3702TIP3    H211113   3.653   5.415   1.325
 3703TIP3   OH211114   5.112   2.931   1.728
 3703TIP3    H111115   5.049   2.862   1.707
 3703TIP3    H211116   5.062   2.994   1.780
 3704TIP3   OH211117   4.710   2.054   3.775
 3704TIP3    H111118   4.674   1.994   3.840
 3704TIP3    H211119   4.645   2.056   3.705
 3705TIP3   OH211120   0.917   0.904   1.527
 3705TIP3    H111121   0.883   0.819   1.557
 3705TIP3    H211122   0.972   0.935   1.598
 3706TIP3   OH211123   2.967   1.420   0.736
 3706TIP3    H111124   2.913   1.423   0.814
 3706TIP3    H211125   3.025   1.345   0.750
 3707TIP3   OH211126   1.558   2.931   2.406
 3707TIP3    H111127   1.486   2.961   2.351
 3707TIP3    H211128   1.613   2.880   2.347
 3708TIP3   OH211129   5.417   4.490   3.953
 3708TIP3    H111130   5.352   4.524   3.892
 3708TIP3    H211131   5.392   4.526   4.038
 3709TIP3   OH211132   3.620   2.892   0.300
 3709TIP3    H111133   3.664   2.807   0.308
 3709TIP3    H211134   3.691   2.956   0.303
 3710TIP3   OH211135   3.315   2.683   0.198
 3710TIP3    H111136   3.356   2.614   0.251
 3710TIP3    H211137   3.291   2.750   0.262
 3711TIP3   OH211138   4.314   5.430   3.447
 3711TIP3    H111139   4.298   5.442   3.541
 3711TIP3    H211140   4.247   5.366   3.420
 3712TIP3   OH211141   0.424   0.704   3.316
 3712TIP3    H111142   0.401   0.661   3.399
 3712TIP3    H211143   0.468   0.785   3.343
 3713TIP3   OH211144   1.026   5.852   0.384
 3713TIP3    H111145   1.027   5.797   0.462
 3713TIP3    H211146   1.007   5.792   0.312
 3714TIP3   OH211147   4.039   3.928   1.784
 3714TIP3    H111148   3.990   3.863   1.735
 3714TIP3    H211149   4.071   3.881   1.861
 3715TIP3   OH211150   1.896   0.912   0.403
 3715TIP3    H111151   1.941   0.978   0.456
 3715TIP3    H211152   1.967   0.866   0.358
 3716TIP3   OH211153   6.181   3.501   1.586
 3716TIP3    H111154   6.236   3.570   1.548
 3716TIP3    H211155   6.112   3.487   1.521
 3717TIP3   OH211156   2.180   3.003   2.029
 3717TIP3    H111157   2.158   3.079   1.975
 3717TIP3    H211158   2.169   3.033   2.119
 3718TIP3   OH211159   1.547   5.857   0.535
 3718TIP3    H111160   1.479   5.922   0.549
 3718TIP3    H211161   1.520   5.812   0.455
 3719TIP3   OH211162   0.525   5.195   1.002
 3719TIP3    H111163   0.570   5.278   0.986
 3719TIP3    H211164   0.440   5.205   0.959
 3720TIP3   OH211165   1.243   4.806   0.922
 3720TIP3    H111166   1.169   4.865   0.910
 3720TIP3    H211167   1.316   4.863   0.947
 3721TIP3   OH211168   3.068   5.186   4.043
 3721TIP3    H111169   3.112   5.102   4.033
 3721TIP3    H211170   2.989   5.166   4.093
 3722TIP3   OH211171   1.696   3.902   2.560
 3722TIP3    H111172   1.768   3.839   2.566
 3722TIP3    H211173   1.639   3.868   2.491
 3723TIP3   OH211174   0.134   0.986   1.125
 3723TIP3    H111175   0.221   0.957   1.153
 3723TIP3    H211176   0.120   0.942   1.042
 3724TIP3   OH211177   1.438   1.870   3.568
 3724TIP3    H111178   1.456   1.788   3.523
 3724TIP3    H211179   1.521   1.892   3.612
 3725TIP3   OH211180   4.195   0.330   1.039
 3725TIP3    H111181   4.131   0.265   1.070
 3725TIP3    H211182   4.279   0.296   1.068
 3726TIP3   OH211183   5.451   2.866   2.567
 3726TIP3    H111184   5.509   2.875   2.643
 3726TIP3    H211185   5.445   2.772   2.552
 3727TIP3   OH211186   2.728   3.956   0.749
 3727TIP3    H111187   2.677   3.891   0.702
 3727TIP3    H211188   2.663   4.016   0.787
 3728TIP3   OH211189   3.205   5.542   2.433
 3728TIP3    H111190   3.168   5.624   2.400
 3728TIP3    H211191   3.261   5.510   2.362
 3729TIP3   OH211192   3.500   1.909   4.982
 3729TIP3    H111193   3.575   1.968   4.979
 3729TIP3    H211194   3.537   1.823   4.998
 3730TIP3   OH211195   6.289   5.611   2.956
 3730TIP3    H111196   6.215   5.652   2.913
 3730TIP3    H211197   6.256   5.525   2.983
 3731TIP3   OH211198   5.894   4.526   3.582
 3731TIP3    H111199   5.826   4.500   3.645
 3731TIP3    H211200   5.846   4.546   3.502
 3732TIP3   OH211201   5.429   1.769   4.270
 3732TIP3    H111202   5.496   1.765   4.202
 3732TIP3    H211203   5.441   1.689   4.321
 3733TIP3   OH211204   6.251   2.158   3.743
 3733TIP3    H111205   6.157   2.150   3.733
 3733TIP3    H211206   6.279   2.208   3.666
 3734TIP3   OH211207   3.917   0.315   3.378
 3734TIP3    H111208   3.902   0.247   3.444
 3734TIP3    H211209   3.974   0.273   3.313
 3735TIP3   OH211210   6.235   1.250   4.242
 3735TIP3    H111211   6.289   1.172   4.256
 3735TIP3    H211212   6.148   1.225   4.274
 3736TIP3   OH211213   0.879   3.390   3.887
 3736TIP3    H111214   0.826   3.460   3.850
 3736TIP3    H211215   0.931   3.433   3.955
 3737TIP3   OH211216   0.524   5.769   2.118
 3737TIP3    H111217   0.483   5.683   2.124
 3737TIP3    H211218   0.592   5.758   2.051
 3738TIP3   OH211219   1.349   4.202   2.318
 3738TIP3    H111220   1.310   4.181   2.402
 3738TIP3    H211221   1.434   4.158   2.319
 3739TIP3   OH211222   2.307   2.921   1.503
 3739TIP3    H111223   2.236   2.892   1.560
 3739TIP3    H211224   2.377   2.946   1.563
 3740TIP3   OH211225   2.324   2.825   4.179
 3740TIP3    H111226   2.243   2.874   4.190
 3740TIP3    H211227   2.370   2.870   4.107
 3741TIP3   OH211228   5.878   5.840   2.697
 3741TIP3    H111229   5.832   5.881   2.625
 3741TIP3    H211230   5.823   5.766   2.722
 3742TIP3   OH211231   5.383   3.828   2.903
 3742TIP3    H111232   5.333   3.869   2.833
 3742TIP3    H211233   5.445   3.895   2.931
 3743TIP3   OH211234   2.476   0.620   4.124
 3743TIP3    H111235   2.486   0.566   4.046
 3743TIP3    H211236   2.497   0.709   4.094
 3744TIP3   OH211237   5.447   2.317   3.121
 3744TIP3    H111238   5.433   2.276   3.035
 3744TIP3    H211239   5.372   2.288   3.173
 3745TIP3   OH211240   6.036   5.013   0.854
 3745TIP3    H111241   6.021   5.094   0.806
 3745TIP3    H211242   5.949   4.981   0.875
 3746TIP3   OH211243   0.932   3.879   4.439
 3746TIP3    H111244   0.947   3.966   4.477
 3746TIP3    H211245   0.840   3.861   4.456
 3747TIP3   OH211246   0.695   1.901   5.144
 3747TIP3    H111247   0.677   1.977   5.089
 3747TIP3    H211248   0.674   1.826   5.089
 3748TIP3   OH211249   3.512   5.175   0.745
 3748TIP3    H111250   3.465   5.109   0.796
 3748TIP3    H211251   3.490   5.258   0.786
 3749TIP3   OH211252   6.064   2.607   0.222
 3749TIP3    H111253   6.076   2.519   0.258
 3749TIP3    H211254   6.000   2.648   0.280
 3750TIP3   OH211255   2.714   0.191   5.135
 3750TIP3    H111256   2.750   0.263   5.083
 3750TIP3    H211257   2.621   0.212   5.142
 3751TIP3   OH211258   3.930   3.235   1.839
 3751TIP3    H111259   3.862   3.169   1.825
 3751TIP3    H211260   3.982   3.201   1.911
 3752TIP3   OH211261   0.691   4.091   3.184
 3752TIP3    H111262   0.684   4.108   3.278
 3752TIP3    H211263   0.784   4.073   3.169
 3753TIP3   OH211264   3.052   2.727   4.420
 3753TIP3    H111265   2.996   2.731   4.497
 3753TIP3    H211266   3.070   2.634   4.408
 3754TIP3   OH211267   0.200   5.260   2.102
 3754TIP3    H111268   0.213   5.320   2.176
 3754TIP3    H211269   0.288   5.241   2.072
 3755TIP3   OH211270   1.926   5.283   1.579
 3755TIP3    H111271   1.963   5.335   1.508
 3755TIP3    H211272   1.870   5.345   1.627
 3756TIP3   OH211273   4.888   5.239   4.442
 3756TIP3    H111274   4.949   5.310   4.463
 3756TIP3    H211275   4.809   5.260   4.492
 3757TIP3   OH211276   3.261   3.301   1.655
 3757TIP3    H111277   3.283   3.329   1.744
 3757TIP3    H211278   3.208   3.372   1.620
 3758TIP3   OH211279   4.448   1.651   0.674
 3758TIP3    H111280   4.484   1.563   0.662
 3758TIP3    H211281   4.401   1.646   0.757
 3759TIP3   OH211282   4.383   2.005   4.890
 3759TIP3    H111283   4.399   2.064   4.816
 3759TIP3    H211284   4.307   1.954   4.864
 3760TIP3   OH211285   2.139   4.770   3.016
 3760TIP3    H111286   2.194   4.762   3.094
 3760TIP3    H211287   2.143   4.685   2.974
 3761TIP3   OH211288   3.097   2.186   2.702
 3761TIP3    H111289   3.027   2.214   2.761
 3761TIP3    H211290   3.081   2.092   2.689
 3762TIP3   OH211291   3.961   0.061   5.064
 3762TIP3    H111292   3.993   0.064   4.973
 3762TIP3    H211293   3.880   0.010   5.059
 3763TIP3   OH211294   5.008   1.438   1.536
 3763TIP3    H111295   4.949   1.412   1.465
 3763TIP3    H211296   4.949   1.470   1.605
 3764TIP3   OH211297   1.636   0.141   1.485
 3764TIP3    H111298   1.658   0.048   1.478
 3764TIP3    H211299   1.642   0.160   1.578
 3765TIP3   OH211300   3.456   2.506   2.726
 3765TIP3    H111301   3.508   2.475   2.800
 3765TIP3    H211302   3.472   2.442   2.656
 3766TIP3   OH211303   3.795   0.835   3.492
 3766TIP3    H111304   3.823   0.743   3.488
 3766TIP3    H211305   3.765   0.847   3.582
 3767TIP3   OH211306   4.004   2.665   5.169
 3767TIP3    H111307   4.047   2.741   5.131
 3767TIP3    H211308   3.925   2.653   5.117
 3768TIP3   OH211309   0.843   2.434   4.843
 3768TIP3    H111310   0.911   2.437   4.775
 3768TIP3    H211311   0.863   2.356   4.894
 3769TIP3   OH211312   0.938   4.814   4.917
 3769TIP3    H111313   0.979   4.857   4.992
 3769TIP3    H211314   0.845   4.814   4.938
 3770TIP3   OH211315   4.286   4.608   0.818
 3770TIP3    H111316   4.328   4.673   0.762
 3770TIP3    H211317   4.207   4.582   0.771
 3771TIP3   OH211318   1.000   0.074   2.130
 3771TIP3    H111319   1.028   0.150   2.181
 3771TIP3    H211320   0.997   0.002   2.193
 3772TIP3   OH211321   4.946   2.742   2.164
 3772TIP3    H111322   4.896   2.822   2.180
 3772TIP3    H211323   5.034   2.761   2.197
 3773TIP3   OH211324   3.191   2.843   1.819
 3773TIP3    H111325   3.180   2.876   1.730
 3773TIP3    H211326   3.284   2.857   1.839
 3774TIP3   OH211327   3.871   2.258   3.742
 3774TIP3    H111328   3.817   2.307   3.680
 3774TIP3    H211329   3.838   2.168   3.736
 3775TIP3   OH211330   1.322   1.847   1.171
 3775TIP3    H111331   1.286   1.821   1.256
 3775TIP3    H211332   1.325   1.942   1.174
 3776TIP3   OH211333   3.692   5.810   4.384
 3776TIP3    H111334   3.729   5.721   4.382
 3776TIP3    H211335   3.599   5.797   4.365
 3777TIP3   OH211336   2.956   4.459   2.552
 3777TIP3    H111337   3.029   4.405   2.583
 3777TIP3    H211338   2.996   4.518   2.488
 3778TIP3   OH211339   1.949   1.287   4.460
 3778TIP3    H111340   1.966   1.341   4.537
 3778TIP3    H211341   1.886   1.338   4.408
 3779TIP3   OH211342   5.697   1.215   2.664
 3779TIP3    H111343   5.687   1.143   2.727
 3779TIP3    H211344   5.619   1.269   2.677
 3780TIP3   OH211345   4.211   0.478   3.702
 3780TIP3    H111346   4.295   0.483   3.656
 3780TIP3    H211347   4.225   0.412   3.770
 3781TIP3   OH211348   3.748   4.878   3.206
 3781TIP3    H111349   3.729   4.909   3.118
 3781TIP3    H211350   3.838   4.906   3.222
 3782TIP3   OH211351   0.852   0.546   1.378
 3782TIP3    H111352   0.799   0.466   1.370
 3782TIP3    H211353   0.831   0.595   1.298
 3783TIP3   OH211354   2.403   3.810   4.165
 3783TIP3    H111355   2.364   3.777   4.084
 3783TIP3    H211356   2.493   3.778   4.164
 3784TIP3   OH211357   5.949   5.701   3.974
 3784TIP3    H111358   5.948   5.768   4.042
 3784TIP3    H211359   5.879   5.725   3.914
 3785TIP3   OH211360   2.456   1.138   1.135
 3785TIP3    H111361   2.448   1.227   1.100
 3785TIP3    H211362   2.423   1.145   1.224
 3786TIP3   OH211363   0.290   0.862   2.808
 3786TIP3    H111364   0.241   0.788   2.773
 3786TIP3    H211365   0.374   0.824   2.834
 3787TIP3   OH211366   5.513   5.443   4.234
 3787TIP3    H111367   5.537   5.385   4.162
 3787TIP3    H211368   5.573   5.517   4.226
 3788TIP3   OH211369   3.827   1.841   2.761
 3788TIP3    H111370   3.883   1.816   2.834
 3788TIP3    H211371   3.751   1.783   2.769
 3789TIP3   OH211372   4.397   0.168   1.811
 3789TIP3    H111373   4.354   0.092   1.849
 3789TIP3    H211374   4.486   0.139   1.791
 3790TIP3   OH211375   3.434   0.007   3.226
 3790TIP3    H111376   3.500  -0.061   3.216
 3790TIP3    H211377   3.470   0.083   3.180
 3791TIP3   OH211378   2.267   2.937   3.129
 3791TIP3    H111379   2.258   3.000   3.201
 3791TIP3    H211380   2.298   2.857   3.171
 3792TIP3   OH211381   2.735   5.810   0.343
 3792TIP3    H111382   2.801   5.862   0.297
 3792TIP3    H211383   2.760   5.720   0.326
 3793TIP3   OH211384   4.418   5.830   4.157
 3793TIP3    H111385   4.382   5.911   4.121
 3793TIP3    H211386   4.480   5.800   4.091
 3794TIP3   OH211387   2.259   4.004   0.424
 3794TIP3    H111388   2.226   4.070   0.485
 3794TIP3    H211389   2.184   3.947   0.408
 3795TIP3   OH211390   2.752   1.842   3.258
 3795TIP3    H111391   2.824   1.809   3.311
 3795TIP3    H211392   2.744   1.934   3.282
 3796TIP3   OH211393   0.048   3.513   3.944
 3796TIP3    H111394  -0.027   3.459   3.921
 3796TIP3    H211395   0.092   3.466   4.015
 3797TIP3   OH211396   1.937   0.593   0.276
 3797TIP3    H111397   1.867   0.599   0.341
 3797TIP3    H211398   1.998   0.529   0.312
 3798TIP3   OH211399   6.176   3.371   3.821
 3798TIP3    H111400   6.089   3.337   3.843
 3798TIP3    H211401   6.210   3.310   3.756
 3799TIP3   OH211402   2.688   3.121   4.700
 3799TIP3    H111403   2.716   3.056   4.635
 3799TIP3    H211404   2.625   3.073   4.754
 3800TIP3   OH211405   6.008   1.567   3.091
 3800TIP3    H111406   6.088   1.617   3.106
 3800TIP3    H211407   5.990   1.578   2.998
 3801TIP3   OH211408   2.038   4.249   3.035
 3801TIP3    H111409   2.037   4.239   2.939
 3801TIP3    H211410   2.124   4.217   3.061
 3802TIP3   OH211411   3.024   1.769   1.760
 3802TIP3    H111412   2.989   1.858   1.769
 3802TIP3    H211413   3.116   1.782   1.737
 3803TIP3   OH211414   4.953   1.131   1.175
 3803TIP3    H111415   4.943   1.086   1.092
 3803TIP3    H211416   5.045   1.119   1.199
 3804TIP3   OH211417   5.918   2.054   4.701
 3804TIP3    H111418   5.971   2.012   4.634
 3804TIP3    H211419   5.864   1.983   4.738
 3805TIP3   OH211420   5.705   2.241   3.453
 3805TIP3    H111421   5.660   2.182   3.393
 3805TIP3    H211422   5.790   2.200   3.468
 3806TIP3   OH211423   5.484   1.131   5.125
 3806TIP3    H111424   5.443   1.049   5.100
 3806TIP3    H211425   5.496   1.125   5.220
 3807TIP3   OH211426   3.098   2.306   0.130
 3807TIP3    H111427   3.141   2.381   0.089
 3807TIP3    H211428   3.123   2.231   0.076
 3808TIP3   OH211429   2.086   3.694   4.451
 3808TIP3    H111430   2.109   3.604   4.428
 3808TIP3    H211431   2.014   3.717   4.393
 3809TIP3   OH211432   5.812   0.779   3.760
 3809TIP3    H111433   5.771   0.834   3.828
 3809TIP3    H211434   5.904   0.806   3.761
 3810TIP3   OH211435   2.144   3.237   1.905
 3810TIP3    H111436   2.070   3.236   1.844
 3810TIP3    H211437   2.166   3.330   1.913
 3811TIP3   OH211438   3.245   4.239   0.259
 3811TIP3    H111439   3.299   4.193   0.323
 3811TIP3    H211440   3.155   4.224   0.289
 3812TIP3   OH211441   5.974   1.185   1.938
 3812TIP3    H111442   6.056   1.202   1.984
 3812TIP3    H211443   5.962   1.090   1.945
 3813TIP3   OH211444   0.742   3.454   0.528
 3813TIP3    H111445   0.762   3.415   0.613
 3813TIP3    H211446   0.723   3.379   0.472
 3814TIP3   OH211447   4.227   4.140   0.050
 3814TIP3    H111448   4.171   4.162  -0.025
 3814TIP3    H211449   4.187   4.062   0.087
 3815TIP3   OH211450   2.707   2.563   2.813
 3815TIP3    H111451   2.750   2.518   2.740
 3815TIP3    H211452   2.772   2.563   2.883
 3816TIP3   OH211453   5.362   3.925   0.060
 3816TIP3    H111454   5.447   3.884   0.043
 3816TIP3    H211455   5.319   3.927  -0.025
 3817TIP3   OH211456   2.210   4.434   0.216
 3817TIP3    H111457   2.202   4.347   0.178
 3817TIP3    H211458   2.304   4.450   0.222
 3818TIP3   OH211459   0.953   0.580   4.408
 3818TIP3    H111460   1.021   0.647   4.409
 3818TIP3    H211461   0.895   0.606   4.337
 3819TIP3   OH211462   5.863   0.089   4.335
 3819TIP3    H111463   5.875   0.000   4.368
 3819TIP3    H211464   5.774   0.090   4.301
 3820TIP3   OH211465   2.072   5.161   0.459
 3820TIP3    H111466   2.112   5.246   0.477
 3820TIP3    H211467   2.140   5.112   0.413
 3821TIP3   OH211468   3.011   1.995   2.197
 3821TIP3    H111469   2.964   2.035   2.123
 3821TIP3    H211470   2.945   1.940   2.239
 3822TIP3   OH211471   6.055   2.080   3.961
 3822TIP3    H111472   5.993   2.096   3.890
 3822TIP3    H211473   6.137   2.117   3.930
 3823TIP3   OH211474   0.166   3.990   0.105
 3823TIP3    H111475   0.123   4.075   0.117
 3823TIP3    H211476   0.097   3.933   0.072
 3824TIP3   OH211477   4.742   2.542   2.186
 3824TIP3    H111478   4.716   2.576   2.100
 3824TIP3    H211479   4.807   2.605   2.217
 3825TIP3   OH211480   4.935   4.706   3.329
 3825TIP3    H111481   4.856   4.672   3.288
 3825TIP3    H211482   4.929   4.677   3.420
 3826TIP3   OH211483   3.849   4.125   2.646
 3826TIP3    H111484   3.919   4.083   2.696
 3826TIP3    H211485   3.891   4.155   2.565
 3827TIP3   OH211486   6.175   1.347   2.763
 3827TIP3    H111487   6.196   1.313   2.676
 3827TIP3    H211488   6.086   1.316   2.779
 3828TIP3   OH211489   1.287   3.599   4.485
 3828TIP3    H111490   1.316   3.556   4.566
 3828TIP3    H211491   1.363   3.649   4.456
 3829TIP3   OH211492   4.698   5.460   0.305
 3829TIP3    H111493   4.770   5.400   0.323
 3829TIP3    H211494   4.638   5.450   0.379
 3830TIP3   OH211495   3.937   3.537   4.385
 3830TIP3    H111496   3.861   3.482   4.404
 3830TIP3    H211497   3.937   3.545   4.289
 3831TIP3   OH211498   4.648   1.640   1.634
 3831TIP3    H111499   4.638   1.591   1.552
 3831TIP3    H211500   4.680   1.726   1.606
 3832TIP3   OH211501   2.304   2.012   0.069
 3832TIP3    H111502   2.222   1.978   0.032
 3832TIP3    H211503   2.337   1.940   0.122
 3833TIP3   OH211504   4.335   2.728   4.728
 3833TIP3    H111505   4.371   2.666   4.665
 3833TIP3    H211506   4.253   2.688   4.758
 3834TIP3   OH211507   0.392   5.252   4.469
 3834TIP3    H111508   0.462   5.258   4.533
 3834TIP3    H211509   0.379   5.342   4.438
 3835TIP3   OH211510   4.978   4.005   4.957
 3835TIP3    H111511   5.033   3.931   4.931
 3835TIP3    H211512   4.911   3.967   5.013
 3836TIP3   OH211513   3.488   3.326   0.360
 3836TIP3    H111514   3.567   3.280   0.388
 3836TIP3    H211515   3.516   3.381   0.287
 3837TIP3   OH211516   2.843   1.058   0.719
 3837TIP3    H111517   2.934   1.088   0.717
 3837TIP3    H211518   2.827   1.038   0.811
 3838TIP3   OH211519   2.983   0.343   4.489
 3838TIP3    H111520   2.935   0.282   4.545
 3838TIP3    H211521   2.943   0.332   4.402
 3839TIP3   OH211522   2.437   0.499   4.706
 3839TIP3    H111523   2.347   0.469   4.720
 3839TIP3    H211524   2.428   0.587   4.669
 3840TIP3   OH211525   1.742   2.858   1.945
 3840TIP3    H111526   1.709   2.826   1.861
 3840TIP3    H211527   1.834   2.833   1.947
 3841TIP3   OH211528   0.891   1.799   3.754
 3841TIP3    H111529   0.804   1.839   3.745
 3841TIP3    H211530   0.945   1.845   3.691
 3842TIP3   OH211531   4.232   5.877   4.615
 3842TIP3    H111532   4.304   5.850   4.557
 3842TIP3    H211533   4.164   5.906   4.555
 3843TIP3   OH211534   5.109   3.937   3.897
 3843TIP3    H111535   5.157   3.942   3.814
 3843TIP3    H211536   5.030   3.887   3.876
 3844TIP3   OH211537   5.756   5.952   2.475
 3844TIP3    H111538   5.758   5.874   2.420
 3844TIP3    H211539   5.715   6.019   2.421
 3845TIP3   OH211540   4.422   4.316   3.589
 3845TIP3    H111541   4.484   4.337   3.660
 3845TIP3    H211542   4.376   4.398   3.572
 3846TIP3   OH211543   4.672   5.092   1.653
 3846TIP3    H111544   4.652   5.123   1.741
 3846TIP3    H211545   4.589   5.059   1.620
 3847TIP3   OH211546   1.574   2.696   3.953
 3847TIP3    H111547   1.597   2.624   4.010
 3847TIP3    H211548   1.539   2.655   3.874
 3848TIP3   OH211549   3.188   4.345   1.568
 3848TIP3    H111550   3.251   4.313   1.633
 3848TIP3    H211551   3.207   4.439   1.561
 3849TIP3   OH211552   2.162   1.487   3.319
 3849TIP3    H111553   2.125   1.547   3.384
 3849TIP3    H211554   2.098   1.417   3.311
 3850TIP3   OH211555   4.266   4.862   2.744
 3850TIP3    H111556   4.310   4.789   2.787
 3850TIP3    H211557   4.200   4.821   2.688
 3851TIP3   OH211558   4.429   4.626   5.001
 3851TIP3    H111559   4.505   4.587   5.046
 3851TIP3    H211560   4.451   4.719   4.994
 3852TIP3   OH211561   2.175   1.038   1.587
 3852TIP3    H111562   2.099   1.057   1.643
 3852TIP3    H211563   2.250   1.065   1.639
 3853TIP3   OH211564   6.173   1.643   2.846
 3853TIP3    H111565   6.263   1.660   2.819
 3853TIP3    H211566   6.159   1.550   2.831
 3854TIP3   OH211567   4.024   0.142   1.828
 3854TIP3    H111568   4.060   0.140   1.916
 3854TIP3    H211569   4.072   0.074   1.781
 3855TIP3   OH211570   4.710   2.741   1.068
 3855TIP3    H111571   4.669   2.683   1.003
 3855TIP3    H211572   4.772   2.793   1.017
 3856TIP3   OH211573   0.271   2.505   3.274
 3856TIP3    H111574   0.272   2.433   3.337
 3856TIP3    H211575   0.352   2.492   3.223
 3857TIP3   OH211576   1.331   3.409   2.263
 3857TIP3    H111577   1.349   3.432   2.354
 3857TIP3    H211578   1.262   3.343   2.268
 3858TIP3   OH211579   0.289   1.901   4.511
 3858TIP3    H111580   0.295   1.873   4.603
 3858TIP3    H211581   0.301   1.821   4.461
 3859TIP3   OH211582   1.526   4.573   4.574
 3859TIP3    H111583   1.557   4.650   4.525
 3859TIP3    H211584   1.588   4.504   4.551
 3860TIP3   OH211585   4.783   1.224   0.197
 3860TIP3    H111586   4.723   1.160   0.159
 3860TIP3    H211587   4.869   1.181   0.194
 3861TIP3   OH211588   3.425   4.892   3.476
 3861TIP3    H111589   3.406   4.799   3.482
 3861TIP3    H211590   3.391   4.929   3.558
 3862TIP3   OH211591   0.990   4.989   5.214
 3862TIP3    H111592   1.068   4.936   5.196
 3862TIP3    H211593   0.989   5.055   5.145
 3863TIP3   OH211594   5.915   3.083   3.451
 3863TIP3    H111595   5.885   3.000   3.415
 3863TIP3    H211596   6.010   3.083   3.437
 3864TIP3   OH211597   1.540   1.044   3.456
 3864TIP3    H111598   1.517   1.111   3.520
 3864TIP3    H211599   1.505   1.077   3.373
 3865TIP3   OH211600   5.886   0.855   0.411
 3865TIP3    H111601   5.814   0.799   0.441
 3865TIP3    H211602   5.844   0.920   0.355
 3866TIP3   OH211603   0.454   0.166   3.903
 3866TIP3    H111604   0.487   0.155   3.993
 3866TIP3    H211605   0.512   0.113   3.849
 3867TIP3   OH211606   1.284   5.914   5.050
 3867TIP3    H111607   1.282   5.847   4.982
 3867TIP3    H211608   1.192   5.931   5.069
 3868TIP3   OH211609   5.455   3.997   3.460
 3868TIP3    H111610   5.524   3.932   3.471
 3868TIP3    H211611   5.501   4.076   3.430
 3869TIP3   OH211612   0.037   5.154   3.129
 3869TIP3    H111613  -0.007   5.084   3.080
 3869TIP3    H211614   0.130   5.141   3.112
 3870TIP3   OH211615   4.177   3.479   3.258
 3870TIP3    H111616   4.224   3.418   3.200
 3870TIP3    H211617   4.242   3.505   3.323
 3871TIP3   OH211618   2.685   1.912   2.006
 3871TIP3    H111619   2.708   2.002   2.030
 3871TIP3    H211620   2.661   1.870   2.088
 3872TIP3   OH211621   1.412   2.742   3.133
 3872TIP3    H111622   1.424   2.667   3.075
 3872TIP3    H211623   1.350   2.799   3.086
 3873TIP3   OH211624   5.137   2.251   3.771
 3873TIP3    H111625   5.047   2.245   3.802
 3873TIP3    H211626   5.187   2.201   3.836
 3874TIP3   OH211627   5.128   1.083   2.650
 3874TIP3    H111628   5.178   1.096   2.570
 3874TIP3    H211629   5.175   1.015   2.697
 3875TIP3   OH211630   4.529   5.048   3.596
 3875TIP3    H111631   4.575   5.074   3.675
 3875TIP3    H211632   4.533   5.125   3.539
 3876TIP3   OH211633   0.810   4.782   1.081
 3876TIP3    H111634   0.877   4.831   1.129
 3876TIP3    H211635   0.850   4.697   1.064
 3877TIP3   OH211636   5.179   5.262   1.668
 3877TIP3    H111637   5.090   5.284   1.640
 3877TIP3    H211638   5.187   5.168   1.654
 3878TIP3   OH211639   0.122   5.060   4.551
 3878TIP3    H111640   0.041   5.011   4.567
 3878TIP3    H211641   0.153   5.028   4.466
 3879TIP3   OH211642   4.458   5.929   3.769
 3879TIP3    H111643   4.452   6.020   3.799
 3879TIP3    H211644   4.485   5.880   3.847
 3880TIP3   OH211645   3.128   5.278   3.380
 3880TIP3    H111646   3.039   5.277   3.414
 3880TIP3    H211647   3.141   5.190   3.344
 3881TIP3   OH211648   0.576   4.075   4.736
 3881TIP3    H111649   0.587   4.159   4.781
 3881TIP3    H211650   0.483   4.055   4.745
 3882TIP3   OH211651   4.987   4.099   2.309
 3882TIP3    H111652   4.900   4.060   2.299
 3882TIP3    H211653   5.026   4.091   2.222
 3883TIP3   OH211654   5.095   2.642   5.082
 3883TIP3    H111655   5.171   2.584   5.089
 3883TIP3    H211656   5.056   2.619   4.997
 3884TIP3   OH211657   3.045   4.094   0.430
 3884TIP3    H111658   3.070   4.102   0.523
 3884TIP3    H211659   2.950   4.087   0.432
 3885TIP3   OH211660   2.842   2.377   4.870
 3885TIP3    H111661   2.866   2.300   4.922
 3885TIP3    H211662   2.763   2.351   4.824
 3886TIP3   OH211663   2.326   3.049   4.836
 3886TIP3    H111664   2.305   3.051   4.743
 3886TIP3    H211665   2.410   3.002   4.841
 3887TIP3   OH211666   4.884   3.691   4.278
 3887TIP3    H111667   4.812   3.727   4.227
 3887TIP3    H211668   4.869   3.724   4.367
 3888TIP3   OH211669   4.629   1.893   0.834
 3888TIP3    H111670   4.548   1.919   0.879
 3888TIP3    H211671   4.609   1.903   0.741
 3889TIP3   OH211672   3.828   5.734   2.788
 3889TIP3    H111673   3.859   5.723   2.877
 3889TIP3    H211674   3.853   5.653   2.743
 3890TIP3   OH211675   3.547   5.703   4.972
 3890TIP3    H111676   3.560   5.674   5.062
 3890TIP3    H211677   3.547   5.798   4.978
 3891TIP3   OH211678   3.575   3.523   4.200
 3891TIP3    H111679   3.481   3.507   4.209
 3891TIP3    H211680   3.617   3.443   4.233
 3892TIP3   OH211681   1.963   2.342   0.690
 3892TIP3    H111682   1.989   2.309   0.604
 3892TIP3    H211683   2.027   2.306   0.751
 3893TIP3   OH211684   1.052   0.643   3.831
 3893TIP3    H111685   1.073   0.602   3.915
 3893TIP3    H211686   0.967   0.606   3.807
 3894TIP3   OH211687   4.649   4.708   3.249
 3894TIP3    H111688   4.583   4.743   3.189
 3894TIP3    H211689   4.649   4.768   3.323
 3895TIP3   OH211690   0.989   5.902   1.118
 3895TIP3    H111691   1.085   5.901   1.121
 3895TIP3    H211692   0.965   5.815   1.088
 3896TIP3   OH211693   1.090   0.816   2.613
 3896TIP3    H111694   1.019   0.876   2.589
 3896TIP3    H211695   1.170   0.862   2.589
 3897TIP3   OH211696   4.205   2.503   2.830
 3897TIP3    H111697   4.125   2.519   2.880
 3897TIP3    H211698   4.181   2.436   2.766
 3898TIP3   OH211699   2.631   2.399   2.332
 3898TIP3    H111700   2.725   2.412   2.345
 3898TIP3    H211701   2.590   2.436   2.411
 3899TIP3   OH211702   5.765   4.395   2.128
 3899TIP3    H111703   5.793   4.486   2.134
 3899TIP3    H211704   5.799   4.354   2.207
 3900TIP3   OH211705   5.157   3.880   0.276
 3900TIP3    H111706   5.205   3.843   0.202
 3900TIP3    H211707   5.114   3.958   0.240
 3901TIP3   OH211708   4.826   4.844   2.159
 3901TIP3    H111709   4.861   4.759   2.131
 3901TIP3    H211710   4.758   4.865   2.095
 3902TIP3   OH211711   5.618   2.457   0.809
 3902TIP3    H111712   5.599   2.366   0.788
 3902TIP3    H211713   5.535   2.493   0.840
 3903TIP3   OH211714   3.048   3.148   3.125
 3903TIP3    H111715   2.962   3.122   3.093
 3903TIP3    H211716   3.041   3.243   3.135
 3904TIP3   OH211717   2.799   2.660   3.527
 3904TIP3    H111718   2.796   2.684   3.619
 3904TIP3    H211719   2.715   2.618   3.509
 3905TIP3   OH211720   2.732   5.136   2.566
 3905TIP3    H111721   2.802   5.072   2.559
 3905TIP3    H211722   2.736   5.185   2.484
 3906TIP3   OH211723   2.057   4.151   0.857
 3906TIP3    H111724   1.989   4.123   0.918
 3906TIP3    H211725   2.130   4.091   0.873
 3907TIP3   OH211726   4.772   1.510   4.834
 3907TIP3    H111727   4.861   1.542   4.817
 3907TIP3    H211728   4.744   1.474   4.750
 3908TIP3   OH211729   5.180   4.828   4.602
 3908TIP3    H111730   5.138   4.812   4.686
 3908TIP3    H211731   5.265   4.784   4.609
 3909TIP3   OH211732   5.908   0.241   1.218
 3909TIP3    H111733   5.927   0.291   1.297
 3909TIP3    H211734   5.845   0.294   1.170
 3910TIP3   OH211735   0.233   1.639   1.699
 3910TIP3    H111736   0.278   1.589   1.767
 3910TIP3    H211737   0.221   1.726   1.737
 3911TIP3   OH211738   0.777   2.738   3.944
 3911TIP3    H111739   0.854   2.795   3.945
 3911TIP3    H211740   0.706   2.796   3.917
 3912TIP3   OH211741   5.945   1.887   5.144
 3912TIP3    H111742   5.988   1.972   5.137
 3912TIP3    H211743   5.853   1.907   5.159
 3913TIP3   OH211744   5.092   4.249   3.931
 3913TIP3    H111745   5.060   4.337   3.954
 3913TIP3    H211746   5.107   4.207   4.016
 3914TIP3   OH211747   4.396   2.905   1.713
 3914TIP3    H111748   4.436   2.918   1.627
 3914TIP3    H211749   4.434   2.973   1.768
 3915TIP3   OH211750   0.736   5.115   1.349
 3915TIP3    H111751   0.654   5.138   1.394
 3915TIP3    H211752   0.753   5.189   1.292
 3916TIP3   OH211753   4.523   5.080   4.931
 3916TIP3    H111754   4.602   5.065   4.879
 3916TIP3    H211755   4.454   5.095   4.867
 3917TIP3   OH211756   2.030   0.271   0.269
 3917TIP3    H111757   2.050   0.316   0.351
 3917TIP3    H211758   2.092   0.308   0.206
 3918TIP3   OH211759   0.109   5.549   3.783
 3918TIP3    H111760   0.041   5.577   3.844
 3918TIP3    H211761   0.078   5.579   3.697
 3919TIP3   OH211762   3.095   5.325   4.416
 3919TIP3    H111763   3.176   5.297   4.374
 3919TIP3    H211764   3.027   5.271   4.376
 3920TIP3   OH211765   4.090   4.315   3.895
 3920TIP3    H111766   4.092   4.385   3.961
 3920TIP3    H211767   4.170   4.326   3.845
 3921TIP3   OH211768   2.871   3.818   2.492
 3921TIP3    H111769   2.852   3.907   2.465
 3921TIP3    H211770   2.819   3.806   2.572
 3922TIP3   OH211771   5.080   2.826   4.743
 3922TIP3    H111772   5.023   2.749   4.755
 3922TIP3    H211773   5.030   2.898   4.781
 3923TIP3   OH211774   5.261   3.083   4.602
 3923TIP3    H111775   5.178   3.107   4.643
 3923TIP3    H211776   5.247   2.996   4.567
 3924TIP3   OH211777   0.508   2.773   3.153
 3924TIP3    H111778   0.475   2.815   3.074
 3924TIP3    H211779   0.487   2.835   3.223
 3925TIP3   OH211780   1.052   0.803   3.217
 3925TIP3    H111781   0.991   0.865   3.257
 3925TIP3    H211782   1.007   0.771   3.139
 3926TIP3   OH211783   2.441   2.609   0.875
 3926TIP3    H111784   2.490   2.657   0.941
 3926TIP3    H211785   2.358   2.586   0.918
 3927TIP3   OH211786   0.590   1.925   3.780
 3927TIP3    H111787   0.554   1.838   3.760
 3927TIP3    H211788   0.544   1.952   3.859
 3928TIP3   OH211789   4.602   4.005   3.819
 3928TIP3    H111790   4.556   3.977   3.898
 3928TIP3    H211791   4.694   3.987   3.838
 3929TIP3   OH211792   5.640   2.779   4.718
 3929TIP3    H111793   5.593   2.861   4.705
 3929TIP3    H211794   5.574   2.718   4.751
 3930TIP3   OH211795   4.236   1.734   0.472
 3930TIP3    H111796   4.297   1.708   0.542
 3930TIP3    H211797   4.198   1.815   0.504
 3931TIP3   OH211798   2.677   0.755   0.985
 3931TIP3    H111799   2.767   0.723   0.989
 3931TIP3    H211800   2.625   0.676   0.972
 3932TIP3   OH211801   0.701   0.865   3.722
 3932TIP3    H111802   0.608   0.887   3.727
 3932TIP3    H211803   0.746   0.949   3.736
 3933TIP3   OH211804   4.322   1.612   1.445
 3933TIP3    H111805   4.372   1.693   1.450
 3933TIP3    H211806   4.242   1.631   1.495
 3934TIP3   OH211807   1.269   4.675   0.648
 3934TIP3    H111808   1.357   4.656   0.615
 3934TIP3    H211809   1.282   4.697   0.740
 3935TIP3   OH211810  -0.009   2.466   0.458
 3935TIP3    H111811   0.000   2.472   0.363
 3935TIP3    H211812   0.077   2.493   0.492
 3936TIP3   OH211813   3.273   3.557   2.271
 3936TIP3    H111814   3.272   3.635   2.216
 3936TIP3    H211815   3.332   3.496   2.227
 3937TIP3   OH211816   1.248   4.525   0.991
 3937TIP3    H111817   1.237   4.616   0.964
 3937TIP3    H211818   1.341   4.517   1.011
 3938TIP3   OH211819   4.340   2.404   2.157
 3938TIP3    H111820   4.281   2.391   2.082
 3938TIP3    H211821   4.355   2.316   2.191
 3939TIP3   OH211822   2.120   0.998   3.516
 3939TIP3    H111823   2.176   0.995   3.438
 3939TIP3    H211824   2.150   1.075   3.564
 3940TIP3   OH211825   1.452   5.284   3.041
 3940TIP3    H111826   1.357   5.289   3.031
 3940TIP3    H211827   1.481   5.233   2.965
 3941TIP3   OH211828   3.260   1.573   0.168
 3941TIP3    H111829   3.318   1.602   0.098
 3941TIP3    H211830   3.254   1.478   0.157
 3942TIP3   OH211831   0.195   0.497   0.230
 3942TIP3    H111832   0.259   0.528   0.294
 3942TIP3    H211833   0.151   0.424   0.273
 3943TIP3   OH211834   5.149   0.926   2.345
 3943TIP3    H111835   5.134   0.855   2.407
 3943TIP3    H211836   5.241   0.951   2.358
 3944TIP3   OH211837   3.607   5.452   4.627
 3944TIP3    H111838   3.676   5.387   4.609
 3944TIP3    H211839   3.652   5.522   4.675
 3945TIP3   OH211840   4.791   3.857   3.973
 3945TIP3    H111841   4.771   3.774   4.016
 3945TIP3    H211842   4.816   3.832   3.884
 3946TIP3   OH211843   5.283   2.982   2.123
 3946TIP3    H111844   5.314   2.919   2.188
 3946TIP3    H211845   5.356   3.044   2.113
 3947TIP3   OH211846   2.088   1.189   2.201
 3947TIP3    H111847   2.030   1.262   2.179
 3947TIP3    H211848   2.142   1.177   2.124
 3948TIP3   OH211849   3.806   2.331   4.308
 3948TIP3    H111850   3.805   2.297   4.218
 3948TIP3    H211851   3.761   2.264   4.360
 3949TIP3   OH211852   3.847   3.436   0.252
 3949TIP3    H111853   3.851   3.356   0.306
 3949TIP3    H211854   3.930   3.436   0.204
 3950TIP3   OH211855   3.632   4.261   3.512
 3950TIP3    H111856   3.623   4.308   3.429
 3950TIP3    H211857   3.726   4.250   3.524
 3951TIP3   OH211858   4.356   1.839   2.990
 3951TIP3    H111859   4.345   1.771   3.057
 3951TIP3    H211860   4.395   1.793   2.916
 3952TIP3   OH211861   2.205   3.330   2.882
 3952TIP3    H111862   2.161   3.303   2.801
 3952TIP3    H211863   2.284   3.277   2.885
 3953TIP3   OH211864   0.414   4.380   0.573
 3953TIP3    H111865   0.478   4.442   0.538
 3953TIP3    H211866   0.329   4.421   0.555
 3954TIP3   OH211867   6.177   1.470   4.042
 3954TIP3    H111868   6.255   1.514   4.075
 3954TIP3    H211869   6.106   1.499   4.100
 3955TIP3   OH211870   4.171   0.812   2.184
 3955TIP3    H111871   4.132   0.890   2.144
 3955TIP3    H211872   4.252   0.797   2.135
 3956TIP3   OH211873   3.537   0.259   3.147
 3956TIP3    H111874   3.561   0.350   3.167
 3956TIP3    H211875   3.523   0.259   3.052
 3957TIP3   OH211876   5.480   0.728   3.609
 3957TIP3    H111877   5.474   0.819   3.639
 3957TIP3    H211878   5.548   0.730   3.542
 3958TIP3   OH211879   5.094   3.319   2.456
 3958TIP3    H111880   5.059   3.400   2.418
 3958TIP3    H211881   5.042   3.249   2.416
 3959TIP3   OH211882   4.108   1.642   4.521
 3959TIP3    H111883   4.192   1.636   4.474
 3959TIP3    H211884   4.066   1.720   4.485
 3960TIP3   OH211885   2.192   3.369   4.735
 3960TIP3    H111886   2.267   3.326   4.695
 3960TIP3    H211887   2.200   3.461   4.711
 3961TIP3   OH211888   3.192   5.886   5.038
 3961TIP3    H111889   3.121   5.905   5.099
 3961TIP3    H211890   3.267   5.868   5.094
 3962TIP3   OH211891   3.901   3.253   2.150
 3962TIP3    H111892   3.933   3.167   2.177
 3962TIP3    H211893   3.927   3.312   2.220
 3963TIP3   OH211894   5.053   2.696   1.890
 3963TIP3    H111895   4.991   2.733   1.827
 3963TIP3    H211896   5.033   2.741   1.972
 3964TIP3   OH211897   5.944   2.478   3.588
 3964TIP3    H111898   5.902   2.564   3.587
 3964TIP3    H211899   6.014   2.485   3.522
 3965TIP3   OH211900   3.863   5.545   3.042
 3965TIP3    H111901   3.888   5.467   3.092
 3965TIP3    H211902   3.943   5.596   3.035
 3966TIP3   OH211903   1.326   4.212   5.010
 3966TIP3    H111904   1.377   4.227   4.930
 3966TIP3    H211905   1.358   4.277   5.072
 3967TIP3   OH211906   3.004   1.675   0.050
 3967TIP3    H111907   3.035   1.608  -0.011
 3967TIP3    H211908   3.078   1.689   0.109
 3968TIP3   OH211909   3.064   4.216   5.109
 3968TIP3    H111910   3.011   4.220   5.029
 3968TIP3    H211911   3.148   4.253   5.083
 3969TIP3   OH211912   5.866   3.001   2.212
 3969TIP3    H111913   5.886   2.995   2.119
 3969TIP3    H211914   5.773   2.981   2.218
 3970TIP3   OH211915   4.399   2.301   1.045
 3970TIP3    H111916   4.464   2.252   0.994
 3970TIP3    H211917   4.451   2.354   1.105
 3971TIP3   OH211918   2.686   1.581   3.939
 3971TIP3    H111919   2.768   1.608   3.981
 3971TIP3    H211920   2.618   1.629   3.986
 3972TIP3   OH211921   3.366   2.752   2.682
 3972TIP3    H111922   3.271   2.751   2.673
 3972TIP3    H211923   3.389   2.664   2.711
 3973TIP3   OH211924   0.558   5.929   0.032
 3973TIP3    H111925   0.469   5.894   0.037
 3973TIP3    H211926   0.546   6.023   0.021
 3974TIP3   OH211927   5.894   0.297   3.721
 3974TIP3    H111928   5.903   0.366   3.656
 3974TIP3    H211929   5.896   0.343   3.805
 3975TIP3   OH211930   2.600   2.774   3.067
 3975TIP3    H111931   2.533   2.801   3.130
 3975TIP3    H211932   2.589   2.679   3.059
 3976TIP3   OH211933   0.605   0.511   4.631
 3976TIP3    H111934   0.542   0.516   4.703
 3976TIP3    H211935   0.555   0.475   4.558
 3977TIP3   OH211936   2.789   5.329   3.168
 3977TIP3    H111937   2.813   5.238   3.185
 3977TIP3    H211938   2.694   5.328   3.158
 3978TIP3   OH211939   6.253   1.526   1.425
 3978TIP3    H111940   6.326   1.496   1.479
 3978TIP3    H211941   6.267   1.483   1.340
 3979TIP3   OH211942   2.923   5.702   5.058
 3979TIP3    H111943   2.969   5.708   5.142
 3979TIP3    H211944   2.866   5.779   5.057
 3980TIP3   OH211945   4.015   3.591   4.114
 3980TIP3    H111946   3.956   3.576   4.040
 3980TIP3    H211947   4.041   3.683   4.105
 3981TIP3   OH211948   2.325   0.444   5.127
 3981TIP3    H111949   2.253   0.408   5.074
 3981TIP3    H211950   2.339   0.532   5.092
 3982TIP3   OH211951   1.140   2.103   3.509
 3982TIP3    H111952   1.213   2.060   3.465
 3982TIP3    H211953   1.169   2.113   3.600
 3983TIP3   OH211954   5.458   4.695   4.377
 3983TIP3    H111955   5.505   4.615   4.353
 3983TIP3    H211956   5.398   4.711   4.304
 3984TIP3   OH211957   6.077   5.443   4.187
 3984TIP3    H111958   6.118   5.368   4.230
 3984TIP3    H211959   6.143   5.511   4.189
 3985TIP3   OH211960   5.573   2.115   3.250
 3985TIP3    H111961   5.629   2.077   3.183
 3985TIP3    H211962   5.533   2.191   3.208
 3986TIP3   OH211963   4.615   4.987   4.439
 3986TIP3    H111964   4.636   5.035   4.520
 3986TIP3    H211965   4.669   5.029   4.372
 3987TIP3   OH211966   1.964   5.757   2.046
 3987TIP3    H111967   1.889   5.785   2.099
 3987TIP3    H211968   1.932   5.758   1.956
 3988TIP3   OH211969   5.147   3.887   2.432
 3988TIP3    H111970   5.078   3.946   2.403
 3988TIP3    H211971   5.165   3.832   2.356
 3989TIP3   OH211972   3.644   2.734   2.287
 3989TIP3    H111973   3.590   2.709   2.362
 3989TIP3    H211974   3.731   2.751   2.326
 3990TIP3   OH211975   2.339   5.274   2.161
 3990TIP3    H111976   2.322   5.347   2.102
 3990TIP3    H211977   2.257   5.260   2.207
 3991TIP3   OH211978   0.847   1.755   1.502
 3991TIP3    H111979   0.935   1.771   1.536
 3991TIP3    H211980   0.801   1.710   1.573
 3992TIP3   OH211981   5.683   3.179   0.635
 3992TIP3    H111982   5.739   3.256   0.625
 3992TIP3    H211983   5.616   3.189   0.567
 3993TIP3   OH211984   2.100   5.470   3.168
 3993TIP3    H111985   2.177   5.523   3.148
 3993TIP3    H211986   2.028   5.514   3.122
 3994TIP3   OH211987   0.433   3.731   3.027
 3994TIP3    H111988   0.526   3.732   3.005
 3994TIP3    H211989   0.430   3.696   3.116
 3995TIP3   OH211990   1.597   5.326   0.649
 3995TIP3    H111991   1.505   5.302   0.664
 3995TIP3    H211992   1.594   5.382   0.571
 3996TIP3   OH211993   3.101   4.741   0.856
 3996TIP3    H111994   3.056   4.810   0.904
 3996TIP3    H211995   3.052   4.661   0.877
 3997TIP3   OH211996   0.116   2.606   1.477
 3997TIP3    H111997   0.095   2.543   1.408
 3997TIP3    H211998   0.046   2.597   1.541
 3998TIP3   OH211999   1.300   5.515   2.717
 3998TIP3    H112000   1.296   5.538   2.810
 3998TIP3    H212001   1.244   5.579   2.674
 3999TIP3   OH212002   4.837   0.983   1.529
 3999TIP3    H112003   4.926   1.008   1.553
 3999TIP3    H212004   4.819   1.032   1.448
 4000TIP3   OH212005   1.722   3.371   4.553
 4000TIP3    H112006   1.733   3.421   4.634
 4000TIP3    H212007   1.811   3.342   4.531
 4001TIP3   OH212008   1.106   0.448   0.067
 4001TIP3    H112009   1.015   0.468   0.045
 4001TIP3    H212010   1.151   0.449  -0.017
 4002TIP3   OH212011   4.609   5.637   2.983
 4002TIP3    H112012   4.573   5.620   2.897
 4002TIP3    H212013   4.684   5.694   2.967
 4003TIP3   OH212014   3.244   0.395   5.003
 4003TIP3    H112015   3.190   0.469   5.029
 4003TIP3    H212016   3.315   0.394   5.067
 4004TIP3   OH212017   4.110   4.484   0.635
 4004TIP3    H112018   4.028   4.439   0.613
 4004TIP3    H212019   4.118   4.553   0.568
 4005TIP3   OH212020   3.551   4.813   1.507
 4005TIP3    H112021   3.614   4.877   1.474
 4005TIP3    H212022   3.595   4.729   1.497
 4006TIP3   OH212023   4.664   4.574   0.894
 4006TIP3    H112024   4.718   4.498   0.874
 4006TIP3    H212025   4.579   4.538   0.917
 4007TIP3   OH212026   4.839   3.844   0.938
 4007TIP3    H112027   4.748   3.817   0.928
 4007TIP3    H212028   4.848   3.863   1.032
 4008TIP3   OH212029   0.007   1.692   3.502
 4008TIP3    H112030   0.083   1.646   3.538
 4008TIP3    H212031  -0.033   1.629   3.442
 4009TIP3   OH212032   0.796   3.564   3.237
 4009TIP3    H112033   0.838   3.546   3.321
 4009TIP3    H212034   0.859   3.531   3.172
 4010TIP3   OH212035   0.998   2.907   3.213
 4010TIP3    H112036   0.920   2.903   3.268
 4010TIP3    H212037   0.997   2.825   3.164
 4011TIP3   OH212038   2.191   0.581   2.635
 4011TIP3    H112039   2.198   0.593   2.541
 4011TIP3    H212040   2.123   0.514   2.646
 4012TIP3   OH212041   6.002   3.735   0.407
 4012TIP3    H112042   6.063   3.685   0.353
 4012TIP3    H212043   6.020   3.827   0.386
 4013TIP3   OH212044   2.033   2.258   4.167
 4013TIP3    H112045   2.106   2.274   4.227
 4013TIP3    H212046   1.991   2.343   4.157
 4014TIP3   OH212047   0.022   3.928   0.474
 4014TIP3    H112048  -0.064   3.962   0.499
 4014TIP3    H212049   0.084   3.980   0.523
 4015TIP3   OH212050   2.789   4.455   0.747
 4015TIP3    H112051   2.709   4.505   0.764
 4015TIP3    H212052   2.767   4.365   0.773
 4016TIP3   OH212053   5.716   3.317   2.254
 4016TIP3    H112054   5.627   3.281   2.248
 4016TIP3    H212055   5.760   3.285   2.175
 4017TIP3   OH212056   4.007   5.225   2.619
 4017TIP3    H112057   4.083   5.212   2.675
 4017TIP3    H212058   4.043   5.234   2.531
 4018TIP3   OH212059   5.331   3.514   3.360
 4018TIP3    H112060   5.280   3.468   3.427
 4018TIP3    H212061   5.268   3.571   3.316
 4019TIP3   OH212062   3.883   0.282   4.075
 4019TIP3    H112063   3.894   0.363   4.125
 4019TIP3    H212064   3.936   0.218   4.122
 4020TIP3   OH212065   2.212   2.281   2.945
 4020TIP3    H112066   2.213   2.197   2.898
 4020TIP3    H212067   2.122   2.290   2.975
 4021TIP3   OH212068   6.351   4.429   2.583
 4021TIP3    H112069   6.277   4.370   2.570
 4021TIP3    H212070   6.314   4.502   2.633
 4022TIP3   OH212071   1.529   5.491   3.511
 4022TIP3    H112072   1.486   5.407   3.495
 4022TIP3    H212073   1.512   5.542   3.432
 4023TIP3   OH212074   4.429   6.005   4.779
 4023TIP3    H112075   4.356   5.945   4.764
 4023TIP3    H212076   4.436   6.011   4.874
 4024TIP3   OH212077   0.862   2.251   2.843
 4024TIP3    H112078   0.893   2.268   2.754
 4024TIP3    H212079   0.791   2.188   2.832
 4025TIP3   OH212080   5.281   0.879   2.738
 4025TIP3    H112081   5.375   0.875   2.720
 4025TIP3    H212082   5.243   0.812   2.681
 4026TIP3   OH212083   0.769   0.827   3.380
 4026TIP3    H112084   0.827   0.896   3.412
 4026TIP3    H212085   0.823   0.747   3.384
 4027TIP3   OH212086   5.501   3.236   4.999
 4027TIP3    H112087   5.455   3.215   5.080
 4027TIP3    H212088   5.480   3.162   4.941
 4028TIP3   OH212089   5.724   3.919   4.509
 4028TIP3    H112090   5.749   3.982   4.577
 4028TIP3    H212091   5.675   3.971   4.445
 4029TIP3   OH212092   1.191   3.898   2.612
 4029TIP3    H112093   1.260   3.838   2.641
 4029TIP3    H212094   1.229   3.985   2.622
 4030TIP3   OH212095   5.424   3.063   2.998
 4030TIP3    H112096   5.461   3.137   2.950
 4030TIP3    H212097   5.499   3.006   3.015
 4031TIP3   OH212098   1.101   1.310   1.056
 4031TIP3    H112099   1.143   1.373   0.998
 4031TIP3    H212100   1.032   1.271   1.002
 4032TIP3   OH212101   1.739   4.988   2.812
 4032TIP3    H112102   1.686   4.909   2.810
 4032TIP3    H212103   1.707   5.040   2.738
 4033TIP3   OH212104   2.789   2.091   3.320
 4033TIP3    H112105   2.759   2.169   3.272
 4033TIP3    H212106   2.750   2.100   3.407
 4034TIP3   OH212107   3.608   5.551   2.950
 4034TIP3    H112108   3.587   5.644   2.938
 4034TIP3    H212109   3.700   5.551   2.976
 4035TIP3   OH212110   5.372   3.894   1.540
 4035TIP3    H112111   5.354   3.858   1.627
 4035TIP3    H212112   5.321   3.975   1.536
 4036TIP3   OH212113   1.356   0.936   0.389
 4036TIP3    H112114   1.371   1.027   0.415
 4036TIP3    H212115   1.435   0.891   0.417
 4037TIP3   OH212116   0.188   3.926   3.699
 4037TIP3    H112117   0.106   3.923   3.651
 4037TIP3    H212118   0.162   3.931   3.791
 4038TIP3   OH212119   2.473   4.342   0.149
 4038TIP3    H112120   2.517   4.375   0.227
 4038TIP3    H212121   2.534   4.277   0.113
 4039TIP3   OH212122   0.995   3.196   4.934
 4039TIP3    H112123   0.908   3.227   4.959
 4039TIP3    H212124   1.031   3.157   5.013
 4040TIP3   OH212125   1.051   0.575   1.593
 4040TIP3    H112126   1.067   0.481   1.585
 4040TIP3    H212127   1.050   0.607   1.503
 4041TIP3   OH212128   0.466   0.594   0.879
 4041TIP3    H112129   0.398   0.573   0.815
 4041TIP3    H212130   0.487   0.686   0.863
 4042TIP3   OH212131   3.774   1.990   3.741
 4042TIP3    H112132   3.818   1.935   3.806
 4042TIP3    H212133   3.725   1.928   3.687
 4043TIP3   OH212134   1.337   4.417   1.725
 4043TIP3    H112135   1.385   4.374   1.655
 4043TIP3    H212136   1.258   4.451   1.683
 4044TIP3   OH212137   5.509   3.340   1.108
 4044TIP3    H112138   5.569   3.286   1.056
 4044TIP3    H212139   5.533   3.430   1.087
 4045TIP3   OH212140   0.728   4.697   4.337
 4045TIP3    H112141   0.777   4.771   4.372
 4045TIP3    H212142   0.754   4.692   4.245
 4046TIP3   OH212143   0.597   3.426   3.095
 4046TIP3    H112144   0.654   3.467   3.160
 4046TIP3    H212145   0.623   3.334   3.095
 4047TIP3   OH212146   2.178   1.448   4.932
 4047TIP3    H112147   2.142   1.530   4.966
 4047TIP3    H212148   2.133   1.435   4.849
 4048TIP3   OH212149   6.319   1.655   0.369
 4048TIP3    H112150   6.345   1.724   0.430
 4048TIP3    H212151   6.311   1.577   0.424
 4049TIP3   OH212152   3.232   4.516   0.266
 4049TIP3    H112153   3.258   4.548   0.352
 4049TIP3    H212154   3.218   4.422   0.278
 4050TIP3   OH212155   6.021   4.918   4.880
 4050TIP3    H112156   6.103   4.964   4.900
 4050TIP3    H212157   6.048   4.829   4.860
 4051TIP3   OH212158   0.850   1.347   2.932
 4051TIP3    H112159   0.813   1.263   2.960
 4051TIP3    H212160   0.912   1.370   3.001
 4052TIP3   OH212161   4.306   1.993   2.360
 4052TIP3    H112162   4.369   1.995   2.432
 4052TIP3    H212163   4.348   2.045   2.291
 4053TIP3   OH212164   5.461   3.830   4.565
 4053TIP3    H112165   5.555   3.845   4.565
 4053TIP3    H212166   5.452   3.735   4.576
 4054TIP3   OH212167   5.685   0.179   2.746
 4054TIP3    H112168   5.762   0.126   2.725
 4054TIP3    H212169   5.720   0.253   2.796
 4055TIP3   OH212170   0.452   3.662   3.305
 4055TIP3    H112171   0.525   3.720   3.325
 4055TIP3    H212172   0.448   3.602   3.380
 4056TIP3   OH212173   4.139   1.030   1.778
 4056TIP3    H112174   4.106   1.115   1.751
 4056TIP3    H212175   4.234   1.039   1.776
 4057TIP3   OH212176   4.076   3.561   2.698
 4057TIP3    H112177   4.011   3.501   2.733
 4057TIP3    H212178   4.103   3.614   2.773
 4058TIP3   OH212179   4.098   5.625   4.293
 4058TIP3    H112180   4.178   5.676   4.303
 4058TIP3    H212181   4.031   5.690   4.272
 4059TIP3   OH212182   2.562   1.823   2.230
 4059TIP3    H112183   2.515   1.891   2.181
 4059TIP3    H212184   2.527   1.829   2.319
 4060TIP3   OH212185   0.587   2.217   4.236
 4060TIP3    H112186   0.517   2.245   4.296
 4060TIP3    H212187   0.607   2.128   4.264
 4061TIP3   OH212188   0.275   1.918   3.201
 4061TIP3    H112189   0.182   1.940   3.202
 4061TIP3    H212190   0.278   1.826   3.229
 4062TIP3   OH212191   0.121   1.380   1.539
 4062TIP3    H112192   0.165   1.343   1.463
 4062TIP3    H212193   0.180   1.360   1.612
 4063TIP3   OH212194   0.236   2.833   1.200
 4063TIP3    H112195   0.156   2.784   1.218
 4063TIP3    H212196   0.239   2.839   1.104
 4064TIP3   OH212197   1.252   5.397   4.496
 4064TIP3    H112198   1.295   5.355   4.422
 4064TIP3    H212199   1.215   5.324   4.546
 4065TIP3   OH212200   5.387   0.905   3.863
 4065TIP3    H112201   5.379   0.811   3.879
 4065TIP3    H212202   5.305   0.929   3.820
 4066TIP3   OH212203   2.057   0.097   2.692
 4066TIP3    H112204   2.080   0.038   2.619
 4066TIP3    H212205   2.021   0.038   2.759
 4067TIP3   OH212206   5.856   1.961   0.157
 4067TIP3    H112207   5.899   1.892   0.210
 4067TIP3    H212208   5.848   1.922   0.070
 4068TIP3   OH212209   3.262   2.731   3.302
 4068TIP3    H112210   3.342   2.777   3.276
 4068TIP3    H212211   3.232   2.778   3.379
 4069TIP3   OH212212   0.821   5.934   1.361
 4069TIP3    H112213   0.841   5.920   1.268
 4069TIP3    H212214   0.782   6.021   1.364
 4070TIP3   OH212215   2.426   2.956   3.966
 4070TIP3    H112216   2.473   3.039   3.968
 4070TIP3    H212217   2.420   2.934   3.873
 4071TIP3   OH212218   2.185   4.425   1.300
 4071TIP3    H112219   2.117   4.411   1.234
 4071TIP3    H212220   2.215   4.337   1.323
 4072TIP3   OH212221   2.018   3.328   2.608
 4072TIP3    H112222   1.926   3.307   2.596
 4072TIP3    H212223   2.048   3.356   2.521
 4073TIP3   OH212224   4.249   4.108   0.960
 4073TIP3    H112225   4.299   4.155   0.892
 4073TIP3    H212226   4.160   4.142   0.951
 4074TIP3   OH212227   1.674   3.209   0.670
 4074TIP3    H112228   1.601   3.241   0.617
 4074TIP3    H212229   1.665   3.114   0.669
 4075TIP3   OH212230   2.746   1.383   4.177
 4075TIP3    H112231   2.688   1.354   4.107
 4075TIP3    H212232   2.827   1.408   4.133
 4076TIP3   OH212233   2.225   5.056   0.235
 4076TIP3    H112234   2.168   5.045   0.159
 4076TIP3    H212235   2.304   5.005   0.213
 4077TIP3   OH212236   2.021   0.491   0.004
 4077TIP3    H112237   1.997   0.509   0.095
 4077TIP3    H212238   1.944   0.518  -0.046
 4078TIP3   OH212239   2.912   3.597   0.231
 4078TIP3    H112240   2.856   3.650   0.174
 4078TIP3    H212241   2.868   3.512   0.235
 4079TIP3   OH212242   0.511   0.905   2.351
 4079TIP3    H112243   0.583   0.852   2.316
 4079TIP3    H212244   0.532   0.917   2.443
 4080TIP3   OH212245   2.993   4.505   4.278
 4080TIP3    H112246   2.984   4.536   4.188
 4080TIP3    H212247   2.904   4.508   4.313
 4081TIP3   OH212248   1.555   3.651   1.753
 4081TIP3    H112249   1.577   3.558   1.746
 4081TIP3    H212250   1.605   3.682   1.829
 4082TIP3   OH212251   2.857   2.843   1.645
 4082TIP3    H112252   2.843   2.936   1.662
 4082TIP3    H212253   2.832   2.799   1.726
 4083TIP3   OH212254   0.209   4.162   4.086
 4083TIP3    H112255   0.160   4.139   4.008
 4083TIP3    H212256   0.301   4.164   4.057
 4084TIP3   OH212257   1.490   4.643   4.842
 4084TIP3    H112258   1.508   4.609   4.754
 4084TIP3    H212259   1.460   4.732   4.828
 4085TIP3   OH212260   0.886   5.025   2.731
 4085TIP3    H112261   0.827   4.950   2.731
 4085TIP3    H212262   0.964   4.994   2.776
 4086TIP3   OH212263   0.041   3.685   4.688
 4086TIP3    H112264   0.065   3.717   4.775
 4086TIP3    H212265   0.010   3.763   4.642
 4087TIP3   OH212266   2.392   3.004   0.667
 4087TIP3    H112267   2.346   3.014   0.750
 4087TIP3    H212268   2.322   3.000   0.602
 4088TIP3   OH212269   2.690   1.838   1.743
 4088TIP3    H112270   2.598   1.819   1.729
 4088TIP3    H212271   2.696   1.862   1.835
 4089TIP3   OH212272   3.271   5.201   3.092
 4089TIP3    H112273   3.323   5.143   3.148
 4089TIP3    H212274   3.245   5.146   3.018
 4090TIP3   OH212275   3.715   5.065   1.479
 4090TIP3    H112276   3.650   5.037   1.415
 4090TIP3    H212277   3.799   5.037   1.442
 4091TIP3   OH212278   0.404   3.824   2.637
 4091TIP3    H112279   0.358   3.757   2.688
 4091TIP3    H212280   0.360   3.905   2.660
 4092TIP3   OH212281   2.436   0.183   5.120
 4092TIP3    H112282   2.411   0.268   5.156
 4092TIP3    H212283   2.355   0.132   5.121
 4093TIP3   OH212284   0.820   0.172   0.655
 4093TIP3    H112285   0.736   0.132   0.679
 4093TIP3    H212286   0.883   0.134   0.716
 4094TIP3   OH212287   5.278   4.849   2.861
 4094TIP3    H112288   5.242   4.878   2.945
 4094TIP3    H212289   5.203   4.845   2.803
 4095TIP3   OH212290   4.729   5.016   0.835
 4095TIP3    H112291   4.656   5.078   0.836
 4095TIP3    H212292   4.715   4.963   0.757
 4096TIP3   OH212293   0.198   1.417   5.074
 4096TIP3    H112294   0.148   1.342   5.043
 4096TIP3    H212295   0.288   1.399   5.046
 4097TIP3   OH212296   0.501   1.929   0.622
 4097TIP3    H112297   0.570   1.994   0.633
 4097TIP3    H212298   0.491   1.922   0.527
 4098TIP3   OH212299   2.958   1.201   4.755
 4098TIP3    H112300   2.883   1.182   4.811
 4098TIP3    H212301   2.945   1.145   4.678
 4099TIP3   OH212302   5.365   2.198   4.710
 4099TIP3    H112303   5.283   2.152   4.724
 4099TIP3    H212304   5.371   2.209   4.615
 4100TIP3   OH212305   5.204   2.236   1.845
 4100TIP3    H112306   5.269   2.170   1.868
 4100TIP3    H212307   5.181   2.278   1.928
 4101TIP3   OH212308   1.571   1.575   0.006
 4101TIP3    H112309   1.538   1.503   0.059
 4101TIP3    H212310   1.649   1.540  -0.036
 4102TIP3   OH212311   4.772   0.811   3.365
 4102TIP3    H112312   4.788   0.862   3.286
 4102TIP3    H212313   4.850   0.756   3.375
 4103TIP3   OH212314   3.194   5.607   3.674
 4103TIP3    H112315   3.234   5.529   3.636
 4103TIP3    H212316   3.101   5.598   3.654
 4104TIP3   OH212317   3.005   0.247   1.858
 4104TIP3    H112318   2.925   0.196   1.850
 4104TIP3    H212319   2.975   0.337   1.867
 4105TIP3   OH212320   1.374   1.184   0.544
 4105TIP3    H112321   1.426   1.263   0.528
 4105TIP3    H212322   1.368   1.178   0.639
 4106TIP3   OH212323   2.372   1.138   5.160
 4106TIP3    H112324   2.394   1.211   5.101
 4106TIP3    H212325   2.277   1.142   5.167
 4107TIP3   OH212326   3.872   4.920   0.226
 4107TIP3    H112327   3.877   4.824   0.224
 4107TIP3    H212328   3.903   4.944   0.313
 4108TIP3   OH212329   1.633   2.572   3.241
 4108TIP3    H112330   1.586   2.642   3.197
 4108TIP3    H212331   1.673   2.522   3.171
 4109TIP3   OH212332   3.986   4.457   1.662
 4109TIP3    H112333   3.922   4.460   1.732
 4109TIP3    H212334   4.006   4.364   1.650
 4110TIP3   OH212335   3.669   0.373   0.448
 4110TIP3    H112336   3.762   0.356   0.461
 4110TIP3    H212337   3.630   0.358   0.535
 4111TIP3   OH212338   2.646   4.810   4.290
 4111TIP3    H112339   2.588   4.807   4.213
 4111TIP3    H212340   2.717   4.868   4.264
 4112TIP3   OH212341   1.441   5.312   2.555
 4112TIP3    H112342   1.532   5.343   2.551
 4112TIP3    H212343   1.402   5.362   2.626
 4113TIP3   OH212344   4.913   2.356   2.325
 4113TIP3    H112345   4.841   2.386   2.270
 4113TIP3    H212346   4.971   2.431   2.333
 4114TIP3   OH212347   3.683   3.334   1.298
 4114TIP3    H112348   3.608   3.278   1.279
 4114TIP3    H212349   3.690   3.335   1.393
 4115TIP3   OH212350   0.611   3.855   3.464
 4115TIP3    H112351   0.592   3.829   3.555
 4115TIP3    H212352   0.608   3.951   3.466
 4116TIP3   OH212353   2.500   0.984   0.457
 4116TIP3    H112354   2.503   1.031   0.373
 4116TIP3    H212355   2.408   0.989   0.483
 4117TIP3   OH212356   4.847   2.165   3.489
 4117TIP3    H112357   4.838   2.164   3.394
 4117TIP3    H212358   4.774   2.114   3.521
 4118TIP3   OH212359   0.874   3.678   2.870
 4118TIP3    H112360   0.806   3.634   2.819
 4118TIP3    H212361   0.825   3.734   2.931
 4119TIP3   OH212362   4.126   0.699   0.232
 4119TIP3    H112363   4.186   0.677   0.161
 4119TIP3    H212364   4.056   0.634   0.225
 4120TIP3   OH212365   4.166   4.613   1.778
 4120TIP3    H112366   4.118   4.547   1.729
 4120TIP3    H212367   4.098   4.673   1.810
 4121TIP3   OH212368   4.470   1.136   2.386
 4121TIP3    H112369   4.505   1.157   2.473
 4121TIP3    H212370   4.408   1.065   2.403
 4122TIP3   OH212371   0.590   4.022   2.938
 4122TIP3    H112372   0.631   3.983   3.015
 4122TIP3    H212373   0.633   3.980   2.863
 4123TIP3   OH212374   5.668   1.670   0.368
 4123TIP3    H112375   5.677   1.599   0.431
 4123TIP3    H212376   5.621   1.631   0.294
 4124TIP3   OH212377   5.304   4.526   4.199
 4124TIP3    H112378   5.245   4.533   4.124
 4124TIP3    H212379   5.252   4.558   4.273
 4125TIP3   OH212380   5.349   2.116   1.389
 4125TIP3    H112381   5.273   2.125   1.447
 4125TIP3    H212382   5.321   2.052   1.323
 4126TIP3   OH212383   2.891   1.941   3.666
 4126TIP3    H112384   2.849   2.022   3.639
 4126TIP3    H212385   2.818   1.883   3.690
 4127TIP3   OH212386   5.232   0.564   1.704
 4127TIP3    H112387   5.192   0.537   1.786
 4127TIP3    H212388   5.199   0.653   1.689
 4128TIP3   OH212389   0.841   4.424   4.539
 4128TIP3    H112390   0.843   4.519   4.539
 4128TIP3    H212391   0.899   4.399   4.468
 4129TIP3   OH212392   4.260   3.251   1.762
 4129TIP3    H112393   4.329   3.256   1.696
 4129TIP3    H212394   4.293   3.302   1.835
 4130TIP3   OH212395   4.699   0.089   3.487
 4130TIP3    H112396   4.784   0.132   3.479
 4130TIP3    H212397   4.640   0.141   3.434
 4131TIP3   OH212398   5.977   1.527   0.202
 4131TIP3    H112399   5.973   1.621   0.218
 4131TIP3    H212400   5.898   1.492   0.244
 4132TIP3   OH212401   2.465   4.344   0.599
 4132TIP3    H112402   2.479   4.387   0.683
 4132TIP3    H212403   2.416   4.408   0.547
 4133TIP3   OH212404   2.455   5.912   0.964
 4133TIP3    H112405   2.439   5.822   0.938
 4133TIP3    H212406   2.368   5.952   0.966
 4134TIP3   OH212407   0.462   2.491   3.085
 4134TIP3    H112408   0.554   2.462   3.087
 4134TIP3    H212409   0.467   2.585   3.067
 4135TIP3   OH212410   1.711   3.381   3.984
 4135TIP3    H112411   1.793   3.337   3.962
 4135TIP3    H212412   1.646   3.341   3.927
 4136TIP3   OH212413   3.824   1.609   1.438
 4136TIP3    H112414   3.857   1.532   1.484
 4136TIP3    H212415   3.900   1.666   1.427
 4137TIP3   OH212416   2.961   3.015   2.306
 4137TIP3    H112417   2.925   3.100   2.331
 4137TIP3    H212418   3.011   3.034   2.226
 4138TIP3   OH212419   2.726   1.106   3.464
 4138TIP3    H112420   2.677   1.026   3.484
 4138TIP3    H212421   2.770   1.088   3.381
 4139TIP3   OH212422   3.973   4.164   5.111
 4139TIP3    H112423   4.052   4.120   5.140
 4139TIP3    H212424   3.907   4.139   5.176
 4140TIP3   OH212425   4.096   2.510   1.729
 4140TIP3    H112426   4.047   2.576   1.680
 4140TIP3    H212427   4.115   2.553   1.813
 4141TIP3   OH212428   2.403   0.332   4.445
 4141TIP3    H112429   2.347   0.401   4.409
 4141TIP3    H212430   2.491   0.356   4.417
 4142TIP3   OH212431   6.287   1.670   4.910
 4142TIP3    H112432   6.348   1.663   4.984
 4142TIP3    H212433   6.288   1.762   4.885
 4143TIP3   OH212434   1.308   0.085   2.062
 4143TIP3    H112435   1.353   0.106   1.980
 4143TIP3    H212436   1.215   0.089   2.040
 4144TIP3   OH212437   5.556   3.791   3.769
 4144TIP3    H112438   5.574   3.716   3.712
 4144TIP3    H212439   5.634   3.799   3.824
 4145TIP3   OH212440   3.419   4.167   3.157
 4145TIP3    H112441   3.323   4.161   3.160
 4145TIP3    H212442   3.448   4.103   3.223
 4146TIP3   OH212443   4.230   0.352   0.457
 4146TIP3    H112444   4.307   0.406   0.472
 4146TIP3    H212445   4.262   0.262   0.463
 4147TIP3   OH212446   1.585   2.027   0.463
 4147TIP3    H112447   1.556   2.009   0.374
 4147TIP3    H212448   1.679   2.043   0.455
 4148TIP3   OH212449   3.916   0.899   2.313
 4148TIP3    H112450   3.987   0.836   2.322
 4148TIP3    H212451   3.938   0.969   2.374
 4149TIP3   OH212452   1.089   4.955   2.932
 4149TIP3    H112453   1.033   4.908   2.994
 4149TIP3    H212454   1.175   4.959   2.974
 4150TIP3   OH212455   3.107   4.066   0.725
 4150TIP3    H112456   3.042   4.005   0.691
 4150TIP3    H212457   3.157   4.015   0.788
 4151TIP3   OH212458   1.695   0.152   3.433
 4151TIP3    H112459   1.713   0.174   3.342
 4151TIP3    H212460   1.620   0.093   3.430
 4152TIP3   OH212461   0.730   0.215   1.575
 4152TIP3    H112462   0.655   0.263   1.609
 4152TIP3    H212463   0.760   0.265   1.500
 4153TIP3   OH212464   3.282   0.370   3.399
 4153TIP3    H112465   3.240   0.327   3.325
 4153TIP3    H212466   3.306   0.299   3.458
 4154TIP3   OH212467   4.117   2.360   2.604
 4154TIP3    H112468   4.027   2.326   2.611
 4154TIP3    H212469   4.125   2.388   2.513
 4155TIP3   OH212470   4.401   1.856   3.291
 4155TIP3    H112471   4.338   1.835   3.360
 4155TIP3    H212472   4.380   1.946   3.266
 4156TIP3   OH212473   5.128   2.852   0.103
 4156TIP3    H112474   5.036   2.852   0.077
 4156TIP3    H212475   5.145   2.942   0.131
 4157TIP3   OH212476   4.931   0.232   1.287
 4157TIP3    H112477   4.922   0.210   1.380
 4157TIP3    H212478   4.873   0.171   1.241
 4158TIP3   OH212479   0.731   2.611   1.817
 4158TIP3    H112480   0.761   2.697   1.845
 4158TIP3    H212481   0.712   2.622   1.723
 4159TIP3   OH212482   1.546   3.794   0.491
 4159TIP3    H112483   1.504   3.709   0.477
 4159TIP3    H212484   1.535   3.839   0.407
 4160TIP3   OH212485   6.313   2.962   2.778
 4160TIP3    H112486   6.321   2.922   2.865
 4160TIP3    H212487   6.234   2.922   2.741
 4161TIP3   OH212488   1.015   3.627   4.626
 4161TIP3    H112489   1.028   3.706   4.573
 4161TIP3    H212490   1.103   3.604   4.657
 4162TIP3   OH212491   0.306   1.702   0.654
 4162TIP3    H112492   0.245   1.771   0.680
 4162TIP3    H212493   0.390   1.747   0.643
 4163TIP3   OH212494   5.556   1.881   0.549
 4163TIP3    H112495   5.467   1.863   0.519
 4163TIP3    H212496   5.609   1.814   0.506
 4164TIP3   OH212497   3.559   4.998   1.249
 4164TIP3    H112498   3.581   4.962   1.163
 4164TIP3    H212499   3.478   5.048   1.235
 4165TIP3   OH212500   6.003   4.366   1.823
 4165TIP3    H112501   6.005   4.425   1.748
 4165TIP3    H212502   5.927   4.310   1.808
 4166TIP3   OH212503   4.484   3.095   5.111
 4166TIP3    H112504   4.451   3.038   5.042
 4166TIP3    H212505   4.436   3.177   5.099
 4167TIP3   OH212506   5.704   0.629   5.141
 4167TIP3    H112507   5.703   0.572   5.065
 4167TIP3    H212508   5.693   0.718   5.106
 4168TIP3   OH212509   3.504   2.764   1.921
 4168TIP3    H112510   3.482   2.835   1.982
 4168TIP3    H212511   3.594   2.783   1.894
 4169TIP3   OH212512   1.234   1.863   3.252
 4169TIP3    H112513   1.232   1.876   3.157
 4169TIP3    H212514   1.287   1.936   3.285
 4170TIP3   OH212515   0.056   4.457   5.106
 4170TIP3    H112516   0.065   4.380   5.049
 4170TIP3    H212517   0.062   4.422   5.195
 4171TIP3   OH212518   5.993   1.654   0.618
 4171TIP3    H112519   5.952   1.737   0.642
 4171TIP3    H212520   6.075   1.653   0.667
 4172TIP3   OH212521   5.388   1.751   5.207
 4172TIP3    H112522   5.401   1.691   5.133
 4172TIP3    H212523   5.370   1.836   5.166
 4173TIP3   OH212524   0.741   1.358   0.117
 4173TIP3    H112525   0.801   1.294   0.080
 4173TIP3    H212526   0.798   1.425   0.155
 4174TIP3   OH212527   5.986   1.178   4.344
 4174TIP3    H112528   5.891   1.192   4.348
 4174TIP3    H212529   6.011   1.160   4.435
 4175TIP3   OH212530   2.281   4.939   5.099
 4175TIP3    H112531   2.251   4.900   5.017
 4175TIP3    H212532   2.201   4.959   5.147
 4176TIP3   OH212533   2.702   3.736   0.112
 4176TIP3    H112534   2.689   3.804   0.046
 4176TIP3    H212535   2.628   3.676   0.099
 4177TIP3   OH212536   4.714   3.957   0.087
 4177TIP3    H112537   4.710   3.996   0.174
 4177TIP3    H212538   4.654   4.010   0.034
 4178TIP3   OH212539   1.461   1.174   3.237
 4178TIP3    H112540   1.394   1.108   3.216
 4178TIP3    H212541   1.532   1.157   3.175
 4179TIP3   OH212542   3.580   0.129   2.020
 4179TIP3    H112543   3.570   0.221   2.000
 4179TIP3    H212544   3.511   0.085   1.971
 4180TIP3   OH212545   0.089   5.304   4.503
 4180TIP3    H112546   0.174   5.330   4.538
 4180TIP3    H212547   0.080   5.212   4.528
 4181TIP3   OH212548   2.950   4.606   2.163
 4181TIP3    H112549   2.876   4.549   2.186
 4181TIP3    H212550   2.953   4.603   2.068
 4182TIP3   OH212551   3.018   2.421   4.674
 4182TIP3    H112552   3.077   2.346   4.679
 4182TIP3    H212553   2.945   2.399   4.732
 4183TIP3   OH212554   3.752   2.359   0.972
 4183TIP3    H112555   3.791   2.401   0.895
 4183TIP3    H212556   3.805   2.281   0.986
 4184TIP3   OH212557   4.050   2.790   0.095
 4184TIP3    H112558   3.998   2.840   0.158
 4184TIP3    H212559   3.985   2.737   0.048
 4185TIP3   OH212560   4.221   4.149   4.452
 4185TIP3    H112561   4.186   4.225   4.405
 4185TIP3    H212562   4.313   4.145   4.425
 4186TIP3   OH212563   2.656   5.369   0.193
 4186TIP3    H112564   2.572   5.402   0.224
 4186TIP3    H212565   2.664   5.282   0.232
 4187TIP3   OH212566   2.725   2.974   2.902
 4187TIP3    H112567   2.736   3.045   2.966
 4187TIP3    H212568   2.675   2.907   2.948
 4188TIP3   OH212569   3.624   3.825   3.728
 4188TIP3    H112570   3.629   3.788   3.640
 4188TIP3    H212571   3.710   3.807   3.767
 4189TIP3   OH212572   3.921   3.905   0.969
 4189TIP3    H112573   3.910   3.865   1.055
 4189TIP3    H212574   4.014   3.897   0.950
 4190TIP3   OH212575   1.835   2.665   4.368
 4190TIP3    H112576   1.911   2.612   4.395
 4190TIP3    H212577   1.795   2.615   4.297
 4191TIP3   OH212578   1.679   2.192   2.893
 4191TIP3    H112579   1.737   2.237   2.954
 4191TIP3    H212580   1.737   2.152   2.829
 4192TIP3   OH212581   6.152   4.587   4.010
 4192TIP3    H112582   6.194   4.646   4.072
 4192TIP3    H212583   6.076   4.552   4.057
 4193TIP3   OH212584   4.694   0.054   0.378
 4193TIP3    H112585   4.728  -0.036   0.379
 4193TIP3    H212586   4.741   0.097   0.307
 4194TIP3   OH212587   2.229   3.872   1.484
 4194TIP3    H112588   2.318   3.860   1.516
 4194TIP3    H212589   2.174   3.858   1.561
 4195TIP3   OH212590   0.506   2.144   2.659
 4195TIP3    H112591   0.493   2.235   2.683
 4195TIP3    H212592   0.418   2.107   2.654
 4196TIP3   OH212593   4.859   1.549   3.827
 4196TIP3    H112594   4.794   1.481   3.808
 4196TIP3    H212595   4.921   1.544   3.755
 4197TIP3   OH212596   4.058   3.835   4.999
 4197TIP3    H112597   4.134   3.842   4.941
 4197TIP3    H212598   4.008   3.761   4.965
 4198TIP3   OH212599   1.254   3.178   0.511
 4198TIP3    H112600   1.161   3.197   0.495
 4198TIP3    H212601   1.254   3.120   0.587
 4199TIP3   OH212602   1.014   4.864   0.611
 4199TIP3    H112603   1.082   4.796   0.619
 4199TIP3    H212604   1.043   4.933   0.670
 4200TIP3   OH212605   5.657   2.090   2.942
 4200TIP3    H112606   5.563   2.084   2.928
 4200TIP3    H212607   5.693   2.100   2.854
 4201TIP3   OH212608   2.563   4.154   2.522
 4201TIP3    H112609   2.608   4.238   2.535
 4201TIP3    H212610   2.471   4.174   2.539
 4202TIP3   OH212611   2.863   0.352   4.970
 4202TIP3    H112612   2.911   0.362   4.887
 4202TIP3    H212613   2.774   0.379   4.949
 4203TIP3   OH212614   3.610   1.392   0.568
 4203TIP3    H112615   3.680   1.344   0.525
 4203TIP3    H212616   3.608   1.477   0.524
 4204TIP3   OH212617   3.502   3.630   1.780
 4204TIP3    H112618   3.523   3.723   1.772
 4204TIP3    H212619   3.587   3.587   1.794
 4205TIP3   OH212620   3.377   4.228   1.731
 4205TIP3    H112621   3.417   4.232   1.817
 4205TIP3    H212622   3.446   4.195   1.673
 4206TIP3   OH212623   5.294   5.393   1.889
 4206TIP3    H112624   5.228   5.343   1.841
 4206TIP3    H212625   5.342   5.441   1.821
 4207TIP3   OH212626   5.875   5.434   3.028
 4207TIP3    H112627   5.852   5.525   3.050
 4207TIP3    H212628   5.938   5.442   2.956
 4208TIP3   OH212629   2.801   3.441   1.711
 4208TIP3    H112630   2.877   3.386   1.695
 4208TIP3    H212631   2.770   3.416   1.798
 4209TIP3   OH212632   2.361   0.127   3.766
 4209TIP3    H112633   2.426   0.063   3.736
 4209TIP3    H212634   2.329   0.092   3.849
 4210TIP3   OH212635   2.217   2.009   3.737
 4210TIP3    H112636   2.298   2.020   3.787
 4210TIP3    H212637   2.148   2.041   3.794
 4211TIP3   OH212638   3.123   1.013   0.527
 4211TIP3    H112639   3.051   1.016   0.464
 4211TIP3    H212640   3.154   0.922   0.523
 4212TIP3   OH212641   1.015   5.781   4.410
 4212TIP3    H112642   0.953   5.713   4.383
 4212TIP3    H212643   1.099   5.753   4.374
 4213TIP3   OH212644   1.472   3.066   1.542
 4213TIP3    H112645   1.426   3.148   1.525
 4213TIP3    H212646   1.498   3.035   1.455
 4214TIP3   OH212647   5.022   0.061   3.242
 4214TIP3    H112648   4.958   0.006   3.288
 4214TIP3    H212649   5.096   0.003   3.226
 4215TIP3   OH212650   0.621   1.110   3.302
 4215TIP3    H112651   0.648   1.041   3.242
 4215TIP3    H212652   0.579   1.175   3.247
 4216TIP3   OH212653   3.187   2.093   0.844
 4216TIP3    H112654   3.264   2.052   0.883
 4216TIP3    H212655   3.140   2.020   0.802
 4217TIP3   OH212656   4.979   1.690   2.125
 4217TIP3    H112657   4.897   1.736   2.144
 4217TIP3    H212658   4.968   1.604   2.164
 4218TIP3   OH212659   1.053   1.171   3.858
 4218TIP3    H112660   1.114   1.203   3.792
 4218TIP3    H212661   0.967   1.176   3.816
 4219TIP3   OH212662   5.308   0.993   0.466
 4219TIP3    H112663   5.312   0.986   0.561
 4219TIP3    H212664   5.260   1.075   0.450
 4220TIP3   OH212665   6.202   4.452   3.283
 4220TIP3    H112666   6.143   4.483   3.214
 4220TIP3    H212667   6.182   4.509   3.358
 4221TIP3   OH212668   2.156   0.342   3.887
 4221TIP3    H112669   2.076   0.302   3.921
 4221TIP3    H212670   2.206   0.269   3.850
 4222TIP3   OH212671   3.657   3.065   1.643
 4222TIP3    H112672   3.661   2.975   1.609
 4222TIP3    H212673   3.639   3.055   1.736
 4223TIP3   OH212674   4.000   4.719   0.884
 4223TIP3    H112675   3.943   4.708   0.807
 4223TIP3    H212676   4.048   4.801   0.867
 4224TIP3   OH212677   1.695   2.493   2.966
 4224TIP3    H112678   1.606   2.525   2.948
 4224TIP3    H212679   1.746   2.521   2.891
 4225TIP3   OH212680   3.131   3.016   0.205
 4225TIP3    H112681   3.169   2.950   0.262
 4225TIP3    H212682   3.045   3.035   0.243
 4226TIP3   OH212683   4.115   4.399   3.101
 4226TIP3    H112684   4.055   4.371   3.170
 4226TIP3    H212685   4.202   4.393   3.141
 4227TIP3   OH212686   2.290   3.825   1.964
 4227TIP3    H112687   2.377   3.785   1.964
 4227TIP3    H212688   2.307   3.919   1.971
 4228TIP3   OH212689   2.637   2.822   2.013
 4228TIP3    H112690   2.716   2.820   1.959
 4228TIP3    H212691   2.668   2.820   2.103
 4229TIP3   OH212692   4.870   4.524   5.196
 4229TIP3    H112693   4.921   4.579   5.137
 4229TIP3    H212694   4.903   4.435   5.181
 4230TIP3   OH212695   1.898   2.730   4.678
 4230TIP3    H112696   1.977   2.679   4.661
 4230TIP3    H212697   1.930   2.813   4.714
 4231TIP3   OH212698   6.110   4.429   4.840
 4231TIP3    H112699   6.063   4.510   4.857
 4231TIP3    H212700   6.132   4.433   4.746
 4232TIP3   OH212701   3.789   3.227   0.624
 4232TIP3    H112702   3.850   3.299   0.610
 4232TIP3    H212703   3.743   3.249   0.705
 4233TIP3   OH212704   3.279   1.469   0.447
 4233TIP3    H112705   3.259   1.515   0.528
 4233TIP3    H212706   3.291   1.538   0.382
 4234TIP3   OH212707   0.319   4.991   1.846
 4234TIP3    H112708   0.344   4.982   1.938
 4234TIP3    H212709   0.390   5.042   1.807
 4235TIP3   OH212710   1.910   1.376   2.418
 4235TIP3    H112711   1.947   1.294   2.451
 4235TIP3    H212712   1.822   1.353   2.390
 4236TIP3   OH212713   6.042   1.774   0.356
 4236TIP3    H112714   6.008   1.711   0.419
 4236TIP3    H212715   6.131   1.744   0.338
 4237TIP3   OH212716   5.664   5.705   1.013
 4237TIP3    H112717   5.736   5.758   0.979
 4237TIP3    H212718   5.702   5.659   1.088
 4238TIP3   OH212719   3.999   5.503   3.465
 4238TIP3    H112720   3.940   5.572   3.432
 4238TIP3    H212721   3.957   5.472   3.545
 4239TIP3   OH212722   4.384   3.224   1.039
 4239TIP3    H112723   4.459   3.165   1.030
 4239TIP3    H212724   4.309   3.166   1.047
 4240TIP3   OH212725   0.996   5.920   4.977
 4240TIP3    H112726   0.975   6.000   5.026
 4240TIP3    H212727   0.959   5.850   5.030
 4241TIP3   OH212728   0.853   0.479   2.411
 4241TIP3    H112729   0.811   0.431   2.340
 4241TIP3    H212730   0.868   0.413   2.479
 4242TIP3   OH212731   3.318   2.756   4.634
 4242TIP3    H112732   3.379   2.693   4.596
 4242TIP3    H212733   3.283   2.804   4.559
 4243TIP3   OH212734   4.156   2.941   2.485
 4243TIP3    H112735   4.205   2.904   2.411
 4243TIP3    H212736   4.177   2.884   2.559
 4244TIP3   OH212737   0.504   3.934   5.124
 4244TIP3    H112738   0.586   3.976   5.097
 4244TIP3    H212739   0.470   3.895   5.043
 4245TIP3   OH212740   4.996   4.804   2.358
 4245TIP3    H112741   4.993   4.709   2.374
 4245TIP3    H212742   4.982   4.812   2.264
 4246TIP3   OH212743   5.593   1.543   1.720
 4246TIP3    H112744   5.523   1.478   1.728
 4246TIP3    H212745   5.674   1.491   1.722
 4247TIP3   OH212746   4.744   1.323   0.442
 4247TIP3    H112747   4.818   1.384   0.443
 4247TIP3    H212748   4.744   1.287   0.354
 4248TIP3   OH212749   1.519   2.514  -0.024
 4248TIP3    H112750   1.565   2.443   0.021
 4248TIP3    H212751   1.463   2.552   0.044
 4249TIP3   OH212752   1.038   3.791   0.435
 4249TIP3    H112753   1.099   3.833   0.496
 4249TIP3    H212754   0.988   3.730   0.490
 4250TIP3   OH212755   1.055   4.326   0.771
 4250TIP3    H112756   1.042   4.331   0.866
 4250TIP3    H212757   1.032   4.236   0.749
 4251TIP3   OH212758   4.158   5.945   0.030
 4251TIP3    H112759   4.120   5.867  -0.010
 4251TIP3    H212760   4.145   5.933   0.124
 4252TIP3   OH212761   3.623   4.907   0.074
 4252TIP3    H112762   3.566   4.960   0.130
 4252TIP3    H212763   3.711   4.938   0.094
 4253TIP3   OH212764   5.320   4.860   0.387
 4253TIP3    H112765   5.346   4.859   0.479
 4253TIP3    H212766   5.285   4.772   0.371
 4254TIP3   OH212767   5.096   2.466   2.614
 4254TIP3    H112768   5.189   2.470   2.637
 4254TIP3    H212769   5.068   2.379   2.641
 4255TIP3   OH212770   6.167   1.309   3.485
 4255TIP3    H112771   6.106   1.239   3.459
 4255TIP3    H212772   6.118   1.359   3.551
 4256TIP3   OH212773   3.161   4.452   4.967
 4256TIP3    H112774   3.249   4.454   4.930
 4256TIP3    H212775   3.174   4.444   5.061
 4257TIP3   OH212776   1.756   4.334   2.711
 4257TIP3    H112777   1.767   4.428   2.697
 4257TIP3    H212778   1.755   4.323   2.806
 4258TIP3   OH212779   5.175   5.655   4.968
 4258TIP3    H112780   5.231   5.732   4.981
 4258TIP3    H212781   5.200   5.595   5.038
 4259TIP3   OH212782   5.327   2.710   4.851
 4259TIP3    H112783   5.339   2.775   4.921
 4259TIP3    H212784   5.252   2.743   4.801
 4260TIP3   OH212785   2.662   3.070   1.081
 4260TIP3    H112786   2.589   3.031   1.128
 4260TIP3    H212787   2.740   3.035   1.124
 4261TIP3   OH212788   5.572   0.558   4.454
 4261TIP3    H112789   5.635   0.625   4.429
 4261TIP3    H212790   5.621   0.497   4.509
 4262TIP3   OH212791   2.343   4.395   5.073
 4262TIP3    H112792   2.295   4.357   5.147
 4262TIP3    H212793   2.275   4.428   5.014
 4263TIP3   OH212794   3.405   2.311   4.493
 4263TIP3    H112795   3.396   2.263   4.575
 4263TIP3    H212796   3.427   2.244   4.428
 4264TIP3   OH212797   3.264   5.744   0.284
 4264TIP3    H112798   3.207   5.669   0.267
 4264TIP3    H212799   3.328   5.742   0.213
 4265TIP3   OH212800   1.486   5.456   4.318
 4265TIP3    H112801   1.498   5.472   4.412
 4265TIP3    H212802   1.548   5.516   4.276
 4266TIP3   OH212803   3.152   1.859   3.336
 4266TIP3    H112804   3.204   1.825   3.264
 4266TIP3    H212805   3.141   1.952   3.316
 4267TIP3   OH212806   5.868   2.606   5.054
 4267TIP3    H112807   5.870   2.562   4.969
 4267TIP3    H212808   5.774   2.619   5.072
 4268TIP3   OH212809   0.849   1.824   1.217
 4268TIP3    H112810   0.868   1.805   1.309
 4268TIP3    H212811   0.905   1.764   1.168
 4269TIP3   OH212812   6.365   4.736   2.949
 4269TIP3    H112813   6.342   4.747   2.857
 4269TIP3    H212814   6.327   4.812   2.993
 4270TIP3   OH212815   1.713   4.669   3.582
 4270TIP3    H112816   1.800   4.691   3.616
 4270TIP3    H212817   1.726   4.658   3.488
 4271TIP3   OH212818   4.271   1.792   2.189
 4271TIP3    H112819   4.271   1.857   2.260
 4271TIP3    H212820   4.321   1.833   2.119
 4272TIP3   OH212821   5.119   1.255   1.990
 4272TIP3    H112822   5.049   1.234   1.927
 4272TIP3    H212823   5.096   1.205   2.068
 4273TIP3   OH212824   0.755   4.077   4.220
 4273TIP3    H112825   0.722   3.988   4.234
 4273TIP3    H212826   0.706   4.131   4.282
 4274TIP3   OH212827   3.444   2.552   2.131
 4274TIP3    H112828   3.515   2.592   2.181
 4274TIP3    H212829   3.444   2.599   2.048
 4275TIP3   OH212830   6.113   2.119   0.071
 4275TIP3    H112831   6.159   2.036   0.060
 4275TIP3    H212832   6.043   2.100   0.133
 4276TIP3   OH212833   2.059   0.912   4.867
 4276TIP3    H112834   2.105   0.886   4.787
 4276TIP3    H212835   2.095   0.999   4.888
 4277TIP3   OH212836   3.097   0.443   0.103
 4277TIP3    H112837   3.055   0.461   0.187
 4277TIP3    H212838   3.184   0.482   0.111
 4278TIP3   OH212839   1.563   1.513   3.136
 4278TIP3    H112840   1.599   1.477   3.217
 4278TIP3    H212841   1.630   1.572   3.103
 4279TIP3   OH212842   5.410   3.882   1.135
 4279TIP3    H112843   5.351   3.942   1.181
 4279TIP3    H212844   5.390   3.796   1.170
 4280TIP3   OH212845   3.412   2.137   1.527
 4280TIP3    H112846   3.391   2.079   1.601
 4280TIP3    H212847   3.456   2.212   1.568
 4281TIP3   OH212848   3.240   2.534   1.316
 4281TIP3    H112849   3.288   2.494   1.244
 4281TIP3    H212850   3.204   2.615   1.280
 4282TIP3   OH212851   2.624   2.042   0.125
 4282TIP3    H112852   2.605   2.136   0.120
 4282TIP3    H212853   2.554   2.005   0.178
 4283TIP3   OH212854   0.255   2.223   3.999
 4283TIP3    H112855   0.194   2.155   3.969
 4283TIP3    H212856   0.324   2.224   3.933
 4284TIP3   OH212857   2.676   1.351   0.709
 4284TIP3    H112858   2.755   1.349   0.654
 4284TIP3    H212859   2.710   1.354   0.798
 4285TIP3   OH212860   2.304   2.047   1.487
 4285TIP3    H112861   2.314   2.078   1.397
 4285TIP3    H212862   2.257   1.964   1.478
 4286TIP3   OH212863   5.194   2.097   4.517
 4286TIP3    H112864   5.151   2.169   4.470
 4286TIP3    H212865   5.136   2.080   4.592
 4287TIP3   OH212866   0.161   3.706   3.164
 4287TIP3    H112867   0.217   3.783   3.154
 4287TIP3    H212868   0.132   3.709   3.255
 4288TIP3   OH212869   6.209   0.113   0.448
 4288TIP3    H112870   6.236   0.094   0.538
 4288TIP3    H212871   6.166   0.033   0.419
 4289TIP3   OH212872  -0.011   1.497   1.766
 4289TIP3    H112873  -0.014   1.552   1.844
 4289TIP3    H212874   0.059   1.534   1.713
 4290TIP3   OH212875   4.556   4.716   3.865
 4290TIP3    H112876   4.492   4.650   3.890
 4290TIP3    H212877   4.590   4.686   3.781
 4291TIP3   OH212878   1.884   2.756   1.155
 4291TIP3    H112879   1.882   2.788   1.245
 4291TIP3    H212880   1.978   2.751   1.134
 4292TIP3   OH212881   5.140   2.312   2.089
 4292TIP3    H112882   5.051   2.332   2.061
 4292TIP3    H212883   5.183   2.398   2.095
 4293TIP3   OH212884   2.910   4.402   3.856
 4293TIP3    H112885   2.881   4.312   3.841
 4293TIP3    H212886   2.982   4.414   3.794
 4294TIP3   OH212887   4.746   4.527   4.387
 4294TIP3    H112888   4.729   4.618   4.410
 4294TIP3    H212889   4.669   4.479   4.417
 4295TIP3   OH212890   5.102   2.551   3.715
 4295TIP3    H112891   5.052   2.475   3.746
 4295TIP3    H212892   5.191   2.519   3.705
 4296TIP3   OH212893   5.788   4.313   3.803
 4296TIP3    H112894   5.697   4.283   3.795
 4296TIP3    H212895   5.806   4.310   3.897
 4297TIP3   OH212896   3.037   2.521   3.589
 4297TIP3    H112897   2.953   2.562   3.566
 4297TIP3    H212898   3.077   2.581   3.652
 4298TIP3   OH212899   3.797   2.840   1.354
 4298TIP3    H112900   3.755   2.790   1.424
 4298TIP3    H212901   3.727   2.893   1.317
 4299TIP3   OH212902   1.300   2.468   1.726
 4299TIP3    H112903   1.292   2.455   1.821
 4299TIP3    H212904   1.302   2.380   1.690
 4300TIP3   OH212905   5.332   1.179   2.216
 4300TIP3    H112906   5.242   1.151   2.198
 4300TIP3    H212907   5.334   1.272   2.192
 4301TIP3   OH212908   1.079   1.832   1.656
 4301TIP3    H112909   1.127   1.895   1.710
 4301TIP3    H212910   1.021   1.787   1.718
 4302TIP3   OH212911   2.914   5.444   0.958
 4302TIP3    H112912   2.999   5.474   0.924
 4302TIP3    H212913   2.866   5.416   0.880
 4303TIP3   OH212914   1.612   2.028   1.984
 4303TIP3    H112915   1.639   1.940   1.959
 4303TIP3    H212916   1.693   2.076   1.997
 4304TIP3   OH212917   5.106   5.565   1.078
 4304TIP3    H112918   5.073   5.503   1.144
 4304TIP3    H212919   5.032   5.581   1.020
 4305TIP3   OH212920   1.366   5.014   2.208
 4305TIP3    H112921   1.353   4.936   2.262
 4305TIP3    H212922   1.311   4.999   2.131
 4306TIP3   OH212923   5.966   5.902   1.927
 4306TIP3    H112924   5.962   5.928   2.019
 4306TIP3    H212925   5.966   5.984   1.878
 4307TIP3   OH212926   1.209   4.150   0.446
 4307TIP3    H112927   1.115   4.159   0.458
 4307TIP3    H212928   1.246   4.230   0.481
 4308TIP3   OH212929   5.131   1.785   0.208
 4308TIP3    H112930   5.176   1.850   0.154
 4308TIP3    H212931   5.039   1.791   0.181
 4309TIP3   OH212932   1.853   3.404   1.966
 4309TIP3    H112933   1.830   3.319   2.005
 4309TIP3    H212934   1.788   3.416   1.897
 4310TIP3   OH212935   4.686   4.759   2.406
 4310TIP3    H112936   4.771   4.793   2.381
 4310TIP3    H212937   4.678   4.676   2.357
 4311TIP3   OH212938   2.880   4.845   0.611
 4311TIP3    H112939   2.786   4.827   0.616
 4311TIP3    H212940   2.907   4.858   0.702
 4312TIP3   OH212941   5.686   5.104   1.388
 4312TIP3    H112942   5.661   5.045   1.460
 4312TIP3    H212943   5.604   5.128   1.347
 4313TIP3   OH212944   1.027   2.796   0.380
 4313TIP3    H112945   1.020   2.836   0.467
 4313TIP3    H212946   1.120   2.801   0.360
 4314TIP3   OH212947   4.363   3.525   2.590
 4314TIP3    H112948   4.279   3.533   2.636
 4314TIP3    H212949   4.363   3.599   2.529
 4315TIP3   OH212950   4.431   5.280   2.277
 4315TIP3    H112951   4.476   5.196   2.291
 4315TIP3    H212952   4.427   5.320   2.364
 4316TIP3   OH212953   5.678   4.311   2.500
 4316TIP3    H112954   5.629   4.251   2.558
 4316TIP3    H212955   5.700   4.258   2.424
 4317TIP3   OH212956  -0.028   1.956   4.868
 4317TIP3    H112957  -0.003   2.037   4.823
 4317TIP3    H212958   0.043   1.941   4.931
 4318TIP3   OH212959   0.863   1.928   4.200
 4318TIP3    H112960   0.953   1.927   4.168
 4318TIP3    H212961   0.871   1.925   4.295
 4319TIP3   OH212962   0.473   3.530   0.627
 4319TIP3    H112963   0.497   3.622   0.614
 4319TIP3    H212964   0.535   3.481   0.572
 4320TIP3   OH212965   5.312   5.467   4.591
 4320TIP3    H112966   5.303   5.555   4.628
 4320TIP3    H212967   5.230   5.453   4.544
 4321TIP3   OH212968   4.292   0.287   3.887
 4321TIP3    H112969   4.244   0.206   3.903
 4321TIP3    H212970   4.376   0.275   3.931
 4322TIP3   OH212971   4.493   5.220   0.096
 4322TIP3    H112972   4.496   5.125   0.101
 4322TIP3    H212973   4.539   5.250   0.174
 4323TIP3   OH212974   4.241   5.138   4.227
 4323TIP3    H112975   4.197   5.207   4.276
 4323TIP3    H212976   4.173   5.102   4.169
 4324TIP3   OH212977   1.254   5.801   2.508
 4324TIP3    H112978   1.208   5.799   2.424
 4324TIP3    H212979   1.335   5.753   2.492
 4325TIP3   OH212980   1.988   1.553   0.249
 4325TIP3    H112981   2.073   1.584   0.218
 4325TIP3    H212982   1.939   1.534   0.169
 4326TIP3   OH212983   1.802   2.134   1.694
 4326TIP3    H112984   1.766   2.222   1.683
 4326TIP3    H212985   1.816   2.125   1.788
 4327TIP3   OH212986   3.857   2.546   2.823
 4327TIP3    H112987   3.907   2.625   2.843
 4327TIP3    H212988   3.785   2.546   2.887
 4328TIP3   OH212989   0.970   3.811   3.572
 4328TIP3    H112990   1.058   3.820   3.609
 4328TIP3    H212991   0.914   3.862   3.631
 4329TIP3   OH212992   2.210   3.116   3.640
 4329TIP3    H112993   2.209   3.200   3.593
 4329TIP3    H212994   2.127   3.074   3.617
 4330TIP3   OH212995   2.879   0.368   1.591
 4330TIP3    H112996   2.891   0.304   1.522
 4330TIP3    H212997   2.959   0.362   1.643
 4331TIP3   OH212998   1.608   4.889   3.075
 4331TIP3    H112999   1.700   4.906   3.053
 4331TIP3    H213000   1.571   4.850   2.996
 4332TIP3   OH213001   0.844   4.738   2.072
 4332TIP3    H113002   0.827   4.752   1.979
 4332TIP3    H213003   0.929   4.778   2.088
 4333TIP3   OH213004   2.044   5.146   4.453
 4333TIP3    H113005   2.048   5.163   4.358
 4333TIP3    H213006   2.134   5.122   4.476
 4334TIP3   OH213007   5.440   5.172   1.780
 4334TIP3    H113008   5.379   5.180   1.707
 4334TIP3    H213009   5.421   5.247   1.836
 4335TIP3   OH213010   5.713   0.057   0.862
 4335TIP3    H113011   5.634   0.099   0.829
 4335TIP3    H213012   5.784   0.096   0.811
 4336TIP3   OH213013   4.093   0.412   0.798
 4336TIP3    H113014   4.148   0.464   0.740
 4336TIP3    H213015   4.154   0.376   0.863
 4337TIP3   OH213016   1.242   1.102   1.195
 4337TIP3    H113017   1.240   1.165   1.123
 4337TIP3    H213018   1.334   1.083   1.208
 4338TIP3   OH213019   0.612   0.448   0.631
 4338TIP3    H113020   0.520   0.449   0.606
 4338TIP3    H213021   0.630   0.357   0.656
 4339TIP3   OH213022   1.725   2.884   3.279
 4339TIP3    H113023   1.717   2.923   3.366
 4339TIP3    H213024   1.817   2.899   3.254
 4340TIP3   OH213025   1.250   0.867   1.955
 4340TIP3    H113026   1.334   0.824   1.972
 4340TIP3    H213027   1.185   0.808   1.993
 4341TIP3   OH213028   3.545   4.375   3.282
 4341TIP3    H113029   3.511   4.310   3.221
 4341TIP3    H213030   3.582   4.443   3.226
 4342TIP3   OH213031   1.332   0.755   2.185
 4342TIP3    H113032   1.270   0.802   2.240
 4342TIP3    H213033   1.376   0.694   2.244
 4343TIP3   OH213034   1.588   5.843   3.370
 4343TIP3    H113035   1.582   5.889   3.286
 4343TIP3    H213036   1.634   5.904   3.427
 4344TIP3   OH213037   4.319   2.111   2.762
 4344TIP3    H113038   4.226   2.131   2.777
 4344TIP3    H213039   4.364   2.152   2.836
 4345TIP3   OH213040   1.231   2.842   1.981
 4345TIP3    H113041   1.258   2.897   1.908
 4345TIP3    H213042   1.311   2.798   2.010
 4346TIP3   OH213043   3.024   0.410   3.910
 4346TIP3    H113044   3.096   0.363   3.868
 4346TIP3    H213045   2.945   0.365   3.879
 4347TIP3   OH213046   1.445   1.500   3.567
 4347TIP3    H113047   1.375   1.536   3.621
 4347TIP3    H213048   1.424   1.528   3.478
 4348TIP3   OH213049   1.162   4.381   2.872
 4348TIP3    H113050   1.128   4.468   2.850
 4348TIP3    H213051   1.084   4.329   2.892
 4349TIP3   OH213052   1.863   2.970   0.955
 4349TIP3    H113053   1.816   3.026   1.015
 4349TIP3    H213054   1.887   2.893   1.007
 4350TIP3   OH213055   1.319   2.803   3.805
 4350TIP3    H113056   1.261   2.857   3.752
 4350TIP3    H213057   1.364   2.865   3.863
 4351TIP3   OH213058   2.642   0.499   1.983
 4351TIP3    H113059   2.560   0.451   1.978
 4351TIP3    H213060   2.687   0.461   2.059
 4352TIP3   OH213061   3.847   2.503   1.474
 4352TIP3    H113062   3.870   2.507   1.381
 4352TIP3    H213063   3.876   2.587   1.509
 4353TIP3   OH213064   2.782   0.093   1.811
 4353TIP3    H113065   2.763   0.144   1.889
 4353TIP3    H213066   2.764   0.003   1.836
 4354TIP3   OH213067   3.778   4.431   1.868
 4354TIP3    H113068   3.710   4.452   1.804
 4354TIP3    H213069   3.769   4.499   1.935
 4355TIP3   OH213070   3.219   4.114   2.776
 4355TIP3    H113071   3.313   4.130   2.787
 4355TIP3    H213072   3.203   4.031   2.821
 4356TIP3   OH213073   4.267   3.497   4.182
 4356TIP3    H113074   4.245   3.408   4.156
 4356TIP3    H213075   4.185   3.545   4.176
 4357TIP3   OH213076   0.728   2.304   1.699
 4357TIP3    H113077   0.645   2.264   1.722
 4357TIP3    H213078   0.772   2.319   1.783
 4358TIP3   OH213079   0.285   1.429   1.997
 4358TIP3    H113080   0.366   1.461   1.957
 4358TIP3    H213081   0.304   1.338   2.018
 4359TIP3   OH213082   3.573   1.164   1.590
 4359TIP3    H113083   3.484   1.163   1.556
 4359TIP3    H213084   3.578   1.087   1.647
 4360TIP3   OH213085   3.650   1.711   2.265
 4360TIP3    H113086   3.616   1.798   2.244
 4360TIP3    H213087   3.745   1.721   2.262
 4361TIP3   OH213088   2.632   0.536   1.723
 4361TIP3    H113089   2.723   0.555   1.700
 4361TIP3    H213090   2.634   0.523   1.817
 4362TIP3   OH213091   3.506   2.536   4.927
 4362TIP3    H113092   3.434   2.481   4.959
 4362TIP3    H213093   3.465   2.620   4.908
 4363TIP3   OH213094   0.273   3.585   2.513
 4363TIP3    H113095   0.324   3.659   2.478
 4363TIP3    H213096   0.294   3.585   2.607
 4364TIP3   OH213097   2.086   2.560   4.379
 4364TIP3    H113098   2.169   2.595   4.346
 4364TIP3    H213099   2.109   2.516   4.461
 4365TIP3   OH213100   4.114   1.213   2.543
 4365TIP3    H113101   4.111   1.118   2.530
 4365TIP3    H213102   4.073   1.249   2.464
 4366TIP3   OH213103   4.307   1.274   3.082
 4366TIP3    H113104   4.323   1.367   3.062
 4366TIP3    H213105   4.367   1.255   3.154
 4367TIP3   OH213106   2.996   1.047   3.009
 4367TIP3    H113107   2.935   1.040   2.935
 4367TIP3    H213108   3.058   0.975   2.996
 4368TIP3   OH213109   1.739   2.313   4.411
 4368TIP3    H113110   1.804   2.336   4.478
 4368TIP3    H213111   1.697   2.234   4.445
 4369TIP3   OH213112   1.410   3.114   3.697
 4369TIP3    H113113   1.316   3.093   3.694
 4369TIP3    H213114   1.445   3.062   3.768
 4370TIP3   OH213115   5.301   5.906   2.827
 4370TIP3    H113116   5.224   5.889   2.881
 4370TIP3    H213117   5.339   5.986   2.863
 4371TIP3   OH213118   2.501   0.449   3.296
 4371TIP3    H113119   2.576   0.508   3.285
 4371TIP3    H213120   2.458   0.450   3.211
 4372TIP3   OH213121   5.314   1.743   2.292
 4372TIP3    H113122   5.286   1.828   2.259
 4372TIP3    H213123   5.364   1.705   2.219
 4373TIP3   OH213124   0.301   4.004   3.089
 4373TIP3    H113125   0.349   3.923   3.074
 4373TIP3    H213126   0.334   4.036   3.173
 4374TIP3   OH213127   5.696   1.828   2.341
 4374TIP3    H113128   5.790   1.826   2.355
 4374TIP3    H213129   5.673   1.738   2.318
 4375TIP3   OH213130   2.452   4.928   0.136
 4375TIP3    H113131   2.530   4.896   0.092
 4375TIP3    H213132   2.417   4.852   0.183
 4376TIP3   OH213133   3.668   0.313   3.888
 4376TIP3    H113134   3.724   0.262   3.946
 4376TIP3    H213135   3.625   0.376   3.945
 4377TIP3   OH213136   3.903   4.500   0.046
 4377TIP3    H113137   3.910   4.584   0.092
 4377TIP3    H213138   3.816   4.503   0.005
 4378TIP3   OH213139   2.762   4.214   0.863
 4378TIP3    H113140   2.672   4.188   0.882
 4378TIP3    H213141   2.815   4.141   0.895
 4379TIP3   OH213142   2.514   3.461   4.955
 4379TIP3    H113143   2.434   3.410   4.965
 4379TIP3    H213144   2.554   3.459   5.043
 4380TIP3   OH213145   0.248   0.985   4.679
 4380TIP3    H113146   0.334   1.000   4.639
 4380TIP3    H213147   0.247   1.044   4.755
 4381TIP3   OH213148   0.255   1.277   2.667
 4381TIP3    H113149   0.250   1.263   2.761
 4381TIP3    H213150   0.336   1.325   2.653
 4382TIP3   OH213151   5.421   5.336   3.138
 4382TIP3    H113152   5.462   5.269   3.193
 4382TIP3    H213153   5.494   5.373   3.089
 4383TIP3   OH213154   1.021   4.070   0.669
 4383TIP3    H113155   1.116   4.065   0.674
 4383TIP3    H213156   0.993   3.982   0.646
 4384TIP3   OH213157   1.333   4.319   3.908
 4384TIP3    H113158   1.326   4.402   3.862
 4384TIP3    H213159   1.314   4.340   4.000
 4385TIP3   OH213160   0.928   4.990   0.221
 4385TIP3    H113161   0.943   4.927   0.151
 4385TIP3    H213162   0.956   5.074   0.184
 4386TIP3   OH213163   0.269   5.458   0.300
 4386TIP3    H113164   0.249   5.399   0.372
 4386TIP3    H213165   0.319   5.529   0.340
 4387TIP3   OH213166   4.492   0.194   1.434
 4387TIP3    H113167   4.586   0.180   1.426
 4387TIP3    H213168   4.483   0.273   1.486
 4388TIP3   OH213169   1.245   4.690   3.531
 4388TIP3    H113170   1.300   4.767   3.544
 4388TIP3    H213171   1.262   4.663   3.441
 4389TIP3   OH213172   5.578   1.911   0.088
 4389TIP3    H113173   5.509   1.974   0.108
 4389TIP3    H213174   5.657   1.949   0.124
 4390TIP3   OH213175   5.555   4.142   0.642
 4390TIP3    H113176   5.537   4.205   0.713
 4390TIP3    H213177   5.568   4.059   0.687
 4391TIP3   OH213178   6.001   5.351   0.282
 4391TIP3    H113179   6.015   5.443   0.259
 4391TIP3    H213180   6.084   5.308   0.265
 4392TIP3   OH213181   5.396   2.191   2.870
 4392TIP3    H113182   5.315   2.142   2.881
 4392TIP3    H213183   5.376   2.257   2.803
 4393TIP3   OH213184   0.879   1.353   2.303
 4393TIP3    H113185   0.903   1.324   2.215
 4393TIP3    H213186   0.953   1.327   2.358
 4394TIP3   OH213187   2.536   2.508   3.009
 4394TIP3    H113188   2.577   2.494   2.924
 4394TIP3    H213189   2.442   2.505   2.992
 4395TIP3   OH213190   3.198   5.908   4.775
 4395TIP3    H113191   3.266   5.852   4.737
 4395TIP3    H213192   3.204   5.892   4.869
 4396TIP3   OH213193   4.688   4.884   3.452
 4396TIP3    H113194   4.727   4.952   3.397
 4396TIP3    H213195   4.635   4.932   3.516
 4397TIP3   OH213196   6.145   0.247   0.896
 4397TIP3    H113197   6.050   0.253   0.911
 4397TIP3    H213198   6.154   0.187   0.822
 4398TIP3   OH213199   1.026   2.594   1.473
 4398TIP3    H113200   1.115   2.629   1.474
 4398TIP3    H213201   1.027   2.525   1.539
 4399TIP3   OH213202   5.186   3.021   3.601
 4399TIP3    H113203   5.221   3.111   3.595
 4399TIP3    H213204   5.262   2.968   3.623
 4400TIP3   OH213205   0.002   1.879   4.442
 4400TIP3    H113206   0.091   1.913   4.440
 4400TIP3    H213207  -0.028   1.883   4.351
 4401TIP3   OH213208   4.064   0.810   4.002
 4401TIP3    H113209   4.139   0.843   3.952
 4401TIP3    H213210   4.017   0.756   3.939
 4402TIP3   OH213211   1.952   1.795   0.907
 4402TIP3    H113212   2.011   1.857   0.951
 4402TIP3    H213213   1.957   1.716   0.961
 4403TIP3   OH213214   4.205   5.905   3.607
 4403TIP3    H113215   4.279   5.939   3.657
 4403TIP3    H213216   4.242   5.834   3.555
 4404TIP3   OH213217   1.782   0.068   2.181
 4404TIP3    H113218   1.802   0.158   2.155
 4404TIP3    H213219   1.783   0.070   2.277
 4405TIP3   OH213220   0.535   2.401   2.769
 4405TIP3    H113221   0.608   2.409   2.830
 4405TIP3    H213222   0.493   2.487   2.770
 4406TIP3   OH213223   0.405   2.474   3.646
 4406TIP3    H113224   0.454   2.480   3.728
 4406TIP3    H213225   0.423   2.385   3.615
 4407TIP3   OH213226   4.640   4.291   3.894
 4407TIP3    H113227   4.552   4.255   3.904
 4407TIP3    H213228   4.686   4.227   3.841
 4408TIP3   OH213229   0.829   2.349   4.490
 4408TIP3    H113230   0.765   2.308   4.548
 4408TIP3    H213231   0.908   2.295   4.499
 4409TIP3   OH213232   4.596   4.889   2.651
 4409TIP3    H113233   4.621   4.854   2.565
 4409TIP3    H213234   4.505   4.914   2.641
 4410TIP3   OH213235   0.654   3.975   1.576
 4410TIP3    H113236   0.597   3.927   1.636
 4410TIP3    H213237   0.674   4.057   1.622
 4411TIP3   OH213238   1.994   0.813   4.560
 4411TIP3    H113239   1.932   0.886   4.558
 4411TIP3    H213240   1.962   0.753   4.493
 4412TIP3   OH213241   5.463   3.655   1.911
 4412TIP3    H113242   5.478   3.625   2.000
 4412TIP3    H213243   5.531   3.721   1.896
 4413TIP3   OH213244   1.620   0.169   1.072
 4413TIP3    H113245   1.651   0.240   1.130
 4413TIP3    H213246   1.545   0.207   1.027
 4414TIP3   OH213247   4.567   1.915   4.133
 4414TIP3    H113248   4.628   1.987   4.148
 4414TIP3    H213249   4.494   1.932   4.193
 4415TIP3   OH213250   2.498   2.727   2.730
 4415TIP3    H113251   2.469   2.799   2.785
 4415TIP3    H213252   2.573   2.690   2.778
 4416TIP3   OH213253   5.439   4.704   0.742
 4416TIP3    H113254   5.370   4.641   0.719
 4416TIP3    H213255   5.405   4.789   0.712
 4417TIP3   OH213256   5.373   1.404   5.172
 4417TIP3    H113257   5.405   1.316   5.152
 4417TIP3    H213258   5.449   1.450   5.206
 4418TIP3   OH213259   4.745   4.770   4.515
 4418TIP3    H113260   4.816   4.831   4.536
 4418TIP3    H213261   4.679   4.823   4.472
 4419TIP3   OH213262   0.405   3.722   2.058
 4419TIP3    H113263   0.362   3.656   2.004
 4419TIP3    H213264   0.478   3.675   2.100
 4420TIP3   OH213265   0.840   0.454   4.759
 4420TIP3    H113266   0.757   0.481   4.720
 4420TIP3    H213267   0.893   0.424   4.686
 4421TIP3   OH213268   1.609   3.173   4.926
 4421TIP3    H113269   1.572   3.200   4.842
 4421TIP3    H213270   1.610   3.077   4.922
 4422TIP3   OH213271   3.043   4.547   1.193
 4422TIP3    H113272   3.037   4.549   1.098
 4422TIP3    H213273   3.118   4.490   1.211
 4423TIP3   OH213274   1.515   3.009   0.466
 4423TIP3    H113275   1.540   2.960   0.545
 4423TIP3    H213276   1.444   3.066   0.494
 4424TIP3   OH213277   4.387   4.105   2.169
 4424TIP3    H113278   4.355   4.116   2.259
 4424TIP3    H213279   4.345   4.025   2.138
 4425TIP3   OH213280   3.452   0.072   4.788
 4425TIP3    H113281   3.375   0.128   4.778
 4425TIP3    H213282   3.438   0.026   4.871
 4426TIP3   OH213283   1.213   3.806   2.273
 4426TIP3    H113284   1.202   3.720   2.313
 4426TIP3    H213285   1.179   3.868   2.338
 4427TIP3   OH213286   5.529   1.132   0.617
 4427TIP3    H113287   5.552   1.202   0.679
 4427TIP3    H213288   5.445   1.098   0.649
 4428TIP3   OH213289   4.927   5.226   5.139
 4428TIP3    H113290   5.010   5.258   5.104
 4428TIP3    H213291   4.942   5.133   5.157
 4429TIP3   OH213292   4.164   4.981   4.532
 4429TIP3    H113293   4.253   5.004   4.507
 4429TIP3    H213294   4.174   4.927   4.611
 4430TIP3   OH213295   6.192   2.165   1.361
 4430TIP3    H113296   6.219   2.094   1.303
 4430TIP3    H213297   6.101   2.144   1.383
 4431TIP3   OH213298   5.162   4.643   0.311
 4431TIP3    H113299   5.210   4.561   0.317
 4431TIP3    H213300   5.077   4.619   0.273
 4432TIP3   OH213301   1.144   2.926   5.059
 4432TIP3    H113302   1.169   2.850   5.007
 4432TIP3    H213303   1.050   2.916   5.073
 4433TIP3   OH213304   1.778   3.290   3.046
 4433TIP3    H113305   1.702   3.319   3.097
 4433TIP3    H213306   1.744   3.275   2.958
 4434TIP3   OH213307   4.396   4.932   0.933
 4434TIP3    H113308   4.422   5.023   0.951
 4434TIP3    H213309   4.406   4.923   0.838
 4435TIP3   OH213310   0.631   1.337   2.096
 4435TIP3    H113311   0.594   1.249   2.103
 4435TIP3    H213312   0.697   1.340   2.165
 4436TIP3   OH213313   0.407   0.779   1.121
 4436TIP3    H113314   0.358   0.727   1.185
 4436TIP3    H213315   0.451   0.713   1.066
 4437TIP3   OH213316   6.226   0.476   3.814
 4437TIP3    H113317   6.245   0.398   3.866
 4437TIP3    H213318   6.139   0.503   3.844
 4438TIP3   OH213319   3.856   1.748   3.938
 4438TIP3    H113320   3.868   1.665   3.983
 4438TIP3    H213321   3.934   1.757   3.883
 4439TIP3   OH213322   4.947   4.254   2.732
 4439TIP3    H113323   4.854   4.242   2.750
 4439TIP3    H213324   4.991   4.197   2.796
 4440TIP3   OH213325   0.698   2.126   0.974
 4440TIP3    H113326   0.701   2.083   1.060
 4440TIP3    H213327   0.723   2.058   0.912
 4441TIP3   OH213328   4.050   0.277   0.276
 4441TIP3    H113329   4.109   0.313   0.343
 4441TIP3    H213330   3.993   0.350   0.254
 4442TIP3   OH213331   4.403   1.080   1.840
 4442TIP3    H113332   4.451   1.018   1.895
 4442TIP3    H213333   4.471   1.123   1.788
 4443TIP3   OH213334   1.958   0.595   3.308
 4443TIP3    H113335   2.039   0.548   3.288
 4443TIP3    H213336   1.962   0.674   3.254
 4444TIP3   OH213337   1.244   4.925   0.269
 4444TIP3    H113338   1.158   4.964   0.251
 4444TIP3    H213339   1.225   4.848   0.323
 4445TIP3   OH213340   2.736   3.802   2.730
 4445TIP3    H113341   2.674   3.874   2.728
 4445TIP3    H213342   2.686   3.727   2.762
 4446TIP3   OH213343   3.352   1.457   2.932
 4446TIP3    H113344   3.318   1.371   2.909
 4446TIP3    H213345   3.386   1.446   3.021
 4447TIP3   OH213346   0.973   1.314   0.755
 4447TIP3    H113347   0.905   1.284   0.695
 4447TIP3    H213348   0.986   1.406   0.732
 4448TIP3   OH213349   3.049   3.244   3.574
 4448TIP3    H113350   2.964   3.285   3.555
 4448TIP3    H213351   3.048   3.162   3.525
 4449TIP3   OH213352   2.066   5.478   0.127
 4449TIP3    H113353   2.041   5.469   0.035
 4449TIP3    H213354   2.096   5.569   0.135
 4450TIP3   OH213355   4.276   4.142   2.425
 4450TIP3    H113356   4.198   4.086   2.428
 4450TIP3    H213357   4.257   4.212   2.487
 4451TIP3   OH213358   4.076   5.257   3.373
 4451TIP3    H113359   4.039   5.343   3.390
 4451TIP3    H213360   4.028   5.199   3.432
 4452TIP3   OH213361   2.365   4.593   2.842
 4452TIP3    H113362   2.285   4.547   2.813
 4452TIP3    H213363   2.357   4.597   2.937
 4453TIP3   OH213364   0.162   4.947   1.620
 4453TIP3    H113365   0.076   4.980   1.645
 4453TIP3    H213366   0.217   4.963   1.697
 4454TIP3   OH213367   2.336   4.992   2.122
 4454TIP3    H113368   2.281   5.067   2.144
 4454TIP3    H213369   2.283   4.916   2.146
 4455TIP3   OH213370   1.429   4.996   4.116
 4455TIP3    H113371   1.412   5.062   4.049
 4455TIP3    H213372   1.427   4.913   4.069
 4456TIP3   OH213373   5.622   3.047   3.636
 4456TIP3    H113374   5.550   3.110   3.643
 4456TIP3    H213375   5.619   2.997   3.718
 4457TIP3   OH213376   5.255   2.178   0.930
 4457TIP3    H113377   5.335   2.142   0.969
 4457TIP3    H213378   5.184   2.148   0.986
 4458TIP3   OH213379   5.112   0.027   2.804
 4458TIP3    H113380   5.080   0.001   2.717
 4458TIP3    H213381   5.200  -0.009   2.808
 4459TIP3   OH213382   3.610   1.348   4.888
 4459TIP3    H113383   3.540   1.309   4.835
 4459TIP3    H213384   3.564   1.392   4.959
 4460TIP3   OH213385   2.782   0.569   0.335
 4460TIP3    H113386   2.759   0.551   0.426
 4460TIP3    H213387   2.745   0.656   0.318
 4461TIP3   OH213388   3.257   1.987   1.180
 4461TIP3    H113389   3.271   1.935   1.100
 4461TIP3    H213390   3.247   1.922   1.249
 4462TIP3   OH213391   2.038   1.677   4.783
 4462TIP3    H113392   2.003   1.590   4.801
 4462TIP3    H213393   1.961   1.731   4.768
 4463TIP3   OH213394   2.819   5.461   5.117
 4463TIP3    H113395   2.854   5.547   5.092
 4463TIP3    H213396   2.858   5.443   5.202
 4464TIP3   OH213397   5.832   0.705   1.256
 4464TIP3    H113398   5.748   0.742   1.231
 4464TIP3    H213399   5.863   0.660   1.177
 4465TIP3   OH213400   3.345   1.493   4.642
 4465TIP3    H113401   3.334   1.487   4.737
 4465TIP3    H213402   3.440   1.493   4.629
 4466TIP3   OH213403   2.100   5.137   1.728
 4466TIP3    H113404   2.035   5.198   1.692
 4466TIP3    H213405   2.098   5.152   1.822
 4467TIP3   OH213406   1.345   1.955   4.927
 4467TIP3    H113407   1.359   1.862   4.945
 4467TIP3    H213408   1.274   1.957   4.864
 4468TIP3   OH213409   3.708   0.765   4.289
 4468TIP3    H113410   3.671   0.698   4.347
 4468TIP3    H213411   3.708   0.844   4.342
 4469TIP3   OH213412   0.419   2.953   0.668
 4469TIP3    H113413   0.326   2.963   0.689
 4469TIP3    H213414   0.464   3.009   0.731
 4470TIP3   OH213415   3.321   4.980   3.724
 4470TIP3    H113416   3.307   4.966   3.817
 4470TIP3    H213417   3.341   5.074   3.717
 4471TIP3   OH213418   3.901   5.896   4.660
 4471TIP3    H113419   3.941   5.924   4.578
 4471TIP3    H213420   3.814   5.936   4.659
 4472TIP3   OH213421   2.310   2.518   4.011
 4472TIP3    H113422   2.217   2.509   4.029
 4472TIP3    H213423   2.316   2.585   3.943
 4473TIP3   OH213424   1.110   3.085   4.634
 4473TIP3    H113425   1.154   3.094   4.718
 4473TIP3    H213426   1.024   3.125   4.647
 4474TIP3   OH213427   3.492   4.098   3.739
 4474TIP3    H113428   3.515   4.005   3.742
 4474TIP3    H213429   3.559   4.138   3.684
 4475TIP3   OH213430   5.319   0.886   1.386
 4475TIP3    H113431   5.407   0.870   1.421
 4475TIP3    H213432   5.292   0.803   1.348
 4476TIP3   OH213433   5.496   4.307   4.202
 4476TIP3    H113434   5.432   4.264   4.146
 4476TIP3    H213435   5.452   4.387   4.232
 4477TIP3   OH213436   3.081   4.662   2.412
 4477TIP3    H113437   3.148   4.723   2.382
 4477TIP3    H213438   3.028   4.645   2.335
 4478TIP3   OH213439   3.416   0.566   1.678
 4478TIP3    H113440   3.430   0.495   1.615
 4478TIP3    H213441   3.416   0.646   1.624
 4479TIP3   OH213442   5.310   2.006   5.141
 4479TIP3    H113443   5.349   2.087   5.174
 4479TIP3    H213444   5.224   2.032   5.109
 4480TIP3   OH213445   3.229   4.909   2.969
 4480TIP3    H113446   3.198   4.823   2.998
 4480TIP3    H213447   3.155   4.946   2.921
 4481TIP3   OH213448   4.383   1.049   4.749
 4481TIP3    H113449   4.389   0.959   4.781
 4481TIP3    H213450   4.300   1.053   4.701
 4482TIP3   OH213451   3.513   2.401   0.266
 4482TIP3    H113452   3.438   2.411   0.324
 4482TIP3    H213453   3.556   2.321   0.296
 4483TIP3   OH213454   3.089   0.115   0.275
 4483TIP3    H113455   2.997   0.140   0.280
 4483TIP3    H213456   3.099   0.046   0.341
 4484TIP3   OH213457   5.801   2.092   1.809
 4484TIP3    H113458   5.830   2.014   1.857
 4484TIP3    H213459   5.733   2.059   1.749
 4485TIP3   OH213460   5.407   1.755   2.596
 4485TIP3    H113461   5.473   1.697   2.634
 4485TIP3    H213462   5.426   1.755   2.502
 4486TIP3   OH213463   5.055   2.516   0.437
 4486TIP3    H113464   4.994   2.577   0.479
 4486TIP3    H213465   5.120   2.573   0.395
 4487TIP3   OH213466   5.528   4.027   0.926
 4487TIP3    H113467   5.478   3.989   0.998
 4487TIP3    H213468   5.572   4.102   0.966
 4488TIP3   OH213469   1.201   2.713   3.550
 4488TIP3    H113470   1.158   2.644   3.500
 4488TIP3    H213471   1.265   2.751   3.490
 4489TIP3   OH213472   0.197   2.766   3.365
 4489TIP3    H113473   0.266   2.833   3.363
 4489TIP3    H213474   0.231   2.694   3.312
 4490TIP3   OH213475   1.497   4.401   2.527
 4490TIP3    H113476   1.507   4.415   2.432
 4490TIP3    H213477   1.580   4.361   2.554
 4491TIP3   OH213478   4.068   3.443   3.874
 4491TIP3    H113479   4.110   3.419   3.958
 4491TIP3    H213480   4.019   3.364   3.849
 4492TIP3   OH213481   3.847   1.560   0.477
 4492TIP3    H113482   3.757   1.561   0.443
 4492TIP3    H213483   3.902   1.573   0.400
 4493TIP3   OH213484   5.426   1.297   0.996
 4493TIP3    H113485   5.403   1.386   1.025
 4493TIP3    H213486   5.345   1.262   0.959
 4494TIP3   OH213487   2.939   4.933   2.545
 4494TIP3    H113488   2.930   4.889   2.630
 4494TIP3    H213489   3.033   4.936   2.529
 4495TIP3   OH213490   2.562   3.329   1.020
 4495TIP3    H113491   2.656   3.339   1.035
 4495TIP3    H213492   2.542   3.241   1.053
 4496TIP3   OH213493   5.182   0.602   0.070
 4496TIP3    H113494   5.209   0.514   0.096
 4496TIP3    H213495   5.176   0.651   0.152
 4497TIP3   OH213496   0.606   1.798   4.860
 4497TIP3    H113497   0.676   1.815   4.797
 4497TIP3    H213498   0.528   1.834   4.819
 4498TIP3   OH213499   5.920   1.776   1.945
 4498TIP3    H113500   5.912   1.682   1.960
 4498TIP3    H213501   5.953   1.811   2.027
 4499TIP3   OH213502   3.121   5.812   2.474
 4499TIP3    H113503   3.034   5.847   2.455
 4499TIP3    H213504   3.181   5.883   2.453
 4500TIP3   OH213505   2.347   4.081   1.971
 4500TIP3    H113506   2.332   4.160   1.919
 4500TIP3    H213507   2.394   4.111   2.048
 4501TIP3   OH213508   3.854   0.354   1.717
 4501TIP3    H113509   3.920   0.302   1.761
 4501TIP3    H213510   3.827   0.301   1.642
 4502TIP3   OH213511   5.589   0.625   4.128
 4502TIP3    H113512   5.650   0.552   4.136
 4502TIP3    H213513   5.535   0.603   4.052
 4503TIP3   OH213514   4.359   2.954   4.892
 4503TIP3    H113515   4.377   2.871   4.849
 4503TIP3    H213516   4.322   3.009   4.823
 4504TIP3   OH213517   5.813   4.757   3.745
 4504TIP3    H113518   5.908   4.753   3.742
 4504TIP3    H213519   5.787   4.783   3.656
 4505TIP3   OH213520   2.526   1.450   1.638
 4505TIP3    H113521   2.548   1.382   1.702
 4505TIP3    H213522   2.432   1.437   1.620
 4506TIP3   OH213523   4.677   4.711   0.344
 4506TIP3    H113524   4.675   4.667   0.430
 4506TIP3    H213525   4.760   4.759   0.344
 4507TIP3   OH213526   3.481   5.794   0.829
 4507TIP3    H113527   3.461   5.865   0.768
 4507TIP3    H213528   3.407   5.793   0.890
 4508TIP3   OH213529   0.253   5.383   2.339
 4508TIP3    H113530   0.209   5.309   2.380
 4508TIP3    H213531   0.346   5.366   2.353
 4509TIP3   OH213532   2.836   5.121   3.492
 4509TIP3    H113533   2.812   5.187   3.557
 4509TIP3    H213534   2.791   5.042   3.521
 4510TIP3   OH213535   2.282   5.504   4.973
 4510TIP3    H113536   2.333   5.585   4.980
 4510TIP3    H213537   2.196   5.533   4.944
 4511TIP3   OH213538   4.074   1.054   2.048
 4511TIP3    H113539   4.095   1.020   1.961
 4511TIP3    H213540   3.983   1.083   2.041
 4512TIP3   OH213541   5.569   4.857   1.239
 4512TIP3    H113542   5.553   4.952   1.244
 4512TIP3    H213543   5.541   4.833   1.151
 4513TIP3   OH213544   3.105   1.354   3.763
 4513TIP3    H113545   3.038   1.391   3.706
 4513TIP3    H213546   3.097   1.259   3.752
 4514TIP3   OH213547   3.847   1.900   4.161
 4514TIP3    H113548   3.850   1.986   4.119
 4514TIP3    H213549   3.825   1.840   4.091
 4515TIP3   OH213550   1.802   2.452   5.087
 4515TIP3    H113551   1.767   2.439   4.998
 4515TIP3    H213552   1.890   2.415   5.084
 4516TIP3   OH213553   5.204   5.010   2.293
 4516TIP3    H113554   5.154   4.941   2.249
 4516TIP3    H213555   5.287   5.015   2.245
 4517TIP3   OH213556   2.120   0.904   1.242
 4517TIP3    H113557   2.188   0.908   1.175
 4517TIP3    H213558   2.155   0.844   1.308
 4518TIP3   OH213559   4.337   1.960   3.943
 4518TIP3    H113560   4.260   1.930   3.992
 4518TIP3    H213561   4.400   1.986   4.010
 4519TIP3   OH213562   0.287   5.325   5.102
 4519TIP3    H113563   0.334   5.354   5.180
 4519TIP3    H213564   0.306   5.393   5.036
 4520TIP3   OH213565   3.895   5.448   3.726
 4520TIP3    H113566   3.852   5.366   3.751
 4520TIP3    H213567   3.941   5.476   3.806
 4521TIP3   OH213568   1.076   0.620   0.533
 4521TIP3    H113569   1.121   0.651   0.611
 4521TIP3    H213570   1.119   0.666   0.461
 4522TIP3   OH213571   3.697   0.542   2.902
 4522TIP3    H113572   3.732   0.516   2.987
 4522TIP3    H213573   3.646   0.466   2.873
 4523TIP3   OH213574   6.217   1.878   0.054
 4523TIP3    H113575   6.271   1.813   0.099
 4523TIP3    H213576   6.130   1.839   0.051
 4524TIP3   OH213577   1.437   3.154   4.672
 4524TIP3    H113578   1.393   3.099   4.606
 4524TIP3    H213579   1.386   3.140   4.752
 4525TIP3   OH213580   0.856   4.370   2.343
 4525TIP3    H113581   0.798   4.434   2.384
 4525TIP3    H213582   0.817   4.285   2.367
 4526TIP3   OH213583   2.525   1.675   0.081
 4526TIP3    H113584   2.522   1.735   0.006
 4526TIP3    H213585   2.614   1.640   0.080
 4527TIP3   OH213586   5.167   1.920   2.156
 4527TIP3    H113587   5.126   1.983   2.215
 4527TIP3    H213588   5.101   1.853   2.142
 4528TIP3   OH213589   2.092   0.748   1.772
 4528TIP3    H113590   2.061   0.661   1.746
 4528TIP3    H213591   2.020   0.807   1.747
 4529TIP3   OH213592   6.116   1.328   5.113
 4529TIP3    H113593   6.116   1.423   5.125
 4529TIP3    H213594   6.033   1.310   5.069
 4530TIP3   OH213595   0.981   3.248   0.481
 4530TIP3    H113596   0.916   3.195   0.526
 4530TIP3    H213597   0.929   3.307   0.426
 4531TIP3   OH213598   2.586   5.257   0.559
 4531TIP3    H113599   2.493   5.279   0.559
 4531TIP3    H213600   2.630   5.337   0.588
 4532TIP3   OH213601   5.040   4.713   0.965
 4532TIP3    H113602   5.023   4.665   0.884
 4532TIP3    H213603   4.954   4.744   0.992
 4533TIP3   OH213604   3.116   4.742   4.318
 4533TIP3    H113605   3.113   4.766   4.411
 4533TIP3    H213606   3.073   4.657   4.314
 4534TIP3   OH213607   4.238   0.480   3.177
 4534TIP3    H113608   4.266   0.542   3.110
 4534TIP3    H213609   4.318   0.461   3.227
 4535TIP3   OH213610   1.206   2.749   4.849
 4535TIP3    H113611   1.138   2.748   4.781
 4535TIP3    H213612   1.287   2.735   4.801
 4536TIP3   OH213613   5.287   0.069   0.088
 4536TIP3    H113614   5.326   0.044   0.172
 4536TIP3    H213615   5.332   0.013   0.024
 4537TIP3   OH213616   1.179   1.936   3.770
 4537TIP3    H113617   1.245   1.903   3.709
 4537TIP3    H213618   1.201   2.028   3.782
 4538TIP3   OH213619   5.845   5.260   4.692
 4538TIP3    H113620   5.794   5.218   4.762
 4538TIP3    H213621   5.803   5.345   4.680
 4539TIP3   OH213622   6.299   1.921   4.170
 4539TIP3    H113623   6.317   1.832   4.141
 4539TIP3    H213624   6.306   1.974   4.091
 4540TIP3   OH213625   1.534   4.162   1.038
 4540TIP3    H113626   1.539   4.114   0.955
 4540TIP3    H213627   1.595   4.115   1.096
 4541TIP3   OH213628   1.291   4.306   3.230
 4541TIP3    H113629   1.344   4.229   3.210
 4541TIP3    H213630   1.317   4.370   3.164
 4542TIP3   OH213631   5.631   5.364   2.947
 4542TIP3    H113632   5.717   5.397   2.972
 4542TIP3    H213633   5.641   5.340   2.855
 4543TIP3   OH213634   2.393   1.285   4.907
 4543TIP3    H113635   2.348   1.225   4.847
 4543TIP3    H213636   2.323   1.341   4.942
 4544TIP3   OH213637   0.793   5.063   2.033
 4544TIP3    H113638   0.791   5.157   2.047
 4544TIP3    H213639   0.731   5.028   2.097
 4545TIP3   OH213640   2.481   5.220   2.725
 4545TIP3    H113641   2.422   5.217   2.800
 4545TIP3    H213642   2.544   5.289   2.746
 4546TIP3   OH213643   0.618   1.204   1.679
 4546TIP3    H113644   0.656   1.183   1.594
 4546TIP3    H213645   0.663   1.285   1.706
 4547TIP3   OH213646   1.704   0.447   4.733
 4547TIP3    H113647   1.731   0.362   4.769
 4547TIP3    H213648   1.780   0.477   4.683
 4548TIP3   OH213649   2.918   1.861   4.394
 4548TIP3    H113650   2.959   1.777   4.414
 4548TIP3    H213651   2.951   1.883   4.307
 4549TIP3   OH213652   2.039   4.944   0.081
 4549TIP3    H113653   1.972   4.986   0.027
 4549TIP3    H213654   2.001   4.861   0.108
 4550TIP3   OH213655   0.445   1.948   0.356
 4550TIP3    H113656   0.501   2.001   0.299
 4550TIP3    H213657   0.380   2.010   0.390
 4551TIP3   OH213658   0.811   2.316   0.788
 4551TIP3    H113659   0.898   2.284   0.763
 4551TIP3    H213660   0.777   2.251   0.849
 4552TIP3   OH213661   0.016   4.654   3.614
 4552TIP3    H113662   0.080   4.583   3.609
 4552TIP3    H213663   0.067   4.734   3.596
 4553TIP3   OH213664   2.764   2.333   3.902
 4553TIP3    H113665   2.746   2.345   3.808
 4553TIP3    H213666   2.699   2.387   3.946
 4554TIP3   OH213667   2.117   5.850   5.141
 4554TIP3    H113668   2.153   5.811   5.221
 4554TIP3    H213669   2.027   5.817   5.137
 4555TIP3   OH213670   4.809   3.016   4.753
 4555TIP3    H113671   4.834   3.056   4.837
 4555TIP3    H213672   4.815   3.089   4.691
 4556TIP3   OH213673   5.482   1.564   4.000
 4556TIP3    H113674   5.388   1.573   3.982
 4556TIP3    H213675   5.493   1.472   4.023
 4557TIP3   OH213676   1.151   5.141   4.529
 4557TIP3    H113677   1.108   5.111   4.609
 4557TIP3    H213678   1.146   5.065   4.470
 4558TIP3   OH213679   2.860   3.753   1.150
 4558TIP3    H113680   2.892   3.774   1.063
 4558TIP3    H213681   2.767   3.734   1.138
 4559TIP3   OH213682   3.474   0.797   4.884
 4559TIP3    H113683   3.514   0.838   4.807
 4559TIP3    H213684   3.463   0.705   4.860
 4560TIP3   OH213685   1.160   5.464   3.245
 4560TIP3    H113686   1.202   5.526   3.304
 4560TIP3    H213687   1.140   5.388   3.301
 4561TIP3   OH213688   0.284   1.305   4.154
 4561TIP3    H113689   0.208   1.295   4.097
 4561TIP3    H213690   0.251   1.284   4.241
 4562TIP3   OH213691   1.385   2.174   4.330
 4562TIP3    H113692   1.396   2.262   4.366
 4562TIP3    H213693   1.418   2.116   4.399
 4563TIP3   OH213694   1.911   2.045   3.081
 4563TIP3    H113695   1.932   1.952   3.078
 4563TIP3    H213696   1.966   2.079   3.152
 4564TIP3   OH213697   2.256   4.760   3.261
 4564TIP3    H113698   2.343   4.722   3.274
 4564TIP3    H213699   2.258   4.842   3.309
 4565TIP3   OH213700   5.584   5.563   0.791
 4565TIP3    H113701   5.645   5.558   0.717
 4565TIP3    H213702   5.630   5.617   0.855
 4566TIP3   OH213703   1.924   4.703   0.794
 4566TIP3    H113704   1.956   4.627   0.842
 4566TIP3    H213705   1.917   4.674   0.703
 4567TIP3   OH213706   3.032   1.563   1.545
 4567TIP3    H113707   3.020   1.649   1.587
 4567TIP3    H213708   3.117   1.570   1.501
 4568TIP3   OH213709   1.399   1.324   1.463
 4568TIP3    H113710   1.337   1.373   1.517
 4568TIP3    H213711   1.402   1.372   1.380
 4569TIP3   OH213712   2.200   3.056   1.126
 4569TIP3    H113713   2.140   3.112   1.174
 4569TIP3    H213714   2.209   3.098   1.040
 4570TIP3   OH213715   1.071   5.066   0.812
 4570TIP3    H113716   1.064   5.150   0.765
 4570TIP3    H213717   0.990   5.061   0.863
 4571TIP3   OH213718   5.620   1.783   1.879
 4571TIP3    H113719   5.713   1.801   1.867
 4571TIP3    H213720   5.606   1.698   1.837
 4572TIP3   OH213721   1.815   3.915   0.173
 4572TIP3    H113722   1.777   3.879   0.092
 4572TIP3    H213723   1.870   3.988   0.143
 4573TIP3   OH213724   0.148   3.409   0.341
 4573TIP3    H113725   0.099   3.394   0.261
 4573TIP3    H213726   0.117   3.494   0.372
 4574TIP3   OH213727   2.904   3.265   2.480
 4574TIP3    H113728   2.860   3.324   2.541
 4574TIP3    H213729   2.993   3.298   2.474
 4575TIP3   OH213730   2.512   1.046   3.788
 4575TIP3    H113731   2.600   1.084   3.779
 4575TIP3    H213732   2.525   0.952   3.773
 4576TIP3   OH213733   1.392   0.962   4.328
 4576TIP3    H113734   1.324   0.903   4.296
 4576TIP3    H213735   1.406   1.024   4.256
 4577TIP3   OH213736   2.925   5.259   1.687
 4577TIP3    H113737   2.934   5.316   1.610
 4577TIP3    H213738   2.832   5.263   1.709
 4578TIP3   OH213739   0.394   5.084   0.773
 4578TIP3    H113740   0.379   5.008   0.829
 4578TIP3    H213741   0.460   5.053   0.710
 4579TIP3   OH213742   0.367   3.060   4.254
 4579TIP3    H113743   0.392   3.130   4.193
 4579TIP3    H213744   0.295   3.098   4.305
 4580TIP3   OH213745   3.249   3.988   4.552
 4580TIP3    H113746   3.248   4.078   4.519
 4580TIP3    H213747   3.265   3.934   4.475
 4581TIP3   OH213748   3.161   1.374   4.232
 4581TIP3    H113749   3.225   1.367   4.161
 4581TIP3    H213750   3.211   1.406   4.307
 4582TIP3   OH213751   5.634   0.082   0.215
 4582TIP3    H113752   5.691   0.154   0.242
 4582TIP3    H213753   5.659   0.063   0.125
 4583TIP3   OH213754   0.599   2.617   3.462
 4583TIP3    H113755   0.504   2.603   3.468
 4583TIP3    H213756   0.629   2.618   3.553
 4584TIP3   OH213757   4.190   2.439   3.407
 4584TIP3    H113758   4.109   2.404   3.370
 4584TIP3    H213759   4.166   2.526   3.438
 4585TIP3   OH213760   2.754   4.994   2.838
 4585TIP3    H113761   2.846   5.011   2.858
 4585TIP3    H213762   2.732   5.061   2.772
 4586TIP3   OH213763   2.462   5.782   1.881
 4586TIP3    H113764   2.460   5.714   1.947
 4586TIP3    H213765   2.429   5.861   1.925
 4587TIP3   OH213766   6.106   5.669   1.067
 4587TIP3    H113767   6.131   5.618   0.990
 4587TIP3    H213768   6.018   5.639   1.088
 4588TIP3   OH213769   5.789   0.016   4.734
 4588TIP3    H113770   5.732   0.084   4.699
 4588TIP3    H213771   5.760   0.003   4.824
 4589TIP3   OH213772   5.752   1.672   4.937
 4589TIP3    H113773   5.697   1.743   4.969
 4589TIP3    H213774   5.796   1.709   4.861
 4590TIP3   OH213775   5.692   0.942   5.028
 4590TIP3    H113776   5.716   0.936   4.935
 4590TIP3    H213777   5.621   1.007   5.030
 4591TIP3   OH213778   2.477   2.525   2.538
 4591TIP3    H113779   2.488   2.589   2.608
 4591TIP3    H213780   2.384   2.504   2.539
 4592TIP3   OH213781   5.486   0.484   5.006
 4592TIP3    H113782   5.493   0.554   4.941
 4592TIP3    H213783   5.406   0.505   5.056
 4593TIP3   OH213784   2.876   5.613   3.907
 4593TIP3    H113785   2.903   5.697   3.869
 4593TIP3    H213786   2.894   5.549   3.839
 4594TIP3   OH213787   6.163   5.467   5.061
 4594TIP3    H113788   6.242   5.513   5.033
 4594TIP3    H213789   6.182   5.438   5.150
 4595TIP3   OH213790   1.368   5.628   0.643
 4595TIP3    H113791   1.455   5.640   0.605
 4595TIP3    H213792   1.376   5.660   0.733
 4596TIP3   OH213793   1.015   3.661   0.191
 4596TIP3    H113794   1.103   3.628   0.171
 4596TIP3    H213795   1.026   3.710   0.273
 4597TIP3   OH213796   5.868   0.108   1.662
 4597TIP3    H113797   5.899   0.121   1.752
 4597TIP3    H213798   5.930   0.157   1.608
 4598TIP3   OH213799   1.936   4.619   2.253
 4598TIP3    H113800   2.019   4.666   2.265
 4598TIP3    H213801   1.963   4.529   2.235
 4599TIP3   OH213802   0.094   5.897   2.895
 4599TIP3    H113803   0.044   5.822   2.862
 4599TIP3    H213804   0.178   5.891   2.850
 4600TIP3   OH213805   1.397   0.723   1.308
 4600TIP3    H113806   1.325   0.770   1.349
 4600TIP3    H213807   1.356   0.668   1.242
 4601TIP3   OH213808   0.746   3.339   0.768
 4601TIP3    H113809   0.681   3.349   0.837
 4601TIP3    H213810   0.702   3.284   0.703
 4602TIP3   OH213811   6.215   3.144   4.752
 4602TIP3    H113812   6.244   3.229   4.785
 4602TIP3    H213813   6.181   3.100   4.830
 4603TIP3   OH213814   2.340   4.080   4.247
 4603TIP3    H113815   2.383   4.003   4.210
 4603TIP3    H213816   2.389   4.155   4.213
 4604TIP3   OH213817   1.458   0.503   0.778
 4604TIP3    H113818   1.550   0.530   0.783
 4604TIP3    H213819   1.444   0.488   0.684
 4605TIP3   OH213820   1.906   0.681   4.317
 4605TIP3    H113821   1.964   0.624   4.265
 4605TIP3    H213822   1.863   0.736   4.252
 4606TIP3   OH213823   5.340   0.961   2.033
 4606TIP3    H113824   5.427   0.952   1.994
 4606TIP3    H213825   5.356   0.998   2.119
 4607TIP3   OH213826   2.348   0.743   3.751
 4607TIP3    H113827   2.324   0.699   3.669
 4607TIP3    H213828   2.444   0.749   3.747
 4608TIP3   OH213829   0.675   5.737   5.026
 4608TIP3    H113830   0.631   5.652   5.016
 4608TIP3    H213831   0.759   5.726   4.980
 4609TIP3   OH213832   3.691   2.587   0.568
 4609TIP3    H113833   3.688   2.624   0.480
 4609TIP3    H213834   3.781   2.602   0.598
 4610TIP3   OH213835   5.002   1.244   4.222
 4610TIP3    H113836   5.089   1.283   4.222
 4610TIP3    H213837   5.016   1.154   4.251
 4611TIP3   OH213838   4.581   1.188   1.668
 4611TIP3    H113839   4.626   1.272   1.664
 4611TIP3    H213840   4.646   1.125   1.636
 4612TIP3   OH213841   3.715   5.797   0.980
 4612TIP3    H113842   3.650   5.838   0.924
 4612TIP3    H213843   3.704   5.840   1.065
 4613TIP3   OH213844   0.977   2.711   4.675
 4613TIP3    H113845   0.883   2.693   4.675
 4613TIP3    H213846   0.985   2.796   4.719
 4614TIP3   OH213847   0.687   1.559   2.882
 4614TIP3    H113848   0.723   1.631   2.829
 4614TIP3    H213849   0.751   1.488   2.874
 4615TIP3   OH213850   2.503   5.442   1.547
 4615TIP3    H113851   2.422   5.393   1.538
 4615TIP3    H213852   2.572   5.378   1.528
 4616TIP3   OH213853   2.831   5.545   0.268
 4616TIP3    H113854   2.869   5.554   0.181
 4616TIP3    H213855   2.772   5.470   0.261
 4617TIP3   OH213856   4.052   4.747   2.584
 4617TIP3    H113857   4.097   4.785   2.509
 4617TIP3    H213858   3.959   4.764   2.567
 4618TIP3   OH213859   0.648   3.921   4.505
 4618TIP3    H113860   0.656   4.016   4.511
 4618TIP3    H213861   0.569   3.900   4.556
 4619TIP3   OH213862   4.911   3.943   0.679
 4619TIP3    H113863   4.965   3.875   0.639
 4619TIP3    H213864   4.889   3.909   0.766
 4620TIP3   OH213865   1.444   4.904   0.038
 4620TIP3    H113866   1.409   4.934   0.123
 4620TIP3    H213867   1.368   4.902  -0.019
 4621TIP3   OH213868   5.765   4.785   1.419
 4621TIP3    H113869   5.770   4.835   1.338
 4621TIP3    H213870   5.680   4.808   1.456
 4622TIP3   OH213871   6.117   3.620   2.502
 4622TIP3    H113872   6.205   3.594   2.477
 4622TIP3    H213873   6.104   3.705   2.459
 4623TIP3   OH213874   1.734   2.279   3.185
 4623TIP3    H113875   1.794   2.216   3.225
 4623TIP3    H213876   1.649   2.234   3.186
 4624TIP3   OH213877   2.047   4.859   1.636
 4624TIP3    H113878   2.072   4.943   1.675
 4624TIP3    H213879   2.060   4.795   1.706
 4625TIP3   OH213880   3.277   0.465   4.185
 4625TIP3    H113881   3.269   0.458   4.281
 4625TIP3    H213882   3.213   0.532   4.161
 4626TIP3   OH213883   2.948   4.999   1.579
 4626TIP3    H113884   2.936   4.930   1.644
 4626TIP3    H213885   2.958   5.079   1.631
 4627TIP3   OH213886   5.493   2.556   0.497
 4627TIP3    H113887   5.565   2.589   0.551
 4627TIP3    H213888   5.506   2.599   0.412
 4628TIP3   OH213889   5.312   5.162   4.614
 4628TIP3    H113890   5.294   5.131   4.525
 4628TIP3    H213891   5.335   5.254   4.602
 4629TIP3   OH213892   3.986   2.673   4.071
 4629TIP3    H113893   3.979   2.652   4.164
 4629TIP3    H213894   4.043   2.606   4.035
 4630TIP3   OH213895   1.884   3.718   1.811
 4630TIP3    H113896   1.817   3.684   1.869
 4630TIP3    H213897   1.902   3.647   1.750
 4631TIP3   OH213898   4.592   1.122   2.135
 4631TIP3    H113899   4.599   1.041   2.085
 4631TIP3    H213900   4.538   1.098   2.211
 4632TIP3   OH213901   2.171   1.002   3.814
 4632TIP3    H113902   2.157   0.979   3.722
 4632TIP3    H213903   2.215   0.926   3.851
 4633TIP3   OH213904   3.736   2.408   2.311
 4633TIP3    H113905   3.802   2.402   2.242
 4633TIP3    H213906   3.773   2.471   2.373
 4634TIP3   OH213907   5.938   5.275   0.762
 4634TIP3    H113908   5.910   5.308   0.676
 4634TIP3    H213909   5.996   5.343   0.796
 4635TIP3   OH213910   0.535   4.444   1.254
 4635TIP3    H113911   0.527   4.452   1.159
 4635TIP3    H213912   0.609   4.501   1.276
 4636TIP3   OH213913   3.648   5.858   2.410
 4636TIP3    H113914   3.578   5.863   2.345
 4636TIP3    H213915   3.609   5.812   2.484
 4637TIP3   OH213916   1.620   0.297   2.592
 4637TIP3    H113917   1.540   0.349   2.586
 4637TIP3    H213918   1.678   0.334   2.524
 4638TIP3   OH213919   0.668   0.105   2.056
 4638TIP3    H113920   0.731   0.142   1.993
 4638TIP3    H213921   0.592   0.082   2.003
 4639TIP3   OH213922   4.310   5.981   1.545
 4639TIP3    H113923   4.245   5.916   1.570
 4639TIP3    H213924   4.296   5.994   1.451
 4640TIP3   OH213925   1.626   0.541   2.196
 4640TIP3    H113926   1.655   0.555   2.106
 4640TIP3    H213927   1.543   0.494   2.187
 4641TIP3   OH213928   1.107   5.403   2.502
 4641TIP3    H113929   1.142   5.320   2.469
 4641TIP3    H213930   1.132   5.467   2.435
 4642TIP3   OH213931   2.761   1.716   4.174
 4642TIP3    H113932   2.736   1.731   4.265
 4642TIP3    H213933   2.829   1.780   4.156
 4643TIP3   OH213934   3.938   1.016   0.361
 4643TIP3    H113935   3.997   0.974   0.423
 4643TIP3    H213936   3.887   0.945   0.323
 4644TIP3   OH213937   2.742   2.280   1.468
 4644TIP3    H113938   2.718   2.221   1.396
 4644TIP3    H213939   2.816   2.330   1.434
 4645TIP3   OH213940   5.483   3.349   4.492
 4645TIP3    H113941   5.550   3.332   4.426
 4645TIP3    H213942   5.518   3.312   4.573
 4646TIP3   OH213943   3.957   2.297   3.338
 4646TIP3    H113944   3.928   2.205   3.340
 4646TIP3    H213945   3.876   2.348   3.342
 4647TIP3   OH213946   3.034   2.350   4.216
 4647TIP3    H113947   2.980   2.299   4.276
 4647TIP3    H213948   3.105   2.385   4.270
 4648TIP3   OH213949   5.402   3.385   1.855
 4648TIP3    H113950   5.441   3.346   1.776
 4648TIP3    H213951   5.411   3.480   1.842
 4649TIP3   OH213952   4.578   1.736   4.760
 4649TIP3    H113953   4.649   1.675   4.781
 4649TIP3    H213954   4.607   1.820   4.794
 4650TIP3   OH213955   5.654   5.708   3.859
 4650TIP3    H113956   5.589   5.657   3.811
 4650TIP3    H213957   5.612   5.728   3.943
 4651TIP3   OH213958   3.368   2.487   0.703
 4651TIP3    H113959   3.394   2.577   0.686
 4651TIP3    H213960   3.402   2.469   0.791
 4652TIP3   OH213961   0.654   3.564   2.129
 4652TIP3    H113962   0.704   3.521   2.060
 4652TIP3    H213963   0.656   3.502   2.202
 4653TIP3   OH213964   0.056   5.277   2.803
 4653TIP3    H113965   0.125   5.320   2.854
 4653TIP3    H213966   0.083   5.185   2.800
 4654TIP3   OH213967   4.097   5.819   1.689
 4654TIP3    H113968   4.015   5.858   1.718
 4654TIP3    H213969   4.094   5.729   1.721
 4655TIP3   OH213970   5.932   2.167   3.142
 4655TIP3    H113971   5.850   2.184   3.096
 4655TIP3    H213972   5.968   2.088   3.101
 4656TIP3   OH213973   4.608   5.285   2.742
 4656TIP3    H113974   4.644   5.356   2.795
 4656TIP3    H213975   4.684   5.229   2.723
 4657TIP3   OH213976   0.788   5.336   2.011
 4657TIP3    H113977   0.855   5.380   1.960
 4657TIP3    H213978   0.711   5.335   1.953
 4658TIP3   OH213979   1.558   4.080   1.452
 4658TIP3    H113980   1.466   4.060   1.437
 4658TIP3    H213981   1.573   4.162   1.407
 4659TIP3   OH213982   4.680   2.917   3.194
 4659TIP3    H113983   4.767   2.896   3.161
 4659TIP3    H213984   4.650   2.837   3.237
 4660TIP3   OH213985   3.197   1.282   2.648
 4660TIP3    H113986   3.209   1.252   2.738
 4660TIP3    H213987   3.285   1.299   2.616
 4661TIP3   OH213988   4.151   4.111   0.544
 4661TIP3    H113989   4.074   4.083   0.495
 4661TIP3    H213990   4.196   4.172   0.484
 4662TIP3   OH213991   5.232   4.140   1.552
 4662TIP3    H113992   5.158   4.198   1.570
 4662TIP3    H213993   5.303   4.174   1.607
 4663TIP3   OH213994   2.472   2.916   2.365
 4663TIP3    H113995   2.561   2.941   2.342
 4663TIP3    H213996   2.456   2.958   2.450
 4664TIP3   OH213997   4.068   4.186   1.637
 4664TIP3    H113998   4.160   4.211   1.647
 4664TIP3    H213999   4.064   4.097   1.671
 4665TIP3   OH214000   3.628   3.827   4.261
 4665TIP3    H114001   3.622   3.736   4.233
 4665TIP3    H214002   3.681   3.825   4.341
 4666TIP3   OH214003   0.565   0.469   2.150
 4666TIP3    H114004   0.500   0.422   2.202
 4666TIP3    H214005   0.553   0.437   2.061
 4667TIP3   OH214006   4.405   0.213   1.162
 4667TIP3    H114007   4.474   0.263   1.119
 4667TIP3    H214008   4.426   0.219   1.256
 4668TIP3   OH214009   1.533   2.967   3.906
 4668TIP3    H114010   1.519   3.000   3.995
 4668TIP3    H214011   1.555   2.874   3.918
 4669TIP3   OH214012   5.902   2.767   3.675
 4669TIP3    H114013   5.836   2.725   3.729
 4669TIP3    H214014   5.977   2.777   3.732
 4670TIP3   OH214015   4.760   0.442   4.045
 4670TIP3    H114016   4.849   0.409   4.031
 4670TIP3    H214017   4.773   0.533   4.072
 4671TIP3   OH214018   2.729   0.578   3.312
 4671TIP3    H114019   2.788   0.638   3.356
 4671TIP3    H214020   2.749   0.588   3.219
 4672TIP3   OH214021   3.448   5.762   4.294
 4672TIP3    H114022   3.458   5.682   4.243
 4672TIP3    H214023   3.358   5.790   4.277
 4673TIP3   OH214024   1.394   1.629   1.794
 4673TIP3    H114025   1.425   1.713   1.760
 4673TIP3    H214026   1.454   1.564   1.756
 4674TIP3   OH214027   0.549   5.431   4.712
 4674TIP3    H114028   0.608   5.389   4.648
 4674TIP3    H214029   0.545   5.523   4.684
 4675TIP3   OH214030   0.722   5.530   3.396
 4675TIP3    H114031   0.768   5.488   3.469
 4675TIP3    H214032   0.697   5.616   3.429
 4676TIP3   OH214033   5.869   2.743   3.134
 4676TIP3    H114034   5.894   2.757   3.226
 4676TIP3    H214035   5.874   2.648   3.122
 4677TIP3   OH214036   4.302   0.302   4.975
 4677TIP3    H114037   4.387   0.301   4.931
 4677TIP3    H214038   4.245   0.353   4.917
 4678TIP3   OH214039   1.704   3.939   1.025
 4678TIP3    H114040   1.645   3.865   1.033
 4678TIP3    H214041   1.735   3.935   0.935
 4679TIP3   OH214042   2.048   0.568   1.249
 4679TIP3    H114043   1.973   0.620   1.277
 4679TIP3    H214044   2.051   0.495   1.311
 4680TIP3   OH214045   4.802   4.900   4.848
 4680TIP3    H114046   4.750   4.827   4.816
 4680TIP3    H214047   4.842   4.938   4.770
 4681TIP3   OH214048   0.359   0.290   4.805
 4681TIP3    H114049   0.305   0.249   4.873
 4681TIP3    H214050   0.449   0.278   4.836
 4682TIP3   OH214051   4.065   2.405   0.426
 4682TIP3    H114052   4.122   2.368   0.493
 4682TIP3    H214053   4.037   2.489   0.463
 4683TIP3   OH214054   0.605   4.864   0.855
 4683TIP3    H114055   0.590   4.857   0.760
 4683TIP3    H214056   0.656   4.786   0.876
 4684TIP3   OH214057   5.792   0.978   3.068
 4684TIP3    H114058   5.730   1.017   3.130
 4684TIP3    H214059   5.744   0.976   2.985
 4685TIP3   OH214060   4.740   1.167   1.346
 4685TIP3    H114061   4.794   1.144   1.270
 4685TIP3    H214062   4.660   1.203   1.308
 4686TIP3   OH214063   6.188   1.857   4.652
 4686TIP3    H114064   6.265   1.858   4.596
 4686TIP3    H214065   6.217   1.900   4.733
 4687TIP3   OH214066   5.092   2.965   3.872
 4687TIP3    H114067   5.137   2.999   3.794
 4687TIP3    H214068   5.055   3.043   3.914
 4688TIP3   OH214069   2.357   5.136   1.645
 4688TIP3    H114070   2.269   5.131   1.684
 4688TIP3    H214071   2.409   5.073   1.694
 4689TIP3   OH214072   1.362   2.209   1.700
 4689TIP3    H114073   1.342   2.201   1.607
 4689TIP3    H214074   1.341   2.123   1.737
 4690TIP3   OH214075   0.636   0.593   2.538
 4690TIP3    H114076   0.662   0.685   2.548
 4690TIP3    H214077   0.714   0.550   2.502
 4691TIP3   OH214078   3.847   2.261   2.663
 4691TIP3    H114079   3.820   2.338   2.612
 4691TIP3    H214080   3.776   2.198   2.651
 4692TIP3   OH214081   4.121   2.469   2.322
 4692TIP3    H114082   4.213   2.465   2.295
 4692TIP3    H214083   4.096   2.561   2.307
 4693TIP3   OH214084   3.796   0.743   4.921
 4693TIP3    H114085   3.860   0.675   4.942
 4693TIP3    H214086   3.807   0.808   4.990
 4694TIP3   OH214087   2.778   4.550   5.082
 4694TIP3    H114088   2.753   4.625   5.136
 4694TIP3    H214089   2.817   4.489   5.144
 4695TIP3   OH214090   6.287   2.836   3.744
 4695TIP3    H114091   6.260   2.749   3.773
 4695TIP3    H214092   6.219   2.894   3.777
 4696TIP3   OH214093   3.554   1.608   4.204
 4696TIP3    H114094   3.505   1.610   4.122
 4696TIP3    H214095   3.555   1.699   4.233
 4697TIP3   OH214096   3.149   1.825   5.069
 4697TIP3    H114097   3.196   1.840   5.151
 4697TIP3    H214098   3.152   1.910   5.024
 4698TIP3   OH214099   5.378   2.256   2.254
 4698TIP3    H114100   5.298   2.255   2.202
 4698TIP3    H214101   5.371   2.180   2.312
 4699TIP3   OH214102   4.125   0.110   0.759
 4699TIP3    H114103   4.083   0.193   0.782
 4699TIP3    H214104   4.065   0.070   0.696
 4700TIP3   OH214105   1.518   4.759   2.809
 4700TIP3    H114106   1.454   4.808   2.758
 4700TIP3    H214107   1.480   4.672   2.819
 4701TIP3   OH214108   6.043   3.820   0.673
 4701TIP3    H114109   6.072   3.743   0.722
 4701TIP3    H214110   6.029   3.788   0.584
 4702TIP3   OH214111   3.316   5.031   0.888
 4702TIP3    H114112   3.304   4.999   0.977
 4702TIP3    H214113   3.234   5.077   0.868
 4703TIP3   OH214114   3.339   4.290   2.095
 4703TIP3    H114115   3.429   4.322   2.083
 4703TIP3    H214116   3.287   4.370   2.104
 4704TIP3   OH214117   2.822   3.438   3.483
 4704TIP3    H114118   2.875   3.491   3.423
 4704TIP3    H214119   2.745   3.493   3.502
 4705TIP3   OH214120   0.674   2.707   5.168
 4705TIP3    H114121   0.629   2.776   5.217
 4705TIP3    H214122   0.606   2.669   5.113
 4706TIP3   OH214123   4.136   4.471   1.001
 4706TIP3    H114124   4.225   4.435   1.000
 4706TIP3    H214125   4.144   4.557   0.959
 4707TIP3   OH214126   1.221   3.126   2.739
 4707TIP3    H114127   1.311   3.097   2.746
 4707TIP3    H214128   1.186   3.079   2.664
 4708TIP3   OH214129   2.171   3.165   0.874
 4708TIP3    H114130   2.089   3.166   0.825
 4708TIP3    H214131   2.202   3.255   0.872
 4709TIP3   OH214132   5.982   2.483   2.287
 4709TIP3    H114133   6.062   2.520   2.250
 4709TIP3    H214134   6.002   2.390   2.300
 4710TIP3   OH214135   5.413   0.519   2.161
 4710TIP3    H114136   5.458   0.546   2.241
 4710TIP3    H214137   5.383   0.600   2.121
 4711TIP3   OH214138   4.111   4.624   3.902
 4711TIP3    H114139   4.089   4.631   3.810
 4711TIP3    H214140   4.196   4.580   3.903
 4712TIP3   OH214141   2.108   4.372   4.540
 4712TIP3    H114142   2.203   4.384   4.537
 4712TIP3    H214143   2.088   4.319   4.463
 4713TIP3   OH214144   2.436   4.077   1.609
 4713TIP3    H114145   2.398   4.002   1.654
 4713TIP3    H214146   2.503   4.039   1.551
 4714TIP3   OH214147   3.418   4.168   0.483
 4714TIP3    H114148   3.484   4.126   0.537
 4714TIP3    H214149   3.347   4.189   0.544
 4715TIP3   OH214150   2.946   5.845   1.579
 4715TIP3    H114151   2.925   5.876   1.667
 4715TIP3    H214152   2.911   5.912   1.520
 4716TIP3   OH214153   1.055   2.367   1.612
 4716TIP3    H114154   1.081   2.279   1.584
 4716TIP3    H214155   1.036   2.357   1.706
 4717TIP3   OH214156   4.669   2.956   1.246
 4717TIP3    H114157   4.762   2.962   1.266
 4717TIP3    H214158   4.660   2.999   1.161
 4718TIP3   OH214159   0.265   1.150   4.902
 4718TIP3    H114160   0.181   1.187   4.928
 4718TIP3    H214161   0.330   1.204   4.948
 4719TIP3   OH214162   6.000   5.799   3.239
 4719TIP3    H114163   6.067   5.730   3.239
 4719TIP3    H214164   5.995   5.827   3.330
 4720TIP3   OH214165   2.551   5.042   3.716
 4720TIP3    H114166   2.491   4.987   3.664
 4720TIP3    H214167   2.638   5.020   3.683
 4721TIP3   OH214168   2.132   5.845   2.993
 4721TIP3    H114169   2.218   5.866   2.956
 4721TIP3    H214170   2.139   5.754   3.020
 4722TIP3   OH214171   3.998   5.715   1.401
 4722TIP3    H114172   4.067   5.693   1.339
 4722TIP3    H214173   4.045   5.746   1.479
 4723TIP3   OH214174   2.258   1.168   3.317
 4723TIP3    H114175   2.352   1.178   3.332
 4723TIP3    H214176   2.217   1.221   3.386
 4724TIP3   OH214177   4.845   2.156   1.394
 4724TIP3    H114178   4.861   2.087   1.329
 4724TIP3    H214179   4.862   2.238   1.346
 4725TIP3   OH214180   4.410   2.573   4.481
 4725TIP3    H114181   4.351   2.560   4.406
 4725TIP3    H214182   4.496   2.587   4.442
 4726TIP3   OH214183   4.864   1.715   0.722
 4726TIP3    H114184   4.800   1.747   0.786
 4726TIP3    H214185   4.932   1.782   0.721
 4727TIP3   OH214186   2.452   3.011   3.483
 4727TIP3    H114187   2.393   2.954   3.434
 4727TIP3    H214188   2.394   3.066   3.536
 4728TIP3   OH214189   1.793   1.803   3.472
 4728TIP3    H114190   1.724   1.827   3.410
 4728TIP3    H214191   1.750   1.804   3.557
 4729TIP3   OH214192   4.772   2.440   2.570
 4729TIP3    H114193   4.834   2.382   2.525
 4729TIP3    H214194   4.784   2.525   2.527
 4730TIP3   OH214195   0.239   2.261   2.135
 4730TIP3    H114196   0.257   2.292   2.046
 4730TIP3    H214197   0.150   2.226   2.130
 4731TIP3   OH214198   2.897   4.075   4.701
 4731TIP3    H114199   2.862   3.998   4.745
 4731TIP3    H214200   2.992   4.068   4.714
 4732TIP3   OH214201   5.919   3.194   4.676
 4732TIP3    H114202   5.908   3.164   4.767
 4732TIP3    H214203   6.004   3.236   4.675
 4733TIP3   OH214204   3.132   3.625   0.396
 4733TIP3    H114205   3.061   3.618   0.333
 4733TIP3    H214206   3.155   3.534   0.416
 4734TIP3   OH214207   3.101   2.228   1.544
 4734TIP3    H114208   3.168   2.293   1.566
 4734TIP3    H214209   3.036   2.276   1.492
 4735TIP3   OH214210   5.460   3.046   4.799
 4735TIP3    H114211   5.392   3.059   4.732
 4735TIP3    H214212   5.541   3.075   4.757
 4736TIP3   OH214213   4.062   4.614   3.632
 4736TIP3    H114214   3.997   4.638   3.566
 4736TIP3    H214215   4.142   4.599   3.582
 4737TIP3   OH214216   4.771   5.117   3.334
 4737TIP3    H114217   4.720   5.192   3.365
 4737TIP3    H214218   4.859   5.152   3.321
 4738TIP3   OH214219   3.039   2.323   3.937
 4738TIP3    H114220   3.056   2.343   4.029
 4738TIP3    H214221   2.944   2.323   3.929
 4739TIP3   OH214222   1.606   4.876   1.294
 4739TIP3    H114223   1.610   4.817   1.219
 4739TIP3    H214224   1.592   4.819   1.370
 4740TIP3   OH214225   3.633   4.893   5.139
 4740TIP3    H114226   3.601   4.811   5.102
 4740TIP3    H214227   3.605   4.960   5.077
 4741TIP3   OH214228   4.849   3.426   2.701
 4741TIP3    H114229   4.787   3.483   2.747
 4741TIP3    H214230   4.813   3.417   2.613
 4742TIP3   OH214231   4.134   5.652   3.871
 4742TIP3    H114232   4.051   5.662   3.824
 4742TIP3    H214233   4.145   5.736   3.917
 4743TIP3   OH214234   3.098   4.869   3.572
 4743TIP3    H114235   3.014   4.914   3.567
 4743TIP3    H214236   3.155   4.930   3.619
 4744TIP3   OH214237   3.672   5.009   2.962
 4744TIP3    H114238   3.736   5.013   2.891
 4744TIP3    H214239   3.633   5.097   2.964
 4745TIP3   OH214240   0.060   2.206   4.787
 4745TIP3    H114241   0.131   2.258   4.823
 4745TIP3    H214242   0.088   2.185   4.698
 4746TIP3   OH214243   1.503   1.070   3.823
 4746TIP3    H114244   1.477   1.108   3.739
 4746TIP3    H214245   1.596   1.050   3.813
 4747TIP3   OH214246   0.594   4.532   3.953
 4747TIP3    H114247   0.612   4.439   3.937
 4747TIP3    H214248   0.540   4.534   4.031
 4748TIP3   OH214249   4.028   5.874   0.275
 4748TIP3    H114250   4.009   5.800   0.217
 4748TIP3    H214251   3.994   5.847   0.360
 4749TIP3   OH214252   1.646   4.281   3.076
 4749TIP3    H114253   1.573   4.330   3.039
 4749TIP3    H214254   1.672   4.331   3.153
 4750TIP3   OH214255   1.858   0.685   0.950
 4750TIP3    H114256   1.895   0.598   0.962
 4750TIP3    H214257   1.856   0.723   1.037
 4751TIP3   OH214258   4.642   4.366   0.106
 4751TIP3    H114259   4.730   4.329   0.112
 4751TIP3    H214260   4.605   4.353   0.194
 4752TIP3   OH214261   5.423   0.382   3.147
 4752TIP3    H114262   5.342   0.374   3.198
 4752TIP3    H214263   5.492   0.388   3.213
 4753TIP3   OH214264   1.425   3.743   3.779
 4753TIP3    H114265   1.437   3.701   3.864
 4753TIP3    H214266   1.376   3.823   3.797
 4754TIP3   OH214267   2.088   2.194   5.159
 4754TIP3    H114268   2.084   2.100   5.140
 4754TIP3    H214269   2.148   2.200   5.234
 4755TIP3   OH214270   1.667   1.755   1.122
 4755TIP3    H114271   1.708   1.831   1.082
 4755TIP3    H214272   1.691   1.682   1.065
 4756TIP3   OH214273   1.191   4.916   4.338
 4756TIP3    H114274   1.222   4.867   4.415
 4756TIP3    H214275   1.167   4.848   4.275
 4757TIP3   OH214276   2.697   3.619   4.654
 4757TIP3    H114277   2.736   3.532   4.646
 4757TIP3    H214278   2.730   3.667   4.578
 4758TIP3   OH214279   3.809   3.158   5.178
 4758TIP3    H114280   3.756   3.235   5.163
 4758TIP3    H214281   3.895   3.192   5.202
 4759TIP3   OH214282   2.236   1.532   4.297
 4759TIP3    H114283   2.166   1.515   4.234
 4759TIP3    H214284   2.276   1.447   4.312
 4760TIP3   OH214285   0.104   3.683   0.405
 4760TIP3    H114286   0.196   3.692   0.381
 4760TIP3    H214287   0.079   3.768   0.441
 4761TIP3   OH214288   4.222   0.047   3.416
 4761TIP3    H114289   4.317   0.056   3.427
 4761TIP3    H214290   4.188   0.049   3.506
 4762TIP3   OH214291   0.334   3.244   3.374
 4762TIP3    H114292   0.252   3.282   3.405
 4762TIP3    H214293   0.361   3.301   3.302
 4763TIP3   OH214294   0.131   4.661   4.927
 4763TIP3    H114295   0.116   4.587   4.986
 4763TIP3    H214296   0.217   4.642   4.888
 4764TIP3   OH214297   1.114   1.527   0.092
 4764TIP3    H114298   1.047   1.514   0.159
 4764TIP3    H214299   1.185   1.467   0.115
 4765TIP3   OH214300   0.371   5.541   3.442
 4765TIP3    H114301   0.449   5.594   3.461
 4765TIP3    H214302   0.356   5.552   3.348
 4766TIP3   OH214303   2.391   0.492   2.268
 4766TIP3    H114304   2.425   0.403   2.272
 4766TIP3    H214305   2.301   0.485   2.300
 4767TIP3   OH214306   3.432   2.466   3.376
 4767TIP3    H114307   3.385   2.411   3.439
 4767TIP3    H214308   3.421   2.555   3.408
 4768TIP3   OH214309   5.036   3.898   1.463
 4768TIP3    H114310   5.070   3.833   1.524
 4768TIP3    H214311   5.095   3.973   1.473
 4769TIP3   OH214312   0.900   5.448   3.639
 4769TIP3    H114313   0.897   5.378   3.705
 4769TIP3    H214314   0.963   5.511   3.673
 4770TIP3   OH214315   6.312   3.821   3.359
 4770TIP3    H114316   6.246   3.832   3.427
 4770TIP3    H214317   6.296   3.893   3.298
 4771TIP3   OH214318   0.127   0.306   1.848
 4771TIP3    H114319   0.108   0.389   1.804
 4771TIP3    H214320   0.198   0.268   1.797
 4772TIP3   OH214321   3.988   4.432   5.196
 4772TIP3    H114322   3.985   4.343   5.162
 4772TIP3    H214323   4.035   4.483   5.130
 4773TIP3   OH214324   0.102   3.992   1.921
 4773TIP3    H114325   0.149   4.057   1.868
 4773TIP3    H214326   0.165   3.966   1.988
 4774TIP3   OH214327   0.866   3.092   2.324
 4774TIP3    H114328   0.847   3.174   2.370
 4774TIP3    H214329   0.833   3.023   2.383
 4775TIP3   OH214330   5.692   1.848   4.471
 4775TIP3    H114331   5.769   1.903   4.463
 4775TIP3    H214332   5.618   1.909   4.464
 4776TIP3   OH214333   3.839   0.448   0.877
 4776TIP3    H114334   3.924   0.482   0.849
 4776TIP3    H214335   3.858   0.400   0.957
 4777TIP3   OH214336   1.062   3.565   2.352
 4777TIP3    H114337   1.014   3.567   2.435
 4777TIP3    H214338   1.100   3.477   2.349
 4778TIP3   OH214339   5.145   1.344   0.913
 4778TIP3    H114340   5.130   1.373   0.823
 4778TIP3    H214341   5.080   1.391   0.965
 4779TIP3   OH214342   1.351   3.053   2.267
 4779TIP3    H114343   1.264   3.064   2.228
 4779TIP3    H214344   1.408   3.029   2.194
 4780TIP3   OH214345   2.040   3.867   2.767
 4780TIP3    H114346   2.080   3.781   2.777
 4780TIP3    H214347   1.948   3.849   2.749
 4781TIP3   OH214348   0.486   3.353   2.493
 4781TIP3    H114349   0.418   3.408   2.530
 4781TIP3    H214350   0.540   3.328   2.568
 4782TIP3   OH214351   0.214   4.352   2.147
 4782TIP3    H114352   0.188   4.404   2.223
 4782TIP3    H214353   0.207   4.261   2.176
 4783TIP3   OH214354   2.613   4.754   0.833
 4783TIP3    H114355   2.690   4.801   0.867
 4783TIP3    H214356   2.602   4.788   0.745
 4784TIP3   OH214357   2.102   4.463   3.412
 4784TIP3    H114358   2.156   4.397   3.456
 4784TIP3    H214359   2.121   4.452   3.319
 4785TIP3   OH214360   5.011   5.770   4.079
 4785TIP3    H114361   4.945   5.713   4.119
 4785TIP3    H214362   5.065   5.710   4.027
 4786TIP3   OH214363   2.059   1.968   4.130
 4786TIP3    H114364   2.015   1.920   4.201
 4786TIP3    H214365   2.028   2.058   4.141
 4787TIP3   OH214366   4.759   4.351   0.734
 4787TIP3    H114367   4.681   4.298   0.722
 4787TIP3    H214368   4.830   4.300   0.694
 4788TIP3   OH214369   5.336   5.622   1.601
 4788TIP3    H114370   5.304   5.662   1.521
 4788TIP3    H214371   5.409   5.567   1.573
 4789TIP3   OH214372   5.065   1.772   1.601
 4789TIP3    H114373   5.050   1.724   1.683
 4789TIP3    H214374   5.152   1.810   1.611
 4790TIP3   OH214375   4.913   4.684   4.167
 4790TIP3    H114376   4.960   4.661   4.247
 4790TIP3    H214377   4.826   4.711   4.197
 4791TIP3   OH214378   0.719   0.909   1.062
 4791TIP3    H114379   0.692   0.944   1.147
 4791TIP3    H214380   0.813   0.926   1.059
 4792TIP3   OH214381   5.839   3.621   0.859
 4792TIP3    H114382   5.878   3.664   0.935
 4792TIP3    H214383   5.912   3.610   0.798
 4793TIP3   OH214384   4.770   5.360   1.984
 4793TIP3    H114385   4.846   5.312   2.016
 4793TIP3    H214386   4.802   5.410   1.909
 4794TIP3   OH214387   3.513   1.817   4.621
 4794TIP3    H114388   3.512   1.728   4.586
 4794TIP3    H214389   3.606   1.836   4.634
 4795TIP3   OH214390   0.800   5.582   2.661
 4795TIP3    H114391   0.778   5.572   2.753
 4795TIP3    H214392   0.884   5.629   2.661
 4796TIP3   OH214393   0.410   1.651   4.375
 4796TIP3    H114394   0.484   1.711   4.390
 4796TIP3    H214395   0.411   1.594   4.452
 4797TIP3   OH214396   0.643   1.950   3.232
 4797TIP3    H114397   0.607   1.875   3.186
 4797TIP3    H214398   0.578   1.971   3.299
 4798TIP3   OH214399   1.982   3.625   0.801
 4798TIP3    H114400   1.923   3.663   0.737
 4798TIP3    H214401   1.991   3.691   0.870
 4799TIP3   OH214402   3.086   0.676  -0.028
 4799TIP3    H114403   3.109   0.587   0.000
 4799TIP3    H214404   3.114   0.732   0.044
 4800TIP3   OH214405   5.335   5.030   2.563
 4800TIP3    H114406   5.286   4.969   2.618
 4800TIP3    H214407   5.298   5.018   2.475
 4801TIP3   OH214408   4.755   3.876   3.425
 4801TIP3    H114409   4.665   3.886   3.457
 4801TIP3    H214410   4.791   3.965   3.427
 4802TIP3   OH214411   4.934   5.605   0.501
 4802TIP3    H114412   4.877   5.540   0.541
 4802TIP3    H214413   4.874   5.670   0.464
 4803TIP3   OH214414   0.110   1.386   4.600
 4803TIP3    H114415   0.190   1.439   4.589
 4803TIP3    H214416   0.073   1.417   4.683
 4804TIP3   OH214417   6.212   5.836   2.211
 4804TIP3    H114418   6.153   5.911   2.204
 4804TIP3    H214419   6.200   5.804   2.300
 4805TIP3   OH214420   6.063   0.094   3.789
 4805TIP3    H114421   5.988   0.146   3.762
 4805TIP3    H214422   6.124   0.101   3.715
 4806TIP3   OH214423   6.276   4.341   2.128
 4806TIP3    H114424   6.251   4.269   2.070
 4806TIP3    H214425   6.370   4.352   2.114
 4807TIP3   OH214426   2.389   1.829   0.268
 4807TIP3    H114427   2.449   1.777   0.215
 4807TIP3    H214428   2.384   1.783   0.352
 4808TIP3   OH214429   2.743   4.547   0.160
 4808TIP3    H114430   2.836   4.542   0.138
 4808TIP3    H214431   2.728   4.471   0.216
 4809TIP3   OH214432   3.263   1.737   3.103
 4809TIP3    H114433   3.203   1.777   3.041
 4809TIP3    H214434   3.347   1.780   3.087
 4810TIP3   OH214435   4.382   5.245   4.716
 4810TIP3    H114436   4.289   5.221   4.720
 4810TIP3    H214437   4.386   5.329   4.762
 4811TIP3   OH214438   1.844   0.409   1.448
 4811TIP3    H114439   1.775   0.373   1.503
 4811TIP3    H214440   1.908   0.443   1.511
 4812TIP3   OH214441   4.517   3.104   1.860
 4812TIP3    H114442   4.569   3.152   1.795
 4812TIP3    H214443   4.521   3.158   1.939
 4813TIP3   OH214444   5.607   0.860   1.222
 4813TIP3    H114445   5.644   0.931   1.170
 4813TIP3    H214446   5.604   0.893   1.311
 4814TIP3   OH214447   0.618   2.293   3.350
 4814TIP3    H114448   0.672   2.305   3.429
 4814TIP3    H214449   0.534   2.262   3.384
 4815TIP3   OH214450   3.302   2.753   3.567
 4815TIP3    H114451   3.311   2.694   3.641
 4815TIP3    H214452   3.391   2.781   3.547
 4816TIP3   OH214453   3.423   1.028   2.957
 4816TIP3    H114454   3.384   0.951   2.998
 4816TIP3    H214455   3.476   0.993   2.886
 4817TIP3   OH214456   4.040   4.009   3.024
 4817TIP3    H114457   4.125   4.024   3.065
 4817TIP3    H214458   4.000   4.096   3.018
 4818TIP3   OH214459   4.822   5.838   0.351
 4818TIP3    H114460   4.763   5.803   0.284
 4818TIP3    H214461   4.883   5.893   0.302
 4819TIP3   OH214462   2.521   1.544   0.489
 4819TIP3    H114463   2.560   1.603   0.554
 4819TIP3    H214464   2.591   1.527   0.427
 4820TIP3   OH214465   3.379   4.139   1.301
 4820TIP3    H114466   3.429   4.190   1.364
 4820TIP3    H214467   3.294   4.124   1.344
 4821TIP3   OH214468   0.397   3.065   5.014
 4821TIP3    H114469   0.303   3.087   5.019
 4821TIP3    H214470   0.423   3.093   4.926
 4822TIP3   OH214471   2.638   1.160   4.857
 4822TIP3    H114472   2.624   1.158   4.763
 4822TIP3    H214473   2.559   1.201   4.892
 4823TIP3   OH214474   3.215   1.124   4.487
 4823TIP3    H114475   3.154   1.112   4.414
 4823TIP3    H214476   3.186   1.205   4.529
 4824TIP3   OH214477   4.349   2.784   2.004
 4824TIP3    H114478   4.331   2.826   1.920
 4824TIP3    H214479   4.438   2.749   1.994
 4825TIP3   OH214480   4.542   4.193   4.821
 4825TIP3    H114481   4.612   4.127   4.821
 4825TIP3    H214482   4.471   4.153   4.871
 4826TIP3   OH214483   1.376   5.881   4.297
 4826TIP3    H114484   1.339   5.797   4.321
 4826TIP3    H214485   1.457   5.859   4.250
 4827TIP3   OH214486   2.908   0.660   1.704
 4827TIP3    H114487   2.881   0.744   1.740
 4827TIP3    H214488   2.906   0.600   1.778
 4828TIP3   OH214489   5.286   1.448   2.152
 4828TIP3    H114490   5.370   1.481   2.121
 4828TIP3    H214491   5.228   1.454   2.076
 4829TIP3   OH214492   3.847   3.480   1.994
 4829TIP3    H114493   3.936   3.512   1.978
 4829TIP3    H214494   3.860   3.394   2.034
 4830TIP3   OH214495   0.155   3.521   0.086
 4830TIP3    H114496   0.185   3.459   0.020
 4830TIP3    H214497   0.236   3.553   0.127
 4831TIP3   OH214498   0.002   3.498   3.004
 4831TIP3    H114499   0.074   3.557   3.028
 4831TIP3    H214500  -0.062   3.556   2.962
 4832TIP3   OH214501   0.414   3.121   3.608
 4832TIP3    H114502   0.508   3.138   3.618
 4832TIP3    H214503   0.394   3.152   3.520
 4833TIP3   OH214504   5.778   5.672   3.077
 4833TIP3    H114505   5.708   5.725   3.039
 4833TIP3    H214506   5.841   5.736   3.112
 4834TIP3   OH214507   1.265   4.327   4.177
 4834TIP3    H114508   1.303   4.293   4.258
 4834TIP3    H214509   1.192   4.269   4.158
 4835TIP3   OH214510   4.889   2.527   0.226
 4835TIP3    H114511   4.943   2.499   0.301
 4835TIP3    H214512   4.863   2.617   0.248
 4836TIP3   OH214513   1.954   4.727   1.139
 4836TIP3    H114514   2.029   4.701   1.086
 4836TIP3    H214515   1.915   4.800   1.092
 4837TIP3   OH214516   4.781   1.751   2.650
 4837TIP3    H114517   4.701   1.703   2.675
 4837TIP3    H214518   4.786   1.823   2.713
 4838TIP3   OH214519   5.443   2.226   3.977
 4838TIP3    H114520   5.438   2.322   3.981
 4838TIP3    H214521   5.492   2.209   3.897
 4839TIP3   OH214522   1.326   0.007   0.154
 4839TIP3    H114523   1.232   0.023   0.143
 4839TIP3    H214524   1.363   0.094   0.172
 4840TIP3   OH214525   4.252   2.807   2.947
 4840TIP3    H114526   4.286   2.725   2.983
 4840TIP3    H214527   4.331   2.861   2.934
 4841TIP3   OH214528   3.103   5.787   2.981
 4841TIP3    H114529   3.063   5.746   2.905
 4841TIP3    H214530   3.033   5.788   3.047
 4842TIP3   OH214531   3.765   4.082   4.923
 4842TIP3    H114532   3.859   4.096   4.936
 4842TIP3    H214533   3.724   4.123   4.998
 4843TIP3   OH214534   4.400   3.708   5.145
 4843TIP3    H114535   4.327   3.713   5.207
 4843TIP3    H214536   4.359   3.707   5.059
 4844TIP3   OH214537   0.453   3.393   1.523
 4844TIP3    H114538   0.429   3.479   1.489
 4844TIP3    H214539   0.378   3.365   1.575
 4845TIP3   OH214540   1.860   2.104   0.399
 4845TIP3    H114541   1.946   2.144   0.406
 4845TIP3    H214542   1.820   2.145   0.322
 4846TIP3   OH214543   2.787   4.880   4.501
 4846TIP3    H114544   2.719   4.860   4.437
 4846TIP3    H214545   2.742   4.883   4.585
 4847TIP3   OH214546   5.730   1.387   4.003
 4847TIP3    H114547   5.729   1.470   3.955
 4847TIP3    H214548   5.637   1.368   4.018
 4848TIP3   OH214549   1.328   3.448   4.127
 4848TIP3    H114550   1.368   3.410   4.049
 4848TIP3    H214551   1.317   3.374   4.187
 4849TIP3   OH214552   1.880   3.980   3.748
 4849TIP3    H114553   1.807   3.996   3.807
 4849TIP3    H214554   1.924   4.064   3.740
 4850TIP3   OH214555   5.639   2.408   2.751
 4850TIP3    H114556   5.684   2.490   2.769
 4850TIP3    H214557   5.687   2.370   2.677
 4851TIP3   OH214558   4.015   1.366   1.992
 4851TIP3    H114559   4.021   1.462   1.984
 4851TIP3    H214560   4.105   1.336   1.983
 4852TIP3   OH214561   4.099   3.051   3.117
 4852TIP3    H114562   4.107   2.964   3.078
 4852TIP3    H214563   4.097   3.035   3.211
 4853TIP3   OH214564   1.787   5.957   3.958
 4853TIP3    H114565   1.778   5.986   4.049
 4853TIP3    H214566   1.876   5.982   3.933
 4854TIP3   OH214567   3.433   5.497   4.167
 4854TIP3    H114568   3.342   5.504   4.136
 4854TIP3    H214569   3.473   5.434   4.107
 4855TIP3   OH214570   6.255   0.503   5.066
 4855TIP3    H114571   6.177   0.533   5.019
 4855TIP3    H214572   6.230   0.416   5.100
 4856TIP3   OH214573   0.894   4.930   4.322
 4856TIP3    H114574   0.912   4.861   4.257
 4856TIP3    H214575   0.940   5.007   4.288
 4857TIP3   OH214576   5.412   0.073   0.355
 4857TIP3    H114577   5.394   0.160   0.391
 4857TIP3    H214578   5.481   0.087   0.290
 4858TIP3   OH214579   6.313   4.046   1.198
 4858TIP3    H114580   6.234   4.030   1.146
 4858TIP3    H214581   6.327   4.141   1.190
 4859TIP3   OH214582   4.575   5.962   0.860
 4859TIP3    H114583   4.520   6.028   0.818
 4859TIP3    H214584   4.547   5.879   0.821
 4860TIP3   OH214585   5.002   1.660   1.843
 4860TIP3    H114586   4.924   1.616   1.877
 4860TIP3    H214587   5.028   1.719   1.913
 4861TIP3   OH214588   0.596   3.247   4.096
 4861TIP3    H114589   0.542   3.316   4.057
 4861TIP3    H214590   0.608   3.184   4.025
 4862TIP3   OH214591   5.831   1.561   2.849
 4862TIP3    H114592   5.817   1.654   2.868
 4862TIP3    H214593   5.754   1.535   2.798
 4863TIP3   OH214594   5.312   2.010   2.681
 4863TIP3    H114595   5.241   1.977   2.626
 4863TIP3    H214596   5.386   2.021   2.621
 4864TIP3   OH214597   2.277   0.345   0.149
 4864TIP3    H114598   2.331   0.269   0.172
 4864TIP3    H214599   2.317   0.380   0.070
 4865TIP3   OH214600   4.982   2.938   3.403
 4865TIP3    H114601   5.053   2.940   3.467
 4865TIP3    H214602   5.009   2.872   3.339
 4866TIP3   OH214603   4.987   4.951   1.169
 4866TIP3    H114604   4.914   4.891   1.156
 4866TIP3    H214605   5.057   4.896   1.204
 4867TIP3   OH214606   2.342   5.763   5.024
 4867TIP3    H114607   2.401   5.831   4.990
 4867TIP3    H214608   2.272   5.812   5.069
 4868TIP3   OH214609   5.677   5.379   2.630
 4868TIP3    H114610   5.608   5.316   2.652
 4868TIP3    H214611   5.671   5.389   2.535
 4869TIP3   OH214612   2.005   1.543   2.762
 4869TIP3    H114613   1.965   1.458   2.742
 4869TIP3    H214614   2.056   1.527   2.841
 4870TIP3   OH214615   0.587   0.973   1.855
 4870TIP3    H114616   0.640   1.017   1.921
 4870TIP3    H214617   0.583   1.034   1.782
 4871TIP3   OH214618   1.231   1.481   0.909
 4871TIP3    H114619   1.321   1.469   0.938
 4871TIP3    H214620   1.238   1.524   0.824
 4872TIP3   OH214621   0.623   0.718   0.543
 4872TIP3    H114622   0.701   0.744   0.590
 4872TIP3    H214623   0.616   0.623   0.559
 4873TIP3   OH214624   2.541   1.148   2.820
 4873TIP3    H114625   2.516   1.239   2.804
 4873TIP3    H214626   2.479   1.096   2.768
 4874TIP3   OH214627   2.270   1.616   4.656
 4874TIP3    H114628   2.195   1.609   4.714
 4874TIP3    H214629   2.236   1.661   4.578
 4875TIP3   OH214630   3.825   0.626   2.202
 4875TIP3    H114631   3.821   0.635   2.106
 4875TIP3    H214632   3.796   0.712   2.235
 4876TIP3   OH214633   2.396   4.726   1.500
 4876TIP3    H114634   2.406   4.708   1.407
 4876TIP3    H214635   2.485   4.723   1.535
 4877TIP3   OH214636   2.069   1.062   0.026
 4877TIP3    H114637   2.079   0.967   0.037
 4877TIP3    H214638   2.069   1.096   0.116
 4878TIP3   OH214639   1.399   2.124   1.140
 4878TIP3    H114640   1.439   2.209   1.128
 4878TIP3    H214641   1.313   2.143   1.178
 4879TIP3   OH214642   0.937   0.003   0.879
 4879TIP3    H114643   1.024  -0.019   0.848
 4879TIP3    H214644   0.948   0.017   0.973
 4880TIP3   OH214645   4.551   4.212   1.521
 4880TIP3    H114646   4.460   4.226   1.548
 4880TIP3    H214647   4.585   4.300   1.503
 4881TIP3   OH214648   4.962   4.197   0.626
 4881TIP3    H114649   5.021   4.227   0.696
 4881TIP3    H214650   4.955   4.102   0.640
 4882TIP3   OH214651   5.860   3.829   2.775
 4882TIP3    H114652   5.824   3.855   2.860
 4882TIP3    H214653   5.860   3.733   2.778
 4883TIP3   OH214654   6.100   4.573   2.641
 4883TIP3    H114655   6.077   4.626   2.564
 4883TIP3    H214656   6.084   4.483   2.614
 4884TIP3   OH214657   0.873   5.385   0.234
 4884TIP3    H114658   0.789   5.399   0.279
 4884TIP3    H214659   0.934   5.443   0.278
 4885TIP3   OH214660   6.239   0.925   3.247
 4885TIP3    H114661   6.236   0.831   3.229
 4885TIP3    H214662   6.327   0.951   3.222
 4886TIP3   OH214663   5.424   3.118   3.977
 4886TIP3    H114664   5.410   3.133   3.884
 4886TIP3    H214665   5.339   3.138   4.018
 4887TIP3   OH214666   1.894   4.825   3.098
 4887TIP3    H114667   1.989   4.817   3.091
 4887TIP3    H214668   1.879   4.860   3.186
 4888TIP3   OH214669   5.210   1.519   3.933
 4888TIP3    H114670   5.166   1.470   3.865
 4888TIP3    H214671   5.141   1.574   3.972
 4889TIP3   OH214672   3.208   0.179   3.187
 4889TIP3    H114673   3.129   0.129   3.171
 4889TIP3    H214674   3.279   0.116   3.177
 4890TIP3   OH214675   4.476   3.628   4.030
 4890TIP3    H114676   4.455   3.721   4.043
 4890TIP3    H214677   4.405   3.582   4.074
 4891TIP3   OH214678   6.045   3.271   3.140
 4891TIP3    H114679   5.977   3.324   3.182
 4891TIP3    H214680   6.001   3.189   3.118
 4892TIP3   OH214681   5.409   2.519   3.956
 4892TIP3    H114682   5.473   2.572   4.004
 4892TIP3    H214683   5.327   2.567   3.965
 4893TIP3   OH214684   0.871   1.064   2.132
 4893TIP3    H114685   0.892   0.977   2.167
 4893TIP3    H214686   0.953   1.112   2.135
 4894TIP3   OH214687   2.661   5.090   1.815
 4894TIP3    H114688   2.739   5.059   1.861
 4894TIP3    H214689   2.597   5.020   1.828
 4895TIP3   OH214690   5.882   5.893   4.160
 4895TIP3    H114691   5.814   5.955   4.187
 4895TIP3    H214692   5.962   5.926   4.201
 4896TIP3   OH214693   5.622   2.991   0.825
 4896TIP3    H114694   5.619   3.067   0.766
 4896TIP3    H214695   5.635   2.916   0.767
 4897TIP3   OH214696   5.413   4.175   1.769
 4897TIP3    H114697   5.499   4.155   1.733
 4897TIP3    H214698   5.431   4.235   1.841
 4898TIP3   OH214699   0.658   5.722   1.420
 4898TIP3    H114700   0.587   5.724   1.356
 4898TIP3    H214701   0.713   5.797   1.398
 4899TIP3   OH214702   6.124   3.772   1.169
 4899TIP3    H114703   6.192   3.794   1.105
 4899TIP3    H214704   6.058   3.726   1.119
 4900TIP3   OH214705   0.513   4.417   0.942
 4900TIP3    H114706   0.581   4.456   0.887
 4900TIP3    H214707   0.532   4.323   0.941
 4901TIP3   OH214708   1.230   3.709   3.572
 4901TIP3    H114709   1.252   3.792   3.529
 4901TIP3    H214710   1.289   3.704   3.647
 4902TIP3   OH214711   1.788   1.049   0.170
 4902TIP3    H114712   1.797   1.138   0.204
 4902TIP3    H214713   1.815   0.992   0.242
 4903TIP3   OH214714   2.676   4.394   2.566
 4903TIP3    H114715   2.771   4.403   2.562
 4903TIP3    H214716   2.651   4.441   2.646
 4904TIP3   OH214717   4.356   3.072   0.748
 4904TIP3    H114718   4.333   3.104   0.835
 4904TIP3    H214719   4.356   2.977   0.756
 4905TIP3   OH214720   3.147   2.473   4.438
 4905TIP3    H114721   3.106   2.470   4.525
 4905TIP3    H214722   3.218   2.409   4.443
 4906TIP3   OH214723   5.930   0.844   5.124
 4906TIP3    H114724   6.011   0.875   5.084
 4906TIP3    H214725   5.860   0.891   5.078
 4907TIP3   OH214726   5.873   5.519   4.363
 4907TIP3    H114727   5.791   5.566   4.348
 4907TIP3    H214728   5.905   5.500   4.275
 4908TIP3   OH214729   3.040   1.372   3.379
 4908TIP3    H114730   3.002   1.435   3.319
 4908TIP3    H214731   3.127   1.407   3.398
 4909TIP3   OH214732   2.253   4.421   2.374
 4909TIP3    H114733   2.172   4.370   2.379
 4909TIP3    H214734   2.265   4.456   2.462
 4910TIP3   OH214735   1.009   2.396   1.897
 4910TIP3    H114736   0.929   2.366   1.940
 4910TIP3    H214737   0.994   2.489   1.881
 4911TIP3   OH214738   4.103   0.669   1.416
 4911TIP3    H114739   4.049   0.746   1.402
 4911TIP3    H214740   4.044   0.604   1.455
 4912TIP3   OH214741   0.735   3.665   1.473
 4912TIP3    H114742   0.812   3.679   1.529
 4912TIP3    H214743   0.661   3.665   1.533
 4913TIP3   OH214744   0.249   4.798   4.057
 4913TIP3    H114745   0.316   4.801   4.125
 4913TIP3    H214746   0.282   4.855   3.988
 4914TIP3   OH214747   3.561   4.829   2.445
 4914TIP3    H114748   3.653   4.852   2.459
 4914TIP3    H214749   3.522   4.833   2.533
 4915TIP3   OH214750   0.093   2.727   2.430
 4915TIP3    H114751   0.159   2.658   2.422
 4915TIP3    H214752   0.130   2.801   2.382
 4916TIP3   OH214753   3.575   5.776   2.667
 4916TIP3    H114754   3.554   5.689   2.633
 4916TIP3    H214755   3.667   5.769   2.694
 4917TIP3   OH214756   2.296   3.060   5.169
 4917TIP3    H114757   2.334   2.990   5.117
 4917TIP3    H214758   2.210   3.026   5.195
 4918TIP3   OH214759   4.365   3.976   4.670
 4918TIP3    H114760   4.445   3.970   4.617
 4918TIP3    H214761   4.294   3.968   4.607
 4919TIP3   OH214762   6.129   4.736   4.393
 4919TIP3    H114763   6.153   4.770   4.479
 4919TIP3    H214764   6.033   4.734   4.395
 4920TIP3   OH214765   6.074   4.088   1.072
 4920TIP3    H114766   6.026   4.157   1.119
 4920TIP3    H214767   6.013   4.015   1.066
 4921TIP3   OH214768   1.354   1.859   4.596
 4921TIP3    H114769   1.426   1.921   4.594
 4921TIP3    H214770   1.326   1.852   4.504
 4922TIP3   OH214771   5.495   3.688   5.045
 4922TIP3    H114772   5.418   3.741   5.024
 4922TIP3    H214773   5.538   3.734   5.117
 4923TIP3   OH214774   5.873   2.092   1.145
 4923TIP3    H114775   5.841   2.169   1.192
 4923TIP3    H214776   5.825   2.019   1.184
 4924TIP3   OH214777   1.040   1.289   2.060
 4924TIP3    H114778   1.003   1.271   1.974
 4924TIP3    H214779   1.115   1.230   2.066
 4925TIP3   OH214780   6.057   5.939   3.660
 4925TIP3    H114781   6.091   5.871   3.601
 4925TIP3    H214782   5.963   5.923   3.664
 4926TIP3   OH214783   5.508   2.528   4.766
 4926TIP3    H114784   5.510   2.481   4.850
 4926TIP3    H214785   5.442   2.595   4.778
 4927TIP3   OH214786   0.358   2.089   2.989
 4927TIP3    H114787   0.332   2.017   3.046
 4927TIP3    H214788   0.440   2.121   3.028
 4928TIP3   OH214789   4.149   1.597   4.193
 4928TIP3    H114790   4.073   1.579   4.139
 4928TIP3    H214791   4.135   1.546   4.273
 4929TIP3   OH214792   4.845   4.517   3.033
 4929TIP3    H114793   4.864   4.514   2.939
 4929TIP3    H214794   4.851   4.609   3.056
 4930TIP3   OH214795   0.658   1.160   5.002
 4930TIP3    H114796   0.708   1.096   5.053
 4930TIP3    H214797   0.718   1.189   4.934
 4931TIP3   OH214798   2.332   0.145   0.464
 4931TIP3    H114799   2.389   0.212   0.501
 4931TIP3    H214800   2.362   0.135   0.373
 4932TIP3   OH214801   3.021   3.910   3.219
 4932TIP3    H114802   2.975   3.861   3.151
 4932TIP3    H214803   3.105   3.866   3.228
 4933TIP3   OH214804   2.501   5.405   3.961
 4933TIP3    H114805   2.418   5.425   4.005
 4933TIP3    H214806   2.545   5.489   3.952
 4934TIP3   OH214807   4.988   3.273   0.423
 4934TIP3    H114808   4.985   3.361   0.385
 4934TIP3    H214809   4.954   3.283   0.511
 4935TIP3   OH214810   4.220   5.972   0.992
 4935TIP3    H114811   4.147   5.917   0.961
 4935TIP3    H214812   4.203   6.058   0.954
 4936TIP3   OH214813   1.259   2.206   3.760
 4936TIP3    H114814   1.280   2.278   3.701
 4936TIP3    H214815   1.250   2.247   3.846
 4937TIP3   OH214816   5.227   5.972   2.411
 4937TIP3    H114817   5.175   5.892   2.414
 4937TIP3    H214818   5.287   5.964   2.485
 4938TIP3   OH214819   6.227   3.571   0.279
 4938TIP3    H114820   6.252   3.481   0.298
 4938TIP3    H214821   6.310   3.619   0.280
 4939TIP3   OH214822   5.305   0.998   0.723
 4939TIP3    H114823   5.222   1.037   0.750
 4939TIP3    H214824   5.326   0.935   0.792
 4940TIP3   OH214825   5.952   3.629   3.068
 4940TIP3    H114826   6.025   3.620   3.129
 4940TIP3    H214827   5.983   3.591   2.986
 4941TIP3   OH214828   0.307   5.604   5.066
 4941TIP3    H114829   0.393   5.564   5.052
 4941TIP3    H214830   0.320   5.696   5.042
 4942TIP3   OH214831   5.975   0.531   3.883
 4942TIP3    H114832   5.922   0.606   3.853
 4942TIP3    H214833   5.942   0.512   3.971
 4943TIP3   OH214834   1.404   0.457   3.379
 4943TIP3    H114835   1.451   0.480   3.459
 4943TIP3    H214836   1.328   0.514   3.379
 4944TIP3   OH214837   5.843   4.369   4.625
 4944TIP3    H114838   5.849   4.445   4.682
 4944TIP3    H214839   5.919   4.375   4.568
 4945TIP3   OH214840   3.501   2.970   4.654
 4945TIP3    H114841   3.496   2.895   4.713
 4945TIP3    H214842   3.581   3.016   4.680
 4946TIP3   OH214843   5.137   1.018   3.812
 4946TIP3    H114844   5.086   0.972   3.879
 4946TIP3    H214845   5.071   1.051   3.751
 4947TIP3   OH214846   2.227   0.623   3.953
 4947TIP3    H114847   2.274   0.656   3.876
 4947TIP3    H214848   2.198   0.536   3.928
 4948TIP3   OH214849   3.687   4.562   1.236
 4948TIP3    H114850   3.730   4.635   1.192
 4948TIP3    H214851   3.759   4.503   1.260
 4949TIP3   OH214852   4.513   0.251   2.120
 4949TIP3    H114853   4.554   0.336   2.103
 4949TIP3    H214854   4.423   0.273   2.146
 4950TIP3   OH214855   3.782   5.001   4.217
 4950TIP3    H114856   3.754   4.932   4.277
 4950TIP3    H214857   3.724   4.993   4.142
 4951TIP3   OH214858   4.550   5.842   1.526
 4951TIP3    H114859   4.474   5.900   1.527
 4951TIP3    H214860   4.624   5.899   1.549
 4952TIP3   OH214861   0.363   1.988   1.540
 4952TIP3    H114862   0.410   2.070   1.553
 4952TIP3    H214863   0.406   1.948   1.464
 4953TIP3   OH214864   3.077   2.732   4.817
 4953TIP3    H114865   3.081   2.655   4.873
 4953TIP3    H214866   3.157   2.729   4.765
 4954TIP3   OH214867   6.067   2.465   1.536
 4954TIP3    H114868   6.027   2.379   1.551
 4954TIP3    H214869   6.123   2.479   1.612
 4955TIP3   OH214870   4.565   2.658   4.065
 4955TIP3    H114871   4.614   2.715   4.124
 4955TIP3    H214872   4.601   2.677   3.978
 4956TIP3   OH214873   4.623   3.677   2.705
 4956TIP3    H114874   4.535   3.693   2.670
 4956TIP3    H214875   4.631   3.740   2.777
 4957TIP3   OH214876   3.548   5.960   3.781
 4957TIP3    H114877   3.605   5.899   3.734
 4957TIP3    H214878   3.469   5.909   3.798
 4958TIP3   OH214879   3.586   4.174   1.879
 4958TIP3    H114880   3.652   4.211   1.820
 4958TIP3    H214881   3.626   4.178   1.966
 4959TIP3   OH214882   3.355   4.189   5.025
 4959TIP3    H114883   3.346   4.123   5.094
 4959TIP3    H214884   3.445   4.221   5.034
 4960TIP3   OH214885   1.701   3.496   1.328
 4960TIP3    H114886   1.779   3.525   1.375
 4960TIP3    H214887   1.717   3.519   1.237
 4961TIP3   OH214888   5.717   2.607   2.214
 4961TIP3    H114889   5.664   2.542   2.259
 4961TIP3    H214890   5.807   2.575   2.222
 4962TIP3   OH214891   6.179   0.216   0.046
 4962TIP3    H114892   6.214   0.128   0.030
 4962TIP3    H214893   6.254   0.274   0.031
 4963TIP3   OH214894   4.730   2.356   4.468
 4963TIP3    H114895   4.653   2.301   4.484
 4963TIP3    H214896   4.720   2.386   4.377
 4964TIP3   OH214897   1.101   5.012   4.750
 4964TIP3    H114898   1.048   4.933   4.755
 4964TIP3    H214899   1.090   5.053   4.836
 4965TIP3   OH214900   0.068   0.370   3.303
 4965TIP3    H114901   0.075   0.277   3.324
 4965TIP3    H214902  -0.010   0.400   3.348
 4966TIP3   OH214903   5.375   2.119   3.568
 4966TIP3    H114904   5.387   2.196   3.623
 4966TIP3    H214905   5.412   2.047   3.619
 4967TIP3   OH214906   0.368   3.746   0.368
 4967TIP3    H114907   0.374   3.769   0.461
 4967TIP3    H214908   0.385   3.652   0.366
 4968TIP3   OH214909   4.386   3.680   1.968
 4968TIP3    H114910   4.407   3.676   1.875
 4968TIP3    H214911   4.462   3.640   2.011
 4969TIP3   OH214912   1.803   3.329   1.523
 4969TIP3    H114913   1.887   3.367   1.497
 4969TIP3    H214914   1.738   3.381   1.476
 4970TIP3   OH214915   2.938   5.405   2.454
 4970TIP3    H114916   2.969   5.423   2.365
 4970TIP3    H214917   3.014   5.422   2.510
 4971TIP3   OH214918   0.465   1.016   4.435
 4971TIP3    H114919   0.430   0.990   4.350
 4971TIP3    H214920   0.543   0.962   4.446
 4972TIP3   OH214921   1.483   5.806   3.107
 4972TIP3    H114922   1.478   5.710   3.105
 4972TIP3    H214923   1.567   5.826   3.065
 4973TIP3   OH214924   0.622   1.260   3.545
 4973TIP3    H114925   0.662   1.242   3.460
 4973TIP3    H214926   0.528   1.265   3.526
 4974TIP3   OH214927   2.456   2.268   4.052
 4974TIP3    H114928   2.461   2.235   4.142
 4974TIP3    H214929   2.434   2.361   4.062
 4975TIP3   OH214930   0.750   5.784   3.696
 4975TIP3    H114931   0.657   5.764   3.690
 4975TIP3    H214932   0.755   5.862   3.752
 4976TIP3   OH214933   2.073   1.639   1.335
 4976TIP3    H114934   2.013   1.706   1.301
 4976TIP3    H214935   2.119   1.683   1.407
 4977TIP3   OH214936   0.524   3.942   3.908
 4977TIP3    H114937   0.492   3.914   3.822
 4977TIP3    H214938   0.608   3.898   3.918
 4978TIP3   OH214939   6.104   3.874   0.168
 4978TIP3    H114940   6.179   3.824   0.137
 4978TIP3    H214941   6.142   3.945   0.219
 4979TIP3   OH214942   1.162   1.613   0.396
 4979TIP3    H114943   1.073   1.640   0.418
 4979TIP3    H214944   1.199   1.687   0.348
 4980TIP3   OH214945   2.155   4.393   4.831
 4980TIP3    H114946   2.146   4.299   4.847
 4980TIP3    H214947   2.152   4.402   4.736
 4981TIP3   OH214948   4.785   4.336   4.144
 4981TIP3    H114949   4.785   4.428   4.172
 4981TIP3    H214950   4.725   4.335   4.069
 4982TIP3   OH214951   5.681   4.994   3.952
 4982TIP3    H114952   5.726   4.909   3.945
 4982TIP3    H214953   5.728   5.051   3.891
 4983TIP3   OH214954   1.961   1.599   5.041
 4983TIP3    H114955   1.905   1.671   5.011
 4983TIP3    H214956   1.907   1.552   5.105
 4984TIP3   OH214957   3.546   1.874   4.346
 4984TIP3    H114958   3.640   1.883   4.360
 4984TIP3    H214959   3.507   1.896   4.430
 4985TIP3   OH214960   6.127   2.284   2.574
 4985TIP3    H114961   6.124   2.269   2.669
 4985TIP3    H214962   6.047   2.331   2.554
 4986TIP3   OH214963   1.484   3.895   0.216
 4986TIP3    H114964   1.537   3.915   0.139
 4986TIP3    H214965   1.406   3.949   0.206
 4987TIP3   OH214966   5.951   0.773   4.349
 4987TIP3    H114967   6.040   0.780   4.384
 4987TIP3    H214968   5.934   0.679   4.346
 4988TIP3   OH214969   5.769   1.975   3.664
 4988TIP3    H114970   5.685   2.017   3.684
 4988TIP3    H214971   5.834   2.029   3.709
 4989TIP3   OH214972   0.942   5.608   5.148
 4989TIP3    H114973   0.860   5.585   5.191
 4989TIP3    H214974   0.966   5.693   5.185
 4990TIP3   OH214975   6.278   1.487   4.368
 4990TIP3    H114976   6.322   1.456   4.447
 4990TIP3    H214977   6.264   1.407   4.316
 4991TIP3   OH214978   1.685   4.738   4.140
 4991TIP3    H114979   1.727   4.816   4.177
 4991TIP3    H214980   1.735   4.664   4.176
 4992TIP3   OH214981   1.988   2.899   3.212
 4992TIP3    H114982   2.045   2.926   3.140
 4992TIP3    H214983   1.986   2.804   3.207
 4993TIP3   OH214984   5.351   0.917   0.101
 4993TIP3    H114985   5.282   0.865   0.060
 4993TIP3    H214986   5.310   1.002   0.117
 4994TIP3   OH214987   1.497   3.377   3.833
 4994TIP3    H114988   1.517   3.349   3.743
 4994TIP3    H214989   1.434   3.312   3.865
 4995TIP3   OH214990   1.998   2.818   1.930
 4995TIP3    H114991   2.009   2.723   1.936
 4995TIP3    H214992   2.062   2.853   1.993
 4996TIP3   OH214993   6.010   4.230   3.302
 4996TIP3    H114994   6.081   4.280   3.343
 4996TIP3    H214995   6.042   4.140   3.302
 4997TIP3   OH214996   1.386   2.154   2.046
 4997TIP3    H114997   1.460   2.103   2.013
 4997TIP3    H214998   1.340   2.094   2.105
 4998TIP3   OH214999   0.742   0.314   1.022
 4998TIP3    H115000   0.781   0.385   0.971
 4998TIP3    H215001   0.784   0.234   0.989
 4999TIP3   OH215002   4.805   5.572   1.424
 4999TIP3    H115003   4.853   5.495   1.393
 4999TIP3    H215004   4.873   5.634   1.448
 5000TIP3   OH215005   3.641   0.600   0.631
 5000TIP3    H115006   3.685   0.591   0.715
 5000TIP3    H215007   3.699   0.655   0.579
 5001TIP3   OH215008   0.844   0.530   1.760
 5001TIP3    H115009   0.777   0.530   1.691
 5001TIP3    H215010   0.918   0.577   1.722
 5002TIP3   OH215011   3.460   1.859   2.652
 5002TIP3    H115012   3.388   1.890   2.597
 5002TIP3    H215013   3.422   1.788   2.704
 5003TIP3   OH215014   4.525   0.744   0.461
 5003TIP3    H115015   4.480   0.810   0.514
 5003TIP3    H215016   4.605   0.788   0.431
 5004TIP3   OH215017   5.203   0.750   4.280
 5004TIP3    H115018   5.286   0.799   4.273
 5004TIP3    H215019   5.229   0.664   4.311
 5005TIP3   OH215020   0.613   0.857   2.606
 5005TIP3    H115021   0.589   0.809   2.685
 5005TIP3    H215022   0.680   0.918   2.636
 5006TIP3   OH215023   1.668   2.449   0.640
 5006TIP3    H115024   1.739   2.385   0.652
 5006TIP3    H215025   1.589   2.401   0.664
 5007TIP3   OH215026   2.975   3.663   2.285
 5007TIP3    H115027   2.945   3.717   2.358
 5007TIP3    H215028   3.016   3.725   2.225
 5008TIP3   OH215029   3.804   2.958   4.978
 5008TIP3    H115030   3.809   2.992   5.067
 5008TIP3    H215031   3.778   3.033   4.925
 5009TIP3   OH215032   5.727   0.749   2.468
 5009TIP3    H115033   5.766   0.673   2.513
 5009TIP3    H215034   5.723   0.723   2.376
 5010TIP3   OH215035   6.113   1.703   4.345
 5010TIP3    H115036   6.140   1.612   4.353
 5010TIP3    H215037   6.166   1.750   4.409
 5011TIP3   OH215038   1.282   2.802   4.415
 5011TIP3    H115039   1.283   2.726   4.357
 5011TIP3    H215040   1.213   2.858   4.379
 5012TIP3   OH215041   2.164   4.728   0.524
 5012TIP3    H115042   2.190   4.744   0.615
 5012TIP3    H215043   2.070   4.746   0.523
 5013TIP3   OH215044   1.304   0.954   3.201
 5013TIP3    H115045   1.362   0.902   3.257
 5013TIP3    H215046   1.236   0.893   3.173
 5014TIP3   OH215047   1.161   2.348   4.818
 5014TIP3    H115048   1.129   2.412   4.882
 5014TIP3    H215049   1.122   2.265   4.845
 5015TIP3   OH215050   4.099   4.630   5.037
 5015TIP3    H115051   4.048   4.687   4.979
 5015TIP3    H215052   4.138   4.689   5.101
 5016TIP3   OH215053   3.307   4.917   1.533
 5016TIP3    H115054   3.399   4.894   1.544
 5016TIP3    H215055   3.272   4.850   1.474
 5017TIP3   OH215056   4.006   2.938   3.705
 5017TIP3    H115057   4.016   2.848   3.675
 5017TIP3    H215058   4.086   2.956   3.755
 5018TIP3   OH215059   2.271   0.731   1.354
 5018TIP3    H115060   2.355   0.699   1.386
 5018TIP3    H215061   2.218   0.652   1.343
 5019TIP3   OH215062   1.025   0.691   2.095
 5019TIP3    H115063   0.996   0.754   2.161
 5019TIP3    H215064   0.971   0.614   2.110
 5020TIP3   OH215065   1.069   3.246   3.748
 5020TIP3    H115066   0.991   3.276   3.794
 5020TIP3    H215067   1.109   3.325   3.712
 5021TIP3   OH215068   0.846   4.599   0.253
 5021TIP3    H115069   0.938   4.603   0.280
 5021TIP3    H215070   0.837   4.513   0.211
 5022TIP3   OH215071   0.428   0.061   1.895
 5022TIP3    H115072   0.441   0.100   1.808
 5022TIP3    H215073   0.350   0.007   1.886
 5023TIP3   OH215074   3.285   4.784   4.633
 5023TIP3    H115075   3.193   4.798   4.608
 5023TIP3    H215076   3.323   4.872   4.630
 5024TIP3   OH215077   3.966   4.752   1.921
 5024TIP3    H115078   3.995   4.740   2.012
 5024TIP3    H215079   3.887   4.806   1.928
 5025TIP3   OH215080   6.227   4.686   4.762
 5025TIP3    H115081   6.285   4.683   4.838
 5025TIP3    H215082   6.260   4.617   4.704
 5026TIP3   OH215083   0.867   1.345   1.187
 5026TIP3    H115084   0.954   1.345   1.149
 5026TIP3    H215085   0.854   1.256   1.219
 5027TIP3   OH215086   3.053   2.210   5.172
 5027TIP3    H115087   3.010   2.180   5.092
 5027TIP3    H215088   3.132   2.157   5.178
 5028TIP3   OH215089   4.883   5.923   3.192
 5028TIP3    H115090   4.942   5.969   3.252
 5028TIP3    H215091   4.851   5.848   3.242
 5029TIP3   OH215092   0.304   1.659   2.212
 5029TIP3    H115093   0.393   1.684   2.236
 5029TIP3    H215094   0.296   1.568   2.241
 5030TIP3   OH215095   1.101   3.635   1.139
 5030TIP3    H115096   1.066   3.557   1.181
 5030TIP3    H215097   1.115   3.697   1.211
 5031TIP3   OH215098   5.945   1.130   0.559
 5031TIP3    H115099   5.922   1.213   0.601
 5031TIP3    H215100   5.861   1.084   0.550
 5032TIP3   OH215101   5.197   2.706   3.941
 5032TIP3    H115102   5.138   2.686   3.869
 5032TIP3    H215103   5.169   2.792   3.973
 5033TIP3   OH215104   3.923   0.393   4.832
 5033TIP3    H115105   3.977   0.459   4.875
 5033TIP3    H215106   3.877   0.440   4.763
 5034TIP3   OH215107   0.669   1.911   1.939
 5034TIP3    H115108   0.719   1.939   2.016
 5034TIP3    H215109   0.675   1.815   1.941
 5035TIP3   OH215110   0.260   5.349   1.235
 5035TIP3    H115111   0.254   5.405   1.312
 5035TIP3    H215112   0.315   5.275   1.264
 5036TIP3   OH215113   4.566   3.419   4.458
 5036TIP3    H115114   4.519   3.487   4.411
 5036TIP3    H215115   4.646   3.462   4.489
 5037TIP3   OH215116   3.737   1.446   2.129
 5037TIP3    H115117   3.735   1.541   2.121
 5037TIP3    H215118   3.804   1.417   2.068
 5038TIP3   OH215119   5.011   2.961   0.443
 5038TIP3    H115120   5.091   2.943   0.493
 5038TIP3    H215121   5.012   3.056   0.430
 5039TIP3   OH215122   6.057   2.792   3.914
 5039TIP3    H115123   6.090   2.880   3.930
 5039TIP3    H215124   6.110   2.736   3.971
 5040TIP3   OH215125   1.391   3.696   4.166
 5040TIP3    H115126   1.344   3.622   4.126
 5040TIP3    H215127   1.328   3.733   4.227
 5041TIP3   OH215128   1.696   1.582   0.847
 5041TIP3    H115129   1.782   1.600   0.808
 5041TIP3    H215130   1.643   1.658   0.824
 5042TIP3   OH215131   4.985   4.918   5.103
 5042TIP3    H115132   4.913   4.907   5.042
 5042TIP3    H215133   5.000   4.830   5.138
 5043TIP3   OH215134   5.704   0.290   2.020
 5043TIP3    H115135   5.611   0.306   2.030
 5043TIP3    H215136   5.714   0.257   1.931
 5044TIP3   OH215137   4.666   0.850   3.992
 5044TIP3    H115138   4.688   0.942   3.977
 5044TIP3    H215139   4.698   0.832   4.081
 5045TIP3   OH215140   2.033   5.455   2.345
 5045TIP3    H115141   2.042   5.387   2.412
 5045TIP3    H215142   1.940   5.478   2.348
 5046TIP3   OH215143   4.770   1.087   4.017
 5046TIP3    H115144   4.744   1.160   4.073
 5046TIP3    H215145   4.865   1.084   4.023
 5047TIP3   OH215146   1.214   1.450   1.614
 5047TIP3    H115147   1.255   1.476   1.696
 5047TIP3    H215148   1.132   1.408   1.640
 5048TIP3   OH215149   0.775   5.486   1.535
 5048TIP3    H115150   0.730   5.551   1.480
 5048TIP3    H215151   0.861   5.475   1.494
 5049TIP3   OH215152   2.926   4.170   3.682
 5049TIP3    H115153   2.931   4.109   3.608
 5049TIP3    H215154   2.942   4.115   3.759
 5050TIP3   OH215155   0.891   1.161   0.947
 5050TIP3    H115156   0.911   1.197   0.860
 5050TIP3    H215157   0.795   1.161   0.951
 5051TIP3   OH215158   0.685   4.866   5.000
 5051TIP3    H115159   0.627   4.930   5.042
 5051TIP3    H215160   0.658   4.868   4.908
 5052TIP3   OH215161   0.343   0.600   2.346
 5052TIP3    H115162   0.374   0.510   2.343
 5052TIP3    H215163   0.421   0.652   2.365
 5053TIP3   OH215164   5.942   2.467   3.114
 5053TIP3    H115165   6.002   2.419   3.057
 5053TIP3    H215166   5.857   2.426   3.099
 5054TIP3   OH215167   4.549   1.015   4.379
 5054TIP3    H115168   4.468   1.058   4.405
 5054TIP3    H215169   4.591   1.076   4.319
 5055TIP3   OH215170   0.351   1.550   0.980
 5055TIP3    H115171   0.299   1.510   1.050
 5055TIP3    H215172   0.302   1.629   0.957
 5056TIP3   OH215173   3.046   2.525   0.435
 5056TIP3    H115174   3.001   2.607   0.452
 5056TIP3    H215175   2.976   2.462   0.417
 5057TIP3   OH215176   5.391   3.675   1.335
 5057TIP3    H115177   5.484   3.659   1.320
 5057TIP3    H215178   5.388   3.742   1.403
 5058TIP3   OH215179   0.815   5.245   4.278
 5058TIP3    H115180   0.903   5.213   4.256
 5058TIP3    H215181   0.791   5.302   4.205
 5059TIP3   OH215182   3.014   4.253   0.019
 5059TIP3    H115183   2.996   4.305   0.098
 5059TIP3    H215184   3.036   4.318  -0.047
 5060TIP3   OH215185   2.973   4.347   0.319
 5060TIP3    H115186   2.967   4.397   0.400
 5060TIP3    H215187   2.954   4.257   0.345
 5061TIP3   OH215188   4.978   2.664   3.451
 5061TIP3    H115189   4.926   2.744   3.442
 5061TIP3    H215190   4.996   2.658   3.545
 5062TIP3   OH215191   4.172   2.322   1.954
 5062TIP3    H115192   4.176   2.362   1.867
 5062TIP3    H215193   4.217   2.238   1.945
 5063TIP3   OH215194   3.763   4.684   0.193
 5063TIP3    H115195   3.714   4.604   0.209
 5063TIP3    H215196   3.701   4.742   0.150
 5064TIP3   OH215197   5.966   1.987   1.510
 5064TIP3    H115198   5.881   1.949   1.486
 5064TIP3    H215199   6.018   1.912   1.539
 5065TIP3   OH215200   1.112   5.218   0.314
 5065TIP3    H115201   1.189   5.228   0.371
 5065TIP3    H215202   1.050   5.284   0.345
 5066TIP3   OH215203   2.017   1.479   3.049
 5066TIP3    H115204   2.024   1.439   3.136
 5066TIP3    H215205   1.948   1.429   3.006
 5067TIP3   OH215206   5.861   0.507   2.760
 5067TIP3    H115207   5.896   0.460   2.684
 5067TIP3    H215208   5.922   0.486   2.831
 5068TIP3   OH215209   1.174   1.529   1.912
 5068TIP3    H115210   1.206   1.440   1.930
 5068TIP3    H215211   1.231   1.561   1.843
 5069TIP3   OH215212   3.566   2.950   1.268
 5069TIP3    H115213   3.496   3.014   1.281
 5069TIP3    H215214   3.527   2.884   1.212
 5070TIP3   OH215215   2.107   5.101   2.258
 5070TIP3    H115216   2.025   5.148   2.240
 5070TIP3    H215217   2.089   5.011   2.231
 5071TIP3   OH215218   3.081   2.403   3.328
 5071TIP3    H115219   3.072   2.404   3.423
 5071TIP3    H215220   3.069   2.495   3.302
 5072TIP3   OH215221   4.389   4.618   4.604
 5072TIP3    H115222   4.423   4.532   4.628
 5072TIP3    H215223   4.375   4.663   4.688
 5073TIP3   OH215224   5.024   0.680   5.043
 5073TIP3    H115225   4.968   0.706   5.116
 5073TIP3    H215226   5.034   0.760   4.991
 5074TIP3   OH215227   0.733   4.344   2.048
 5074TIP3    H115228   0.792   4.390   2.108
 5074TIP3    H215229   0.649   4.340   2.095
 5075TIP3   OH215230   4.469   3.358   2.378
 5075TIP3    H115231   4.394   3.351   2.319
 5075TIP3    H215232   4.442   3.423   2.443
 5076TIP3   OH215233   1.578   2.686   0.499
 5076TIP3    H115234   1.583   2.605   0.549
 5076TIP3    H215235   1.655   2.685   0.444
 5077TIP3   OH215236   2.281   5.886   1.526
 5077TIP3    H115237   2.328   5.969   1.525
 5077TIP3    H215238   2.345   5.822   1.495
 5078TIP3   OH215239   5.551   2.654   3.359
 5078TIP3    H115240   5.460   2.665   3.385
 5078TIP3    H215241   5.547   2.623   3.269
 5079TIP3   OH215242   2.617   1.219   4.579
 5079TIP3    H115243   2.703   1.245   4.547
 5079TIP3    H215244   2.574   1.301   4.603
 5080TIP3   OH215245   1.963   4.079   4.608
 5080TIP3    H115246   2.011   4.113   4.533
 5080TIP3    H215247   2.023   4.087   4.682
 5081TIP3   OH215248   5.895   5.165   4.319
 5081TIP3    H115249   5.972   5.222   4.321
 5081TIP3    H215250   5.895   5.127   4.231
 5082TIP3   OH215251   2.862   1.749   0.762
 5082TIP3    H115252   2.921   1.716   0.830
 5082TIP3    H215253   2.906   1.828   0.729
 5083TIP3   OH215254   4.707   5.545   2.539
 5083TIP3    H115255   4.722   5.468   2.484
 5083TIP3    H215256   4.790   5.560   2.583
 5084TIP3   OH215257   6.126   4.677   0.642
 5084TIP3    H115258   6.041   4.634   0.654
 5084TIP3    H215259   6.158   4.691   0.731
 5085TIP3   OH215260   0.479   0.697   2.939
 5085TIP3    H115261   0.454   0.627   2.998
 5085TIP3    H215262   0.520   0.762   2.995
 5086TIP3   OH215263   4.390   3.379   1.961
 5086TIP3    H115264   4.445   3.322   2.015
 5086TIP3    H215265   4.453   3.432   1.911
 5087TIP3   OH215266   2.353   1.335   2.658
 5087TIP3    H115267   2.300   1.375   2.590
 5087TIP3    H215268   2.310   1.252   2.678
 5088TIP3   OH215269   0.178   4.572   1.220
 5088TIP3    H115270   0.182   4.481   1.191
 5088TIP3    H215271   0.266   4.591   1.252
 5089TIP3   OH215272   4.117   2.425   4.671
 5089TIP3    H115273   4.022   2.416   4.662
 5089TIP3    H215274   4.128   2.490   4.741
 5090TIP3   OH215275   4.339   1.338   1.494
 5090TIP3    H115276   4.431   1.320   1.475
 5090TIP3    H215277   4.332   1.433   1.490
 5091TIP3   OH215278   4.732   4.148   1.231
 5091TIP3    H115279   4.784   4.219   1.267
 5091TIP3    H215280   4.643   4.184   1.225
 5092TIP3   OH215281   6.155   2.659   1.946
 5092TIP3    H115282   6.153   2.613   2.030
 5092TIP3    H215283   6.148   2.752   1.969
 5093TIP3   OH215284   4.485   2.240   4.092
 5093TIP3    H115285   4.413   2.242   4.156
 5093TIP3    H215286   4.442   2.246   4.007
 5094TIP3   OH215287   2.415   0.034   3.339
 5094TIP3    H115288   2.484   0.100   3.348
 5094TIP3    H215289   2.429  -0.004   3.253
 5095TIP3   OH215290   1.004   5.779   0.100
 5095TIP3    H115291   1.008   5.793   0.006
 5095TIP3    H215292   0.911   5.772   0.120
 5096TIP3   OH215293   1.402   1.929   0.637
 5096TIP3    H115294   1.433   1.940   0.548
 5096TIP3    H215295   1.417   2.014   0.679
 5097TIP3   OH215296   1.177   5.091   2.414
 5097TIP3    H115297   1.254   5.044   2.381
 5097TIP3    H215298   1.137   5.130   2.337
 5098TIP3   OH215299   3.755   5.254   4.501
 5098TIP3    H115300   3.725   5.262   4.410
 5098TIP3    H215301   3.784   5.163   4.509
 5099TIP3   OH215302   3.917   3.244   3.706
 5099TIP3    H115303   3.959   3.255   3.621
 5099TIP3    H215304   3.932   3.152   3.728
 5100TIP3   OH215305   6.144   4.323   0.793
 5100TIP3    H115306   6.212   4.266   0.830
 5100TIP3    H215307   6.121   4.382   0.864
 5101TIP3   OH215308   2.704   3.454   3.133
 5101TIP3    H115309   2.687   3.405   3.213
 5101TIP3    H215310   2.698   3.546   3.159
 5102TIP3   OH215311   1.684   4.175   4.568
 5102TIP3    H115312   1.681   4.256   4.517
 5102TIP3    H215313   1.778   4.161   4.584
 5103TIP3   OH215314   3.369   4.650   3.757
 5103TIP3    H115315   3.426   4.711   3.803
 5103TIP3    H215316   3.424   4.615   3.686
 5104TIP3   OH215317   5.483   3.138   2.231
 5104TIP3    H115318   5.421   3.121   2.302
 5104TIP3    H215319   5.542   3.063   2.232
 5105TIP3   OH215320   0.304   4.934   4.731
 5105TIP3    H115321   0.313   4.845   4.696
 5105TIP3    H215322   0.232   4.972   4.680
 5106TIP3   OH215323   4.543   1.897   0.557
 5106TIP3    H115324   4.487   1.895   0.480
 5106TIP3    H215325   4.529   1.812   0.599
 5107TIP3   OH215326   2.319   1.922   1.163
 5107TIP3    H115327   2.340   2.008   1.199
 5107TIP3    H215328   2.226   1.927   1.142
 5108TIP3   OH215329   1.272   0.063   0.840
 5108TIP3    H115330   1.263   0.027   0.928
 5108TIP3    H215331   1.326   0.000   0.794
 5109TIP3   OH215332   3.059   3.203   5.066
 5109TIP3    H115333   2.989   3.139   5.078
 5109TIP3    H215334   3.014   3.287   5.057
 5110TIP3   OH215335   3.294   2.315   3.538
 5110TIP3    H115336   3.275   2.299   3.631
 5110TIP3    H215337   3.338   2.235   3.509
 5111TIP3   OH215338   5.742   2.715   1.228
 5111TIP3    H115339   5.660   2.719   1.276
 5111TIP3    H215340   5.808   2.698   1.295
 5112TIP3   OH215341   5.045   5.468   4.797
 5112TIP3    H115342   5.064   5.561   4.793
 5112TIP3    H215343   5.112   5.432   4.857
 5113TIP3   OH215344   1.331   2.725   0.057
 5113TIP3    H115345   1.375   2.810   0.062
 5113TIP3    H215346   1.247   2.739   0.100
 5114TIP3   OH215347   0.078   5.003   2.096
 5114TIP3    H115348   0.076   5.090   2.057
 5114TIP3    H215349   0.103   4.945   2.024
 5115TIP3   OH215350   6.153   3.335   3.435
 5115TIP3    H115351   6.181   3.423   3.410
 5115TIP3    H215352   6.082   3.349   3.497
 5116TIP3   OH215353   2.722   3.042   3.453
 5116TIP3    H115354   2.739   3.107   3.521
 5116TIP3    H215355   2.627   3.033   3.451
 5117TIP3   OH215356   4.464   1.667   4.239
 5117TIP3    H115357   4.536   1.676   4.177
 5117TIP3    H215358   4.420   1.752   4.239
 5118TIP3   OH215359   1.764   0.792   4.908
 5118TIP3    H115360   1.837   0.829   4.859
 5118TIP3    H215361   1.711   0.748   4.842
 5119TIP3   OH215362   3.843   4.761   1.122
 5119TIP3    H115363   3.805   4.823   1.059
 5119TIP3    H215364   3.929   4.741   1.086
 5120TIP3   OH215365   5.298   5.698   3.819
 5120TIP3    H115366   5.335   5.700   3.730
 5120TIP3    H215367   5.313   5.608   3.849
 5121TIP3   OH215368   3.056   1.614   4.450
 5121TIP3    H115369   3.141   1.657   4.443
 5121TIP3    H215370   3.076   1.524   4.477
 5122TIP3   OH215371   1.013   1.507   2.714
 5122TIP3    H115372   1.059   1.545   2.789
 5122TIP3    H215373   0.932   1.557   2.708
 5123TIP3   OH215374   5.536   4.629   5.132
 5123TIP3    H115375   5.544   4.616   5.038
 5123TIP3    H215376   5.528   4.724   5.143
 5124TIP3   OH215377   2.411   2.548   4.257
 5124TIP3    H115378   2.367   2.547   4.172
 5124TIP3    H215379   2.432   2.641   4.272
 5125TIP3   OH215380   2.720   0.825   0.594
 5125TIP3    H115381   2.656   0.890   0.566
 5125TIP3    H215382   2.792   0.876   0.630
 5126TIP3   OH215383   4.096   0.171   4.269
 5126TIP3    H115384   4.035   0.097   4.275
 5126TIP3    H215385   4.179   0.131   4.245
 5127TIP3   OH215386   5.508   5.607   3.027
 5127TIP3    H115387   5.590   5.581   2.985
 5127TIP3    H215388   5.443   5.605   2.957
 5128TIP3   OH215389   4.172   3.793   2.895
 5128TIP3    H115390   4.219   3.746   2.964
 5128TIP3    H215391   4.137   3.871   2.938
 5129TIP3   OH215392   4.254   0.410   1.906
 5129TIP3    H115393   4.225   0.386   1.995
 5129TIP3    H215394   4.298   0.332   1.873
 5130TIP3   OH215395   3.119   1.374   4.578
 5130TIP3    H115396   3.062   1.352   4.652
 5130TIP3    H215397   3.192   1.422   4.618
 5131TIP3   OH215398   0.375   1.398   2.313
 5131TIP3    H115399   0.377   1.314   2.359
 5131TIP3    H215400   0.400   1.376   2.223
 5132TIP3   OH215401   2.061   3.761   3.173
 5132TIP3    H115402   2.049   3.666   3.168
 5132TIP3    H215403   1.979   3.793   3.209
 5133TIP3   OH215404   2.307   5.630   3.108
 5133TIP3    H115405   2.298   5.709   3.161
 5133TIP3    H215406   2.401   5.611   3.109
 5134TIP3   OH215407   5.550   4.727   1.697
 5134TIP3    H115408   5.520   4.639   1.718
 5134TIP3    H215409   5.646   4.722   1.704
 5135TIP3   OH215410   2.059   1.241   4.215
 5135TIP3    H115411   2.019   1.227   4.300
 5135TIP3    H215412   2.003   1.306   4.172
 5136TIP3   OH215413   2.665   0.440   2.490
 5136TIP3    H115414   2.759   0.426   2.489
 5136TIP3    H215415   2.627   0.355   2.466
 5137TIP3   OH215416   1.661   3.386   1.748
 5137TIP3    H115417   1.718   3.356   1.677
 5137TIP3    H215418   1.575   3.349   1.727
 5138TIP3   OH215419   4.324   0.148   4.676
 5138TIP3    H115420   4.283   0.211   4.616
 5138TIP3    H215421   4.251   0.105   4.720
 5139TIP3   OH215422   3.745   0.817   2.912
 5139TIP3    H115423   3.737   0.832   3.006
 5139TIP3    H215424   3.724   0.724   2.901
 5140TIP3   OH215425   5.224   1.099   1.217
 5140TIP3    H115426   5.240   1.023   1.273
 5140TIP3    H215427   5.274   1.081   1.137
 5141TIP3   OH215428   4.552   3.247   2.111
 5141TIP3    H115429   4.544   3.309   2.183
 5141TIP3    H215430   4.620   3.185   2.140
 5142TIP3   OH215431   3.238   5.967   3.132
 5142TIP3    H115432   3.225   5.904   3.203
 5142TIP3    H215433   3.200   5.925   3.055
 5143TIP3   OH215434   0.883   2.023   3.550
 5143TIP3    H115435   0.966   2.068   3.535
 5143TIP3    H215436   0.847   2.064   3.629
 5144TIP3   OH215437   5.941   0.113   2.679
 5144TIP3    H115438   6.008   0.174   2.711
 5144TIP3    H215439   5.951   0.113   2.584
 5145TIP3   OH215440   4.952   2.738   0.580
 5145TIP3    H115441   4.980   2.796   0.509
 5145TIP3    H215442   4.968   2.787   0.660
 5146TIP3   OH215443   1.068   5.171   3.918
 5146TIP3    H115444   1.130   5.243   3.912
 5146TIP3    H215445   0.985   5.207   3.887
 5147TIP3   OH215446   0.023   1.698   1.977
 5147TIP3    H115447   0.118   1.712   1.973
 5147TIP3    H215448  -0.001   1.718   2.067
 5148TIP3   OH215449   5.643   4.091   4.332
 5148TIP3    H115450   5.593   4.107   4.252
 5148TIP3    H215451   5.636   4.173   4.381
 5149TIP3   OH215452   6.143   4.439   5.178
 5149TIP3    H115453   6.143   4.345   5.159
 5149TIP3    H215454   6.227   4.471   5.145
 5150TIP3   OH215455   4.891   0.871   1.991
 5150TIP3    H115456   4.916   0.961   2.008
 5150TIP3    H215457   4.939   0.820   2.057
 5151TIP3   OH215458   4.038   4.273   2.860
 5151TIP3    H115459   4.058   4.318   2.942
 5151TIP3    H215460   4.039   4.342   2.794
 5152TIP3   OH215461   2.701   5.450   4.875
 5152TIP3    H115462   2.753   5.465   4.954
 5152TIP3    H215463   2.649   5.529   4.865
 5153TIP3   OH215464   3.363   0.717   0.656
 5153TIP3    H115465   3.354   0.712   0.751
 5153TIP3    H215466   3.434   0.657   0.634
 5154TIP3   OH215467   1.861   5.264   0.658
 5154TIP3    H115468   1.862   5.191   0.596
 5154TIP3    H215469   1.771   5.295   0.657
 5155TIP3   OH215470   3.463   0.944   0.402
 5155TIP3    H115471   3.438   1.034   0.382
 5155TIP3    H215472   3.384   0.904   0.438
 5156TIP3   OH215473   3.570   2.772   3.448
 5156TIP3    H115474   3.585   2.864   3.428
 5156TIP3    H215475   3.653   2.729   3.430
 5157TIP3   OH215476   4.411   4.730   4.346
 5157TIP3    H115477   4.391   4.819   4.318
 5157TIP3    H215478   4.402   4.732   4.441
 5158TIP3   OH215479   2.952   3.106   0.648
 5158TIP3    H115480   2.871   3.115   0.698
 5158TIP3    H215481   3.013   3.167   0.690
 5159TIP3   OH215482   2.444   2.309   1.042
 5159TIP3    H115483   2.517   2.317   0.980
 5159TIP3    H215484   2.479   2.344   1.125
 5160TIP3   OH215485   3.191   2.494   2.792
 5160TIP3    H115486   3.158   2.448   2.870
 5160TIP3    H215487   3.284   2.509   2.811
 5161TIP3   OH215488   2.350   0.496   1.164
 5161TIP3    H115489   2.329   0.574   1.113
 5161TIP3    H215490   2.291   0.429   1.130
 5162TIP3   OH215491   4.482   4.907   4.059
 5162TIP3    H115492   4.530   4.842   4.008
 5162TIP3    H215493   4.390   4.883   4.049
 5163TIP3   OH215494   1.122   5.981   4.139
 5163TIP3    H115495   1.127   5.892   4.103
 5163TIP3    H215496   1.118   5.968   4.234
 5164TIP3   OH215497   5.176   5.758   4.333
 5164TIP3    H115498   5.204   5.669   4.311
 5164TIP3    H215499   5.170   5.802   4.248
 5165TIP3   OH215500   1.453   2.007   1.432
 5165TIP3    H115501   1.515   2.055   1.378
 5165TIP3    H215502   1.383   2.070   1.450
 5166TIP3   OH215503   0.319   1.395   1.253
 5166TIP3    H115504   0.247   1.332   1.249
 5166TIP3    H215505   0.398   1.342   1.240
 5167TIP3   OH215506   2.090   4.494   2.608
 5167TIP3    H115507   2.026   4.434   2.569
 5167TIP3    H215508   2.071   4.578   2.566
 5168TIP3   OH215509   0.841   0.791   0.681
 5168TIP3    H115510   0.871   0.866   0.733
 5168TIP3    H215511   0.918   0.762   0.632
 5169TIP3   OH215512   2.469   0.686   2.700
 5169TIP3    H115513   2.491   0.616   2.639
 5169TIP3    H215514   2.382   0.663   2.732
 5170TIP3   OH215515   1.815   0.103   1.293
 5170TIP3    H115516   1.791   0.109   1.385
 5170TIP3    H215517   1.874   0.178   1.279
 5171TIP3   OH215518   4.525   0.310   4.070
 5171TIP3    H115519   4.482   0.360   4.139
 5171TIP3    H215520   4.601   0.363   4.045
 5172TIP3   OH215521   2.370   1.385   3.127
 5172TIP3    H115522   2.300   1.417   3.183
 5172TIP3    H215523   2.426   1.333   3.186
 5173TIP3   OH215524   3.290   4.036   3.554
 5173TIP3    H115525   3.343   4.088   3.613
 5173TIP3    H215526   3.335   4.042   3.469
 5174TIP3   OH215527   4.573   5.172   2.049
 5174TIP3    H115528   4.504   5.235   2.067
 5174TIP3    H215529   4.652   5.225   2.035
 5175TIP3   OH215530   2.225   1.716   2.409
 5175TIP3    H115531   2.300   1.762   2.446
 5175TIP3    H215532   2.149   1.760   2.448
 5176TIP3   OH215533   5.407   0.060   3.653
 5176TIP3    H115534   5.452   0.089   3.573
 5176TIP3    H215535   5.442  -0.027   3.670
 5177TIP3   OH215536   4.146   0.163   2.081
 5177TIP3    H115537   4.213   0.222   2.116
 5177TIP3    H215538   4.110   0.119   2.158
 5178TIP3   OH215539   2.575   5.512   0.832
 5178TIP3    H115540   2.528   5.428   0.827
 5178TIP3    H215541   2.506   5.578   0.840
 5179TIP3   OH215542   3.923   1.242   0.666
 5179TIP3    H115543   3.871   1.238   0.585
 5179TIP3    H215544   3.859   1.230   0.736
 5180TIP3   OH215545   6.215   5.372   1.961
 5180TIP3    H115546   6.270   5.382   2.039
 5180TIP3    H215547   6.276   5.376   1.888
 5181TIP3   OH215548   3.819   1.382   0.167
 5181TIP3    H115549   3.894   1.441   0.171
 5181TIP3    H215550   3.743   1.441   0.165
 5182TIP3   OH215551   0.271   1.166   2.929
 5182TIP3    H115552   0.229   1.082   2.911
 5182TIP3    H215553   0.199   1.224   2.953
 5183TIP3   OH215554   5.364   4.178   0.137
 5183TIP3    H115555   5.423   4.159   0.065
 5183TIP3    H215556   5.342   4.092   0.173
 5184TIP3   OH215557   3.479   2.154   1.141
 5184TIP3    H115558   3.555   2.101   1.118
 5184TIP3    H215559   3.410   2.090   1.159
 5185TIP3   OH215560   1.127   5.705   4.022
 5185TIP3    H115561   1.037   5.682   3.998
 5185TIP3    H215562   1.154   5.636   4.083
 5186TIP3   OH215563   4.926   4.344   3.242
 5186TIP3    H115564   4.919   4.408   3.171
 5186TIP3    H215565   4.966   4.393   3.315
 5187TIP3   OH215566   5.694   0.165   3.576
 5187TIP3    H115567   5.766   0.224   3.598
 5187TIP3    H215568   5.680   0.114   3.656
 5188TIP3   OH215569   1.842   3.720   0.586
 5188TIP3    H115570   1.748   3.729   0.571
 5188TIP3    H215571   1.879   3.702   0.499
 5189TIP3   OH215572   2.469   2.140   3.821
 5189TIP3    H115573   2.526   2.064   3.828
 5189TIP3    H215574   2.453   2.167   3.912
 5190TIP3   OH215575   5.639   4.011   4.929
 5190TIP3    H115576   5.588   4.042   4.854
 5190TIP3    H215577   5.730   4.020   4.901
 5191TIP3   OH215578   3.412   2.940   0.996
 5191TIP3    H115579   3.410   2.972   0.906
 5191TIP3    H215580   3.393   3.016   1.050
 5192TIP3   OH215581   2.681   1.741   3.678
 5192TIP3    H115582   2.616   1.729   3.608
 5192TIP3    H215583   2.696   1.653   3.712
 5193TIP3   OH215584   3.367   5.588   0.705
 5193TIP3    H115585   3.407   5.645   0.772
 5193TIP3    H215586   3.354   5.646   0.630
 5194TIP3   OH215587   1.726   3.564   2.320
 5194TIP3    H115588   1.691   3.495   2.263
 5194TIP3    H215589   1.815   3.579   2.288
 5195TIP3   OH215590   4.899   0.507   1.229
 5195TIP3    H115591   4.805   0.508   1.215
 5195TIP3    H215592   4.918   0.416   1.254
 5196TIP3   OH215593   3.591   2.306   1.662
 5196TIP3    H115594   3.682   2.301   1.633
 5196TIP3    H215595   3.575   2.399   1.677
 5197TIP3   OH215596   6.038   5.096   2.033
 5197TIP3    H115597   6.028   5.033   1.961
 5197TIP3    H215598   6.109   5.154   2.005
 5198TIP3   OH215599   3.561   5.531   2.476
 5198TIP3    H115600   3.574   5.439   2.452
 5198TIP3    H215601   3.545   5.576   2.393
 5199TIP3   OH215602   0.376   2.982   3.265
 5199TIP3    H115603   0.419   3.057   3.305
 5199TIP3    H215604   0.358   3.009   3.175
 5200TIP3   OH215605   2.463   4.350   4.756
 5200TIP3    H115606   2.440   4.319   4.843
 5200TIP3    H215607   2.549   4.313   4.739
 5201TIP3   OH215608   6.207   2.149   4.520
 5201TIP3    H115609   6.202   2.054   4.530
 5201TIP3    H215610   6.232   2.161   4.428
 5202TIP3   OH215611   5.456   4.728   4.761
 5202TIP3    H115612   5.550   4.747   4.760
 5202TIP3    H215613   5.415   4.809   4.794
 5203TIP3   OH215614   2.526   5.371   3.138
 5203TIP3    H115615   2.443   5.360   3.185
 5203TIP3    H215616   2.507   5.435   3.070
 5204TIP3   OH215617   6.135   2.040   0.627
 5204TIP3    H115618   6.042   2.058   0.640
 5204TIP3    H215619   6.165   2.108   0.567
 5205TIP3   OH215620   4.556   3.181   4.362
 5205TIP3    H115621   4.540   3.269   4.399
 5205TIP3    H215622   4.552   3.123   4.438
 5206TIP3   OH215623   0.458   3.749   2.380
 5206TIP3    H115624   0.532   3.688   2.375
 5206TIP3    H215625   0.457   3.777   2.472
 5207TIP3   OH215626   1.623   0.633   3.562
 5207TIP3    H115627   1.691   0.653   3.497
 5207TIP3    H215628   1.642   0.543   3.589
 5208TIP3   OH215629   0.703   6.005   3.411
 5208TIP3    H115630   0.615   6.014   3.374
 5208TIP3    H215631   0.698   5.926   3.464
 5209TIP3   OH215632   2.883   0.206   0.870
 5209TIP3    H115633   2.840   0.284   0.834
 5209TIP3    H215634   2.951   0.241   0.928
 5210TIP3   OH215635   3.863   4.642   4.273
 5210TIP3    H115636   3.778   4.622   4.313
 5210TIP3    H215637   3.925   4.633   4.345
 5211TIP3   OH215638   5.729   3.894   2.535
 5211TIP3    H115639   5.764   3.861   2.618
 5211TIP3    H215640   5.659   3.954   2.561
 5212TIP3   OH215641   3.921   1.742   0.085
 5212TIP3    H115642   3.947   1.703   0.001
 5212TIP3    H215643   3.990   1.718   0.146
 5213TIP3   OH215644   2.180   0.299   1.024
 5213TIP3    H115645   2.190   0.234   0.954
 5213TIP3    H215646   2.153   0.247   1.100
 5214TIP3   OH215647   3.789   0.940   3.153
 5214TIP3    H115648   3.863   0.984   3.110
 5214TIP3    H215649   3.827   0.901   3.232
 5215TIP3   OH215650   3.817   5.907   3.165
 5215TIP3    H115651   3.833   5.955   3.246
 5215TIP3    H215652   3.787   5.974   3.103
 5216TIP3   OH215653   2.783   5.707   0.953
 5216TIP3    H115654   2.848   5.637   0.961
 5216TIP3    H215655   2.707   5.664   0.913
 5217TIP3   OH215656   0.371   1.246   3.426
 5217TIP3    H115657   0.282   1.279   3.437
 5217TIP3    H215658   0.361   1.171   3.367
 5218TIP3   OH215659   2.397   0.384   2.995
 5218TIP3    H115660   2.452   0.372   2.918
 5218TIP3    H215661   2.319   0.330   2.978
 5219TIP3   OH215662   5.907   1.290   2.808
 5219TIP3    H115663   5.845   1.262   2.741
 5219TIP3    H215664   5.886   1.382   2.823
 5220TIP3   OH215665   3.276   5.703   0.976
 5220TIP3    H115666   3.205   5.741   1.027
 5220TIP3    H215667   3.267   5.609   0.987
 5221TIP3   OH215668   2.255   2.309   4.276
 5221TIP3    H115669   2.305   2.390   4.281
 5221TIP3    H215670   2.321   2.240   4.276
 5222TIP3   OH215671   0.350   5.515   0.728
 5222TIP3    H115672   0.301   5.479   0.802
 5222TIP3    H215673   0.283   5.532   0.661
 5223TIP3   OH215674   5.071   4.133   0.120
 5223TIP3    H115675   5.052   4.149   0.028
 5223TIP3    H215676   5.166   4.146   0.127
 5224TIP3   OH215677   2.444   2.230   0.164
 5224TIP3    H115678   2.387   2.301   0.194
 5224TIP3    H215679   2.384   2.170   0.119
 5225TIP3   OH215680   3.868   0.393   1.156
 5225TIP3    H115681   3.933   0.333   1.192
 5225TIP3    H215682   3.880   0.473   1.206
 5226TIP3   OH215683   0.956   4.962   3.614
 5226TIP3    H115684   0.886   5.027   3.604
 5226TIP3    H215685   0.910   4.881   3.636
 5227TIP3   OH215686   5.425   3.181   3.472
 5227TIP3    H115687   5.476   3.111   3.431
 5227TIP3    H215688   5.364   3.208   3.405
 5228TIP3   OH215689   5.107   2.802   1.067
 5228TIP3    H115690   5.160   2.745   1.123
 5228TIP3    H215691   5.170   2.840   1.006
 5229TIP3   OH215692   2.764   4.478   4.408
 5229TIP3    H115693   2.685   4.532   4.417
 5229TIP3    H215694   2.771   4.431   4.491
 5230TIP3   OH215695   3.210   4.873   0.642
 5230TIP3    H115696   3.252   4.941   0.696
 5230TIP3    H215697   3.159   4.821   0.705
 5231TIP3   OH215698   0.611   5.095   4.198
 5231TIP3    H115699   0.688   5.151   4.213
 5231TIP3    H215700   0.560   5.142   4.131
 5232TIP3   OH215701   4.670   2.276   2.096
 5232TIP3    H115702   4.710   2.362   2.086
 5232TIP3    H215703   4.637   2.255   2.008
 5233TIP3   OH215704   2.774   2.726   0.994
 5233TIP3    H115705   2.722   2.697   1.069
 5233TIP3    H215706   2.853   2.672   0.996
 5234TIP3   OH215707  -0.012   4.942   3.621
 5234TIP3    H115708   0.077   4.959   3.651
 5234TIP3    H215709  -0.003   4.919   3.528
 5235TIP3   OH215710   1.264   3.360   5.024
 5235TIP3    H115711   1.339   3.400   5.069
 5235TIP3    H215712   1.190   3.415   5.049
 5236TIP3   OH215713   0.910   0.563   3.380
 5236TIP3    H115714   0.858   0.517   3.313
 5236TIP3    H215715   0.907   0.505   3.456
 5237TIP3   OH215716   0.670   1.570   0.548
 5237TIP3    H115717   0.624   1.523   0.479
 5237TIP3    H215718   0.625   1.544   0.629
 5238TIP3   OH215719   1.062   2.944   0.606
 5238TIP3    H115720   1.139   2.981   0.648
 5238TIP3    H215721   0.993   3.009   0.620
 5239TIP3   OH215722   3.996   2.030   3.065
 5239TIP3    H115723   4.034   1.986   2.989
 5239TIP3    H215724   4.026   2.121   3.057
 5240TIP3   OH215725   1.399   4.503   2.770
 5240TIP3    H115726   1.324   4.445   2.786
 5240TIP3    H215727   1.423   4.487   2.678
 5241TIP3   OH215728   5.952   2.860   1.585
 5241TIP3    H115729   5.931   2.806   1.661
 5241TIP3    H215730   5.881   2.924   1.580
 5242TIP3   OH215731   2.239   4.560   0.773
 5242TIP3    H115732   2.309   4.502   0.800
 5242TIP3    H215733   2.159   4.509   0.784
 5243TIP3   OH215734   4.064   3.552   0.868
 5243TIP3    H115735   4.078   3.647   0.864
 5243TIP3    H215736   4.046   3.534   0.960
 5244TIP3   OH215737   1.235   3.305   4.368
 5244TIP3    H115738   1.264   3.355   4.444
 5244TIP3    H215739   1.183   3.234   4.405
 5245TIP3   OH215740   0.976   3.422   1.239
 5245TIP3    H115741   0.977   3.405   1.333
 5245TIP3    H215742   0.896   3.471   1.224
 5246TIP3   OH215743   1.037   5.258   3.426
 5246TIP3    H115744   0.952   5.262   3.469
 5246TIP3    H215745   1.020   5.215   3.342
 5247TIP3   OH215746   2.046   3.275   4.514
 5247TIP3    H115747   2.076   3.314   4.596
 5247TIP3    H215748   1.966   3.228   4.538
 5248TIP3   OH215749   2.260   0.290   2.482
 5248TIP3    H115750   2.238   0.331   2.566
 5248TIP3    H215751   2.322   0.221   2.505
 5249TIP3   OH215752   4.752   4.305   1.715
 5249TIP3    H115753   4.670   4.325   1.669
 5249TIP3    H215754   4.737   4.335   1.804
 5250TIP3   OH215755   1.017   5.457   2.211
 5250TIP3    H115756   1.066   5.492   2.137
 5250TIP3    H215757   0.940   5.513   2.218
 5251TIP3   OH215758   0.092   0.942   5.113
 5251TIP3    H115759   0.111   0.906   5.199
 5251TIP3    H215760   0.178   0.960   5.075
 5252TIP3   OH215761   0.066   4.185   0.584
 5252TIP3    H115762   0.075   4.190   0.488
 5252TIP3    H215763  -0.014   4.234   0.603
 5253TIP3   OH215764   6.080   0.197   1.502
 5253TIP3    H115765   6.068   0.289   1.475
 5253TIP3    H215766   6.085   0.149   1.419
 5254TIP3   OH215767   6.053   3.056   1.761
 5254TIP3    H115768   6.022   2.992   1.697
 5254TIP3    H215769   6.146   3.037   1.772
 5255TIP3   OH215770   1.529   3.806   4.969
 5255TIP3    H115771   1.614   3.772   4.998
 5255TIP3    H215772   1.533   3.802   4.873
 5256TIP3   OH215773   2.144   4.246   5.190
 5256TIP3    H115774   2.053   4.275   5.186
 5256TIP3    H215775   2.145   4.165   5.139
 5257TIP3   OH215776   3.891   4.742   0.634
 5257TIP3    H115777   3.970   4.779   0.595
 5257TIP3    H215778   3.821   4.802   0.609
 5258TIP3   OH215779   2.214   3.119   3.333
 5258TIP3    H115780   2.147   3.188   3.330
 5258TIP3    H215781   2.175   3.050   3.386
 5259TIP3   OH215782   1.727   2.479   4.198
 5259TIP3    H115783   1.716   2.435   4.114
 5259TIP3    H215784   1.746   2.409   4.260
 5260TIP3   OH215785   0.269   5.405   0.960
 5260TIP3    H115786   0.260   5.399   1.056
 5260TIP3    H215787   0.216   5.333   0.927
 5261TIP3   OH215788   0.683   4.655   1.305
 5261TIP3    H115789   0.704   4.716   1.233
 5261TIP3    H215790   0.734   4.688   1.379
 5262TIP3   OH215791   1.996   3.247   1.192
 5262TIP3    H115792   1.966   3.315   1.132
 5262TIP3    H215793   1.923   3.186   1.198
 5263TIP3   OH215794   1.678   4.095   3.912
 5263TIP3    H115795   1.622   4.083   3.988
 5263TIP3    H215796   1.621   4.136   3.846
 5264TIP3   OH215797   1.707   0.300   0.814
 5264TIP3    H115798   1.625   0.254   0.798
 5264TIP3    H215799   1.717   0.299   0.909
 5265TIP3   OH215800   3.239   5.244   2.340
 5265TIP3    H115801   3.217   5.278   2.426
 5265TIP3    H215802   3.333   5.227   2.344
 5266TIP3   OH215803   0.189   2.550   2.147
 5266TIP3    H115804   0.209   2.558   2.054
 5266TIP3    H215805   0.198   2.457   2.166
 5267TIP3   OH215806   2.251   0.123   4.551
 5267TIP3    H115807   2.325   0.180   4.531
 5267TIP3    H215808   2.291   0.040   4.575
 5268TIP3   OH215809   0.456   2.325   4.482
 5268TIP3    H115810   0.432   2.409   4.443
 5268TIP3    H215811   0.377   2.298   4.530
 5269TIP3   OH215812   1.670   0.290   2.899
 5269TIP3    H115813   1.670   0.200   2.933
 5269TIP3    H215814   1.646   0.281   2.807
 5270TIP3   OH215815   0.094   1.657   5.148
 5270TIP3    H115816   0.042   1.658   5.228
 5270TIP3    H215817   0.127   1.567   5.142
 5271TIP3   OH215818   1.360   5.323   2.276
 5271TIP3    H115819   1.389   5.309   2.366
 5271TIP3    H215820   1.332   5.236   2.246
 5272TIP3   OH215821   5.818   3.763   2.311
 5272TIP3    H115822   5.779   3.802   2.389
 5272TIP3    H215823   5.912   3.782   2.318
 5273TIP3   OH215824   4.650   2.158   0.928
 5273TIP3    H115825   4.714   2.208   0.979
 5273TIP3    H215826   4.679   2.067   0.935
 5274TIP3   OH215827   5.285   1.817   4.723
 5274TIP3    H115828   5.236   1.807   4.641
 5274TIP3    H215829   5.374   1.790   4.701
 5275TIP3   OH215830   2.905   4.551   4.847
 5275TIP3    H115831   2.998   4.538   4.866
 5275TIP3    H215832   2.865   4.561   4.933
 5276TIP3   OH215833   2.434   2.442   3.277
 5276TIP3    H115834   2.477   2.485   3.203
 5276TIP3    H215835   2.423   2.351   3.248
 5277TIP3   OH215836   2.236   1.745   4.044
 5277TIP3    H115837   2.172   1.813   4.063
 5277TIP3    H215838   2.321   1.786   4.061
 5278TIP3   OH215839   0.051   0.383   0.007
 5278TIP3    H115840   0.102   0.431   0.072
 5278TIP3    H215841   0.112   0.369  -0.066
 5279TIP3   OH215842   4.485   1.471   4.455
 5279TIP3    H115843   4.514   1.534   4.389
 5279TIP3    H215844   4.411   1.515   4.498
 5280TIP3   OH215845   0.534   5.467   4.987
 5280TIP3    H115846   0.526   5.428   4.900
 5280TIP3    H215847   0.582   5.402   5.038
 5281TIP3   OH215848   3.664   3.954   0.532
 5281TIP3    H115849   3.607   3.878   0.545
 5281TIP3    H215850   3.702   3.971   0.618
 5282TIP3   OH215851   5.024   4.995   3.520
 5282TIP3    H115852   4.992   4.946   3.596
 5282TIP3    H215853   4.985   4.951   3.444
 5283TIP3   OH215854   4.270   4.279   0.735
 5283TIP3    H115855   4.218   4.206   0.701
 5283TIP3    H215856   4.217   4.357   0.715
 5284TIP3   OH215857   5.089   4.561   1.768
 5284TIP3    H115858   5.086   4.474   1.809
 5284TIP3    H215859   5.095   4.543   1.674
 5285TIP3   OH215860   5.696   2.468   4.360
 5285TIP3    H115861   5.745   2.517   4.425
 5285TIP3    H215862   5.623   2.525   4.336
 5286TIP3   OH215863   5.478   3.151   1.954
 5286TIP3    H115864   5.529   3.180   2.029
 5286TIP3    H215865   5.450   3.231   1.910
 5287TIP3   OH215866   3.265   0.430   4.609
 5287TIP3    H115867   3.187   0.406   4.559
 5287TIP3    H215868   3.274   0.524   4.595
 5288TIP3   OH215869   0.333   5.898   3.091
 5288TIP3    H115870   0.330   5.941   3.005
 5288TIP3    H215871   0.296   5.811   3.076
 5289TIP3   OH215872   4.806   1.528   3.535
 5289TIP3    H115873   4.826   1.608   3.486
 5289TIP3    H215874   4.830   1.457   3.475
 5290TIP3   OH215875   3.937   5.868   3.554
 5290TIP3    H115876   4.028   5.849   3.576
 5290TIP3    H215877   3.886   5.802   3.601
 5291TIP3   OH215878   5.523   1.160   0.356
 5291TIP3    H115879   5.522   1.154   0.451
 5291TIP3    H215880   5.431   1.158   0.330
 5292TIP3   OH215881   0.330   2.473   2.510
 5292TIP3    H115882   0.265   2.496   2.577
 5292TIP3    H215883   0.389   2.549   2.506
 5293TIP3   OH215884   4.544   0.884   3.052
 5293TIP3    H115885   4.621   0.917   3.006
 5293TIP3    H215886   4.470   0.916   3.000
 5294TIP3   OH215887   4.760   3.162   1.760
 5294TIP3    H115888   4.793   3.135   1.674
 5294TIP3    H215889   4.776   3.086   1.816
 5295TIP3   OH215890   5.266   1.541   3.074
 5295TIP3    H115891   5.192   1.505   3.026
 5295TIP3    H215892   5.233   1.552   3.164
 5296TIP3   OH215893   3.411   3.302   0.914
 5296TIP3    H115894   3.373   3.390   0.912
 5296TIP3    H215895   3.506   3.317   0.919
 5297TIP3   OH215896  -0.011   5.841   3.616
 5297TIP3    H115897   0.083   5.844   3.602
 5297TIP3    H215898  -0.044   5.781   3.549
 5298TIP3   OH215899   5.523   1.575   2.778
 5298TIP3    H115900   5.486   1.506   2.724
 5298TIP3    H215901   5.533   1.536   2.865
 5299TIP3   OH215902   2.448   3.191   3.219
 5299TIP3    H115903   2.448   3.287   3.222
 5299TIP3    H215904   2.362   3.166   3.252
 5300TIP3   OH215905   1.507   5.479   3.977
 5300TIP3    H115906   1.545   5.417   3.914
 5300TIP3    H215907   1.582   5.531   4.006
 5301TIP3   OH215908   5.251   0.964   5.044
 5301TIP3    H115909   5.247   1.030   5.113
 5301TIP3    H215910   5.161   0.955   5.013
 5302TIP3   OH215911   4.376   5.557   4.382
 5302TIP3    H115912   4.325   5.478   4.398
 5302TIP3    H215913   4.465   5.525   4.365
 5303TIP3   OH215914   3.421   3.220   3.781
 5303TIP3    H115915   3.395   3.260   3.864
 5303TIP3    H215916   3.403   3.126   3.793
 5304TIP3   OH215917   1.047   0.061   3.266
 5304TIP3    H115918   1.108   0.124   3.228
 5304TIP3    H215919   1.027   0.002   3.193
 5305TIP3   OH215920   1.353   3.917   4.406
 5305TIP3    H115921   1.358   3.996   4.460
 5305TIP3    H215922   1.270   3.876   4.431
 5306TIP3   OH215923   5.898   0.465   4.165
 5306TIP3    H115924   5.830   0.406   4.132
 5306TIP3    H215925   5.893   0.456   4.260
 5307TIP3   OH215926   2.354   5.864   0.189
 5307TIP3    H115927   2.398   5.824   0.264
 5307TIP3    H215928   2.273   5.815   0.179
 5308TIP3   OH215929   0.560   5.614   4.372
 5308TIP3    H115930   0.547   5.665   4.452
 5308TIP3    H215931   0.585   5.680   4.306
 5309TIP3   OH215932   2.669   1.578   2.891
 5309TIP3    H115933   2.729   1.508   2.868
 5309TIP3    H215934   2.582   1.542   2.874
 5310TIP3   OH215935   5.920   4.783   2.011
 5310TIP3    H115936   5.994   4.815   1.959
 5310TIP3    H215937   5.954   4.705   2.055
 5311TIP3   OH215938   5.767   5.480   3.321
 5311TIP3    H115939   5.746   5.538   3.247
 5311TIP3    H215940   5.731   5.395   3.296
 5312TIP3   OH215941   4.096   1.969   3.569
 5312TIP3    H115942   4.011   2.010   3.556
 5312TIP3    H215943   4.159   2.039   3.554
 5313TIP3   OH215944   3.065   1.938   1.473
 5313TIP3    H115945   3.153   1.904   1.454
 5313TIP3    H215946   3.077   2.033   1.475
 5314TIP3   OH215947   5.725   0.060   4.034
 5314TIP3    H115948   5.725   0.027   3.944
 5314TIP3    H215949   5.713  -0.018   4.088
 5315TIP3   OH215950   0.697   1.492   1.032
 5315TIP3    H115951   0.657   1.570   1.071
 5315TIP3    H215952   0.748   1.452   1.103
 5316TIP3   OH215953   1.675   4.721   0.199
 5316TIP3    H115954   1.715   4.805   0.217
 5316TIP3    H215955   1.645   4.726   0.108
 5317TIP3   OH215956  -0.011   3.734   0.086
 5317TIP3    H115957   0.061   3.673   0.102
 5317TIP3    H215958  -0.020   3.737  -0.009
 5318TIP3   OH215959   5.583   0.185   4.651
 5318TIP3    H115960   5.520   0.143   4.591
 5318TIP3    H215961   5.535   0.195   4.733
 5319TIP3   OH215962   1.902   3.829   4.671
 5319TIP3    H115963   1.926   3.909   4.624
 5319TIP3    H215964   1.985   3.786   4.689
 5320TIP3   OH215965   2.512   0.024   1.026
 5320TIP3    H115966   2.425   0.001   1.059
 5320TIP3    H215967   2.543   0.092   1.086
 5321TIP3   OH215968   3.382   2.757   3.891
 5321TIP3    H115969   3.477   2.756   3.899
 5321TIP3    H215970   3.356   2.665   3.898
 5322TIP3   OH215971   2.114   0.729   3.093
 5322TIP3    H115972   2.177   0.783   3.141
 5322TIP3    H215973   2.114   0.763   3.004
 5323TIP3   OH215974   0.892   4.340   1.327
 5323TIP3    H115975   0.803   4.309   1.310
 5323TIP3    H215976   0.912   4.306   1.415
 5324TIP3   OH215977   2.072   1.910   0.304
 5324TIP3    H115978   2.138   1.915   0.372
 5324TIP3    H215979   2.051   2.001   0.284
 5325TIP3   OH215980   4.051   4.014   2.214
 5325TIP3    H115981   4.095   3.949   2.160
 5325TIP3    H215982   4.065   3.984   2.304
 5326TIP3   OH215983   2.540   3.349   2.579
 5326TIP3    H115984   2.544   3.282   2.648
 5326TIP3    H215985   2.556   3.301   2.498
 5327TIP3   OH215986   1.526   3.844   0.811
 5327TIP3    H115987   1.454   3.904   0.832
 5327TIP3    H215988   1.510   3.818   0.720
 5328TIP3   OH215989   1.867   4.786   1.962
 5328TIP3    H115990   1.817   4.758   1.886
 5328TIP3    H215991   1.835   4.730   2.033
 5329TIP3   OH215992   2.393   4.737   2.596
 5329TIP3    H115993   2.438   4.811   2.636
 5329TIP3    H215994   2.383   4.673   2.667
 5330TIP3   OH215995   1.971   1.560   1.092
 5330TIP3    H115996   2.035   1.581   1.160
 5330TIP3    H215997   1.896   1.525   1.139
 5331TIP3   OH215998   2.819   3.229   4.933
 5331TIP3    H115999   2.841   3.143   4.899
 5331TIP3    H216000   2.814   3.285   4.856
 5332TIP3   OH216001   3.608   1.351   0.944
 5332TIP3    H116002   3.615   1.404   0.865
 5332TIP3    H216003   3.672   1.281   0.932
 5333TIP3   OH216004   4.430   3.631   4.367
 5333TIP3    H116005   4.383   3.590   4.294
 5333TIP3    H216006   4.367   3.692   4.405
 5334TIP3   OH216007   0.606   5.468   0.281
 5334TIP3    H116008   0.586   5.498   0.192
 5334TIP3    H216009   0.574   5.537   0.338
 5335TIP3   OH216010   4.231   2.600   0.654
 5335TIP3    H116011   4.307   2.626   0.601
 5335TIP3    H216012   4.241   2.650   0.736
 5336TIP3   OH216013   1.121   0.957   1.722
 5336TIP3    H116014   1.194   0.947   1.662
 5336TIP3    H216015   1.156   0.932   1.808
 5337TIP3   OH216016   3.427   2.744   1.461
 5337TIP3    H116017   3.511   2.791   1.457
 5337TIP3    H216018   3.421   2.699   1.377
 5338TIP3   OH216019   3.552   3.118   2.248
 5338TIP3    H116020   3.601   3.071   2.316
 5338TIP3    H216021   3.514   3.193   2.294
 5339TIP3   OH216022   3.640   1.355   1.430
 5339TIP3    H116023   3.606   1.293   1.494
 5339TIP3    H216024   3.656   1.435   1.479
 5340TIP3   OH216025   4.061   4.364   1.974
 5340TIP3    H116026   3.999   4.402   1.912
 5340TIP3    H216027   4.025   4.278   1.994
 5341TIP3   OH216028   0.836   1.845   4.730
 5341TIP3    H116029   0.869   1.852   4.640
 5341TIP3    H216030   0.906   1.801   4.778
 5342TIP3   OH216031   5.806   3.528   3.818
 5342TIP3    H116032   5.827   3.612   3.858
 5342TIP3    H216033   5.772   3.475   3.890
 5343TIP3   OH216034   6.022   5.393   4.541
 5343TIP3    H116035   5.971   5.457   4.491
 5343TIP3    H216036   5.958   5.352   4.599
 5344TIP3   OH216037   2.358   4.945   0.506
 5344TIP3    H116038   2.291   4.925   0.572
 5344TIP3    H216039   2.313   4.935   0.422
 5345TIP3   OH216040   5.852   5.401   0.513
 5345TIP3    H116041   5.791   5.469   0.485
 5345TIP3    H216042   5.891   5.368   0.432
 5346TIP3   OH216043   6.027   3.999   1.630
 5346TIP3    H116044   5.990   3.970   1.547
 5346TIP3    H216045   5.965   4.065   1.662
 5347TIP3   OH216046   1.435   2.110   2.595
 5347TIP3    H116047   1.375   2.129   2.667
 5347TIP3    H216048   1.445   2.014   2.597
 5348TIP3   OH216049   2.765   0.248   4.657
 5348TIP3    H116050   2.735   0.229   4.746
 5348TIP3    H216051   2.724   0.332   4.636
 5349TIP3   OH216052   4.995   4.542   4.835
 5349TIP3    H116053   5.021   4.538   4.743
 5349TIP3    H216054   4.900   4.543   4.834
 5350TIP3   OH216055   2.066   3.644   2.431
 5350TIP3    H116056   2.009   3.651   2.507
 5350TIP3    H216057   2.009   3.615   2.360
 5351TIP3   OH216058   5.585   3.686   3.144
 5351TIP3    H116059   5.493   3.666   3.129
 5351TIP3    H216060   5.626   3.601   3.160
 5352TIP3   OH216061   2.019   0.378   2.662
 5352TIP3    H116062   1.985   0.289   2.653
 5352TIP3    H216063   1.987   0.407   2.748
 5353TIP3   OH216064   0.936   1.565   2.027
 5353TIP3    H116065   0.962   1.613   2.107
 5353TIP3    H216066   1.019   1.549   1.982
 5354TIP3   OH216067   2.417   3.814   1.179
 5354TIP3    H116068   2.475   3.738   1.182
 5354TIP3    H216069   2.471   3.887   1.210
 5355TIP3   OH216070   1.328   0.996   4.593
 5355TIP3    H116071   1.408   1.002   4.644
 5355TIP3    H216072   1.357   0.979   4.504
 5356TIP3   OH216073   5.844   2.503   0.588
 5356TIP3    H116074   5.918   2.491   0.646
 5356TIP3    H216075   5.770   2.463   0.634
 5357TIP3   OH216076   2.725   2.066   4.085
 5357TIP3    H116077   2.736   2.116   4.005
 5357TIP3    H216078   2.639   2.025   4.077
 5358TIP3   OH216079   6.304   5.321   0.703
 5358TIP3    H116080   6.255   5.380   0.761
 5358TIP3    H216081   6.374   5.286   0.758
 5359TIP3   OH216082   3.335   4.638   0.504
 5359TIP3    H116083   3.247   4.670   0.524
 5359TIP3    H216084   3.380   4.636   0.588
 5360TIP3   OH216085   2.771   2.215   2.554
 5360TIP3    H116086   2.748   2.122   2.545
 5360TIP3    H216087   2.837   2.230   2.486
 5361TIP3   OH216088   1.530   2.448   1.493
 5361TIP3    H116089   1.459   2.505   1.521
 5361TIP3    H216090   1.599   2.509   1.464
 5362TIP3   OH216091   1.473   5.246   0.053
 5362TIP3    H116092   1.487   5.152   0.060
 5362TIP3    H216093   1.559   5.285   0.063
 5363TIP3   OH216094   2.596   5.900   3.090
 5363TIP3    H116095   2.622   5.893   3.182
 5363TIP3    H216096   2.677   5.920   3.044
 5364TIP3   OH216097   4.963   3.584   0.427
 5364TIP3    H116098   4.904   3.575   0.502
 5364TIP3    H216099   5.018   3.660   0.448
 5365TIP3   OH216100   4.122   0.818   0.462
 5365TIP3    H116101   4.132   0.771   0.379
 5365TIP3    H216102   4.185   0.890   0.457
 5366TIP3   OH216103   1.135   1.744   2.236
 5366TIP3    H116104   1.045   1.773   2.220
 5366TIP3    H216105   1.126   1.668   2.294
 5367TIP3   OH216106   3.754   4.189   3.105
 5367TIP3    H116107   3.752   4.247   3.029
 5367TIP3    H216108   3.718   4.106   3.073
 5368TIP3   OH216109   1.708   1.000   2.663
 5368TIP3    H116110   1.667   0.919   2.631
 5368TIP3    H216111   1.637   1.064   2.664
 5369TIP3   OH216112   0.734   5.744   0.139
 5369TIP3    H116113   0.666   5.802   0.105
 5369TIP3    H216114   0.750   5.682   0.068
 5370TIP3   OH216115   5.909   5.896   1.167
 5370TIP3    H116116   5.875   5.953   1.099
 5370TIP3    H216117   5.967   5.952   1.219
 5371TIP3   OH216118   2.518   1.809   4.126
 5371TIP3    H116119   2.473   1.849   4.200
 5371TIP3    H216120   2.579   1.747   4.165
 5372TIP3   OH216121   5.620   4.293   1.277
 5372TIP3    H116122   5.680   4.351   1.324
 5372TIP3    H216123   5.652   4.205   1.294
 5373TIP3   OH216124   1.297   5.333   5.111
 5373TIP3    H116125   1.326   5.265   5.172
 5373TIP3    H216126   1.311   5.415   5.159
 5374TIP3   OH216127   0.104   0.240   0.330
 5374TIP3    H116128   0.141   0.166   0.379
 5374TIP3    H216129   0.015   0.212   0.308
 5375TIP3   OH216130   5.285   1.642   1.893
 5375TIP3    H116131   5.191   1.658   1.892
 5375TIP3    H216132   5.302   1.595   1.811
 5376TIP3   OH216133   5.484   2.231   0.426
 5376TIP3    H116134   5.527   2.316   0.440
 5376TIP3    H216135   5.421   2.224   0.497
 5377TIP3   OH216136   2.016   0.487   1.670
 5377TIP3    H116137   2.006   0.451   1.758
 5377TIP3    H216138   2.098   0.450   1.638
 5378TIP3   OH216139   4.310   5.309   4.454
 5378TIP3    H116140   4.310   5.301   4.549
 5378TIP3    H216141   4.354   5.230   4.423
 5379TIP3   OH216142   2.364   5.401   0.546
 5379TIP3    H116143   2.315   5.479   0.572
 5379TIP3    H216144   2.318   5.368   0.469
 5380TIP3   OH216145   4.125   0.711   4.289
 5380TIP3    H116146   4.148   0.625   4.254
 5380TIP3    H216147   4.125   0.768   4.212
 5381TIP3   OH216148   4.792   2.290   0.512
 5381TIP3    H116149   4.874   2.241   0.517
 5381TIP3    H216150   4.759   2.273   0.424
 5382TIP3   OH216151   1.588   5.911   5.072
 5382TIP3    H116152   1.549   5.998   5.063
 5382TIP3    H216153   1.516   5.856   5.103
 5383TIP3   OH216154   0.767   2.521   3.271
 5383TIP3    H116155   0.720   2.438   3.274
 5383TIP3    H216156   0.722   2.576   3.336
 5384TIP3   OH216157   6.217   5.741   1.323
 5384TIP3    H116158   6.125   5.767   1.331
 5384TIP3    H216159   6.221   5.694   1.240
 5385TIP3   OH216160   4.201   4.834   2.382
 5385TIP3    H116161   4.131   4.899   2.379
 5385TIP3    H216162   4.255   4.854   2.305
 5386TIP3   OH216163   2.608   5.659   4.020
 5386TIP3    H116164   2.697   5.626   4.031
 5386TIP3    H216165   2.613   5.715   3.943
 5387TIP3   OH216166   4.348   5.404   1.670
 5387TIP3    H116167   4.431   5.436   1.634
 5387TIP3    H216168   4.327   5.464   1.741
 5388TIP3   OH216169   5.651   2.561   0.043
 5388TIP3    H116170   5.728   2.517   0.078
 5388TIP3    H216171   5.672   2.578  -0.049
 5389TIP3   OH216172   0.952   2.279   1.322
 5389TIP3    H116173   0.980   2.288   1.413
 5389TIP3    H216174   0.926   2.367   1.296
 5390TIP3   OH216175   0.328   4.585   3.735
 5390TIP3    H116176   0.317   4.560   3.827
 5390TIP3    H216177   0.390   4.522   3.700
 5391TIP3   OH216178   4.707   0.832   0.231
 5391TIP3    H116179   4.699   0.863   0.141
 5391TIP3    H216180   4.801   0.835   0.249
 5392TIP3   OH216181   3.672   0.590   4.728
 5392TIP3    H116182   3.591   0.573   4.777
 5392TIP3    H216183   3.720   0.652   4.782
 5393TIP3   OH216184   5.163   5.441   3.163
 5393TIP3    H116185   5.250   5.403   3.151
 5393TIP3    H216186   5.129   5.398   3.242
 5394TIP3   OH216187   4.268   0.529   2.662
 5394TIP3    H116188   4.181   0.500   2.691
 5394TIP3    H216189   4.313   0.448   2.638
 5395TIP3   OH216190   6.119   3.067   3.946
 5395TIP3    H116191   6.041   3.075   3.890
 5395TIP3    H216192   6.091   3.101   4.031
 5396TIP3   OH216193   1.203   3.051   4.158
 5396TIP3    H116194   1.131   3.103   4.121
 5396TIP3    H216195   1.165   3.005   4.232
 5397TIP3   OH216196   2.244   5.103   4.594
 5397TIP3    H116197   2.334   5.086   4.565
 5397TIP3    H216198   2.253   5.133   4.685
 5398TIP3   OH216199   1.875   2.808   3.537
 5398TIP3    H116200   1.892   2.832   3.628
 5398TIP3    H216201   1.812   2.736   3.543
 5399TIP3   OH216202   5.973   1.184   0.152
 5399TIP3    H116203   6.009   1.249   0.092
 5399TIP3    H216204   5.971   1.103   0.101
 5400TIP3   OH216205   1.185   3.437   3.591
 5400TIP3    H116206   1.253   3.391   3.541
 5400TIP3    H216207   1.227   3.518   3.619
 5401TIP3   OH216208   0.192   3.996   0.952
 5401TIP3    H116209   0.200   4.071   0.894
 5401TIP3    H216210   0.175   4.034   1.038
 5402TIP3   OH216211   4.965   5.606   3.534
 5402TIP3    H116212   5.046   5.569   3.499
 5402TIP3    H216213   4.994   5.682   3.585
 5403TIP3   OH216214   3.049   1.661   0.536
 5403TIP3    H116215   2.978   1.645   0.598
 5403TIP3    H216216   3.062   1.576   0.493
 5404TIP3   OH216217   4.475   4.293   0.316
 5404TIP3    H116218   4.506   4.272   0.404
 5404TIP3    H216219   4.445   4.210   0.280
 5405TIP3   OH216220   2.381   4.381   4.472
 5405TIP3    H116221   2.410   4.336   4.552
 5405TIP3    H216222   2.429   4.339   4.402
 5406TIP3   OH216223   3.306   5.552   4.927
 5406TIP3    H116224   3.231   5.578   4.979
 5406TIP3    H216225   3.374   5.617   4.948
 5407TIP3   OH216226   5.285   5.445   0.114
 5407TIP3    H116227   5.221   5.454   0.185
 5407TIP3    H216228   5.273   5.355   0.083
 5408TIP3   OH216229   4.392   3.935   4.023
 5408TIP3    H116230   4.381   3.947   4.117
 5408TIP3    H216231   4.314   3.888   3.995
 5409TIP3   OH216232   1.355   4.155   1.273
 5409TIP3    H116233   1.380   4.136   1.182
 5409TIP3    H216234   1.260   4.144   1.274
 5410TIP3   OH216235   3.490   4.963   3.233
 5410TIP3    H116236   3.452   4.914   3.306
 5410TIP3    H216237   3.583   4.940   3.235
 5411TIP3   OH216238   0.973   0.935   4.352
 5411TIP3    H116239   0.967   1.020   4.309
 5411TIP3    H216240   1.058   0.900   4.325
 5412TIP3   OH216241   3.707   5.540   1.853
 5412TIP3    H116242   3.700   5.593   1.773
 5412TIP3    H216243   3.769   5.471   1.830
 5413TIP3   OH216244   3.402   4.457   4.800
 5413TIP3    H116245   3.473   4.520   4.805
 5413TIP3    H216246   3.441   4.373   4.827
 5414TIP3   OH216247   3.674   2.674   4.720
 5414TIP3    H116248   3.642   2.620   4.793
 5414TIP3    H216249   3.630   2.637   4.643
 5415TIP3   OH216250   1.003   1.015   1.150
 5415TIP3    H116251   1.007   1.065   1.069
 5415TIP3    H216252   1.091   1.024   1.188
 5416TIP3   OH216253   3.590   3.986   1.216
 5416TIP3    H116254   3.586   3.941   1.131
 5416TIP3    H216255   3.502   4.018   1.230
 5417TIP3   OH216256   4.597   3.566   3.044
 5417TIP3    H116257   4.584   3.472   3.060
 5417TIP3    H216258   4.515   3.595   3.005
 5418TIP3   OH216259   6.068   4.294   2.593
 5418TIP3    H116260   6.030   4.219   2.638
 5418TIP3    H216261   6.104   4.259   2.513
 5419TIP3   OH216262   5.828   1.905   0.685
 5419TIP3    H116263   5.776   1.855   0.622
 5419TIP3    H216264   5.836   1.992   0.646
 5420TIP3   OH216265   3.438   4.678   4.424
 5420TIP3    H116266   3.371   4.687   4.491
 5420TIP3    H216267   3.391   4.643   4.348
 5421TIP3   OH216268   5.425   1.317   4.825
 5421TIP3    H116269   5.466   1.359   4.901
 5421TIP3    H216270   5.498   1.286   4.772
 5422TIP3   OH216271   5.955   0.378   2.539
 5422TIP3    H116272   5.919   0.373   2.451
 5422TIP3    H216273   6.045   0.346   2.531
 5423TIP3   OH216274  -0.035   2.216   5.050
 5423TIP3    H116275   0.000   2.221   4.961
 5423TIP3    H216276   0.041   2.227   5.106
 5424TIP3   OH216277   2.633   5.032   1.528
 5424TIP3    H116278   2.675   4.947   1.514
 5424TIP3    H216279   2.644   5.049   1.622
 5425TIP3   OH216280   3.765   5.578   0.091
 5425TIP3    H116281   3.771   5.513   0.161
 5425TIP3    H216282   3.812   5.538   0.018
 5426TIP3   OH216283   0.131   0.596   1.855
 5426TIP3    H116284   0.045   0.602   1.895
 5426TIP3    H216285   0.148   0.683   1.820
 5427TIP3   OH216286   0.324   5.171   4.212
 5427TIP3    H116287   0.283   5.085   4.218
 5427TIP3    H216288   0.347   5.192   4.303
 5428TIP3   OH216289   5.037   3.502   1.876
 5428TIP3    H116290   5.084   3.498   1.959
 5428TIP3    H216291   4.952   3.461   1.894
 5429TIP3   OH216292   3.657   1.606   0.110
 5429TIP3    H116293   3.719   1.678   0.094
 5429TIP3    H216294   3.592   1.616   0.041
 5430TIP3   OH216295   3.259   3.342   1.359
 5430TIP3    H116296   3.300   3.428   1.347
 5430TIP3    H216297   3.297   3.309   1.441
 5431TIP3   OH216298   5.237   2.061   3.918
 5431TIP3    H116299   5.272   1.977   3.886
 5431TIP3    H216300   5.311   2.101   3.964
 5432TIP3   OH216301   4.174   4.128   3.670
 5432TIP3    H116302   4.107   4.101   3.733
 5432TIP3    H216303   4.219   4.047   3.647
 5433TIP3   OH216304   1.906   1.344   0.604
 5433TIP3    H116305   1.857   1.274   0.647
 5433TIP3    H216306   1.920   1.409   0.673
 5434TIP3   OH216307   5.148   1.413   2.680
 5434TIP3    H116308   5.170   1.506   2.668
 5434TIP3    H216309   5.122   1.383   2.593
 5435TIP3   OH216310   1.247   5.531   2.998
 5435TIP3    H116311   1.230   5.456   2.941
 5435TIP3    H216312   1.220   5.502   3.085
 5436TIP3   OH216313   1.015   3.234   0.830
 5436TIP3    H116314   0.928   3.214   0.796
 5436TIP3    H216315   1.013   3.329   0.846
 5437TIP3   OH216316   0.015   2.842   4.406
 5437TIP3    H116317   0.036   2.811   4.494
 5437TIP3    H216318   0.100   2.843   4.361
 5438TIP3   OH216319   2.201   5.759   2.512
 5438TIP3    H116320   2.163   5.728   2.430
 5438TIP3    H216321   2.285   5.798   2.487
 5439TIP3   OH216322   1.178   1.777   0.736
 5439TIP3    H116323   1.160   1.812   0.823
 5439TIP3    H216324   1.257   1.821   0.708
 5440TIP3   OH216325   2.428   1.748   1.695
 5440TIP3    H116326   2.457   1.678   1.636
 5440TIP3    H216327   2.431   1.709   1.782
 5441TIP3   OH216328   5.373   0.616   1.328
 5441TIP3    H116329   5.458   0.573   1.340
 5441TIP3    H216330   5.308   0.548   1.348
 5442TIP3   OH216331   0.603   1.066   2.130
 5442TIP3    H116332   0.587   1.007   2.203
 5442TIP3    H216333   0.697   1.060   2.115
 5443TIP3   OH216334   1.419   0.159   2.769
 5443TIP3    H116335   1.381   0.241   2.736
 5443TIP3    H216336   1.499   0.148   2.718
 5444TIP3   OH216337   2.200   1.261   0.747
 5444TIP3    H116338   2.290   1.230   0.743
 5444TIP3    H216339   2.199   1.341   0.694
 5445TIP3   OH216340  -0.011   0.666   3.547
 5445TIP3    H116341   0.067   0.674   3.491
 5445TIP3    H216342  -0.030   0.572   3.546
 5446TIP3   OH216343   4.757   1.420   1.739
 5446TIP3    H116344   4.723   1.493   1.688
 5446TIP3    H216345   4.708   1.422   1.821
 5447TIP3   OH216346   2.935   2.096   4.631
 5447TIP3    H116347   2.901   2.091   4.720
 5447TIP3    H216348   2.931   2.006   4.599
 5448TIP3   OH216349   2.936   1.735   3.446
 5448TIP3    H116350   3.006   1.788   3.409
 5448TIP3    H216351   2.912   1.781   3.526
 5449TIP3   OH216352   3.948   3.885   4.100
 5449TIP3    H116353   3.887   3.911   4.031
 5449TIP3    H216354   3.897   3.892   4.181
 5450TIP3   OH216355   4.876   3.251   0.773
 5450TIP3    H116356   4.820   3.303   0.716
 5450TIP3    H216357   4.859   3.160   0.748
 5451TIP3   OH216358   3.847   4.203   4.056
 5451TIP3    H116359   3.807   4.238   4.135
 5451TIP3    H216360   3.935   4.241   4.054
 5452TIP3   OH216361   1.749   1.572   4.696
 5452TIP3    H116362   1.676   1.516   4.721
 5452TIP3    H216363   1.725   1.660   4.727
 5453TIP3   OH216364   1.951   1.215   1.733
 5453TIP3    H116365   1.934   1.299   1.690
 5453TIP3    H216366   1.864   1.184   1.759
 5454TIP3   OH216367   6.012   0.951   0.773
 5454TIP3    H116368   5.995   1.002   0.694
 5454TIP3    H216369   6.068   0.879   0.744
 5455TIP3   OH216370   4.183   2.864   5.082
 5455TIP3    H116371   4.170   2.947   5.128
 5455TIP3    H216372   4.238   2.887   5.007
 5456TIP3   OH216373   4.961   0.916   3.135
 5456TIP3    H116374   5.037   0.894   3.081
 5456TIP3    H216375   4.888   0.918   3.074
 5457TIP3   OH216376   0.117   3.209   1.382
 5457TIP3    H116377   0.205   3.175   1.368
 5457TIP3    H216378   0.112   3.286   1.326
 5458TIP3   OH216379   1.139   0.886   3.925
 5458TIP3    H116380   1.118   0.796   3.902
 5458TIP3    H216381   1.102   0.939   3.855
 5459TIP3   OH216382   0.050   5.396   4.215
 5459TIP3    H116383   0.115   5.391   4.286
 5459TIP3    H216384   0.005   5.479   4.230
 5460TIP3   OH216385   4.003   1.817   2.548
 5460TIP3    H116386   4.068   1.765   2.595
 5460TIP3    H216387   3.933   1.831   2.612
 5461TIP3   OH216388   2.861   3.868   2.971
 5461TIP3    H116389   2.941   3.899   2.928
 5461TIP3    H216390   2.803   3.845   2.899
 5462TIP3   OH216391   2.985   0.026   4.377
 5462TIP3    H116392   3.032  -0.057   4.385
 5462TIP3    H216393   3.002   0.071   4.460
 5463TIP3   OH216394   0.183   1.324   3.691
 5463TIP3    H116395   0.214   1.238   3.665
 5463TIP3    H216396   0.147   1.362   3.611
 5464TIP3   OH216397   3.432   5.985   1.375
 5464TIP3    H116398   3.508   5.950   1.422
 5464TIP3    H216399   3.469   6.023   1.295
 5465TIP3   OH216400   4.961   0.186   3.489
 5465TIP3    H116401   5.024   0.120   3.519
 5465TIP3    H216402   4.990   0.210   3.402
 5466TIP3   OH216403   5.003   5.526   2.155
 5466TIP3    H116404   5.095   5.501   2.159
 5466TIP3    H216405   4.994   5.574   2.073
 5467TIP3   OH216406   4.107   1.613   1.193
 5467TIP3    H116407   4.113   1.669   1.271
 5467TIP3    H216408   4.018   1.628   1.160
 5468TIP3   OH216409   2.815   0.324   3.730
 5468TIP3    H116410   2.757   0.375   3.674
 5468TIP3    H216411   2.829   0.242   3.682
 5469TIP3   OH216412   2.191   3.820   3.945
 5469TIP3    H116413   2.171   3.893   4.004
 5469TIP3    H216414   2.109   3.772   3.937
 5470TIP3   OH216415   4.186   0.815   4.986
 5470TIP3    H116416   4.174   0.901   5.028
 5470TIP3    H216417   4.256   0.830   4.922
 5471TIP3   OH216418   5.891   4.984   2.235
 5471TIP3    H116419   5.969   5.038   2.223
 5471TIP3    H216420   5.878   4.943   2.149
 5472TIP3   OH216421   0.657   2.414   2.519
 5472TIP3    H116422   0.609   2.424   2.601
 5472TIP3    H216423   0.747   2.438   2.541
 5473TIP3   OH216424   6.131   2.492   0.646
 5473TIP3    H116425   6.188   2.462   0.717
 5473TIP3    H216426   6.186   2.487   0.567
 5474TIP3   OH216427   1.930   3.977   4.068
 5474TIP3    H116428   1.856   4.002   4.014
 5474TIP3    H216429   1.901   3.897   4.113
 5475TIP3   OH216430   6.116   1.626   5.109
 5475TIP3    H116431   6.167   1.643   5.030
 5475TIP3    H216432   6.052   1.697   5.111
 5476TIP3   OH216433   0.015   4.499   4.622
 5476TIP3    H116434   0.063   4.542   4.551
 5476TIP3    H216435   0.075   4.431   4.653
 5477TIP3   OH216436   4.316   5.880   2.090
 5477TIP3    H116437   4.345   5.820   2.158
 5477TIP3    H216438   4.378   5.867   2.018
 5478TIP3   OH216439   0.374   4.762   1.291
 5478TIP3    H116440   0.433   4.765   1.366
 5478TIP3    H216441   0.419   4.811   1.222
 5479TIP3   OH216442   3.326   0.952   3.231
 5479TIP3    H116443   3.398   0.969   3.292
 5479TIP3    H216444   3.280   1.035   3.224
 5480TIP3   OH216445   5.908   4.569   3.159
 5480TIP3    H116446   5.869   4.636   3.103
 5480TIP3    H216447   5.846   4.559   3.231
 5481TIP3   OH216448   3.308   2.689   4.198
 5481TIP3    H116449   3.394   2.657   4.170
 5481TIP3    H216450   3.327   2.757   4.263
 5482TIP3   OH216451   4.577   0.418   3.581
 5482TIP3    H116452   4.584   0.508   3.611
 5482TIP3    H216453   4.622   0.367   3.648
 5483TIP3   OH216454   1.250   2.213   5.061
 5483TIP3    H116455   1.272   2.128   5.021
 5483TIP3    H216456   1.208   2.191   5.144
 5484TIP3   OH216457   2.089   0.782   0.166
 5484TIP3    H116458   2.032   0.715   0.203
 5484TIP3    H216459   2.173   0.769   0.210
 5485TIP3   OH216460   2.656   2.907   4.149
 5485TIP3    H116461   2.581   2.959   4.119
 5485TIP3    H216462   2.693   2.870   4.068
 5486TIP3   OH216463   0.442   0.107   2.467
 5486TIP3    H116464   0.493   0.151   2.535
 5486TIP3    H216465   0.508   0.061   2.415
 5487TIP3   OH216466   0.346   2.785   2.019
 5487TIP3    H116467   0.318   2.788   1.928
 5487TIP3    H216468   0.373   2.694   2.033
 5488TIP3   OH216469   6.118   2.877   4.316
 5488TIP3    H116470   6.067   2.910   4.390
 5488TIP3    H216471   6.207   2.870   4.350
 5489TIP3   OH216472   0.220   2.942   2.356
 5489TIP3    H116473   0.219   3.003   2.430
 5489TIP3    H216474   0.306   2.954   2.317
 5490TIP3   OH216475   3.744   5.373   2.716
 5490TIP3    H116476   3.838   5.387   2.723
 5490TIP3    H216477   3.713   5.371   2.807
 5491TIP3   OH216478   3.835   0.098   0.257
 5491TIP3    H116479   3.886   0.177   0.240
 5491TIP3    H216480   3.762   0.102   0.196
 5492TIP3   OH216481   2.462   2.699   1.121
 5492TIP3    H116482   2.479   2.781   1.168
 5492TIP3    H216483   2.508   2.633   1.173
 5493TIP3   OH216484   1.778   1.091   3.801
 5493TIP3    H116485   1.868   1.091   3.833
 5493TIP3    H216486   1.751   1.182   3.805
 5494TIP3   OH216487   1.201   3.478   1.861
 5494TIP3    H116488   1.139   3.455   1.930
 5494TIP3    H216489   1.235   3.394   1.830
 5495TIP3   OH216490   6.166   5.517   2.378
 5495TIP3    H116491   6.131   5.435   2.413
 5495TIP3    H216492   6.240   5.537   2.435
 5496TIP3   OH216493   4.682   1.347  -0.029
 5496TIP3    H116494   4.754   1.358   0.033
 5496TIP3    H216495   4.604   1.343   0.027
 5497TIP3   OH216496   4.628   2.246   2.443
 5497TIP3    H116497   4.587   2.189   2.507
 5497TIP3    H216498   4.634   2.331   2.486
 5498TIP3   OH216499   3.650   2.044   2.699
 5498TIP3    H116500   3.587   1.973   2.699
 5498TIP3    H216501   3.731   2.005   2.733
 5499TIP3   OH216502   0.178   3.250   2.573
 5499TIP3    H116503   0.126   3.244   2.653
 5499TIP3    H216504   0.218   3.338   2.578
 5500TIP3   OH216505   3.317   2.901   0.386
 5500TIP3    H116506   3.296   2.937   0.472
 5500TIP3    H216507   3.410   2.920   0.373
 5501TIP3   OH216508   2.901   0.845   4.759
 5501TIP3    H116509   2.853   0.772   4.721
 5501TIP3    H216510   2.875   0.921   4.706
 5502TIP3   OH216511   1.279   4.833   2.667
 5502TIP3    H116512   1.243   4.921   2.672
 5502TIP3    H216513   1.216   4.779   2.716
 5503TIP3   OH216514   1.419   0.802   3.431
 5503TIP3    H116515   1.469   0.872   3.472
 5503TIP3    H216516   1.478   0.726   3.432
 5504TIP3   OH216517   6.041   3.848   1.846
 5504TIP3    H116518   5.997   3.765   1.830
 5504TIP3    H216519   6.026   3.899   1.767
 5505TIP3   OH216520   2.585   3.166   3.993
 5505TIP3    H116521   2.528   3.243   4.003
 5505TIP3    H216522   2.672   3.198   4.014
 5506TIP3   OH216523   5.577   2.830   1.414
 5506TIP3    H116524   5.568   2.923   1.432
 5506TIP3    H216525   5.625   2.795   1.489
 5507TIP3   OH216526   6.087   5.704   3.491
 5507TIP3    H116527   6.119   5.636   3.432
 5507TIP3    H216528   5.998   5.676   3.514
 5508TIP3   OH216529   2.265   5.070   2.498
 5508TIP3    H116530   2.210   5.084   2.575
 5508TIP3    H216531   2.204   5.073   2.424
 5509TIP3   OH216532   3.992   1.490   2.693
 5509TIP3    H116533   3.913   1.500   2.641
 5509TIP3    H216534   3.987   1.401   2.728
 5510TIP3   OH216535   5.805   3.074   5.127
 5510TIP3    H116536   5.766   3.156   5.157
 5510TIP3    H216537   5.732   3.011   5.128
 5511TIP3   OH216538   2.659   5.983   4.308
 5511TIP3    H116539   2.744   5.939   4.309
 5511TIP3    H216540   2.636   5.994   4.401
 5512TIP3   OH216541   2.585   2.921   1.520
 5512TIP3    H116542   2.595   2.851   1.584
 5512TIP3    H216543   2.614   2.882   1.437
 5513TIP3   OH216544   1.295   2.428   2.011
 5513TIP3    H116545   1.349   2.350   2.024
 5513TIP3    H216546   1.217   2.396   1.967
 5514TIP3   OH216547   4.054   2.553   3.082
 5514TIP3    H116548   3.970   2.599   3.086
 5514TIP3    H216549   4.109   2.598   3.146
 5515TIP3   OH216550   5.181   0.692   2.505
 5515TIP3    H116551   5.129   0.630   2.556
 5515TIP3    H216552   5.229   0.638   2.443
 5516TIP3   OH216553   4.777   4.001   3.039
 5516TIP3    H116554   4.747   4.060   3.108
 5516TIP3    H216555   4.871   4.018   3.032
 5517TIP3   OH216556   0.000   5.403   1.139
 5517TIP3    H116557  -0.069   5.411   1.204
 5517TIP3    H216558   0.077   5.375   1.188
 5518TIP3   OH216559   1.593   3.386   2.118
 5518TIP3    H116560   1.500   3.400   2.134
 5518TIP3    H216561   1.601   3.292   2.105
 5519TIP3   OH216562   6.195   1.529   3.341
 5519TIP3    H116563   6.174   1.450   3.390
 5519TIP3    H216564   6.118   1.584   3.350
 5520TIP3   OH216565   3.157   4.342   0.714
 5520TIP3    H116566   3.115   4.257   0.727
 5520TIP3    H216567   3.209   4.355   0.793
 5521TIP3   OH216568   3.819   5.657   3.343
 5521TIP3    H116569   3.757   5.590   3.315
 5521TIP3    H216570   3.841   5.704   3.263
 5522TIP3   OH216571   2.575   4.366   3.294
 5522TIP3    H116572   2.580   4.459   3.317
 5522TIP3    H216573   2.644   4.354   3.229
 5523TIP3   OH216574   3.058   5.744   3.413
 5523TIP3    H116575   3.042   5.672   3.353
 5523TIP3    H216576   3.142   5.724   3.453
 5524TIP3   OH216577   6.198   0.721   0.675
 5524TIP3    H116578   6.158   0.693   0.593
 5524TIP3    H216579   6.206   0.641   0.727
 5525TIP3   OH216580   3.382   0.978   0.704
 5525TIP3    H116581   3.463   0.961   0.752
 5525TIP3    H216582   3.354   0.891   0.673
 5526TIP3   OH216583   0.415   1.540   1.474
 5526TIP3    H116584   0.343   1.563   1.532
 5526TIP3    H216585   0.377   1.477   1.412
 5527TIP3   OH216586   0.533   1.050   4.784
 5527TIP3    H116587   0.597   0.999   4.734
 5527TIP3    H216588   0.584   1.094   4.852
 5528TIP3   OH216589   3.244   0.235   4.786
 5528TIP3    H116590   3.252   0.307   4.723
 5528TIP3    H216591   3.239   0.279   4.871
 5529TIP3   OH216592   0.052   4.239   1.434
 5529TIP3    H116593   0.137   4.262   1.472
 5529TIP3    H216594   0.041   4.300   1.361
 5530TIP3   OH216595   6.151   5.564   0.537
 5530TIP3    H116596   6.058   5.553   0.516
 5530TIP3    H216597   6.196   5.554   0.453
 5531TIP3   OH216598   1.948   1.823   4.326
 5531TIP3    H116599   1.908   1.896   4.375
 5531TIP3    H216600   1.937   1.747   4.384
 5532TIP3   OH216601   5.114   5.267   4.132
 5532TIP3    H116602   5.053   5.207   4.089
 5532TIP3    H216603   5.145   5.219   4.208
 5533TIP3   OH216604   5.069   5.753   2.353
 5533TIP3    H116605   5.127   5.699   2.407
 5533TIP3    H216606   5.024   5.691   2.296
 5534TIP3   OH216607   4.050   2.106   2.760
 5534TIP3    H116608   4.062   2.103   2.665
 5534TIP3    H216609   3.971   2.160   2.772
 5535TIP3   OH216610   3.171   0.643   2.055
 5535TIP3    H116611   3.227   0.587   2.003
 5535TIP3    H216612   3.192   0.621   2.146
 5536TIP3   OH216613   1.323   5.150   0.720
 5536TIP3    H116614   1.346   5.058   0.705
 5536TIP3    H216615   1.256   5.147   0.789
 5537TIP3   OH216616   2.656   5.830   2.779
 5537TIP3    H116617   2.650   5.771   2.703
 5537TIP3    H216618   2.750   5.832   2.800
 5538TIP3   OH216619   5.530   2.923   1.116
 5538TIP3    H116620   5.569   2.930   1.029
 5538TIP3    H216621   5.603   2.935   1.177
 5539TIP3   OH216622   0.525   4.846   3.333
 5539TIP3    H116623   0.451   4.792   3.304
 5539TIP3    H216624   0.487   4.931   3.352
 5540TIP3   OH216625   6.329   3.560   3.482
 5540TIP3    H116626   6.296   3.600   3.562
 5540TIP3    H216627   6.342   3.633   3.422
 5541TIP3   OH216628   3.361   1.904   0.683
 5541TIP3    H116629   3.392   1.837   0.623
 5541TIP3    H216630   3.412   1.982   0.661
 5542TIP3   OH216631   3.919   0.006   0.563
 5542TIP3    H116632   3.832  -0.022   0.593
 5542TIP3    H216633   3.901   0.072   0.496
 5543TIP3   OH216634   2.994   5.561   0.496
 5543TIP3    H116635   3.004   5.648   0.535
 5543TIP3    H216636   2.948   5.576   0.414
 5544TIP3   OH216637   1.421   2.649   2.088
 5544TIP3    H116638   1.475   2.619   2.161
 5544TIP3    H216639   1.376   2.570   2.057
 5545TIP3   OH216640   1.735   1.198   0.785
 5545TIP3    H116641   1.697   1.218   0.870
 5545TIP3    H216642   1.739   1.102   0.782
 5546TIP3   OH216643   0.446   4.996   3.640
 5546TIP3    H116644   0.530   5.013   3.597
 5546TIP3    H216645   0.453   5.041   3.724
 5547TIP3   OH216646   6.227   0.188   4.314
 5547TIP3    H116647   6.215   0.274   4.274
 5547TIP3    H216648   6.263   0.206   4.400
 5548TIP3   OH216649   2.913   3.152   0.063
 5548TIP3    H116650   2.907   3.065   0.025
 5548TIP3    H216651   2.863   3.147   0.144
 5549TIP3   OH216652   0.652   3.874   0.022
 5549TIP3    H116653   0.569   3.915   0.044
 5549TIP3    H216654   0.664   3.806   0.088
 5550TIP3   OH216655   2.751   1.010   1.658
 5550TIP3    H116656   2.815   0.972   1.598
 5550TIP3    H216657   2.695   0.937   1.684
 5551TIP3   OH216658   0.070   3.209   2.836
 5551TIP3    H116659   0.001   3.148   2.863
 5551TIP3    H216660   0.138   3.198   2.902
 5552TIP3   OH216661   2.377   1.560   2.228
 5552TIP3    H116662   2.304   1.616   2.254
 5552TIP3    H216663   2.448   1.584   2.288
 5553TIP3   OH216664   2.898   5.697   2.736
 5553TIP3    H116665   2.942   5.704   2.651
 5553TIP3    H216666   2.936   5.619   2.777
 5554TIP3   OH216667   2.425   5.089   1.356
 5554TIP3    H116668   2.485   5.082   1.430
 5554TIP3    H216669   2.476   5.062   1.280
 5555TIP3   OH216670   0.230   4.206   3.752
 5555TIP3    H116671   0.264   4.210   3.663
 5555TIP3    H216672   0.202   4.115   3.764
 5556TIP3   OH216673   0.394   0.534   1.815
 5556TIP3    H116674   0.411   0.587   1.893
 5556TIP3    H216675   0.300   0.518   1.816
 5557TIP3   OH216676   2.099   0.566   2.342
 5557TIP3    H116677   2.098   0.634   2.274
 5557TIP3    H216678   2.028   0.591   2.401
 5558TIP3   OH216679   2.059   4.762   4.176
 5558TIP3    H116680   2.060   4.799   4.088
 5558TIP3    H216681   1.985   4.805   4.219
 5559TIP3   OH216682   6.199   1.094   0.918
 5559TIP3    H116683   6.214   1.160   0.851
 5559TIP3    H216684   6.137   1.033   0.878
 5560TIP3   OH216685   2.909   1.483   3.590
 5560TIP3    H116686   2.880   1.565   3.550
 5560TIP3    H216687   2.962   1.441   3.523
 5561TIP3   OH216688   5.570   5.363   0.996
 5561TIP3    H116689   5.476   5.348   0.990
 5561TIP3    H216690   5.589   5.425   0.925
 5562TIP3   OH216691   3.668   4.667   3.359
 5562TIP3    H116692   3.681   4.758   3.331
 5562TIP3    H216693   3.729   4.617   3.305
 5563TIP3   OH216694   6.323   2.557   3.496
 5563TIP3    H116695   6.248   2.558   3.436
 5563TIP3    H216696   6.329   2.467   3.526
 5564TIP3   OH216697   2.129   4.795   3.784
 5564TIP3    H116698   2.069   4.845   3.840
 5564TIP3    H216699   2.152   4.855   3.714
 5565TIP3   OH216700   2.778   1.251   0.344
 5565TIP3    H116701   2.728   1.245   0.425
 5565TIP3    H216702   2.768   1.341   0.315
 5566TIP3   OH216703   5.774   1.352   0.283
 5566TIP3    H116704   5.707   1.306   0.334
 5566TIP3    H216705   5.844   1.288   0.271
 5567TIP3   OH216706   4.572   2.761   2.605
 5567TIP3    H116707   4.542   2.670   2.610
 5567TIP3    H216708   4.526   2.805   2.677
 5568TIP3   OH216709   5.382   0.182   4.850
 5568TIP3    H116710   5.396   0.160   4.942
 5568TIP3    H216711   5.349   0.101   4.810
 5569TIP3   OH216712   2.066   2.579   4.107
 5569TIP3    H116713   2.060   2.569   4.202
 5569TIP3    H216714   2.066   2.674   4.092
 5570TIP3   OH216715   1.960   3.976   2.366
 5570TIP3    H116716   1.916   4.058   2.389
 5570TIP3    H216717   2.007   3.996   2.285
 5571TIP3   OH216718   5.755   0.845   4.130
 5571TIP3    H116719   5.693   0.773   4.135
 5571TIP3    H216720   5.834   0.812   4.172
 5572TIP3   OH216721   0.067   4.696   2.198
 5572TIP3    H116722   0.144   4.745   2.170
 5572TIP3    H216723   0.097   4.646   2.274
 5573TIP3   OH216724   1.507   5.057   4.361
 5573TIP3    H116725   1.586   5.105   4.337
 5573TIP3    H216726   1.466   5.033   4.278
 5574TIP3   OH216727   2.264   1.492   3.931
 5574TIP3    H116728   2.274   1.586   3.946
 5574TIP3    H216729   2.325   1.473   3.860
 5575TIP3   OH216730   4.889   3.867   3.704
 5575TIP3    H116731   4.944   3.883   3.627
 5575TIP3    H216732   4.867   3.774   3.700
 5576TIP3   OH216733   4.140   3.505   1.961
 5576TIP3    H116734   4.236   3.499   1.956
 5576TIP3    H216735   4.110   3.486   1.872
 5577TIP3   OH216736   6.279   0.502   0.825
 5577TIP3    H116737   6.266   0.409   0.843
 5577TIP3    H216738   6.297   0.506   0.731
 5578TIP3   OH216739   1.063   5.634   3.757
 5578TIP3    H116740   1.102   5.565   3.812
 5578TIP3    H216741   1.118   5.711   3.774
 5579TIP3   OH216742   0.620   5.959   3.049
 5579TIP3    H116743   0.609   5.864   3.054
 5579TIP3    H216744   0.535   5.995   3.072
 5580TIP3   OH216745   1.301   4.565   0.178
 5580TIP3    H116746   1.255   4.627   0.123
 5580TIP3    H216747   1.384   4.550   0.133
 5581TIP3   OH216748   6.026   4.008   2.663
 5581TIP3    H116749   6.095   4.005   2.730
 5581TIP3    H216750   5.959   3.948   2.695
 5582TIP3   OH216751   4.976   1.966   0.772
 5582TIP3    H116752   4.956   1.993   0.861
 5582TIP3    H216753   4.992   2.049   0.725
 5583TIP3   OH216754   2.874   1.047   4.543
 5583TIP3    H116755   2.786   1.011   4.526
 5583TIP3    H216756   2.889   1.107   4.470
 5584TIP3   OH216757   4.853   1.239   2.547
 5584TIP3    H116758   4.872   1.145   2.548
 5584TIP3    H216759   4.815   1.256   2.461
 5585TIP3   OH216760   5.348   4.330   2.583
 5585TIP3    H116761   5.254   4.331   2.565
 5585TIP3    H216762   5.388   4.362   2.502
 5586TIP3   OH216763   6.325   2.363   2.400
 5586TIP3    H116764   6.361   2.274   2.397
 5586TIP3    H216765   6.252   2.357   2.462
 5587TIP3   OH216766   5.622   1.180   4.616
 5587TIP3    H116767   5.686   1.251   4.625
 5587TIP3    H216768   5.665   1.105   4.656
 5588TIP3   OH216769   5.434   5.598   2.228
 5588TIP3    H116770   5.516   5.624   2.270
 5588TIP3    H216771   5.398   5.530   2.285
 5589TIP3   OH216772   6.105   1.947   1.207
 5589TIP3    H116773   6.032   1.994   1.166
 5589TIP3    H216774   6.090   1.855   1.184
 5590TIP3   OH216775   4.843   0.148   4.561
 5590TIP3    H116776   4.748   0.135   4.564
 5590TIP3    H216777   4.857   0.234   4.601
 5591TIP3   OH216778   4.548   1.260   2.634
 5591TIP3    H116779   4.584   1.253   2.723
 5591TIP3    H216780   4.569   1.349   2.607
 5592TIP3   OH216781   4.027   1.892   0.772
 5592TIP3    H116782   3.976   1.884   0.692
 5592TIP3    H216783   4.100   1.949   0.749
 5593TIP3   OH216784   5.654   3.895   2.117
 5593TIP3    H116785   5.706   3.856   2.047
 5593TIP3    H216786   5.719   3.930   2.178
 5594TIP3   OH216787   6.178   5.875   0.415
 5594TIP3    H116788   6.106   5.920   0.371
 5594TIP3    H216789   6.175   5.906   0.505
 5595TIP3   OH216790   3.259   3.152   0.005
 5595TIP3    H116791   3.227   3.234   0.043
 5595TIP3    H216792   3.226   3.084   0.064
 5596TIP3   OH216793   5.034   5.764   3.743
 5596TIP3    H116794   5.113   5.743   3.793
 5596TIP3    H216795   4.962   5.750   3.804
 5597TIP3   OH216796   5.669   1.548   1.428
 5597TIP3    H116797   5.754   1.534   1.469
 5597TIP3    H216798   5.610   1.566   1.501
 5598TIP3   OH216799   4.092   4.467   2.228
 5598TIP3    H116800   4.086   4.467   2.133
 5598TIP3    H216801   4.186   4.472   2.247
 5599TIP3   OH216802   3.254   4.240   4.443
 5599TIP3    H116803   3.209   4.314   4.483
 5599TIP3    H216804   3.265   4.266   4.351
 5600TIP3   OH216805   2.018   1.502   0.805
 5600TIP3    H116806   2.038   1.519   0.898
 5600TIP3    H216807   2.040   1.585   0.761
 5601TIP3   OH216808   2.617   1.751   0.621
 5601TIP3    H116809   2.650   1.825   0.569
 5601TIP3    H216810   2.696   1.709   0.655
 5602TIP3   OH216811   6.260   1.171   3.760
 5602TIP3    H116812   6.167   1.167   3.739
 5602TIP3    H216813   6.303   1.120   3.692
 5603TIP3   OH216814   3.458   1.342   1.745
 5603TIP3    H116815   3.522   1.286   1.702
 5603TIP3    H216816   3.393   1.282   1.781
 5604TIP3   OH216817   5.719   1.144   1.787
 5604TIP3    H116818   5.714   1.201   1.710
 5604TIP3    H216819   5.810   1.148   1.814
 5605TIP3   OH216820   4.168   4.068   2.729
 5605TIP3    H116821   4.138   4.150   2.768
 5605TIP3    H216822   4.191   4.013   2.803
 5606TIP3   OH216823   5.608   3.001   4.397
 5606TIP3    H116824   5.637   3.086   4.364
 5606TIP3    H216825   5.528   2.982   4.347
 5607TIP3   OH216826   0.637   4.605   5.192
 5607TIP3    H116827   0.620   4.629   5.101
 5607TIP3    H216828   0.636   4.688   5.240
 5608TIP3   OH216829   1.484   0.541   2.818
 5608TIP3    H116830   1.465   0.600   2.891
 5608TIP3    H216831   1.535   0.471   2.858
 5609TIP3   OH216832   2.697   1.869   0.362
 5609TIP3    H116833   2.686   1.910   0.277
 5609TIP3    H216834   2.623   1.902   0.414
 5610TIP3   OH216835   3.973   1.166   4.174
 5610TIP3    H116836   4.064   1.135   4.173
 5610TIP3    H216837   3.928   1.112   4.110
 5611TIP3   OH216838   2.471   1.668   3.514
 5611TIP3    H116839   2.476   1.650   3.420
 5611TIP3    H216840   2.426   1.752   3.521
 5612TIP3   OH216841   4.116   5.259   4.726
 5612TIP3    H116842   4.073   5.198   4.787
 5612TIP3    H216843   4.050   5.326   4.709
 5613TIP3   OH216844   1.337   4.787   2.394
 5613TIP3    H116845   1.327   4.795   2.489
 5613TIP3    H216846   1.254   4.750   2.364
 5614TIP3   OH216847   0.995   3.812   3.986
 5614TIP3    H116848   1.006   3.717   3.996
 5614TIP3    H216849   0.942   3.838   4.061
 5615TIP3   OH216850   6.276   0.270   3.984
 5615TIP3    H116851   6.193   0.228   4.007
 5615TIP3    H216852   6.304   0.313   4.065
 5616TIP3   OH216853   5.343   1.414   0.652
 5616TIP3    H116854   5.287   1.375   0.585
 5616TIP3    H216855   5.287   1.425   0.728
 5617TIP3   OH216856   1.480   4.928   0.453
 5617TIP3    H116857   1.432   4.944   0.372
 5617TIP3    H216858   1.498   4.834   0.453
 5618TIP3   OH216859   4.152   3.238   4.373
 5618TIP3    H116860   4.162   3.263   4.281
 5618TIP3    H216861   4.194   3.152   4.380
 5619TIP3   OH216862   2.582   0.348   2.765
 5619TIP3    H116863   2.676   0.331   2.773
 5619TIP3    H216864   2.572   0.391   2.680
 5620TIP3   OH216865   0.252   2.747   0.850
 5620TIP3    H116866   0.329   2.791   0.813
 5620TIP3    H216867   0.262   2.655   0.825
 5621TIP3   OH216868   0.742   1.620   4.201
 5621TIP3    H116869   0.768   1.567   4.277
 5621TIP3    H216870   0.824   1.639   4.156
 5622TIP3   OH216871   3.162   5.913   1.400
 5622TIP3    H116872   3.253   5.942   1.396
 5622TIP3    H216873   3.133   5.938   1.487
 5623TIP3   OH216874   0.434   4.180   3.313
 5623TIP3    H116875   0.485   4.193   3.393
 5623TIP3    H216876   0.347   4.155   3.344
 5624TIP3   OH216877   4.607   2.385   3.523
 5624TIP3    H116878   4.592   2.295   3.496
 5624TIP3    H216879   4.667   2.420   3.458
 5625TIP3   OH216880   2.026   1.929   1.168
 5625TIP3    H116881   1.979   1.999   1.124
 5625TIP3    H216882   1.969   1.904   1.241
 5626TIP3   OH216883   3.347   3.512   4.731
 5626TIP3    H116884   3.405   3.585   4.706
 5626TIP3    H216885   3.392   3.434   4.700
 5627TIP3   OH216886   4.301   0.873   2.719
 5627TIP3    H116887   4.309   0.939   2.788
 5627TIP3    H216888   4.207   0.852   2.717
 5628TIP3   OH216889   4.735   1.920   1.931
 5628TIP3    H116890   4.817   1.947   1.891
 5628TIP3    H216891   4.757   1.903   2.022
 5629TIP3   OH216892   0.917   1.516   5.025
 5629TIP3    H116893   0.914   1.559   5.110
 5629TIP3    H216894   1.006   1.481   5.019
 5630TIP3   OH216895   2.265   0.108   4.043
 5630TIP3    H116896   2.333   0.165   4.079
 5630TIP3    H216897   2.186   0.132   4.091
 5631TIP3   OH216898   2.203   2.355   4.565
 5631TIP3    H116899   2.225   2.314   4.481
 5631TIP3    H216900   2.249   2.302   4.630
 5632TIP3   OH216901   5.603   2.596   5.112
 5632TIP3    H116902   5.561   2.518   5.075
 5632TIP3    H216903   5.566   2.603   5.200
 5633TIP3   OH216904   2.317   1.417   0.980
 5633TIP3    H116905   2.335   1.504   0.945
 5633TIP3    H216906   2.253   1.380   0.918
 5634TIP3   OH216907   3.213   1.582   4.884
 5634TIP3    H116908   3.196   1.609   4.974
 5634TIP3    H216909   3.158   1.639   4.831
 5635TIP3   OH216910   0.778   1.440   3.710
 5635TIP3    H116911   0.720   1.372   3.675
 5635TIP3    H216912   0.785   1.505   3.639
 5636TIP3   OH216913   1.439   5.196   3.935
 5636TIP3    H116914   1.467   5.257   3.867
 5636TIP3    H216915   1.360   5.235   3.972
 5637TIP3   OH216916   4.004   0.151   1.097
 5637TIP3    H116917   3.909   0.148   1.085
 5637TIP3    H216918   4.022   0.089   1.167
 5638TIP3   OH216919   1.262   4.377   2.145
 5638TIP3    H116920   1.305   4.308   2.195
 5638TIP3    H216921   1.333   4.423   2.100
 5639TIP3   OH216922   5.414   4.779   4.111
 5639TIP3    H116923   5.487   4.756   4.055
 5639TIP3    H216924   5.420   4.874   4.121
 5640TIP3   OH216925   5.555   3.258   2.646
 5640TIP3    H116926   5.612   3.311   2.701
 5640TIP3    H216927   5.475   3.246   2.698
 5641TIP3   OH216928   5.313   4.413   0.926
 5641TIP3    H116929   5.390   4.368   0.890
 5641TIP3    H216930   5.312   4.389   1.019
 5642TIP3   OH216931   5.964   0.430   1.414
 5642TIP3    H116932   6.029   0.476   1.362
 5642TIP3    H216933   5.901   0.497   1.440
 5643TIP3   OH216934   2.251   5.352   0.300
 5643TIP3    H116935   2.178   5.390   0.252
 5643TIP3    H216936   2.261   5.264   0.263
 5644TIP3   OH216937   4.136   0.545   4.520
 5644TIP3    H116938   4.041   0.539   4.529
 5644TIP3    H216939   4.150   0.615   4.457
 5645TIP3   OH216940   0.393   1.581   3.478
 5645TIP3    H116941   0.373   1.590   3.385
 5645TIP3    H216942   0.475   1.531   3.481
 5646TIP3   OH216943   0.219   5.529   1.420
 5646TIP3    H116944   0.134   5.571   1.438
 5646TIP3    H216945   0.281   5.602   1.418
 5647TIP3   OH216946   4.657   2.386   0.141
 5647TIP3    H116947   4.717   2.446   0.186
 5647TIP3    H216948   4.672   2.302   0.183
 5648TIP3   OH216949   0.573   1.194   3.917
 5648TIP3    H116950   0.570   1.283   3.952
 5648TIP3    H216951   0.482   1.170   3.903
 5649TIP3   OH216952   3.933   1.014   1.042
 5649TIP3    H116953   3.908   0.930   1.081
 5649TIP3    H216954   3.984   0.990   0.965
 5650TIP3   OH216955   0.297   0.984   4.184
 5650TIP3    H116956   0.256   1.059   4.226
 5650TIP3    H216957   0.254   0.977   4.099
 5651TIP3   OH216958   3.645   3.032   1.896
 5651TIP3    H116959   3.707   2.986   1.952
 5651TIP3    H216960   3.565   3.038   1.948
 5652TIP3   OH216961   0.423   4.727   4.277
 5652TIP3    H116962   0.515   4.720   4.255
 5652TIP3    H216963   0.391   4.637   4.275
 5653TIP3   OH216964   5.264   5.251   2.899
 5653TIP3    H116965   5.282   5.233   2.992
 5653TIP3    H216966   5.194   5.190   2.876
 5654TIP3   OH216967   6.117   5.238   2.288
 5654TIP3    H116968   6.068   5.261   2.209
 5654TIP3    H216969   6.156   5.153   2.269
 5655TIP3   OH216970   2.058   3.864   1.256
 5655TIP3    H116971   2.029   3.954   1.263
 5655TIP3    H216972   2.121   3.854   1.328
 5656TIP3   OH216973   5.994   5.430   2.092
 5656TIP3    H116974   6.054   5.419   2.018
 5656TIP3    H216975   6.006   5.521   2.120
 5657TIP3   OH216976   5.315   3.043   0.285
 5657TIP3    H116977   5.258   3.112   0.251
 5657TIP3    H216978   5.393   3.048   0.231
 5658TIP3   OH216979   3.705   1.247   3.679
 5658TIP3    H116980   3.757   1.285   3.608
 5658TIP3    H216981   3.743   1.284   3.759
 5659TIP3   OH216982   2.980   3.048   1.916
 5659TIP3    H116983   3.022   3.122   1.960
 5659TIP3    H216984   3.052   2.996   1.883
 5660TIP3   OH216985   3.435   3.389   4.452
 5660TIP3    H116986   3.410   3.307   4.495
 5660TIP3    H216987   3.365   3.406   4.390
 5661TIP3   OH216988   2.620   5.224   4.293
 5661TIP3    H116989   2.531   5.259   4.301
 5661TIP3    H216990   2.676   5.297   4.318
 5662TIP3   OH216991   4.283   1.945   1.760
 5662TIP3    H116992   4.188   1.944   1.777
 5662TIP3    H216993   4.292   1.997   1.680
 5663TIP3   OH216994   0.756   2.305   1.979
 5663TIP3    H116995   0.718   2.365   2.044
 5663TIP3    H216996   0.739   2.218   2.015
 5664TIP3   OH216997   1.130   1.370   4.885
 5664TIP3    H116998   1.177   1.431   4.828
 5664TIP3    H216999   1.176   1.287   4.874
 5665TIP3   OH217000   0.181   4.527   0.605
 5665TIP3    H117001   0.106   4.468   0.605
 5665TIP3    H217002   0.153   4.602   0.552
 5666TIP3   OH217003   0.515   0.155   0.708
 5666TIP3    H117004   0.466   0.182   0.630
 5666TIP3    H217005   0.449   0.118   0.766
 5667TIP3   OH217006   1.075   4.096   2.318
 5667TIP3    H117007   1.145   4.161   2.322
 5667TIP3    H217008   1.000   4.139   2.358
 5668TIP3   OH217009   2.292   4.183   1.111
 5668TIP3    H117010   2.234   4.258   1.097
 5668TIP3    H217011   2.292   4.169   1.205
 5669TIP3   OH217012   1.520   2.846   1.201
 5669TIP3    H117013   1.494   2.843   1.109
 5669TIP3    H217014   1.525   2.939   1.222
 5670TIP3   OH217015   1.920   4.438   3.164
 5670TIP3    H117016   1.962   4.357   3.137
 5670TIP3    H217017   1.854   4.412   3.227
 5671TIP3   OH217018   5.154   3.116   4.864
 5671TIP3    H117019   5.146   3.206   4.894
 5671TIP3    H217020   5.099   3.066   4.925
 5672TIP3   OH217021   4.475   1.914   5.124
 5672TIP3    H117022   4.457   1.966   5.046
 5672TIP3    H217023   4.442   1.826   5.103
 5673TIP3   OH217024   1.787   2.108   4.993
 5673TIP3    H117025   1.788   2.132   5.086
 5673TIP3    H217026   1.699   2.131   4.963
 5674TIP3   OH217027   3.025   1.091   4.290
 5674TIP3    H117028   3.043   1.181   4.263
 5674TIP3    H217029   2.946   1.067   4.241
 5675TIP3   OH217030   5.539   2.925   3.390
 5675TIP3    H117031   5.593   2.856   3.352
 5675TIP3    H217032   5.562   2.926   3.483
 5676TIP3   OH217033   1.493   4.821   3.628
 5676TIP3    H117034   1.566   4.762   3.647
 5676TIP3    H217035   1.508   4.848   3.537
 5677TIP3   OH217036   4.596   3.940   1.051
 5677TIP3    H117037   4.678   3.963   1.095
 5677TIP3    H217038   4.537   3.916   1.122
 5678TIP3   OH217039   6.100   3.986   0.474
 5678TIP3    H117040   6.076   4.074   0.442
 5678TIP3    H217041   6.050   3.976   0.556
 5679TIP3   OH217042   1.803   3.855   3.282
 5679TIP3    H117043   1.801   3.929   3.222
 5679TIP3    H217044   1.791   3.893   3.369
 5680TIP3   OH217045   1.747   2.554   3.517
 5680TIP3    H117046   1.719   2.543   3.426
 5680TIP3    H217047   1.734   2.467   3.556
 5681TIP3   OH217048   5.313   1.471   0.264
 5681TIP3    H117049   5.382   1.508   0.210
 5681TIP3    H217050   5.235   1.522   0.242
 5682TIP3   OH217051   4.938   4.249   5.086
 5682TIP3    H117052   4.952   4.170   5.034
 5682TIP3    H217053   4.992   4.236   5.164
 5683TIP3   OH217054   0.489   1.409   0.393
 5683TIP3    H117055   0.481   1.314   0.387
 5683TIP3    H217056   0.487   1.440   0.303
 5684TIP3   OH217057   3.333   5.497   2.883
 5684TIP3    H117058   3.427   5.516   2.880
 5684TIP3    H217059   3.290   5.580   2.864
 5685TIP3   OH217060   2.858   2.222   0.628
 5685TIP3    H117061   2.867   2.314   0.654
 5685TIP3    H217062   2.853   2.225   0.532
 5686TIP3   OH217063   4.865   1.415   3.279
 5686TIP3    H117064   4.869   1.499   3.234
 5686TIP3    H217065   4.942   1.367   3.247
 5687TIP3   OH217066   4.194   4.934   0.383
 5687TIP3    H117067   4.232   4.940   0.295
 5687TIP3    H217068   4.257   4.978   0.440
 5688TIP3   OH217069   0.873   0.231   4.987
 5688TIP3    H117070   0.861   0.239   5.082
 5688TIP3    H217071   0.961   0.265   4.971
 5689TIP3   OH217072   2.414   3.466   3.248
 5689TIP3    H117073   2.416   3.505   3.160
 5689TIP3    H217074   2.324   3.477   3.278
 5690TIP3   OH217075   0.961   5.794   3.491
 5690TIP3    H117076   0.930   5.730   3.427
 5690TIP3    H217077   0.941   5.755   3.576
 5691TIP3   OH217078   3.947   2.595   4.337
 5691TIP3    H117079   3.914   2.506   4.348
 5691TIP3    H217080   3.974   2.621   4.425
 5692TIP3   OH217081   0.666   0.963   0.406
 5692TIP3    H117082   0.748   0.925   0.376
 5692TIP3    H217083   0.621   0.892   0.451
 5693TIP3   OH217084   2.042   4.465   1.658
 5693TIP3    H117085   2.136   4.460   1.636
 5693TIP3    H217086   2.016   4.374   1.669
 5694TIP3   OH217087   4.089   2.110   4.341
 5694TIP3    H117088   4.076   2.199   4.307
 5694TIP3    H217089   4.145   2.121   4.417
 5695TIP3   OH217090   6.133   4.614   1.252
 5695TIP3    H117091   6.063   4.677   1.267
 5695TIP3    H217092   6.214   4.663   1.268
 5696TIP3   OH217093   2.236   3.560   1.271
 5696TIP3    H117094   2.261   3.638   1.221
 5696TIP3    H217095   2.299   3.556   1.343
 5697TIP3   OH217096   5.548   3.459  -0.002
 5697TIP3    H117097   5.644   3.468  -0.004
 5697TIP3    H217098   5.521   3.504   0.077
 5698TIP3   OH217099   1.554   0.137   4.467
 5698TIP3    H117100   1.497   0.064   4.493
 5698TIP3    H217101   1.638   0.095   4.447
 5699TIP3   OH217102   0.755   1.062   2.749
 5699TIP3    H117103   0.704   1.116   2.689
 5699TIP3    H217104   0.704   1.060   2.830
 5700TIP3   OH217105   3.409   2.920   4.379
 5700TIP3    H117106   3.475   2.855   4.356
 5700TIP3    H217107   3.429   2.943   4.470
 5701TIP3   OH217108   3.329   1.205   1.030
 5701TIP3    H117109   3.393   1.243   1.090
 5701TIP3    H217110   3.348   1.245   0.945
 5702TIP3   OH217111   0.926   3.410   2.030
 5702TIP3    H117112   0.893   3.401   1.941
 5702TIP3    H217113   0.903   3.328   2.073
 5703TIP3   OH217114   4.059   5.362   4.307
 5703TIP3    H117115   4.081   5.332   4.395
 5703TIP3    H217116   4.056   5.457   4.314
 5704TIP3   OH217117   5.239   0.518   5.123
 5704TIP3    H117118   5.191   0.597   5.101
 5704TIP3    H217119   5.255   0.525   5.217
 5705TIP3   OH217120   4.467   5.322   3.969
 5705TIP3    H117121   4.422   5.399   4.003
 5705TIP3    H217122   4.511   5.284   4.045
 5706TIP3   OH217123   5.879   0.613   0.203
 5706TIP3    H117124   5.822   0.657   0.266
 5706TIP3    H217125   5.820   0.577   0.137
 5707TIP3   OH217126   0.787   0.387   3.166
 5707TIP3    H117127   0.756   0.366   3.254
 5707TIP3    H217128   0.744   0.323   3.109
 5708TIP3   OH217129   1.319   2.761   0.401
 5708TIP3    H117130   1.411   2.759   0.428
 5708TIP3    H217131   1.317   2.826   0.330
 5709TIP3   OH217132   4.311   1.467   2.600
 5709TIP3    H117133   4.227   1.421   2.602
 5709TIP3    H217134   4.373   1.402   2.568
 5710TIP3   OH217135   3.546   4.042   0.099
 5710TIP3    H117136   3.610   3.986   0.055
 5710TIP3    H217137   3.596   4.083   0.170
 5711TIP3   OH217138   0.363   3.079   3.901
 5711TIP3    H117139   0.268   3.074   3.917
 5711TIP3    H217140   0.371   3.095   3.807
 5712TIP3   OH217141   0.295   1.365   0.635
 5712TIP3    H117142   0.389   1.346   0.635
 5712TIP3    H217143   0.262   1.325   0.714
 5713TIP3   OH217144   2.264   1.095   4.488
 5713TIP3    H117145   2.262   1.160   4.418
 5713TIP3    H217146   2.243   1.012   4.445
 5714TIP3   OH217147   3.850   5.512   5.004
 5714TIP3    H117148   3.774   5.560   5.039
 5714TIP3    H217149   3.849   5.533   4.911
 5715TIP3   OH217150   2.810   0.465   2.199
 5715TIP3    H117151   2.765   0.400   2.253
 5715TIP3    H217152   2.812   0.544   2.253
 5716TIP3   OH217153   1.007   2.142   3.035
 5716TIP3    H117154   1.062   2.070   3.002
 5716TIP3    H217155   0.972   2.183   2.957
 5717TIP3   OH217156   2.111   0.745   2.097
 5717TIP3    H117157   2.071   0.820   2.142
 5717TIP3    H217158   2.050   0.726   2.026
 5718TIP3   OH217159   5.886   3.034   3.098
 5718TIP3    H117160   5.924   2.948   3.114
 5718TIP3    H217161   5.883   3.042   3.003
 5719TIP3   OH217162   5.902   4.881   0.181
 5719TIP3    H117163   5.849   4.801   0.173
 5719TIP3    H217164   5.926   4.885   0.273
 5720TIP3   OH217165   4.365   1.122   3.922
 5720TIP3    H117166   4.340   1.043   3.875
 5720TIP3    H217167   4.315   1.119   4.003
 5721TIP3   OH217168   6.379   2.014   3.231
 5721TIP3    H117169   6.337   2.100   3.229
 5721TIP3    H217170   6.316   1.956   3.188
 5722TIP3   OH217171   3.766   5.664   0.731
 5722TIP3    H117172   3.776   5.695   0.821
 5722TIP3    H217173   3.685   5.707   0.700
 5723TIP3   OH217174   4.731   1.444   5.131
 5723TIP3    H117175   4.744   1.530   5.172
 5723TIP3    H217176   4.746   1.459   5.038
 5724TIP3   OH217177   1.311  -0.011   4.469
 5724TIP3    H117178   1.323   0.029   4.556
 5724TIP3    H217179   1.221   0.010   4.446
 5725TIP3   OH217180   4.979   2.549   4.823
 5725TIP3    H117181   4.987   2.514   4.734
 5725TIP3    H217182   4.909   2.614   4.816
 5726TIP3   OH217183   5.667   1.168   2.386
 5726TIP3    H117184   5.659   1.188   2.480
 5726TIP3    H217185   5.738   1.104   2.382
 5727TIP3   OH217186   5.374   5.787   0.754
 5727TIP3    H117187   5.291   5.753   0.720
 5727TIP3    H217188   5.440   5.725   0.721
 5728TIP3   OH217189   6.132   4.441   3.712
 5728TIP3    H117190   6.193   4.411   3.645
 5728TIP3    H217191   6.050   4.458   3.665
 5729TIP3   OH217192   3.535   5.348   4.970
 5729TIP3    H117193   3.459   5.399   4.941
 5729TIP3    H217194   3.582   5.406   5.029
 5730TIP3   OH217195   6.314   1.623   0.082
 5730TIP3    H117196   6.322   1.626   0.177
 5730TIP3    H217197   6.279   1.536   0.064
 5731TIP3   OH217198   4.827   3.166   3.326
 5731TIP3    H117199   4.872   3.082   3.330
 5731TIP3    H217200   4.738   3.148   3.356
 5732TIP3   OH217201   1.380   3.492   4.710
 5732TIP3    H117202   1.360   3.482   4.803
 5732TIP3    H217203   1.474   3.476   4.703
 5733TIP3   OH217204   4.550   5.587   3.800
 5733TIP3    H117205   4.487   5.550   3.862
 5733TIP3    H217206   4.498   5.647   3.746
 5734TIP3   OH217207   5.096   4.200   4.700
 5734TIP3    H117208   5.022   4.179   4.758
 5734TIP3    H217209   5.144   4.117   4.692
 5735TIP3   OH217210   2.135   0.090   1.700
 5735TIP3    H117211   2.196   0.038   1.647
 5735TIP3    H217212   2.056   0.036   1.705
 5736TIP3   OH217213   4.995   3.598   4.987
 5736TIP3    H117214   5.067   3.612   5.049
 5736TIP3    H217215   5.014   3.657   4.914
 5737TIP3   OH217216   3.361   5.708   3.316
 5737TIP3    H117217   3.415   5.786   3.302
 5737TIP3    H217218   3.390   5.647   3.249
 5738TIP3   OH217219   0.517   2.732   0.428
 5738TIP3    H117220   0.452   2.785   0.473
 5738TIP3    H217221   0.467   2.682   0.363
 5739TIP3   OH217222   5.926   2.115   3.421
 5739TIP3    H117223   5.921   2.127   3.327
 5739TIP3    H217224   6.019   2.102   3.439
 5740TIP3   OH217225   4.498   4.621   2.195
 5740TIP3    H117226   4.586   4.581   2.193
 5740TIP3    H217227   4.461   4.599   2.110
 5741TIP3   OH217228   4.099   5.926   3.297
 5741TIP3    H117229   4.152   5.873   3.357
 5741TIP3    H217230   4.019   5.946   3.346
 5742TIP3   OH217231   5.230   5.519   3.452
 5742TIP3    H117232   5.253   5.436   3.493
 5742TIP3    H217233   5.279   5.519   3.370
 5743TIP3   OH217234   3.126   4.166   2.395
 5743TIP3    H117235   3.056   4.205   2.342
 5743TIP3    H217236   3.081   4.138   2.475
 5744TIP3   OH217237   0.637   4.277   3.826
 5744TIP3    H117238   0.644   4.246   3.736
 5744TIP3    H217239   0.714   4.241   3.871
 5745TIP3   OH217240   3.562   2.480   3.811
 5745TIP3    H117241   3.612   2.498   3.731
 5745TIP3    H217242   3.606   2.532   3.879
 5746TIP3   OH217243   4.360   1.054   2.914
 5746TIP3    H117244   4.413   1.097   2.847
 5746TIP3    H217245   4.317   1.126   2.960
 5747TIP3   OH217246   2.206   4.920   1.402
 5747TIP3    H117247   2.284   4.964   1.368
 5747TIP3    H217248   2.241   4.845   1.451
 5748TIP3   OH217249   2.948   0.494   1.937
 5748TIP3    H117250   3.033   0.525   1.968
 5748TIP3    H217251   2.892   0.497   2.014
 5749TIP3   OH217252   0.867   0.427   0.445
 5749TIP3    H117253   0.947   0.459   0.486
 5749TIP3    H217254   0.837   0.357   0.504
 5750TIP3   OH217255   1.408   2.735   4.673
 5750TIP3    H117256   1.502   2.745   4.657
 5750TIP3    H217257   1.370   2.731   4.585
 5751TIP3   OH217258   4.252   4.103   1.228
 5751TIP3    H117259   4.340   4.124   1.260
 5751TIP3    H217260   4.261   4.103   1.132
 5752TIP3   OH217261   3.138   3.862  -0.004
 5752TIP3    H117262   3.197   3.855   0.071
 5752TIP3    H217263   3.173   3.935  -0.056
 5753TIP3   OH217264   5.496   4.096   2.550
 5753TIP3    H117265   5.506   4.063   2.461
 5753TIP3    H217266   5.417   4.150   2.547
 5754TIP3   OH217267   3.292   3.559   0.876
 5754TIP3    H117268   3.258   3.619   0.942
 5754TIP3    H217269   3.217   3.540   0.820
 5755TIP3   OH217270   3.874   0.761   1.159
 5755TIP3    H117271   3.896   0.776   1.251
 5755TIP3    H217272   3.779   0.762   1.157
 5756TIP3   OH217273   4.334   4.554   2.428
 5756TIP3    H117274   4.405   4.559   2.363
 5756TIP3    H217275   4.314   4.645   2.449
 5757TIP3   OH217276   3.008   5.977   3.566
 5757TIP3    H117277   3.101   6.000   3.566
 5757TIP3    H217278   3.006   5.884   3.543
 5758TIP3   OH217279   4.649   2.225   1.560
 5758TIP3    H117280   4.736   2.206   1.524
 5758TIP3    H217281   4.626   2.147   1.610
 5759TIP3   OH217282   2.791   1.327   0.961
 5759TIP3    H117283   2.790   1.232   0.973
 5759TIP3    H217284   2.814   1.362   1.048
 5760TIP3   OH217285   3.456   4.792   0.905
 5760TIP3    H117286   3.415   4.728   0.963
 5760TIP3    H217287   3.389   4.858   0.889
 5761TIP3   OH217288   6.050   5.070   1.179
 5761TIP3    H117289   5.990   4.997   1.168
 5761TIP3    H217290   6.120   5.053   1.116
 5762TIP3   OH217291   1.378   1.726   2.051
 5762TIP3    H117292   1.373   1.687   1.964
 5762TIP3    H217293   1.304   1.689   2.098
 5763TIP3   OH217294   0.811   1.242   4.807
 5763TIP3    H117295   0.776   1.294   4.734
 5763TIP3    H217296   0.900   1.276   4.819
 5764TIP3   OH217297   4.084   4.274   1.377
 5764TIP3    H117298   4.084   4.241   1.467
 5764TIP3    H217299   4.149   4.221   1.332
 5765TIP3   OH217300   3.786   2.646   3.369
 5765TIP3    H117301   3.869   2.692   3.384
 5765TIP3    H217302   3.776   2.589   3.445
 5766TIP3   OH217303   1.059   4.823   1.779
 5766TIP3    H117304   0.978   4.845   1.734
 5766TIP3    H217305   1.117   4.791   1.710
 5767TIP3   OH217306   0.304   1.682   0.336
 5767TIP3    H117307   0.346   1.639   0.262
 5767TIP3    H217308   0.358   1.759   0.353
 5768TIP3   OH217309   2.213   1.155   4.750
 5768TIP3    H117310   2.238   1.119   4.664
 5768TIP3    H217311   2.132   1.203   4.734
 5769TIP3   OH217312   0.492   4.214   4.043
 5769TIP3    H117313   0.529   4.254   3.964
 5769TIP3    H217314   0.511   4.121   4.034
 5770TIP3   OH217315   2.027   4.527   1.914
 5770TIP3    H117316   1.997   4.618   1.920
 5770TIP3    H217317   2.031   4.509   1.820
 5771TIP3   OH217318   2.782   5.943   4.960
 5771TIP3    H117319   2.742   6.027   4.979
 5771TIP3    H217320   2.806   5.947   4.868
 5772TIP3   OH217321   2.720   2.769   2.512
 5772TIP3    H117322   2.793   2.737   2.566
 5772TIP3    H217323   2.643   2.755   2.566
 5773TIP3   OH217324   4.750   2.548   0.654
 5773TIP3    H117325   4.806   2.613   0.611
 5773TIP3    H217326   4.759   2.469   0.600
 5774TIP3   OH217327   4.399   0.929   1.522
 5774TIP3    H117328   4.414   0.995   1.589
 5774TIP3    H217329   4.363   0.977   1.447
 5775TIP3   OH217330   1.312   4.786   1.537
 5775TIP3    H117331   1.361   4.786   1.619
 5775TIP3    H217332   1.319   4.876   1.505
 5776TIP3   OH217333   3.431   2.094   3.403
 5776TIP3    H117334   3.513   2.108   3.356
 5776TIP3    H217335   3.445   2.013   3.452
 5777TIP3   OH217336   4.072   2.332   3.925
 5777TIP3    H117337   4.101   2.419   3.897
 5777TIP3    H217338   4.005   2.308   3.861
 5778TIP3   OH217339   2.592   5.174   2.121
 5778TIP3    H117340   2.592   5.111   2.048
 5778TIP3    H217341   2.499   5.197   2.132
 5779TIP3   OH217342   4.241   3.286   3.022
 5779TIP3    H117343   4.203   3.199   3.012
 5779TIP3    H217344   4.304   3.293   2.950
 5780TIP3   OH217345   5.703   2.158   0.880
 5780TIP3    H117346   5.741   2.169   0.793
 5780TIP3    H217347   5.730   2.070   0.907
 5781TIP3   OH217348   3.531   0.346   1.845
 5781TIP3    H117349   3.586   0.288   1.792
 5781TIP3    H217350   3.516   0.422   1.789
 5782TIP3   OH217351   0.734   2.443   2.978
 5782TIP3    H117352   0.791   2.486   3.041
 5782TIP3    H217353   0.772   2.355   2.968
 5783TIP3   OH217354   2.334   4.186   3.007
 5783TIP3    H117355   2.302   4.098   2.986
 5783TIP3    H217356   2.413   4.196   2.955
 5784TIP3   OH217357   3.321   2.507   0.433
 5784TIP3    H117358   3.340   2.505   0.527
 5784TIP3    H217359   3.225   2.512   0.429
 5785TIP3   OH217360   0.565   1.970   3.498
 5785TIP3    H117361   0.542   1.952   3.589
 5785TIP3    H217362   0.660   1.956   3.494
 5786TIP3   OH217363   5.554   4.742   3.245
 5786TIP3    H117364   5.545   4.725   3.152
 5786TIP3    H217365   5.492   4.814   3.263
 5787TIP3   OH217366   6.350   4.223   3.299
 5787TIP3    H117367   6.329   4.139   3.258
 5787TIP3    H217368   6.289   4.285   3.260
 5788TIP3   OH217369   1.186   5.093   2.697
 5788TIP3    H117370   1.187   5.113   2.603
 5788TIP3    H217371   1.115   5.148   2.732
 5789TIP3   OH217372   0.133   3.369   3.540
 5789TIP3    H117373   0.069   3.438   3.523
 5789TIP3    H217374   0.084   3.301   3.585
 5790TIP3   OH217375   5.483   3.392   4.156
 5790TIP3    H117376   5.556   3.387   4.095
 5790TIP3    H217377   5.490   3.312   4.208
 5791TIP3   OH217378   1.962   1.308   3.302
 5791TIP3    H117379   1.892   1.282   3.361
 5791TIP3    H217380   1.967   1.237   3.238
 5792TIP3   OH217381   1.300   0.315   4.133
 5792TIP3    H117382   1.354   0.321   4.054
 5792TIP3    H217383   1.214   0.288   4.101
 5793TIP3   OH217384   3.924   5.465   4.651
 5793TIP3    H117385   3.859   5.535   4.660
 5793TIP3    H217386   3.899   5.420   4.570
 5794TIP3   OH217387   2.056   5.546   3.443
 5794TIP3    H117388   2.119   5.618   3.438
 5794TIP3    H217389   2.069   5.497   3.361
 5795TIP3   OH217390   1.214   4.093   0.964
 5795TIP3    H117391   1.297   4.141   0.960
 5795TIP3    H217392   1.161   4.141   1.027
 5796TIP3   OH217393   4.551   2.196   1.856
 5796TIP3    H117394   4.565   2.109   1.818
 5796TIP3    H217395   4.499   2.243   1.789
 5797TIP3   OH217396   4.754   4.005   4.768
 5797TIP3    H117397   4.724   3.917   4.793
 5797TIP3    H217398   4.845   4.009   4.800
 5798TIP3   OH217399   0.899   1.497   0.297
 5798TIP3    H117400   0.953   1.420   0.315
 5798TIP3    H217401   0.827   1.492   0.360
 5799TIP3   OH217402   1.727   4.964   4.942
 5799TIP3    H117403   1.793   5.028   4.917
 5799TIP3    H217404   1.733   4.896   4.874
 5800TIP3   OH217405   0.115   5.756   3.980
 5800TIP3    H117406   0.116   5.708   3.897
 5800TIP3    H217407   0.039   5.815   3.972
 5801TIP3   OH217408   3.660   3.983   4.015
 5801TIP3    H117409   3.704   4.063   4.043
 5801TIP3    H217410   3.626   3.945   4.096
 5802TIP3   OH217411   3.509   3.734   3.162
 5802TIP3    H117412   3.510   3.758   3.070
 5802TIP3    H217413   3.473   3.646   3.164
 5803TIP3   OH217414   4.028   5.194   1.714
 5803TIP3    H117415   4.053   5.103   1.700
 5803TIP3    H217416   4.065   5.241   1.639
 5804TIP3   OH217417   4.572   3.295   3.104
 5804TIP3    H117418   4.559   3.260   3.192
 5804TIP3    H217419   4.565   3.218   3.046
 5805TIP3   OH217420   6.035   5.540   1.440
 5805TIP3    H117421   6.100   5.485   1.397
 5805TIP3    H217422   5.965   5.480   1.465
 5806TIP3   OH217423   6.049   1.674   1.196
 5806TIP3    H117424   6.127   1.625   1.168
 5806TIP3    H217425   5.977   1.634   1.147
 5807TIP3   OH217426   3.918   5.545   3.994
 5807TIP3    H117427   3.957   5.628   4.020
 5807TIP3    H217428   3.991   5.483   3.996
 5808TIP3   OH217429   6.327   5.486   4.684
 5808TIP3    H117430   6.390   5.460   4.617
 5808TIP3    H217431   6.258   5.419   4.680
 5809TIP3   OH217432   2.982   3.684   2.711
 5809TIP3    H117433   2.957   3.744   2.641
 5809TIP3    H217434   2.931   3.604   2.693
 5810TIP3   OH217435   0.087   1.958   1.309
 5810TIP3    H117436   0.005   1.909   1.325
 5810TIP3    H217437   0.121   1.976   1.397
 5811TIP3   OH217438   2.609   4.270   5.017
 5811TIP3    H117439   2.528   4.320   5.024
 5811TIP3    H217440   2.678   4.334   5.035
 5812TIP3   OH217441   1.476   3.203   2.511
 5812TIP3    H117442   1.464   3.167   2.423
 5812TIP3    H217443   1.489   3.126   2.567
 5813TIP3   OH217444   1.825   4.928   3.381
 5813TIP3    H117445   1.813   4.946   3.474
 5813TIP3    H217446   1.878   4.849   3.379
 5814TIP3   OH217447   2.705   3.595   0.876
 5814TIP3    H117448   2.717   3.640   0.792
 5814TIP3    H217449   2.650   3.520   0.855
 5815TIP3   OH217450   1.195   5.248   0.052
 5815TIP3    H117451   1.177   5.249   0.146
 5815TIP3    H217452   1.289   5.263   0.045
 5816TIP3   OH217453   2.433   4.928   1.840
 5816TIP3    H117454   2.449   4.834   1.833
 5816TIP3    H217455   2.380   4.938   1.919
 5817TIP3   OH217456   3.239   5.472   1.294
 5817TIP3    H117457   3.196   5.517   1.366
 5817TIP3    H217458   3.258   5.384   1.328
 5818TIP3   OH217459   5.242   2.670   0.311
 5818TIP3    H117460   5.193   2.724   0.249
 5818TIP3    H217461   5.334   2.686   0.289
 5819TIP3   OH217462   3.488   3.540   1.504
 5819TIP3    H117463   3.437   3.614   1.470
 5819TIP3    H217464   3.501   3.560   1.597
 5820TIP3   OH217465   1.323   0.643   2.422
 5820TIP3    H117466   1.273   0.591   2.485
 5820TIP3    H217467   1.323   0.731   2.459
 5821TIP3   OH217468   0.161   1.395   0.313
 5821TIP3    H117469   0.233   1.368   0.255
 5821TIP3    H217470   0.105   1.318   0.319
 5822TIP3   OH217471   4.256   4.022   3.185
 5822TIP3    H117472   4.264   4.066   3.270
 5822TIP3    H217473   4.222   3.935   3.206
 5823TIP3   OH217474   2.002   1.371   1.485
 5823TIP3    H117475   1.913   1.344   1.463
 5823TIP3    H217476   2.046   1.380   1.400
 5824TIP3   OH217477   5.085   4.506   3.979
 5824TIP3    H117478   4.997   4.535   4.002
 5824TIP3    H217479   5.099   4.539   3.890
 5825TIP3   OH217480   5.331   1.338   1.309
 5825TIP3    H117481   5.292   1.265   1.262
 5825TIP3    H217482   5.271   1.356   1.381
 5826TIP3   OH217483   5.089   0.874   4.840
 5826TIP3    H117484   5.017   0.819   4.811
 5826TIP3    H217485   5.168   0.821   4.828
 5827TIP3   OH217486   1.343   4.989   3.069
 5827TIP3    H117487   1.345   5.084   3.084
 5827TIP3    H217488   1.435   4.964   3.064
 5828TIP3   OH217489   2.837   1.791   2.318
 5828TIP3    H117490   2.748   1.808   2.286
 5828TIP3    H217491   2.865   1.713   2.269
 5829TIP3   OH217492   2.226   2.234   1.968
 5829TIP3    H117493   2.234   2.323   1.933
 5829TIP3    H217494   2.165   2.191   1.907
 5830TIP3   OH217495   4.053   4.914   4.272
 5830TIP3    H117496   3.965   4.944   4.250
 5830TIP3    H217497   4.059   4.924   4.367
 5831TIP3   OH217498   6.336   4.206   0.150
 5831TIP3    H117499   6.306   4.223   0.239
 5831TIP3    H217500   6.323   4.289   0.105
 5832TIP3   OH217501   5.376   1.164   3.027
 5832TIP3    H117502   5.340   1.252   3.015
 5832TIP3    H217503   5.336   1.132   3.107
 5833TIP3   OH217504   5.694   4.311   0.120
 5833TIP3    H117505   5.642   4.242   0.080
 5833TIP3    H217506   5.703   4.377   0.051
 5834TIP3   OH217507   5.885   5.043   5.080
 5834TIP3    H117508   5.935   4.990   5.018
 5834TIP3    H217509   5.940   5.119   5.097
 5835TIP3   OH217510   0.028   0.232   2.903
 5835TIP3    H117511   0.074   0.285   2.968
 5835TIP3    H217512   0.026   0.144   2.941
 5836TIP3   OH217513   2.626   4.490   4.097
 5836TIP3    H117514   2.599   4.573   4.135
 5836TIP3    H217515   2.714   4.474   4.133
 5837TIP3   OH217516   3.467   3.780   2.877
 5837TIP3    H117517   3.492   3.873   2.877
 5837TIP3    H217518   3.395   3.775   2.814
 5838TIP3   OH217519   5.338   3.076   2.465
 5838TIP3    H117520   5.391   3.009   2.508
 5838TIP3    H217521   5.336   3.149   2.526
 5839TIP3   OH217522   5.772   5.690   2.010
 5839TIP3    H117523   5.845   5.723   1.959
 5839TIP3    H217524   5.699   5.748   1.988
 5840TIP3   OH217525   0.571   0.713   1.668
 5840TIP3    H117526   0.596   0.782   1.730
 5840TIP3    H217527   0.508   0.659   1.716
 5841TIP3   OH217528   3.623   4.455   0.201
 5841TIP3    H117529   3.701   4.409   0.232
 5841TIP3    H217530   3.569   4.466   0.279
 5842TIP3   OH217531   3.300   3.108   1.871
 5842TIP3    H117532   3.366   3.168   1.837
 5842TIP3    H217533   3.229   3.164   1.900
 5843TIP3   OH217534   2.702   4.014   5.054
 5843TIP3    H117535   2.668   4.099   5.025
 5843TIP3    H217536   2.626   3.970   5.093
 5844TIP3   OH217537   4.001   1.294   2.296
 5844TIP3    H117538   3.979   1.292   2.203
 5844TIP3    H217539   4.060   1.370   2.304
 5845TIP3   OH217540   1.475   3.044   5.125
 5845TIP3    H117541   1.459   3.113   5.061
 5845TIP3    H217542   1.548   2.994   5.088
 5846TIP3   OH217543   2.475   0.487   3.850
 5846TIP3    H117544   2.430   0.487   3.765
 5846TIP3    H217545   2.491   0.394   3.869
 5847TIP3   OH217546   3.845   3.834   4.456
 5847TIP3    H117547   3.836   3.756   4.511
 5847TIP3    H217548   3.855   3.906   4.518
 5848TIP3   OH217549   5.329   3.417   2.325
 5848TIP3    H117550   5.373   3.446   2.405
 5848TIP3    H217551   5.260   3.359   2.355
 5849TIP3   OH217552   1.495   5.696   3.706
 5849TIP3    H117553   1.472   5.789   3.702
 5849TIP3    H217554   1.464   5.660   3.623
 5850TIP3   OH217555   1.681   2.754  -0.009
 5850TIP3    H117556   1.686   2.848  -0.023
 5850TIP3    H217557   1.639   2.745   0.077
 5851TIP3   OH217558   4.470   2.632   0.439
 5851TIP3    H117559   4.448   2.551   0.393
 5851TIP3    H217560   4.457   2.701   0.374
 5852TIP3   OH217561   2.319   4.404   3.196
 5852TIP3    H117562   2.411   4.404   3.222
 5852TIP3    H217563   2.310   4.328   3.139
 5853TIP3   OH217564   1.579   5.218   3.307
 5853TIP3    H117565   1.650   5.277   3.332
 5853TIP3    H217566   1.553   5.247   3.220
 5854TIP3   OH217567   1.426   4.062   3.143
 5854TIP3    H117568   1.443   4.108   3.061
 5854TIP3    H217569   1.512   4.041   3.177
 5855TIP3   OH217570   0.014   1.019   3.538
 5855TIP3    H117571  -0.010   1.022   3.445
 5855TIP3    H217572   0.096   0.970   3.539
 5856TIP3   OH217573   2.366   3.825   3.710
 5856TIP3    H117574   2.399   3.742   3.744
 5856TIP3    H217575   2.294   3.847   3.769
 5857TIP3   OH217576   0.760   2.083   1.243
 5857TIP3    H117577   0.840   2.127   1.272
 5857TIP3    H217578   0.786   1.992   1.228
 5858TIP3   OH217579   3.241   1.913   2.481
 5858TIP3    H117580   3.179   1.912   2.553
 5858TIP3    H217581   3.205   1.852   2.416
 5859TIP3   OH217582   5.672   0.019   4.989
 5859TIP3    H117583   5.607   0.088   4.999
 5859TIP3    H217584   5.750   0.053   5.033
 5860TIP3   OH217585   0.126   0.855   1.497
 5860TIP3    H117586   0.159   0.848   1.587
 5860TIP3    H217587   0.041   0.898   1.507
 5861TIP3   OH217588   5.371   2.224   0.690
 5861TIP3    H117589   5.410   2.137   0.699
 5861TIP3    H217590   5.331   2.241   0.775
 5862TIP3   OH217591   2.996   1.483   4.039
 5862TIP3    H117592   3.043   1.482   4.122
 5862TIP3    H217593   2.998   1.392   4.010
 5863TIP3   OH217594   0.292   0.830   2.141
 5863TIP3    H117595   0.215   0.778   2.165
 5863TIP3    H217596   0.326   0.862   2.225
 5864TIP3   OH217597   0.323   4.308   3.007
 5864TIP3    H117598   0.252   4.244   3.001
 5864TIP3    H217599   0.278   4.392   3.017
 5865TIP3   OH217600   5.133   3.774   4.787
 5865TIP3    H117601   5.188   3.849   4.766
 5865TIP3    H217602   5.191   3.698   4.776
 5866TIP3   OH217603   2.900   5.035   2.018
 5866TIP3    H117604   2.902   5.103   2.086
 5866TIP3    H217605   2.979   5.051   1.967
 5867TIP3   OH217606   1.946   3.231   0.718
 5867TIP3    H117607   1.977   3.314   0.681
 5867TIP3    H217608   1.851   3.241   0.724
 5868TIP3   OH217609   0.612   3.489   3.764
 5868TIP3    H117610   0.534   3.462   3.813
 5868TIP3    H217611   0.631   3.577   3.797
 5869TIP3   OH217612   0.026   0.704   2.553
 5869TIP3    H117613   0.095   0.684   2.616
 5869TIP3    H217614  -0.055   0.676   2.597
 5870TIP3   OH217615   4.800   5.068   2.568
 5870TIP3    H117616   4.800   5.054   2.473
 5870TIP3    H217617   4.732   5.009   2.601
 5871TIP3   OH217618   1.846   3.647   2.575
 5871TIP3    H117619   1.809   3.619   2.659
 5871TIP3    H217620   1.791   3.604   2.510
 5872TIP3   OH217621   2.336   5.574   1.758
 5872TIP3    H117622   2.397   5.524   1.704
 5872TIP3    H217623   2.384   5.653   1.783
 5873TIP3   OH217624   6.234   5.894   0.979
 5873TIP3    H117625   6.232   5.853   0.893
 5873TIP3    H217626   6.179   5.839   1.034
 5874TIP3   OH217627   3.318   0.862   1.998
 5874TIP3    H117628   3.261   0.791   2.028
 5874TIP3    H217629   3.291   0.877   1.908
 5875TIP3   OH217630   6.280   0.399   3.559
 5875TIP3    H117631   6.261   0.431   3.648
 5875TIP3    H217632   6.195   0.377   3.523
 5876TIP3   OH217633   0.030   5.020   1.337
 5876TIP3    H117634   0.096   5.088   1.346
 5876TIP3    H217635   0.015   5.012   1.242
 5877TIP3   OH217636   3.034   4.644   2.738
 5877TIP3    H117637   2.963   4.694   2.777
 5877TIP3    H217638   2.992   4.585   2.675
 5878TIP3   OH217639   4.512   3.060   4.141
 5878TIP3    H117640   4.514   3.117   4.218
 5878TIP3    H217641   4.514   3.121   4.066
 5879TIP3   OH217642   3.537   2.402   1.336
 5879TIP3    H117643   3.619   2.354   1.351
 5879TIP3    H217644   3.470   2.335   1.330
 5880TIP3   OH217645   4.386   2.196   3.820
 5880TIP3    H117646   4.318   2.198   3.753
 5880TIP3    H217647   4.383   2.107   3.855
 5881TIP3   OH217648   0.990   0.186   1.141
 5881TIP3    H117649   1.034   0.102   1.154
 5881TIP3    H217650   1.038   0.227   1.069
 5882TIP3   OH217651   2.744   5.946   1.911
 5882TIP3    H117652   2.680   6.017   1.914
 5882TIP3    H217653   2.807   5.974   1.844
 5883TIP3   OH217654   2.197   1.982   0.809
 5883TIP3    H117655   2.166   2.069   0.785
 5883TIP3    H217656   2.140   1.922   0.761
 5884TIP3   OH217657   2.187   3.446   0.690
 5884TIP3    H117658   2.222   3.444   0.779
 5884TIP3    H217659   2.119   3.514   0.693
 5885TIP3   OH217660   5.890   5.095   2.994
 5885TIP3    H117661   5.878   5.165   2.930
 5885TIP3    H217662   5.951   5.131   3.059
 5886TIP3   OH217663   0.022   1.311   0.975
 5886TIP3    H117664   0.086   1.349   0.914
 5886TIP3    H217665   0.067   1.235   1.012
 5887TIP3   OH217666   2.134   2.463   3.669
 5887TIP3    H117667   2.139   2.523   3.743
 5887TIP3    H217668   2.209   2.404   3.682
 5888TIP3   OH217669   5.425   4.468   4.658
 5888TIP3    H117670   5.423   4.420   4.741
 5888TIP3    H217671   5.436   4.560   4.684
 5889TIP3   OH217672   5.887   1.485   2.005
 5889TIP3    H117673   5.932   1.425   1.946
 5889TIP3    H217674   5.811   1.436   2.036
 5890TIP3   OH217675   3.870   3.756   2.589
 5890TIP3    H117676   3.815   3.678   2.590
 5890TIP3    H217677   3.855   3.797   2.674
 5891TIP3   OH217678   4.606   2.704   3.399
 5891TIP3    H117679   4.582   2.620   3.360
 5891TIP3    H217680   4.535   2.722   3.462
 5892TIP3   OH217681   2.353   4.272   1.784
 5892TIP3    H117682   2.305   4.307   1.710
 5892TIP3    H217683   2.386   4.187   1.754
 5893TIP3   OH217684   5.269   2.574   3.374
 5893TIP3    H117685   5.213   2.611   3.442
 5893TIP3    H217686   5.247   2.481   3.371
 5894TIP3   OH217687   5.155   1.268   4.811
 5894TIP3    H117688   5.237   1.268   4.860
 5894TIP3    H217689   5.166   1.199   4.746
 5895TIP3   OH217690   2.839   4.940   4.100
 5895TIP3    H117691   2.861   4.923   4.008
 5895TIP3    H217692   2.923   4.937   4.145
 5896TIP3   OH217693   5.491   3.257   1.383
 5896TIP3    H117694   5.490   3.276   1.289
 5896TIP3    H217695   5.575   3.213   1.397
 5897TIP3   OH217696   2.313   1.653   0.814
 5897TIP3    H117697   2.315   1.671   0.720
 5897TIP3    H217698   2.337   1.737   0.855
 5898TIP3   OH217699   5.011   5.729   1.514
 5898TIP3    H117700   5.045   5.780   1.587
 5898TIP3    H217701   5.087   5.714   1.458
 5899TIP3   OH217702   2.039   3.513   1.657
 5899TIP3    H117703   2.116   3.525   1.711
 5899TIP3    H217704   2.070   3.466   1.580
 5900TIP3   OH217705   4.808   3.019   4.365
 5900TIP3    H117706   4.888   3.063   4.394
 5900TIP3    H217707   4.738   3.079   4.389
 5901TIP3   OH217708   0.915   3.165   3.493
 5901TIP3    H117709   0.979   3.118   3.440
 5901TIP3    H217710   0.966   3.231   3.540
 5902TIP3   OH217711   1.050   1.571   2.424
 5902TIP3    H117712   1.058   1.504   2.492
 5902TIP3    H217713   0.971   1.619   2.447
 5903TIP3   OH217714   4.369   0.065   4.231
 5903TIP3    H117715   4.395   0.053   4.140
 5903TIP3    H217716   4.356  -0.023   4.265
 5904TIP3   OH217717   5.495   0.456   2.422
 5904TIP3    H117718   5.458   0.431   2.507
 5904TIP3    H217719   5.584   0.421   2.423
 5905TIP3   OH217720   4.836   5.555   4.181
 5905TIP3    H117721   4.897   5.510   4.239
 5905TIP3    H217722   4.750   5.534   4.216
 5906TIP3   OH217723   1.904   4.099   1.065
 5906TIP3    H117724   1.881   4.135   1.151
 5906TIP3    H217725   1.837   4.032   1.049
 5907TIP3   OH217726   2.195   4.725   0.994
 5907TIP3    H117727   2.192   4.663   0.922
 5907TIP3    H217728   2.234   4.804   0.955
 5908TIP3   OH217729   1.737   0.300   0.327
 5908TIP3    H117730   1.823   0.301   0.286
 5908TIP3    H217731   1.725   0.390   0.360
 5909TIP3   OH217732   2.223   0.876   0.701
 5909TIP3    H117733   2.302   0.899   0.751
 5909TIP3    H217734   2.242   0.790   0.664
 5910TIP3   OH217735   1.585   0.954   5.077
 5910TIP3    H117736   1.648   0.903   5.027
 5910TIP3    H217737   1.614   1.044   5.068
 5911TIP3   OH217738   3.055   1.889   2.665
 5911TIP3    H117739   3.090   1.875   2.753
 5911TIP3    H217740   2.964   1.917   2.680
 5912TIP3   OH217741   0.105   3.242   1.934
 5912TIP3    H117742   0.111   3.155   1.972
 5912TIP3    H217743   0.014   3.268   1.946
 5913TIP3   OH217744   4.150   5.259   2.375
 5913TIP3    H117745   4.210   5.215   2.315
 5913TIP3    H217746   4.152   5.351   2.348
 5914TIP3   OH217747   3.971   2.294   1.619
 5914TIP3    H117748   4.021   2.375   1.617
 5914TIP3    H217749   3.916   2.298   1.541
 5915TIP3   OH217750   0.883   5.273  -0.022
 5915TIP3    H117751   0.839   5.188  -0.021
 5915TIP3    H217752   0.874   5.306   0.068
 5916TIP3   OH217753   3.213   3.220   2.394
 5916TIP3    H117754   3.204   3.139   2.444
 5916TIP3    H217755   3.181   3.289   2.451
 5917TIP3   OH217756   1.278   5.231   1.807
 5917TIP3    H117757   1.335   5.159   1.834
 5917TIP3    H217758   1.321   5.309   1.842
 5918TIP3   OH217759   2.677   3.759   3.158
 5918TIP3    H117760   2.762   3.779   3.119
 5918TIP3    H217761   2.619   3.827   3.125
 5919TIP3   OH217762   1.949   1.403   4.717
 5919TIP3    H117763   1.884   1.473   4.715
 5919TIP3    H217764   1.899   1.324   4.739
 5920TIP3   OH217765   0.274   4.797   3.586
 5920TIP3    H117766   0.333   4.867   3.613
 5920TIP3    H217767   0.285   4.729   3.652
 5921TIP3   OH217768   0.164   5.240   0.447
 5921TIP3    H117769   0.167   5.183   0.371
 5921TIP3    H217770   0.075   5.228   0.482
 5922TIP3   OH217771   4.065   2.060   2.466
 5922TIP3    H117772   4.022   1.975   2.476
 5922TIP3    H217773   4.156   2.039   2.447
 5923TIP3   OH217774   4.066   5.617   0.129
 5923TIP3    H117775   4.123   5.576   0.193
 5923TIP3    H217776   3.980   5.577   0.143
 5924TIP3   OH217777   0.959   0.823   3.593
 5924TIP3    H117778   0.864   0.823   3.603
 5924TIP3    H217779   0.992   0.773   3.667
 5925TIP3   OH217780   5.284   0.433   0.918
 5925TIP3    H117781   5.197   0.407   0.950
 5925TIP3    H217782   5.344   0.370   0.958
 5926TIP3   OH217783   3.703   4.889   0.535
 5926TIP3    H117784   3.749   4.971   0.519
 5926TIP3    H217785   3.629   4.891   0.474
 5927TIP3   OH217786   5.344   4.540   0.075
 5927TIP3    H117787   5.355   4.493   0.158
 5927TIP3    H217788   5.348   4.632   0.098
 5928TIP3   OH217789   0.914   0.441   2.119
 5928TIP3    H117790   0.870   0.371   2.071
 5928TIP3    H217791   0.983   0.398   2.168
 5929TIP3   OH217792   3.898   0.541   4.172
 5929TIP3    H117793   3.915   0.614   4.230
 5929TIP3    H217794   3.822   0.568   4.120
 5930TIP3   OH217795   6.016   5.071   4.553
 5930TIP3    H117796   5.965   5.133   4.604
 5930TIP3    H217797   5.979   5.077   4.464
 5931TIP3   OH217798   2.417   4.671   5.166
 5931TIP3    H117799   2.373   4.599   5.121
 5931TIP3    H217800   2.346   4.730   5.191
 5932TIP3   OH217801   3.345   3.605   1.232
 5932TIP3    H117802   3.330   3.679   1.290
 5932TIP3    H217803   3.275   3.611   1.167
 5933TIP3   OH217804   2.583   2.481   1.593
 5933TIP3    H117805   2.492   2.468   1.620
 5933TIP3    H217806   2.601   2.408   1.533
 5934TIP3   OH217807   5.515   3.567   2.186
 5934TIP3    H117808   5.517   3.653   2.229
 5934TIP3    H217809   5.443   3.521   2.229
 5935TIP3   OH217810   0.603   1.861   4.134
 5935TIP3    H117811   0.644   1.774   4.139
 5935TIP3    H217812   0.676   1.922   4.149
 5936TIP3   OH217813   4.955   0.603   0.823
 5936TIP3    H117814   5.012   0.558   0.886
 5936TIP3    H217815   4.872   0.612   0.868
 5937TIP3   OH217816   0.395   0.482   2.625
 5937TIP3    H117817   0.445   0.403   2.642
 5937TIP3    H217818   0.457   0.542   2.583
 5938TIP3   OH217819   1.489   1.349   0.151
 5938TIP3    H117820   1.519   1.388   0.233
 5938TIP3    H217821   1.394   1.344   0.161
 5939TIP3   OH217822   0.157   0.413   2.494
 5939TIP3    H117823   0.242   0.457   2.490
 5939TIP3    H217824   0.108   0.447   2.419
 5940TIP3   OH217825   5.772   1.584   0.848
 5940TIP3    H117826   5.867   1.592   0.841
 5940TIP3    H217827   5.754   1.598   0.941
 5941TIP3   OH217828   6.326   5.039   3.979
 5941TIP3    H117829   6.307   5.133   3.986
 5941TIP3    H217830   6.288   5.001   4.059
 5942TIP3   OH217831   4.438   2.727   3.803
 5942TIP3    H117832   4.505   2.773   3.852
 5942TIP3    H217833   4.453   2.635   3.822
 5943TIP3   OH217834   3.478   5.111   2.326
 5943TIP3    H117835   3.542   5.172   2.363
 5943TIP3    H217836   3.519   5.025   2.333
 5944TIP3   OH217837   1.802   3.132   2.013
 5944TIP3    H117838   1.715   3.098   1.992
 5944TIP3    H217839   1.852   3.056   2.042
 5945TIP3   OH217840   5.239   1.483   1.674
 5945TIP3    H117841   5.163   1.453   1.624
 5945TIP3    H217842   5.284   1.402   1.700
 5946TIP3   OH217843   2.215   2.580   1.815
 5946TIP3    H117844   2.130   2.580   1.858
 5946TIP3    H217845   2.267   2.645   1.863
 5947TIP3   OH217846   3.296   1.828   1.714
 5947TIP3    H117847   3.340   1.783   1.786
 5947TIP3    H217848   3.351   1.812   1.638
 5948TIP3   OH217849   0.519   0.431   4.374
 5948TIP3    H117850   0.452   0.370   4.343
 5948TIP3    H217851   0.595   0.376   4.393
 5949TIP3   OH217852   3.321   0.275   0.327
 5949TIP3    H117853   3.255   0.217   0.289
 5949TIP3    H217854   3.280   0.362   0.326
 5950TIP3   OH217855   0.369   0.283   0.528
 5950TIP3    H117856   0.292   0.281   0.471
 5950TIP3    H217857   0.443   0.287   0.468
 5951TIP3   OH217858   1.633   3.773   4.706
 5951TIP3    H117859   1.729   3.776   4.700
 5951TIP3    H217860   1.605   3.734   4.623
 5952TIP3   OH217861   1.438   2.447   0.866
 5952TIP3    H117862   1.410   2.537   0.877
 5952TIP3    H217863   1.464   2.418   0.953
 5953TIP3   OH217864   5.002   4.422   0.466
 5953TIP3    H117865   4.980   4.398   0.376
 5953TIP3    H217866   4.976   4.345   0.517
 5954TIP3   OH217867   0.233   3.349   4.714
 5954TIP3    H117868   0.197   3.377   4.630
 5954TIP3    H217869   0.156   3.338   4.770
 5955TIP3   OH217870   0.212   1.949   0.742
 5955TIP3    H117871   0.149   2.014   0.712
 5955TIP3    H217872   0.297   1.989   0.722
 5956TIP3   OH217873   4.982   2.070   1.031
 5956TIP3    H117874   4.952   2.012   1.101
 5956TIP3    H217875   4.952   2.157   1.057
 5957TIP3   OH217876   3.259   4.388   2.468
 5957TIP3    H117877   3.234   4.463   2.414
 5957TIP3    H217878   3.221   4.312   2.423
 5958TIP3   OH217879   3.882   1.019   3.951
 5958TIP3    H117880   3.882   1.005   3.856
 5958TIP3    H217881   3.935   0.947   3.986
 5959TIP3   OH217882   3.256   0.364   0.739
 5959TIP3    H117883   3.258   0.269   0.735
 5959TIP3    H217884   3.308   0.393   0.664
 5960TIP3   OH217885   3.459   4.580   3.501
 5960TIP3    H117886   3.536   4.591   3.444
 5960TIP3    H217887   3.423   4.495   3.476
 5961TIP3   OH217888   6.325   2.446   1.332
 5961TIP3    H117889   6.347   2.354   1.321
 5961TIP3    H217890   6.234   2.445   1.363
 5962TIP3   OH217891   0.254   4.930   0.496
 5962TIP3    H117892   0.298   5.015   0.496
 5962TIP3    H217893   0.317   4.870   0.456
 5963TIP3   OH217894   0.212   4.467   3.498
 5963TIP3    H117895   0.291   4.489   3.547
 5963TIP3    H217896   0.226   4.503   3.411
 5964TIP3   OH217897   5.269   3.147   1.503
 5964TIP3    H117898   5.241   3.223   1.554
 5964TIP3    H217899   5.335   3.181   1.443
 5965TIP3   OH217900   3.275   4.280   4.173
 5965TIP3    H117901   3.254   4.193   4.139
 5965TIP3    H217902   3.323   4.323   4.102
 5966TIP3   OH217903   1.608   4.661   0.773
 5966TIP3    H117904   1.602   4.566   0.785
 5966TIP3    H217905   1.702   4.679   0.771
 5967TIP3   OH217906   4.504   3.487   1.110
 5967TIP3    H117907   4.486   3.412   1.053
 5967TIP3    H217908   4.484   3.563   1.056
 5968TIP3   OH217909   2.694   2.004   4.393
 5968TIP3    H117910   2.773   1.950   4.396
 5968TIP3    H217911   2.638   1.969   4.463
 5969TIP3   OH217912   1.984   2.336   1.032
 5969TIP3    H117913   2.048   2.407   1.036
 5969TIP3    H217914   1.900   2.378   1.050
 5970TIP3   OH217915   5.654   0.202   2.436
 5970TIP3    H117916   5.622   0.174   2.522
 5970TIP3    H217917   5.745   0.172   2.434
 5971TIP3   OH217918   2.997   4.691   4.606
 5971TIP3    H117919   2.912   4.717   4.572
 5971TIP3    H217920   2.977   4.636   4.682
 5972TIP3   OH217921   3.720   4.546   4.530
 5972TIP3    H117922   3.640   4.497   4.509
 5972TIP3    H217923   3.693   4.638   4.527
 5973TIP3   OH217924   0.852   1.583   3.500
 5973TIP3    H117925   0.809   1.543   3.425
 5973TIP3    H217926   0.899   1.658   3.464
 5974TIP3   OH217927   1.751   4.047   4.851
 5974TIP3    H117928   1.812   4.038   4.777
 5974TIP3    H217929   1.735   3.957   4.880
 5975TIP3   OH217930   2.328   2.764   1.983
 5975TIP3    H117931   2.332   2.718   2.067
 5975TIP3    H217932   2.283   2.846   2.004
 5976TIP3   OH217933   5.398   2.326   4.308
 5976TIP3    H117934   5.377   2.418   4.327
 5976TIP3    H217935   5.312   2.286   4.290
 5977TIP3   OH217936   3.076   0.401   1.062
 5977TIP3    H117937   3.116   0.347   0.994
 5977TIP3    H217938   3.095   0.354   1.144
 5978TIP3   OH217939   3.751   2.211   4.698
 5978TIP3    H117940   3.658   2.189   4.694
 5978TIP3    H217941   3.796   2.131   4.672
 5979TIP3   OH217942   4.386   2.376   4.684
 5979TIP3    H117943   4.395   2.441   4.614
 5979TIP3    H217944   4.292   2.367   4.697
 5980TIP3   OH217945   4.076   1.606   0.301
 5980TIP3    H117946   4.140   1.549   0.259
 5980TIP3    H217947   4.129   1.674   0.343
 5981TIP3   OH217948   5.211   3.304   3.813
 5981TIP3    H117949   5.180   3.296   3.722
 5981TIP3    H217950   5.133   3.286   3.866
 5982TIP3   OH217951   3.713   0.035   3.747
 5982TIP3    H117952   3.788   0.014   3.803
 5982TIP3    H217953   3.669   0.107   3.792
 5983TIP3   OH217954   6.256   4.269   4.408
 5983TIP3    H117955   6.212   4.220   4.339
 5983TIP3    H217956   6.236   4.221   4.488
 5984TIP3   OH217957   0.833   1.933   0.100
 5984TIP3    H117958   0.806   2.016   0.060
 5984TIP3    H217959   0.856   1.956   0.189
 5985TIP3   OH217960   5.109   2.906   2.413
 5985TIP3    H117961   5.053   2.930   2.486
 5985TIP3    H217962   5.198   2.914   2.448
 5986TIP3   OH217963   4.608   3.435   3.751
 5986TIP3    H117964   4.632   3.359   3.804
 5986TIP3    H217965   4.545   3.401   3.687
 5987TIP3   OH217966   4.407   1.888   1.419
 5987TIP3    H117967   4.405   1.946   1.496
 5987TIP3    H217968   4.459   1.936   1.355
 5988TIP3   OH217969   1.045   4.915   2.124
 5988TIP3    H117970   1.121   4.932   2.068
 5988TIP3    H217971   0.993   4.996   2.121
 5989TIP3   OH217972   3.475   5.296   1.608
 5989TIP3    H117973   3.511   5.376   1.568
 5989TIP3    H217974   3.546   5.262   1.662
 5990TIP3   OH217975   3.435   5.608   1.957
 5990TIP3    H117976   3.394   5.673   1.900
 5990TIP3    H217977   3.521   5.593   1.917
 5991TIP3   OH217978   0.145   5.179   2.473
 5991TIP3    H117979   0.105   5.224   2.547
 5991TIP3    H217980   0.151   5.087   2.501
 5992TIP3   OH217981   1.427   2.410   3.308
 5992TIP3    H117982   1.411   2.363   3.226
 5992TIP3    H217983   1.508   2.459   3.293
 5993TIP3   OH217984   0.424   0.500   3.126
 5993TIP3    H117985   0.433   0.422   3.182
 5993TIP3    H217986   0.414   0.573   3.187
 5994TIP3   OH217987   2.714   3.798   3.434
 5994TIP3    H117988   2.698   3.769   3.344
 5994TIP3    H217989   2.627   3.815   3.470
 5995TIP3   OH217990   5.830   1.139   1.453
 5995TIP3    H117991   5.742   1.167   1.428
 5995TIP3    H217992   5.860   1.087   1.379
 5996TIP3   OH217993   0.994   1.039   3.350
 5996TIP3    H117994   0.993   1.134   3.357
 5996TIP3    H217995   1.066   1.011   3.407
 5997TIP3   OH217996   5.395   3.795   3.992
 5997TIP3    H117997   5.358   3.707   3.988
 5997TIP3    H217998   5.458   3.799   3.920
 5998TIP3   OH217999   2.906   3.089   0.373
 5998TIP3    H118000   2.922   3.087   0.468
 5998TIP3    H218001   2.812   3.105   0.366
 5999TIP3   OH218002   1.708   4.750   5.163
 5999TIP3    H118003   1.729   4.664   5.128
 5999TIP3    H218004   1.708   4.808   5.086
 6000TIP3   OH218005   1.439   2.923   1.779
 6000TIP3    H118006   1.444   2.959   1.690
 6000TIP3    H218007   1.446   2.829   1.767
 6001TIP3   OH218008   4.777   1.640   0.458
 6001TIP3    H118009   4.807   1.660   0.547
 6001TIP3    H218010   4.747   1.724   0.423
 6002TIP3   OH218011   2.244   1.978   0.536
 6002TIP3    H118012   2.271   1.887   0.554
 6002TIP3    H218013   2.165   1.990   0.589
 6003TIP3   OH218014   4.924   2.416   3.077
 6003TIP3    H118015   4.918   2.456   2.991
 6003TIP3    H218016   4.919   2.322   3.060
 6004TIP3   OH218017   1.352   3.508   1.086
 6004TIP3    H118018   1.303   3.441   1.135
 6004TIP3    H218019   1.297   3.586   1.091
 6005TIP3   OH218020   1.655   1.852   3.713
 6005TIP3    H118021   1.669   1.761   3.737
 6005TIP3    H218022   1.709   1.902   3.774
 6006TIP3   OH218023   2.348   3.832   2.569
 6006TIP3    H118024   2.340   3.738   2.587
 6006TIP3    H218025   2.316   3.842   2.479
 6007TIP3   OH218026   2.120   1.099   1.936
 6007TIP3    H118027   2.069   1.105   1.856
 6007TIP3    H218028   2.138   1.005   1.945
 6008TIP3   OH218029   1.674   2.674   1.388
 6008TIP3    H118030   1.732   2.745   1.415
 6008TIP3    H218031   1.641   2.701   1.302
 6009TIP3   OH218032   4.967   1.292   5.018
 6009TIP3    H118033   5.055   1.284   4.981
 6009TIP3    H218034   4.943   1.384   5.002
 6010TIP3   OH218035   3.596   1.704   2.873
 6010TIP3    H118036   3.503   1.700   2.852
 6010TIP3    H218037   3.618   1.614   2.900
 6011TIP3   OH218038   1.879   3.155   4.801
 6011TIP3    H118039   1.941   3.108   4.856
 6011TIP3    H218040   1.821   3.201   4.862
 6012TIP3   OH218041   4.808   3.377   1.911
 6012TIP3    H118042   4.785   3.305   1.853
 6012TIP3    H218043   4.765   3.356   1.994
 6013TIP3   OH218044   6.311   3.035   0.326
 6013TIP3    H118045   6.376   3.015   0.259
 6013TIP3    H218046   6.228   3.008   0.289
 6014TIP3   OH218047   3.692   1.981   1.017
 6014TIP3    H118048   3.763   2.046   1.019
 6014TIP3    H218049   3.684   1.957   0.925
 6015TIP3   OH218050   4.703   3.044   3.634
 6015TIP3    H118051   4.741   3.114   3.581
 6015TIP3    H218052   4.713   3.075   3.724
 6016TIP3   OH218053   0.391   4.732   2.786
 6016TIP3    H118054   0.348   4.685   2.858
 6016TIP3    H218055   0.394   4.823   2.816
 6017TIP3   OH218056   4.726   4.394   4.844
 6017TIP3    H118057   4.778   4.368   4.920
 6017TIP3    H218058   4.652   4.334   4.843
 6018TIP3   OH218059   4.404   3.316   2.795
 6018TIP3    H118060   4.477   3.257   2.778
 6018TIP3    H218061   4.429   3.399   2.753
 6019TIP3   OH218062   4.574   3.908   2.841
 6019TIP3    H118063   4.626   3.975   2.886
 6019TIP3    H218064   4.483   3.930   2.860
 6020TIP3   OH218065   4.453   0.455   3.335
 6020TIP3    H118066   4.478   0.436   3.426
 6020TIP3    H218067   4.481   0.545   3.321
 6021TIP3   OH218068   1.610   5.479   0.419
 6021TIP3    H118069   1.703   5.494   0.406
 6021TIP3    H218070   1.567   5.546   0.365
 6022TIP3   OH218071   3.552   2.164   4.270
 6022TIP3    H118072   3.553   2.069   4.261
 6022TIP3    H218073   3.558   2.197   4.181
 6023TIP3   OH218074   0.336   3.040   1.300
 6023TIP3    H118075   0.386   3.020   1.379
 6023TIP3    H218076   0.294   2.957   1.276
 6024TIP3   OH218077   5.230   3.286   4.413
 6024TIP3    H118078   5.305   3.341   4.434
 6024TIP3    H218079   5.240   3.209   4.468
 6025TIP3   OH218080   3.198   2.960   0.638
 6025TIP3    H118081   3.248   3.022   0.691
 6025TIP3    H218082   3.107   2.988   0.648
 6026TIP3   OH218083   1.992   4.721   3.329
 6026TIP3    H118084   2.086   4.738   3.323
 6026TIP3    H218085   1.986   4.627   3.344
 6027TIP3   OH218086   1.810   1.830   4.974
 6027TIP3    H118087   1.726   1.823   4.927
 6027TIP3    H218088   1.818   1.923   4.994
 6028TIP3   OH218089   2.987   3.674   3.835
 6028TIP3    H118090   3.009   3.665   3.743
 6028TIP3    H218091   3.012   3.591   3.874
 6029TIP3   OH218092   4.221   3.267   4.055
 6029TIP3    H118093   4.140   3.217   4.050
 6029TIP3    H218094   4.282   3.220   3.999
 6030TIP3   OH218095   0.707   3.356   2.309
 6030TIP3    H118096   0.763   3.347   2.386
 6030TIP3    H218097   0.618   3.362   2.344
 6031TIP3   OH218098   0.716   2.941   1.077
 6031TIP3    H118099   0.729   2.889   1.157
 6031TIP3    H218100   0.792   3.000   1.075
 6032TIP3   OH218101   1.968   2.890   2.364
 6032TIP3    H118102   1.879   2.880   2.332
 6032TIP3    H218103   1.961   2.875   2.459
 6033TIP3   OH218104   5.019   5.109   2.804
 6033TIP3    H118105   4.980   5.116   2.717
 6033TIP3    H218106   4.949   5.134   2.864
 6034TIP3   OH218107   5.143   1.674   4.154
 6034TIP3    H118108   5.230   1.713   4.162
 6034TIP3    H218109   5.095   1.734   4.097
 6035TIP3   OH218110   3.820   3.190   0.354
 6035TIP3    H118111   3.799   3.170   0.445
 6035TIP3    H218112   3.871   3.114   0.324
 6036TIP3   OH218113   0.654   2.674   0.981
 6036TIP3    H118114   0.585   2.653   1.044
 6036TIP3    H218115   0.675   2.766   0.998
 6037TIP3   OH218116   5.101   0.238   2.559
 6037TIP3    H118117   5.056   0.290   2.625
 6037TIP3    H218118   5.144   0.302   2.503
 6038TIP3   OH218119   4.273   1.785   3.527
 6038TIP3    H118120   4.197   1.843   3.531
 6038TIP3    H218121   4.287   1.757   3.618
 6039TIP3   OH218122   3.748   0.139   1.541
 6039TIP3    H118123   3.749   0.176   1.453
 6039TIP3    H218124   3.665   0.090   1.544
 6040TIP3   OH218125   4.495   2.008   2.588
 6040TIP3    H118126   4.428   2.040   2.649
 6040TIP3    H218127   4.551   1.952   2.642
 6041TIP3   OH218128   3.725   4.322   2.851
 6041TIP3    H118129   3.820   4.317   2.850
 6041TIP3    H218130   3.698   4.293   2.764
 6042TIP3   OH218131   2.387   2.496   4.834
 6042TIP3    H118132   2.329   2.430   4.794
 6042TIP3    H218133   2.432   2.448   4.904
 6043TIP3   OH218134   1.501   0.422   1.457
 6043TIP3    H118135   1.484   0.330   1.439
 6043TIP3    H218136   1.443   0.469   1.396
 6044TIP3   OH218137   6.031   2.126   4.248
 6044TIP3    H118138   6.114   2.165   4.277
 6044TIP3    H218139   6.052   2.085   4.164
 6045TIP3   OH218140   5.724   1.003   0.246
 6045TIP3    H118141   5.715   1.048   0.162
 6045TIP3    H218142   5.655   1.041   0.301
 6046TIP3   OH218143   2.566   2.952   4.856
 6046TIP3    H118144   2.601   2.863   4.852
 6046TIP3    H218145   2.590   2.984   4.943
 6047TIP3   OH218146   0.645   2.978   2.495
 6047TIP3    H118147   0.576   3.025   2.543
 6047TIP3    H218148   0.599   2.937   2.422
 6048TIP3   OH218149   5.304   1.182   0.135
 6048TIP3    H118150   5.262   1.251   0.083
 6048TIP3    H218151   5.392   1.175   0.097
 6049TIP3   OH218152   3.132   5.209   0.744
 6049TIP3    H118153   3.150   5.186   0.653
 6049TIP3    H218154   3.135   5.305   0.745
 6050TIP3   OH218155   3.965   2.049   1.387
 6050TIP3    H118156   3.872   2.043   1.409
 6050TIP3    H218157   3.974   2.135   1.345
 6051TIP3   OH218158   1.184   5.255   3.007
 6051TIP3    H118159   1.105   5.226   3.053
 6051TIP3    H218160   1.170   5.228   2.916
 6052TIP3   OH218161   1.743   5.192   4.319
 6052TIP3    H118162   1.780   5.267   4.272
 6052TIP3    H218163   1.722   5.226   4.406
 6053TIP3   OH218164   0.279   5.394   4.043
 6053TIP3    H118165   0.280   5.306   4.080
 6053TIP3    H218166   0.195   5.430   4.069
 6054TIP3   OH218167   2.604   4.842   0.585
 6054TIP3    H118168   2.528   4.896   0.561
 6054TIP3    H218169   2.601   4.769   0.523
 6055TIP3   OH218170   5.109   0.517   1.942
 6055TIP3    H118171   5.041   0.520   2.010
 6055TIP3    H218172   5.187   0.554   1.985
 6056TIP3   OH218173   4.954   3.835   2.788
 6056TIP3    H118174   5.009   3.888   2.845
 6056TIP3    H218175   4.895   3.788   2.847
 6057TIP3   OH218176   1.811   0.795   0.047
 6057TIP3    H118177   1.879   0.774  -0.016
 6057TIP3    H218178   1.818   0.889   0.061
 6058TIP3   OH218179   5.785   4.802   2.991
 6058TIP3    H118180   5.703   4.798   2.942
 6058TIP3    H218181   5.817   4.892   2.977
 6059TIP3   OH218182   1.961   3.513   2.865
 6059TIP3    H118183   1.968   3.427   2.825
 6059TIP3    H218184   2.042   3.558   2.840
 6060TIP3   OH218185   0.741   2.880   1.357
 6060TIP3    H118186   0.818   2.928   1.388
 6060TIP3    H218187   0.741   2.798   1.408
 6061TIP3   OH218188   5.725   3.148   1.062
 6061TIP3    H118189   5.730   3.088   0.987
 6061TIP3    H218190   5.763   3.100   1.135
 6062TIP3   OH218191   0.557   2.558   4.990
 6062TIP3    H118192   0.640   2.510   4.995
 6062TIP3    H218193   0.530   2.549   4.899
 6063TIP3   OH218194   0.749   3.551   1.226
 6063TIP3    H118195   0.656   3.530   1.231
 6063TIP3    H218196   0.768   3.596   1.308
 6064TIP3   OH218197   0.268   2.299   1.591
 6064TIP3    H118198   0.284   2.343   1.507
 6064TIP3    H218199   0.192   2.242   1.575
 6065TIP3   OH218200   5.953   1.937   4.437
 6065TIP3    H118201   6.025   1.877   4.422
 6065TIP3    H218202   5.968   2.009   4.376
 6066TIP3   OH218203   6.059   0.788   4.726
 6066TIP3    H118204   6.073   0.751   4.813
 6066TIP3    H218205   5.968   0.817   4.726
 6067TIP3   OH218206   5.820   2.945   4.858
 6067TIP3    H118207   5.767   2.880   4.812
 6067TIP3    H218208   5.798   2.934   4.950
 6068TIP3   OH218209   3.154   2.581   1.911
 6068TIP3    H118210   3.162   2.676   1.904
 6068TIP3    H218211   3.102   2.556   1.834
 6069TIP3   OH218212   1.056   2.567   3.962
 6069TIP3    H118213   1.075   2.657   3.987
 6069TIP3    H218214   1.080   2.515   4.039
 6070TIP3   OH218215   1.505   1.472   4.687
 6070TIP3    H118216   1.481   1.444   4.598
 6070TIP3    H218217   1.426   1.517   4.719
 6071TIP3   OH218218   1.967   5.559   3.941
 6071TIP3    H118219   1.886   5.558   3.891
 6071TIP3    H218220   2.018   5.631   3.904
 6072TIP3   OH218221   4.623   1.208   5.039
 6072TIP3    H118222   4.691   1.269   5.068
 6072TIP3    H218223   4.670   1.134   5.002
 6073TIP3   OH218224   4.155   1.663   4.781
 6073TIP3    H118225   4.106   1.743   4.801
 6073TIP3    H218226   4.118   1.631   4.699
 6074TIP3   OH218227   4.003   5.929   4.396
 6074TIP3    H118228   3.932   5.896   4.342
 6074TIP3    H218229   4.016   6.019   4.365
 6075TIP3   OH218230   3.190   0.058   1.711
 6075TIP3    H118231   3.257   0.055   1.780
 6075TIP3    H218232   3.145   0.142   1.726
 6076TIP3   OH218233   2.888   2.517   3.026
 6076TIP3    H118234   2.874   2.560   3.110
 6076TIP3    H218235   2.982   2.506   3.019
 6077TIP3   OH218236   5.609   3.562   1.013
 6077TIP3    H118237   5.683   3.580   0.955
 6077TIP3    H218238   5.541   3.623   0.984
 6078TIP3   OH218239   3.662   4.992   3.598
 6078TIP3    H118240   3.598   4.955   3.537
 6078TIP3    H218241   3.627   5.077   3.622
 6079TIP3   OH218242   3.769   1.154   0.861
 6079TIP3    H118243   3.803   1.107   0.938
 6079TIP3    H218244   3.739   1.084   0.802
 6080TIP3   OH218245   2.766   1.575   4.984
 6080TIP3    H118246   2.828   1.581   5.057
 6080TIP3    H218247   2.761   1.481   4.965
 6081TIP3   OH218248   4.138   5.086   1.474
 6081TIP3    H118249   4.075   5.030   1.520
 6081TIP3    H218250   4.084   5.143   1.420
 6082TIP3   OH218251   4.342   1.337   0.916
 6082TIP3    H118252   4.278   1.323   0.985
 6082TIP3    H218253   4.304   1.294   0.839
 6083TIP3   OH218254   3.257   3.789   3.263
 6083TIP3    H118255   3.289   3.788   3.353
 6083TIP3    H218256   3.331   3.759   3.211
 6084TIP3   OH218257   1.040   2.136   4.443
 6084TIP3    H118258   1.084   2.104   4.364
 6084TIP3    H218259   1.089   2.214   4.469
 6085TIP3   OH218260   0.491   4.213   0.774
 6085TIP3    H118261   0.565   4.166   0.734
 6085TIP3    H218262   0.474   4.286   0.714
 6086TIP3   OH218263   0.818   4.675   0.521
 6086TIP3    H118264   0.841   4.646   0.432
 6086TIP3    H218265   0.878   4.748   0.539
 6087TIP3   OH218266   0.332   1.572   2.927
 6087TIP3    H118267   0.405   1.560   2.866
 6087TIP3    H218268   0.254   1.578   2.872
 6088TIP3   OH218269   2.844   0.876   1.381
 6088TIP3    H118270   2.843   0.787   1.416
 6088TIP3    H218271   2.786   0.872   1.305
 6089TIP3   OH218272   6.256   2.651   2.604
 6089TIP3    H118273   6.307   2.673   2.527
 6089TIP3    H218274   6.314   2.595   2.657
 6090TIP3   OH218275   5.312   1.191   3.510
 6090TIP3    H118276   5.224   1.170   3.541
 6090TIP3    H218277   5.326   1.282   3.538
 6091TIP3   OH218278   0.229   0.370   1.420
 6091TIP3    H118279   0.221   0.327   1.335
 6091TIP3    H218280   0.165   0.441   1.417
 6092TIP3   OH218281   0.237   2.067   3.692
 6092TIP3    H118282   0.249   2.020   3.775
 6092TIP3    H218283   0.183   2.009   3.639
 6093TIP3   OH218284   1.861   4.467   1.241
 6093TIP3    H118285   1.845   4.561   1.245
 6093TIP3    H218286   1.807   4.431   1.311
 6094TIP3   OH218287   4.852   5.079   4.219
 6094TIP3    H118288   4.922   5.015   4.212
 6094TIP3    H218289   4.872   5.127   4.300
 6095TIP3   OH218290   1.408   0.336   3.871
 6095TIP3    H118291   1.504   0.332   3.870
 6095TIP3    H218292   1.385   0.394   3.799
 6096TIP3   OH218293   1.018   0.870   2.297
 6096TIP3    H118294   0.961   0.897   2.368
 6096TIP3    H218295   1.105   0.901   2.322
 6097TIP3   OH218296   2.721   3.224   1.465
 6097TIP3    H118297   2.808   3.260   1.482
 6097TIP3    H218298   2.710   3.155   1.531
 6098TIP3   OH218299   5.021   4.273   1.626
 6098TIP3    H118300   4.933   4.275   1.665
 6098TIP3    H218301   5.053   4.362   1.634
 6099TIP3   OH218302   3.095   5.812   0.650
 6099TIP3    H118303   3.132   5.863   0.578
 6099TIP3    H218304   3.047   5.877   0.702
 6100TIP3   OH218305   1.642   5.691   4.307
 6100TIP3    H118306   1.566   5.679   4.365
 6100TIP3    H218307   1.716   5.660   4.359
 6101TIP3   OH218308   5.632   1.305   1.280
 6101TIP3    H118309   5.539   1.287   1.266
 6101TIP3    H218310   5.633   1.391   1.323
 6102TIP3   OH218311   1.123   3.780   2.889
 6102TIP3    H118312   1.128   3.837   2.812
 6102TIP3    H218313   1.037   3.740   2.883
 6103TIP3   OH218314   2.902   4.272   4.904
 6103TIP3    H118315   2.912   4.366   4.889
 6103TIP3    H218316   2.876   4.236   4.819
 6104TIP3   OH218317   3.496   3.519   0.160
 6104TIP3    H118318   3.485   3.552   0.071
 6104TIP3    H218319   3.480   3.594   0.216
 6105TIP3   OH218320   6.217   3.382   1.237
 6105TIP3    H118321   6.163   3.418   1.308
 6105TIP3    H218322   6.155   3.356   1.170
 6106TIP3   OH218323   6.005   3.548   2.779
 6106TIP3    H118324   5.984   3.455   2.779
 6106TIP3    H218325   6.044   3.564   2.693
 6107TIP3   OH218326   3.731   1.252   4.003
 6107TIP3    H118327   3.789   1.189   3.960
 6107TIP3    H218328   3.715   1.318   3.935
 6108TIP3   OH218329   1.403   1.700   4.074
 6108TIP3    H118330   1.488   1.729   4.104
 6108TIP3    H218331   1.367   1.775   4.026
 6109TIP3   OH218332   4.152   1.052   5.117
 6109TIP3    H118333   4.175   1.091   5.201
 6109TIP3    H218334   4.179   1.117   5.052
 6110TIP3   OH218335   0.807   4.883   3.322
 6110TIP3    H118336   0.712   4.869   3.324
 6110TIP3    H218337   0.821   4.955   3.384
 6111TIP3   OH218338   2.282   4.158   1.395
 6111TIP3    H118339   2.328   4.162   1.479
 6111TIP3    H218340   2.244   4.070   1.392
 6112TIP3   OH218341   4.344   1.509   0.295
 6112TIP3    H118342   4.307   1.457   0.366
 6112TIP3    H218343   4.346   1.598   0.328
 6113TIP3   OH218344   0.182   2.971   3.630
 6113TIP3    H118345   0.221   2.940   3.712
 6113TIP3    H218346   0.244   3.036   3.596
 6114TIP3   OH218347   5.259   5.869   1.390
 6114TIP3    H118348   5.183   5.925   1.378
 6114TIP3    H218349   5.305   5.906   1.466
 6115TIP3   OH218350   2.783   2.290   1.734
 6115TIP3    H118351   2.753   2.279   1.644
 6115TIP3    H218352   2.703   2.297   1.786
 6116TIP3   OH218353   0.272   2.815   4.959
 6116TIP3    H118354   0.327   2.795   4.883
 6116TIP3    H218355   0.291   2.906   4.979
 6117TIP3   OH218356   4.507   3.062   1.444
 6117TIP3    H118357   4.576   3.037   1.505
 6117TIP3    H218358   4.553   3.095   1.367
 6118TIP3   OH218359   3.233   2.260   2.242
 6118TIP3    H118360   3.249   2.180   2.192
 6118TIP3    H218361   3.294   2.255   2.316
 6119TIP3   OH218362   0.951   5.908   2.025
 6119TIP3    H118363   1.006   5.831   2.016
 6119TIP3    H218364   0.914   5.921   1.938
 6120TIP3   OH218365   1.903   4.139   1.343
 6120TIP3    H118366   1.891   4.114   1.434
 6120TIP3    H218367   1.868   4.228   1.338
 6121TIP3   OH218368   1.089   2.390   3.116
 6121TIP3    H118369   1.039   2.316   3.083
 6121TIP3    H218370   1.167   2.394   3.061
 6122TIP3   OH218371   0.488   0.370   1.615
 6122TIP3    H118372   0.474   0.409   1.529
 6122TIP3    H218373   0.463   0.439   1.677
 6123TIP3   OH218374   4.755   2.582   5.220
 6123TIP3    H118375   4.806   2.519   5.169
 6123TIP3    H218376   4.708   2.634   5.154
 6124TIP3   OH218377   2.781   5.219   4.592
 6124TIP3    H118378   2.796   5.313   4.602
 6124TIP3    H218379   2.838   5.178   4.656
 6125TIP3   OH218380   2.325   4.684   1.238
 6125TIP3    H118381   2.299   4.591   1.239
 6125TIP3    H218382   2.285   4.718   1.158
 6126TIP3   OH218383   2.081   2.283   0.449
 6126TIP3    H118384   2.163   2.234   0.440
 6126TIP3    H218385   2.103   2.371   0.419
 6127TIP3   OH218386   0.011   0.185   3.746
 6127TIP3    H118387   0.072   0.256   3.728
 6127TIP3    H218388  -0.014   0.197   3.837
 6128TIP3   OH218389   0.686   3.983   1.905
 6128TIP3    H118390   0.616   3.937   1.858
 6128TIP3    H218391   0.684   3.946   1.993
 6129TIP3   OH218392   2.989   1.217   0.115
 6129TIP3    H118393   3.075   1.259   0.108
 6129TIP3    H218394   2.963   1.229   0.206
 6130TIP3   OH218395   4.445   2.102   4.637
 6130TIP3    H118396   4.449   2.198   4.632
 6130TIP3    H218397   4.530   2.073   4.604
 6131TIP3   OH218398   5.650   5.789   1.484
 6131TIP3    H118399   5.560   5.814   1.507
 6131TIP3    H218400   5.647   5.694   1.473
 6132TIP3   OH218401   4.003   4.622   3.324
 6132TIP3    H118402   3.959   4.547   3.285
 6132TIP3    H218403   4.045   4.666   3.250
 6133TIP3   OH218404   3.086   1.757   4.707
 6133TIP3    H118405   3.052   1.745   4.618
 6133TIP3    H218406   3.010   1.779   4.760
 6134TIP3   OH218407   2.825   0.196   1.358
 6134TIP3    H118408   2.740   0.157   1.378
 6134TIP3    H218409   2.804   0.274   1.307
 6135TIP3   OH218410   3.977   0.289   3.797
 6135TIP3    H118411   3.956   0.299   3.890
 6135TIP3    H218412   3.966   0.376   3.760
 6136TIP3   OH218413   4.176   1.904   1.145
 6136TIP3    H118414   4.131   1.981   1.109
 6136TIP3    H218415   4.179   1.920   1.239
 6137TIP3   OH218416   3.220   3.332   0.412
 6137TIP3    H118417   3.203   3.253   0.463
 6137TIP3    H218418   3.315   3.337   0.407
 6138TIP3   OH218419   2.596   3.433   1.327
 6138TIP3    H118420   2.647   3.360   1.360
 6138TIP3    H218421   2.508   3.420   1.363
 6139TIP3   OH218422   0.202   0.147   2.654
 6139TIP3    H118423   0.227   0.236   2.628
 6139TIP3    H218424   0.205   0.148   2.750
 6140TIP3   OH218425   0.312   2.172   0.433
 6140TIP3    H118426   0.381   2.237   0.421
 6140TIP3    H218427   0.291   2.176   0.526
 6141TIP3   OH218428   2.594   0.031   1.399
 6141TIP3    H118429   2.544   0.110   1.377
 6141TIP3    H218430   2.616   0.042   1.491
 6142TIP3   OH218431   0.719   1.413   1.436
 6142TIP3    H118432   0.667   1.488   1.464
 6142TIP3    H218433   0.736   1.428   1.343
 6143TIP3   OH218434   1.492   5.285   4.832
 6143TIP3    H118435   1.406   5.306   4.870
 6143TIP3    H218436   1.473   5.218   4.767
 6144TIP3   OH218437   4.002   5.337   5.146
 6144TIP3    H118438   3.921   5.379   5.115
 6144TIP3    H218439   4.063   5.346   5.072
 6145TIP3   OH218440   3.841   3.885   2.871
 6145TIP3    H118441   3.858   3.792   2.887
 6145TIP3    H218442   3.914   3.930   2.913
 6146TIP3   OH218443   5.431   5.665   0.071
 6146TIP3    H118444   5.412   5.738   0.012
 6146TIP3    H218445   5.371   5.595   0.044
 6147TIP3   OH218446   4.193   4.666   3.098
 6147TIP3    H118447   4.280   4.701   3.081
 6147TIP3    H218448   4.196   4.576   3.067
 6148TIP3   OH218449   4.640   0.394   0.380
 6148TIP3    H118450   4.676   0.438   0.303
 6148TIP3    H218451   4.716   0.372   0.433
 6149TIP3   OH218452   5.489   4.581   2.481
 6149TIP3    H118453   5.415   4.589   2.541
 6149TIP3    H218454   5.560   4.546   2.534
 6150TIP3   OH218455   2.104   3.362   3.499
 6150TIP3    H118456   2.039   3.358   3.429
 6150TIP3    H218457   2.117   3.456   3.514
 6151TIP3   OH218458   6.182   0.440   4.231
 6151TIP3    H118459   6.092   0.460   4.205
 6151TIP3    H218460   6.211   0.518   4.278
 6152TIP3   OH218461   3.535   2.652   1.193
 6152TIP3    H118462   3.521   2.578   1.252
 6152TIP3    H218463   3.630   2.658   1.184
 6153TIP3   OH218464   2.160   5.927   1.233
 6153TIP3    H118465   2.201   6.001   1.189
 6153TIP3    H218466   2.190   5.934   1.324
 6154TIP3   OH218467   0.555   1.852   0.895
 6154TIP3    H118468   0.552   1.760   0.869
 6154TIP3    H218469   0.531   1.900   0.817
 6155TIP3   OH218470   0.786   0.280   1.316
 6155TIP3    H118471   0.853   0.220   1.285
 6155TIP3    H218472   0.739   0.307   1.237
 6156TIP3   OH218473   4.338   4.974   0.157
 6156TIP3    H118474   4.424   4.952   0.192
 6156TIP3    H218475   4.320   4.906   0.092
 6157TIP3   OH218476   5.886   0.063   5.128
 6157TIP3    H118477   5.911   0.141   5.178
 6157TIP3    H218478   5.956   0.053   5.063
 6158TIP3   OH218479   3.186   4.456   3.766
 6158TIP3    H118480   3.224   4.539   3.738
 6158TIP3    H218481   3.246   4.423   3.833
 6159TIP3   OH218482   4.171   5.608   1.210
 6159TIP3    H118483   4.245   5.636   1.155
 6159TIP3    H218484   4.163   5.514   1.192
 6160TIP3   OH218485   4.896   5.711   5.027
 6160TIP3    H118486   4.988   5.734   5.035
 6160TIP3    H218487   4.888   5.628   5.074
 6161TIP3   OH218488   1.003   4.178   4.229
 6161TIP3    H118489   0.932   4.122   4.260
 6161TIP3    H218490   1.071   4.116   4.200
 6162TIP3   OH218491   4.475   5.422   2.558
 6162TIP3    H118492   4.560   5.464   2.550
 6162TIP3    H218493   4.482   5.369   2.638
 6163TIP3   OH218494   2.409   3.192   1.526
 6163TIP3    H118495   2.329   3.140   1.529
 6163TIP3    H218496   2.471   3.138   1.478
 6164TIP3   OH218497   4.012   2.952   0.387
 6164TIP3    H118498   4.107   2.964   0.389
 6164TIP3    H218499   3.978   3.014   0.452
 6165TIP3   OH218500   4.123   2.603   4.877
 6165TIP3    H118501   4.097   2.543   4.947
 6165TIP3    H218502   4.053   2.668   4.874
 6166TIP3   OH218503   3.415   2.616   2.403
 6166TIP3    H118504   3.395   2.549   2.339
 6166TIP3    H218505   3.386   2.580   2.487
 6167TIP3   OH218506   4.033   1.021   3.010
 6167TIP3    H118507   4.062   1.097   3.060
 6167TIP3    H218508   4.043   1.047   2.918
 6168TIP3   OH218509   2.611   2.529   4.013
 6168TIP3    H118510   2.519   2.551   4.029
 6168TIP3    H218511   2.654   2.548   4.096
 6169TIP3   OH218512   0.465   5.294   3.505
 6169TIP3    H118513   0.453   5.385   3.480
 6169TIP3    H218514   0.390   5.274   3.561
 6170TIP3   OH218515   6.060   0.839   2.150
 6170TIP3    H118516   6.082   0.931   2.165
 6170TIP3    H218517   5.988   0.841   2.088
 6171TIP3   OH218518   2.749   5.162   4.901
 6171TIP3    H118519   2.768   5.256   4.902
 6171TIP3    H218520   2.704   5.145   4.983
 6172TIP3   OH218521   2.192   3.627   3.516
 6172TIP3    H118522   2.262   3.594   3.572
 6172TIP3    H218523   2.133   3.673   3.575
 6173TIP3   OH218524   0.620   4.750   3.802
 6173TIP3    H118525   0.588   4.667   3.839
 6173TIP3    H218526   0.633   4.730   3.709
 6174TIP3   OH218527   1.606   2.915   0.711
 6174TIP3    H118528   1.542   2.902   0.782
 6174TIP3    H218529   1.664   2.839   0.718
 6175TIP3   OH218530   1.751   5.648   3.271
 6175TIP3    H118531   1.781   5.731   3.234
 6175TIP3    H218532   1.669   5.630   3.225
 6176TIP3   OH218533   2.343   5.289   4.284
 6176TIP3    H118534   2.289   5.210   4.285
 6176TIP3    H218535   2.316   5.338   4.362
 6177TIP3   OH218536   0.044   2.997   3.198
 6177TIP3    H118537   0.025   3.086   3.169
 6177TIP3    H218538   0.131   3.003   3.237
 6178TIP3   OH218539   6.300   5.071   1.048
 6178TIP3    H118540   6.319   5.032   0.962
 6178TIP3    H218541   6.360   5.144   1.055
 6179TIP3   OH218542   4.101   1.359   4.335
 6179TIP3    H118543   4.034   1.338   4.269
 6179TIP3    H218544   4.076   1.308   4.411
 6180TIP3   OH218545   6.006   0.594   5.021
 6180TIP3    H118546   5.971   0.667   5.072
 6180TIP3    H218547   5.929   0.548   4.988
 6181TIP3   OH218548   2.235   0.837   4.389
 6181TIP3    H118549   2.184   0.782   4.449
 6181TIP3    H218550   2.308   0.781   4.362
 6182TIP3   OH218551   0.323   3.545   2.776
 6182TIP3    H118552   0.278   3.595   2.844
 6182TIP3    H218553   0.416   3.555   2.797
 6183TIP3   OH218554   1.281   3.222   3.963
 6183TIP3    H118555   1.267   3.148   4.022
 6183TIP3    H218556   1.200   3.226   3.911
 6184TIP3   OH218557   6.063   2.124   0.921
 6184TIP3    H118558   6.008   2.135   0.999
 6184TIP3    H218559   6.042   2.200   0.866
 6185TIP3   OH218560   0.100   2.293   3.540
 6185TIP3    H118561   0.145   2.221   3.586
 6185TIP3    H218562   0.141   2.296   3.454
 6186TIP3   OH218563   5.831   3.811   3.868
 6186TIP3    H118564   5.896   3.870   3.830
 6186TIP3    H218565   5.810   3.850   3.953
 6187TIP3   OH218566   3.324   0.347   3.915
 6187TIP3    H118567   3.310   0.377   4.005
 6187TIP3    H218568   3.336   0.427   3.865
 6188TIP3   OH218569   0.908   3.072   1.498
 6188TIP3    H118570   0.960   3.151   1.515
 6188TIP3    H218571   0.817   3.103   1.503
 6189TIP3   OH218572   2.534   5.045   4.103
 6189TIP3    H118573   2.574   5.115   4.154
 6189TIP3    H218574   2.607   4.993   4.070
 6190TIP3   OH218575   0.848   0.414   3.773
 6190TIP3    H118576   0.818   0.459   3.852
 6190TIP3    H218577   0.772   0.363   3.744
 6191TIP3   OH218578   5.645   3.896   1.503
 6191TIP3    H118579   5.552   3.896   1.524
 6191TIP3    H218580   5.680   3.972   1.550
 6192TIP3   OH218581   4.767   3.773   1.519
 6192TIP3    H118582   4.712   3.822   1.459
 6192TIP3    H218583   4.842   3.830   1.535
 6193TIP3   OH218584   1.758   3.021   1.525
 6193TIP3    H118585   1.786   3.106   1.557
 6193TIP3    H218586   1.698   2.988   1.592
 6194TIP3   OH218587   2.729   3.378   0.179
 6194TIP3    H118588   2.714   3.373   0.085
 6194TIP3    H218589   2.673   3.310   0.216
 6195TIP3   OH218590   2.900   2.296   2.332
 6195TIP3    H118591   2.973   2.248   2.293
 6195TIP3    H218592   2.917   2.388   2.312
 6196TIP3   OH218593   3.956   2.364   2.160
 6196TIP3    H118594   4.010   2.342   2.084
 6196TIP3    H218595   4.019   2.376   2.231
 6197TIP3   OH218596   1.397   4.004   1.999
 6197TIP3    H118597   1.395   4.086   1.950
 6197TIP3    H218598   1.454   4.022   2.074
 6198TIP3   OH218599   1.140   5.969   0.717
 6198TIP3    H118600   1.189   5.923   0.785
 6198TIP3    H218601   1.063   5.913   0.701
 6199TIP3   OH218602   1.327   2.278   1.416
 6199TIP3    H118603   1.283   2.334   1.352
 6199TIP3    H218604   1.410   2.322   1.434
 6200TIP3   OH218605   5.452   0.794   0.343
 6200TIP3    H118606   5.407   0.865   0.388
 6200TIP3    H218607   5.469   0.828   0.255
 6201TIP3   OH218608   0.715   3.515   5.139
 6201TIP3    H118609   0.776   3.564   5.194
 6201TIP3    H218610   0.747   3.529   5.050
 6202TIP3   OH218611   5.312   5.497   5.167
 6202TIP3    H118612   5.405   5.502   5.144
 6202TIP3    H218613   5.304   5.552   5.245
 6203TIP3   OH218614   1.990   2.142   4.831
 6203TIP3    H118615   2.065   2.085   4.853
 6203TIP3    H218616   1.928   2.129   4.903
 6204TIP3   OH218617   3.120   3.009   4.438
 6204TIP3    H118618   3.089   2.919   4.424
 6204TIP3    H218619   3.174   3.028   4.362
 6205TIP3   OH218620   0.813   4.236   0.320
 6205TIP3    H118621   0.762   4.178   0.376
 6205TIP3    H218622   0.748   4.290   0.275
 6206TIP3   OH218623   4.421   2.463   3.738
 6206TIP3    H118624   4.403   2.375   3.773
 6206TIP3    H218625   4.486   2.448   3.669
 6207TIP3   OH218626   5.679   4.274   1.008
 6207TIP3    H118627   5.659   4.277   1.102
 6207TIP3    H218628   5.774   4.261   1.005
 6208TIP3   OH218629   3.545   5.260   2.965
 6208TIP3    H118630   3.462   5.233   2.924
 6208TIP3    H218631   3.536   5.355   2.976
 6209TIP3   OH218632   5.246   4.105   1.254
 6209TIP3    H118633   5.276   4.186   1.212
 6209TIP3    H218634   5.232   4.129   1.346
 6210TIP3   OH218635   0.561   3.255   4.390
 6210TIP3    H118636   0.567   3.270   4.296
 6210TIP3    H218637   0.522   3.168   4.399
 6211TIP3   OH218638   4.687   0.193   1.876
 6211TIP3    H118639   4.637   0.215   1.955
 6211TIP3    H218640   4.707   0.277   1.836
 6212TIP3   OH218641   6.040   4.495   2.073
 6212TIP3    H118642   6.104   4.425   2.087
 6212TIP3    H218643   6.005   4.478   1.985
 6213TIP3   OH218644   2.982   2.421   1.376
 6213TIP3    H118645   3.055   2.399   1.317
 6213TIP3    H218646   2.975   2.516   1.371
 6214TIP3   OH218647   5.321   0.716   0.865
 6214TIP3    H118648   5.310   0.625   0.894
 6214TIP3    H218649   5.382   0.710   0.791
 6215TIP3   OH218650   1.836   2.369   1.356
 6215TIP3    H118651   1.911   2.418   1.391
 6215TIP3    H218652   1.823   2.404   1.268
 6216TIP3   OH218653   1.671   3.401   3.597
 6216TIP3    H118654   1.632   3.331   3.544
 6216TIP3    H218655   1.653   3.481   3.546
 6217TIP3   OH218656   0.617   2.148   2.385
 6217TIP3    H118657   0.594   2.241   2.390
 6217TIP3    H218658   0.600   2.114   2.472
 6218TIP3   OH218659   3.150   1.798   3.967
 6218TIP3    H118660   3.083   1.776   3.902
 6218TIP3    H218661   3.105   1.786   4.051
 6219TIP3   OH218662   5.570   4.389   0.777
 6219TIP3    H118663   5.591   4.373   0.869
 6219TIP3    H218664   5.651   4.425   0.741
 6220TIP3   OH218665   1.781   2.509   4.791
 6220TIP3    H118666   1.829   2.588   4.766
 6220TIP3    H218667   1.802   2.445   4.722
 6221TIP3   OH218668   3.935   1.502   4.045
 6221TIP3    H118669   3.998   1.490   3.974
 6221TIP3    H218670   3.865   1.441   4.026
 6222TIP3   OH218671   5.977   2.417   3.929
 6222TIP3    H118672   6.056   2.428   3.876
 6222TIP3    H218673   5.991   2.471   4.007
 6223TIP3   OH218674   4.259   5.915   2.508
 6223TIP3    H118675   4.175   5.878   2.538
 6223TIP3    H218676   4.248   6.009   2.519
 6224TIP3   OH218677   5.896   5.724   0.463
 6224TIP3    H118678   5.897   5.816   0.438
 6224TIP3    H218679   5.927   5.678   0.384
 6225TIP3   OH218680   0.790   3.212   1.299
 6225TIP3    H118681   0.719   3.251   1.249
 6225TIP3    H218682   0.854   3.185   1.232
 6226TIP3   OH218683   5.430   4.949   2.141
 6226TIP3    H118684   5.472   4.899   2.072
 6226TIP3    H218685   5.493   5.018   2.163
 6227TIP3   OH218686   4.236   5.046   3.220
 6227TIP3    H118687   4.201   5.038   3.308
 6227TIP3    H218688   4.238   5.141   3.204
 6228TIP3   OH218689   2.902   5.893   3.797
 6228TIP3    H118690   2.813   5.918   3.775
 6228TIP3    H218691   2.955   5.926   3.724
 6229TIP3   OH218692   2.985   3.648   3.349
 6229TIP3    H118693   2.909   3.705   3.363
 6229TIP3    H218694   3.059   3.698   3.381
 6230TIP3   OH218695   4.591   4.900   0.185
 6230TIP3    H118696   4.634   4.880   0.102
 6230TIP3    H218697   4.616   4.827   0.242
 6231TIP3   OH218698   0.331   3.225   1.075
 6231TIP3    H118699   0.353   3.145   1.123
 6231TIP3    H218700   0.249   3.254   1.113
 6232TIP3   OH218701   5.260   4.382   0.297
 6232TIP3    H118702   5.279   4.357   0.388
 6232TIP3    H218703   5.298   4.311   0.245
 6233TIP3   OH218704   3.543   1.247   4.622
 6233TIP3    H118705   3.481   1.224   4.553
 6233TIP3    H218706   3.624   1.267   4.576
 6234TIP3   OH218707   2.034   4.203   3.708
 6234TIP3    H118708   2.079   4.261   3.770
 6234TIP3    H218709   2.104   4.173   3.650
 6235TIP3   OH218710   1.683   3.675   1.978
 6235TIP3    H118711   1.731   3.709   2.054
 6235TIP3    H218712   1.649   3.590   2.007
 6236TIP3   OH218713   0.381   3.120   1.728
 6236TIP3    H118714   0.440   3.093   1.658
 6236TIP3    H218715   0.418   3.203   1.759
 6237TIP3   OH218716   5.869   4.560   0.753
 6237TIP3    H118717   5.827   4.646   0.762
 6237TIP3    H218718   5.905   4.542   0.839
 6238TIP3   OH218719   0.269   0.638  -0.004
 6238TIP3    H118720   0.257   0.595   0.081
 6238TIP3    H218721   0.357   0.613  -0.031
 6239TIP3   OH218722   3.056   5.240   2.812
 6239TIP3    H118723   2.989   5.307   2.827
 6239TIP3    H218724   3.107   5.274   2.739
 6240TIP3   OH218725   1.522   2.332   5.116
 6240TIP3    H118726   1.497   2.279   5.192
 6240TIP3    H218727   1.604   2.374   5.141
 6241TIP3   OH218728   5.609   2.880   2.181
 6241TIP3    H118729   5.653   2.801   2.213
 6241TIP3    H218730   5.589   2.861   2.090
 6242TIP3   OH218731   4.513   4.752   1.112
 6242TIP3    H118732   4.472   4.668   1.095
 6242TIP3    H218733   4.463   4.815   1.060
 6243TIP3   OH218734   2.641   2.694   4.955
 6243TIP3    H118735   2.645   2.651   4.870
 6243TIP3    H218736   2.662   2.624   5.018
 6244TIP3   OH218737   2.193   2.049   2.775
 6244TIP3    H118738   2.234   1.968   2.804
 6244TIP3    H218739   2.240   2.072   2.695
 6245TIP3   OH218740   0.747   5.132   3.551
 6245TIP3    H118741   0.689   5.159   3.480
 6245TIP3    H218742   0.745   5.204   3.614
 6246TIP3   OH218743   1.905   0.157   0.984
 6246TIP3    H118744   1.842   0.151   1.056
 6246TIP3    H218745   1.932   0.067   0.967
 6247TIP3   OH218746   0.091   0.923   3.979
 6247TIP3    H118747   0.016   0.979   3.999
 6247TIP3    H218748   0.054   0.850   3.930
 6248TIP3   OH218749   2.532   5.325   1.861
 6248TIP3    H118750   2.591   5.251   1.845
 6248TIP3    H218751   2.445   5.287   1.867
 6249TIP3   OH218752   1.585   3.838   1.300
 6249TIP3    H118753   1.651   3.808   1.237
 6249TIP3    H218754   1.630   3.905   1.352
 6250TIP3   OH218755   2.335   0.958   2.427
 6250TIP3    H118756   2.338   1.048   2.397
 6250TIP3    H218757   2.261   0.919   2.381
 6251TIP3   OH218758   5.589   2.741   4.451
 6251TIP3    H118759   5.617   2.829   4.427
 6251TIP3    H218760   5.651   2.713   4.519
 6252TIP3   OH218761   0.478   4.186   1.328
 6252TIP3    H118762   0.409   4.178   1.394
 6252TIP3    H218763   0.473   4.277   1.299
 6253TIP3   OH218764   4.061   3.501   2.997
 6253TIP3    H118765   4.074   3.551   3.078
 6253TIP3    H218766   4.130   3.434   2.999
 6254TIP3   OH218767   4.968   1.476   4.537
 6254TIP3    H118768   4.883   1.440   4.563
 6254TIP3    H218769   4.966   1.567   4.566
 6255TIP3   OH218770   5.870   5.564   3.558
 6255TIP3    H118771   5.800   5.559   3.623
 6255TIP3    H218772   5.827   5.541   3.475
 6256TIP3   OH218773   5.774   1.397   4.708
 6256TIP3    H118774   5.835   1.438   4.646
 6256TIP3    H218775   5.735   1.470   4.755
 6257TIP3   OH218776   5.932   3.961   5.031
 6257TIP3    H118777   5.974   4.044   5.010
 6257TIP3    H218778   5.862   3.984   5.093
 6258TIP3   OH218779   5.659   2.638   4.031
 6258TIP3    H118780   5.745   2.636   4.071
 6258TIP3    H218781   5.672   2.603   3.943
 6259TIP3   OH218782   1.902   2.888   2.660
 6259TIP3    H118783   1.913   2.844   2.744
 6259TIP3    H218784   1.815   2.862   2.630
 6260TIP3   OH218785   2.555   5.906   1.648
 6260TIP3    H118786   2.526   5.889   1.738
 6260TIP3    H218787   2.543   5.822   1.603
 6261TIP3   OH218788   2.118   0.387   4.680
 6261TIP3    H118789   2.031   0.425   4.667
 6261TIP3    H218790   2.130   0.328   4.606
 6262TIP3   OH218791   3.356   1.204   3.563
 6262TIP3    H118792   3.410   1.170   3.492
 6262TIP3    H218793   3.392   1.164   3.642
 6263TIP3   OH218794   4.992   4.851   0.424
 6263TIP3    H118795   5.009   4.757   0.430
 6263TIP3    H218796   5.078   4.891   0.428
 6264TIP3   OH218797   0.419   4.937   3.903
 6264TIP3    H118798   0.461   4.872   3.847
 6264TIP3    H218799   0.489   4.964   3.963
 6265TIP3   OH218800   3.941   4.931   2.310
 6265TIP3    H118801   3.904   4.848   2.281
 6265TIP3    H218802   3.880   4.963   2.377
 6266TIP3   OH218803   4.175   2.265   3.122
 6266TIP3    H118804   4.109   2.271   3.192
 6266TIP3    H218805   4.151   2.334   3.060
 6267TIP3   OH218806   6.201   5.245   4.375
 6267TIP3    H118807   6.291   5.268   4.397
 6267TIP3    H218808   6.152   5.255   4.457
 6268TIP3   OH218809   3.693   5.748   3.997
 6268TIP3    H118810   3.659   5.734   3.908
 6268TIP3    H218811   3.754   5.675   4.010
 6269TIP3   OH218812   3.153   2.161   4.469
 6269TIP3    H118813   3.075   2.163   4.525
 6269TIP3    H218814   3.222   2.198   4.524
 6270TIP3   OH218815   5.788   0.497   4.892
 6270TIP3    H118816   5.843   0.522   4.818
 6270TIP3    H218817   5.700   0.528   4.869
 6271TIP3   OH218818   1.133   0.523   1.898
 6271TIP3    H118819   1.101   0.592   1.955
 6271TIP3    H218820   1.127   0.560   1.810
 6272TIP3   OH218821   3.636   0.528   2.484
 6272TIP3    H118822   3.718   0.486   2.459
 6272TIP3    H218823   3.568   0.474   2.444
 6273TIP3   OH218824   1.722   1.126   4.180
 6273TIP3    H118825   1.632   1.113   4.151
 6273TIP3    H218826   1.774   1.124   4.099
 6274TIP3   OH218827   3.060   2.965   0.882
 6274TIP3    H118828   2.999   3.038   0.894
 6274TIP3    H218829   3.144   3.006   0.864
 6275TIP3   OH218830   1.174   1.523   3.872
 6275TIP3    H118831   1.122   1.598   3.901
 6275TIP3    H218832   1.168   1.525   3.777
 6276TIP3   OH218833   1.471   2.396   2.641
 6276TIP3    H118834   1.482   2.381   2.735
 6276TIP3    H218835   1.460   2.309   2.604
 6277TIP3   OH218836   2.765   3.497   3.815
 6277TIP3    H118837   2.782   3.586   3.847
 6277TIP3    H218838   2.852   3.462   3.794
 6278TIP3   OH218839   3.255   5.708   2.715
 6278TIP3    H118840   3.274   5.795   2.748
 6278TIP3    H218841   3.251   5.719   2.620
 6279TIP3   OH218842   2.816   1.012   3.230
 6279TIP3    H118843   2.888   1.013   3.166
 6279TIP3    H218844   2.737   1.004   3.176
 6280TIP3   OH218845   2.016   4.623   4.846
 6280TIP3    H118846   2.055   4.536   4.850
 6280TIP3    H218847   2.069   4.675   4.908
 6281TIP3   OH218848   1.348   5.506   1.866
 6281TIP3    H118849   1.371   5.578   1.808
 6281TIP3    H218850   1.432   5.475   1.900
 6282TIP3   OH218851   5.448   5.969   1.088
 6282TIP3    H118852   5.518   5.959   1.153
 6282TIP3    H218853   5.424   5.880   1.065
 6283TIP3   OH218854   1.870   0.717   2.838
 6283TIP3    H118855   1.886   0.631   2.877
 6283TIP3    H218856   1.775   0.722   2.829
 6284TIP3   OH218857   5.099   1.069   1.537
 6284TIP3    H118858   5.173   1.071   1.598
 6284TIP3    H218859   5.132   1.026   1.459
 6285TIP3   OH218860   3.348   4.694   5.082
 6285TIP3    H118861   3.317   4.628   5.145
 6285TIP3    H218862   3.312   4.776   5.114
 6286TIP3   OH218863   2.577   1.235   1.937
 6286TIP3    H118864   2.609   1.321   1.963
 6286TIP3    H218865   2.603   1.177   2.008
 6287TIP3   OH218866   5.390   2.377   4.986
 6287TIP3    H118867   5.314   2.365   4.929
 6287TIP3    H218868   5.367   2.330   5.066
 6288TIP3   OH218869   5.050   4.561   1.241
 6288TIP3    H118870   5.063   4.618   1.166
 6288TIP3    H218871   5.002   4.485   1.206
 6289TIP3   OH218872   0.215   1.523   2.513
 6289TIP3    H118873   0.267   1.460   2.462
 6289TIP3    H218874   0.164   1.468   2.573
 6290TIP3   OH218875   0.517   1.791   1.416
 6290TIP3    H118876   0.570   1.782   1.337
 6290TIP3    H218877   0.467   1.709   1.421
 6291TIP3   OH218878   6.341   0.507   0.541
 6291TIP3    H118879   6.346   0.587   0.489
 6291TIP3    H218880   6.335   0.436   0.476
 6292TIP3   OH218881   0.489   4.938   1.090
 6292TIP3    H118882   0.563   4.905   1.039
 6292TIP3    H218883   0.496   5.033   1.084
 6293TIP3   OH218884   6.145   4.692   2.239
 6293TIP3    H118885   6.132   4.619   2.178
 6293TIP3    H218886   6.233   4.725   2.219
 6294TIP3   OH218887   5.829   3.695   4.199
 6294TIP3    H118888   5.734   3.691   4.215
 6294TIP3    H218889   5.867   3.632   4.260
 6295TIP3   OH218890   2.830   3.084   4.308
 6295TIP3    H118891   2.901   3.098   4.244
 6295TIP3    H218892   2.760   3.044   4.257
 6296TIP3   OH218893   0.311   5.676   4.191
 6296TIP3    H118894   0.341   5.590   4.160
 6296TIP3    H218895   0.239   5.699   4.133
 6297TIP3   OH218896   5.831   1.684   3.635
 6297TIP3    H118897   5.799   1.774   3.631
 6297TIP3    H218898   5.855   1.672   3.727
 6298TIP3   OH218899   3.764   3.314   1.543
 6298TIP3    H118900   3.856   3.312   1.514
 6298TIP3    H218901   3.752   3.229   1.586
 6299TIP3   OH218902   2.893   5.164   4.327
 6299TIP3    H118903   2.941   5.106   4.386
 6299TIP3    H218904   2.803   5.134   4.331
 6300TIP3   OH218905   4.970   3.120   2.289
 6300TIP3    H118906   5.022   3.051   2.330
 6300TIP3    H218907   4.884   3.080   2.276
 6301TIP3   OH218908   3.971   5.819   0.927
 6301TIP3    H118909   3.985   5.724   0.922
 6301TIP3    H218910   3.880   5.829   0.957
 6302TIP3   OH218911   2.952   2.808   2.895
 6302TIP3    H118912   2.963   2.761   2.977
 6302TIP3    H218913   2.882   2.871   2.912
 6303TIP3   OH218914   4.493   2.577   2.317
 6303TIP3    H118915   4.583   2.561   2.289
 6303TIP3    H218916   4.441   2.516   2.265
 6304TIP3   OH218917   0.322   0.387   3.774
 6304TIP3    H118918   0.292   0.347   3.693
 6304TIP3    H218919   0.358   0.315   3.825
 6305TIP3   OH218920   2.700   1.741   1.277
 6305TIP3    H118921   2.733   1.677   1.341
 6305TIP3    H218922   2.707   1.825   1.323
 6306TIP3   OH218923   2.068   5.284   1.191
 6306TIP3    H118924   1.996   5.234   1.230
 6306TIP3    H218925   2.030   5.368   1.168
 6307TIP3   OH218926   5.098   0.025   1.801
 6307TIP3    H118927   5.193   0.030   1.813
 6307TIP3    H218928   5.074   0.109   1.763
 6308TIP3   OH218929   3.930   0.326   0.597
 6308TIP3    H118930   4.019   0.329   0.563
 6308TIP3    H218931   3.936   0.370   0.682
 6309TIP3   OH218932   5.030   5.392   0.751
 6309TIP3    H118933   5.122   5.420   0.747
 6309TIP3    H218934   4.986   5.460   0.803
 6310TIP3   OH218935   0.936   1.666   3.974
 6310TIP3    H118936   0.908   1.718   3.898
 6310TIP3    H218937   0.900   1.579   3.958
 6311TIP3   OH218938   5.253   0.625   3.455
 6311TIP3    H118939   5.296   0.692   3.402
 6311TIP3    H218940   5.324   0.581   3.501
 6312TIP3   OH218941   0.803   0.065   3.391
 6312TIP3    H118942   0.894   0.067   3.362
 6312TIP3    H218943   0.807   0.042   3.484
 6313TIP3   OH218944   2.977   0.845   1.959
 6313TIP3    H118945   3.009   0.762   1.993
 6313TIP3    H218946   2.938   0.888   2.035
 6314TIP3   OH218947   0.677   5.653   0.667
 6314TIP3    H118948   0.591   5.638   0.706
 6314TIP3    H218949   0.657   5.676   0.576
 6315TIP3   OH218950   2.570   3.530   3.511
 6315TIP3    H118951   2.529   3.524   3.598
 6315TIP3    H218952   2.497   3.518   3.450
 6316TIP3   OH218953   3.179   0.454   3.047
 6316TIP3    H118954   3.204   0.368   3.079
 6316TIP3    H218955   3.084   0.452   3.043
 6317TIP3   OH218956   4.090   3.178   4.943
 6317TIP3    H118957   4.143   3.122   4.886
 6317TIP3    H218958   4.100   3.141   5.030
 6318TIP3   OH218959   0.548   5.114   1.752
 6318TIP3    H118960   0.638   5.083   1.743
 6318TIP3    H218961   0.557   5.209   1.765
 6319TIP3   OH218962   0.372   5.992   0.757
 6319TIP3    H118963   0.285   5.955   0.771
 6319TIP3    H218964   0.404   6.011   0.846
 6320TIP3   OH218965   3.120   1.190   0.746
 6320TIP3    H118966   3.213   1.203   0.762
 6320TIP3    H218967   3.116   1.110   0.694
 6321TIP3   OH218968   4.687   5.534   0.629
 6321TIP3    H118969   4.667   5.623   0.661
 6321TIP3    H218970   4.666   5.477   0.704
 6322TIP3   OH218971   2.793   0.180   2.069
 6322TIP3    H118972   2.866   0.199   2.128
 6322TIP3    H218973   2.716   0.212   2.115
 6323TIP3   OH218974   3.587   1.559   4.520
 6323TIP3    H118975   3.671   1.515   4.517
 6323TIP3    H218976   3.564   1.573   4.428
 6324TIP3   OH218977   1.947   5.093   4.856
 6324TIP3    H118978   1.905   5.097   4.771
 6324TIP3    H218979   2.041   5.096   4.837
 6325TIP3   OH218980   2.505   4.639   1.785
 6325TIP3    H118981   2.519   4.549   1.754
 6325TIP3    H218982   2.506   4.631   1.881
 6326TIP3   OH218983   0.621   4.608   2.197
 6326TIP3    H118984   0.622   4.604   2.293
 6326TIP3    H218985   0.710   4.635   2.174
 6327TIP3   OH218986   3.833   3.031   0.114
 6327TIP3    H118987   3.776   3.031   0.037
 6327TIP3    H218988   3.908   3.084   0.088
 6328TIP3   OH218989   1.340   3.621   0.463
 6328TIP3    H118990   1.319   3.626   0.370
 6328TIP3    H218991   1.270   3.569   0.502
 6329TIP3   OH218992   3.993   5.899   2.582
 6329TIP3    H118993   3.971   5.921   2.673
 6329TIP3    H218994   3.972   5.806   2.574
 6330TIP3   OH218995   5.213   0.400   4.849
 6330TIP3    H118996   5.243   0.456   4.920
 6330TIP3    H218997   5.282   0.334   4.840
 6331TIP3   OH218998   5.753   2.545   3.799
 6331TIP3    H118999   5.714   2.519   3.716
 6331TIP3    H219000   5.829   2.488   3.809
 6332TIP3   OH219001   3.250   2.209   0.583
 6332TIP3    H119002   3.215   2.212   0.673
 6332TIP3    H219003   3.294   2.293   0.572
 6333TIP3   OH219004   4.575   2.040   1.265
 6333TIP3    H119005   4.579   2.133   1.286
 6333TIP3    H219006   4.662   2.019   1.230
 6334TIP3   OH219007   5.694   0.714   1.918
 6334TIP3    H119008   5.750   0.636   1.916
 6334TIP3    H219009   5.608   0.683   1.889
 6335TIP3   OH219010   3.826   3.360   2.477
 6335TIP3    H119011   3.790   3.379   2.563
 6335TIP3    H219012   3.904   3.307   2.495
 6336TIP3   OH219013   1.915   4.576   4.551
 6336TIP3    H119014   1.961   4.658   4.568
 6336TIP3    H219015   1.977   4.508   4.576
 6337TIP3   OH219016   4.169   0.364   1.644
 6337TIP3    H119017   4.175   0.350   1.739
 6337TIP3    H219018   4.257   0.391   1.619
 6338TIP3   OH219019   1.489   3.708   2.398
 6338TIP3    H119020   1.458   3.639   2.456
 6338TIP3    H219021   1.565   3.671   2.354
 6339TIP3   OH219022   3.410   3.512   3.769
 6339TIP3    H119023   3.347   3.520   3.698
 6339TIP3    H219024   3.491   3.550   3.735
 6340TIP3   OH219025   4.489   4.248   1.219
 6340TIP3    H119026   4.459   4.305   1.148
 6340TIP3    H219027   4.488   4.304   1.297
 6341TIP3   OH219028   5.431   4.349   2.252
 6341TIP3    H119029   5.480   4.429   2.235
 6341TIP3    H219030   5.360   4.350   2.187
 6342TIP3   OH219031   3.233   5.393   1.036
 6342TIP3    H119032   3.157   5.339   1.014
 6342TIP3    H219033   3.223   5.412   1.129
 6343TIP3   OH219034   5.124   0.737   0.640
 6343TIP3    H119035   5.055   0.701   0.696
 6343TIP3    H219036   5.204   0.729   0.693
 6344TIP3   OH219037   5.040   3.136   0.146
 6344TIP3    H119038   4.991   3.133   0.064
 6344TIP3    H219039   5.066   3.228   0.155
 6345TIP3   OH219040   2.289   0.543   4.299
 6345TIP3    H119041   2.224   0.522   4.232
 6345TIP3    H219042   2.371   0.553   4.250
 6346TIP3   OH219043   6.206   1.272   1.679
 6346TIP3    H119044   6.259   1.345   1.646
 6346TIP3    H219045   6.233   1.197   1.626
 6347TIP3   OH219046   5.265   3.481   0.965
 6347TIP3    H119047   5.211   3.546   0.921
 6347TIP3    H219048   5.300   3.427   0.894
 6348TIP3   OH219049   3.690   2.379   3.330
 6348TIP3    H119050   3.611   2.432   3.336
 6348TIP3    H219051   3.660   2.293   3.304
 6349TIP3   OH219052   4.575   4.642   3.598
 6349TIP3    H119053   4.586   4.728   3.558
 6349TIP3    H219054   4.508   4.600   3.545
 6350TIP3   OH219055   5.631   1.907   3.441
 6350TIP3    H119056   5.616   1.967   3.368
 6350TIP3    H219057   5.688   1.957   3.500
 6351TIP3   OH219058   1.526   2.148   4.886
 6351TIP3    H119059   1.539   2.137   4.792
 6351TIP3    H219060   1.475   2.072   4.912
 6352TIP3   OH219061   1.587   3.043   4.407
 6352TIP3    H119062   1.577   2.966   4.464
 6352TIP3    H219063   1.578   3.118   4.467
 6353TIP3   OH219064   2.901   2.503   0.710
 6353TIP3    H119065   2.896   2.543   0.623
 6353TIP3    H219066   2.963   2.559   0.758
 6354TIP3   OH219067   4.046   2.706   2.223
 6354TIP3    H119068   3.972   2.732   2.278
 6354TIP3    H219069   4.120   2.755   2.257
 6355TIP3   OH219070   4.010   4.483   2.644
 6355TIP3    H119071   4.086   4.433   2.611
 6355TIP3    H219072   4.036   4.575   2.633
 6356TIP3   OH219073   6.312   1.718   3.868
 6356TIP3    H119074   6.359   1.682   3.793
 6356TIP3    H219075   6.342   1.666   3.942
 6357TIP3   OH219076   0.516   1.757   1.709
 6357TIP3    H119077   0.504   1.819   1.636
 6357TIP3    H219078   0.431   1.714   1.717
 6358TIP3   OH219079   5.266   3.310   2.670
 6358TIP3    H119080   5.201   3.314   2.600
 6358TIP3    H219081   5.230   3.365   2.739
 6359TIP3   OH219082   6.330   3.998   1.601
 6359TIP3    H119083   6.379   4.074   1.570
 6359TIP3    H219084   6.258   4.035   1.652
 6360TIP3   OH219085   0.664   3.640   2.509
 6360TIP3    H119086   0.703   3.570   2.561
 6360TIP3    H219087   0.734   3.705   2.502
 6361TIP3   OH219088   1.494   4.604   1.858
 6361TIP3    H119089   1.435   4.544   1.813
 6361TIP3    H219090   1.508   4.564   1.944
 6362TIP3   OH219091   5.245   1.444   4.543
 6362TIP3    H119092   5.260   1.351   4.561
 6362TIP3    H219093   5.149   1.452   4.538
 6363TIP3   OH219094   6.075   2.996   0.174
 6363TIP3    H119095   6.006   3.063   0.175
 6363TIP3    H219096   6.134   3.024   0.104
 6364TIP3   OH219097   2.997   0.098   2.653
 6364TIP3    H119098   3.023   0.190   2.656
 6364TIP3    H219099   3.046   0.057   2.724
 6365TIP3   OH219100   1.446   1.424   4.394
 6365TIP3    H119101   1.492   1.348   4.429
 6365TIP3    H219102   1.362   1.390   4.365
 6366TIP3   OH219103   5.929   0.091   2.400
 6366TIP3    H119104   6.000   0.053   2.347
 6366TIP3    H219105   5.876   0.016   2.427
 6367TIP3   OH219106   3.220   3.446   3.461
 6367TIP3    H119107   3.164   3.418   3.389
 6367TIP3    H219108   3.217   3.373   3.523
 6368TIP3   OH219109   5.310   2.666   2.283
 6368TIP3    H119110   5.223   2.654   2.321
 6368TIP3    H219111   5.364   2.599   2.324
 6369TIP3   OH219112   0.971   4.233   1.595
 6369TIP3    H119113   1.029   4.159   1.609
 6369TIP3    H219114   0.889   4.208   1.636
 6370TIP3   OH219115   5.734   1.315   2.167
 6370TIP3    H119116   5.689   1.251   2.222
 6370TIP3    H219117   5.821   1.277   2.151
 6371TIP3   OH219118   3.606   4.534   3.085
 6371TIP3    H119119   3.634   4.502   2.999
 6371TIP3    H219120   3.554   4.612   3.066
 6372TIP3   OH219121   4.301   1.306   3.450
 6372TIP3    H119122   4.268   1.395   3.439
 6372TIP3    H219123   4.238   1.250   3.405
 6373TIP3   OH219124   3.668   2.177   2.122
 6373TIP3    H119125   3.670   2.249   2.185
 6373TIP3    H219126   3.753   2.182   2.078
 6374TIP3   OH219127   2.140   3.452   4.324
 6374TIP3    H119128   2.110   3.378   4.377
 6374TIP3    H219129   2.064   3.477   4.273
 6375TIP3   OH219130   2.573   2.726   1.719
 6375TIP3    H119131   2.601   2.646   1.676
 6375TIP3    H219132   2.543   2.698   1.806
 6376TIP3   OH219133   2.176   0.261   3.561
 6376TIP3    H119134   2.259   0.234   3.600
 6376TIP3    H219135   2.111   0.206   3.604
 6377TIP3   OH219136   2.973   5.650   4.772
 6377TIP3    H119137   2.971   5.647   4.867
 6377TIP3    H219138   2.960   5.742   4.751
 6378TIP3   OH219139   5.573   0.101   3.012
 6378TIP3    H119140   5.482   0.083   3.033
 6378TIP3    H219141   5.577   0.197   3.006
 6379TIP3   OH219142   5.282   0.122   0.961
 6379TIP3    H119143   5.315   0.148   1.047
 6379TIP3    H219144   5.211   0.060   0.981
 6380TIP3   OH219145   3.512   5.061   4.951
 6380TIP3    H119146   3.505   5.037   4.859
 6380TIP3    H219147   3.524   5.156   4.950
 6381TIP3   OH219148   3.599   0.207   3.398
 6381TIP3    H119149   3.528   0.256   3.439
 6381TIP3    H219150   3.594   0.230   3.306
 6382TIP3   OH219151   2.269   5.705   4.687
 6382TIP3    H119152   2.261   5.770   4.757
 6382TIP3    H219153   2.255   5.621   4.730
 6383TIP3   OH219154   2.986   2.077   3.108
 6383TIP3    H119155   3.012   2.109   3.195
 6383TIP3    H219156   2.920   2.010   3.127
 6384TIP3   OH219157   1.226   5.521   0.418
 6384TIP3    H119158   1.272   5.576   0.481
 6384TIP3    H219159   1.136   5.516   0.450
 6385TIP3   OH219160   2.800   4.795   1.741
 6385TIP3    H119161   2.763   4.774   1.655
 6385TIP3    H219162   2.731   4.773   1.804
 6386TIP3   OH219163   5.371   1.070   2.482
 6386TIP3    H119164   5.398   1.128   2.553
 6386TIP3    H219165   5.408   1.110   2.404
 6387TIP3   OH219166   2.150   4.192   0.582
 6387TIP3    H119167   2.124   4.278   0.549
 6387TIP3    H219168   2.113   4.188   0.670
 6388TIP3   OH219169   1.491   4.181   3.725
 6388TIP3    H119170   1.422   4.229   3.769
 6388TIP3    H219171   1.489   4.212   3.634
 6389TIP3   OH219172   5.917   3.055   2.806
 6389TIP3    H119173   5.956   3.141   2.789
 6389TIP3    H219174   5.943   3.002   2.731
 6390TIP3   OH219175   0.089   4.430   0.969
 6390TIP3    H119176   0.144   4.505   0.947
 6390TIP3    H219177   0.128   4.356   0.922
 6391TIP3   OH219178   0.983   3.141   3.075
 6391TIP3    H119179   0.971   3.072   3.141
 6391TIP3    H219180   1.021   3.095   3.000
 6392TIP3   OH219181   2.807   4.374   3.122
 6392TIP3    H119182   2.864   4.359   3.198
 6392TIP3    H219183   2.823   4.465   3.097
 6393TIP3   OH219184   3.341   0.498   2.815
 6393TIP3    H119185   3.297   0.479   2.898
 6393TIP3    H219186   3.399   0.423   2.801
 6394TIP3   OH219187   3.746   5.126   1.737
 6394TIP3    H119188   3.693   5.088   1.667
 6394TIP3    H219189   3.821   5.165   1.692
 6395TIP3   OH219190   4.995   5.167   0.608
 6395TIP3    H119191   5.009   5.105   0.680
 6395TIP3    H219192   4.971   5.249   0.652
 6396TIP3   OH219193   0.320   2.579   4.421
 6396TIP3    H119194   0.413   2.597   4.406
 6396TIP3    H219195   0.286   2.552   4.335
 6397TIP3   OH219196   2.302   1.703   0.530
 6397TIP3    H119197   2.376   1.647   0.504
 6397TIP3    H219198   2.224   1.652   0.509
 6398TIP3   OH219199   4.059   1.781   1.415
 6398TIP3    H119200   4.022   1.863   1.381
 6398TIP3    H219201   4.047   1.787   1.510
 6399TIP3   OH219202   5.374   2.432   2.730
 6399TIP3    H119203   5.339   2.474   2.809
 6399TIP3    H219204   5.469   2.441   2.739
 6400TIP3   OH219205   3.290   3.777   1.432
 6400TIP3    H119206   3.240   3.797   1.511
 6400TIP3    H219207   3.374   3.821   1.444
 6401TIP3   OH219208   3.778   1.227   5.109
 6401TIP3    H119209   3.735   1.279   5.041
 6401TIP3    H219210   3.757   1.273   5.191
 6402TIP3   OH219211   2.143   5.003   3.531
 6402TIP3    H119212   2.117   5.095   3.540
 6402TIP3    H219213   2.237   5.003   3.543
 6403TIP3   OH219214   4.397   0.549   3.974
 6403TIP3    H119215   4.320   0.495   3.987
 6403TIP3    H219216   4.419   0.538   3.882
 6404TIP3   OH219217   4.026   1.987   2.198
 6404TIP3    H119218   4.014   2.051   2.269
 6404TIP3    H219219   4.067   1.912   2.241
 6405TIP3   OH219220   5.740   1.254   4.369
 6405TIP3    H119221   5.676   1.208   4.424
 6405TIP3    H219222   5.725   1.219   4.281
 6406TIP3   OH219223   6.244   3.283   0.549
 6406TIP3    H119224   6.280   3.249   0.467
 6406TIP3    H219225   6.279   3.372   0.555
 6407TIP3   OH219226   2.316   1.260   4.254
 6407TIP3    H119227   2.356   1.211   4.182
 6407TIP3    H219228   2.223   1.237   4.250
 6408TIP3   OH219229   1.426   0.276   0.218
 6408TIP3    H119230   1.391   0.360   0.247
 6408TIP3    H219231   1.517   0.276   0.247
 6409TIP3   OH219232   0.994   3.682   1.608
 6409TIP3    H119233   0.976   3.708   1.699
 6409TIP3    H219234   1.037   3.758   1.570
 6410TIP3   OH219235   1.629   5.666   1.994
 6410TIP3    H119236   1.672   5.751   1.997
 6410TIP3    H219237   1.633   5.640   1.902
 6411TIP3   OH219238   1.671   2.294   0.158
 6411TIP3    H119239   1.637   2.204   0.156
 6411TIP3    H219240   1.760   2.287   0.122
 6412TIP3   OH219241   1.634   3.918   2.854
 6412TIP3    H119242   1.642   3.943   2.762
 6412TIP3    H219243   1.715   3.950   2.895
 6413TIP3   OH219244   4.787   4.445   1.987
 6413TIP3    H119245   4.862   4.502   2.007
 6413TIP3    H219246   4.760   4.411   2.072
 6414TIP3   OH219247   2.510   4.500   0.845
 6414TIP3    H119248   2.508   4.595   0.831
 6414TIP3    H219249   2.564   4.489   0.923
 6415TIP3   OH219250   4.277   5.593   1.861
 6415TIP3    H119251   4.184   5.578   1.849
 6415TIP3    H219252   4.295   5.566   1.951
 6416TIP3   OH219253   5.910   4.587   2.848
 6416TIP3    H119254   5.849   4.642   2.896
 6416TIP3    H219255   5.955   4.648   2.789
 6417TIP3   OH219256   0.663   2.045   2.863
 6417TIP3    H119257   0.618   2.093   2.794
 6417TIP3    H219258   0.638   2.090   2.944
 6418TIP3   OH219259   2.460   5.084   0.831
 6418TIP3    H119260   2.416   5.167   0.850
 6418TIP3    H219261   2.546   5.109   0.799
 6419TIP3   OH219262   3.037   4.987   4.491
 6419TIP3    H119263   2.955   4.942   4.508
 6419TIP3    H219264   3.057   5.033   4.572
 6420TIP3   OH219265   4.740   1.639   4.058
 6420TIP3    H119266   4.771   1.599   4.139
 6420TIP3    H219267   4.786   1.592   3.989
 6421TIP3   OH219268   3.588   3.406   2.346
 6421TIP3    H119269   3.680   3.383   2.358
 6421TIP3    H219270   3.578   3.489   2.393
 6422TIP3   OH219271   3.788   4.959   1.958
 6422TIP3    H119272   3.705   4.987   1.997
 6422TIP3    H219273   3.786   4.993   1.869
 6423TIP3   OH219274   6.013   1.805   4.110
 6423TIP3    H119275   6.046   1.769   4.193
 6423TIP3    H219276   6.057   1.889   4.102
 6424TIP3   OH219277   4.566   3.177   0.561
 6424TIP3    H119278   4.487   3.156   0.611
 6424TIP3    H219279   4.630   3.111   0.590
 6425TIP3   OH219280   1.266   2.733   1.268
 6425TIP3    H119281   1.359   2.737   1.249
 6425TIP3    H219282   1.258   2.766   1.358
 6426TIP3   OH219283   5.179  -0.009   0.407
 6426TIP3    H119284   5.160   0.056   0.474
 6426TIP3    H219285   5.267   0.014   0.376
 6427TIP3   OH219286   0.128   4.117   2.300
 6427TIP3    H119287   0.071   4.048   2.268
 6427TIP3    H219288   0.215   4.091   2.271
 6428TIP3   OH219289   2.815   1.345   2.287
 6428TIP3    H119290   2.895   1.299   2.312
 6428TIP3    H219291   2.746   1.279   2.294
 6429TIP3   OH219292   5.386   0.768   3.252
 6429TIP3    H119293   5.385   0.728   3.165
 6429TIP3    H219294   5.477   0.763   3.280
 6430TIP3   OH219295   3.151   5.918   4.065
 6430TIP3    H119296   3.158   5.875   4.150
 6430TIP3    H219297   3.060   5.948   4.061
 6431TIP3   OH219298   1.195   3.968   4.773
 6431TIP3    H119299   1.277   3.991   4.729
 6431TIP3    H219300   1.221   3.949   4.863
 6432TIP3   OH219301   6.092   2.865   2.648
 6432TIP3    H119302   6.057   2.916   2.575
 6432TIP3    H219303   6.125   2.785   2.608
 6433TIP3   OH219304   5.365   0.255   4.408
 6433TIP3    H119305   5.271   0.249   4.427
 6433TIP3    H219306   5.385   0.348   4.420
 6434TIP3   OH219307   5.809   1.755   3.167
 6434TIP3    H119308   5.744   1.743   3.236
 6434TIP3    H219309   5.858   1.672   3.166
 6435TIP3   OH219310   2.531   3.487   0.400
 6435TIP3    H119311   2.471   3.528   0.463
 6435TIP3    H219312   2.585   3.560   0.368
 6436TIP3   OH219313   5.675   2.308   4.973
 6436TIP3    H119314   5.579   2.302   4.969
 6436TIP3    H219315   5.697   2.279   5.061
 6437TIP3   OH219316   4.195   5.342   1.032
 6437TIP3    H119317   4.251   5.294   1.094
 6437TIP3    H219318   4.112   5.296   1.034
 6438TIP3   OH219319   2.563   4.311   3.615
 6438TIP3    H119320   2.647   4.354   3.598
 6438TIP3    H219321   2.549   4.321   3.709
 6439TIP3   OH219322   4.253   4.356   2.596
 6439TIP3    H119323   4.295   4.376   2.680
 6439TIP3    H219324   4.280   4.427   2.538
 6440TIP3   OH219325   4.440   4.816   0.677
 6440TIP3    H119326   4.419   4.892   0.623
 6440TIP3    H219327   4.533   4.800   0.661
 6441TIP3   OH219328   0.138   5.696   3.142
 6441TIP3    H119329   0.059   5.666   3.097
 6441TIP3    H219330   0.106   5.762   3.204
 6442TIP3   OH219331   0.589   4.585   1.935
 6442TIP3    H119332   0.522   4.529   1.895
 6442TIP3    H219333   0.582   4.568   2.029
 6443TIP3   OH219334   5.422   0.264   1.995
 6443TIP3    H119335   5.377   0.182   2.012
 6443TIP3    H219336   5.384   0.326   2.057
 6444TIP3   OH219337   1.268   1.365   0.303
 6444TIP3    H119338   1.216   1.296   0.346
 6444TIP3    H219339   1.250   1.444   0.354
 6445TIP3   OH219340   2.075   5.829   4.140
 6445TIP3    H119341   2.053   5.902   4.083
 6445TIP3    H219342   2.146   5.783   4.095
 6446TIP3   OH219343   1.468   2.399   4.724
 6446TIP3    H119344   1.560   2.373   4.734
 6446TIP3    H219345   1.469   2.457   4.647
 6447TIP3   OH219346   2.305   1.057   2.689
 6447TIP3    H119347   2.250   0.997   2.738
 6447TIP3    H219348   2.317   1.015   2.604
 6448TIP3   OH219349   1.302   0.506   1.159
 6448TIP3    H119350   1.339   0.492   1.072
 6448TIP3    H219351   1.214   0.541   1.143
 6449TIP3   OH219352   2.413   0.715   5.092
 6449TIP3    H119353   2.465   0.707   5.172
 6449TIP3    H219354   2.476   0.707   5.021
 6450TIP3   OH219355   1.561   4.661   2.264
 6450TIP3    H119356   1.481   4.706   2.291
 6450TIP3    H219357   1.631   4.710   2.307
 6451TIP3   OH219358   4.928   1.168   2.830
 6451TIP3    H119359   4.862   1.202   2.770
 6451TIP3    H219360   5.005   1.155   2.775
 6452TIP3   OH219361   1.244   5.628   0.180
 6452TIP3    H119362   1.214   5.580   0.257
 6452TIP3    H219363   1.165   5.670   0.146
 6453TIP3   OH219364   5.100   3.790   0.524
 6453TIP3    H119365   5.180   3.802   0.576
 6453TIP3    H219366   5.128   3.808   0.434
 6454TIP3   OH219367   6.033   2.014   2.472
 6454TIP3    H119368   6.125   1.998   2.493
 6454TIP3    H219369   6.005   2.083   2.532
 6455TIP3   OH219370   5.655   5.327   2.363
 6455TIP3    H119371   5.712   5.378   2.305
 6455TIP3    H219372   5.646   5.242   2.320
 6456TIP3   OH219373   3.076   0.840   0.996
 6456TIP3    H119374   3.163   0.801   0.985
 6456TIP3    H219375   3.092   0.918   1.049
 6457TIP3   OH219376   0.058   5.866   4.263
 6457TIP3    H119377   0.114   5.898   4.192
 6457TIP3    H219378   0.004   5.941   4.286
 6458TIP3   OH219379   2.828   1.332   4.452
 6458TIP3    H119380   2.807   1.333   4.359
 6458TIP3    H219381   2.881   1.410   4.467
 6459TIP3   OH219382   5.341   0.114   2.463
 6459TIP3    H119383   5.262   0.165   2.479
 6459TIP3    H219384   5.411   0.180   2.459
 6460TIP3   OH219385   4.496   3.708   1.728
 6460TIP3    H119386   4.577   3.689   1.681
 6460TIP3    H219387   4.485   3.802   1.720
 6461TIP3   OH219388   0.630   4.572   4.797
 6461TIP3    H119389   0.699   4.518   4.758
 6461TIP3    H219390   0.619   4.644   4.735
 6462TIP3   OH219391   3.084   2.886   3.676
 6462TIP3    H119392   3.132   2.939   3.740
 6462TIP3    H219393   3.152   2.840   3.626
 6463TIP3   OH219394   0.303   5.796   1.419
 6463TIP3    H119395   0.377   5.856   1.407
 6463TIP3    H219396   0.274   5.812   1.509
 6464TIP3   OH219397   2.076   2.367   3.279
 6464TIP3    H119398   2.009   2.300   3.291
 6464TIP3    H219399   2.146   2.342   3.339
 6465TIP3   OH219400   1.842   5.246   2.224
 6465TIP3    H119401   1.869   5.334   2.196
 6465TIP3    H219402   1.753   5.237   2.191
 6466TIP3   OH219403   3.450   0.741   1.460
 6466TIP3    H119404   3.545   0.737   1.447
 6466TIP3    H219405   3.422   0.814   1.404
 6467TIP3   OH219406   4.990   1.802   3.904
 6467TIP3    H119407   4.921   1.737   3.887
 6467TIP3    H219408   4.986   1.862   3.829
 6468TIP3   OH219409   3.382   4.315   0.910
 6468TIP3    H119410   3.462   4.366   0.919
 6468TIP3    H219411   3.399   4.255   0.838
 6469TIP3   OH219412   5.912   5.149   0.092
 6469TIP3    H119413   5.975   5.186   0.155
 6469TIP3    H219414   5.898   5.060   0.123
 6470TIP3   OH219415   3.342   1.595   0.727
 6470TIP3    H119416   3.374   1.507   0.707
 6470TIP3    H219417   3.419   1.641   0.763
 6471TIP3   OH219418   5.861   4.631   4.366
 6471TIP3    H119419   5.845   4.611   4.458
 6471TIP3    H219420   5.807   4.708   4.349
 6472TIP3   OH219421   3.988   4.462   4.102
 6472TIP3    H119422   4.021   4.524   4.037
 6472TIP3    H219423   3.913   4.506   4.142
 6473TIP3   OH219424   0.611   3.567   2.839
 6473TIP3    H119425   0.584   3.540   2.927
 6473TIP3    H219426   0.648   3.487   2.800
 6474TIP3   OH219427   2.788   5.118   0.744
 6474TIP3    H119428   2.735   5.138   0.667
 6474TIP3    H219429   2.868   5.170   0.732
 6475TIP3   OH219430   2.947   2.257   3.605
 6475TIP3    H119431   2.873   2.318   3.609
 6475TIP3    H219432   3.021   2.307   3.639
 6476TIP3   OH219433   0.036   1.216   5.023
 6476TIP3    H119434   0.039   1.129   5.062
 6476TIP3    H219435  -0.048   1.252   5.052
 6477TIP3   OH219436   3.571   5.258   2.551
 6477TIP3    H119437   3.501   5.220   2.603
 6477TIP3    H219438   3.625   5.305   2.614
 6478TIP3   OH219439   3.170   4.043   4.798
 6478TIP3    H119440   3.240   4.102   4.825
 6478TIP3    H219441   3.197   4.010   4.713
 6479TIP3   OH219442   4.640   0.920   3.593
 6479TIP3    H119443   4.577   0.975   3.548
 6479TIP3    H219444   4.693   0.882   3.522
 6480TIP3   OH219445   0.970   6.008   2.896
 6480TIP3    H119446   1.050   5.956   2.882
 6480TIP3    H219447   0.950   5.996   2.989
 6481TIP3   OH219448   0.390   1.220   4.595
 6481TIP3    H119449   0.429   1.160   4.531
 6481TIP3    H219450   0.415   1.185   4.680
 6482TIP3   OH219451   5.581   1.061   2.885
 6482TIP3    H119452   5.503   1.104   2.921
 6482TIP3    H219453   5.549   1.016   2.806
 6483TIP3   OH219454   2.302   0.875   4.071
 6483TIP3    H119455   2.256   0.879   4.154
 6483TIP3    H219456   2.297   0.783   4.045
 6484TIP3   OH219457   5.414   5.111   1.287
 6484TIP3    H119458   5.352   5.039   1.278
 6484TIP3    H219459   5.372   5.186   1.246
 6485TIP3   OH219460   6.285   2.598   4.983
 6485TIP3    H119461   6.295   2.633   4.894
 6485TIP3    H219462   6.344   2.523   4.986
 6486TIP3   OH219463   2.522   2.574   3.518
 6486TIP3    H119464   2.471   2.652   3.536
 6486TIP3    H219465   2.477   2.532   3.444
 6487TIP3   OH219466   1.148   2.071   4.205
 6487TIP3    H119467   1.232   2.112   4.226
 6487TIP3    H219468   1.162   2.030   4.119
 6488TIP3   OH219469   3.499   0.636   1.915
 6488TIP3    H119470   3.512   0.547   1.949
 6488TIP3    H219471   3.451   0.624   1.833
 6489TIP3   OH219472   0.265   2.512   4.141
 6489TIP3    H119473   0.220   2.503   4.057
 6489TIP3    H219474   0.357   2.528   4.118
 6490TIP3   OH219475   5.534   3.117   0.130
 6490TIP3    H119476   5.586   3.047   0.172
 6490TIP3    H219477   5.599   3.180   0.100
 6491TIP3   OH219478   2.556   5.576   4.477
 6491TIP3    H119479   2.568   5.632   4.401
 6491TIP3    H219480   2.645   5.555   4.506
 6492TIP3   OH219481   6.090   0.575   3.205
 6492TIP3    H119482   6.138   0.594   3.286
 6492TIP3    H219483   6.156   0.581   3.136
 6493TIP3   OH219484   2.523   4.650   4.493
 6493TIP3    H119485   2.429   4.651   4.471
 6493TIP3    H219486   2.561   4.718   4.438
 6494TIP3   OH219487   1.145   3.380   3.268
 6494TIP3    H119488   1.108   3.468   3.279
 6494TIP3    H219489   1.086   3.337   3.206
 6495TIP3   OH219490   6.320   4.095   3.897
 6495TIP3    H119491   6.309   4.070   3.806
 6495TIP3    H219492   6.248   4.155   3.914
 6496TIP3   OH219493   4.802   1.477   4.267
 6496TIP3    H119494   4.849   1.505   4.346
 6496TIP3    H219495   4.848   1.399   4.238
 6497TIP3   OH219496   5.081   5.951   5.071
 6497TIP3    H119497   5.113   6.034   5.036
 6497TIP3    H219498   5.159   5.908   5.107
 6498TIP3   OH219499   1.410   5.583   2.161
 6498TIP3    H119500   1.376   5.495   2.174
 6498TIP3    H219501   1.475   5.575   2.091
 6499TIP3   OH219502   4.345   0.873   0.670
 6499TIP3    H119503   4.381   0.882   0.758
 6499TIP3    H219504   4.264   0.823   0.682
 6500TIP3   OH219505   5.424   5.688   0.347
 6500TIP3    H119506   5.435   5.669   0.254
 6500TIP3    H219507   5.371   5.616   0.381
 6501TIP3   OH219508   6.330   2.773   4.719
 6501TIP3    H119509   6.242   2.787   4.753
 6501TIP3    H219510   6.320   2.707   4.651
 6502TIP3   OH219511   0.942   1.309   1.560
 6502TIP3    H119512   0.900   1.392   1.540
 6502TIP3    H219513   0.911   1.249   1.492
 6503TIP3   OH219514   3.343   5.356   4.732
 6503TIP3    H119515   3.331   5.433   4.787
 6503TIP3    H219516   3.420   5.376   4.679
 6504TIP3   OH219517   4.827   5.360   2.364
 6504TIP3    H119518   4.890   5.399   2.303
 6504TIP3    H219519   4.809   5.274   2.326
 6505TIP3   OH219520   4.058   3.653   1.400
 6505TIP3    H119521   4.143   3.642   1.443
 6505TIP3    H219522   3.994   3.636   1.469
 6506TIP3   OH219523   2.904   3.964   3.482
 6506TIP3    H119524   2.818   3.921   3.488
 6506TIP3    H219525   2.913   3.988   3.390
 6507TIP3   OH219526   6.077   1.538   2.206
 6507TIP3    H119527   6.142   1.473   2.177
 6507TIP3    H219528   6.006   1.530   2.143
 6508TIP3   OH219529   4.444   1.385   2.186
 6508TIP3    H119530   4.471   1.326   2.256
 6508TIP3    H219531   4.405   1.328   2.120
 6509TIP3   OH219532   1.085   1.920   0.953
 6509TIP3    H119533   1.109   1.860   1.024
 6509TIP3    H219534   1.114   2.006   0.985
 6510TIP3   OH219535   5.001   5.124   0.891
 6510TIP3    H119536   5.020   5.078   0.973
 6510TIP3    H219537   4.908   5.105   0.875
 6511TIP3   OH219538   2.732   1.865   1.055
 6511TIP3    H119539   2.812   1.910   1.083
 6511TIP3    H219540   2.716   1.800   1.123
 6512TIP3   OH219541   5.047   3.072   2.012
 6512TIP3    H119542   5.129   3.039   2.050
 6512TIP3    H219543   4.996   3.102   2.088
 6513TIP3   OH219544   4.377   4.972   1.811
 6513TIP3    H119545   4.372   4.985   1.717
 6513TIP3    H219546   4.367   5.059   1.848
 6514TIP3   OH219547   3.685   2.622   0.287
 6514TIP3    H119548   3.747   2.636   0.216
 6514TIP3    H219549   3.639   2.541   0.263
 6515TIP3   OH219550   4.996   0.843   0.140
 6515TIP3    H119551   5.065   0.798   0.188
 6515TIP3    H219552   5.037   0.869   0.057
 6516TIP3   OH219553   0.483   4.799   0.362
 6516TIP3    H119554   0.431   4.744   0.303
 6516TIP3    H219555   0.540   4.849   0.305
 6517TIP3   OH219556   5.411   5.323   0.668
 6517TIP3    H119557   5.378   5.383   0.735
 6517TIP3    H219558   5.504   5.313   0.689
 6518TIP3   OH219559   4.664   0.880   2.366
 6518TIP3    H119560   4.580   0.874   2.411
 6518TIP3    H219561   4.719   0.932   2.424
 6519TIP3   OH219562   1.930   0.429   0.986
 6519TIP3    H119563   1.922   0.333   0.979
 6519TIP3    H219564   2.011   0.443   1.034
 6520TIP3   OH219565   5.821   4.127   2.230
 6520TIP3    H119566   5.850   4.106   2.142
 6520TIP3    H219567   5.889   4.090   2.287
 6521TIP3   OH219568   5.381   2.605   4.316
 6521TIP3    H119569   5.315   2.671   4.294
 6521TIP3    H219570   5.441   2.649   4.376
 6522TIP3   OH219571   2.834   5.700   4.348
 6522TIP3    H119572   2.809   5.628   4.289
 6522TIP3    H219573   2.924   5.681   4.373
 6523TIP3   OH219574   4.776   2.491   1.664
 6523TIP3    H119575   4.729   2.425   1.613
 6523TIP3    H219576   4.707   2.549   1.697
 6524TIP3   OH219577   6.117   0.037   1.228
 6524TIP3    H119578   6.071   0.118   1.206
 6524TIP3    H219579   6.058  -0.033   1.199
 6525TIP3   OH219580   1.726   5.677   3.837
 6525TIP3    H119581   1.725   5.757   3.890
 6525TIP3    H219582   1.643   5.679   3.789
 6526TIP3   OH219583   4.341   0.090   0.453
 6526TIP3    H119584   4.427   0.099   0.495
 6526TIP3    H219585   4.361   0.080   0.360
 6527TIP3   OH219586   1.855   3.559   1.053
 6527TIP3    H119587   1.905   3.570   0.972
 6527TIP3    H219588   1.766   3.588   1.031
 6528TIP3   OH219589   5.033   2.124   0.569
 6528TIP3    H119590   5.105   2.183   0.547
 6528TIP3    H219591   5.051   2.045   0.518
 6529TIP3   OH219592   0.609   2.947   3.895
 6529TIP3    H119593   0.684   2.986   3.850
 6529TIP3    H219594   0.536   3.006   3.876
 6530TIP3   OH219595   5.740   3.436   1.253
 6530TIP3    H119596   5.668   3.404   1.199
 6530TIP3    H219597   5.711   3.520   1.286
 6531TIP3   OH219598   3.301   4.672   3.252
 6531TIP3    H119599   3.257   4.620   3.185
 6531TIP3    H219600   3.393   4.646   3.247
 6532TIP3   OH219601   4.487   0.762   2.212
 6532TIP3    H119602   4.440   0.724   2.286
 6532TIP3    H219603   4.561   0.809   2.252
 6533TIP3   OH219604   0.253   2.892   1.771
 6533TIP3    H119605   0.290   2.981   1.771
 6533TIP3    H219606   0.286   2.853   1.690
 6534TIP3   OH219607   2.858   2.846   0.130
 6534TIP3    H119608   2.913   2.779   0.173
 6534TIP3    H219609   2.902   2.863   0.047
 6535TIP3   OH219610   1.056   0.985   0.792
 6535TIP3    H119611   1.059   1.079   0.808
 6535TIP3    H219612   1.125   0.949   0.848
 6536TIP3   OH219613   1.102   5.185   2.142
 6536TIP3    H119614   1.118   5.178   2.047
 6536TIP3    H219615   1.091   5.279   2.157
 6537TIP3   OH219616   3.044   4.226   1.088
 6537TIP3    H119617   3.100   4.152   1.066
 6537TIP3    H219618   3.052   4.235   1.183
 6538TIP3   OH219619   2.503   1.112   4.071
 6538TIP3    H119620   2.454   1.059   4.007
 6538TIP3    H219621   2.558   1.169   4.017
 6539TIP3   OH219622   4.712   1.536   2.985
 6539TIP3    H119623   4.668   1.605   3.034
 6539TIP3    H219624   4.805   1.556   2.994
 6540TIP3   OH219625   2.863   3.001   3.813
 6540TIP3    H119626   2.831   3.068   3.753
 6540TIP3    H219627   2.917   2.943   3.760
 6541TIP3   OH219628   3.959   1.275   3.168
 6541TIP3    H119629   3.942   1.362   3.205
 6541TIP3    H219630   3.974   1.291   3.075
 6542TIP3   OH219631   2.290   5.691   0.570
 6542TIP3    H119632   2.221   5.755   0.552
 6542TIP3    H219633   2.343   5.690   0.490
 6543TIP3   OH219634   1.182   3.947   3.215
 6543TIP3    H119635   1.258   4.001   3.235
 6543TIP3    H219636   1.169   3.959   3.121
 6544TIP3   OH219637   3.904   4.342   4.774
 6544TIP3    H119638   3.966   4.296   4.831
 6544TIP3    H219639   3.934   4.322   4.685
 6545TIP3   OH219640   5.295   2.928   5.012
 6545TIP3    H119641   5.291   2.975   4.928
 6545TIP3    H219642   5.330   2.993   5.073
 6546TIP3   OH219643   6.336   5.510   2.163
 6546TIP3    H119644   6.302   5.461   2.239
 6546TIP3    H219645   6.260   5.557   2.130
 6547TIP3   OH219646   4.293   2.187   5.097
 6547TIP3    H119647   4.341   2.164   5.018
 6547TIP3    H219648   4.347   2.254   5.139
 6548TIP3   OH219649   3.474   0.178   4.288
 6548TIP3    H119650   3.486   0.083   4.293
 6548TIP3    H219651   3.395   0.190   4.236
 6549TIP3   OH219652   0.595   2.582   4.398
 6549TIP3    H119653   0.678   2.545   4.427
 6549TIP3    H219654   0.617   2.667   4.361
 6550TIP3   OH219655   6.387   1.146   0.294
 6550TIP3    H119656   6.345   1.124   0.210
 6550TIP3    H219657   6.314   1.167   0.352
 6551TIP3   OH219658   1.531   5.072   4.643
 6551TIP3    H119659   1.623   5.046   4.655
 6551TIP3    H219660   1.521   5.080   4.549
 6552TIP3   OH219661   4.868   2.256   3.846
 6552TIP3    H119662   4.806   2.187   3.824
 6552TIP3    H219663   4.828   2.336   3.812
 6553TIP3   OH219664   2.591   2.268   1.919
 6553TIP3    H119665   2.662   2.262   1.983
 6553TIP3    H219666   2.523   2.318   1.964
 6554TIP3   OH219667   1.087   0.286   0.918
 6554TIP3    H119668   1.076   0.377   0.890
 6554TIP3    H219669   1.178   0.266   0.896
 6555TIP3   OH219670   1.112   3.473   0.600
 6555TIP3    H119671   1.051   3.404   0.576
 6555TIP3    H219672   1.079   3.506   0.684
 6556TIP3   OH219673   0.365   4.699   1.755
 6556TIP3    H119674   0.310   4.711   1.677
 6556TIP3    H219675   0.340   4.772   1.812
 6557TIP3   OH219676   2.202   5.211   4.870
 6557TIP3    H119677   2.211   5.305   4.853
 6557TIP3    H219678   2.223   5.201   4.963
 6558TIP3   OH219679   3.112   4.649   3.002
 6558TIP3    H119680   3.066   4.620   2.924
 6558TIP3    H219681   3.187   4.590   3.008
 6559TIP3   OH219682   5.405   1.620   1.272
 6559TIP3    H119683   5.399   1.640   1.365
 6559TIP3    H219684   5.384   1.527   1.266
 6560TIP3   OH219685   3.788   0.274   2.650
 6560TIP3    H119686   3.711   0.245   2.699
 6560TIP3    H219687   3.753   0.318   2.573
 6561TIP3   OH219688   6.159   4.749   0.932
 6561TIP3    H119689   6.245   4.724   0.966
 6561TIP3    H219690   6.169   4.841   0.908
 6562TIP3   OH219691   5.714   5.326   0.246
 6562TIP3    H119692   5.689   5.411   0.209
 6562TIP3    H219693   5.785   5.295   0.190
 6563TIP3   OH219694   2.284   3.159   0.094
 6563TIP3    H119695   2.292   3.067   0.120
 6563TIP3    H219696   2.312   3.208   0.171
 6564TIP3   OH219697   1.495   0.979   1.008
 6564TIP3    H119698   1.513   0.908   0.947
 6564TIP3    H219699   1.570   0.979   1.068
 6565TIP3   OH219700   3.124   2.375   3.021
 6565TIP3    H119701   3.210   2.375   3.065
 6565TIP3    H219702   3.067   2.328   3.081
 6566TIP3   OH219703   0.690   5.147   3.290
 6566TIP3    H119704   0.639   5.226   3.271
 6566TIP3    H219705   0.646   5.078   3.240
 6567TIP3   OH219706   5.529   4.256   3.835
 6567TIP3    H119707   5.490   4.271   3.749
 6567TIP3    H219708   5.506   4.334   3.885
 6568TIP3   OH219709   1.324   1.411   3.285
 6568TIP3    H119710   1.360   1.325   3.303
 6568TIP3    H219711   1.263   1.397   3.212
 6569TIP3   OH219712   3.108   3.458   4.586
 6569TIP3    H119713   3.177   3.499   4.639
 6569TIP3    H219714   3.106   3.367   4.616
 6570TIP3   OH219715   4.774   0.164   0.113
 6570TIP3    H119716   4.678   0.168   0.112
 6570TIP3    H219717   4.794   0.071   0.112
 6571TIP3   OH219718   4.722   3.321   2.445
 6571TIP3    H119719   4.745   3.228   2.454
 6571TIP3    H219720   4.641   3.320   2.394
 6572TIP3   OH219721   5.483   3.271   3.724
 6572TIP3    H119722   5.399   3.305   3.754
 6572TIP3    H219723   5.477   3.274   3.629
 6573TIP3   OH219724   4.559   1.031   0.318
 6573TIP3    H119725   4.589   1.060   0.404
 6573TIP3    H219726   4.633   0.982   0.282
 6574TIP3   OH219727   5.538   1.356   3.704
 6574TIP3    H119728   5.506   1.440   3.672
 6574TIP3    H219729   5.463   1.316   3.749
 6575TIP3   OH219730   2.148   3.450   3.928
 6575TIP3    H119731   2.083   3.515   3.902
 6575TIP3    H219732   2.098   3.371   3.945
 6576TIP3   OH219733   3.530   3.864   1.507
 6576TIP3    H119734   3.617   3.854   1.467
 6576TIP3    H219735   3.548   3.903   1.592
 6577TIP3   OH219736   5.187   0.434   2.346
 6577TIP3    H119737   5.114   0.440   2.284
 6577TIP3    H219738   5.265   0.430   2.291
 6578TIP3   OH219739   3.374   4.319   3.892
 6578TIP3    H119740   3.469   4.333   3.900
 6578TIP3    H219741   3.366   4.242   3.836
 6579TIP3   OH219742   1.805   2.196   3.901
 6579TIP3    H119743   1.757   2.117   3.925
 6579TIP3    H219744   1.894   2.181   3.935
 6580TIP3   OH219745   0.966   5.459   0.501
 6580TIP3    H119746   0.948   5.506   0.583
 6580TIP3    H219747   0.889   5.404   0.488
 6581TIP3   OH219748   0.458   2.506   1.646
 6581TIP3    H119749   0.523   2.462   1.701
 6581TIP3    H219750   0.406   2.435   1.608
 6582TIP3   OH219751   6.311   4.734   5.150
 6582TIP3    H119752   6.269   4.820   5.149
 6582TIP3    H219753   6.341   4.722   5.060
 6583TIP3   OH219754   1.485   3.497   5.189
 6583TIP3    H119755   1.515   3.531   5.105
 6583TIP3    H219756   1.547   3.427   5.211
 6584TIP3   OH219757   0.626   5.725   1.097
 6584TIP3    H119758   0.669   5.796   1.049
 6584TIP3    H219759   0.533   5.735   1.078
 6585TIP3   OH219760   4.638   5.809   0.148
 6585TIP3    H119761   4.628   5.901   0.174
 6585TIP3    H219762   4.630   5.811   0.053
 6586TIP3   OH219763   1.065   4.306   1.085
 6586TIP3    H119764   1.124   4.380   1.097
 6586TIP3    H219765   1.008   4.307   1.163
 6587TIP3   OH219766   2.975   5.327   1.423
 6587TIP3    H119767   2.884   5.300   1.414
 6587TIP3    H219768   3.026   5.250   1.399
 6588TIP3   OH219769   5.178   4.335   1.913
 6588TIP3    H119770   5.236   4.395   1.868
 6588TIP3    H219771   5.194   4.250   1.871
 6589TIP3   OH219772   6.046   0.710   2.663
 6589TIP3    H119773   6.056   0.711   2.567
 6589TIP3    H219774   5.965   0.661   2.678
 6590TIP3   OH219775   0.287   1.758   1.960
 6590TIP3    H119776   0.327   1.841   1.934
 6590TIP3    H219777   0.313   1.747   2.052
 6591TIP3   OH219778   3.091   0.453   3.570
 6591TIP3    H119779   3.085   0.372   3.621
 6591TIP3    H219780   3.140   0.428   3.492
 6592TIP3   OH219781   4.383   1.300   3.711
 6592TIP3    H119782   4.335   1.244   3.773
 6592TIP3    H219783   4.340   1.284   3.627
 6593TIP3   OH219784   0.212   4.309   2.696
 6593TIP3    H119785   0.162   4.358   2.631
 6593TIP3    H219786   0.303   4.339   2.683
 6594TIP3   OH219787   4.187   3.560   4.817
 6594TIP3    H119788   4.094   3.568   4.797
 6594TIP3    H219789   4.220   3.498   4.752
 6595TIP3   OH219790   5.510   5.470   1.250
 6595TIP3    H119791   5.566   5.413   1.196
 6595TIP3    H219792   5.498   5.548   1.197
 6596TIP3   OH219793   5.271   5.986   3.856
 6596TIP3    H119794   5.275   5.891   3.845
 6596TIP3    H219795   5.359   6.010   3.885
 6597TIP3   OH219796   0.840   2.432   0.176
 6597TIP3    H119797   0.792   2.419   0.258
 6597TIP3    H219798   0.909   2.366   0.178
 6598TIP3   OH219799   0.443   2.730   2.523
 6598TIP3    H119800   0.403   2.810   2.491
 6598TIP3    H219801   0.524   2.721   2.472
 6599TIP3   OH219802   5.297   3.984   4.339
 6599TIP3    H119803   5.337   3.926   4.405
 6599TIP3    H219804   5.327   4.072   4.363
 6600TIP3   OH219805   2.378   5.919   2.887
 6600TIP3    H119806   2.396   6.005   2.924
 6600TIP3    H219807   2.463   5.887   2.857
 6601TIP3   OH219808   6.133   4.176   1.427
 6601TIP3    H119809   6.142   4.083   1.450
 6601TIP3    H219810   6.220   4.201   1.396
 6602TIP3   OH219811   2.503   1.299   3.373
 6602TIP3    H119812   2.527   1.288   3.465
 6602TIP3    H219813   2.567   1.363   3.339
 6603TIP3   OH219814   2.391   4.982   4.333
 6603TIP3    H119815   2.442   5.013   4.257
 6603TIP3    H219816   2.445   5.007   4.409
 6604TIP3   OH219817   4.192   3.855   2.028
 6604TIP3    H119818   4.271   3.804   2.010
 6604TIP3    H219819   4.126   3.789   2.052
 6605TIP3   OH219820   2.467   3.878   3.011
 6605TIP3    H119821   2.489   3.909   2.923
 6605TIP3    H219822   2.379   3.912   3.027
 6606TIP3   OH219823   5.788   5.082   2.607
 6606TIP3    H119824   5.773   4.999   2.563
 6606TIP3    H219825   5.701   5.120   2.619
 6607TIP3   OH219826   2.513   2.483   2.088
 6607TIP3    H119827   2.521   2.439   2.172
 6607TIP3    H219828   2.497   2.575   2.110
 6608TIP3   OH219829   2.033   5.573   4.842
 6608TIP3    H119830   1.953   5.521   4.844
 6608TIP3    H219831   2.003   5.663   4.827
 6609TIP3   OH219832   4.634   0.538   1.337
 6609TIP3    H119833   4.615   0.601   1.406
 6609TIP3    H219834   4.549   0.502   1.313
 6610TIP3   OH219835   2.864   5.436   2.890
 6610TIP3    H119836   2.836   5.396   2.972
 6610TIP3    H219837   2.782   5.462   2.847
 6611TIP3   OH219838   1.415   2.052   3.286
 6611TIP3    H119839   1.423   2.096   3.201
 6611TIP3    H219840   1.498   2.071   3.330
 6612TIP3   OH219841   4.578   2.298   3.195
 6612TIP3    H119842   4.671   2.320   3.203
 6612TIP3    H219843   4.533   2.372   3.234
 6613TIP3   OH219844   0.515   0.311   0.283
 6613TIP3    H119845   0.574   0.385   0.294
 6613TIP3    H219846   0.570   0.243   0.244
 6614TIP3   OH219847   0.971   1.183   1.801
 6614TIP3    H119848   1.005   1.102   1.764
 6614TIP3    H219849   0.962   1.242   1.726
 6615TIP3   OH219850   0.749   5.940   2.277
 6615TIP3    H119851   0.740   5.869   2.341
 6615TIP3    H219852   0.792   5.899   2.202
 6616TIP3   OH219853   3.764   0.678   3.959
 6616TIP3    H119854   3.678   0.655   3.995
 6616TIP3    H219855   3.762   0.646   3.869
 6617TIP3   OH219856   0.815   5.071   4.566
 6617TIP3    H119857   0.825   5.032   4.479
 6617TIP3    H219858   0.894   5.043   4.613
 6618TIP3   OH219859   4.615   3.616   2.098
 6618TIP3    H119860   4.674   3.682   2.062
 6618TIP3    H219861   4.651   3.598   2.185
 6619TIP3   OH219862   3.529   5.737   0.162
 6619TIP3    H119863   3.543   5.824   0.126
 6619TIP3    H219864   3.617   5.700   0.171
 6620TIP3   OH219865   1.059   2.500   3.701
 6620TIP3    H119866   1.022   2.526   3.785
 6620TIP3    H219867   0.990   2.450   3.658
 6621TIP3   OH219868   5.504   2.532   1.526
 6621TIP3    H119869   5.512   2.437   1.524
 6621TIP3    H219870   5.451   2.553   1.449
 6622TIP3   OH219871   4.910   3.620   0.147
 6622TIP3    H119872   4.922   3.638   0.240
 6622TIP3    H219873   4.955   3.692   0.102
 6623TIP3   OH219874   0.153   3.953   4.832
 6623TIP3    H119875   0.222   4.003   4.874
 6623TIP3    H219876   0.096   3.925   4.903
 6624TIP3   OH219877   5.928   1.719   2.509
 6624TIP3    H119878   5.960   1.756   2.592
 6624TIP3    H219879   5.856   1.662   2.534
 6625TIP3   OH219880   1.475   0.054   3.352
 6625TIP3    H119881   1.406   0.070   3.417
 6625TIP3    H219882   1.435  -0.005   3.289
 6626TIP3   OH219883   3.041   0.520   0.388
 6626TIP3    H119884   3.028   0.476   0.472
 6626TIP3    H219885   2.953   0.537   0.356
 6627TIP3   OH219886   5.808   2.627   2.757
 6627TIP3    H119887   5.853   2.645   2.674
 6627TIP3    H219888   5.757   2.706   2.775
 6628TIP3   OH219889   6.261   3.284   0.263
 6628TIP3    H119890   6.276   3.200   0.307
 6628TIP3    H219891   6.281   3.266   0.171
 6629TIP3   OH219892   5.373   4.760   1.028
 6629TIP3    H119893   5.405   4.782   0.941
 6629TIP3    H219894   5.319   4.682   1.014
 6630TIP3   OH219895   1.586   0.040   3.022
 6630TIP3    H119896   1.526  -0.033   3.011
 6630TIP3    H219897   1.556   0.085   3.100
 6631TIP3   OH219898   5.445   0.800   2.336
 6631TIP3    H119899   5.424   0.856   2.412
 6631TIP3    H219900   5.504   0.734   2.371
 6632TIP3   OH219901   0.805   5.633   2.228
 6632TIP3    H119902   0.745   5.628   2.302
 6632TIP3    H219903   0.750   5.660   2.154
 6633TIP3   OH219904   5.891   2.094   2.730
 6633TIP3    H119905   5.967   2.133   2.773
 6633TIP3    H219906   5.905   1.999   2.739
 6634TIP3   OH219907   3.854   2.438   4.573
 6634TIP3    H119908   3.806   2.380   4.632
 6634TIP3    H219909   3.823   2.414   4.486
 6635TIP3   OH219910   2.029   1.659   3.521
 6635TIP3    H119911   1.990   1.612   3.595
 6635TIP3    H219912   1.958   1.710   3.484
 6636TIP3   OH219913   1.339   1.381   2.957
 6636TIP3    H119914   1.412   1.427   2.999
 6636TIP3    H219915   1.344   1.292   2.991
 6637TIP3   OH219916   5.152   0.503   2.987
 6637TIP3    H119917   5.146   0.463   3.074
 6637TIP3    H219918   5.198   0.585   3.001
 6638TIP3   OH219919   1.779   4.625   1.739
 6638TIP3    H119920   1.832   4.547   1.727
 6638TIP3    H219921   1.688   4.593   1.735
 6639TIP3   OH219922   3.182   1.021   4.041
 6639TIP3    H119923   3.135   1.104   4.031
 6639TIP3    H219924   3.262   1.045   4.088
 6640TIP3   OH219925   3.593   1.804   3.574
 6640TIP3    H119926   3.587   1.719   3.531
 6640TIP3    H219927   3.508   1.845   3.557
   6.35301   5.98968   5.18722   0.00000   0.00000  -2.11767   0.00000  -2.11767  -2.99484
