Title t= 311.00000 step= 155500
44389
    1GLY      N    1   5.870   4.197   0.841
    1GLY    HT1    2   5.956   4.211   0.898
    1GLY    HT2    3   5.898   4.216   0.743
    1GLY    HT3    4   5.842   4.096   0.847
    1GLY     CA    5   5.766   4.283   0.909
    1GLY    HA1    6   5.680   4.299   0.845
    1GLY    HA2    7   5.823   4.374   0.921
    1GLY      C    8   5.728   4.234   1.050
    1GLY      O    9   5.781   4.134   1.100
    2PRO      N   10   5.638   4.298   1.125
    2PRO     CD   11   5.590   4.429   1.091
    2PRO    HD1   12   5.518   4.409   1.009
    2PRO    HD2   13   5.675   4.495   1.063
    2PRO     CA   14   5.603   4.259   1.262
    2PRO     HA   15   5.683   4.292   1.326
    2PRO     CB   16   5.482   4.349   1.298
    2PRO    HB1   17   5.492   4.360   1.408
    2PRO    HB2   18   5.385   4.306   1.262
    2PRO     CG   19   5.514   4.475   1.214
    2PRO    HG1   20   5.416   4.523   1.192
    2PRO    HG2   21   5.587   4.538   1.269
    2PRO      C   22   5.575   4.111   1.302
    2PRO      O   23   5.511   4.042   1.226
    3GLY      N   24   5.608   4.080   1.428
    3GLY     HN   25   5.672   4.135   1.480
    3GLY     CA   26   5.557   3.962   1.494
    3GLY    HA1   27   5.451   3.957   1.472
    3GLY    HA2   28   5.575   3.960   1.600
    3GLY      C   29   5.626   3.832   1.438
    3GLY      O   30   5.721   3.844   1.363
    4ASP      N   31   5.574   3.718   1.478
    4ASP     HN   32   5.488   3.717   1.529
    4ASP     CA   33   5.607   3.588   1.424
    4ASP     HA   34   5.709   3.568   1.456
    4ASP     CB   35   5.516   3.493   1.495
    4ASP    HB1   36   5.504   3.397   1.440
    4ASP    HB2   37   5.412   3.527   1.513
    4ASP     CG   38   5.554   3.441   1.634
    4ASP    OD1   39   5.660   3.477   1.690
    4ASP    OD2   40   5.477   3.359   1.685
    4ASP      C   41   5.603   3.567   1.275
    4ASP      O   42   5.527   3.628   1.203
    5PRO      N   43   5.679   3.465   1.217
    5PRO     CD   44   5.790   3.396   1.297
    5PRO    HD1   45   5.753   3.327   1.375
    5PRO    HD2   46   5.855   3.479   1.332
    5PRO     CA   47   5.681   3.418   1.081
    5PRO     HA   48   5.733   3.493   1.023
    5PRO     CB   49   5.760   3.293   1.087
    5PRO    HB1   50   5.802   3.276   0.985
    5PRO    HB2   51   5.691   3.212   1.118
    5PRO     CG   52   5.859   3.311   1.196
    5PRO    HG1   53   5.879   3.209   1.237
    5PRO    HG2   54   5.958   3.357   1.174
    5PRO      C   55   5.547   3.396   1.014
    5PRO      O   56   5.451   3.349   1.073
    6GLY      N   57   5.528   3.431   0.886
    6GLY     HN   58   5.609   3.466   0.839
    6GLY     CA   59   5.413   3.404   0.801
    6GLY    HA1   60   5.391   3.300   0.783
    6GLY    HA2   61   5.421   3.460   0.709
    6GLY      C   62   5.279   3.444   0.855
    6GLY      O   63   5.261   3.550   0.914
    7SER      N   64   5.174   3.366   0.832
    7SER     HN   65   5.182   3.280   0.782
    7SER     CA   66   5.032   3.407   0.857
    7SER     HA   67   5.019   3.514   0.866
    7SER     CB   68   4.914   3.356   0.766
    7SER    HB1   69   4.821   3.352   0.826
    7SER    HB2   70   4.937   3.255   0.727
    7SER     OG   71   4.901   3.435   0.649
    7SER    HG1   72   4.875   3.526   0.667
    7SER      C   73   5.000   3.373   1.002
    7SER      O   74   5.020   3.257   1.057
    8GLY      N   75   4.955   3.466   1.074
    8GLY     HN   76   4.938   3.559   1.042
    8GLY     CA   77   4.883   3.452   1.201
    8GLY    HA1   78   4.850   3.548   1.238
    8GLY    HA2   79   4.949   3.405   1.273
    8GLY      C   80   4.752   3.375   1.189
    8GLY      O   81   4.682   3.362   1.089
    9ASN      N   82   4.704   3.322   1.305
    9ASN     HN   83   4.757   3.333   1.388
    9ASN     CA   84   4.563   3.277   1.316
    9ASN     HA   85   4.515   3.274   1.219
    9ASN     CB   86   4.573   3.128   1.361
    9ASN    HB1   87   4.608   3.127   1.467
    9ASN    HB2   88   4.651   3.075   1.303
    9ASN     CG   89   4.436   3.054   1.362
    9ASN    OD1   90   4.328   3.096   1.330
    9ASN    ND2   91   4.440   2.929   1.402
    9ASN   HD21   92   4.363   2.867   1.384
    9ASN   HD22   93   4.509   2.889   1.462
    9ASN      C   94   4.477   3.351   1.414
    9ASN      O   95   4.494   3.332   1.535
   10PRO      N   96   4.388   3.439   1.368
   10PRO     CD   97   4.377   3.478   1.232
   10PRO    HD1   98   4.323   3.401   1.174
   10PRO    HD2   99   4.478   3.504   1.191
   10PRO     CA  100   4.287   3.503   1.450
   10PRO     HA  101   4.345   3.563   1.519
   10PRO     CB  102   4.195   3.578   1.348
   10PRO    HB1  103   4.164   3.677   1.390
   10PRO    HB2  104   4.105   3.521   1.318
   10PRO     CG  105   4.289   3.599   1.228
   10PRO    HG1  106   4.230   3.604   1.133
   10PRO    HG2  107   4.350   3.692   1.236
   10PRO      C  108   4.203   3.418   1.553
   10PRO      O  109   4.172   3.301   1.532
   11GLY      N  110   4.163   3.467   1.669
   11GLY     HN  111   4.194   3.560   1.690
   11GLY     CA  112   4.089   3.394   1.766
   11GLY    HA1  113   4.085   3.454   1.856
   11GLY    HA2  114   4.142   3.301   1.786
   11GLY      C  115   3.946   3.366   1.729
   11GLY      O  116   3.889   3.414   1.633
   12SER      N  117   3.879   3.273   1.800
   12SER     HN  118   3.931   3.219   1.867
   12SER     CA  119   3.738   3.237   1.792
   12SER     HA  120   3.695   3.301   1.715
   12SER     CB  121   3.709   3.086   1.768
   12SER    HB1  122   3.753   3.065   1.668
   12SER    HB2  123   3.600   3.066   1.767
   12SER     OG  124   3.771   2.994   1.861
   12SER    HG1  125   3.716   3.008   1.939
   12SER      C  126   3.663   3.274   1.923
   12SER      O  127   3.541   3.266   1.929
   13GLY      N  128   3.733   3.323   2.027
   13GLY     HN  129   3.831   3.309   2.014
   13GLY     CA  130   3.693   3.341   2.170
   13GLY    HA1  131   3.604   3.403   2.169
   13GLY    HA2  132   3.782   3.381   2.216
   13GLY      C  133   3.641   3.223   2.240
   13GLY      O  134   3.624   3.118   2.177
   14ASP      N  135   3.618   3.233   2.374
   14ASP     HN  136   3.637   3.322   2.415
   14ASP     CA  137   3.587   3.126   2.458
   14ASP     HA  138   3.667   3.058   2.435
   14ASP     CB  139   3.606   3.169   2.602
   14ASP    HB1  140   3.565   3.094   2.673
   14ASP    HB2  141   3.542   3.260   2.606
   14ASP     CG  142   3.749   3.182   2.638
   14ASP    OD1  143   3.838   3.142   2.564
   14ASP    OD2  144   3.778   3.241   2.745
   14ASP      C  145   3.454   3.057   2.419
   14ASP      O  146   3.361   3.120   2.367
   15PRO      N  147   3.451   2.926   2.451
   15PRO     CD  148   3.568   2.839   2.457
   15PRO    HD1  149   3.592   2.832   2.565
   15PRO    HD2  150   3.653   2.862   2.388
   15PRO     CA  151   3.323   2.849   2.443
   15PRO     HA  152   3.270   2.875   2.353
   15PRO     CB  153   3.363   2.703   2.456
   15PRO    HB1  154   3.313   2.635   2.383
   15PRO    HB2  155   3.355   2.666   2.560
   15PRO     CG  156   3.512   2.707   2.415
   15PRO    HG1  157   3.581   2.629   2.453
   15PRO    HG2  158   3.519   2.699   2.304
   15PRO      C  159   3.221   2.890   2.551
   15PRO    OT1  160   3.254   2.934   2.664
   15PRO    OT2  161   3.100   2.866   2.517
   16SOD    SOD  162   4.784   4.792   0.538
   17SOD    SOD  163   0.958   2.295   2.032
   18SOD    SOD  164   2.871   7.218   3.675
   19SOD    SOD  165   7.558   4.378   5.027
   20SOD    SOD  166   2.502   2.250   3.367
   21SOD    SOD  167   6.191   1.234   6.139
   22SOD    SOD  168   4.277   4.982   4.485
   23SOD    SOD  169   5.075   0.474   4.231
   24SOD    SOD  170   7.067   3.039   6.655
   25SOD    SOD  171   4.482   6.703   5.191
   26SOD    SOD  172   2.412   3.715   3.880
   27SOD    SOD  173   0.850   4.345   3.088
   28SOD    SOD  174   6.825   1.514   3.936
   29SOD    SOD  175   6.107   3.664   6.701
   30SOD    SOD  176   2.532   1.112   5.692
   31SOD    SOD  177   3.035   1.935   2.387
   32SOD    SOD  178   6.160   2.266   3.701
   33SOD    SOD  179   6.920   4.339   2.028
   34SOD    SOD  180   8.051   5.840   6.233
   35SOD    SOD  181   7.038   5.251   0.116
   36SOD    SOD  182   6.247   1.785   6.711
   37SOD    SOD  183   0.697   4.399   4.304
   38SOD    SOD  184   5.930   2.892   5.919
   39SOD    SOD  185   3.802   3.162   4.049
   40SOD    SOD  186   6.441   7.053   0.986
   41SOD    SOD  187   7.087   0.015   2.341
   42SOD    SOD  188   7.136   5.507   4.385
   43SOD    SOD  189   6.461   2.356   4.332
   44SOD    SOD  190   7.184   2.154   5.139
   45SOD    SOD  191   2.914   2.902   1.034
   46SOD    SOD  192   1.662   3.630   6.014
   47SOD    SOD  193   4.637   4.656   2.853
   48SOD    SOD  194   2.516   0.102   4.036
   49SOD    SOD  195   8.317   2.092   2.396
   50SOD    SOD  196   5.341   4.025   3.806
   51SOD    SOD  197   5.264   3.583   0.383
   52SOD    SOD  198   1.200   0.514   0.110
   53SOD    SOD  199   5.845   1.140   0.953
   54SOD    SOD  200   1.253   5.139   2.292
   55SOD    SOD  201   1.394   7.118   1.324
   56SOD    SOD  202   2.571   3.286   6.051
   57SOD    SOD  203   6.986   0.559   6.212
   58SOD    SOD  204   7.542   7.117   0.275
   59SOD    SOD  205   2.811   4.269   2.255
   60CLA    CLA  206   0.144   7.505   2.977
   61CLA    CLA  207   4.333   0.542   4.097
   62CLA    CLA  208   2.082   2.179   5.857
   63CLA    CLA  209   2.935   1.843   1.123
   64CLA    CLA  210   0.351   7.169   0.167
   65CLA    CLA  211   0.242   4.527   5.745
   66CLA    CLA  212   5.769   1.808   6.660
   67CLA    CLA  213   5.220   7.174   4.374
   68CLA    CLA  214   5.035   3.811   4.768
   69CLA    CLA  215   2.165   5.071   2.459
   70CLA    CLA  216   8.162   2.493   4.556
   71CLA    CLA  217   3.075   7.039   4.896
   72CLA    CLA  218   6.581   0.854   6.029
   73CLA    CLA  219   7.328   4.698   2.082
   74CLA    CLA  220   7.588   4.826   5.553
   75CLA    CLA  221   7.373   3.346   1.408
   76CLA    CLA  222   0.719   7.834   6.156
   77CLA    CLA  223   6.191   7.189   2.416
   78CLA    CLA  224   2.486   1.697   6.345
   79CLA    CLA  225   3.965   4.420   1.611
   80CLA    CLA  226  -0.020   0.388   0.776
   81CLA    CLA  227   4.777   1.136   3.491
   82CLA    CLA  228   8.263   3.491   3.784
   83CLA    CLA  229   6.906   5.866   6.106
   84CLA    CLA  230   6.005   4.806   5.425
   85CLA    CLA  231   5.138   4.042   1.860
   86CLA    CLA  232   7.413   7.062   3.265
   87CLA    CLA  233   1.295   6.340   1.618
   88CLA    CLA  234   7.758   4.973   4.389
   89CLA    CLA  235   3.621   0.139   4.547
   90CLA    CLA  236   5.611   5.466   3.839
   91CLA    CLA  237   6.029   5.928   1.290
   92CLA    CLA  238   1.192   2.208   2.787
   93CLA    CLA  239   7.108   4.967   3.333
   94CLA    CLA  240   1.833   3.831   3.091
   95CLA    CLA  241   3.632   4.069   4.259
   96CLA    CLA  242   2.721   7.210   3.429
   97CLA    CLA  243   7.744   2.111   2.188
   98CLA    CLA  244   6.541   3.978   2.747
   99CLA    CLA  245   3.405   5.759   4.768
  100CLA    CLA  246   4.524   5.564   6.330
  101CLA    CLA  247   5.551   2.746   4.075
  102TIP3   OH2  248   1.633   1.443   4.635
  102TIP3    H1  249   1.576   1.474   4.565
  102TIP3    H2  250   1.686   1.520   4.659
  103TIP3   OH2  251   1.261   3.441   5.791
  103TIP3    H1  252   1.181   3.486   5.763
  103TIP3    H2  253   1.236   3.396   5.872
  104TIP3   OH2  254   8.224   4.712   0.059
  104TIP3    H1  255   8.241   4.795   0.014
  104TIP3    H2  256   8.157   4.733   0.124
  105TIP3   OH2  257   2.889   4.636   4.437
  105TIP3    H1  258   2.832   4.710   4.414
  105TIP3    H2  259   2.975   4.662   4.407
  106TIP3   OH2  260   5.475   3.734   0.885
  106TIP3    H1  261   5.523   3.762   0.963
  106TIP3    H2  262   5.418   3.664   0.916
  107TIP3   OH2  263   6.758   1.227   2.529
  107TIP3    H1  264   6.782   1.247   2.620
  107TIP3    H2  265   6.826   1.167   2.499
  108TIP3   OH2  266   6.577   1.659   5.538
  108TIP3    H1  267   6.573   1.727   5.470
  108TIP3    H2  268   6.655   1.608   5.517
  109TIP3   OH2  269   1.816   1.958   0.924
  109TIP3    H1  270   1.886   1.902   0.889
  109TIP3    H2  271   1.852   1.992   1.006
  110TIP3   OH2  272   8.092   6.624   3.456
  110TIP3    H1  273   8.162   6.683   3.428
  110TIP3    H2  274   8.031   6.623   3.382
  111TIP3   OH2  275   1.395   4.262   1.667
  111TIP3    H1  276   1.314   4.271   1.617
  111TIP3    H2  277   1.430   4.177   1.641
  112TIP3   OH2  278   4.279   0.681   2.908
  112TIP3    H1  279   4.334   0.614   2.948
  112TIP3    H2  280   4.236   0.724   2.982
  113TIP3   OH2  281   0.090   0.118   3.338
  113TIP3    H1  282   0.122   0.063   3.266
  113TIP3    H2  283   0.011   0.160   3.302
  114TIP3   OH2  284   7.438   3.574   6.214
  114TIP3    H1  285   7.501   3.568   6.285
  114TIP3    H2  286   7.370   3.633   6.247
  115TIP3   OH2  287   0.255   2.505   6.112
  115TIP3    H1  288   0.252   2.533   6.021
  115TIP3    H2  289   0.218   2.417   6.113
  116TIP3   OH2  290   6.748   5.069   4.384
  116TIP3    H1  291   6.793   5.034   4.307
  116TIP3    H2  292   6.739   5.163   4.365
  117TIP3   OH2  293   1.537   7.088   2.576
  117TIP3    H1  294   1.491   7.149   2.519
  117TIP3    H2  295   1.483   7.009   2.575
  118TIP3   OH2  296   4.663   0.218   4.318
  118TIP3    H1  297   4.611   0.218   4.237
  118TIP3    H2  298   4.650   0.306   4.354
  119TIP3   OH2  299   1.138   7.191   4.787
  119TIP3    H1  300   1.185   7.204   4.870
  119TIP3    H2  301   1.203   7.211   4.720
  120TIP3   OH2  302   3.935   4.310   2.898
  120TIP3    H1  303   4.019   4.279   2.862
  120TIP3    H2  304   3.935   4.404   2.879
  121TIP3   OH2  305   2.014   6.037   1.208
  121TIP3    H1  306   1.991   6.129   1.202
  121TIP3    H2  307   2.108   6.036   1.224
  122TIP3   OH2  308   5.086   2.785   6.358
  122TIP3    H1  309   5.150   2.728   6.315
  122TIP3    H2  310   5.111   2.874   6.332
  123TIP3   OH2  311   0.881   7.818   0.136
  123TIP3    H1  312   0.853   7.801   0.047
  123TIP3    H2  313   0.850   7.907   0.154
  124TIP3   OH2  314   6.289   0.279   6.260
  124TIP3    H1  315   6.375   0.295   6.220
  124TIP3    H2  316   6.277   0.350   6.322
  125TIP3   OH2  317   2.317   3.978   2.388
  125TIP3    H1  318   2.379   3.909   2.408
  125TIP3    H2  319   2.240   3.933   2.354
  126TIP3   OH2  320   6.089   7.429   4.556
  126TIP3    H1  321   6.091   7.501   4.493
  126TIP3    H2  322   6.011   7.446   4.610
  127TIP3   OH2  323   7.065   5.115   0.961
  127TIP3    H1  324   7.047   5.055   0.888
  127TIP3    H2  325   6.991   5.175   0.962
  128TIP3   OH2  326   1.524   7.454   2.987
  128TIP3    H1  327   1.561   7.525   2.936
  128TIP3    H2  328   1.558   7.374   2.946
  129TIP3   OH2  329   6.811   2.393   0.085
  129TIP3    H1  330   6.877   2.459   0.105
  129TIP3    H2  331   6.732   2.444   0.065
  130TIP3   OH2  332   5.455   3.701   6.527
  130TIP3    H1  333   5.370   3.671   6.561
  130TIP3    H2  334   5.444   3.699   6.432
  131TIP3   OH2  335   7.234   0.643   6.277
  131TIP3    H1  336   7.264   0.554   6.262
  131TIP3    H2  337   7.309   0.688   6.316
  132TIP3   OH2  338   5.989   1.707   6.499
  132TIP3    H1  339   5.916   1.715   6.559
  132TIP3    H2  340   5.954   1.733   6.414
  133TIP3   OH2  341   1.169   5.206   1.094
  133TIP3    H1  342   1.168   5.116   1.127
  133TIP3    H2  343   1.260   5.234   1.105
  134TIP3   OH2  344   4.129   1.940   2.921
  134TIP3    H1  345   4.127   1.844   2.915
  134TIP3    H2  346   4.052   1.969   2.873
  135TIP3   OH2  347   0.704   2.735   5.696
  135TIP3    H1  348   0.789   2.780   5.697
  135TIP3    H2  349   0.713   2.666   5.762
  136TIP3   OH2  350   0.140   5.765   1.035
  136TIP3    H1  351   0.227   5.747   1.070
  136TIP3    H2  352   0.093   5.682   1.040
  137TIP3   OH2  353   5.010   4.011   5.878
  137TIP3    H1  354   5.103   4.003   5.900
  137TIP3    H2  355   5.007   4.002   5.783
  138TIP3   OH2  356   3.401   0.883   6.220
  138TIP3    H1  357   3.351   0.935   6.157
  138TIP3    H2  358   3.492   0.910   6.206
  139TIP3   OH2  359   6.436   3.412   2.939
  139TIP3    H1  360   6.501   3.480   2.956
  139TIP3    H2  361   6.472   3.362   2.866
  140TIP3   OH2  362   8.024   4.114   0.837
  140TIP3    H1  363   7.991   4.026   0.853
  140TIP3    H2  364   7.998   4.164   0.914
  141TIP3   OH2  365   1.128   4.852   6.710
  141TIP3    H1  366   1.168   4.848   6.797
  141TIP3    H2  367   1.189   4.904   6.658
  142TIP3   OH2  368   2.214   2.678   1.997
  142TIP3    H1  369   2.261   2.671   1.914
  142TIP3    H2  370   2.190   2.587   2.018
  143TIP3   OH2  371   6.985   1.413   4.748
  143TIP3    H1  372   7.037   1.411   4.828
  143TIP3    H2  373   7.036   1.362   4.685
  144TIP3   OH2  374   3.271   0.895   4.218
  144TIP3    H1  375   3.308   0.818   4.174
  144TIP3    H2  376   3.311   0.895   4.305
  145TIP3   OH2  377   4.044   1.276   6.255
  145TIP3    H1  378   4.082   1.231   6.330
  145TIP3    H2  379   3.984   1.212   6.217
  146TIP3   OH2  380   6.345   7.696   3.298
  146TIP3    H1  381   6.286   7.764   3.266
  146TIP3    H2  382   6.411   7.685   3.229
  147TIP3   OH2  383   8.020   1.351   4.756
  147TIP3    H1  384   8.001   1.262   4.727
  147TIP3    H2  385   8.099   1.343   4.810
  148TIP3   OH2  386   0.014   1.788   3.085
  148TIP3    H1  387   0.056   1.742   3.012
  148TIP3    H2  388   0.080   1.789   3.154
  149TIP3   OH2  389   6.669   4.405   6.594
  149TIP3    H1  390   6.742   4.428   6.651
  149TIP3    H2  391   6.604   4.473   6.611
  150TIP3   OH2  392   2.368   2.779   4.684
  150TIP3    H1  393   2.437   2.712   4.694
  150TIP3    H2  394   2.324   2.755   4.602
  151TIP3   OH2  395   6.929   1.338   1.618
  151TIP3    H1  396   6.956   1.430   1.621
  151TIP3    H2  397   6.857   1.332   1.680
  152TIP3   OH2  398   6.049   1.523   3.394
  152TIP3    H1  399   6.035   1.445   3.340
  152TIP3    H2  400   5.971   1.529   3.448
  153TIP3   OH2  401   2.053   5.278   3.854
  153TIP3    H1  402   1.963   5.301   3.828
  153TIP3    H2  403   2.042   5.205   3.914
  154TIP3   OH2  404   3.121   4.953   6.214
  154TIP3    H1  405   3.188   4.906   6.262
  154TIP3    H2  406   3.058   4.981   6.280
  155TIP3   OH2  407   3.653   5.703   5.318
  155TIP3    H1  408   3.673   5.776   5.260
  155TIP3    H2  409   3.610   5.638   5.263
  156TIP3   OH2  410   6.657   1.878   0.598
  156TIP3    H1  411   6.641   1.859   0.690
  156TIP3    H2  412   6.752   1.888   0.591
  157TIP3   OH2  413   0.512   7.108   1.332
  157TIP3    H1  414   0.423   7.118   1.365
  157TIP3    H2  415   0.511   7.024   1.285
  158TIP3   OH2  416   0.883   5.083   6.343
  158TIP3    H1  417   0.893   4.996   6.382
  158TIP3    H2  418   0.894   5.068   6.249
  159TIP3   OH2  419   7.070   0.455   2.142
  159TIP3    H1  420   7.114   0.498   2.215
  159TIP3    H2  421   7.113   0.491   2.064
  160TIP3   OH2  422   4.474   5.375   1.527
  160TIP3    H1  423   4.421   5.333   1.459
  160TIP3    H2  424   4.564   5.370   1.494
  161TIP3   OH2  425   5.820   5.475   6.214
  161TIP3    H1  426   5.805   5.384   6.190
  161TIP3    H2  427   5.869   5.512   6.141
  162TIP3   OH2  428   4.982   4.924   6.653
  162TIP3    H1  429   4.977   4.858   6.583
  162TIP3    H2  430   4.968   4.874   6.733
  163TIP3   OH2  431   6.595   5.630   2.620
  163TIP3    H1  432   6.529   5.596   2.560
  163TIP3    H2  433   6.676   5.587   2.594
  164TIP3   OH2  434   2.708   5.508   4.428
  164TIP3    H1  435   2.796   5.472   4.435
  164TIP3    H2  436   2.656   5.437   4.391
  165TIP3   OH2  437   6.587   3.451   2.425
  165TIP3    H1  438   6.610   3.533   2.469
  165TIP3    H2  439   6.577   3.476   2.333
  166TIP3   OH2  440   8.088   5.750   3.807
  166TIP3    H1  441   8.101   5.765   3.900
  166TIP3    H2  442   8.010   5.695   3.801
  167TIP3   OH2  443   2.872   2.855   4.370
  167TIP3    H1  444   2.891   2.880   4.461
  167TIP3    H2  445   2.777   2.846   4.367
  168TIP3   OH2  446   2.537   1.429   2.808
  168TIP3    H1  447   2.525   1.509   2.757
  168TIP3    H2  448   2.450   1.407   2.840
  169TIP3   OH2  449   4.943   7.684   0.732
  169TIP3    H1  450   4.962   7.606   0.785
  169TIP3    H2  451   4.850   7.676   0.711
  170TIP3   OH2  452   3.752   2.432   3.145
  170TIP3    H1  453   3.802   2.471   3.217
  170TIP3    H2  454   3.818   2.398   3.085
  171TIP3   OH2  455   0.588   4.545   0.850
  171TIP3    H1  456   0.621   4.476   0.907
  171TIP3    H2  457   0.516   4.584   0.900
  172TIP3   OH2  458   4.136   2.641   4.417
  172TIP3    H1  459   4.163   2.622   4.328
  172TIP3    H2  460   4.102   2.558   4.450
  173TIP3   OH2  461   7.052   4.832   1.179
  173TIP3    H1  462   7.018   4.807   1.265
  173TIP3    H2  463   7.140   4.795   1.176
  174TIP3   OH2  464   5.841   6.019   0.503
  174TIP3    H1  465   5.782   6.016   0.428
  174TIP3    H2  466   5.871   6.110   0.506
  175TIP3   OH2  467   1.268   0.199   4.829
  175TIP3    H1  468   1.319   0.171   4.753
  175TIP3    H2  469   1.225   0.280   4.801
  176TIP3   OH2  470   7.983   0.460   0.337
  176TIP3    H1  471   8.052   0.489   0.278
  176TIP3    H2  472   8.027   0.398   0.396
  177TIP3   OH2  473   3.253   3.669   5.597
  177TIP3    H1  474   3.290   3.743   5.645
  177TIP3    H2  475   3.278   3.592   5.650
  178TIP3   OH2  476   7.019   3.089   2.405
  178TIP3    H1  477   6.945   3.150   2.404
  178TIP3    H2  478   7.053   3.092   2.315
  179TIP3   OH2  479   5.252   7.426   1.361
  179TIP3    H1  480   5.308   7.498   1.392
  179TIP3    H2  481   5.302   7.347   1.382
  180TIP3   OH2  482   5.648   7.044   4.692
  180TIP3    H1  483   5.591   7.003   4.627
  180TIP3    H2  484   5.672   6.972   4.751
  181TIP3   OH2  485   5.148   5.011   0.947
  181TIP3    H1  486   5.126   5.059   1.027
  181TIP3    H2  487   5.132   4.920   0.969
  182TIP3   OH2  488   4.689   0.746   0.090
  182TIP3    H1  489   4.761   0.704   0.138
  182TIP3    H2  490   4.667   0.684   0.021
  183TIP3   OH2  491   1.053   1.927   1.686
  183TIP3    H1  492   1.023   2.010   1.650
  183TIP3    H2  493   1.032   1.863   1.618
  184TIP3   OH2  494   2.090   4.606   2.587
  184TIP3    H1  495   2.141   4.548   2.644
  184TIP3    H2  496   2.018   4.552   2.556
  185TIP3   OH2  497   4.988   1.745   0.978
  185TIP3    H1  498   4.930   1.799   1.031
  185TIP3    H2  499   4.939   1.664   0.964
  186TIP3   OH2  500   4.616   5.981   2.214
  186TIP3    H1  501   4.577   5.957   2.298
  186TIP3    H2  502   4.710   5.969   2.228
  187TIP3   OH2  503   0.579   7.623   2.128
  187TIP3    H1  504   0.599   7.539   2.170
  187TIP3    H2  505   0.589   7.687   2.198
  188TIP3   OH2  506   3.993   4.503   4.910
  188TIP3    H1  507   3.980   4.449   4.988
  188TIP3    H2  508   3.909   4.500   4.864
  189TIP3   OH2  509   3.833   5.570   3.568
  189TIP3    H1  510   3.753   5.560   3.517
  189TIP3    H2  511   3.824   5.508   3.641
  190TIP3   OH2  512   5.676   7.176   6.048
  190TIP3    H1  513   5.716   7.159   6.133
  190TIP3    H2  514   5.590   7.134   6.052
  191TIP3   OH2  515   1.707   7.445   0.432
  191TIP3    H1  516   1.646   7.440   0.506
  191TIP3    H2  517   1.706   7.537   0.406
  192TIP3   OH2  518   2.549   2.456   1.418
  192TIP3    H1  519   2.642   2.439   1.407
  192TIP3    H2  520   2.507   2.412   1.344
  193TIP3   OH2  521   5.329   5.129   3.440
  193TIP3    H1  522   5.355   5.169   3.523
  193TIP3    H2  523   5.401   5.149   3.381
  194TIP3   OH2  524   6.631   5.031   3.817
  194TIP3    H1  525   6.615   4.943   3.850
  194TIP3    H2  526   6.584   5.034   3.734
  195TIP3   OH2  527   2.158   3.075   0.242
  195TIP3    H1  528   2.192   3.134   0.175
  195TIP3    H2  529   2.091   3.024   0.197
  196TIP3   OH2  530   6.984   5.404   1.537
  196TIP3    H1  531   6.927   5.330   1.558
  196TIP3    H2  532   7.066   5.386   1.585
  197TIP3   OH2  533   5.390   0.736   4.209
  197TIP3    H1  534   5.362   0.657   4.164
  197TIP3    H2  535   5.329   0.804   4.180
  198TIP3   OH2  536   5.997   0.451   2.281
  198TIP3    H1  537   6.083   0.418   2.255
  198TIP3    H2  538   5.978   0.520   2.217
  199TIP3   OH2  539   6.428   6.118   0.562
  199TIP3    H1  540   6.471   6.136   0.479
  199TIP3    H2  541   6.431   6.023   0.571
  200TIP3   OH2  542   6.877   1.511   0.638
  200TIP3    H1  543   6.828   1.434   0.608
  200TIP3    H2  544   6.936   1.476   0.705
  201TIP3   OH2  545   4.171   4.827   1.472
  201TIP3    H1  546   4.239   4.889   1.498
  201TIP3    H2  547   4.156   4.774   1.550
  202TIP3   OH2  548   5.518   2.964   5.885
  202TIP3    H1  549   5.474   2.940   5.966
  202TIP3    H2  550   5.450   2.959   5.817
  203TIP3   OH2  551   5.791   3.670   2.565
  203TIP3    H1  552   5.844   3.734   2.517
  203TIP3    H2  553   5.720   3.723   2.604
  204TIP3   OH2  554   0.893   4.563   5.824
  204TIP3    H1  555   0.800   4.583   5.808
  204TIP3    H2  556   0.904   4.473   5.793
  205TIP3   OH2  557   3.874   6.611   3.837
  205TIP3    H1  558   3.924   6.529   3.836
  205TIP3    H2  559   3.814   6.603   3.763
  206TIP3   OH2  560   7.674   6.258   4.863
  206TIP3    H1  561   7.758   6.217   4.845
  206TIP3    H2  562   7.625   6.249   4.781
  207TIP3   OH2  563   6.681   2.068   5.582
  207TIP3    H1  564   6.642   1.994   5.536
  207TIP3    H2  565   6.752   2.096   5.524
  208TIP3   OH2  566   6.407   6.391   2.071
  208TIP3    H1  567   6.339   6.324   2.075
  208TIP3    H2  568   6.428   6.409   2.162
  209TIP3   OH2  569   1.935   4.206   3.724
  209TIP3    H1  570   1.941   4.301   3.721
  209TIP3    H2  571   1.986   4.177   3.648
  210TIP3   OH2  572   3.154   6.312   0.392
  210TIP3    H1  573   3.225   6.323   0.455
  210TIP3    H2  574   3.081   6.277   0.443
  211TIP3   OH2  575   3.335   7.666   1.482
  211TIP3    H1  576   3.398   7.738   1.482
  211TIP3    H2  577   3.296   7.667   1.395
  212TIP3   OH2  578   5.863   4.906   4.015
  212TIP3    H1  579   5.822   4.926   3.931
  212TIP3    H2  580   5.951   4.944   4.009
  213TIP3   OH2  581   5.946   1.125   1.593
  213TIP3    H1  582   6.037   1.150   1.573
  213TIP3    H2  583   5.936   1.143   1.686
  214TIP3   OH2  584   4.279   6.231   0.862
  214TIP3    H1  585   4.308   6.219   0.771
  214TIP3    H2  586   4.183   6.228   0.857
  215TIP3   OH2  587   7.993   2.521   1.732
  215TIP3    H1  588   8.074   2.572   1.730
  215TIP3    H2  589   7.984   2.486   1.643
  216TIP3   OH2  590   6.508   2.898   3.134
  216TIP3    H1  591   6.485   2.991   3.128
  216TIP3    H2  592   6.460   2.857   3.063
  217TIP3   OH2  593   2.511   6.872   3.013
  217TIP3    H1  594   2.479   6.924   3.086
  217TIP3    H2  595   2.569   6.931   2.965
  218TIP3   OH2  596   7.993   0.738   1.396
  218TIP3    H1  597   7.912   0.747   1.447
  218TIP3    H2  598   7.965   0.752   1.306
  219TIP3   OH2  599   7.772   6.840   2.666
  219TIP3    H1  600   7.764   6.768   2.603
  219TIP3    H2  601   7.683   6.853   2.699
  220TIP3   OH2  602   6.923   3.043   4.705
  220TIP3    H1  603   6.863   3.079   4.640
  220TIP3    H2  604   7.010   3.067   4.673
  221TIP3   OH2  605   3.077   3.354   3.358
  221TIP3    H1  606   3.039   3.402   3.284
  221TIP3    H2  607   3.148   3.410   3.389
  222TIP3   OH2  608   1.890   2.563   0.994
  222TIP3    H1  609   1.984   2.547   0.999
  222TIP3    H2  610   1.880   2.623   0.920
  223TIP3   OH2  611   4.500   4.182   3.152
  223TIP3    H1  612   4.553   4.226   3.219
  223TIP3    H2  613   4.520   4.089   3.164
  224TIP3   OH2  614   2.318   6.729   2.866
  224TIP3    H1  615   2.318   6.748   2.773
  224TIP3    H2  616   2.383   6.789   2.903
  225TIP3   OH2  617   3.011   5.913   5.383
  225TIP3    H1  618   2.964   5.961   5.315
  225TIP3    H2  619   3.102   5.942   5.375
  226TIP3   OH2  620   0.867   6.568   5.529
  226TIP3    H1  621   0.834   6.498   5.587
  226TIP3    H2  622   0.788   6.616   5.504
  227TIP3   OH2  623   7.296   1.771   0.810
  227TIP3    H1  624   7.375   1.732   0.848
  227TIP3    H2  625   7.238   1.787   0.884
  228TIP3   OH2  626   8.106   5.019   1.353
  228TIP3    H1  627   8.178   5.039   1.413
  228TIP3    H2  628   8.128   4.933   1.318
  229TIP3   OH2  629   6.697   7.205   1.870
  229TIP3    H1  630   6.652   7.154   1.937
  229TIP3    H2  631   6.733   7.140   1.810
  230TIP3   OH2  632   1.676   5.785   3.813
  230TIP3    H1  633   1.663   5.771   3.720
  230TIP3    H2  634   1.732   5.713   3.842
  231TIP3   OH2  635   2.980   5.334   4.245
  231TIP3    H1  636   3.061   5.284   4.238
  231TIP3    H2  637   2.979   5.365   4.336
  232TIP3   OH2  638   5.894   0.985   4.235
  232TIP3    H1  639   5.962   0.930   4.274
  232TIP3    H2  640   5.829   0.995   4.303
  233TIP3   OH2  641   1.575   4.746   3.406
  233TIP3    H1  642   1.634   4.821   3.413
  233TIP3    H2  643   1.598   4.706   3.322
  234TIP3   OH2  644   7.879   2.893   0.702
  234TIP3    H1  645   7.964   2.851   0.696
  234TIP3    H2  646   7.882   2.962   0.635
  235TIP3   OH2  647   0.664   4.766   4.173
  235TIP3    H1  648   0.589   4.725   4.129
  235TIP3    H2  649   0.673   4.718   4.255
  236TIP3   OH2  650   6.560   1.267   4.254
  236TIP3    H1  651   6.469   1.293   4.247
  236TIP3    H2  652   6.568   1.227   4.340
  237TIP3   OH2  653   3.188   7.211   2.917
  237TIP3    H1  654   3.174   7.272   2.988
  237TIP3    H2  655   3.260   7.155   2.947
  238TIP3   OH2  656   7.215   5.421   4.169
  238TIP3    H1  657   7.233   5.330   4.143
  238TIP3    H2  658   7.177   5.461   4.091
  239TIP3   OH2  659   1.001   5.464   1.412
  239TIP3    H1  660   1.010   5.535   1.349
  239TIP3    H2  661   1.088   5.423   1.415
  240TIP3   OH2  662   4.585   4.189   6.286
  240TIP3    H1  663   4.555   4.169   6.375
  240TIP3    H2  664   4.508   4.222   6.241
  241TIP3   OH2  665   3.674   2.328   0.234
  241TIP3    H1  666   3.609   2.398   0.223
  241TIP3    H2  667   3.708   2.339   0.322
  242TIP3   OH2  668   3.867   5.488   2.590
  242TIP3    H1  669   3.897   5.483   2.499
  242TIP3    H2  670   3.857   5.397   2.617
  243TIP3   OH2  671   1.252   2.805   3.008
  243TIP3    H1  672   1.190   2.733   3.019
  243TIP3    H2  673   1.333   2.774   3.049
  244TIP3   OH2  674   7.871   1.549   4.027
  244TIP3    H1  675   7.952   1.598   4.043
  244TIP3    H2  676   7.801   1.606   4.060
  245TIP3   OH2  677   6.667   4.218   1.336
  245TIP3    H1  678   6.571   4.216   1.338
  245TIP3    H2  679   6.692   4.232   1.428
  246TIP3   OH2  680   6.641   6.922   0.971
  246TIP3    H1  681   6.730   6.914   1.006
  246TIP3    H2  682   6.610   6.832   0.965
  247TIP3   OH2  683   6.748   2.771   3.915
  247TIP3    H1  684   6.662   2.787   3.953
  247TIP3    H2  685   6.740   2.685   3.874
  248TIP3   OH2  686   5.064   7.091   1.400
  248TIP3    H1  687   5.121   7.128   1.332
  248TIP3    H2  688   4.980   7.079   1.356
  249TIP3   OH2  689   4.507   2.054   1.444
  249TIP3    H1  690   4.513   2.085   1.534
  249TIP3    H2  691   4.448   2.116   1.401
  250TIP3   OH2  692   6.767   0.591   4.904
  250TIP3    H1  693   6.859   0.564   4.906
  250TIP3    H2  694   6.732   0.562   4.988
  251TIP3   OH2  695   3.995   6.694   5.618
  251TIP3    H1  696   4.072   6.710   5.673
  251TIP3    H2  697   4.008   6.605   5.586
  252TIP3   OH2  698   0.684   0.954   1.390
  252TIP3    H1  699   0.696   1.041   1.429
  252TIP3    H2  700   0.658   0.972   1.299
  253TIP3   OH2  701   7.625   0.606   3.641
  253TIP3    H1  702   7.680   0.603   3.563
  253TIP3    H2  703   7.613   0.700   3.658
  254TIP3   OH2  704   4.589   4.482   2.708
  254TIP3    H1  705   4.576   4.393   2.741
  254TIP3    H2  706   4.572   4.474   2.614
  255TIP3   OH2  707   7.495   1.561   4.890
  255TIP3    H1  708   7.438   1.499   4.845
  255TIP3    H2  709   7.552   1.506   4.943
  256TIP3   OH2  710   5.665   4.832   5.861
  256TIP3    H1  711   5.693   4.810   5.773
  256TIP3    H2  712   5.570   4.836   5.856
  257TIP3   OH2  713   5.500   2.775   4.949
  257TIP3    H1  714   5.411   2.772   4.985
  257TIP3    H2  715   5.529   2.865   4.964
  258TIP3   OH2  716   4.868   5.873   2.249
  258TIP3    H1  717   4.939   5.828   2.205
  258TIP3    H2  718   4.888   5.865   2.342
  259TIP3   OH2  719   4.601   1.307   2.313
  259TIP3    H1  720   4.690   1.343   2.313
  259TIP3    H2  721   4.594   1.260   2.396
  260TIP3   OH2  722   3.807   4.216   3.173
  260TIP3    H1  723   3.810   4.262   3.257
  260TIP3    H2  724   3.794   4.286   3.108
  261TIP3   OH2  725   4.273   1.949   3.665
  261TIP3    H1  726   4.358   1.918   3.633
  261TIP3    H2  727   4.283   2.044   3.668
  262TIP3   OH2  728   5.729   5.169   2.573
  262TIP3    H1  729   5.668   5.233   2.609
  262TIP3    H2  730   5.754   5.206   2.488
  263TIP3   OH2  731   7.322   3.450   3.410
  263TIP3    H1  732   7.275   3.437   3.492
  263TIP3    H2  733   7.414   3.434   3.431
  264TIP3   OH2  734   7.965   0.612   1.707
  264TIP3    H1  735   7.956   0.631   1.800
  264TIP3    H2  736   7.891   0.656   1.666
  265TIP3   OH2  737   3.572   5.332   5.960
  265TIP3    H1  738   3.528   5.341   5.875
  265TIP3    H2  739   3.501   5.334   6.024
  266TIP3   OH2  740   4.897   2.037   6.046
  266TIP3    H1  741   4.986   2.066   6.069
  266TIP3    H2  742   4.844   2.117   6.051
  267TIP3   OH2  743   0.282   0.392   1.988
  267TIP3    H1  744   0.373   0.420   1.977
  267TIP3    H2  745   0.230   0.468   1.962
  268TIP3   OH2  746   8.070   4.629   4.161
  268TIP3    H1  747   7.980   4.629   4.195
  268TIP3    H2  748   8.123   4.601   4.236
  269TIP3   OH2  749   0.259   3.450   6.364
  269TIP3    H1  750   0.328   3.469   6.301
  269TIP3    H2  751   0.178   3.474   6.318
  270TIP3   OH2  752   1.835   6.582   4.255
  270TIP3    H1  753   1.789   6.535   4.324
  270TIP3    H2  754   1.919   6.537   4.247
  271TIP3   OH2  755   2.943   1.792   4.410
  271TIP3    H1  756   2.887   1.766   4.482
  271TIP3    H2  757   3.025   1.744   4.425
  272TIP3   OH2  758   8.137  -0.018   5.613
  272TIP3    H1  759   8.133   0.056   5.553
  272TIP3    H2  760   8.230  -0.030   5.630
  273TIP3   OH2  761   1.135   0.131   3.048
  273TIP3    H1  762   1.227   0.107   3.039
  273TIP3    H2  763   1.132   0.224   3.029
  274TIP3   OH2  764   4.911   0.043   5.839
  274TIP3    H1  765   4.846  -0.005   5.891
  274TIP3    H2  766   4.904   0.005   5.751
  275TIP3   OH2  767   1.802   2.920   5.500
  275TIP3    H1  768   1.825   2.857   5.432
  275TIP3    H2  769   1.828   3.005   5.464
  276TIP3   OH2  770   1.457   6.135   3.140
  276TIP3    H1  771   1.368   6.140   3.105
  276TIP3    H2  772   1.449   6.169   3.229
  277TIP3   OH2  773   8.194   7.128   0.439
  277TIP3    H1  774   8.156   7.151   0.523
  277TIP3    H2  775   8.260   7.195   0.423
  278TIP3   OH2  776   7.352   6.033   0.641
  278TIP3    H1  777   7.425   5.980   0.671
  278TIP3    H2  778   7.340   6.099   0.709
  279TIP3   OH2  779   6.857   0.582   0.525
  279TIP3    H1  780   6.775   0.565   0.570
  279TIP3    H2  781   6.891   0.496   0.503
  280TIP3   OH2  782   3.301   0.112   6.490
  280TIP3    H1  783   3.298   0.173   6.417
  280TIP3    H2  784   3.234   0.046   6.469
  281TIP3   OH2  785   1.961   2.899   2.840
  281TIP3    H1  786   2.025   2.961   2.877
  281TIP3    H2  787   1.884   2.953   2.822
  282TIP3   OH2  788   6.749   7.019   6.054
  282TIP3    H1  789   6.746   6.983   5.966
  282TIP3    H2  790   6.841   7.041   6.068
  283TIP3   OH2  791   6.684   5.326   4.962
  283TIP3    H1  792   6.649   5.356   5.046
  283TIP3    H2  793   6.637   5.244   4.945
  284TIP3   OH2  794   7.939   5.039   3.287
  284TIP3    H1  795   7.867   5.085   3.242
  284TIP3    H2  796   7.979   5.106   3.342
  285TIP3   OH2  797   4.242   0.179   2.481
  285TIP3    H1  798   4.171   0.145   2.428
  285TIP3    H2  799   4.251   0.270   2.453
  286TIP3   OH2  800   2.124   5.582   4.940
  286TIP3    H1  801   2.173   5.602   5.020
  286TIP3    H2  802   2.068   5.508   4.965
  287TIP3   OH2  803   6.791   0.415   5.608
  287TIP3    H1  804   6.814   0.464   5.529
  287TIP3    H2  805   6.820   0.470   5.681
  288TIP3   OH2  806   4.292   3.650   0.146
  288TIP3    H1  807   4.305   3.556   0.163
  288TIP3    H2  808   4.302   3.691   0.232
  289TIP3   OH2  809   1.785   0.234   3.594
  289TIP3    H1  810   1.704   0.274   3.624
  289TIP3    H2  811   1.775   0.140   3.612
  290TIP3   OH2  812   0.686   3.605   3.310
  290TIP3    H1  813   0.647   3.518   3.310
  290TIP3    H2  814   0.664   3.641   3.395
  291TIP3   OH2  815   3.695   5.303   1.014
  291TIP3    H1  816   3.730   5.360   0.945
  291TIP3    H2  817   3.653   5.363   1.075
  292TIP3   OH2  818   0.830   7.056   3.820
  292TIP3    H1  819   0.883   7.135   3.817
  292TIP3    H2  820   0.888   6.986   3.790
  293TIP3   OH2  821   1.289   6.139   0.359
  293TIP3    H1  822   1.258   6.070   0.419
  293TIP3    H2  823   1.212   6.192   0.342
  294TIP3   OH2  824   7.325   5.964   4.728
  294TIP3    H1  825   7.270   6.012   4.789
  294TIP3    H2  826   7.355   5.888   4.777
  295TIP3   OH2  827   2.978   6.189   3.717
  295TIP3    H1  828   3.002   6.135   3.792
  295TIP3    H2  829   2.960   6.126   3.647
  296TIP3   OH2  830   0.313   4.974   5.981
  296TIP3    H1  831   0.394   5.005   6.021
  296TIP3    H2  832   0.271   5.054   5.948
  297TIP3   OH2  833   1.503   0.727   2.905
  297TIP3    H1  834   1.437   0.760   2.966
  297TIP3    H2  835   1.514   0.799   2.842
  298TIP3   OH2  836   3.914   3.121   2.940
  298TIP3    H1  837   3.846   3.113   3.007
  298TIP3    H2  838   3.868   3.154   2.863
  299TIP3   OH2  839   3.219   3.586   2.958
  299TIP3    H1  840   3.139   3.550   2.996
  299TIP3    H2  841   3.253   3.516   2.902
  300TIP3   OH2  842   7.363   1.789   1.385
  300TIP3    H1  843   7.439   1.825   1.431
  300TIP3    H2  844   7.369   1.695   1.400
  301TIP3   OH2  845   1.341   2.763   5.761
  301TIP3    H1  846   1.403   2.742   5.692
  301TIP3    H2  847   1.335   2.858   5.760
  302TIP3   OH2  848   0.225   4.419   3.169
  302TIP3    H1  849   0.203   4.368   3.247
  302TIP3    H2  850   0.255   4.354   3.105
  303TIP3   OH2  851   0.048   4.894   6.709
  303TIP3    H1  852   0.093   4.857   6.784
  303TIP3    H2  853   0.069   4.835   6.637
  304TIP3   OH2  854   2.562   3.332   6.819
  304TIP3    H1  855   2.644   3.326   6.770
  304TIP3    H2  856   2.517   3.250   6.802
  305TIP3   OH2  857   5.194   4.174   5.618
  305TIP3    H1  858   5.202   4.251   5.561
  305TIP3    H2  859   5.221   4.206   5.704
  306TIP3   OH2  860   2.955   3.239   0.056
  306TIP3    H1  861   3.023   3.223   0.121
  306TIP3    H2  862   3.002   3.264  -0.023
  307TIP3   OH2  863   3.764   1.979   2.428
  307TIP3    H1  864   3.740   1.981   2.521
  307TIP3    H2  865   3.766   2.071   2.402
  308TIP3   OH2  866   4.474   7.125   2.405
  308TIP3    H1  867   4.394   7.134   2.456
  308TIP3    H2  868   4.528   7.063   2.455
  309TIP3   OH2  869   5.050   7.621   6.125
  309TIP3    H1  870   5.033   7.537   6.082
  309TIP3    H2  871   5.003   7.685   6.073
  310TIP3   OH2  872   7.462   7.149   6.578
  310TIP3    H1  873   7.400   7.111   6.516
  310TIP3    H2  874   7.512   7.075   6.611
  311TIP3   OH2  875   5.747   6.345   1.076
  311TIP3    H1  876   5.818   6.384   1.127
  311TIP3    H2  877   5.695   6.296   1.140
  312TIP3   OH2  878   1.884   7.758   3.435
  312TIP3    H1  879   1.803   7.736   3.482
  312TIP3    H2  880   1.884   7.700   3.359
  313TIP3   OH2  881   8.104   7.584   4.557
  313TIP3    H1  882   8.120   7.580   4.463
  313TIP3    H2  883   8.049   7.662   4.569
  314TIP3   OH2  884   4.657   0.006   3.889
  314TIP3    H1  885   4.636   0.069   3.958
  314TIP3    H2  886   4.616   0.042   3.810
  315TIP3   OH2  887   2.641   3.035   4.078
  315TIP3    H1  888   2.644   2.939   4.086
  315TIP3    H2  889   2.713   3.066   4.132
  316TIP3   OH2  890   2.901   0.987   2.743
  316TIP3    H1  891   2.841   0.912   2.741
  316TIP3    H2  892   2.923   0.999   2.836
  317TIP3   OH2  893   2.334   7.523   3.836
  317TIP3    H1  894   2.263   7.583   3.859
  317TIP3    H2  895   2.372   7.562   3.757
  318TIP3   OH2  896   0.026   4.465   4.781
  318TIP3    H1  897   0.081   4.542   4.773
  318TIP3    H2  898   0.051   4.427   4.866
  319TIP3   OH2  899   5.980   7.477   3.626
  319TIP3    H1  900   6.032   7.492   3.547
  319TIP3    H2  901   5.898   7.522   3.610
  320TIP3   OH2  902   5.352   7.826   3.578
  320TIP3    H1  903   5.368   7.849   3.669
  320TIP3    H2  904   5.407   7.886   3.528
  321TIP3   OH2  905   5.620   3.798   0.671
  321TIP3    H1  906   5.667   3.724   0.633
  321TIP3    H2  907   5.567   3.759   0.741
  322TIP3   OH2  908   2.142   2.697   4.849
  322TIP3    H1  909   2.203   2.711   4.776
  322TIP3    H2  910   2.056   2.701   4.808
  323TIP3   OH2  911   7.401   5.885   3.994
  323TIP3    H1  912   7.316   5.927   4.009
  323TIP3    H2  913   7.410   5.884   3.899
  324TIP3   OH2  914   6.886   2.993   4.046
  324TIP3    H1  915   6.798   2.954   4.047
  324TIP3    H2  916   6.944   2.921   4.022
  325TIP3   OH2  917   3.738   5.702   2.684
  325TIP3    H1  918   3.766   5.629   2.629
  325TIP3    H2  919   3.748   5.670   2.773
  326TIP3   OH2  920   7.590   2.722   2.413
  326TIP3    H1  921   7.613   2.706   2.322
  326TIP3    H2  922   7.528   2.795   2.409
  327TIP3   OH2  923   3.398   3.627   4.154
  327TIP3    H1  924   3.337   3.556   4.171
  327TIP3    H2  925   3.442   3.603   4.072
  328TIP3   OH2  926   3.215   1.985   5.169
  328TIP3    H1  927   3.160   1.973   5.246
  328TIP3    H2  928   3.290   2.036   5.201
  329TIP3   OH2  929   1.544   3.890   1.362
  329TIP3    H1  930   1.518   3.895   1.270
  329TIP3    H2  931   1.484   3.827   1.401
  330TIP3   OH2  932   2.400   0.679   3.815
  330TIP3    H1  933   2.328   0.698   3.875
  330TIP3    H2  934   2.411   0.584   3.819
  331TIP3   OH2  935   3.972   1.612   1.959
  331TIP3    H1  936   3.963   1.706   1.975
  331TIP3    H2  937   3.943   1.571   2.041
  332TIP3   OH2  938   1.800   5.867   0.406
  332TIP3    H1  939   1.889   5.840   0.428
  332TIP3    H2  940   1.810   5.924   0.330
  333TIP3   OH2  941   6.151   5.689   1.446
  333TIP3    H1  942   6.108   5.757   1.395
  333TIP3    H2  943   6.180   5.733   1.526
  334TIP3   OH2  944   4.013   1.209   4.573
  334TIP3    H1  945   4.072   1.202   4.498
  334TIP3    H2  946   4.064   1.177   4.648
  335TIP3   OH2  947   1.433   6.735   6.558
  335TIP3    H1  948   1.482   6.811   6.527
  335TIP3    H2  949   1.420   6.682   6.480
  336TIP3   OH2  950   6.725   6.544   1.536
  336TIP3    H1  951   6.749   6.590   1.617
  336TIP3    H2  952   6.791   6.572   1.472
  337TIP3   OH2  953   1.665   3.857   2.847
  337TIP3    H1  954   1.618   3.774   2.850
  337TIP3    H2  955   1.714   3.860   2.929
  338TIP3   OH2  956   5.068   2.410   2.962
  338TIP3    H1  957   5.135   2.461   2.917
  338TIP3    H2  958   5.036   2.349   2.896
  339TIP3   OH2  959   5.318   5.886   1.588
  339TIP3    H1  960   5.248   5.936   1.629
  339TIP3    H2  961   5.338   5.933   1.507
  340TIP3   OH2  962   0.814   0.222   1.436
  340TIP3    H1  963   0.868   0.150   1.467
  340TIP3    H2  964   0.780   0.263   1.515
  341TIP3   OH2  965   2.364   3.290   3.168
  341TIP3    H1  966   2.355   3.332   3.253
  341TIP3    H2  967   2.278   3.298   3.128
  342TIP3   OH2  968   6.451   6.516   3.696
  342TIP3    H1  969   6.488   6.490   3.611
  342TIP3    H2  970   6.375   6.460   3.707
  343TIP3   OH2  971   2.971   3.122   3.509
  343TIP3    H1  972   3.023   3.108   3.589
  343TIP3    H2  973   3.014   3.196   3.465
  344TIP3   OH2  974   6.199   6.634   0.178
  344TIP3    H1  975   6.287   6.671   0.185
  344TIP3    H2  976   6.208   6.544   0.209
  345TIP3   OH2  977   6.098   3.896   5.350
  345TIP3    H1  978   6.051   3.963   5.300
  345TIP3    H2  979   6.033   3.861   5.411
  346TIP3   OH2  980   5.608   0.682   5.552
  346TIP3    H1  981   5.598   0.637   5.636
  346TIP3    H2  982   5.674   0.632   5.505
  347TIP3   OH2  983   6.616   4.836   0.295
  347TIP3    H1  984   6.678   4.775   0.255
  347TIP3    H2  985   6.551   4.853   0.228
  348TIP3   OH2  986   1.637   4.289   6.550
  348TIP3    H1  987   1.560   4.327   6.506
  348TIP3    H2  988   1.703   4.359   6.547
  349TIP3   OH2  989   7.724   5.065   2.874
  349TIP3    H1  990   7.738   5.152   2.837
  349TIP3    H2  991   7.631   5.065   2.899
  350TIP3   OH2  992   7.822   5.078   2.330
  350TIP3    H1  993   7.830   5.025   2.250
  350TIP3    H2  994   7.727   5.081   2.346
  351TIP3   OH2  995   4.111   2.517   6.077
  351TIP3    H1  996   4.103   2.612   6.072
  351TIP3    H2  997   4.083   2.486   5.991
  352TIP3   OH2  998   5.393   4.487   6.308
  352TIP3    H1  999   5.324   4.429   6.276
  352TIP3    H2 1000   5.404   4.552   6.238
  353TIP3   OH2 1001   7.390   3.924   2.069
  353TIP3    H1 1002   7.479   3.894   2.088
  353TIP3    H2 1003   7.383   4.009   2.112
  354TIP3   OH2 1004   4.153   0.548   1.301
  354TIP3    H1 1005   4.060   0.559   1.281
  354TIP3    H2 1006   4.184   0.636   1.322
  355TIP3   OH2 1007   3.261   0.928   0.456
  355TIP3    H1 1008   3.188   0.977   0.495
  355TIP3    H2 1009   3.338   0.955   0.507
  356TIP3   OH2 1010   7.618   2.942   4.366
  356TIP3    H1 1011   7.536   2.892   4.375
  356TIP3    H2 1012   7.591   3.025   4.327
  357TIP3   OH2 1013   4.832   2.844   5.242
  357TIP3    H1 1014   4.787   2.929   5.243
  357TIP3    H2 1015   4.878   2.843   5.158
  358TIP3   OH2 1016   6.101   2.766   6.389
  358TIP3    H1 1017   6.142   2.727   6.466
  358TIP3    H2 1018   6.174   2.783   6.329
  359TIP3   OH2 1019  -0.022   5.921   0.287
  359TIP3    H1 1020  -0.041   5.914   0.193
  359TIP3    H2 1021  -0.046   5.836   0.323
  360TIP3   OH2 1022   2.928   7.624   3.601
  360TIP3    H1 1023   2.879   7.542   3.605
  360TIP3    H2 1024   2.897   7.666   3.521
  361TIP3   OH2 1025   3.237   6.951   0.911
  361TIP3    H1 1026   3.325   6.968   0.946
  361TIP3    H2 1027   3.201   7.038   0.894
  362TIP3   OH2 1028   1.046   1.480   2.080
  362TIP3    H1 1029   0.998   1.500   2.160
  362TIP3    H2 1030   1.133   1.517   2.094
  363TIP3   OH2 1031   7.941   5.591   3.040
  363TIP3    H1 1032   8.019   5.641   3.014
  363TIP3    H2 1033   7.946   5.588   3.136
  364TIP3   OH2 1034   6.331   4.782   4.213
  364TIP3    H1 1035   6.363   4.809   4.299
  364TIP3    H2 1036   6.342   4.687   4.213
  365TIP3   OH2 1037   6.565   4.046   0.389
  365TIP3    H1 1038   6.604   3.991   0.457
  365TIP3    H2 1039   6.574   3.995   0.309
  366TIP3   OH2 1040   1.149   3.970   3.779
  366TIP3    H1 1041   1.079   4.034   3.765
  366TIP3    H2 1042   1.229   4.022   3.777
  367TIP3   OH2 1043   0.491   6.860   1.190
  367TIP3    H1 1044   0.417   6.800   1.197
  367TIP3    H2 1045   0.532   6.838   1.106
  368TIP3   OH2 1046   3.600   3.241   4.135
  368TIP3    H1 1047   3.598   3.169   4.198
  368TIP3    H2 1048   3.524   3.295   4.157
  369TIP3   OH2 1049   7.646   3.451   3.685
  369TIP3    H1 1050   7.639   3.467   3.591
  369TIP3    H2 1051   7.623   3.535   3.725
  370TIP3   OH2 1052   7.713   6.892   3.344
  370TIP3    H1 1053   7.629   6.933   3.323
  370TIP3    H2 1054   7.747   6.943   3.417
  371TIP3   OH2 1055   3.470   5.511   0.085
  371TIP3    H1 1056   3.560   5.532   0.112
  371TIP3    H2 1057   3.416   5.544   0.157
  372TIP3   OH2 1058   7.105   7.543   3.724
  372TIP3    H1 1059   7.104   7.448   3.738
  372TIP3    H2 1060   7.021   7.573   3.758
  373TIP3   OH2 1061   6.575   1.712   1.973
  373TIP3    H1 1062   6.502   1.694   1.914
  373TIP3    H2 1063   6.536   1.721   2.059
  374TIP3   OH2 1064   3.651   5.547   6.144
  374TIP3    H1 1065   3.624   5.636   6.125
  374TIP3    H2 1066   3.610   5.494   6.076
  375TIP3   OH2 1067   7.728   3.940   5.077
  375TIP3    H1 1068   7.659   3.913   5.017
  375TIP3    H2 1069   7.717   3.884   5.153
  376TIP3   OH2 1070   6.974   2.388   1.598
  376TIP3    H1 1071   6.893   2.440   1.595
  376TIP3    H2 1072   6.990   2.364   1.507
  377TIP3   OH2 1073   7.437   1.142   2.750
  377TIP3    H1 1074   7.472   1.126   2.662
  377TIP3    H2 1075   7.441   1.237   2.761
  378TIP3   OH2 1076   0.605   2.388   6.751
  378TIP3    H1 1077   0.571   2.321   6.691
  378TIP3    H2 1078   0.564   2.367   6.835
  379TIP3   OH2 1079   1.403   1.803   0.446
  379TIP3    H1 1080   1.488   1.843   0.464
  379TIP3    H2 1081   1.418   1.749   0.368
  380TIP3   OH2 1082   1.331   6.611   1.449
  380TIP3    H1 1083   1.379   6.626   1.530
  380TIP3    H2 1084   1.308   6.519   1.451
  381TIP3   OH2 1085   7.618   0.591   1.339
  381TIP3    H1 1086   7.587   0.526   1.402
  381TIP3    H2 1087   7.573   0.569   1.258
  382TIP3   OH2 1088   3.901   6.970   0.104
  382TIP3    H1 1089   3.836   7.035   0.131
  382TIP3    H2 1090   3.896   6.969   0.008
  383TIP3   OH2 1091   0.279   0.819   2.818
  383TIP3    H1 1092   0.204   0.791   2.871
  383TIP3    H2 1093   0.246   0.893   2.767
  384TIP3   OH2 1094   1.946   3.851   1.791
  384TIP3    H1 1095   1.880   3.881   1.854
  384TIP3    H2 1096   1.941   3.755   1.795
  385TIP3   OH2 1097   2.186   6.726   0.183
  385TIP3    H1 1098   2.210   6.685   0.100
  385TIP3    H2 1099   2.214   6.663   0.249
  386TIP3   OH2 1100   6.051   7.810   3.591
  386TIP3    H1 1101   5.963   7.847   3.576
  386TIP3    H2 1102   6.057   7.738   3.528
  387TIP3   OH2 1103   7.537   7.422   5.880
  387TIP3    H1 1104   7.484   7.500   5.888
  387TIP3    H2 1105   7.514   7.370   5.957
  388TIP3   OH2 1106   3.964   0.439   2.992
  388TIP3    H1 1107   3.917   0.376   3.048
  388TIP3    H2 1108   3.994   0.507   3.052
  389TIP3   OH2 1109   2.084   2.932   5.611
  389TIP3    H1 1110   1.991   2.938   5.593
  389TIP3    H2 1111   2.101   2.838   5.621
  390TIP3   OH2 1112   0.380   2.305   3.889
  390TIP3    H1 1113   0.376   2.269   3.801
  390TIP3    H2 1114   0.317   2.377   3.889
  391TIP3   OH2 1115   3.240   5.902   0.044
  391TIP3    H1 1116   3.312   5.844   0.018
  391TIP3    H2 1117   3.181   5.902  -0.032
  392TIP3   OH2 1118   6.293   2.276   5.462
  392TIP3    H1 1119   6.250   2.221   5.396
  392TIP3    H2 1120   6.382   2.287   5.429
  393TIP3   OH2 1121   6.014   5.776   3.525
  393TIP3    H1 1122   6.084   5.753   3.586
  393TIP3    H2 1123   5.938   5.725   3.555
  394TIP3   OH2 1124   6.253   5.128   1.142
  394TIP3    H1 1125   6.215   5.211   1.171
  394TIP3    H2 1126   6.188   5.062   1.166
  395TIP3   OH2 1127   3.337   5.211   5.355
  395TIP3    H1 1128   3.318   5.117   5.359
  395TIP3    H2 1129   3.281   5.244   5.284
  396TIP3   OH2 1130   3.291   0.268   1.682
  396TIP3    H1 1131   3.225   0.218   1.730
  396TIP3    H2 1132   3.274   0.248   1.590
  397TIP3   OH2 1133   7.281   7.709   1.345
  397TIP3    H1 1134   7.327   7.787   1.377
  397TIP3    H2 1135   7.190   7.722   1.371
  398TIP3   OH2 1136   5.522   6.229   5.393
  398TIP3    H1 1137   5.435   6.188   5.388
  398TIP3    H2 1138   5.523   6.272   5.479
  399TIP3   OH2 1139   1.443   2.366   2.805
  399TIP3    H1 1140   1.441   2.401   2.716
  399TIP3    H2 1141   1.356   2.328   2.818
  400TIP3   OH2 1142   6.489   6.006   1.612
  400TIP3    H1 1143   6.560   5.942   1.614
  400TIP3    H2 1144   6.472   6.019   1.519
  401TIP3   OH2 1145   2.268   0.712   4.995
  401TIP3    H1 1146   2.218   0.710   4.913
  401TIP3    H2 1147   2.342   0.770   4.976
  402TIP3   OH2 1148   5.401   6.126   3.131
  402TIP3    H1 1149   5.320   6.090   3.094
  402TIP3    H2 1150   5.443   6.170   3.057
  403TIP3   OH2 1151   8.239   4.900   1.012
  403TIP3    H1 1152   8.332   4.897   1.033
  403TIP3    H2 1153   8.195   4.880   1.095
  404TIP3   OH2 1154   2.337   7.528   2.739
  404TIP3    H1 1155   2.243   7.543   2.726
  404TIP3    H2 1156   2.360   7.464   2.672
  405TIP3   OH2 1157   4.214   3.040   5.546
  405TIP3    H1 1158   4.157   2.999   5.611
  405TIP3    H2 1159   4.224   2.974   5.477
  406TIP3   OH2 1160   6.254   1.404   0.428
  406TIP3    H1 1161   6.209   1.333   0.474
  406TIP3    H2 1162   6.340   1.409   0.470
  407TIP3   OH2 1163   0.670   5.924   1.400
  407TIP3    H1 1164   0.713   6.009   1.408
  407TIP3    H2 1165   0.664   5.892   1.490
  408TIP3   OH2 1166   1.176   6.590   1.784
  408TIP3    H1 1167   1.221   6.517   1.742
  408TIP3    H2 1168   1.084   6.567   1.781
  409TIP3   OH2 1169   1.727   0.615   6.755
  409TIP3    H1 1170   1.813   0.583   6.725
  409TIP3    H2 1171   1.706   0.686   6.694
  410TIP3   OH2 1172   6.084   5.475   5.031
  410TIP3    H1 1173   6.140   5.409   5.072
  410TIP3    H2 1174   6.144   5.547   5.011
  411TIP3   OH2 1175   2.178   6.831   4.890
  411TIP3    H1 1176   2.229   6.901   4.931
  411TIP3    H2 1177   2.243   6.768   4.860
  412TIP3   OH2 1178   1.414   1.607   6.642
  412TIP3    H1 1179   1.475   1.542   6.678
  412TIP3    H2 1180   1.454   1.634   6.559
  413TIP3   OH2 1181   1.371   0.277   2.180
  413TIP3    H1 1182   1.440   0.301   2.242
  413TIP3    H2 1183   1.315   0.355   2.174
  414TIP3   OH2 1184   0.094   3.559   5.093
  414TIP3    H1 1185   0.010   3.593   5.061
  414TIP3    H2 1186   0.082   3.552   5.188
  415TIP3   OH2 1187   4.261   6.106   3.031
  415TIP3    H1 1188   4.283   6.193   3.062
  415TIP3    H2 1189   4.226   6.120   2.943
  416TIP3   OH2 1190   2.175   1.439   3.216
  416TIP3    H1 1191   2.234   1.384   3.164
  416TIP3    H2 1192   2.164   1.391   3.298
  417TIP3   OH2 1193   1.520   5.974   0.636
  417TIP3    H1 1194   1.482   5.948   0.720
  417TIP3    H2 1195   1.551   6.063   0.650
  418TIP3   OH2 1196   0.335   1.127   1.997
  418TIP3    H1 1197   0.377   1.117   2.082
  418TIP3    H2 1198   0.322   1.222   1.988
  419TIP3   OH2 1199   1.036   6.121   5.392
  419TIP3    H1 1200   1.076   6.073   5.464
  419TIP3    H2 1201   1.103   6.122   5.324
  420TIP3   OH2 1202   1.880   7.496   2.414
  420TIP3    H1 1203   1.958   7.444   2.395
  420TIP3    H2 1204   1.835   7.447   2.483
  421TIP3   OH2 1205   3.640   1.022   0.932
  421TIP3    H1 1206   3.652   1.080   0.857
  421TIP3    H2 1207   3.562   0.971   0.911
  422TIP3   OH2 1208   1.519   1.825   3.809
  422TIP3    H1 1209   1.467   1.786   3.739
  422TIP3    H2 1210   1.590   1.870   3.764
  423TIP3   OH2 1211   5.619   0.478   6.536
  423TIP3    H1 1212   5.571   0.503   6.614
  423TIP3    H2 1213   5.702   0.524   6.543
  424TIP3   OH2 1214   7.714   3.721   6.668
  424TIP3    H1 1215   7.689   3.799   6.718
  424TIP3    H2 1216   7.806   3.708   6.688
  425TIP3   OH2 1217   2.871   6.770   2.203
  425TIP3    H1 1218   2.826   6.763   2.119
  425TIP3    H2 1219   2.962   6.747   2.185
  426TIP3   OH2 1220   4.326   0.623   5.935
  426TIP3    H1 1221   4.259   0.560   5.962
  426TIP3    H2 1222   4.319   0.625   5.840
  427TIP3   OH2 1223   0.944   3.418   5.691
  427TIP3    H1 1224   0.915   3.509   5.680
  427TIP3    H2 1225   0.958   3.409   5.785
  428TIP3   OH2 1226   3.240   3.164   3.600
  428TIP3    H1 1227   3.211   3.100   3.665
  428TIP3    H2 1228   3.260   3.243   3.651
  429TIP3   OH2 1229   7.764   0.050   3.783
  429TIP3    H1 1230   7.802  -0.032   3.813
  429TIP3    H2 1231   7.810   0.070   3.701
  430TIP3   OH2 1232   1.972   3.088   4.257
  430TIP3    H1 1233   1.878   3.096   4.276
  430TIP3    H2 1234   1.976   3.032   4.180
  431TIP3   OH2 1235   3.021   6.069   0.263
  431TIP3    H1 1236   2.968   6.124   0.322
  431TIP3    H2 1237   3.036   5.989   0.313
  432TIP3   OH2 1238   1.013   4.393   3.241
  432TIP3    H1 1239   0.999   4.334   3.315
  432TIP3    H2 1240   1.056   4.470   3.279
  433TIP3   OH2 1241   2.742   4.041   4.638
  433TIP3    H1 1242   2.790   4.057   4.719
  433TIP3    H2 1243   2.663   3.994   4.664
  434TIP3   OH2 1244   5.782   3.926   4.073
  434TIP3    H1 1245   5.808   3.854   4.015
  434TIP3    H2 1246   5.848   3.993   4.059
  435TIP3   OH2 1247   6.102   5.056   4.057
  435TIP3    H1 1248   6.121   5.137   4.010
  435TIP3    H2 1249   6.153   4.989   4.012
  436TIP3   OH2 1250   0.285   6.018   4.258
  436TIP3    H1 1251   0.316   6.044   4.171
  436TIP3    H2 1252   0.358   5.968   4.296
  437TIP3   OH2 1253   3.386   5.646   3.898
  437TIP3    H1 1254   3.363   5.733   3.865
  437TIP3    H2 1255   3.343   5.640   3.983
  438TIP3   OH2 1256   2.976   6.258   0.041
  438TIP3    H1 1257   3.023   6.229  -0.038
  438TIP3    H2 1258   3.004   6.197   0.109
  439TIP3   OH2 1259   2.517   0.767   6.691
  439TIP3    H1 1260   2.491   0.786   6.601
  439TIP3    H2 1261   2.586   0.701   6.682
  440TIP3   OH2 1262   0.176   6.952   6.403
  440TIP3    H1 1263   0.091   6.972   6.441
  440TIP3    H2 1264   0.199   6.866   6.440
  441TIP3   OH2 1265   6.898   7.556   2.000
  441TIP3    H1 1266   6.944   7.478   1.969
  441TIP3    H2 1267   6.835   7.522   2.064
  442TIP3   OH2 1268   2.317   5.029   0.627
  442TIP3    H1 1269   2.247   5.057   0.568
  442TIP3    H2 1270   2.294   5.067   0.711
  443TIP3   OH2 1271   7.082   0.612   3.011
  443TIP3    H1 1272   7.155   0.599   2.950
  443TIP3    H2 1273   7.064   0.706   3.005
  444TIP3   OH2 1274   4.302   6.167   1.435
  444TIP3    H1 1275   4.252   6.086   1.429
  444TIP3    H2 1276   4.318   6.191   1.344
  445TIP3   OH2 1277   7.728   4.466   3.451
  445TIP3    H1 1278   7.684   4.550   3.439
  445TIP3    H2 1279   7.782   4.456   3.373
  446TIP3   OH2 1280   2.424   2.009   4.591
  446TIP3    H1 1281   2.459   1.978   4.674
  446TIP3    H2 1282   2.338   1.967   4.584
  447TIP3   OH2 1283   7.894   6.104   4.802
  447TIP3    H1 1284   7.953   6.171   4.766
  447TIP3    H2 1285   7.922   6.023   4.760
  448TIP3   OH2 1286   0.793   2.986   5.440
  448TIP3    H1 1287   0.850   2.941   5.501
  448TIP3    H2 1288   0.790   2.929   5.363
  449TIP3   OH2 1289   7.264   5.173   4.091
  449TIP3    H1 1290   7.356   5.166   4.117
  449TIP3    H2 1291   7.265   5.158   3.996
  450TIP3   OH2 1292   7.761   4.112   3.169
  450TIP3    H1 1293   7.687   4.125   3.111
  450TIP3    H2 1294   7.837   4.109   3.111
  451TIP3   OH2 1295   8.106   3.010   2.786
  451TIP3    H1 1296   8.079   3.097   2.755
  451TIP3    H2 1297   8.090   3.013   2.880
  452TIP3   OH2 1298   2.669   5.110   1.331
  452TIP3    H1 1299   2.636   5.084   1.417
  452TIP3    H2 1300   2.758   5.074   1.328
  453TIP3   OH2 1301   0.948   0.052   6.584
  453TIP3    H1 1302   0.924  -0.027   6.536
  453TIP3    H2 1303   0.972   0.115   6.516
  454TIP3   OH2 1304   0.371   6.053   4.986
  454TIP3    H1 1305   0.362   6.034   5.080
  454TIP3    H2 1306   0.364   5.967   4.943
  455TIP3   OH2 1307   2.128   3.459   2.777
  455TIP3    H1 1308   2.104   3.504   2.859
  455TIP3    H2 1309   2.129   3.529   2.711
  456TIP3   OH2 1310   5.696   2.830   3.362
  456TIP3    H1 1311   5.697   2.812   3.456
  456TIP3    H2 1312   5.651   2.914   3.354
  457TIP3   OH2 1313   5.888   7.678   6.579
  457TIP3    H1 1314   5.955   7.613   6.556
  457TIP3    H2 1315   5.846   7.700   6.496
  458TIP3   OH2 1316   0.169   4.721   0.694
  458TIP3    H1 1317   0.163   4.690   0.604
  458TIP3    H2 1318   0.078   4.730   0.723
  459TIP3   OH2 1319   2.067   1.074   1.346
  459TIP3    H1 1320   2.116   1.016   1.405
  459TIP3    H2 1321   2.131   1.098   1.279
  460TIP3   OH2 1322   7.949   4.892   5.902
  460TIP3    H1 1323   7.856   4.913   5.914
  460TIP3    H2 1324   7.962   4.893   5.807
  461TIP3   OH2 1325   7.541   7.751   6.119
  461TIP3    H1 1326   7.632   7.782   6.120
  461TIP3    H2 1327   7.505   7.782   6.202
  462TIP3   OH2 1328   1.923   1.446   6.406
  462TIP3    H1 1329   1.916   1.541   6.397
  462TIP3    H2 1330   2.003   1.424   6.358
  463TIP3   OH2 1331   4.954   2.240   4.655
  463TIP3    H1 1332   5.031   2.214   4.706
  463TIP3    H2 1333   4.985   2.309   4.596
  464TIP3   OH2 1334   3.422   4.234   0.957
  464TIP3    H1 1335   3.472   4.169   1.006
  464TIP3    H2 1336   3.355   4.182   0.910
  465TIP3   OH2 1337   2.331   1.520   0.703
  465TIP3    H1 1338   2.317   1.612   0.680
  465TIP3    H2 1339   2.291   1.511   0.789
  466TIP3   OH2 1340   7.453   3.916   5.951
  466TIP3    H1 1341   7.498   3.936   6.033
  466TIP3    H2 1342   7.439   4.002   5.910
  467TIP3   OH2 1343   1.784   6.075   4.680
  467TIP3    H1 1344   1.811   6.134   4.750
  467TIP3    H2 1345   1.857   6.076   4.617
  468TIP3   OH2 1346   5.718   5.705   4.041
  468TIP3    H1 1347   5.696   5.636   3.978
  468TIP3    H2 1348   5.813   5.697   4.053
  469TIP3   OH2 1349   3.682   5.550   6.666
  469TIP3    H1 1350   3.593   5.570   6.637
  469TIP3    H2 1351   3.723   5.636   6.680
  470TIP3   OH2 1352   2.550   2.697   4.048
  470TIP3    H1 1353   2.510   2.741   3.973
  470TIP3    H2 1354   2.477   2.676   4.106
  471TIP3   OH2 1355   2.221   6.571   0.419
  471TIP3    H1 1356   2.211   6.477   0.435
  471TIP3    H2 1357   2.279   6.601   0.488
  472TIP3   OH2 1358   3.760   6.248   1.356
  472TIP3    H1 1359   3.737   6.186   1.287
  472TIP3    H2 1360   3.849   6.225   1.381
  473TIP3   OH2 1361   5.126   2.737   5.330
  473TIP3    H1 1362   5.194   2.745   5.397
  473TIP3    H2 1363   5.150   2.801   5.263
  474TIP3   OH2 1364   0.231   4.255   0.030
  474TIP3    H1 1365   0.267   4.178   0.072
  474TIP3    H2 1366   0.141   4.260   0.061
  475TIP3   OH2 1367   5.476   7.717   3.838
  475TIP3    H1 1368   5.567   7.747   3.848
  475TIP3    H2 1369   5.483   7.633   3.794
  476TIP3   OH2 1370   3.247   2.069   2.998
  476TIP3    H1 1371   3.246   2.125   3.075
  476TIP3    H2 1372   3.338   2.040   2.991
  477TIP3   OH2 1373   4.502   4.098   5.870
  477TIP3    H1 1374   4.510   4.152   5.949
  477TIP3    H2 1375   4.410   4.102   5.847
  478TIP3   OH2 1376   0.055   6.629   4.241
  478TIP3    H1 1377   0.010   6.680   4.307
  478TIP3    H2 1378   0.009   6.648   4.159
  479TIP3   OH2 1379   7.160   2.843   5.596
  479TIP3    H1 1380   7.082   2.888   5.565
  479TIP3    H2 1381   7.225   2.912   5.608
  480TIP3   OH2 1382   7.159   0.659   1.924
  480TIP3    H1 1383   7.211   0.724   1.877
  480TIP3    H2 1384   7.094   0.710   1.973
  481TIP3   OH2 1385   3.968   4.076   5.837
  481TIP3    H1 1386   3.916   4.116   5.767
  481TIP3    H2 1387   3.963   3.982   5.819
  482TIP3   OH2 1388   1.193   0.816   6.334
  482TIP3    H1 1389   1.255   0.872   6.288
  482TIP3    H2 1390   1.132   0.877   6.375
  483TIP3   OH2 1391   2.074   4.262   6.261
  483TIP3    H1 1392   2.167   4.276   6.241
  483TIP3    H2 1393   2.066   4.286   6.353
  484TIP3   OH2 1394   4.408   0.717   6.173
  484TIP3    H1 1395   4.333   0.674   6.214
  484TIP3    H2 1396   4.414   0.677   6.086
  485TIP3   OH2 1397   2.073   7.169   1.291
  485TIP3    H1 1398   2.168   7.180   1.289
  485TIP3    H2 1399   2.055   7.130   1.377
  486TIP3   OH2 1400   3.656   6.271   4.074
  486TIP3    H1 1401   3.752   6.273   4.082
  486TIP3    H2 1402   3.625   6.335   4.139
  487TIP3   OH2 1403   3.383   3.442   2.512
  487TIP3    H1 1404   3.359   3.358   2.552
  487TIP3    H2 1405   3.321   3.453   2.440
  488TIP3   OH2 1406   0.441   4.961   2.559
  488TIP3    H1 1407   0.359   4.913   2.549
  488TIP3    H2 1408   0.419   5.035   2.615
  489TIP3   OH2 1409   2.042   7.299   3.570
  489TIP3    H1 1410   2.111   7.264   3.513
  489TIP3    H2 1411   2.011   7.377   3.524
  490TIP3   OH2 1412   5.407   5.336   4.511
  490TIP3    H1 1413   5.378   5.245   4.511
  490TIP3    H2 1414   5.365   5.374   4.434
  491TIP3   OH2 1415   0.094   4.863   1.971
  491TIP3    H1 1416   0.083   4.777   2.013
  491TIP3    H2 1417   0.179   4.894   2.003
  492TIP3   OH2 1418   8.297   6.130   3.573
  492TIP3    H1 1419   8.225   6.072   3.598
  492TIP3    H2 1420   8.258   6.217   3.569
  493TIP3   OH2 1421   4.869   0.214   0.082
  493TIP3    H1 1422   4.933   0.144   0.098
  493TIP3    H2 1423   4.787   0.168   0.066
  494TIP3   OH2 1424   7.450   5.016   6.224
  494TIP3    H1 1425   7.487   5.086   6.169
  494TIP3    H2 1426   7.417   5.062   6.301
  495TIP3   OH2 1427   7.242   2.371   6.136
  495TIP3    H1 1428   7.193   2.372   6.054
  495TIP3    H2 1429   7.321   2.321   6.118
  496TIP3   OH2 1430   1.098   2.413   4.032
  496TIP3    H1 1431   1.130   2.438   4.119
  496TIP3    H2 1432   1.155   2.460   3.971
  497TIP3   OH2 1433   5.419   1.192   5.545
  497TIP3    H1 1434   5.486   1.155   5.603
  497TIP3    H2 1435   5.416   1.132   5.470
  498TIP3   OH2 1436   5.612   3.398   2.217
  498TIP3    H1 1437   5.657   3.325   2.259
  498TIP3    H2 1438   5.622   3.383   2.124
  499TIP3   OH2 1439   1.436   1.985   1.954
  499TIP3    H1 1440   1.355   1.965   2.002
  499TIP3    H2 1441   1.480   2.051   2.007
  500TIP3   OH2 1442   2.866   6.557   1.868
  500TIP3    H1 1443   2.944   6.601   1.833
  500TIP3    H2 1444   2.901   6.487   1.923
  501TIP3   OH2 1445   6.282   1.542   2.738
  501TIP3    H1 1446   6.347   1.473   2.747
  501TIP3    H2 1447   6.205   1.498   2.702
  502TIP3   OH2 1448   6.426   7.751   0.772
  502TIP3    H1 1449   6.408   7.755   0.678
  502TIP3    H2 1450   6.390   7.832   0.807
  503TIP3   OH2 1451   4.374   5.333   0.518
  503TIP3    H1 1452   4.377   5.402   0.584
  503TIP3    H2 1453   4.406   5.255   0.563
  504TIP3   OH2 1454   5.758   1.932   4.590
  504TIP3    H1 1455   5.679   1.905   4.544
  504TIP3    H2 1456   5.824   1.943   4.521
  505TIP3   OH2 1457   4.302   6.969   4.466
  505TIP3    H1 1458   4.211   6.959   4.491
  505TIP3    H2 1459   4.326   6.885   4.427
  506TIP3   OH2 1460   0.230   2.899   4.430
  506TIP3    H1 1461   0.201   2.959   4.361
  506TIP3    H2 1462   0.165   2.830   4.432
  507TIP3   OH2 1463   3.868   0.611   2.799
  507TIP3    H1 1464   3.774   0.630   2.789
  507TIP3    H2 1465   3.870   0.530   2.850
  508TIP3   OH2 1466   0.694   2.311   6.217
  508TIP3    H1 1467   0.681   2.307   6.312
  508TIP3    H2 1468   0.630   2.250   6.181
  509TIP3   OH2 1469   1.629   2.439   3.774
  509TIP3    H1 1470   1.594   2.352   3.757
  509TIP3    H2 1471   1.599   2.461   3.862
  510TIP3   OH2 1472   7.723   1.648   4.423
  510TIP3    H1 1473   7.744   1.655   4.517
  510TIP3    H2 1474   7.659   1.718   4.408
  511TIP3   OH2 1475   6.270   5.523   2.688
  511TIP3    H1 1476   6.253   5.604   2.736
  511TIP3    H2 1477   6.338   5.546   2.625
  512TIP3   OH2 1478   2.593   4.899   0.298
  512TIP3    H1 1479   2.569   4.883   0.389
  512TIP3    H2 1480   2.629   4.988   0.298
  513TIP3   OH2 1481   0.166   5.635   5.721
  513TIP3    H1 1482   0.200   5.676   5.642
  513TIP3    H2 1483   0.074   5.618   5.701
  514TIP3   OH2 1484   3.324   4.436   4.826
  514TIP3    H1 1485   3.418   4.422   4.818
  514TIP3    H2 1486   3.304   4.505   4.762
  515TIP3   OH2 1487   0.218   0.617   3.353
  515TIP3    H1 1488   0.308   0.631   3.381
  515TIP3    H2 1489   0.195   0.530   3.385
  516TIP3   OH2 1490   3.279   6.309   4.230
  516TIP3    H1 1491   3.248   6.258   4.155
  516TIP3    H2 1492   3.374   6.311   4.220
  517TIP3   OH2 1493   4.239   5.662   3.702
  517TIP3    H1 1494   4.233   5.603   3.627
  517TIP3    H2 1495   4.157   5.649   3.750
  518TIP3   OH2 1496   5.524   0.479   5.303
  518TIP3    H1 1497   5.446   0.423   5.301
  518TIP3    H2 1498   5.571   0.453   5.382
  519TIP3   OH2 1499   6.968   3.888   2.208
  519TIP3    H1 1500   6.925   3.857   2.127
  519TIP3    H2 1501   6.904   3.946   2.248
  520TIP3   OH2 1502   1.031   3.386   1.111
  520TIP3    H1 1503   1.054   3.404   1.020
  520TIP3    H2 1504   0.936   3.375   1.109
  521TIP3   OH2 1505   4.345   5.753   6.540
  521TIP3    H1 1506   4.395   5.750   6.621
  521TIP3    H2 1507   4.389   5.691   6.482
  522TIP3   OH2 1508   3.790   5.983   3.985
  522TIP3    H1 1509   3.821   6.019   4.067
  522TIP3    H2 1510   3.847   5.908   3.968
  523TIP3   OH2 1511   1.139   7.786   1.907
  523TIP3    H1 1512   1.218   7.735   1.888
  523TIP3    H2 1513   1.071   7.746   1.854
  524TIP3   OH2 1514   3.469   6.089   1.126
  524TIP3    H1 1515   3.437   6.108   1.215
  524TIP3    H2 1516   3.435   6.001   1.107
  525TIP3   OH2 1517   2.519   0.568   5.644
  525TIP3    H1 1518   2.454   0.561   5.574
  525TIP3    H2 1519   2.582   0.498   5.625
  526TIP3   OH2 1520   7.917   0.531   6.193
  526TIP3    H1 1521   7.906   0.612   6.242
  526TIP3    H2 1522   7.879   0.464   6.250
  527TIP3   OH2 1523   0.623   3.527   2.255
  527TIP3    H1 1524   0.711   3.561   2.272
  527TIP3    H2 1525   0.580   3.596   2.205
  528TIP3   OH2 1526   3.900   3.307   4.563
  528TIP3    H1 1527   3.992   3.316   4.589
  528TIP3    H2 1528   3.900   3.322   4.468
  529TIP3   OH2 1529   2.116   4.885   4.964
  529TIP3    H1 1530   2.113   4.818   5.032
  529TIP3    H2 1531   2.193   4.938   4.986
  530TIP3   OH2 1532   3.411   0.657   4.131
  530TIP3    H1 1533   3.379   0.669   4.042
  530TIP3    H2 1534   3.507   0.659   4.123
  531TIP3   OH2 1535   6.732   2.559   2.104
  531TIP3    H1 1536   6.669   2.536   2.172
  531TIP3    H2 1537   6.813   2.578   2.152
  532TIP3   OH2 1538   6.352   5.257   1.666
  532TIP3    H1 1539   6.355   5.329   1.602
  532TIP3    H2 1540   6.395   5.184   1.622
  533TIP3   OH2 1541   7.459   6.266   5.026
  533TIP3    H1 1542   7.541   6.259   4.976
  533TIP3    H2 1543   7.458   6.187   5.080
  534TIP3   OH2 1544   5.677   2.567   5.750
  534TIP3    H1 1545   5.586   2.564   5.720
  534TIP3    H2 1546   5.720   2.628   5.690
  535TIP3   OH2 1547   7.981   2.318   2.912
  535TIP3    H1 1548   7.922   2.244   2.926
  535TIP3    H2 1549   8.050   2.306   2.976
  536TIP3   OH2 1550   1.046   4.941   5.299
  536TIP3    H1 1551   1.075   4.975   5.383
  536TIP3    H2 1552   0.950   4.943   5.304
  537TIP3   OH2 1553   3.458   5.567   2.598
  537TIP3    H1 1554   3.474   5.592   2.507
  537TIP3    H2 1555   3.538   5.590   2.643
  538TIP3   OH2 1556   1.259   6.650   4.980
  538TIP3    H1 1557   1.345   6.690   4.993
  538TIP3    H2 1558   1.197   6.721   4.993
  539TIP3   OH2 1559   3.791   6.656   0.729
  539TIP3    H1 1560   3.760   6.574   0.766
  539TIP3    H2 1561   3.776   6.721   0.797
  540TIP3   OH2 1562   2.598   2.118   6.700
  540TIP3    H1 1563   2.548   2.051   6.652
  540TIP3    H2 1564   2.666   2.145   6.638
  541TIP3   OH2 1565   7.396   0.175   0.887
  541TIP3    H1 1566   7.481   0.184   0.931
  541TIP3    H2 1567   7.374   0.082   0.896
  542TIP3   OH2 1568   6.819   5.570   5.450
  542TIP3    H1 1569   6.798   5.614   5.368
  542TIP3    H2 1570   6.738   5.574   5.502
  543TIP3   OH2 1571   4.546   2.486   2.336
  543TIP3    H1 1572   4.589   2.524   2.413
  543TIP3    H2 1573   4.514   2.561   2.287
  544TIP3   OH2 1574   6.239   4.907   6.640
  544TIP3    H1 1575   6.151   4.911   6.603
  544TIP3    H2 1576   6.258   4.813   6.645
  545TIP3   OH2 1577   2.565   5.158   0.154
  545TIP3    H1 1578   2.603   5.190   0.072
  545TIP3    H2 1579   2.627   5.187   0.221
  546TIP3   OH2 1580   8.175   1.930   2.886
  546TIP3    H1 1581   8.177   2.020   2.920
  546TIP3    H2 1582   8.237   1.882   2.940
  547TIP3   OH2 1583   0.261   6.079   2.391
  547TIP3    H1 1584   0.290   6.142   2.457
  547TIP3    H2 1585   0.259   5.995   2.437
  548TIP3   OH2 1586   6.493   7.778   1.427
  548TIP3    H1 1587   6.449   7.693   1.423
  548TIP3    H2 1588   6.538   7.777   1.512
  549TIP3   OH2 1589   1.359   4.143   2.322
  549TIP3    H1 1590   1.268   4.139   2.354
  549TIP3    H2 1591   1.350   4.163   2.229
  550TIP3   OH2 1592   5.184   7.026   4.637
  550TIP3    H1 1593   5.199   7.069   4.553
  550TIP3    H2 1594   5.089   7.013   4.642
  551TIP3   OH2 1595   1.791   2.642   2.151
  551TIP3    H1 1596   1.700   2.668   2.167
  551TIP3    H2 1597   1.808   2.669   2.061
  552TIP3   OH2 1598   2.343   6.610   6.578
  552TIP3    H1 1599   2.281   6.681   6.560
  552TIP3    H2 1600   2.371   6.625   6.669
  553TIP3   OH2 1601   4.245   6.026   2.272
  553TIP3    H1 1602   4.178   6.070   2.324
  553TIP3    H2 1603   4.314   6.091   2.261
  554TIP3   OH2 1604   4.238   5.749   0.584
  554TIP3    H1 1605   4.178   5.769   0.512
  554TIP3    H2 1606   4.198   5.790   0.661
  555TIP3   OH2 1607   6.827   1.567   4.162
  555TIP3    H1 1608   6.779   1.491   4.195
  555TIP3    H2 1609   6.909   1.567   4.210
  556TIP3   OH2 1610   6.669   5.679   6.450
  556TIP3    H1 1611   6.607   5.698   6.521
  556TIP3    H2 1612   6.755   5.685   6.492
  557TIP3   OH2 1613   3.860   4.924   6.609
  557TIP3    H1 1614   3.789   4.904   6.669
  557TIP3    H2 1615   3.821   4.983   6.544
  558TIP3   OH2 1616   5.407   2.996   2.735
  558TIP3    H1 1617   5.379   2.920   2.685
  558TIP3    H2 1618   5.339   3.062   2.720
  559TIP3   OH2 1619   3.145   6.886   4.180
  559TIP3    H1 1620   3.229   6.853   4.211
  559TIP3    H2 1621   3.082   6.859   4.247
  560TIP3   OH2 1622   2.367   6.750   3.565
  560TIP3    H1 1623   2.310   6.674   3.578
  560TIP3    H2 1624   2.329   6.795   3.489
  561TIP3   OH2 1625   0.266   0.921   0.649
  561TIP3    H1 1626   0.195   0.866   0.682
  561TIP3    H2 1627   0.321   0.861   0.598
  562TIP3   OH2 1628   1.178   0.089   1.285
  562TIP3    H1 1629   1.089   0.062   1.309
  562TIP3    H2 1630   1.235   0.028   1.333
  563TIP3   OH2 1631   6.710   2.045   6.640
  563TIP3    H1 1632   6.717   2.021   6.548
  563TIP3    H2 1633   6.777   2.112   6.653
  564TIP3   OH2 1634   7.532   5.183   4.142
  564TIP3    H1 1635   7.602   5.121   4.160
  564TIP3    H2 1636   7.564   5.235   4.069
  565TIP3   OH2 1637   5.551   4.628   2.397
  565TIP3    H1 1638   5.577   4.636   2.305
  565TIP3    H2 1639   5.598   4.698   2.442
  566TIP3   OH2 1640   6.953   4.600   0.513
  566TIP3    H1 1641   7.042   4.572   0.534
  566TIP3    H2 1642   6.899   4.562   0.582
  567TIP3   OH2 1643   0.714   1.886   6.131
  567TIP3    H1 1644   0.742   1.924   6.215
  567TIP3    H2 1645   0.786   1.908   6.071
  568TIP3   OH2 1646   2.371   5.458   2.146
  568TIP3    H1 1647   2.334   5.379   2.108
  568TIP3    H2 1648   2.303   5.490   2.205
  569TIP3   OH2 1649   5.932   0.517   0.524
  569TIP3    H1 1650   5.925   0.515   0.620
  569TIP3    H2 1651   5.853   0.472   0.494
  570TIP3   OH2 1652   3.149   6.008   5.697
  570TIP3    H1 1653   3.126   6.066   5.625
  570TIP3    H2 1654   3.139   6.062   5.776
  571TIP3   OH2 1655   0.520   5.774   1.565
  571TIP3    H1 1656   0.526   5.824   1.647
  571TIP3    H2 1657   0.566   5.692   1.584
  572TIP3   OH2 1658   7.540   2.782   3.546
  572TIP3    H1 1659   7.472   2.714   3.543
  572TIP3    H2 1660   7.603   2.756   3.479
  573TIP3   OH2 1661   4.683   0.214   5.863
  573TIP3    H1 1662   4.769   0.174   5.854
  573TIP3    H2 1663   4.623   0.139   5.871
  574TIP3   OH2 1664   1.828   4.871   3.389
  574TIP3    H1 1665   1.879   4.798   3.353
  574TIP3    H2 1666   1.858   4.948   3.340
  575TIP3   OH2 1667   5.560   1.247   6.389
  575TIP3    H1 1668   5.466   1.248   6.368
  575TIP3    H2 1669   5.592   1.166   6.349
  576TIP3   OH2 1670   7.064   0.678   2.371
  576TIP3    H1 1671   6.969   0.681   2.367
  576TIP3    H2 1672   7.085   0.690   2.464
  577TIP3   OH2 1673   7.352   7.544   0.545
  577TIP3    H1 1674   7.379   7.612   0.606
  577TIP3    H2 1675   7.424   7.536   0.483
  578TIP3   OH2 1676   6.771   5.485   4.039
  578TIP3    H1 1677   6.778   5.393   4.014
  578TIP3    H2 1678   6.713   5.484   4.116
  579TIP3   OH2 1679   3.075   2.158   1.214
  579TIP3    H1 1680   3.110   2.094   1.152
  579TIP3    H2 1681   3.020   2.107   1.274
  580TIP3   OH2 1682   2.989   6.771   0.933
  580TIP3    H1 1683   3.007   6.677   0.937
  580TIP3    H2 1684   3.071   6.811   0.905
  581TIP3   OH2 1685   2.967   0.818   5.347
  581TIP3    H1 1686   3.041   0.782   5.298
  581TIP3    H2 1687   3.005   0.888   5.400
  582TIP3   OH2 1688   2.456   2.997   2.246
  582TIP3    H1 1689   2.461   3.013   2.152
  582TIP3    H2 1690   2.365   2.971   2.261
  583TIP3   OH2 1691   5.460   4.788   3.372
  583TIP3    H1 1692   5.424   4.806   3.459
  583TIP3    H2 1693   5.384   4.762   3.320
  584TIP3   OH2 1694   0.870   2.883   3.777
  584TIP3    H1 1695   0.855   2.961   3.830
  584TIP3    H2 1696   0.957   2.895   3.739
  585TIP3   OH2 1697   1.693   4.754   4.596
  585TIP3    H1 1698   1.749   4.742   4.673
  585TIP3    H2 1699   1.753   4.747   4.522
  586TIP3   OH2 1700   2.610   4.970   6.254
  586TIP3    H1 1701   2.663   4.891   6.266
  586TIP3    H2 1702   2.667   5.041   6.281
  587TIP3   OH2 1703   5.520   7.451   0.109
  587TIP3    H1 1704   5.463   7.375   0.122
  587TIP3    H2 1705   5.605   7.424   0.143
  588TIP3   OH2 1706   7.967   4.238   5.676
  588TIP3    H1 1707   8.052   4.254   5.716
  588TIP3    H2 1708   7.940   4.324   5.643
  589TIP3   OH2 1709   3.500   0.063   1.962
  589TIP3    H1 1710   3.447   0.114   2.023
  589TIP3    H2 1711   3.583   0.049   2.008
  590TIP3   OH2 1712   7.116   6.922   0.590
  590TIP3    H1 1713   7.093   6.891   0.502
  590TIP3    H2 1714   7.210   6.937   0.586
  591TIP3   OH2 1715   2.241   5.362   4.168
  591TIP3    H1 1716   2.289   5.377   4.086
  591TIP3    H2 1717   2.187   5.285   4.150
  592TIP3   OH2 1718   1.498   5.814   6.709
  592TIP3    H1 1719   1.514   5.831   6.801
  592TIP3    H2 1720   1.585   5.795   6.672
  593TIP3   OH2 1721   6.171   0.543   4.533
  593TIP3    H1 1722   6.111   0.607   4.572
  593TIP3    H2 1723   6.132   0.458   4.554
  594TIP3   OH2 1724   2.243   2.364   5.675
  594TIP3    H1 1725   2.205   2.287   5.716
  594TIP3    H2 1726   2.298   2.403   5.743
  595TIP3   OH2 1727   2.611   7.339   1.140
  595TIP3    H1 1728   2.609   7.429   1.106
  595TIP3    H2 1729   2.671   7.344   1.215
  596TIP3   OH2 1730   5.624   1.329   5.072
  596TIP3    H1 1731   5.608   1.380   5.152
  596TIP3    H2 1732   5.718   1.312   5.073
  597TIP3   OH2 1733   3.526   7.223   0.699
  597TIP3    H1 1734   3.615   7.258   0.695
  597TIP3    H2 1735   3.478   7.273   0.633
  598TIP3   OH2 1736   4.673   7.623   5.229
  598TIP3    H1 1737   4.616   7.546   5.219
  598TIP3    H2 1738   4.755   7.588   5.262
  599TIP3   OH2 1739   3.899   5.169   6.196
  599TIP3    H1 1740   3.982   5.161   6.149
  599TIP3    H2 1741   3.834   5.181   6.127
  600TIP3   OH2 1742   4.759   5.364   1.429
  600TIP3    H1 1743   4.763   5.322   1.343
  600TIP3    H2 1744   4.835   5.422   1.431
  601TIP3   OH2 1745   4.611   2.762   2.197
  601TIP3    H1 1746   4.641   2.744   2.108
  601TIP3    H2 1747   4.516   2.759   2.191
  602TIP3   OH2 1748   3.136   1.386   6.516
  602TIP3    H1 1749   3.130   1.413   6.424
  602TIP3    H2 1750   3.220   1.420   6.546
  603TIP3   OH2 1751   0.058   7.293   5.761
  603TIP3    H1 1752  -0.029   7.256   5.775
  603TIP3    H2 1753   0.117   7.228   5.800
  604TIP3   OH2 1754   0.851   4.944   3.210
  604TIP3    H1 1755   0.936   4.988   3.209
  604TIP3    H2 1756   0.850   4.890   3.131
  605TIP3   OH2 1757   7.905   6.156   1.699
  605TIP3    H1 1758   7.991   6.155   1.740
  605TIP3    H2 1759   7.921   6.132   1.608
  606TIP3   OH2 1760   1.388   5.867   3.601
  606TIP3    H1 1761   1.436   5.787   3.581
  606TIP3    H2 1762   1.296   5.843   3.595
  607TIP3   OH2 1763   6.192   6.230   3.930
  607TIP3    H1 1764   6.130   6.166   3.964
  607TIP3    H2 1765   6.237   6.263   4.007
  608TIP3   OH2 1766   1.895   0.593   4.510
  608TIP3    H1 1767   1.944   0.511   4.510
  608TIP3    H2 1768   1.960   0.661   4.527
  609TIP3   OH2 1769   7.458   3.197   6.249
  609TIP3    H1 1770   7.439   3.249   6.328
  609TIP3    H2 1771   7.540   3.234   6.216
  610TIP3   OH2 1772   6.766   0.996   5.091
  610TIP3    H1 1773   6.729   0.957   5.012
  610TIP3    H2 1774   6.816   1.071   5.060
  611TIP3   OH2 1775   2.597   0.562   3.067
  611TIP3    H1 1776   2.570   0.494   3.129
  611TIP3    H2 1777   2.618   0.638   3.121
  612TIP3   OH2 1778   3.170   6.308   2.110
  612TIP3    H1 1779   3.229   6.328   2.037
  612TIP3    H2 1780   3.229   6.278   2.180
  613TIP3   OH2 1781   0.260   2.413   4.323
  613TIP3    H1 1782   0.267   2.481   4.256
  613TIP3    H2 1783   0.173   2.376   4.311
  614TIP3   OH2 1784   4.159   2.564   1.445
  614TIP3    H1 1785   4.254   2.555   1.446
  614TIP3    H2 1786   4.127   2.490   1.497
  615TIP3   OH2 1787   1.239   1.860   6.133
  615TIP3    H1 1788   1.210   1.950   6.147
  615TIP3    H2 1789   1.184   1.827   6.062
  616TIP3   OH2 1790   6.390   1.719   4.580
  616TIP3    H1 1791   6.454   1.789   4.595
  616TIP3    H2 1792   6.355   1.737   4.493
  617TIP3   OH2 1793   0.468   0.348   3.500
  617TIP3    H1 1794   0.390   0.370   3.550
  617TIP3    H2 1795   0.533   0.325   3.566
  618TIP3   OH2 1796   5.160   6.385   4.990
  618TIP3    H1 1797   5.231   6.440   4.956
  618TIP3    H2 1798   5.127   6.338   4.914
  619TIP3   OH2 1799   0.114   2.346   0.254
  619TIP3    H1 1800   0.127   2.271   0.196
  619TIP3    H2 1801   0.062   2.407   0.203
  620TIP3   OH2 1802   4.920   6.137   1.574
  620TIP3    H1 1803   5.009   6.124   1.607
  620TIP3    H2 1804   4.930   6.202   1.504
  621TIP3   OH2 1805   3.794   4.275   1.408
  621TIP3    H1 1806   3.777   4.184   1.431
  621TIP3    H2 1807   3.839   4.311   1.484
  622TIP3   OH2 1808   7.225   4.552   4.395
  622TIP3    H1 1809   7.134   4.580   4.398
  622TIP3    H2 1810   7.263   4.583   4.478
  623TIP3   OH2 1811   4.297   0.335   5.628
  623TIP3    H1 1812   4.334   0.360   5.543
  623TIP3    H2 1813   4.307   0.240   5.632
  624TIP3   OH2 1814   5.206   3.930   6.252
  624TIP3    H1 1815   5.274   3.946   6.317
  624TIP3    H2 1816   5.253   3.923   6.169
  625TIP3   OH2 1817   0.104   5.399   1.281
  625TIP3    H1 1818   0.106   5.488   1.246
  625TIP3    H2 1819   0.155   5.348   1.218
  626TIP3   OH2 1820   5.877   2.790   1.989
  626TIP3    H1 1821   5.845   2.758   2.074
  626TIP3    H2 1822   5.909   2.712   1.944
  627TIP3   OH2 1823   2.105   0.269   4.567
  627TIP3    H1 1824   2.146   0.352   4.543
  627TIP3    H2 1825   2.123   0.258   4.660
  628TIP3   OH2 1826   2.224   4.785   6.272
  628TIP3    H1 1827   2.155   4.723   6.247
  628TIP3    H2 1828   2.305   4.744   6.241
  629TIP3   OH2 1829   2.424   6.626   5.719
  629TIP3    H1 1830   2.519   6.617   5.724
  629TIP3    H2 1831   2.394   6.607   5.808
  630TIP3   OH2 1832   3.638   3.102   6.019
  630TIP3    H1 1833   3.592   3.123   5.938
  630TIP3    H2 1834   3.576   3.049   6.069
  631TIP3   OH2 1835   5.142   5.318   0.828
  631TIP3    H1 1836   5.198   5.367   0.888
  631TIP3    H2 1837   5.190   5.236   0.813
  632TIP3   OH2 1838   5.702   4.473   4.514
  632TIP3    H1 1839   5.702   4.454   4.420
  632TIP3    H2 1840   5.648   4.551   4.523
  633TIP3   OH2 1841   1.224   6.375   6.004
  633TIP3    H1 1842   1.131   6.397   6.014
  633TIP3    H2 1843   1.252   6.349   6.091
  634TIP3   OH2 1844   2.678   4.113   2.348
  634TIP3    H1 1845   2.736   4.040   2.326
  634TIP3    H2 1846   2.638   4.089   2.431
  635TIP3   OH2 1847   2.044   1.388   1.612
  635TIP3    H1 1848   1.981   1.413   1.545
  635TIP3    H2 1849   2.058   1.294   1.598
  636TIP3   OH2 1850   0.828   3.248   5.414
  636TIP3    H1 1851   0.817   3.154   5.426
  636TIP3    H2 1852   0.790   3.288   5.492
  637TIP3   OH2 1853   6.307   0.118   1.750
  637TIP3    H1 1854   6.301   0.025   1.775
  637TIP3    H2 1855   6.339   0.116   1.660
  638TIP3   OH2 1856   2.002   2.739   3.796
  638TIP3    H1 1857   1.962   2.652   3.792
  638TIP3    H2 1858   1.939   2.796   3.754
  639TIP3   OH2 1859   1.272   4.915   6.478
  639TIP3    H1 1860   1.222   4.945   6.403
  639TIP3    H2 1861   1.339   4.982   6.491
  640TIP3   OH2 1862   4.873   0.785   0.613
  640TIP3    H1 1863   4.954   0.836   0.606
  640TIP3    H2 1864   4.893   0.702   0.569
  641TIP3   OH2 1865   5.350   7.681   3.345
  641TIP3    H1 1866   5.264   7.641   3.335
  641TIP3    H2 1867   5.345   7.729   3.428
  642TIP3   OH2 1868   5.680   0.698   5.231
  642TIP3    H1 1869   5.610   0.758   5.205
  642TIP3    H2 1870   5.634   0.619   5.261
  643TIP3   OH2 1871   8.146   5.041   4.930
  643TIP3    H1 1872   8.222   4.989   4.904
  643TIP3    H2 1873   8.071   4.993   4.895
  644TIP3   OH2 1874   1.945   0.925   2.332
  644TIP3    H1 1875   1.984   0.951   2.249
  644TIP3    H2 1876   2.016   0.885   2.381
  645TIP3   OH2 1877   0.092   1.011   2.710
  645TIP3    H1 1878   0.113   1.068   2.636
  645TIP3    H2 1879   0.050   0.934   2.670
  646TIP3   OH2 1880   5.175   6.443   0.457
  646TIP3    H1 1881   5.187   6.511   0.523
  646TIP3    H2 1882   5.221   6.476   0.380
  647TIP3   OH2 1883   4.737   1.009   2.944
  647TIP3    H1 1884   4.666   1.064   2.977
  647TIP3    H2 1885   4.699   0.922   2.938
  648TIP3   OH2 1886   2.455   4.005   0.335
  648TIP3    H1 1887   2.446   3.976   0.244
  648TIP3    H2 1888   2.392   4.076   0.344
  649TIP3   OH2 1889   7.517   4.576   1.874
  649TIP3    H1 1890   7.447   4.611   1.929
  649TIP3    H2 1891   7.500   4.613   1.787
  650TIP3   OH2 1892   3.573   6.895   1.709
  650TIP3    H1 1893   3.492   6.938   1.681
  650TIP3    H2 1894   3.631   6.903   1.634
  651TIP3   OH2 1895   0.075   1.097   4.996
  651TIP3    H1 1896   0.093   1.042   4.920
  651TIP3    H2 1897   0.157   1.096   5.046
  652TIP3   OH2 1898   6.415   0.442   5.090
  652TIP3    H1 1899   6.497   0.488   5.108
  652TIP3    H2 1900   6.392   0.401   5.173
  653TIP3   OH2 1901   2.615   4.162   1.500
  653TIP3    H1 1902   2.674   4.228   1.465
  653TIP3    H2 1903   2.529   4.204   1.500
  654TIP3   OH2 1904   5.109   0.280   6.132
  654TIP3    H1 1905   5.047   0.236   6.191
  654TIP3    H2 1906   5.167   0.210   6.102
  655TIP3   OH2 1907   7.011   7.155   6.066
  655TIP3    H1 1908   7.083   7.155   6.003
  655TIP3    H2 1909   6.992   7.247   6.081
  656TIP3   OH2 1910   1.996   4.694   6.546
  656TIP3    H1 1911   1.981   4.704   6.640
  656TIP3    H2 1912   2.074   4.747   6.529
  657TIP3   OH2 1913   1.135   7.694   0.198
  657TIP3    H1 1914   1.042   7.711   0.187
  657TIP3    H2 1915   1.163   7.660   0.113
  658TIP3   OH2 1916   3.284   7.554   4.285
  658TIP3    H1 1917   3.207   7.507   4.253
  658TIP3    H2 1918   3.256   7.645   4.292
  659TIP3   OH2 1919   0.181   4.810   3.884
  659TIP3    H1 1920   0.148   4.752   3.815
  659TIP3    H2 1921   0.157   4.766   3.965
  660TIP3   OH2 1922   0.825   5.925   6.218
  660TIP3    H1 1923   0.914   5.933   6.253
  660TIP3    H2 1924   0.807   5.831   6.220
  661TIP3   OH2 1925   7.817   2.165   0.458
  661TIP3    H1 1926   7.773   2.105   0.398
  661TIP3    H2 1927   7.831   2.114   0.538
  662TIP3   OH2 1928   4.723   3.690   6.556
  662TIP3    H1 1929   4.676   3.631   6.614
  662TIP3    H2 1930   4.764   3.633   6.491
  663TIP3   OH2 1931   6.644   3.068   5.639
  663TIP3    H1 1932   6.612   2.979   5.624
  663TIP3    H2 1933   6.572   3.125   5.610
  664TIP3   OH2 1934   1.420   7.470   2.193
  664TIP3    H1 1935   1.332   7.447   2.224
  664TIP3    H2 1936   1.471   7.390   2.203
  665TIP3   OH2 1937   5.784   0.325   5.866
  665TIP3    H1 1938   5.852   0.341   5.800
  665TIP3    H2 1939   5.798   0.395   5.930
  666TIP3   OH2 1940   7.972   3.327   4.968
  666TIP3    H1 1941   7.980   3.277   4.887
  666TIP3    H2 1942   8.044   3.295   5.022
  667TIP3   OH2 1943   5.962   3.784   1.252
  667TIP3    H1 1944   5.873   3.808   1.279
  667TIP3    H2 1945   5.997   3.734   1.325
  668TIP3   OH2 1946   2.475   7.134   3.980
  668TIP3    H1 1947   2.397   7.163   3.932
  668TIP3    H2 1948   2.442   7.069   4.042
  669TIP3   OH2 1949   6.401   2.161   3.287
  669TIP3    H1 1950   6.484   2.114   3.295
  669TIP3    H2 1951   6.422   2.251   3.313
  670TIP3   OH2 1952   5.761   2.738   2.256
  670TIP3    H1 1953   5.682   2.697   2.221
  670TIP3    H2 1954   5.802   2.669   2.309
  671TIP3   OH2 1955   6.525   0.209   6.818
  671TIP3    H1 1956   6.604   0.156   6.805
  671TIP3    H2 1957   6.466   0.151   6.866
  672TIP3   OH2 1958   0.931   1.823   1.936
  672TIP3    H1 1959   0.953   1.856   1.849
  672TIP3    H2 1960   0.835   1.825   1.938
  673TIP3   OH2 1961   0.016   0.879   0.471
  673TIP3    H1 1962   0.016   0.863   0.565
  673TIP3    H2 1963   0.093   0.831   0.439
  674TIP3   OH2 1964   2.193   2.395   1.121
  674TIP3    H1 1965   2.207   2.488   1.103
  674TIP3    H2 1966   2.230   2.381   1.208
  675TIP3   OH2 1967   0.968   4.720   5.554
  675TIP3    H1 1968   0.909   4.649   5.581
  675TIP3    H2 1969   0.912   4.797   5.548
  676TIP3   OH2 1970   6.651   0.229   5.730
  676TIP3    H1 1971   6.651   0.153   5.671
  676TIP3    H2 1972   6.707   0.293   5.685
  677TIP3   OH2 1973   0.200   0.659   0.058
  677TIP3    H1 1974   0.109   0.654   0.087
  677TIP3    H2 1975   0.221   0.570   0.029
  678TIP3   OH2 1976   0.523   1.547   2.973
  678TIP3    H1 1977   0.450   1.539   3.034
  678TIP3    H2 1978   0.596   1.503   3.018
  679TIP3   OH2 1979   5.761   0.727   6.509
  679TIP3    H1 1980   5.690   0.768   6.559
  679TIP3    H2 1981   5.751   0.763   6.421
  680TIP3   OH2 1982   4.666   0.757   0.379
  680TIP3    H1 1983   4.604   0.740   0.308
  680TIP3    H2 1984   4.696   0.847   0.364
  681TIP3   OH2 1985   3.242   7.733   2.493
  681TIP3    H1 1986   3.297   7.788   2.437
  681TIP3    H2 1987   3.173   7.793   2.523
  682TIP3   OH2 1988   2.932   6.341   2.422
  682TIP3    H1 1989   2.965   6.257   2.455
  682TIP3    H2 1990   2.845   6.349   2.460
  683TIP3   OH2 1991   7.949   2.558   0.857
  683TIP3    H1 1992   7.960   2.505   0.778
  683TIP3    H2 1993   8.014   2.629   0.847
  684TIP3   OH2 1994   2.674   0.833   0.050
  684TIP3    H1 1995   2.610   0.762   0.046
  684TIP3    H2 1996   2.755   0.795   0.015
  685TIP3   OH2 1997   1.871   5.421   2.533
  685TIP3    H1 1998   1.913   5.443   2.450
  685TIP3    H2 1999   1.925   5.464   2.600
  686TIP3   OH2 2000   6.187   1.416   0.164
  686TIP3    H1 2001   6.105   1.367   0.158
  686TIP3    H2 2002   6.206   1.419   0.258
  687TIP3   OH2 2003   7.920   4.619   1.231
  687TIP3    H1 2004   7.872   4.536   1.236
  687TIP3    H2 2005   7.878   4.666   1.159
  688TIP3   OH2 2006   0.168   1.750   3.611
  688TIP3    H1 2007   0.260   1.738   3.589
  688TIP3    H2 2008   0.151   1.689   3.682
  689TIP3   OH2 2009   6.353   0.989   3.672
  689TIP3    H1 2010   6.374   0.919   3.610
  689TIP3    H2 2011   6.429   0.993   3.730
  690TIP3   OH2 2012   1.294   1.188   6.323
  690TIP3    H1 2013   1.374   1.203   6.373
  690TIP3    H2 2014   1.296   1.253   6.253
  691TIP3   OH2 2015   7.813   7.613   3.236
  691TIP3    H1 2016   7.882   7.678   3.225
  691TIP3    H2 2017   7.732   7.660   3.214
  692TIP3   OH2 2018   7.578   5.934   0.133
  692TIP3    H1 2019   7.611   5.998   0.197
  692TIP3    H2 2020   7.579   5.851   0.180
  693TIP3   OH2 2021   6.921   3.817   5.843
  693TIP3    H1 2022   6.910   3.912   5.843
  693TIP3    H2 2023   6.847   3.784   5.793
  694TIP3   OH2 2024   6.847   7.386   6.361
  694TIP3    H1 2025   6.941   7.376   6.380
  694TIP3    H2 2026   6.804   7.329   6.424
  695TIP3   OH2 2027   6.446   0.722   5.577
  695TIP3    H1 2028   6.517   0.761   5.627
  695TIP3    H2 2029   6.484   0.640   5.542
  696TIP3   OH2 2030   3.441   3.090   5.816
  696TIP3    H1 2031   3.409   3.178   5.793
  696TIP3    H2 2032   3.365   3.033   5.804
  697TIP3   OH2 2033   6.858   5.808   4.077
  697TIP3    H1 2034   6.809   5.739   4.032
  697TIP3    H2 2035   6.872   5.875   4.010
  698TIP3   OH2 2036   2.727   4.430   3.201
  698TIP3    H1 2037   2.720   4.336   3.212
  698TIP3    H2 2038   2.649   4.454   3.151
  699TIP3   OH2 2039   6.225   4.682   1.983
  699TIP3    H1 2040   6.230   4.777   1.973
  699TIP3    H2 2041   6.271   4.648   1.905
  700TIP3   OH2 2042   4.149   0.411   2.628
  700TIP3    H1 2043   4.177   0.502   2.618
  700TIP3    H2 2044   4.056   0.417   2.648
  701TIP3   OH2 2045   0.366   3.836   5.238
  701TIP3    H1 2046   0.388   3.929   5.244
  701TIP3    H2 2047   0.450   3.793   5.222
  702TIP3   OH2 2048   7.656   5.747   6.718
  702TIP3    H1 2049   7.652   5.842   6.717
  702TIP3    H2 2050   7.592   5.720   6.784
  703TIP3   OH2 2051   0.767   1.164   0.354
  703TIP3    H1 2052   0.795   1.225   0.286
  703TIP3    H2 2053   0.731   1.090   0.307
  704TIP3   OH2 2054   3.980   2.484   5.455
  704TIP3    H1 2055   3.961   2.512   5.365
  704TIP3    H2 2056   3.927   2.405   5.467
  705TIP3   OH2 2057   2.720   6.962   4.465
  705TIP3    H1 2058   2.713   6.868   4.479
  705TIP3    H2 2059   2.635   6.987   4.427
  706TIP3   OH2 2060   3.607   4.799   1.060
  706TIP3    H1 2061   3.657   4.881   1.053
  706TIP3    H2 2062   3.670   4.730   1.039
  707TIP3   OH2 2063   6.643   4.493   0.428
  707TIP3    H1 2064   6.561   4.453   0.458
  707TIP3    H2 2065   6.696   4.502   0.507
  708TIP3   OH2 2066   1.761   4.556   4.798
  708TIP3    H1 2067   1.768   4.562   4.893
  708TIP3    H2 2068   1.667   4.558   4.780
  709TIP3   OH2 2069   0.018   5.684   4.796
  709TIP3    H1 2070   0.027   5.663   4.889
  709TIP3    H2 2071  -0.021   5.606   4.758
  710TIP3   OH2 2072   7.425   3.429   0.386
  710TIP3    H1 2073   7.404   3.523   0.389
  710TIP3    H2 2074   7.520   3.426   0.398
  711TIP3   OH2 2075   6.413   3.669   6.120
  711TIP3    H1 2076   6.394   3.742   6.180
  711TIP3    H2 2077   6.482   3.702   6.063
  712TIP3   OH2 2078   6.146   2.850   4.382
  712TIP3    H1 2079   6.227   2.849   4.433
  712TIP3    H2 2080   6.092   2.916   4.424
  713TIP3   OH2 2081   4.763   7.782   2.391
  713TIP3    H1 2082   4.746   7.789   2.484
  713TIP3    H2 2083   4.697   7.720   2.359
  714TIP3   OH2 2084   6.807   1.035   2.917
  714TIP3    H1 2085   6.812   1.116   2.866
  714TIP3    H2 2086   6.713   1.024   2.934
  715TIP3   OH2 2087   4.549   4.458   0.532
  715TIP3    H1 2088   4.530   4.453   0.439
  715TIP3    H2 2089   4.536   4.368   0.564
  716TIP3   OH2 2090   4.302   1.945   0.174
  716TIP3    H1 2091   4.251   1.984   0.103
  716TIP3    H2 2092   4.302   1.852   0.155
  717TIP3   OH2 2093   1.502   0.088   0.355
  717TIP3    H1 2094   1.585   0.043   0.370
  717TIP3    H2 2095   1.462   0.094   0.442
  718TIP3   OH2 2096   2.408   0.227   6.603
  718TIP3    H1 2097   2.401   0.303   6.546
  718TIP3    H2 2098   2.319   0.213   6.636
  719TIP3   OH2 2099   4.238   7.482   5.744
  719TIP3    H1 2100   4.194   7.550   5.694
  719TIP3    H2 2101   4.168   7.424   5.773
  720TIP3   OH2 2102   3.978   2.963   2.705
  720TIP3    H1 2103   3.922   3.026   2.659
  720TIP3    H2 2104   3.989   3.001   2.793
  721TIP3   OH2 2105   0.356   7.494   2.726
  721TIP3    H1 2106   0.352   7.398   2.724
  721TIP3    H2 2107   0.292   7.519   2.793
  722TIP3   OH2 2108   4.662   2.777   4.471
  722TIP3    H1 2109   4.598   2.718   4.510
  722TIP3    H2 2110   4.696   2.729   4.395
  723TIP3   OH2 2111   2.298   0.979   2.314
  723TIP3    H1 2112   2.358   1.037   2.362
  723TIP3    H2 2113   2.271   0.914   2.379
  724TIP3   OH2 2114   6.381   7.650   1.068
  724TIP3    H1 2115   6.331   7.709   1.124
  724TIP3    H2 2116   6.394   7.699   0.986
  725TIP3   OH2 2117   6.696   5.619   5.179
  725TIP3    H1 2118   6.645   5.540   5.195
  725TIP3    H2 2119   6.647   5.666   5.111
  726TIP3   OH2 2120   2.935   3.125   5.143
  726TIP3    H1 2121   2.958   3.097   5.232
  726TIP3    H2 2122   2.960   3.052   5.087
  727TIP3   OH2 2123   4.013   2.805   0.887
  727TIP3    H1 2124   3.928   2.795   0.929
  727TIP3    H2 2125   4.034   2.717   0.854
  728TIP3   OH2 2126   4.812   5.999   2.906
  728TIP3    H1 2127   4.869   5.942   2.957
  728TIP3    H2 2128   4.733   6.008   2.959
  729TIP3   OH2 2129   3.271   5.104   1.133
  729TIP3    H1 2130   3.337   5.052   1.088
  729TIP3    H2 2131   3.254   5.057   1.215
  730TIP3   OH2 2132   1.242   3.995   3.473
  730TIP3    H1 2133   1.243   3.990   3.569
  730TIP3    H2 2134   1.313   3.937   3.446
  731TIP3   OH2 2135   0.682   2.243   6.499
  731TIP3    H1 2136   0.741   2.169   6.518
  731TIP3    H2 2137   0.597   2.202   6.485
  732TIP3   OH2 2138   6.982   7.625   4.233
  732TIP3    H1 2139   7.009   7.552   4.288
  732TIP3    H2 2140   6.913   7.590   4.177
  733TIP3   OH2 2141   8.311   7.696   4.843
  733TIP3    H1 2142   8.226   7.734   4.867
  733TIP3    H2 2143   8.289   7.625   4.782
  734TIP3   OH2 2144   7.600   1.599   0.164
  734TIP3    H1 2145   7.690   1.632   0.168
  734TIP3    H2 2146   7.604   1.525   0.103
  735TIP3   OH2 2147   4.002   1.964   5.482
  735TIP3    H1 2148   4.003   1.961   5.578
  735TIP3    H2 2149   4.094   1.952   5.457
  736TIP3   OH2 2150   3.861   5.489   5.235
  736TIP3    H1 2151   3.813   5.475   5.316
  736TIP3    H2 2152   3.849   5.582   5.216
  737TIP3   OH2 2153   7.838   1.674   1.085
  737TIP3    H1 2154   7.819   1.609   1.017
  737TIP3    H2 2155   7.812   1.630   1.167
  738TIP3   OH2 2156   1.391   0.966   5.799
  738TIP3    H1 2157   1.460   0.901   5.814
  738TIP3    H2 2158   1.403   1.029   5.871
  739TIP3   OH2 2159   1.921   3.422   1.055
  739TIP3    H1 2160   1.858   3.408   1.125
  739TIP3    H2 2161   1.867   3.427   0.975
  740TIP3   OH2 2162   5.944   6.643   0.296
  740TIP3    H1 2163   5.951   6.641   0.391
  740TIP3    H2 2164   6.034   6.642   0.265
  741TIP3   OH2 2165   6.501   3.663   0.938
  741TIP3    H1 2166   6.531   3.634   0.852
  741TIP3    H2 2167   6.576   3.646   0.996
  742TIP3   OH2 2168   3.172   6.364   5.071
  742TIP3    H1 2169   3.153   6.365   5.164
  742TIP3    H2 2170   3.217   6.281   5.056
  743TIP3   OH2 2171   3.450   7.061   5.286
  743TIP3    H1 2172   3.476   6.987   5.341
  743TIP3    H2 2173   3.390   7.024   5.222
  744TIP3   OH2 2174   4.548   3.680   2.737
  744TIP3    H1 2175   4.598   3.762   2.735
  744TIP3    H2 2176   4.599   3.619   2.685
  745TIP3   OH2 2177   4.087   5.333   0.477
  745TIP3    H1 2178   4.103   5.240   0.461
  745TIP3    H2 2179   4.174   5.371   0.487
  746TIP3   OH2 2180   4.788   5.205   6.190
  746TIP3    H1 2181   4.846   5.192   6.265
  746TIP3    H2 2182   4.780   5.300   6.182
  747TIP3   OH2 2183   2.055   0.680   1.234
  747TIP3    H1 2184   2.020   0.663   1.321
  747TIP3    H2 2185   1.987   0.732   1.190
  748TIP3   OH2 2186   4.516   1.218   6.315
  748TIP3    H1 2187   4.538   1.295   6.263
  748TIP3    H2 2188   4.500   1.149   6.250
  749TIP3   OH2 2189   1.890   3.356   6.424
  749TIP3    H1 2190   1.980   3.387   6.424
  749TIP3    H2 2191   1.846   3.411   6.489
  750TIP3   OH2 2192   3.256   5.241   4.261
  750TIP3    H1 2193   3.333   5.185   4.252
  750TIP3    H2 2194   3.292   5.329   4.272
  751TIP3   OH2 2195   2.558   1.930   0.009
  751TIP3    H1 2196   2.614   1.932   0.086
  751TIP3    H2 2197   2.609   1.975  -0.059
  752TIP3   OH2 2198   5.799   1.472   5.275
  752TIP3    H1 2199   5.712   1.447   5.307
  752TIP3    H2 2200   5.859   1.442   5.344
  753TIP3   OH2 2201   6.968   4.903   1.432
  753TIP3    H1 2202   6.887   4.952   1.414
  753TIP3    H2 2203   6.965   4.885   1.525
  754TIP3   OH2 2204   5.120   1.825   6.124
  754TIP3    H1 2205   5.033   1.822   6.083
  754TIP3    H2 2206   5.104   1.798   6.214
  755TIP3   OH2 2207   8.265   1.697   5.266
  755TIP3    H1 2208   8.343   1.752   5.254
  755TIP3    H2 2209   8.225   1.694   5.180
  756TIP3   OH2 2210   2.402   2.292   4.464
  756TIP3    H1 2211   2.326   2.304   4.522
  756TIP3    H2 2212   2.418   2.197   4.465
  757TIP3   OH2 2213   5.944   3.084   3.419
  757TIP3    H1 2214   5.861   3.106   3.461
  757TIP3    H2 2215   5.922   3.071   3.327
  758TIP3   OH2 2216   5.161   4.077   4.754
  758TIP3    H1 2217   5.119   3.993   4.775
  758TIP3    H2 2218   5.184   4.070   4.662
  759TIP3   OH2 2219   3.369   1.951   0.622
  759TIP3    H1 2220   3.388   1.976   0.532
  759TIP3    H2 2221   3.345   2.033   0.666
  760TIP3   OH2 2222   7.785   3.513   2.776
  760TIP3    H1 2223   7.854   3.579   2.761
  760TIP3    H2 2224   7.801   3.447   2.708
  761TIP3   OH2 2225   4.923   3.037   3.554
  761TIP3    H1 2226   4.829   3.052   3.563
  761TIP3    H2 2227   4.958   3.054   3.641
  762TIP3   OH2 2228   2.827   5.188   6.403
  762TIP3    H1 2229   2.750   5.202   6.457
  762TIP3    H2 2230   2.861   5.103   6.430
  763TIP3   OH2 2231   6.185   6.358   2.364
  763TIP3    H1 2232   6.127   6.302   2.415
  763TIP3    H2 2233   6.220   6.301   2.295
  764TIP3   OH2 2234   2.102   7.093   2.258
  764TIP3    H1 2235   2.025   7.134   2.296
  764TIP3    H2 2236   2.077   7.001   2.245
  765TIP3   OH2 2237   6.391   0.634   2.107
  765TIP3    H1 2238   6.366   0.653   2.016
  765TIP3    H2 2239   6.480   0.601   2.100
  766TIP3   OH2 2240   2.293   5.149   5.558
  766TIP3    H1 2241   2.253   5.159   5.644
  766TIP3    H2 2242   2.370   5.093   5.573
  767TIP3   OH2 2243   1.073   7.239   2.142
  767TIP3    H1 2244   1.093   7.155   2.182
  767TIP3    H2 2245   1.003   7.221   2.080
  768TIP3   OH2 2246   0.022   7.093   2.070
  768TIP3    H1 2247   0.075   7.168   2.097
  768TIP3    H2 2248   0.083   7.034   2.028
  769TIP3   OH2 2249   3.902   5.283   4.857
  769TIP3    H1 2250   3.851   5.236   4.791
  769TIP3    H2 2251   3.844   5.353   4.887
  770TIP3   OH2 2252   4.938   2.728   4.533
  770TIP3    H1 2253   4.986   2.713   4.614
  770TIP3    H2 2254   4.849   2.750   4.561
  771TIP3   OH2 2255   1.236   7.127   0.480
  771TIP3    H1 2256   1.317   7.078   0.469
  771TIP3    H2 2257   1.218   7.122   0.574
  772TIP3   OH2 2258   4.364   0.690   1.717
  772TIP3    H1 2259   4.319   0.613   1.751
  772TIP3    H2 2260   4.399   0.733   1.794
  773TIP3   OH2 2261   1.349   5.632   6.531
  773TIP3    H1 2262   1.380   5.679   6.608
  773TIP3    H2 2263   1.410   5.657   6.461
  774TIP3   OH2 2264   4.787   1.845   1.151
  774TIP3    H1 2265   4.792   1.872   1.242
  774TIP3    H2 2266   4.696   1.819   1.138
  775TIP3   OH2 2267   5.735   7.664   3.588
  775TIP3    H1 2268   5.743   7.743   3.535
  775TIP3    H2 2269   5.756   7.692   3.677
  776TIP3   OH2 2270   2.378   7.049   6.371
  776TIP3    H1 2271   2.439   7.076   6.440
  776TIP3    H2 2272   2.309   7.115   6.373
  777TIP3   OH2 2273   2.313   6.158   4.759
  777TIP3    H1 2274   2.365   6.098   4.705
  777TIP3    H2 2275   2.265   6.211   4.695
  778TIP3   OH2 2276   0.718   4.117   1.815
  778TIP3    H1 2277   0.732   4.182   1.883
  778TIP3    H2 2278   0.779   4.141   1.745
  779TIP3   OH2 2279   0.259   1.554   1.698
  779TIP3    H1 2280   0.242   1.465   1.669
  779TIP3    H2 2281   0.217   1.609   1.632
  780TIP3   OH2 2282   0.330   2.578   4.122
  780TIP3    H1 2283   0.418   2.607   4.099
  780TIP3    H2 2284   0.272   2.625   4.062
  781TIP3   OH2 2285   3.677   0.771   2.492
  781TIP3    H1 2286   3.636   0.722   2.420
  781TIP3    H2 2287   3.606   0.822   2.529
  782TIP3   OH2 2288   2.986   6.162   1.533
  782TIP3    H1 2289   2.969   6.092   1.469
  782TIP3    H2 2290   2.919   6.228   1.514
  783TIP3   OH2 2291   0.105   6.439   1.434
  783TIP3    H1 2292   0.039   6.448   1.502
  783TIP3    H2 2293   0.082   6.505   1.369
  784TIP3   OH2 2294   3.362   6.262   6.754
  784TIP3    H1 2295   3.332   6.335   6.699
  784TIP3    H2 2296   3.456   6.275   6.762
  785TIP3   OH2 2297   2.466   5.886   2.412
  785TIP3    H1 2298   2.402   5.938   2.362
  785TIP3    H2 2299   2.442   5.899   2.503
  786TIP3   OH2 2300   1.553   7.296   1.313
  786TIP3    H1 2301   1.518   7.385   1.308
  786TIP3    H2 2302   1.641   7.303   1.275
  787TIP3   OH2 2303   0.585   3.992   4.120
  787TIP3    H1 2304   0.526   3.917   4.124
  787TIP3    H2 2305   0.550   4.046   4.049
  788TIP3   OH2 2306   3.016   7.591   4.955
  788TIP3    H1 2307   2.986   7.564   5.041
  788TIP3    H2 2308   3.065   7.672   4.972
  789TIP3   OH2 2309   8.300   1.790   0.189
  789TIP3    H1 2310   8.298   1.854   0.261
  789TIP3    H2 2311   8.233   1.726   0.214
  790TIP3   OH2 2312   5.399   6.777   2.542
  790TIP3    H1 2313   5.422   6.768   2.450
  790TIP3    H2 2314   5.473   6.739   2.589
  791TIP3   OH2 2315   7.576   7.174   1.120
  791TIP3    H1 2316   7.491   7.134   1.101
  791TIP3    H2 2317   7.565   7.266   1.095
  792TIP3   OH2 2318   8.020   1.504   2.077
  792TIP3    H1 2319   8.082   1.434   2.098
  792TIP3    H2 2320   8.042   1.574   2.139
  793TIP3   OH2 2321   7.292   4.810   5.586
  793TIP3    H1 2322   7.382   4.842   5.581
  793TIP3    H2 2323   7.298   4.728   5.636
  794TIP3   OH2 2324   1.912   3.573   4.610
  794TIP3    H1 2325   1.979   3.505   4.623
  794TIP3    H2 2326   1.832   3.533   4.644
  795TIP3   OH2 2327   5.269   1.250   6.544
  795TIP3    H1 2328   5.281   1.156   6.532
  795TIP3    H2 2329   5.291   1.265   6.636
  796TIP3   OH2 2330   5.337   2.502   1.493
  796TIP3    H1 2331   5.328   2.590   1.457
  796TIP3    H2 2332   5.384   2.453   1.425
  797TIP3   OH2 2333   7.049   6.485   2.443
  797TIP3    H1 2334   6.978   6.503   2.505
  797TIP3    H2 2335   7.033   6.546   2.371
  798TIP3   OH2 2336   1.153   1.306   2.455
  798TIP3    H1 2337   1.077   1.307   2.513
  798TIP3    H2 2338   1.159   1.396   2.423
  799TIP3   OH2 2339   4.652   5.203   5.799
  799TIP3    H1 2340   4.659   5.139   5.727
  799TIP3    H2 2341   4.663   5.151   5.878
  800TIP3   OH2 2342   2.719   6.198   5.417
  800TIP3    H1 2343   2.746   6.121   5.466
  800TIP3    H2 2344   2.724   6.171   5.325
  801TIP3   OH2 2345   1.924   2.990   2.494
  801TIP3    H1 2346   1.862   2.993   2.566
  801TIP3    H2 2347   1.994   3.051   2.519
  802TIP3   OH2 2348   3.441   4.657   2.960
  802TIP3    H1 2349   3.499   4.613   2.899
  802TIP3    H2 2350   3.353   4.637   2.929
  803TIP3   OH2 2351   3.328   6.842   1.874
  803TIP3    H1 2352   3.417   6.871   1.890
  803TIP3    H2 2353   3.337   6.748   1.855
  804TIP3   OH2 2354   3.652   1.148   3.986
  804TIP3    H1 2355   3.652   1.165   4.080
  804TIP3    H2 2356   3.661   1.234   3.945
  805TIP3   OH2 2357   5.627   1.427   1.732
  805TIP3    H1 2358   5.612   1.514   1.768
  805TIP3    H2 2359   5.561   1.372   1.776
  806TIP3   OH2 2360   1.150   0.137   0.231
  806TIP3    H1 2361   1.202   0.116   0.153
  806TIP3    H2 2362   1.127   0.052   0.268
  807TIP3   OH2 2363   4.288   5.637   5.521
  807TIP3    H1 2364   4.194   5.635   5.536
  807TIP3    H2 2365   4.311   5.546   5.499
  808TIP3   OH2 2366   7.176   0.213   2.212
  808TIP3    H1 2367   7.145   0.303   2.198
  808TIP3    H2 2368   7.209   0.185   2.127
  809TIP3   OH2 2369   2.988   1.011   3.008
  809TIP3    H1 2370   2.933   1.018   3.086
  809TIP3    H2 2371   3.039   0.931   3.021
  810TIP3   OH2 2372   4.647   4.611   4.752
  810TIP3    H1 2373   4.626   4.517   4.745
  810TIP3    H2 2374   4.562   4.654   4.749
  811TIP3   OH2 2375   3.848   1.985   0.874
  811TIP3    H1 2376   3.808   2.061   0.915
  811TIP3    H2 2377   3.786   1.914   0.889
  812TIP3   OH2 2378   7.654   6.406   2.988
  812TIP3    H1 2379   7.650   6.310   2.983
  812TIP3    H2 2380   7.626   6.436   2.902
  813TIP3   OH2 2381   5.196   2.999   1.430
  813TIP3    H1 2382   5.223   3.074   1.377
  813TIP3    H2 2383   5.251   2.927   1.399
  814TIP3   OH2 2384   8.080   3.016   3.946
  814TIP3    H1 2385   8.101   3.080   4.014
  814TIP3    H2 2386   8.143   2.946   3.958
  815TIP3   OH2 2387   1.726   7.159   1.519
  815TIP3    H1 2388   1.685   7.244   1.535
  815TIP3    H2 2389   1.815   7.169   1.553
  816TIP3   OH2 2390   1.318   1.692   3.002
  816TIP3    H1 2391   1.385   1.686   2.934
  816TIP3    H2 2392   1.328   1.610   3.051
  817TIP3   OH2 2393   6.175   6.708   2.743
  817TIP3    H1 2394   6.096   6.654   2.739
  817TIP3    H2 2395   6.192   6.719   2.837
  818TIP3   OH2 2396   6.215   2.863   1.860
  818TIP3    H1 2397   6.210   2.928   1.929
  818TIP3    H2 2398   6.277   2.798   1.893
  819TIP3   OH2 2399   4.877   1.054   3.201
  819TIP3    H1 2400   4.833   1.095   3.126
  819TIP3    H2 2401   4.833   1.091   3.278
  820TIP3   OH2 2402   6.331   1.534   4.083
  820TIP3    H1 2403   6.249   1.485   4.083
  820TIP3    H2 2404   6.305   1.623   4.059
  821TIP3   OH2 2405   7.664   2.123   3.961
  821TIP3    H1 2406   7.700   2.169   3.885
  821TIP3    H2 2407   7.587   2.078   3.927
  822TIP3   OH2 2408   7.769   1.354   3.124
  822TIP3    H1 2409   7.853   1.352   3.169
  822TIP3    H2 2410   7.790   1.341   3.032
  823TIP3   OH2 2411   5.952   4.521   2.400
  823TIP3    H1 2412   6.027   4.541   2.343
  823TIP3    H2 2413   5.988   4.463   2.467
  824TIP3   OH2 2414   6.898   4.177   0.171
  824TIP3    H1 2415   6.856   4.259   0.147
  824TIP3    H2 2416   6.874   4.116   0.101
  825TIP3   OH2 2417   5.045   0.607   2.979
  825TIP3    H1 2418   4.996   0.663   3.039
  825TIP3    H2 2419   5.096   0.667   2.925
  826TIP3   OH2 2420   0.744   6.053   1.882
  826TIP3    H1 2421   0.722   6.140   1.849
  826TIP3    H2 2422   0.788   6.069   1.966
  827TIP3   OH2 2423   7.588   5.288   5.177
  827TIP3    H1 2424   7.575   5.222   5.245
  827TIP3    H2 2425   7.505   5.336   5.174
  828TIP3   OH2 2426   4.286   7.214   3.977
  828TIP3    H1 2427   4.293   7.309   3.975
  828TIP3    H2 2428   4.317   7.190   4.064
  829TIP3   OH2 2429   2.176   0.079   6.409
  829TIP3    H1 2430   2.172   0.140   6.482
  829TIP3    H2 2431   2.089   0.083   6.369
  830TIP3   OH2 2432   6.704   0.925   6.301
  830TIP3    H1 2433   6.783   0.975   6.280
  830TIP3    H2 2434   6.673   0.893   6.217
  831TIP3   OH2 2435   2.688   2.407   6.360
  831TIP3    H1 2436   2.616   2.414   6.422
  831TIP3    H2 2437   2.727   2.494   6.357
  832TIP3   OH2 2438   2.611   4.330   4.877
  832TIP3    H1 2439   2.539   4.273   4.905
  832TIP3    H2 2440   2.576   4.377   4.802
  833TIP3   OH2 2441   0.328   1.278   3.486
  833TIP3    H1 2442   0.359   1.283   3.396
  833TIP3    H2 2443   0.403   1.246   3.536
  834TIP3   OH2 2444   6.501   6.554  -0.016
  834TIP3    H1 2445   6.567   6.491  -0.044
  834TIP3    H2 2446   6.448   6.506   0.049
  835TIP3   OH2 2447   2.386   4.972   2.260
  835TIP3    H1 2448   2.311   4.983   2.318
  835TIP3    H2 2449   2.435   5.053   2.269
  836TIP3   OH2 2450   5.003   0.030   4.669
  836TIP3    H1 2451   4.951   0.109   4.655
  836TIP3    H2 2452   4.939  -0.040   4.679
  837TIP3   OH2 2453   1.952   0.945   4.141
  837TIP3    H1 2454   1.947   1.041   4.143
  837TIP3    H2 2455   1.863   0.916   4.162
  838TIP3   OH2 2456   6.272   4.976   3.700
  838TIP3    H1 2457   6.249   4.889   3.669
  838TIP3    H2 2458   6.189   5.023   3.703
  839TIP3   OH2 2459   3.862   7.772   4.061
  839TIP3    H1 2460   3.947   7.815   4.071
  839TIP3    H2 2461   3.839   7.784   3.969
  840TIP3   OH2 2462   4.778   3.125   0.063
  840TIP3    H1 2463   4.785   3.034   0.092
  840TIP3    H2 2464   4.863   3.144   0.022
  841TIP3   OH2 2465   2.350   6.165   5.974
  841TIP3    H1 2466   2.316   6.076   5.962
  841TIP3    H2 2467   2.430   6.167   5.922
  842TIP3   OH2 2468   6.992   5.642   1.718
  842TIP3    H1 2469   6.909   5.599   1.741
  842TIP3    H2 2470   7.055   5.608   1.781
  843TIP3   OH2 2471   1.235   6.726   4.153
  843TIP3    H1 2472   1.282   6.798   4.110
  843TIP3    H2 2473   1.302   6.682   4.205
  844TIP3   OH2 2474   7.691   3.174   1.751
  844TIP3    H1 2475   7.720   3.113   1.682
  844TIP3    H2 2476   7.753   3.246   1.746
  845TIP3   OH2 2477   6.900   4.877   5.354
  845TIP3    H1 2478   6.852   4.807   5.309
  845TIP3    H2 2479   6.965   4.831   5.407
  846TIP3   OH2 2480   1.752   1.567   1.711
  846TIP3    H1 2481   1.735   1.603   1.798
  846TIP3    H2 2482   1.739   1.641   1.652
  847TIP3   OH2 2483   3.424   6.966   4.055
  847TIP3    H1 2484   3.392   6.997   3.970
  847TIP3    H2 2485   3.518   6.983   4.053
  848TIP3   OH2 2486   6.563   0.541   5.412
  848TIP3    H1 2487   6.576   0.614   5.351
  848TIP3    H2 2488   6.652   0.512   5.434
  849TIP3   OH2 2489   0.609   7.712   1.508
  849TIP3    H1 2490   0.567   7.781   1.458
  849TIP3    H2 2491   0.656   7.758   1.578
  850TIP3   OH2 2492   6.664   0.575   0.940
  850TIP3    H1 2493   6.724   0.510   0.903
  850TIP3    H2 2494   6.721   0.641   0.979
  851TIP3   OH2 2495   2.323   3.192   3.578
  851TIP3    H1 2496   2.247   3.239   3.614
  851TIP3    H2 2497   2.313   3.102   3.609
  852TIP3   OH2 2498   1.028   5.920   0.241
  852TIP3    H1 2499   0.977   5.975   0.300
  852TIP3    H2 2500   1.059   5.980   0.173
  853TIP3   OH2 2501   2.517   5.853   6.247
  853TIP3    H1 2502   2.530   5.864   6.341
  853TIP3    H2 2503   2.473   5.769   6.238
  854TIP3   OH2 2504   1.954   1.189   5.729
  854TIP3    H1 2505   2.012   1.265   5.739
  854TIP3    H2 2506   1.901   1.189   5.809
  855TIP3   OH2 2507   4.678   6.333   5.188
  855TIP3    H1 2508   4.762   6.364   5.222
  855TIP3    H2 2509   4.693   6.241   5.168
  856TIP3   OH2 2510   5.200   5.777   4.374
  856TIP3    H1 2511   5.244   5.861   4.386
  856TIP3    H2 2512   5.271   5.713   4.369
  857TIP3   OH2 2513   6.810   3.350   0.667
  857TIP3    H1 2514   6.751   3.295   0.719
  857TIP3    H2 2515   6.898   3.316   0.687
  858TIP3   OH2 2516   5.121   4.578   1.542
  858TIP3    H1 2517   5.096   4.588   1.450
  858TIP3    H2 2518   5.048   4.616   1.591
  859TIP3   OH2 2519   5.524   1.995   1.387
  859TIP3    H1 2520   5.560   1.910   1.359
  859TIP3    H2 2521   5.432   1.978   1.403
  860TIP3   OH2 2522   5.756   6.917   2.359
  860TIP3    H1 2523   5.694   6.921   2.432
  860TIP3    H2 2524   5.810   6.995   2.370
  861TIP3   OH2 2525   5.584   2.876   5.476
  861TIP3    H1 2526   5.520   2.807   5.494
  861TIP3    H2 2527   5.533   2.950   5.445
  862TIP3   OH2 2528   5.048   0.900   4.411
  862TIP3    H1 2529   5.054   0.853   4.494
  862TIP3    H2 2530   4.956   0.926   4.404
  863TIP3   OH2 2531   6.461   0.260   5.998
  863TIP3    H1 2532   6.404   0.190   6.029
  863TIP3    H2 2533   6.410   0.305   5.931
  864TIP3   OH2 2534   1.135   3.769   4.658
  864TIP3    H1 2535   1.118   3.860   4.632
  864TIP3    H2 2536   1.185   3.732   4.585
  865TIP3   OH2 2537   5.067   0.789   5.863
  865TIP3    H1 2538   5.091   0.870   5.817
  865TIP3    H2 2539   5.142   0.731   5.849
  866TIP3   OH2 2540   0.820   2.152   1.611
  866TIP3    H1 2541   0.887   2.217   1.633
  866TIP3    H2 2542   0.774   2.190   1.536
  867TIP3   OH2 2543   0.021   3.255   2.385
  867TIP3    H1 2544   0.002   3.218   2.471
  867TIP3    H2 2545   0.104   3.301   2.396
  868TIP3   OH2 2546   2.969   6.131   4.387
  868TIP3    H1 2547   2.921   6.100   4.464
  868TIP3    H2 2548   2.969   6.226   4.395
  869TIP3   OH2 2549   4.676   4.741   2.382
  869TIP3    H1 2550   4.768   4.714   2.379
  869TIP3    H2 2551   4.653   4.739   2.475
  870TIP3   OH2 2552   2.301   2.224   3.731
  870TIP3    H1 2553   2.380   2.172   3.713
  870TIP3    H2 2554   2.335   2.307   3.766
  871TIP3   OH2 2555   3.353   1.525   6.591
  871TIP3    H1 2556   3.327   1.570   6.672
  871TIP3    H2 2557   3.421   1.464   6.618
  872TIP3   OH2 2558   6.064   4.950   1.255
  872TIP3    H1 2559   6.010   4.884   1.211
  872TIP3    H2 2560   6.006   5.025   1.266
  873TIP3   OH2 2561   3.546   3.282   4.494
  873TIP3    H1 2562   3.560   3.362   4.443
  873TIP3    H2 2563   3.572   3.211   4.435
  874TIP3   OH2 2564   6.262   0.403   0.707
  874TIP3    H1 2565   6.197   0.352   0.755
  874TIP3    H2 2566   6.338   0.406   0.765
  875TIP3   OH2 2567   0.615   7.527   3.686
  875TIP3    H1 2568   0.657   7.525   3.600
  875TIP3    H2 2569   0.542   7.588   3.675
  876TIP3   OH2 2570   3.605   3.450   3.931
  876TIP3    H1 2571   3.602   3.370   3.985
  876TIP3    H2 2572   3.602   3.418   3.841
  877TIP3   OH2 2573   3.816   4.353   5.342
  877TIP3    H1 2574   3.766   4.313   5.271
  877TIP3    H2 2575   3.779   4.441   5.351
  878TIP3   OH2 2576   2.685   2.608   3.194
  878TIP3    H1 2577   2.748   2.659   3.244
  878TIP3    H2 2578   2.617   2.672   3.170
  879TIP3   OH2 2579   1.034   5.526   6.724
  879TIP3    H1 2580   1.006   5.445   6.681
  879TIP3    H2 2581   0.953   5.566   6.755
  880TIP3   OH2 2582   3.307   3.661   2.128
  880TIP3    H1 2583   3.297   3.708   2.045
  880TIP3    H2 2584   3.383   3.702   2.169
  881TIP3   OH2 2585   7.316   4.224   5.251
  881TIP3    H1 2586   7.363   4.151   5.213
  881TIP3    H2 2587   7.362   4.302   5.220
  882TIP3   OH2 2588   3.839   0.672   5.175
  882TIP3    H1 2589   3.761   0.707   5.131
  882TIP3    H2 2590   3.805   0.629   5.253
  883TIP3   OH2 2591   6.270   5.267   0.302
  883TIP3    H1 2592   6.201   5.332   0.310
  883TIP3    H2 2593   6.271   5.223   0.387
  884TIP3   OH2 2594   1.332   3.272   5.611
  884TIP3    H1 2595   1.317   3.330   5.685
  884TIP3    H2 2596   1.252   3.220   5.605
  885TIP3   OH2 2597   0.431   7.773   3.288
  885TIP3    H1 2598   0.382   7.789   3.207
  885TIP3    H2 2599   0.417   7.681   3.307
  886TIP3   OH2 2600   0.409   3.649   1.382
  886TIP3    H1 2601   0.358   3.568   1.376
  886TIP3    H2 2602   0.451   3.645   1.467
  887TIP3   OH2 2603   1.339   0.501   1.405
  887TIP3    H1 2604   1.331   0.549   1.488
  887TIP3    H2 2605   1.426   0.461   1.409
  888TIP3   OH2 2606   6.259   4.482   0.749
  888TIP3    H1 2607   6.198   4.555   0.748
  888TIP3    H2 2608   6.246   4.439   0.665
  889TIP3   OH2 2609   0.774   6.072   0.062
  889TIP3    H1 2610   0.735   6.097  -0.022
  889TIP3    H2 2611   0.867   6.090   0.051
  890TIP3   OH2 2612   4.546   0.543   2.855
  890TIP3    H1 2613   4.569   0.453   2.833
  890TIP3    H2 2614   4.510   0.578   2.773
  891TIP3   OH2 2615   7.622   7.227   0.464
  891TIP3    H1 2616   7.612   7.248   0.557
  891TIP3    H2 2617   7.687   7.290   0.432
  892TIP3   OH2 2618   5.659   3.400   4.259
  892TIP3    H1 2619   5.747   3.437   4.252
  892TIP3    H2 2620   5.605   3.457   4.205
  893TIP3   OH2 2621   6.572   7.064   4.383
  893TIP3    H1 2622   6.533   6.992   4.433
  893TIP3    H2 2623   6.498   7.117   4.354
  894TIP3   OH2 2624   7.946   3.976   2.759
  894TIP3    H1 2625   7.885   3.955   2.687
  894TIP3    H2 2626   7.977   4.064   2.738
  895TIP3   OH2 2627   0.343   6.279   2.932
  895TIP3    H1 2628   0.272   6.244   2.987
  895TIP3    H2 2629   0.420   6.229   2.959
  896TIP3   OH2 2630   6.602   7.307   0.111
  896TIP3    H1 2631   6.636   7.291   0.023
  896TIP3    H2 2632   6.585   7.220   0.146
  897TIP3   OH2 2633   1.275   2.507   5.834
  897TIP3    H1 2634   1.276   2.502   5.929
  897TIP3    H2 2635   1.302   2.597   5.815
  898TIP3   OH2 2636   7.367   1.801   4.976
  898TIP3    H1 2637   7.398   1.723   4.930
  898TIP3    H2 2638   7.411   1.874   4.932
  899TIP3   OH2 2639   6.630   0.376   1.128
  899TIP3    H1 2640   6.541   0.411   1.125
  899TIP3    H2 2641   6.685   0.452   1.148
  900TIP3   OH2 2642   6.393   1.614   6.666
  900TIP3    H1 2643   6.395   1.535   6.721
  900TIP3    H2 2644   6.479   1.616   6.624
  901TIP3   OH2 2645   2.765   4.424   0.288
  901TIP3    H1 2646   2.755   4.349   0.229
  901TIP3    H2 2647   2.835   4.476   0.248
  902TIP3   OH2 2648   5.030   4.390   3.841
  902TIP3    H1 2649   5.044   4.350   3.927
  902TIP3    H2 2650   5.086   4.340   3.782
  903TIP3   OH2 2651   5.314   4.873   0.651
  903TIP3    H1 2652   5.320   4.901   0.742
  903TIP3    H2 2653   5.402   4.841   0.630
  904TIP3   OH2 2654   3.148   6.876   2.584
  904TIP3    H1 2655   3.088   6.807   2.613
  904TIP3    H2 2656   3.100   6.923   2.516
  905TIP3   OH2 2657   0.792   4.163   3.910
  905TIP3    H1 2658   0.821   4.141   3.999
  905TIP3    H2 2659   0.701   4.190   3.920
  906TIP3   OH2 2660   5.833   2.575   4.193
  906TIP3    H1 2661   5.821   2.636   4.120
  906TIP3    H2 2662   5.809   2.625   4.271
  907TIP3   OH2 2663   4.964   3.249   3.956
  907TIP3    H1 2664   4.885   3.211   3.917
  907TIP3    H2 2665   4.999   3.306   3.888
  908TIP3   OH2 2666   7.178   2.955   1.562
  908TIP3    H1 2667   7.122   2.878   1.576
  908TIP3    H2 2668   7.243   2.950   1.631
  909TIP3   OH2 2669   5.230   4.701   1.858
  909TIP3    H1 2670   5.145   4.669   1.827
  909TIP3    H2 2671   5.217   4.714   1.952
  910TIP3   OH2 2672   2.829   1.079   3.219
  910TIP3    H1 2673   2.848   1.075   3.312
  910TIP3    H2 2674   2.746   1.033   3.209
  911TIP3   OH2 2675   5.303   1.124   2.663
  911TIP3    H1 2676   5.341   1.189   2.722
  911TIP3    H2 2677   5.369   1.113   2.593
  912TIP3   OH2 2678   3.059   0.765   4.656
  912TIP3    H1 2679   3.046   0.857   4.633
  912TIP3    H2 2680   3.042   0.761   4.750
  913TIP3   OH2 2681   0.572   2.095   0.625
  913TIP3    H1 2682   0.659   2.074   0.592
  913TIP3    H2 2683   0.522   2.119   0.547
  914TIP3   OH2 2684   6.303   1.702   3.224
  914TIP3    H1 2685   6.310   1.614   3.188
  914TIP3    H2 2686   6.230   1.742   3.176
  915TIP3   OH2 2687   8.049   4.157   4.694
  915TIP3    H1 2688   8.130   4.151   4.745
  915TIP3    H2 2689   8.003   4.075   4.712
  916TIP3   OH2 2690   6.232   5.786   5.388
  916TIP3    H1 2691   6.258   5.800   5.479
  916TIP3    H2 2692   6.286   5.848   5.338
  917TIP3   OH2 2693   5.236   3.174   2.612
  917TIP3    H1 2694   5.168   3.154   2.547
  917TIP3    H2 2695   5.255   3.266   2.599
  918TIP3   OH2 2696   3.207   4.907   2.819
  918TIP3    H1 2697   3.208   4.972   2.749
  918TIP3    H2 2698   3.141   4.940   2.880
  919TIP3   OH2 2699   4.726   7.117   0.377
  919TIP3    H1 2700   4.782   7.044   0.405
  919TIP3    H2 2701   4.685   7.086   0.296
  920TIP3   OH2 2702   4.241   4.466   5.170
  920TIP3    H1 2703   4.227   4.385   5.122
  920TIP3    H2 2704   4.286   4.523   5.107
  921TIP3   OH2 2705   1.461   0.289   4.984
  921TIP3    H1 2706   1.382   0.256   4.942
  921TIP3    H2 2707   1.509   0.333   4.914
  922TIP3   OH2 2708   3.537   6.276   5.475
  922TIP3    H1 2709   3.487   6.218   5.533
  922TIP3    H2 2710   3.628   6.262   5.501
  923TIP3   OH2 2711   8.121   1.593   3.729
  923TIP3    H1 2712   8.110   1.684   3.755
  923TIP3    H2 2713   8.216   1.580   3.728
  924TIP3   OH2 2714   6.696   5.540   2.888
  924TIP3    H1 2715   6.649   5.537   2.805
  924TIP3    H2 2716   6.787   5.555   2.863
  925TIP3   OH2 2717   4.249   6.857   6.180
  925TIP3    H1 2718   4.278   6.906   6.103
  925TIP3    H2 2719   4.192   6.919   6.227
  926TIP3   OH2 2720   5.540   4.475   0.482
  926TIP3    H1 2721   5.519   4.477   0.389
  926TIP3    H2 2722   5.629   4.438   0.486
  927TIP3   OH2 2723   6.040   2.373   2.405
  927TIP3    H1 2724   5.990   2.442   2.449
  927TIP3    H2 2725   6.034   2.298   2.463
  928TIP3   OH2 2726   0.391   4.557   5.294
  928TIP3    H1 2727   0.384   4.622   5.224
  928TIP3    H2 2728   0.313   4.572   5.348
  929TIP3   OH2 2729   3.413   4.006   1.125
  929TIP3    H1 2730   3.334   4.032   1.078
  929TIP3    H2 2731   3.383   3.982   1.212
  930TIP3   OH2 2732   0.481   6.041   5.762
  930TIP3    H1 2733   0.387   6.024   5.759
  930TIP3    H2 2734   0.488   6.131   5.794
  931TIP3   OH2 2735   7.151   7.270   4.152
  931TIP3    H1 2736   7.187   7.358   4.138
  931TIP3    H2 2737   7.203   7.214   4.093
  932TIP3   OH2 2738   0.703   4.888   0.875
  932TIP3    H1 2739   0.649   4.876   0.953
  932TIP3    H2 2740   0.710   4.983   0.865
  933TIP3   OH2 2741   2.303   1.771   2.488
  933TIP3    H1 2742   2.308   1.846   2.429
  933TIP3    H2 2743   2.316   1.695   2.431
  934TIP3   OH2 2744   0.226   6.415   3.377
  934TIP3    H1 2745   0.196   6.492   3.425
  934TIP3    H2 2746   0.148   6.382   3.332
  935TIP3   OH2 2747   7.712   6.276   4.145
  935TIP3    H1 2748   7.749   6.298   4.230
  935TIP3    H2 2749   7.637   6.335   4.135
  936TIP3   OH2 2750   4.051   1.760   5.200
  936TIP3    H1 2751   4.066   1.854   5.199
  936TIP3    H2 2752   3.959   1.749   5.176
  937TIP3   OH2 2753   4.799   1.016   0.786
  937TIP3    H1 2754   4.715   1.053   0.814
  937TIP3    H2 2755   4.777   0.960   0.712
  938TIP3   OH2 2756   5.394   0.693   4.530
  938TIP3    H1 2757   5.401   0.732   4.618
  938TIP3    H2 2758   5.485   0.683   4.501
  939TIP3   OH2 2759   5.688   2.409   1.912
  939TIP3    H1 2760   5.631   2.480   1.942
  939TIP3    H2 2761   5.723   2.371   1.992
  940TIP3   OH2 2762   6.890   6.641   2.218
  940TIP3    H1 2763   6.847   6.557   2.237
  940TIP3    H2 2764   6.822   6.692   2.174
  941TIP3   OH2 2765   0.897   7.550   5.409
  941TIP3    H1 2766   0.966   7.608   5.378
  941TIP3    H2 2767   0.884   7.488   5.337
  942TIP3   OH2 2768   7.668   3.271   2.284
  942TIP3    H1 2769   7.647   3.336   2.351
  942TIP3    H2 2770   7.662   3.187   2.330
  943TIP3   OH2 2771   2.276   4.851   5.557
  943TIP3    H1 2772   2.280   4.843   5.653
  943TIP3    H2 2773   2.256   4.944   5.542
  944TIP3   OH2 2774   1.844   3.608   6.163
  944TIP3    H1 2775   1.918   3.552   6.186
  944TIP3    H2 2776   1.833   3.666   6.238
  945TIP3   OH2 2777   3.598   7.581   0.689
  945TIP3    H1 2778   3.505   7.561   0.704
  945TIP3    H2 2779   3.629   7.614   0.773
  946TIP3   OH2 2780   6.735   0.216   0.894
  946TIP3    H1 2781   6.786   0.294   0.870
  946TIP3    H2 2782   6.773   0.145   0.843
  947TIP3   OH2 2783  -0.031   1.540   5.910
  947TIP3    H1 2784   0.040   1.599   5.934
  947TIP3    H2 2785  -0.098   1.555   5.976
  948TIP3   OH2 2786   1.116   5.634   2.413
  948TIP3    H1 2787   1.172   5.695   2.462
  948TIP3    H2 2788   1.167   5.553   2.410
  949TIP3   OH2 2789   5.223   2.593   4.098
  949TIP3    H1 2790   5.224   2.652   4.023
  949TIP3    H2 2791   5.315   2.573   4.114
  950TIP3   OH2 2792   2.032   4.470   3.213
  950TIP3    H1 2793   2.106   4.491   3.155
  950TIP3    H2 2794   1.990   4.394   3.172
  951TIP3   OH2 2795   3.953   6.181   0.129
  951TIP3    H1 2796   3.981   6.258   0.079
  951TIP3    H2 2797   3.964   6.108   0.069
  952TIP3   OH2 2798   7.659   0.182   1.617
  952TIP3    H1 2799   7.612   0.134   1.686
  952TIP3    H2 2800   7.716   0.117   1.577
  953TIP3   OH2 2801   3.774   3.083   5.468
  953TIP3    H1 2802   3.751   3.136   5.391
  953TIP3    H2 2803   3.845   3.027   5.438
  954TIP3   OH2 2804   2.159   5.030   5.261
  954TIP3    H1 2805   2.211   5.109   5.250
  954TIP3    H2 2806   2.075   5.051   5.222
  955TIP3   OH2 2807   0.110   7.692   5.673
  955TIP3    H1 2808   0.153   7.630   5.614
  955TIP3    H2 2809   0.143   7.778   5.645
  956TIP3   OH2 2810   7.448   0.810   5.378
  956TIP3    H1 2811   7.393   0.864   5.320
  956TIP3    H2 2812   7.394   0.734   5.398
  957TIP3   OH2 2813   7.326   1.563   1.144
  957TIP3    H1 2814   7.346   1.494   1.208
  957TIP3    H2 2815   7.332   1.644   1.195
  958TIP3   OH2 2816   2.806   7.538   4.784
  958TIP3    H1 2817   2.880   7.567   4.838
  958TIP3    H2 2818   2.818   7.443   4.776
  959TIP3   OH2 2819   8.181   6.126   5.038
  959TIP3    H1 2820   8.138   6.167   4.963
  959TIP3    H2 2821   8.109   6.084   5.086
  960TIP3   OH2 2822   0.876   2.564   3.592
  960TIP3    H1 2823   0.950   2.623   3.584
  960TIP3    H2 2824   0.799   2.620   3.585
  961TIP3   OH2 2825   1.330   3.207   1.901
  961TIP3    H1 2826   1.384   3.150   1.846
  961TIP3    H2 2827   1.241   3.175   1.888
  962TIP3   OH2 2828   3.046   5.706   3.121
  962TIP3    H1 2829   3.106   5.768   3.080
  962TIP3    H2 2830   3.066   5.622   3.080
  963TIP3   OH2 2831   0.000   3.821   5.927
  963TIP3    H1 2832   0.059   3.808   5.853
  963TIP3    H2 2833   0.057   3.838   6.001
  964TIP3   OH2 2834   0.668   7.452   0.125
  964TIP3    H1 2835   0.735   7.383   0.136
  964TIP3    H2 2836   0.612   7.443   0.201
  965TIP3   OH2 2837   0.241   3.240   0.417
  965TIP3    H1 2838   0.233   3.255   0.323
  965TIP3    H2 2839   0.226   3.146   0.427
  966TIP3   OH2 2840   1.967   5.354   5.036
  966TIP3    H1 2841   1.883   5.310   5.021
  966TIP3    H2 2842   2.033   5.287   5.019
  967TIP3   OH2 2843   1.953   5.164   0.699
  967TIP3    H1 2844   1.944   5.182   0.605
  967TIP3    H2 2845   1.919   5.076   0.709
  968TIP3   OH2 2846   2.392   0.395   2.649
  968TIP3    H1 2847   2.469   0.429   2.694
  968TIP3    H2 2848   2.424   0.370   2.562
  969TIP3   OH2 2849   6.996   4.152   5.592
  969TIP3    H1 2850   7.038   4.136   5.676
  969TIP3    H2 2851   7.041   4.230   5.558
  970TIP3   OH2 2852   8.138   3.954   1.142
  970TIP3    H1 2853   8.126   4.040   1.181
  970TIP3    H2 2854   8.224   3.959   1.099
  971TIP3   OH2 2855   3.846   5.678   3.090
  971TIP3    H1 2856   3.877   5.769   3.093
  971TIP3    H2 2857   3.926   5.626   3.081
  972TIP3   OH2 2858   2.237   6.919   3.760
  972TIP3    H1 2859   2.317   6.961   3.727
  972TIP3    H2 2860   2.168   6.954   3.704
  973TIP3   OH2 2861   1.286   4.066   5.094
  973TIP3    H1 2862   1.328   4.130   5.037
  973TIP3    H2 2863   1.280   4.109   5.179
  974TIP3   OH2 2864   2.591   1.122   2.267
  974TIP3    H1 2865   2.629   1.035   2.264
  974TIP3    H2 2866   2.588   1.144   2.360
  975TIP3   OH2 2867   7.557   1.085   0.731
  975TIP3    H1 2868   7.558   0.991   0.715
  975TIP3    H2 2869   7.465   1.106   0.749
  976TIP3   OH2 2870   5.472   1.654   3.226
  976TIP3    H1 2871   5.546   1.664   3.166
  976TIP3    H2 2872   5.440   1.743   3.240
  977TIP3   OH2 2873   3.445   1.736   4.570
  977TIP3    H1 2874   3.406   1.700   4.649
  977TIP3    H2 2875   3.376   1.792   4.533
  978TIP3   OH2 2876   2.983   4.724   2.403
  978TIP3    H1 2877   2.936   4.747   2.484
  978TIP3    H2 2878   2.917   4.736   2.334
  979TIP3   OH2 2879   3.325   4.122   0.209
  979TIP3    H1 2880   3.352   4.051   0.151
  979TIP3    H2 2881   3.387   4.193   0.193
  980TIP3   OH2 2882   2.928   3.284   0.722
  980TIP3    H1 2883   2.981   3.269   0.801
  980TIP3    H2 2884   2.946   3.374   0.697
  981TIP3   OH2 2885   0.416   0.361   5.300
  981TIP3    H1 2886   0.392   0.440   5.252
  981TIP3    H2 2887   0.386   0.289   5.246
  982TIP3   OH2 2888   5.987   1.279   2.117
  982TIP3    H1 2889   5.921   1.346   2.100
  982TIP3    H2 2890   6.071   1.324   2.109
  983TIP3   OH2 2891   4.449   4.646   5.118
  983TIP3    H1 2892   4.521   4.699   5.153
  983TIP3    H2 2893   4.493   4.570   5.079
  984TIP3   OH2 2894   0.540   4.239   3.940
  984TIP3    H1 2895   0.462   4.208   3.986
  984TIP3    H2 2896   0.508   4.260   3.852
  985TIP3   OH2 2897   3.056   5.484   0.251
  985TIP3    H1 2898   3.069   5.579   0.256
  985TIP3    H2 2899   3.003   5.464   0.328
  986TIP3   OH2 2900   3.576   2.440   2.116
  986TIP3    H1 2901   3.551   2.429   2.208
  986TIP3    H2 2902   3.549   2.358   2.075
  987TIP3   OH2 2903   7.857   5.107   5.319
  987TIP3    H1 2904   7.768   5.113   5.354
  987TIP3    H2 2905   7.846   5.064   5.233
  988TIP3   OH2 2906   3.307   2.569   3.450
  988TIP3    H1 2907   3.265   2.619   3.380
  988TIP3    H2 2908   3.271   2.480   3.440
  989TIP3   OH2 2909   8.182   1.080   3.672
  989TIP3    H1 2910   8.130   1.112   3.598
  989TIP3    H2 2911   8.140   0.998   3.697
  990TIP3   OH2 2912   4.842   3.706   0.723
  990TIP3    H1 2913   4.854   3.775   0.787
  990TIP3    H2 2914   4.747   3.693   0.720
  991TIP3   OH2 2915   5.912   0.158   3.263
  991TIP3    H1 2916   5.909   0.130   3.354
  991TIP3    H2 2917   5.824   0.141   3.229
  992TIP3   OH2 2918   0.301   4.854   5.416
  992TIP3    H1 2919   0.246   4.776   5.418
  992TIP3    H2 2920   0.328   4.867   5.507
  993TIP3   OH2 2921   3.908   5.018   3.674
  993TIP3    H1 2922   3.855   5.097   3.668
  993TIP3    H2 2923   3.963   5.020   3.595
  994TIP3   OH2 2924   0.188   6.620   0.599
  994TIP3    H1 2925   0.207   6.668   0.680
  994TIP3    H2 2926   0.098   6.646   0.577
  995TIP3   OH2 2927   6.277   0.069   1.345
  995TIP3    H1 2928   6.316   0.143   1.299
  995TIP3    H2 2929   6.329   0.060   1.425
  996TIP3   OH2 2930   0.335   2.481   5.706
  996TIP3    H1 2931   0.298   2.519   5.626
  996TIP3    H2 2932   0.290   2.528   5.777
  997TIP3   OH2 2933   0.076   4.273   2.262
  997TIP3    H1 2934   0.011   4.287   2.193
  997TIP3    H2 2935   0.157   4.308   2.227
  998TIP3   OH2 2936   0.086   4.251   1.959
  998TIP3    H1 2937   0.134   4.168   1.953
  998TIP3    H2 2938   0.000   4.227   1.992
  999TIP3   OH2 2939   6.418   3.352   4.807
  999TIP3    H1 2940   6.379   3.336   4.893
  999TIP3    H2 2941   6.468   3.433   4.818
 1000TIP3   OH2 2942   1.020   2.622   5.769
 1000TIP3    H1 2943   1.014   2.580   5.855
 1000TIP3    H2 2944   1.058   2.554   5.712
 1001TIP3   OH2 2945   4.842   7.209   4.938
 1001TIP3    H1 2946   4.777   7.163   4.886
 1001TIP3    H2 2947   4.901   7.141   4.969
 1002TIP3   OH2 2948   6.669   6.315   0.002
 1002TIP3    H1 2949   6.712   6.368   0.070
 1002TIP3    H2 2950   6.729   6.243  -0.013
 1003TIP3   OH2 2951   7.992   5.739   5.418
 1003TIP3    H1 2952   7.897   5.737   5.433
 1003TIP3    H2 2953   8.016   5.647   5.408
 1004TIP3   OH2 2954   5.054   5.520   1.602
 1004TIP3    H1 2955   5.007   5.594   1.564
 1004TIP3    H2 2956   5.135   5.516   1.551
 1005TIP3   OH2 2957   5.111   6.275   1.373
 1005TIP3    H1 2958   5.056   6.340   1.327
 1005TIP3    H2 2959   5.157   6.326   1.440
 1006TIP3   OH2 2960   1.741   0.641   1.558
 1006TIP3    H1 2961   1.704   0.633   1.646
 1006TIP3    H2 2962   1.671   0.678   1.505
 1007TIP3   OH2 2963   5.940   7.368   2.275
 1007TIP3    H1 2964   6.024   7.324   2.286
 1007TIP3    H2 2965   5.880   7.300   2.245
 1008TIP3   OH2 2966   6.398   3.192   3.178
 1008TIP3    H1 2967   6.324   3.218   3.123
 1008TIP3    H2 2968   6.362   3.187   3.266
 1009TIP3   OH2 2969   2.303   1.464   1.567
 1009TIP3    H1 2970   2.235   1.462   1.634
 1009TIP3    H2 2971   2.362   1.393   1.591
 1010TIP3   OH2 2972   7.605   5.814   5.203
 1010TIP3    H1 2973   7.580   5.729   5.169
 1010TIP3    H2 2974   7.669   5.795   5.272
 1011TIP3   OH2 2975   3.840   0.764   5.569
 1011TIP3    H1 2976   3.886   0.719   5.639
 1011TIP3    H2 2977   3.897   0.838   5.545
 1012TIP3   OH2 2978   8.086   7.822   2.588
 1012TIP3    H1 2979   8.005   7.843   2.634
 1012TIP3    H2 2980   8.156   7.848   2.649
 1013TIP3   OH2 2981   5.731   5.535   0.570
 1013TIP3    H1 2982   5.759   5.587   0.495
 1013TIP3    H2 2983   5.805   5.538   0.630
 1014TIP3   OH2 2984   6.667   5.481   3.764
 1014TIP3    H1 2985   6.656   5.516   3.853
 1014TIP3    H2 2986   6.754   5.511   3.737
 1015TIP3   OH2 2987   2.159   7.587   5.065
 1015TIP3    H1 2988   2.106   7.619   5.138
 1015TIP3    H2 2989   2.165   7.661   5.004
 1016TIP3   OH2 2990   2.546   6.090   3.137
 1016TIP3    H1 2991   2.633   6.050   3.138
 1016TIP3    H2 2992   2.556   6.169   3.191
 1017TIP3   OH2 2993   3.550   6.000   1.847
 1017TIP3    H1 2994   3.472   6.011   1.792
 1017TIP3    H2 2995   3.578   6.090   1.865
 1018TIP3   OH2 2996   3.389   6.873   0.493
 1018TIP3    H1 2997   3.453   6.895   0.561
 1018TIP3    H2 2998   3.323   6.821   0.539
 1019TIP3   OH2 2999   4.656   1.650   0.118
 1019TIP3    H1 3000   4.679   1.725   0.172
 1019TIP3    H2 3001   4.605   1.593   0.176
 1020TIP3   OH2 3002   7.106   4.603   5.298
 1020TIP3    H1 3003   7.025   4.648   5.325
 1020TIP3    H2 3004   7.095   4.514   5.330
 1021TIP3   OH2 3005   6.634   0.373   1.553
 1021TIP3    H1 3006   6.729   0.383   1.544
 1021TIP3    H2 3007   6.622   0.283   1.582
 1022TIP3   OH2 3008   4.883  -0.027   2.940
 1022TIP3    H1 3009   4.823  -0.068   2.878
 1022TIP3    H2 3010   4.896   0.062   2.907
 1023TIP3   OH2 3011   0.548   7.179   5.829
 1023TIP3    H1 3012   0.623   7.141   5.873
 1023TIP3    H2 3013   0.477   7.174   5.893
 1024TIP3   OH2 3014   5.899   5.148   2.092
 1024TIP3    H1 3015   5.972   5.110   2.141
 1024TIP3    H2 3016   5.824   5.140   2.150
 1025TIP3   OH2 3017   1.669   2.479   2.593
 1025TIP3    H1 3018   1.729   2.542   2.632
 1025TIP3    H2 3019   1.683   2.488   2.498
 1026TIP3   OH2 3020   3.868   5.639   1.085
 1026TIP3    H1 3021   3.941   5.641   1.023
 1026TIP3    H2 3022   3.812   5.568   1.055
 1027TIP3   OH2 3023   4.385   1.123   3.693
 1027TIP3    H1 3024   4.454   1.057   3.697
 1027TIP3    H2 3025   4.430   1.205   3.673
 1028TIP3   OH2 3026   3.858   0.250   4.691
 1028TIP3    H1 3027   3.784   0.215   4.641
 1028TIP3    H2 3028   3.847   0.345   4.687
 1029TIP3   OH2 3029   6.104   0.402   3.349
 1029TIP3    H1 3030   6.032   0.352   3.312
 1029TIP3    H2 3031   6.100   0.383   3.443
 1030TIP3   OH2 3032   5.885   4.079   4.488
 1030TIP3    H1 3033   5.818   4.041   4.431
 1030TIP3    H2 3034   5.938   4.133   4.430
 1031TIP3   OH2 3035   5.858   3.045   6.269
 1031TIP3    H1 3036   5.774   3.002   6.285
 1031TIP3    H2 3037   5.848   3.131   6.308
 1032TIP3   OH2 3038   1.711   3.247   5.192
 1032TIP3    H1 3039   1.741   3.328   5.150
 1032TIP3    H2 3040   1.759   3.178   5.147
 1033TIP3   OH2 3041   3.504   2.284   1.848
 1033TIP3    H1 3042   3.567   2.338   1.800
 1033TIP3    H2 3043   3.483   2.213   1.788
 1034TIP3   OH2 3044   2.038   5.852   0.007
 1034TIP3    H1 3045   1.953   5.811   0.017
 1034TIP3    H2 3046   2.100   5.780   0.006
 1035TIP3   OH2 3047   3.899   1.921   2.716
 1035TIP3    H1 3048   3.920   2.010   2.687
 1035TIP3    H2 3049   3.957   1.865   2.664
 1036TIP3   OH2 3050   7.957   3.613   4.980
 1036TIP3    H1 3051   7.979   3.522   4.959
 1036TIP3    H2 3052   7.975   3.621   5.074
 1037TIP3   OH2 3053   4.526   2.032   3.140
 1037TIP3    H1 3054   4.553   1.978   3.065
 1037TIP3    H2 3055   4.592   2.014   3.207
 1038TIP3   OH2 3056   1.966   0.578   2.897
 1038TIP3    H1 3057   1.938   0.628   2.973
 1038TIP3    H2 3058   2.061   0.588   2.894
 1039TIP3   OH2 3059   1.777   6.875   5.885
 1039TIP3    H1 3060   1.730   6.808   5.935
 1039TIP3    H2 3061   1.765   6.956   5.935
 1040TIP3   OH2 3062   0.574   3.670   3.543
 1040TIP3    H1 3063   0.517   3.738   3.579
 1040TIP3    H2 3064   0.629   3.643   3.617
 1041TIP3   OH2 3065   0.774   1.376   0.137
 1041TIP3    H1 3066   0.816   1.384   0.051
 1041TIP3    H2 3067   0.686   1.345   0.117
 1042TIP3   OH2 3068   0.757   6.414   3.424
 1042TIP3    H1 3069   0.709   6.435   3.504
 1042TIP3    H2 3070   0.699   6.357   3.375
 1043TIP3   OH2 3071   4.541   2.245   2.215
 1043TIP3    H1 3072   4.571   2.316   2.271
 1043TIP3    H2 3073   4.446   2.255   2.212
 1044TIP3   OH2 3074   3.278   1.918   4.463
 1044TIP3    H1 3075   3.344   1.986   4.447
 1044TIP3    H2 3076   3.197   1.966   4.476
 1045TIP3   OH2 3077   3.303   4.419   5.905
 1045TIP3    H1 3078   3.248   4.398   5.980
 1045TIP3    H2 3079   3.392   4.404   5.936
 1046TIP3   OH2 3080   2.095   4.130   2.141
 1046TIP3    H1 3081   2.043   4.144   2.220
 1046TIP3    H2 3082   2.161   4.199   2.143
 1047TIP3   OH2 3083   1.638   7.405   0.995
 1047TIP3    H1 3084   1.613   7.447   0.912
 1047TIP3    H2 3085   1.564   7.421   1.053
 1048TIP3   OH2 3086   4.680   3.764   2.438
 1048TIP3    H1 3087   4.702   3.676   2.470
 1048TIP3    H2 3088   4.644   3.750   2.351
 1049TIP3   OH2 3089   6.572   6.231   1.167
 1049TIP3    H1 3090   6.606   6.198   1.251
 1049TIP3    H2 3091   6.545   6.153   1.119
 1050TIP3   OH2 3092   2.282   3.788   3.214
 1050TIP3    H1 3093   2.311   3.699   3.234
 1050TIP3    H2 3094   2.290   3.795   3.119
 1051TIP3   OH2 3095   0.947   6.854   5.608
 1051TIP3    H1 3096   1.013   6.875   5.542
 1051TIP3    H2 3097   0.998   6.831   5.686
 1052TIP3   OH2 3098   6.503   4.735   4.933
 1052TIP3    H1 3099   6.572   4.761   4.871
 1052TIP3    H2 3100   6.489   4.642   4.916
 1053TIP3   OH2 3101   7.864   3.237   3.306
 1053TIP3    H1 3102   7.791   3.203   3.358
 1053TIP3    H2 3103   7.851   3.200   3.219
 1054TIP3   OH2 3104   6.189   5.320   2.519
 1054TIP3    H1 3105   6.271   5.343   2.476
 1054TIP3    H2 3106   6.182   5.382   2.592
 1055TIP3   OH2 3107   0.316   1.021   5.122
 1055TIP3    H1 3108   0.357   1.073   5.191
 1055TIP3    H2 3109   0.389   0.988   5.070
 1056TIP3   OH2 3110   1.162   0.908   1.408
 1056TIP3    H1 3111   1.165   0.861   1.492
 1056TIP3    H2 3112   1.187   0.997   1.430
 1057TIP3   OH2 3113   6.079   3.275   0.203
 1057TIP3    H1 3114   6.123   3.228   0.274
 1057TIP3    H2 3115   6.075   3.213   0.131
 1058TIP3   OH2 3116   3.410   2.326   4.878
 1058TIP3    H1 3117   3.365   2.265   4.936
 1058TIP3    H2 3118   3.499   2.292   4.871
 1059TIP3   OH2 3119   4.502   2.540   1.784
 1059TIP3    H1 3120   4.424   2.486   1.786
 1059TIP3    H2 3121   4.473   2.622   1.743
 1060TIP3   OH2 3122   7.484   4.762   4.336
 1060TIP3    H1 3123   7.463   4.749   4.429
 1060TIP3    H2 3124   7.573   4.795   4.336
 1061TIP3   OH2 3125   0.240   5.752   0.441
 1061TIP3    H1 3126   0.244   5.733   0.534
 1061TIP3    H2 3127   0.169   5.815   0.432
 1062TIP3   OH2 3128   0.590   6.464   6.610
 1062TIP3    H1 3129   0.617   6.501   6.694
 1062TIP3    H2 3130   0.597   6.369   6.622
 1063TIP3   OH2 3131   6.247   4.355  -0.037
 1063TIP3    H1 3132   6.334   4.326  -0.009
 1063TIP3    H2 3133   6.205   4.385   0.043
 1064TIP3   OH2 3134   6.767   0.058   6.736
 1064TIP3    H1 3135   6.737  -0.026   6.771
 1064TIP3    H2 3136   6.853   0.072   6.775
 1065TIP3   OH2 3137   1.128   0.743   0.670
 1065TIP3    H1 3138   1.093   0.743   0.759
 1065TIP3    H2 3139   1.134   0.835   0.647
 1066TIP3   OH2 3140   3.928   0.906   2.620
 1066TIP3    H1 3141   3.903   0.900   2.712
 1066TIP3    H2 3142   3.853   0.872   2.572
 1067TIP3   OH2 3143   2.278   1.463   2.432
 1067TIP3    H1 3144   2.294   1.530   2.365
 1067TIP3    H2 3145   2.261   1.383   2.383
 1068TIP3   OH2 3146   8.000   6.514   4.976
 1068TIP3    H1 3147   8.078   6.466   5.004
 1068TIP3    H2 3148   7.999   6.592   5.032
 1069TIP3   OH2 3149   7.663   5.991   4.443
 1069TIP3    H1 3150   7.753   6.022   4.429
 1069TIP3    H2 3151   7.618   6.009   4.360
 1070TIP3   OH2 3152   3.815   1.463   4.530
 1070TIP3    H1 3153   3.866   1.471   4.610
 1070TIP3    H2 3154   3.755   1.390   4.546
 1071TIP3   OH2 3155   6.436   6.397   0.244
 1071TIP3    H1 3156   6.495   6.459   0.287
 1071TIP3    H2 3157   6.459   6.312   0.280
 1072TIP3   OH2 3158   0.101   3.081   5.281
 1072TIP3    H1 3159   0.016   3.041   5.300
 1072TIP3    H2 3160   0.159   3.046   5.348
 1073TIP3   OH2 3161   4.919   3.091   6.011
 1073TIP3    H1 3162   4.997   3.040   6.031
 1073TIP3    H2 3163   4.923   3.105   5.916
 1074TIP3   OH2 3164   5.858   0.902   1.847
 1074TIP3    H1 3165   5.861   0.966   1.918
 1074TIP3    H2 3166   5.781   0.926   1.795
 1075TIP3   OH2 3167   4.527   5.880   3.328
 1075TIP3    H1 3168   4.442   5.863   3.289
 1075TIP3    H2 3169   4.555   5.795   3.362
 1076TIP3   OH2 3170   1.381   4.826   1.843
 1076TIP3    H1 3171   1.382   4.902   1.785
 1076TIP3    H2 3172   1.473   4.807   1.861
 1077TIP3   OH2 3173   7.334   3.063   5.613
 1077TIP3    H1 3174   7.422   3.090   5.638
 1077TIP3    H2 3175   7.278   3.092   5.685
 1078TIP3   OH2 3176   2.666   1.251   4.378
 1078TIP3    H1 3177   2.760   1.263   4.367
 1078TIP3    H2 3178   2.658   1.171   4.430
 1079TIP3   OH2 3179   3.753   4.819   2.656
 1079TIP3    H1 3180   3.787   4.731   2.641
 1079TIP3    H2 3181   3.763   4.864   2.572
 1080TIP3   OH2 3182   8.013   1.085   6.623
 1080TIP3    H1 3183   8.074   1.146   6.665
 1080TIP3    H2 3184   8.048   1.072   6.535
 1081TIP3   OH2 3185   1.432   2.004   3.269
 1081TIP3    H1 3186   1.360   2.031   3.213
 1081TIP3    H2 3187   1.501   2.069   3.255
 1082TIP3   OH2 3188   2.049   0.838   4.433
 1082TIP3    H1 3189   2.023   0.895   4.506
 1082TIP3    H2 3190   2.087   0.898   4.369
 1083TIP3   OH2 3191   4.003   0.868   1.563
 1083TIP3    H1 3192   3.940   0.888   1.494
 1083TIP3    H2 3193   4.081   0.838   1.517
 1084TIP3   OH2 3194   5.268   0.530   0.937
 1084TIP3    H1 3195   5.301   0.539   0.848
 1084TIP3    H2 3196   5.231   0.616   0.958
 1085TIP3   OH2 3197   2.557   4.481   5.871
 1085TIP3    H1 3198   2.474   4.492   5.917
 1085TIP3    H2 3199   2.623   4.478   5.941
 1086TIP3   OH2 3200   2.141   4.656   4.476
 1086TIP3    H1 3201   2.221   4.617   4.441
 1086TIP3    H2 3202   2.161   4.674   4.568
 1087TIP3   OH2 3203   2.788   4.774   6.321
 1087TIP3    H1 3204   2.740   4.740   6.397
 1087TIP3    H2 3205   2.825   4.696   6.280
 1088TIP3   OH2 3206   2.416   7.091   0.453
 1088TIP3    H1 3207   2.331   7.128   0.474
 1088TIP3    H2 3208   2.415   7.079   0.359
 1089TIP3   OH2 3209   6.394   7.144   1.320
 1089TIP3    H1 3210   6.404   7.237   1.339
 1089TIP3    H2 3211   6.454   7.100   1.380
 1090TIP3   OH2 3212   6.656   0.458   6.765
 1090TIP3    H1 3213   6.599   0.518   6.718
 1090TIP3    H2 3214   6.606   0.377   6.772
 1091TIP3   OH2 3215   8.232   0.235   3.759
 1091TIP3    H1 3216   8.310   0.282   3.788
 1091TIP3    H2 3217   8.199   0.192   3.838
 1092TIP3   OH2 3218   7.118   3.013   3.792
 1092TIP3    H1 3219   7.195   3.022   3.736
 1092TIP3    H2 3220   7.112   2.919   3.809
 1093TIP3   OH2 3221   5.103   1.282   2.962
 1093TIP3    H1 3222   5.020   1.262   2.918
 1093TIP3    H2 3223   5.155   1.203   2.952
 1094TIP3   OH2 3224   2.246   0.517   2.921
 1094TIP3    H1 3225   2.233   0.424   2.941
 1094TIP3    H2 3226   2.297   0.517   2.841
 1095TIP3   OH2 3227   2.254   3.279   2.034
 1095TIP3    H1 3228   2.254   3.353   2.096
 1095TIP3    H2 3229   2.323   3.221   2.066
 1096TIP3   OH2 3230   2.048   2.854   5.084
 1096TIP3    H1 3231   2.073   2.772   5.043
 1096TIP3    H2 3232   2.128   2.907   5.082
 1097TIP3   OH2 3233   6.837   4.055   6.664
 1097TIP3    H1 3234   6.918   4.036   6.617
 1097TIP3    H2 3235   6.865   4.104   6.741
 1098TIP3   OH2 3236   3.337   1.341   0.433
 1098TIP3    H1 3237   3.398   1.394   0.484
 1098TIP3    H2 3238   3.392   1.291   0.373
 1099TIP3   OH2 3239   2.125   1.461   6.643
 1099TIP3    H1 3240   2.105   1.551   6.668
 1099TIP3    H2 3241   2.061   1.440   6.575
 1100TIP3   OH2 3242   7.934   1.393   0.113
 1100TIP3    H1 3243   7.956   1.321   0.174
 1100TIP3    H2 3244   7.840   1.384   0.098
 1101TIP3   OH2 3245   4.003   5.277   6.423
 1101TIP3    H1 3246   3.979   5.253   6.334
 1101TIP3    H2 3247   3.933   5.336   6.452
 1102TIP3   OH2 3248   4.886   7.685   6.716
 1102TIP3    H1 3249   4.976   7.700   6.687
 1102TIP3    H2 3250   4.889   7.696   6.811
 1103TIP3   OH2 3251   4.661   2.623   2.641
 1103TIP3    H1 3252   4.651   2.570   2.720
 1103TIP3    H2 3253   4.571   2.640   2.612
 1104TIP3   OH2 3254   6.084   4.117   3.858
 1104TIP3    H1 3255   6.125   4.049   3.803
 1104TIP3    H2 3256   6.142   4.193   3.850
 1105TIP3   OH2 3257   4.415   1.342   3.488
 1105TIP3    H1 3258   4.482   1.351   3.556
 1105TIP3    H2 3259   4.336   1.378   3.528
 1106TIP3   OH2 3260   5.308   5.961   1.319
 1106TIP3    H1 3261   5.220   5.932   1.297
 1106TIP3    H2 3262   5.337   6.009   1.241
 1107TIP3   OH2 3263   5.057   5.470   2.366
 1107TIP3    H1 3264   5.046   5.491   2.458
 1107TIP3    H2 3265   4.972   5.436   2.338
 1108TIP3   OH2 3266   3.534   6.022   4.080
 1108TIP3    H1 3267   3.569   6.111   4.077
 1108TIP3    H2 3268   3.591   5.971   4.022
 1109TIP3   OH2 3269   1.723   7.738   1.002
 1109TIP3    H1 3270   1.800   7.698   0.961
 1109TIP3    H2 3271   1.727   7.709   1.094
 1110TIP3   OH2 3272   5.299   5.134   0.540
 1110TIP3    H1 3273   5.369   5.137   0.475
 1110TIP3    H2 3274   5.315   5.053   0.589
 1111TIP3   OH2 3275   5.471   5.807   2.775
 1111TIP3    H1 3276   5.528   5.883   2.784
 1111TIP3    H2 3277   5.505   5.743   2.837
 1112TIP3   OH2 3278   1.217   4.444   6.158
 1112TIP3    H1 3279   1.231   4.463   6.251
 1112TIP3    H2 3280   1.189   4.527   6.121
 1113TIP3   OH2 3281   3.389   1.887   6.584
 1113TIP3    H1 3282   3.451   1.886   6.657
 1113TIP3    H2 3283   3.413   1.811   6.531
 1114TIP3   OH2 3284   4.564   5.235   6.355
 1114TIP3    H1 3285   4.581   5.328   6.369
 1114TIP3    H2 3286   4.651   5.194   6.358
 1115TIP3   OH2 3287   1.911   5.995   3.026
 1115TIP3    H1 3288   1.853   6.067   3.049
 1115TIP3    H2 3289   1.935   6.011   2.935
 1116TIP3   OH2 3290   1.297   5.243   3.319
 1116TIP3    H1 3291   1.348   5.202   3.388
 1116TIP3    H2 3292   1.270   5.327   3.354
 1117TIP3   OH2 3293   4.381   0.339   4.903
 1117TIP3    H1 3294   4.293   0.370   4.881
 1117TIP3    H2 3295   4.403   0.386   4.983
 1118TIP3   OH2 3296   4.316   4.927   4.937
 1118TIP3    H1 3297   4.287   4.836   4.935
 1118TIP3    H2 3298   4.313   4.951   5.030
 1119TIP3   OH2 3299   5.412   5.528   1.923
 1119TIP3    H1 3300   5.466   5.509   2.000
 1119TIP3    H2 3301   5.329   5.559   1.960
 1120TIP3   OH2 3302   6.690   7.783   6.176
 1120TIP3    H1 3303   6.775   7.821   6.154
 1120TIP3    H2 3304   6.628   7.828   6.118
 1121TIP3   OH2 3305   2.725   5.879   0.476
 1121TIP3    H1 3306   2.729   5.962   0.429
 1121TIP3    H2 3307   2.651   5.889   0.536
 1122TIP3   OH2 3308   1.953   0.765   2.713
 1122TIP3    H1 3309   1.866   0.805   2.708
 1122TIP3    H2 3310   1.938   0.681   2.757
 1123TIP3   OH2 3311   1.659   7.171  -0.038
 1123TIP3    H1 3312   1.625   7.120   0.036
 1123TIP3    H2 3313   1.685   7.254   0.001
 1124TIP3   OH2 3314   0.754   0.901   0.281
 1124TIP3    H1 3315   0.783   0.835   0.344
 1124TIP3    H2 3316   0.738   0.851   0.201
 1125TIP3   OH2 3317   5.877   6.241   5.072
 1125TIP3    H1 3318   5.799   6.280   5.111
 1125TIP3    H2 3319   5.918   6.192   5.143
 1126TIP3   OH2 3320   4.042   6.831   3.024
 1126TIP3    H1 3321   3.989   6.764   3.068
 1126TIP3    H2 3322   4.058   6.796   2.937
 1127TIP3   OH2 3323   1.863   6.791   2.799
 1127TIP3    H1 3324   1.788   6.750   2.757
 1127TIP3    H2 3325   1.917   6.718   2.828
 1128TIP3   OH2 3326   5.629   7.280   3.885
 1128TIP3    H1 3327   5.602   7.194   3.919
 1128TIP3    H2 3328   5.682   7.318   3.955
 1129TIP3   OH2 3329   5.956   6.207   3.346
 1129TIP3    H1 3330   5.883   6.254   3.307
 1129TIP3    H2 3331   6.028   6.220   3.285
 1130TIP3   OH2 3332   6.083   0.213   3.057
 1130TIP3    H1 3333   6.029   0.170   3.124
 1130TIP3    H2 3334   6.021   0.262   3.004
 1131TIP3   OH2 3335   6.224   5.602   5.840
 1131TIP3    H1 3336   6.273   5.625   5.918
 1131TIP3    H2 3337   6.285   5.549   5.788
 1132TIP3   OH2 3338   4.989   7.459   2.345
 1132TIP3    H1 3339   4.925   7.497   2.404
 1132TIP3    H2 3340   4.984   7.513   2.266
 1133TIP3   OH2 3341   6.976   2.354   1.871
 1133TIP3    H1 3342   6.984   2.357   1.776
 1133TIP3    H2 3343   6.995   2.444   1.899
 1134TIP3   OH2 3344   1.533   4.069   5.915
 1134TIP3    H1 3345   1.510   4.035   6.002
 1134TIP3    H2 3346   1.487   4.153   5.910
 1135TIP3   OH2 3347   7.398   2.772   4.924
 1135TIP3    H1 3348   7.445   2.779   5.007
 1135TIP3    H2 3349   7.453   2.715   4.870
 1136TIP3   OH2 3350   0.890   7.520   4.731
 1136TIP3    H1 3351   0.797   7.518   4.750
 1136TIP3    H2 3352   0.931   7.551   4.812
 1137TIP3   OH2 3353   8.185   7.617   2.430
 1137TIP3    H1 3354   8.256   7.663   2.387
 1137TIP3    H2 3355   8.140   7.684   2.481
 1138TIP3   OH2 3356   3.729   5.658   0.114
 1138TIP3    H1 3357   3.727   5.641   0.208
 1138TIP3    H2 3358   3.820   5.646   0.089
 1139TIP3   OH2 3359   3.377   4.430   1.640
 1139TIP3    H1 3360   3.283   4.438   1.656
 1139TIP3    H2 3361   3.414   4.513   1.669
 1140TIP3   OH2 3362   3.203   6.966   2.125
 1140TIP3    H1 3363   3.148   6.984   2.049
 1140TIP3    H2 3364   3.211   6.870   2.127
 1141TIP3   OH2 3365   4.532   2.971   3.840
 1141TIP3    H1 3366   4.461   2.941   3.897
 1141TIP3    H2 3367   4.508   2.939   3.754
 1142TIP3   OH2 3368   2.934   7.164   3.196
 1142TIP3    H1 3369   2.860   7.123   3.241
 1142TIP3    H2 3370   2.912   7.257   3.193
 1143TIP3   OH2 3371   1.048   1.081   6.346
 1143TIP3    H1 3372   1.019   1.154   6.400
 1143TIP3    H2 3373   1.141   1.096   6.333
 1144TIP3   OH2 3374   3.988   2.282   5.922
 1144TIP3    H1 3375   3.899   2.260   5.951
 1144TIP3    H2 3376   3.982   2.372   5.891
 1145TIP3   OH2 3377   3.505   6.338   2.156
 1145TIP3    H1 3378   3.463   6.274   2.213
 1145TIP3    H2 3379   3.587   6.360   2.201
 1146TIP3   OH2 3380   3.859   4.156   3.856
 1146TIP3    H1 3381   3.932   4.218   3.861
 1146TIP3    H2 3382   3.888   4.090   3.794
 1147TIP3   OH2 3383   3.397   2.419   2.818
 1147TIP3    H1 3384   3.419   2.507   2.790
 1147TIP3    H2 3385   3.391   2.424   2.914
 1148TIP3   OH2 3386   3.028   2.840   0.611
 1148TIP3    H1 3387   3.053   2.930   0.633
 1148TIP3    H2 3388   2.977   2.849   0.531
 1149TIP3   OH2 3389   2.731   5.060   5.068
 1149TIP3    H1 3390   2.807   5.101   5.108
 1149TIP3    H2 3391   2.685   5.018   5.141
 1150TIP3   OH2 3392   7.304   0.107   1.247
 1150TIP3    H1 3393   7.328   0.024   1.204
 1150TIP3    H2 3394   7.339   0.174   1.189
 1151TIP3   OH2 3395   4.148   3.284   4.683
 1151TIP3    H1 3396   4.205   3.271   4.759
 1151TIP3    H2 3397   4.203   3.266   4.607
 1152TIP3   OH2 3398   7.806   4.353   4.682
 1152TIP3    H1 3399   7.879   4.292   4.679
 1152TIP3    H2 3400   7.770   4.342   4.770
 1153TIP3   OH2 3401   4.885   6.060   4.408
 1153TIP3    H1 3402   4.906   5.977   4.365
 1153TIP3    H2 3403   4.897   6.042   4.501
 1154TIP3   OH2 3404   0.428   6.689   0.373
 1154TIP3    H1 3405   0.436   6.636   0.453
 1154TIP3    H2 3406   0.397   6.774   0.404
 1155TIP3   OH2 3407   2.822   7.553   1.145
 1155TIP3    H1 3408   2.772   7.561   1.227
 1155TIP3    H2 3409   2.897   7.611   1.158
 1156TIP3   OH2 3410   1.276   6.399   3.227
 1156TIP3    H1 3411   1.248   6.485   3.258
 1156TIP3    H2 3412   1.351   6.377   3.283
 1157TIP3   OH2 3413   0.512   2.841   4.834
 1157TIP3    H1 3414   0.476   2.759   4.800
 1157TIP3    H2 3415   0.556   2.881   4.759
 1158TIP3   OH2 3416   8.170   3.973   2.468
 1158TIP3    H1 3417   8.089   4.002   2.425
 1158TIP3    H2 3418   8.189   4.041   2.532
 1159TIP3   OH2 3419   4.317   4.700   6.134
 1159TIP3    H1 3420   4.272   4.760   6.194
 1159TIP3    H2 3421   4.247   4.649   6.094
 1160TIP3   OH2 3422   2.966   7.681   6.376
 1160TIP3    H1 3423   3.056   7.710   6.389
 1160TIP3    H2 3424   2.932   7.738   6.307
 1161TIP3   OH2 3425   6.915   0.638   4.450
 1161TIP3    H1 3426   6.860   0.633   4.372
 1161TIP3    H2 3427   6.853   0.627   4.523
 1162TIP3   OH2 3428   6.112   7.648   1.830
 1162TIP3    H1 3429   6.112   7.605   1.744
 1162TIP3    H2 3430   6.026   7.691   1.835
 1163TIP3   OH2 3431   4.281   2.106   4.406
 1163TIP3    H1 3432   4.297   2.138   4.317
 1163TIP3    H2 3433   4.187   2.112   4.417
 1164TIP3   OH2 3434   6.493   4.611   0.700
 1164TIP3    H1 3435   6.414   4.558   0.711
 1164TIP3    H2 3436   6.467   4.681   0.640
 1165TIP3   OH2 3437   7.941   6.806   3.676
 1165TIP3    H1 3438   7.892   6.747   3.619
 1165TIP3    H2 3439   7.955   6.885   3.623
 1166TIP3   OH2 3440   6.992   0.724   3.637
 1166TIP3    H1 3441   7.050   0.771   3.577
 1166TIP3    H2 3442   6.904   0.758   3.617
 1167TIP3   OH2 3443   4.524   6.170   6.283
 1167TIP3    H1 3444   4.478   6.108   6.226
 1167TIP3    H2 3445   4.609   6.183   6.240
 1168TIP3   OH2 3446   2.803   3.830   0.467
 1168TIP3    H1 3447   2.887   3.798   0.499
 1168TIP3    H2 3448   2.825   3.909   0.417
 1169TIP3   OH2 3449   6.206   5.178   4.971
 1169TIP3    H1 3450   6.135   5.183   4.907
 1169TIP3    H2 3451   6.173   5.118   5.038
 1170TIP3   OH2 3452   1.527   0.621   0.907
 1170TIP3    H1 3453   1.610   0.580   0.884
 1170TIP3    H2 3454   1.542   0.659   0.994
 1171TIP3   OH2 3455   2.344   0.818   2.727
 1171TIP3    H1 3456   2.371   0.822   2.636
 1171TIP3    H2 3457   2.271   0.757   2.728
 1172TIP3   OH2 3458   2.385   0.048   3.523
 1172TIP3    H1 3459   2.416   0.003   3.445
 1172TIP3    H2 3460   2.290   0.040   3.520
 1173TIP3   OH2 3461   3.669   2.781   4.357
 1173TIP3    H1 3462   3.727   2.708   4.336
 1173TIP3    H2 3463   3.613   2.748   4.427
 1174TIP3   OH2 3464   6.033   7.537   2.081
 1174TIP3    H1 3465   6.037   7.494   1.996
 1174TIP3    H2 3466   6.013   7.467   2.143
 1175TIP3   OH2 3467   4.040   7.134   3.026
 1175TIP3    H1 3468   3.962   7.134   2.970
 1175TIP3    H2 3469   4.059   7.041   3.041
 1176TIP3   OH2 3470   6.912   5.402   2.135
 1176TIP3    H1 3471   6.876   5.329   2.084
 1176TIP3    H2 3472   6.984   5.435   2.081
 1177TIP3   OH2 3473   4.026   0.861   1.075
 1177TIP3    H1 3474   3.967   0.785   1.075
 1177TIP3    H2 3475   4.084   0.847   1.000
 1178TIP3   OH2 3476   2.657   7.349   2.577
 1178TIP3    H1 3477   2.640   7.441   2.554
 1178TIP3    H2 3478   2.683   7.352   2.670
 1179TIP3   OH2 3479   4.446   1.476   4.183
 1179TIP3    H1 3480   4.450   1.567   4.214
 1179TIP3    H2 3481   4.374   1.476   4.119
 1180TIP3   OH2 3482   7.033   4.959   5.017
 1180TIP3    H1 3483   6.942   4.982   5.036
 1180TIP3    H2 3484   7.045   4.981   4.925
 1181TIP3   OH2 3485   1.668   6.356   4.819
 1181TIP3    H1 3486   1.599   6.384   4.759
 1181TIP3    H2 3487   1.622   6.330   4.898
 1182TIP3   OH2 3488   3.044   2.515   3.265
 1182TIP3    H1 3489   3.021   2.424   3.281
 1182TIP3    H2 3490   3.097   2.513   3.185
 1183TIP3   OH2 3491   6.205   4.338   6.577
 1183TIP3    H1 3492   6.140   4.325   6.646
 1183TIP3    H2 3493   6.281   4.288   6.607
 1184TIP3   OH2 3494   4.224   1.009   0.413
 1184TIP3    H1 3495   4.132   1.032   0.426
 1184TIP3    H2 3496   4.248   1.053   0.331
 1185TIP3   OH2 3497   1.277   5.809   2.566
 1185TIP3    H1 3498   1.369   5.810   2.538
 1185TIP3    H2 3499   1.257   5.900   2.587
 1186TIP3   OH2 3500   0.093   7.688   3.519
 1186TIP3    H1 3501   0.162   7.630   3.486
 1186TIP3    H2 3502   0.067   7.650   3.603
 1187TIP3   OH2 3503   7.283   1.252   1.634
 1187TIP3    H1 3504   7.245   1.340   1.629
 1187TIP3    H2 3505   7.376   1.265   1.619
 1188TIP3   OH2 3506   4.232   1.444   4.010
 1188TIP3    H1 3507   4.236   1.501   3.933
 1188TIP3    H2 3508   4.212   1.357   3.974
 1189TIP3   OH2 3509   7.368   2.948   0.654
 1189TIP3    H1 3510   7.449   2.897   0.652
 1189TIP3    H2 3511   7.392   3.032   0.614
 1190TIP3   OH2 3512   3.780   6.263   4.430
 1190TIP3    H1 3513   3.781   6.213   4.511
 1190TIP3    H2 3514   3.740   6.347   4.453
 1191TIP3   OH2 3515   1.173   4.595   3.363
 1191TIP3    H1 3516   1.178   4.606   3.268
 1191TIP3    H2 3517   1.212   4.674   3.398
 1192TIP3   OH2 3518   8.177   0.094   0.395
 1192TIP3    H1 3519   8.182   0.185   0.424
 1192TIP3    H2 3520   8.116   0.096   0.321
 1193TIP3   OH2 3521   4.640   0.706   4.100
 1193TIP3    H1 3522   4.548   0.679   4.090
 1193TIP3    H2 3523   4.635   0.799   4.120
 1194TIP3   OH2 3524   1.666   5.893   5.709
 1194TIP3    H1 3525   1.728   5.943   5.656
 1194TIP3    H2 3526   1.718   5.865   5.785
 1195TIP3   OH2 3527   3.029   3.133   6.554
 1195TIP3    H1 3528   3.049   3.201   6.619
 1195TIP3    H2 3529   3.104   3.136   6.494
 1196TIP3   OH2 3530   6.639   7.571   5.324
 1196TIP3    H1 3531   6.683   7.542   5.244
 1196TIP3    H2 3532   6.557   7.610   5.294
 1197TIP3   OH2 3533   0.766   5.646   6.240
 1197TIP3    H1 3534   0.841   5.587   6.229
 1197TIP3    H2 3535   0.704   5.596   6.293
 1198TIP3   OH2 3536   7.258   6.278   1.794
 1198TIP3    H1 3537   7.229   6.204   1.848
 1198TIP3    H2 3538   7.348   6.293   1.822
 1199TIP3   OH2 3539   0.575   4.264   6.413
 1199TIP3    H1 3540   0.582   4.199   6.343
 1199TIP3    H2 3541   0.657   4.256   6.462
 1200TIP3   OH2 3542   7.363   6.357   5.838
 1200TIP3    H1 3543   7.378   6.400   5.754
 1200TIP3    H2 3544   7.350   6.430   5.899
 1201TIP3   OH2 3545   6.740   2.542   3.567
 1201TIP3    H1 3546   6.777   2.621   3.528
 1201TIP3    H2 3547   6.729   2.563   3.660
 1202TIP3   OH2 3548   3.669   0.290   1.330
 1202TIP3    H1 3549   3.719   0.248   1.260
 1202TIP3    H2 3550   3.578   0.278   1.304
 1203TIP3   OH2 3551   7.955   0.338   4.933
 1203TIP3    H1 3552   7.970   0.256   4.980
 1203TIP3    H2 3553   7.903   0.391   4.994
 1204TIP3   OH2 3554   7.616   6.634   5.774
 1204TIP3    H1 3555   7.572   6.555   5.743
 1204TIP3    H2 3556   7.548   6.701   5.776
 1205TIP3   OH2 3557   7.283   7.022   2.111
 1205TIP3    H1 3558   7.372   7.015   2.145
 1205TIP3    H2 3559   7.231   6.967   2.169
 1206TIP3   OH2 3560   0.129   3.225   1.630
 1206TIP3    H1 3561   0.057   3.186   1.579
 1206TIP3    H2 3562   0.195   3.156   1.633
 1207TIP3   OH2 3563   2.320   7.251   3.809
 1207TIP3    H1 3564   2.358   7.222   3.726
 1207TIP3    H2 3565   2.355   7.339   3.821
 1208TIP3   OH2 3566   6.048   0.302   5.419
 1208TIP3    H1 3567   6.007   0.219   5.392
 1208TIP3    H2 3568   6.141   0.288   5.407
 1209TIP3   OH2 3569   0.723   6.511   2.949
 1209TIP3    H1 3570   0.709   6.430   2.996
 1209TIP3    H2 3571   0.636   6.551   2.942
 1210TIP3   OH2 3572   2.583   3.156   1.561
 1210TIP3    H1 3573   2.546   3.071   1.586
 1210TIP3    H2 3574   2.668   3.134   1.522
 1211TIP3   OH2 3575   3.509   3.720   3.105
 1211TIP3    H1 3576   3.532   3.770   3.027
 1211TIP3    H2 3577   3.515   3.628   3.077
 1212TIP3   OH2 3578   3.088   5.504   2.910
 1212TIP3    H1 3579   3.088   5.575   2.846
 1212TIP3    H2 3580   3.005   5.457   2.894
 1213TIP3   OH2 3581   2.770   6.284   1.737
 1213TIP3    H1 3582   2.694   6.331   1.772
 1213TIP3    H2 3583   2.845   6.327   1.777
 1214TIP3   OH2 3584   7.676   4.693   4.655
 1214TIP3    H1 3585   7.581   4.698   4.651
 1214TIP3    H2 3586   7.698   4.611   4.610
 1215TIP3   OH2 3587   2.040   1.693   1.568
 1215TIP3    H1 3588   1.976   1.642   1.519
 1215TIP3    H2 3589   2.085   1.629   1.624
 1216TIP3   OH2 3590   1.814   3.230   1.396
 1216TIP3    H1 3591   1.728   3.216   1.356
 1216TIP3    H2 3592   1.811   3.321   1.427
 1217TIP3   OH2 3593   8.250   0.654   3.543
 1217TIP3    H1 3594   8.290   0.604   3.472
 1217TIP3    H2 3595   8.307   0.730   3.555
 1218TIP3   OH2 3596   4.166   1.806   6.141
 1218TIP3    H1 3597   4.182   1.845   6.227
 1218TIP3    H2 3598   4.200   1.870   6.079
 1219TIP3   OH2 3599   6.580   4.876   1.892
 1219TIP3    H1 3600   6.674   4.861   1.879
 1219TIP3    H2 3601   6.537   4.803   1.847
 1220TIP3   OH2 3602   6.856   0.849   2.699
 1220TIP3    H1 3603   6.867   0.914   2.769
 1220TIP3    H2 3604   6.772   0.807   2.719
 1221TIP3   OH2 3605   0.743   4.533   6.638
 1221TIP3    H1 3606   0.722   4.575   6.555
 1221TIP3    H2 3607   0.760   4.442   6.615
 1222TIP3   OH2 3608   7.963   0.693   5.776
 1222TIP3    H1 3609   7.941   0.614   5.826
 1222TIP3    H2 3610   8.056   0.706   5.792
 1223TIP3   OH2 3611   5.208   6.012   0.509
 1223TIP3    H1 3612   5.297   6.046   0.502
 1223TIP3    H2 3613   5.219   5.917   0.516
 1224TIP3   OH2 3614   5.601   3.964   6.557
 1224TIP3    H1 3615   5.583   3.883   6.510
 1224TIP3    H2 3616   5.516   4.008   6.562
 1225TIP3   OH2 3617   1.262   7.426   3.889
 1225TIP3    H1 3618   1.317   7.477   3.950
 1225TIP3    H2 3619   1.281   7.463   3.803
 1226TIP3   OH2 3620   3.520   6.806   5.392
 1226TIP3    H1 3621   3.441   6.762   5.425
 1226TIP3    H2 3622   3.548   6.752   5.318
 1227TIP3   OH2 3623   6.588   7.679   0.262
 1227TIP3    H1 3624   6.548   7.600   0.298
 1227TIP3    H2 3625   6.682   7.661   0.262
 1228TIP3   OH2 3626   7.325   3.586   0.638
 1228TIP3    H1 3627   7.327   3.636   0.557
 1228TIP3    H2 3628   7.301   3.650   0.705
 1229TIP3   OH2 3629   5.175   0.238   0.350
 1229TIP3    H1 3630   5.194   0.323   0.391
 1229TIP3    H2 3631   5.259   0.210   0.313
 1230TIP3   OH2 3632   7.345   1.052   4.684
 1230TIP3    H1 3633   7.386   1.117   4.626
 1230TIP3    H2 3634   7.351   0.970   4.635
 1231TIP3   OH2 3635   1.952   2.705   5.894
 1231TIP3    H1 3636   1.950   2.666   5.807
 1231TIP3    H2 3637   2.018   2.655   5.941
 1232TIP3   OH2 3638   4.921   6.386   6.190
 1232TIP3    H1 3639   4.920   6.308   6.133
 1232TIP3    H2 3640   4.837   6.428   6.173
 1233TIP3   OH2 3641   6.718   4.016   5.588
 1233TIP3    H1 3642   6.796   4.062   5.558
 1233TIP3    H2 3643   6.665   4.003   5.509
 1234TIP3   OH2 3644   5.832   3.381   5.943
 1234TIP3    H1 3645   5.886   3.420   6.011
 1234TIP3    H2 3646   5.850   3.434   5.865
 1235TIP3   OH2 3647   5.449   2.667   3.811
 1235TIP3    H1 3648   5.357   2.638   3.804
 1235TIP3    H2 3649   5.460   2.688   3.903
 1236TIP3   OH2 3650   3.403   1.015   1.616
 1236TIP3    H1 3651   3.371   0.927   1.634
 1236TIP3    H2 3652   3.330   1.058   1.570
 1237TIP3   OH2 3653   3.597   4.741   2.017
 1237TIP3    H1 3654   3.559   4.822   1.982
 1237TIP3    H2 3655   3.686   4.740   1.984
 1238TIP3   OH2 3656   3.992   6.453   5.459
 1238TIP3    H1 3657   3.960   6.365   5.479
 1238TIP3    H2 3658   3.993   6.457   5.363
 1239TIP3   OH2 3659   1.715   2.361   4.760
 1239TIP3    H1 3660   1.623   2.363   4.733
 1239TIP3    H2 3661   1.727   2.442   4.810
 1240TIP3   OH2 3662   4.715   4.291   0.752
 1240TIP3    H1 3663   4.723   4.273   0.658
 1240TIP3    H2 3664   4.624   4.316   0.764
 1241TIP3   OH2 3665   1.458   0.229   4.603
 1241TIP3    H1 3666   1.464   0.155   4.542
 1241TIP3    H2 3667   1.544   0.233   4.644
 1242TIP3   OH2 3668   0.864   5.755   5.231
 1242TIP3    H1 3669   0.818   5.723   5.153
 1242TIP3    H2 3670   0.800   5.810   5.276
 1243TIP3   OH2 3671   1.914   2.586   5.646
 1243TIP3    H1 3672   1.884   2.509   5.694
 1243TIP3    H2 3673   1.863   2.586   5.565
 1244TIP3   OH2 3674   2.218   7.786   6.522
 1244TIP3    H1 3675   2.127   7.798   6.550
 1244TIP3    H2 3676   2.212   7.732   6.443
 1245TIP3   OH2 3677   4.971   5.270   1.666
 1245TIP3    H1 3678   4.893   5.301   1.713
 1245TIP3    H2 3679   5.015   5.350   1.638
 1246TIP3   OH2 3680   5.171   3.176   0.255
 1246TIP3    H1 3681   5.088   3.199   0.295
 1246TIP3    H2 3682   5.149   3.108   0.191
 1247TIP3   OH2 3683   5.835   6.540   3.634
 1247TIP3    H1 3684   5.863   6.560   3.724
 1247TIP3    H2 3685   5.882   6.460   3.611
 1248TIP3   OH2 3686   3.091   0.280   2.625
 1248TIP3    H1 3687   3.062   0.361   2.666
 1248TIP3    H2 3688   3.085   0.214   2.695
 1249TIP3   OH2 3689   7.027   0.345   4.489
 1249TIP3    H1 3690   6.970   0.396   4.432
 1249TIP3    H2 3691   7.001   0.254   4.474
 1250TIP3   OH2 3692   4.110   5.572   5.004
 1250TIP3    H1 3693   4.101   5.612   4.917
 1250TIP3    H2 3694   4.033   5.515   5.011
 1251TIP3   OH2 3695   7.382   5.937   6.321
 1251TIP3    H1 3696   7.476   5.954   6.327
 1251TIP3    H2 3697   7.376   5.853   6.274
 1252TIP3   OH2 3698   0.041   6.346   0.794
 1252TIP3    H1 3699   0.046   6.424   0.849
 1252TIP3    H2 3700   0.091   6.369   0.715
 1253TIP3   OH2 3701   0.641   1.811   6.705
 1253TIP3    H1 3702   0.680   1.731   6.739
 1253TIP3    H2 3703   0.611   1.788   6.617
 1254TIP3   OH2 3704   5.684   5.870   6.323
 1254TIP3    H1 3705   5.644   5.791   6.361
 1254TIP3    H2 3706   5.756   5.837   6.270
 1255TIP3   OH2 3707   2.175   5.039   1.380
 1255TIP3    H1 3708   2.263   5.013   1.353
 1255TIP3    H2 3709   2.140   5.087   1.305
 1256TIP3   OH2 3710   2.608   2.799   0.360
 1256TIP3    H1 3711   2.628   2.843   0.277
 1256TIP3    H2 3712   2.530   2.747   0.341
 1257TIP3   OH2 3713   3.791   7.344   1.599
 1257TIP3    H1 3714   3.855   7.409   1.571
 1257TIP3    H2 3715   3.706   7.383   1.575
 1258TIP3   OH2 3716   6.964   1.057   6.232
 1258TIP3    H1 3717   7.030   1.044   6.301
 1258TIP3    H2 3718   7.003   1.018   6.154
 1259TIP3   OH2 3719   4.642   1.295   5.243
 1259TIP3    H1 3720   4.711   1.359   5.229
 1259TIP3    H2 3721   4.686   1.210   5.233
 1260TIP3   OH2 3722   3.193   5.337   6.352
 1260TIP3    H1 3723   3.183   5.288   6.434
 1260TIP3    H2 3724   3.147   5.420   6.368
 1261TIP3   OH2 3725   0.408   3.945   6.437
 1261TIP3    H1 3726   0.380   3.977   6.351
 1261TIP3    H2 3727   0.501   3.923   6.425
 1262TIP3   OH2 3728   7.067   4.657   6.019
 1262TIP3    H1 3729   7.095   4.645   5.929
 1262TIP3    H2 3730   6.987   4.604   6.026
 1263TIP3   OH2 3731   1.728   0.820   4.899
 1263TIP3    H1 3732   1.724   0.873   4.979
 1263TIP3    H2 3733   1.646   0.840   4.853
 1264TIP3   OH2 3734   7.711   7.325   1.893
 1264TIP3    H1 3735   7.783   7.262   1.896
 1264TIP3    H2 3736   7.632   7.272   1.905
 1265TIP3   OH2 3737   8.174   7.439   1.184
 1265TIP3    H1 3738   8.217   7.416   1.267
 1265TIP3    H2 3739   8.081   7.427   1.201
 1266TIP3   OH2 3740   6.739   2.740   3.171
 1266TIP3    H1 3741   6.691   2.657   3.175
 1266TIP3    H2 3742   6.679   2.800   3.126
 1267TIP3   OH2 3743   7.022   3.790   4.462
 1267TIP3    H1 3744   7.079   3.860   4.491
 1267TIP3    H2 3745   6.954   3.834   4.411
 1268TIP3   OH2 3746   1.187   5.614   3.805
 1268TIP3    H1 3747   1.092   5.598   3.804
 1268TIP3    H2 3748   1.208   5.641   3.716
 1269TIP3   OH2 3749   1.527   5.810   2.445
 1269TIP3    H1 3750   1.521   5.899   2.409
 1269TIP3    H2 3751   1.613   5.808   2.487
 1270TIP3   OH2 3752   3.285   0.655   4.554
 1270TIP3    H1 3753   3.277   0.561   4.570
 1270TIP3    H2 3754   3.207   0.693   4.594
 1271TIP3   OH2 3755   0.151   2.723   0.568
 1271TIP3    H1 3756   0.175   2.645   0.517
 1271TIP3    H2 3757   0.057   2.715   0.583
 1272TIP3   OH2 3758   5.711   1.138   5.344
 1272TIP3    H1 3759   5.704   1.195   5.421
 1272TIP3    H2 3760   5.756   1.060   5.376
 1273TIP3   OH2 3761   1.662   1.508   3.305
 1273TIP3    H1 3762   1.750   1.517   3.268
 1273TIP3    H2 3763   1.603   1.524   3.231
 1274TIP3   OH2 3764   3.619   0.630   6.384
 1274TIP3    H1 3765   3.581   0.667   6.305
 1274TIP3    H2 3766   3.691   0.575   6.353
 1275TIP3   OH2 3767   4.452   7.776   6.403
 1275TIP3    H1 3768   4.391   7.838   6.363
 1275TIP3    H2 3769   4.455   7.801   6.496
 1276TIP3   OH2 3770   1.002   0.324   5.896
 1276TIP3    H1 3771   1.063   0.380   5.944
 1276TIP3    H2 3772   1.003   0.358   5.807
 1277TIP3   OH2 3773   1.908   6.277   0.369
 1277TIP3    H1 3774   1.935   6.189   0.345
 1277TIP3    H2 3775   1.828   6.265   0.420
 1278TIP3   OH2 3776   3.999   3.911   1.633
 1278TIP3    H1 3777   4.091   3.925   1.609
 1278TIP3    H2 3778   3.966   3.999   1.651
 1279TIP3   OH2 3779   1.719   5.452   3.294
 1279TIP3    H1 3780   1.797   5.505   3.278
 1279TIP3    H2 3781   1.711   5.397   3.217
 1280TIP3   OH2 3782   7.322   5.947   3.168
 1280TIP3    H1 3783   7.271   5.990   3.237
 1280TIP3    H2 3784   7.361   6.018   3.119
 1281TIP3   OH2 3785   1.463   2.206   4.114
 1281TIP3    H1 3786   1.376   2.170   4.100
 1281TIP3    H2 3787   1.522   2.138   4.080
 1282TIP3   OH2 3788   4.844   5.101   2.805
 1282TIP3    H1 3789   4.878   5.015   2.828
 1282TIP3    H2 3790   4.917   5.161   2.821
 1283TIP3   OH2 3791   5.102   0.136   1.073
 1283TIP3    H1 3792   5.033   0.085   1.115
 1283TIP3    H2 3793   5.056   0.207   1.028
 1284TIP3   OH2 3794   1.943   4.888   1.096
 1284TIP3    H1 3795   2.028   4.844   1.100
 1284TIP3    H2 3796   1.897   4.860   1.175
 1285TIP3   OH2 3797   0.361   0.301   1.119
 1285TIP3    H1 3798   0.334   0.244   1.191
 1285TIP3    H2 3799   0.297   0.283   1.050
 1286TIP3   OH2 3800   2.493   0.652   1.080
 1286TIP3    H1 3801   2.440   0.574   1.065
 1286TIP3    H2 3802   2.580   0.618   1.100
 1287TIP3   OH2 3803   6.403   4.382   5.196
 1287TIP3    H1 3804   6.378   4.297   5.162
 1287TIP3    H2 3805   6.338   4.401   5.263
 1288TIP3   OH2 3806   1.856   3.900   1.340
 1288TIP3    H1 3807   1.887   3.932   1.425
 1288TIP3    H2 3808   1.761   3.913   1.343
 1289TIP3   OH2 3809   2.045   3.861   2.465
 1289TIP3    H1 3810   1.981   3.834   2.531
 1289TIP3    H2 3811   2.042   3.792   2.399
 1290TIP3   OH2 3812   4.908   0.119   2.645
 1290TIP3    H1 3813   4.830   0.124   2.590
 1290TIP3    H2 3814   4.930   0.211   2.663
 1291TIP3   OH2 3815   7.633   0.252   0.989
 1291TIP3    H1 3816   7.621   0.346   1.001
 1291TIP3    H2 3817   7.725   0.242   0.964
 1292TIP3   OH2 3818   6.346   2.845   1.049
 1292TIP3    H1 3819   6.326   2.773   1.108
 1292TIP3    H2 3820   6.278   2.910   1.067
 1293TIP3   OH2 3821   4.925   3.348   4.651
 1293TIP3    H1 3822   4.896   3.416   4.712
 1293TIP3    H2 3823   5.019   3.363   4.641
 1294TIP3   OH2 3824   4.559   2.191   0.719
 1294TIP3    H1 3825   4.583   2.138   0.643
 1294TIP3    H2 3826   4.548   2.279   0.684
 1295TIP3   OH2 3827   3.904   3.990   4.469
 1295TIP3    H1 3828   3.810   3.972   4.477
 1295TIP3    H2 3829   3.918   4.071   4.518
 1296TIP3   OH2 3830   0.212   5.884   3.433
 1296TIP3    H1 3831   0.151   5.872   3.507
 1296TIP3    H2 3832   0.256   5.967   3.452
 1297TIP3   OH2 3833   7.222   4.819   1.780
 1297TIP3    H1 3834   7.200   4.730   1.753
 1297TIP3    H2 3835   7.275   4.808   1.859
 1298TIP3   OH2 3836   4.576   5.077   3.575
 1298TIP3    H1 3837   4.561   5.121   3.492
 1298TIP3    H2 3838   4.626   5.140   3.627
 1299TIP3   OH2 3839   5.771   7.752   0.277
 1299TIP3    H1 3840   5.782   7.838   0.316
 1299TIP3    H2 3841   5.702   7.711   0.329
 1300TIP3   OH2 3842   5.064   1.000   0.647
 1300TIP3    H1 3843   5.103   1.060   0.710
 1300TIP3    H2 3844   4.987   1.047   0.614
 1301TIP3   OH2 3845   7.945   7.235   0.111
 1301TIP3    H1 3846   8.010   7.303   0.129
 1301TIP3    H2 3847   7.983   7.155   0.148
 1302TIP3   OH2 3848   1.134   5.148   4.762
 1302TIP3    H1 3849   1.209   5.142   4.702
 1302TIP3    H2 3850   1.169   5.116   4.845
 1303TIP3   OH2 3851   7.074   4.905   5.752
 1303TIP3    H1 3852   7.089   4.970   5.821
 1303TIP3    H2 3853   7.162   4.885   5.718
 1304TIP3   OH2 3854   2.911   1.261   2.649
 1304TIP3    H1 3855   2.977   1.279   2.582
 1304TIP3    H2 3856   2.948   1.189   2.700
 1305TIP3   OH2 3857   2.644   4.506   4.387
 1305TIP3    H1 3858   2.686   4.423   4.365
 1305TIP3    H2 3859   2.713   4.556   4.431
 1306TIP3   OH2 3860   7.598   4.498   5.486
 1306TIP3    H1 3861   7.587   4.443   5.564
 1306TIP3    H2 3862   7.594   4.588   5.519
 1307TIP3   OH2 3863   1.359   3.000   3.966
 1307TIP3    H1 3864   1.374   3.086   4.006
 1307TIP3    H2 3865   1.433   2.948   3.994
 1308TIP3   OH2 3866   7.860   1.510   0.623
 1308TIP3    H1 3867   7.945   1.543   0.593
 1308TIP3    H2 3868   7.819   1.474   0.545
 1309TIP3   OH2 3869   2.875   1.379   3.201
 1309TIP3    H1 3870   2.793   1.379   3.151
 1309TIP3    H2 3871   2.884   1.288   3.230
 1310TIP3   OH2 3872   1.556   6.345   2.694
 1310TIP3    H1 3873   1.462   6.329   2.689
 1310TIP3    H2 3874   1.589   6.319   2.608
 1311TIP3   OH2 3875   0.080   1.719   2.153
 1311TIP3    H1 3876   0.120   1.651   2.098
 1311TIP3    H2 3877  -0.011   1.690   2.164
 1312TIP3   OH2 3878   6.130   5.176   0.689
 1312TIP3    H1 3879   6.075   5.103   0.661
 1312TIP3    H2 3880   6.088   5.209   0.768
 1313TIP3   OH2 3881   1.264   0.650   4.924
 1313TIP3    H1 3882   1.215   0.719   4.968
 1313TIP3    H2 3883   1.356   0.672   4.938
 1314TIP3   OH2 3884   1.449   4.612   0.025
 1314TIP3    H1 3885   1.537   4.606   0.061
 1314TIP3    H2 3886   1.399   4.661   0.091
 1315TIP3   OH2 3887   3.285   6.393   1.365
 1315TIP3    H1 3888   3.347   6.449   1.317
 1315TIP3    H2 3889   3.229   6.356   1.297
 1316TIP3   OH2 3890   1.039   6.113   0.040
 1316TIP3    H1 3891   1.066   6.078  -0.045
 1316TIP3    H2 3892   1.105   6.179   0.061
 1317TIP3   OH2 3893   1.709   6.199   3.077
 1317TIP3    H1 3894   1.626   6.170   3.115
 1317TIP3    H2 3895   1.725   6.284   3.118
 1318TIP3   OH2 3896   2.002   2.504   3.222
 1318TIP3    H1 3897   1.906   2.502   3.220
 1318TIP3    H2 3898   2.024   2.489   3.314
 1319TIP3   OH2 3899   4.085   7.676   5.652
 1319TIP3    H1 3900   4.039   7.722   5.582
 1319TIP3    H2 3901   4.088   7.739   5.724
 1320TIP3   OH2 3902   7.190   1.296   5.408
 1320TIP3    H1 3903   7.259   1.361   5.395
 1320TIP3    H2 3904   7.109   1.345   5.393
 1321TIP3   OH2 3905   4.199   7.631   2.350
 1321TIP3    H1 3906   4.202   7.555   2.292
 1321TIP3    H2 3907   4.124   7.614   2.407
 1322TIP3   OH2 3908   0.600   3.478   4.981
 1322TIP3    H1 3909   0.661   3.446   5.049
 1322TIP3    H2 3910   0.558   3.554   5.021
 1323TIP3   OH2 3911   4.890   0.081   2.259
 1323TIP3    H1 3912   4.876   0.056   2.168
 1323TIP3    H2 3913   4.939   0.163   2.255
 1324TIP3   OH2 3914   7.429   2.575   6.327
 1324TIP3    H1 3915   7.498   2.641   6.315
 1324TIP3    H2 3916   7.476   2.491   6.325
 1325TIP3   OH2 3917   4.532   6.854   2.298
 1325TIP3    H1 3918   4.514   6.825   2.387
 1325TIP3    H2 3919   4.445   6.868   2.259
 1326TIP3   OH2 3920   0.624   0.909   3.727
 1326TIP3    H1 3921   0.701   0.959   3.753
 1326TIP3    H2 3922   0.579   0.889   3.810
 1327TIP3   OH2 3923   1.983   7.290   4.256
 1327TIP3    H1 3924   1.929   7.368   4.265
 1327TIP3    H2 3925   2.058   7.319   4.204
 1328TIP3   OH2 3926   4.094   0.590   3.935
 1328TIP3    H1 3927   4.175   0.583   3.986
 1328TIP3    H2 3928   4.047   0.663   3.975
 1329TIP3   OH2 3929   4.528   7.673   2.268
 1329TIP3    H1 3930   4.506   7.699   2.179
 1329TIP3    H2 3931   4.493   7.584   2.277
 1330TIP3   OH2 3932   3.119   2.985   6.069
 1330TIP3    H1 3933   3.157   2.966   6.155
 1330TIP3    H2 3934   3.099   3.079   6.072
 1331TIP3   OH2 3935   2.440   5.753   4.711
 1331TIP3    H1 3936   2.485   5.836   4.728
 1331TIP3    H2 3937   2.511   5.690   4.700
 1332TIP3   OH2 3938   7.722   4.304   0.541
 1332TIP3    H1 3939   7.773   4.344   0.611
 1332TIP3    H2 3940   7.756   4.344   0.461
 1333TIP3   OH2 3941   6.076   6.847   1.975
 1333TIP3    H1 3942   6.005   6.910   1.963
 1333TIP3    H2 3943   6.118   6.873   2.056
 1334TIP3   OH2 3944   2.267   1.249   4.555
 1334TIP3    H1 3945   2.350   1.280   4.591
 1334TIP3    H2 3946   2.200   1.296   4.604
 1335TIP3   OH2 3947   4.636   3.351   5.463
 1335TIP3    H1 3948   4.629   3.445   5.450
 1335TIP3    H2 3949   4.547   3.322   5.484
 1336TIP3   OH2 3950   3.992   2.080   4.126
 1336TIP3    H1 3951   3.929   2.074   4.054
 1336TIP3    H2 3952   4.076   2.091   4.083
 1337TIP3   OH2 3953   5.120   6.816   6.438
 1337TIP3    H1 3954   5.037   6.839   6.479
 1337TIP3    H2 3955   5.139   6.728   6.470
 1338TIP3   OH2 3956   3.509   5.642   5.060
 1338TIP3    H1 3957   3.464   5.695   4.994
 1338TIP3    H2 3958   3.442   5.624   5.126
 1339TIP3   OH2 3959   1.607   1.505   5.774
 1339TIP3    H1 3960   1.577   1.419   5.742
 1339TIP3    H2 3961   1.575   1.509   5.864
 1340TIP3   OH2 3962   0.525   5.916   1.815
 1340TIP3    H1 3963   0.611   5.933   1.853
 1340TIP3    H2 3964   0.481   5.860   1.879
 1341TIP3   OH2 3965   4.506   2.197   5.553
 1341TIP3    H1 3966   4.521   2.153   5.469
 1341TIP3    H2 3967   4.457   2.276   5.530
 1342TIP3   OH2 3968   5.350   7.623   4.294
 1342TIP3    H1 3969   5.294   7.579   4.358
 1342TIP3    H2 3970   5.297   7.627   4.214
 1343TIP3   OH2 3971   4.654   0.465   5.250
 1343TIP3    H1 3972   4.729   0.505   5.206
 1343TIP3    H2 3973   4.585   0.531   5.245
 1344TIP3   OH2 3974   7.253   1.889   4.583
 1344TIP3    H1 3975   7.233   1.965   4.637
 1344TIP3    H2 3976   7.230   1.814   4.638
 1345TIP3   OH2 3977   7.919   6.572   5.979
 1345TIP3    H1 3978   7.882   6.487   6.002
 1345TIP3    H2 3979   7.963   6.557   5.895
 1346TIP3   OH2 3980   0.796   5.091   0.277
 1346TIP3    H1 3981   0.800   5.013   0.222
 1346TIP3    H2 3982   0.882   5.133   0.264
 1347TIP3   OH2 3983   1.020   7.651   5.846
 1347TIP3    H1 3984   1.032   7.582   5.781
 1347TIP3    H2 3985   0.927   7.674   5.840
 1348TIP3   OH2 3986   4.312   3.724   1.722
 1348TIP3    H1 3987   4.304   3.804   1.669
 1348TIP3    H2 3988   4.379   3.746   1.787
 1349TIP3   OH2 3989   2.614   4.384   0.909
 1349TIP3    H1 3990   2.697   4.393   0.863
 1349TIP3    H2 3991   2.579   4.300   0.880
 1350TIP3   OH2 3992   6.549   5.622   1.118
 1350TIP3    H1 3993   6.511   5.666   1.194
 1350TIP3    H2 3994   6.474   5.600   1.062
 1351TIP3   OH2 3995   3.542   5.116   2.874
 1351TIP3    H1 3996   3.532   5.129   2.780
 1351TIP3    H2 3997   3.492   5.188   2.914
 1352TIP3   OH2 3998   7.472   1.978   0.362
 1352TIP3    H1 3999   7.453   1.945   0.275
 1352TIP3    H2 4000   7.413   1.929   0.420
 1353TIP3   OH2 4001   6.643   3.582   3.020
 1353TIP3    H1 4002   6.713   3.581   2.954
 1353TIP3    H2 4003   6.602   3.668   3.009
 1354TIP3   OH2 4004   0.674   3.123   6.795
 1354TIP3    H1 4005   0.672   3.050   6.857
 1354TIP3    H2 4006   0.694   3.083   6.711
 1355TIP3   OH2 4007   8.000   5.205   5.597
 1355TIP3    H1 4008   8.034   5.204   5.507
 1355TIP3    H2 4009   7.985   5.113   5.617
 1356TIP3   OH2 4010   6.573   6.829   0.041
 1356TIP3    H1 4011   6.610   6.746   0.012
 1356TIP3    H2 4012   6.563   6.880  -0.040
 1357TIP3   OH2 4013   1.774   7.012   0.344
 1357TIP3    H1 4014   1.854   7.009   0.292
 1357TIP3    H2 4015   1.800   6.978   0.430
 1358TIP3   OH2 4016   0.526   0.964   4.176
 1358TIP3    H1 4017   0.476   0.898   4.224
 1358TIP3    H2 4018   0.543   1.033   4.241
 1359TIP3   OH2 4019   7.710   5.402   4.454
 1359TIP3    H1 4020   7.686   5.471   4.391
 1359TIP3    H2 4021   7.631   5.390   4.506
 1360TIP3   OH2 4022   0.420   6.996   6.747
 1360TIP3    H1 4023   0.355   6.933   6.718
 1360TIP3    H2 4024   0.504   6.955   6.726
 1361TIP3   OH2 4025   2.433   2.702   2.369
 1361TIP3    H1 4026   2.483   2.779   2.396
 1361TIP3    H2 4027   2.393   2.727   2.286
 1362TIP3   OH2 4028   2.255   7.776   0.144
 1362TIP3    H1 4029   2.208   7.717   0.203
 1362TIP3    H2 4030   2.348   7.761   0.162
 1363TIP3   OH2 4031   4.342   3.738   5.292
 1363TIP3    H1 4032   4.384   3.783   5.365
 1363TIP3    H2 4033   4.409   3.732   5.225
 1364TIP3   OH2 4034   3.608   6.489   2.962
 1364TIP3    H1 4035   3.576   6.551   2.897
 1364TIP3    H2 4036   3.548   6.414   2.955
 1365TIP3   OH2 4037   6.385   1.433   1.838
 1365TIP3    H1 4038   6.409   1.369   1.771
 1365TIP3    H2 4039   6.379   1.516   1.791
 1366TIP3   OH2 4040   1.534   2.690   2.790
 1366TIP3    H1 4041   1.472   2.648   2.849
 1366TIP3    H2 4042   1.618   2.650   2.810
 1367TIP3   OH2 4043   2.198   0.661   2.043
 1367TIP3    H1 4044   2.224   0.656   1.951
 1367TIP3    H2 4045   2.265   0.715   2.084
 1368TIP3   OH2 4046   3.988   3.790   5.833
 1368TIP3    H1 4047   4.082   3.772   5.836
 1368TIP3    H2 4048   3.955   3.763   5.919
 1369TIP3   OH2 4049   1.913   1.893   4.895
 1369TIP3    H1 4050   1.831   1.850   4.918
 1369TIP3    H2 4051   1.888   1.965   4.838
 1370TIP3   OH2 4052   4.931   2.690   0.615
 1370TIP3    H1 4053   4.906   2.767   0.666
 1370TIP3    H2 4054   4.954   2.624   0.680
 1371TIP3   OH2 4055   0.388   5.227   3.713
 1371TIP3    H1 4056   0.343   5.215   3.797
 1371TIP3    H2 4057   0.359   5.154   3.659
 1372TIP3   OH2 4058   6.457   4.101   2.465
 1372TIP3    H1 4059   6.490   4.056   2.542
 1372TIP3    H2 4060   6.362   4.092   2.470
 1373TIP3   OH2 4061   7.345   7.524   2.780
 1373TIP3    H1 4062   7.351   7.429   2.773
 1373TIP3    H2 4063   7.363   7.556   2.691
 1374TIP3   OH2 4064   4.705   6.592   1.735
 1374TIP3    H1 4065   4.796   6.617   1.715
 1374TIP3    H2 4066   4.660   6.599   1.651
 1375TIP3   OH2 4067   1.679   6.614   0.230
 1375TIP3    H1 4068   1.742   6.669   0.184
 1375TIP3    H2 4069   1.729   6.575   0.302
 1376TIP3   OH2 4070   3.405   3.830   5.107
 1376TIP3    H1 4071   3.338   3.810   5.173
 1376TIP3    H2 4072   3.440   3.914   5.135
 1377TIP3   OH2 4073   0.585   6.627   5.481
 1377TIP3    H1 4074   0.607   6.615   5.573
 1377TIP3    H2 4075   0.531   6.551   5.459
 1378TIP3   OH2 4076   5.234   2.503   4.665
 1378TIP3    H1 4077   5.183   2.436   4.619
 1378TIP3    H2 4078   5.288   2.543   4.596
 1379TIP3   OH2 4079   1.368   1.555   1.619
 1379TIP3    H1 4080   1.424   1.477   1.626
 1379TIP3    H2 4081   1.403   1.616   1.682
 1380TIP3   OH2 4082   1.391   7.832   2.729
 1380TIP3    H1 4083   1.425   7.896   2.666
 1380TIP3    H2 4084   1.460   7.767   2.736
 1381TIP3   OH2 4085   6.728   1.336   1.797
 1381TIP3    H1 4086   6.696   1.394   1.867
 1381TIP3    H2 4087   6.746   1.253   1.841
 1382TIP3   OH2 4088   2.772   3.046   2.198
 1382TIP3    H1 4089   2.848   3.022   2.251
 1382TIP3    H2 4090   2.699   2.996   2.236
 1383TIP3   OH2 4091   4.457   5.469   5.226
 1383TIP3    H1 4092   4.363   5.464   5.241
 1383TIP3    H2 4093   4.482   5.555   5.262
 1384TIP3   OH2 4094   1.927   7.304   0.422
 1384TIP3    H1 4095   1.844   7.351   0.427
 1384TIP3    H2 4096   1.928   7.269   0.332
 1385TIP3   OH2 4097   6.143   2.662   3.878
 1385TIP3    H1 4098   6.138   2.714   3.798
 1385TIP3    H2 4099   6.083   2.589   3.864
 1386TIP3   OH2 4100   3.672   7.487   6.331
 1386TIP3    H1 4101   3.686   7.582   6.322
 1386TIP3    H2 4102   3.735   7.448   6.271
 1387TIP3   OH2 4103   3.519   1.680   0.448
 1387TIP3    H1 4104   3.586   1.628   0.403
 1387TIP3    H2 4105   3.497   1.629   0.526
 1388TIP3   OH2 4106   3.422   4.225   1.461
 1388TIP3    H1 4107   3.386   4.242   1.374
 1388TIP3    H2 4108   3.416   4.308   1.507
 1389TIP3   OH2 4109   6.496   2.291   5.664
 1389TIP3    H1 4110   6.410   2.299   5.623
 1389TIP3    H2 4111   6.542   2.227   5.610
 1390TIP3   OH2 4112   4.446   3.054   2.085
 1390TIP3    H1 4113   4.456   3.149   2.093
 1390TIP3    H2 4114   4.428   3.025   2.175
 1391TIP3   OH2 4115   8.078   5.608   6.159
 1391TIP3    H1 4116   8.025   5.557   6.098
 1391TIP3    H2 4117   8.097   5.549   6.231
 1392TIP3   OH2 4118   1.592   7.277   2.278
 1392TIP3    H1 4119   1.654   7.263   2.350
 1392TIP3    H2 4120   1.509   7.240   2.310
 1393TIP3   OH2 4121   2.360   7.677   1.550
 1393TIP3    H1 4122   2.281   7.699   1.500
 1393TIP3    H2 4123   2.371   7.583   1.536
 1394TIP3   OH2 4124   3.045   0.122   3.847
 1394TIP3    H1 4125   2.988   0.183   3.800
 1394TIP3    H2 4126   3.049   0.044   3.791
 1395TIP3   OH2 4127   0.857   0.375   6.678
 1395TIP3    H1 4128   0.846   0.427   6.599
 1395TIP3    H2 4129   0.798   0.300   6.667
 1396TIP3   OH2 4130   3.455   4.484   0.830
 1396TIP3    H1 4131   3.448   4.407   0.886
 1396TIP3    H2 4132   3.467   4.448   0.742
 1397TIP3   OH2 4133   4.118   6.421   4.643
 1397TIP3    H1 4134   4.095   6.483   4.574
 1397TIP3    H2 4135   4.207   6.393   4.622
 1398TIP3   OH2 4136   5.232   1.613   4.388
 1398TIP3    H1 4137   5.258   1.589   4.477
 1398TIP3    H2 4138   5.139   1.592   4.383
 1399TIP3   OH2 4139   5.044   3.090   5.099
 1399TIP3    H1 4140   5.004   3.150   5.162
 1399TIP3    H2 4141   5.024   3.129   5.014
 1400TIP3   OH2 4142   0.613   2.366   3.992
 1400TIP3    H1 4143   0.557   2.438   4.021
 1400TIP3    H2 4144   0.557   2.313   3.935
 1401TIP3   OH2 4145   4.626   0.147   1.061
 1401TIP3    H1 4146   4.655   0.072   1.113
 1401TIP3    H2 4147   4.557   0.112   1.005
 1402TIP3   OH2 4148   5.844   5.543   2.795
 1402TIP3    H1 4149   5.759   5.586   2.783
 1402TIP3    H2 4150   5.896   5.573   2.720
 1403TIP3   OH2 4151   1.374   5.693   6.208
 1403TIP3    H1 4152   1.342   5.766   6.261
 1403TIP3    H2 4153   1.309   5.684   6.138
 1404TIP3   OH2 4154   7.381   4.457   1.017
 1404TIP3    H1 4155   7.428   4.540   1.015
 1404TIP3    H2 4156   7.302   4.473   0.965
 1405TIP3   OH2 4157   0.330   2.131   2.022
 1405TIP3    H1 4158   0.354   2.166   1.936
 1405TIP3    H2 4159   0.236   2.114   2.016
 1406TIP3   OH2 4160   5.390   7.212   1.092
 1406TIP3    H1 4161   5.437   7.139   1.051
 1406TIP3    H2 4162   5.420   7.212   1.183
 1407TIP3   OH2 4163   5.454   1.647   5.406
 1407TIP3    H1 4164   5.370   1.687   5.386
 1407TIP3    H2 4165   5.442   1.607   5.492
 1408TIP3   OH2 4166   8.258   5.310   3.164
 1408TIP3    H1 4167   8.169   5.304   3.199
 1408TIP3    H2 4168   8.315   5.308   3.241
 1409TIP3   OH2 4169   6.359   7.206   4.264
 1409TIP3    H1 4170   6.314   7.148   4.202
 1409TIP3    H2 4171   6.345   7.294   4.229
 1410TIP3   OH2 4172   7.968   2.832   5.404
 1410TIP3    H1 4173   7.903   2.763   5.392
 1410TIP3    H2 4174   7.941   2.875   5.486
 1411TIP3   OH2 4175   6.774   5.931   3.848
 1411TIP3    H1 4176   6.700   5.975   3.891
 1411TIP3    H2 4177   6.759   5.946   3.754
 1412TIP3   OH2 4178   1.116   2.848   5.108
 1412TIP3    H1 4179   1.129   2.941   5.091
 1412TIP3    H2 4180   1.037   2.825   5.060
 1413TIP3   OH2 4181   0.063   5.253   3.703
 1413TIP3    H1 4182   0.131   5.202   3.746
 1413TIP3    H2 4183   0.020   5.301   3.774
 1414TIP3   OH2 4184   6.752   7.007   0.642
 1414TIP3    H1 4185   6.707   6.930   0.678
 1414TIP3    H2 4186   6.748   6.994   0.547
 1415TIP3   OH2 4187   5.098   4.311   4.097
 1415TIP3    H1 4188   5.080   4.354   4.180
 1415TIP3    H2 4189   5.158   4.240   4.119
 1416TIP3   OH2 4190   1.265   1.168   2.254
 1416TIP3    H1 4191   1.229   1.201   2.172
 1416TIP3    H2 4192   1.230   1.227   2.321
 1417TIP3   OH2 4193   0.853   3.391   1.560
 1417TIP3    H1 4194   0.781   3.452   1.579
 1417TIP3    H2 4195   0.845   3.324   1.627
 1418TIP3   OH2 4196   1.842   1.610   4.624
 1418TIP3    H1 4197   1.912   1.612   4.559
 1418TIP3    H2 4198   1.777   1.672   4.591
 1419TIP3   OH2 4199   2.321   6.340   6.632
 1419TIP3    H1 4200   2.356   6.429   6.621
 1419TIP3    H2 4201   2.232   6.354   6.665
 1420TIP3   OH2 4202   7.263   5.139   4.711
 1420TIP3    H1 4203   7.294   5.124   4.800
 1420TIP3    H2 4204   7.169   5.152   4.719
 1421TIP3   OH2 4205   3.609   3.467   0.891
 1421TIP3    H1 4206   3.631   3.555   0.922
 1421TIP3    H2 4207   3.672   3.450   0.821
 1422TIP3   OH2 4208   1.683   6.556   1.481
 1422TIP3    H1 4209   1.682   6.486   1.416
 1422TIP3    H2 4210   1.604   6.542   1.532
 1423TIP3   OH2 4211   4.184   7.099   1.459
 1423TIP3    H1 4212   4.094   7.083   1.429
 1423TIP3    H2 4213   4.175   7.109   1.554
 1424TIP3   OH2 4214   4.042   5.778   0.373
 1424TIP3    H1 4215   3.992   5.701   0.347
 1424TIP3    H2 4216   4.074   5.815   0.291
 1425TIP3   OH2 4217   1.240   7.547   0.410
 1425TIP3    H1 4218   1.164   7.517   0.460
 1425TIP3    H2 4219   1.204   7.608   0.346
 1426TIP3   OH2 4220   4.512   1.385   1.767
 1426TIP3    H1 4221   4.512   1.347   1.855
 1426TIP3    H2 4222   4.570   1.461   1.773
 1427TIP3   OH2 4223   8.156   0.618   4.140
 1427TIP3    H1 4224   8.109   0.594   4.220
 1427TIP3    H2 4225   8.154   0.539   4.086
 1428TIP3   OH2 4226   0.484   7.406   6.383
 1428TIP3    H1 4227   0.568   7.449   6.395
 1428TIP3    H2 4228   0.490   7.326   6.434
 1429TIP3   OH2 4229   0.737   0.604   6.055
 1429TIP3    H1 4230   0.799   0.669   6.022
 1429TIP3    H2 4231   0.745   0.531   5.994
 1430TIP3   OH2 4232   1.289   1.596   2.417
 1430TIP3    H1 4233   1.296   1.583   2.511
 1430TIP3    H2 4234   1.310   1.688   2.403
 1431TIP3   OH2 4235   0.603   4.920   1.431
 1431TIP3    H1 4236   0.536   4.858   1.461
 1431TIP3    H2 4237   0.674   4.864   1.399
 1432TIP3   OH2 4238   2.510   6.276   6.226
 1432TIP3    H1 4239   2.445   6.289   6.157
 1432TIP3    H2 4240   2.505   6.357   6.278
 1433TIP3   OH2 4241   0.922   6.235   6.318
 1433TIP3    H1 4242   0.833   6.235   6.283
 1433TIP3    H2 4243   0.974   6.280   6.252
 1434TIP3   OH2 4244   5.140   5.750   3.276
 1434TIP3    H1 4245   5.186   5.672   3.305
 1434TIP3    H2 4246   5.203   5.821   3.287
 1435TIP3   OH2 4247   2.949   0.535   4.612
 1435TIP3    H1 4248   3.000   0.615   4.602
 1435TIP3    H2 4249   2.956   0.490   4.527
 1436TIP3   OH2 4250   3.339   5.045   6.057
 1436TIP3    H1 4251   3.305   5.030   5.969
 1436TIP3    H2 4252   3.262   5.041   6.114
 1437TIP3   OH2 4253   6.286   2.389   4.484
 1437TIP3    H1 4254   6.199   2.424   4.466
 1437TIP3    H2 4255   6.306   2.418   4.573
 1438TIP3   OH2 4256   1.143   3.816   4.311
 1438TIP3    H1 4257   1.126   3.722   4.308
 1438TIP3    H2 4258   1.149   3.843   4.220
 1439TIP3   OH2 4259   1.728   4.496   3.514
 1439TIP3    H1 4260   1.760   4.547   3.440
 1439TIP3    H2 4261   1.644   4.536   3.536
 1440TIP3   OH2 4262   4.520   3.604   0.428
 1440TIP3    H1 4263   4.536   3.694   0.400
 1440TIP3    H2 4264   4.581   3.551   0.377
 1441TIP3   OH2 4265   1.375   4.940   5.660
 1441TIP3    H1 4266   1.448   4.973   5.607
 1441TIP3    H2 4267   1.360   4.852   5.626
 1442TIP3   OH2 4268   5.399   2.837   2.144
 1442TIP3    H1 4269   5.357   2.829   2.059
 1442TIP3    H2 4270   5.481   2.883   2.126
 1443TIP3   OH2 4271   6.044   7.552   6.029
 1443TIP3    H1 4272   6.125   7.520   6.070
 1443TIP3    H2 4273   6.022   7.487   5.963
 1444TIP3   OH2 4274   6.928   1.629   6.730
 1444TIP3    H1 4275   7.005   1.672   6.694
 1444TIP3    H2 4276   6.910   1.556   6.670
 1445TIP3   OH2 4277   7.804   4.969   5.099
 1445TIP3    H1 4278   7.853   4.928   5.028
 1445TIP3    H2 4279   7.734   4.906   5.119
 1446TIP3   OH2 4280   0.044   5.111   0.736
 1446TIP3    H1 4281   0.079   5.036   0.785
 1446TIP3    H2 4282   0.084   5.103   0.649
 1447TIP3   OH2 4283   4.744   6.940   5.630
 1447TIP3    H1 4284   4.689   6.945   5.552
 1447TIP3    H2 4285   4.824   6.988   5.607
 1448TIP3   OH2 4286   5.977   5.419   0.297
 1448TIP3    H1 4287   6.020   5.424   0.382
 1448TIP3    H2 4288   5.905   5.481   0.302
 1449TIP3   OH2 4289   1.280   2.708   1.017
 1449TIP3    H1 4290   1.192   2.728   0.984
 1449TIP3    H2 4291   1.336   2.774   0.978
 1450TIP3   OH2 4292   1.699   4.138   3.135
 1450TIP3    H1 4293   1.637   4.106   3.201
 1450TIP3    H2 4294   1.742   4.059   3.102
 1451TIP3   OH2 4295   6.778   7.429   4.885
 1451TIP3    H1 4296   6.708   7.490   4.909
 1451TIP3    H2 4297   6.851   7.453   4.941
 1452TIP3   OH2 4298   2.392   1.220   6.570
 1452TIP3    H1 4299   2.486   1.199   6.570
 1452TIP3    H2 4300   2.389   1.315   6.560
 1453TIP3   OH2 4301   2.570   4.683   0.880
 1453TIP3    H1 4302   2.663   4.703   0.876
 1453TIP3    H2 4303   2.556   4.618   0.811
 1454TIP3   OH2 4304   6.233   5.396   5.518
 1454TIP3    H1 4305   6.201   5.312   5.549
 1454TIP3    H2 4306   6.282   5.432   5.592
 1455TIP3   OH2 4307   6.789   2.572   1.659
 1455TIP3    H1 4308   6.737   2.616   1.591
 1455TIP3    H2 4309   6.725   2.544   1.724
 1456TIP3   OH2 4310   2.654   1.603   2.105
 1456TIP3    H1 4311   2.698   1.593   2.021
 1456TIP3    H2 4312   2.588   1.533   2.105
 1457TIP3   OH2 4313   1.060   2.248   3.814
 1457TIP3    H1 4314   0.989   2.293   3.767
 1457TIP3    H2 4315   1.071   2.298   3.895
 1458TIP3   OH2 4316   0.112   4.883   4.434
 1458TIP3    H1 4317   0.057   4.902   4.358
 1458TIP3    H2 4318   0.101   4.958   4.491
 1459TIP3   OH2 4319   6.866   7.688   0.306
 1459TIP3    H1 4320   6.914   7.610   0.334
 1459TIP3    H2 4321   6.932   7.757   0.302
 1460TIP3   OH2 4322   1.178   5.951   1.632
 1460TIP3    H1 4323   1.235   5.928   1.705
 1460TIP3    H2 4324   1.089   5.940   1.666
 1461TIP3   OH2 4325   3.764   3.117   0.909
 1461TIP3    H1 4326   3.860   3.110   0.905
 1461TIP3    H2 4327   3.733   3.048   0.851
 1462TIP3   OH2 4328   5.941   4.757   2.075
 1462TIP3    H1 4329   5.888   4.678   2.086
 1462TIP3    H2 4330   6.026   4.725   2.047
 1463TIP3   OH2 4331   5.292   5.313   5.828
 1463TIP3    H1 4332   5.257   5.400   5.811
 1463TIP3    H2 4333   5.333   5.287   5.746
 1464TIP3   OH2 4334   6.012   3.395   3.415
 1464TIP3    H1 4335   6.105   3.393   3.440
 1464TIP3    H2 4336   5.993   3.305   3.388
 1465TIP3   OH2 4337   5.419   1.395   4.912
 1465TIP3    H1 4338   5.388   1.315   4.869
 1465TIP3    H2 4339   5.493   1.366   4.966
 1466TIP3   OH2 4340   0.194   2.992   4.674
 1466TIP3    H1 4341   0.234   2.937   4.606
 1466TIP3    H2 4342   0.102   2.965   4.676
 1467TIP3   OH2 4343   7.992   0.243   1.432
 1467TIP3    H1 4344   7.935   0.173   1.466
 1467TIP3    H2 4345   8.039   0.275   1.509
 1468TIP3   OH2 4346   3.319   2.155  -0.024
 1468TIP3    H1 4347   3.405   2.136   0.014
 1468TIP3    H2 4348   3.294   2.239   0.014
 1469TIP3   OH2 4349   1.474   7.409   5.825
 1469TIP3    H1 4350   1.406   7.342   5.837
 1469TIP3    H2 4351   1.426   7.492   5.822
 1470TIP3   OH2 4352   6.827   5.221   4.013
 1470TIP3    H1 4353   6.868   5.169   4.082
 1470TIP3    H2 4354   6.774   5.158   3.964
 1471TIP3   OH2 4355   1.060   6.417   6.628
 1471TIP3    H1 4356   1.025   6.333   6.599
 1471TIP3    H2 4357   1.024   6.429   6.716
 1472TIP3   OH2 4358   3.628   6.170   0.274
 1472TIP3    H1 4359   3.593   6.082   0.290
 1472TIP3    H2 4360   3.592   6.195   0.189
 1473TIP3   OH2 4361   5.505   7.506   1.412
 1473TIP3    H1 4362   5.494   7.418   1.448
 1473TIP3    H2 4363   5.590   7.504   1.368
 1474TIP3   OH2 4364   7.300   6.835   6.205
 1474TIP3    H1 4365   7.362   6.788   6.261
 1474TIP3    H2 4366   7.266   6.767   6.146
 1475TIP3   OH2 4367   5.172   1.304   3.743
 1475TIP3    H1 4368   5.210   1.232   3.693
 1475TIP3    H2 4369   5.112   1.261   3.805
 1476TIP3   OH2 4370   1.264   6.367   2.584
 1476TIP3    H1 4371   1.221   6.443   2.624
 1476TIP3    H2 4372   1.272   6.390   2.491
 1477TIP3   OH2 4373   5.033   1.330   4.559
 1477TIP3    H1 4374   4.945   1.330   4.597
 1477TIP3    H2 4375   5.073   1.248   4.588
 1478TIP3   OH2 4376   2.384   2.695   6.444
 1478TIP3    H1 4377   2.401   2.639   6.368
 1478TIP3    H2 4378   2.328   2.766   6.409
 1479TIP3   OH2 4379   4.445   1.232   6.774
 1479TIP3    H1 4380   4.402   1.147   6.776
 1479TIP3    H2 4381   4.497   1.231   6.694
 1480TIP3   OH2 4382   4.436   2.640   2.933
 1480TIP3    H1 4383   4.451   2.652   3.027
 1480TIP3    H2 4384   4.460   2.549   2.916
 1481TIP3   OH2 4385   5.759   2.935   5.742
 1481TIP3    H1 4386   5.675   2.929   5.787
 1481TIP3    H2 4387   5.749   3.007   5.680
 1482TIP3   OH2 4388   2.751   0.237   5.022
 1482TIP3    H1 4389   2.787   0.242   4.934
 1482TIP3    H2 4390   2.660   0.210   5.010
 1483TIP3   OH2 4391   2.024   2.577   2.945
 1483TIP3    H1 4392   1.987   2.519   3.011
 1483TIP3    H2 4393   2.065   2.648   2.995
 1484TIP3   OH2 4394   7.113   7.051   1.884
 1484TIP3    H1 4395   7.090   6.961   1.860
 1484TIP3    H2 4396   7.163   7.042   1.965
 1485TIP3   OH2 4397   4.036   3.653   0.294
 1485TIP3    H1 4398   4.080   3.577   0.331
 1485TIP3    H2 4399   4.095   3.726   0.312
 1486TIP3   OH2 4400   7.961   3.074   4.330
 1486TIP3    H1 4401   7.922   3.015   4.266
 1486TIP3    H2 4402   8.055   3.059   4.323
 1487TIP3   OH2 4403   3.782   4.077   0.054
 1487TIP3    H1 4404   3.706   4.134   0.069
 1487TIP3    H2 4405   3.760   4.026  -0.023
 1488TIP3   OH2 4406   7.408   5.602   5.192
 1488TIP3    H1 4407   7.494   5.565   5.170
 1488TIP3    H2 4408   7.346   5.531   5.177
 1489TIP3   OH2 4409   6.002   2.384   0.849
 1489TIP3    H1 4410   6.010   2.463   0.795
 1489TIP3    H2 4411   5.908   2.374   0.862
 1490TIP3   OH2 4412   3.662   1.118   2.209
 1490TIP3    H1 4413   3.719   1.041   2.208
 1490TIP3    H2 4414   3.686   1.167   2.130
 1491TIP3   OH2 4415   5.177   3.362   6.594
 1491TIP3    H1 4416   5.096   3.411   6.604
 1491TIP3    H2 4417   5.218   3.365   6.680
 1492TIP3   OH2 4418   2.647   5.594   1.224
 1492TIP3    H1 4419   2.617   5.526   1.285
 1492TIP3    H2 4420   2.575   5.606   1.163
 1493TIP3   OH2 4421   5.575   2.117   5.732
 1493TIP3    H1 4422   5.518   2.190   5.707
 1493TIP3    H2 4423   5.579   2.122   5.828
 1494TIP3   OH2 4424   8.129   4.034   4.419
 1494TIP3    H1 4425   8.078   4.109   4.391
 1494TIP3    H2 4426   8.103   4.020   4.510
 1495TIP3   OH2 4427   0.198   3.149   6.253
 1495TIP3    H1 4428   0.183   3.151   6.348
 1495TIP3    H2 4429   0.285   3.111   6.244
 1496TIP3   OH2 4430   4.004   2.107   4.416
 1496TIP3    H1 4431   3.930   2.093   4.476
 1496TIP3    H2 4432   3.968   2.092   4.329
 1497TIP3   OH2 4433   1.509   2.956   2.700
 1497TIP3    H1 4434   1.515   2.864   2.727
 1497TIP3    H2 4435   1.489   2.953   2.607
 1498TIP3   OH2 4436   3.366   3.668   0.410
 1498TIP3    H1 4437   3.414   3.748   0.433
 1498TIP3    H2 4438   3.274   3.689   0.431
 1499TIP3   OH2 4439   7.172   5.569   6.511
 1499TIP3    H1 4440   7.160   5.482   6.547
 1499TIP3    H2 4441   7.267   5.583   6.513
 1500TIP3   OH2 4442   3.811   2.369   0.483
 1500TIP3    H1 4443   3.820   2.403   0.572
 1500TIP3    H2 4444   3.829   2.275   0.491
 1501TIP3   OH2 4445   1.865   6.801   0.513
 1501TIP3    H1 4446   1.873   6.710   0.487
 1501TIP3    H2 4447   1.820   6.798   0.597
 1502TIP3   OH2 4448   0.643   3.942   2.634
 1502TIP3    H1 4449   0.688   3.889   2.700
 1502TIP3    H2 4450   0.686   4.027   2.638
 1503TIP3   OH2 4451   3.804   0.754   4.595
 1503TIP3    H1 4452   3.895   0.783   4.599
 1503TIP3    H2 4453   3.761   0.819   4.540
 1504TIP3   OH2 4454   6.142   1.104   1.273
 1504TIP3    H1 4455   6.171   1.140   1.189
 1504TIP3    H2 4456   6.103   1.179   1.318
 1505TIP3   OH2 4457   5.974   6.812   4.818
 1505TIP3    H1 4458   6.015   6.727   4.833
 1505TIP3    H2 4459   6.044   6.869   4.787
 1506TIP3   OH2 4460   1.465   4.247   0.620
 1506TIP3    H1 4461   1.406   4.316   0.591
 1506TIP3    H2 4462   1.474   4.189   0.545
 1507TIP3   OH2 4463   5.867   5.991   3.693
 1507TIP3    H1 4464   5.885   6.012   3.785
 1507TIP3    H2 4465   5.918   5.912   3.676
 1508TIP3   OH2 4466   3.553   2.194   2.768
 1508TIP3    H1 4467   3.490   2.262   2.789
 1508TIP3    H2 4468   3.636   2.240   2.756
 1509TIP3   OH2 4469   7.052   1.563   1.042
 1509TIP3    H1 4470   7.040   1.474   1.009
 1509TIP3    H2 4471   7.147   1.572   1.051
 1510TIP3   OH2 4472   5.852   7.733   1.809
 1510TIP3    H1 4473   5.823   7.649   1.845
 1510TIP3    H2 4474   5.818   7.799   1.871
 1511TIP3   OH2 4475   0.651   0.282   1.167
 1511TIP3    H1 4476   0.556   0.297   1.164
 1511TIP3    H2 4477   0.675   0.301   1.258
 1512TIP3   OH2 4478   0.659   6.102   6.384
 1512TIP3    H1 4479   0.582   6.046   6.376
 1512TIP3    H2 4480   0.724   6.061   6.327
 1513TIP3   OH2 4481   0.758   2.577   6.489
 1513TIP3    H1 4482   0.670   2.575   6.527
 1513TIP3    H2 4483   0.744   2.586   6.395
 1514TIP3   OH2 4484   0.720   4.301   5.097
 1514TIP3    H1 4485   0.672   4.352   5.163
 1514TIP3    H2 4486   0.664   4.303   5.020
 1515TIP3   OH2 4487   2.476   7.490   5.786
 1515TIP3    H1 4488   2.565   7.482   5.820
 1515TIP3    H2 4489   2.421   7.456   5.857
 1516TIP3   OH2 4490   0.908   6.445   3.827
 1516TIP3    H1 4491   0.885   6.363   3.783
 1516TIP3    H2 4492   0.890   6.428   3.920
 1517TIP3   OH2 4493   4.309   5.151   5.703
 1517TIP3    H1 4494   4.339   5.063   5.725
 1517TIP3    H2 4495   4.243   5.171   5.770
 1518TIP3   OH2 4496   1.174   1.206   0.291
 1518TIP3    H1 4497   1.117   1.253   0.351
 1518TIP3    H2 4498   1.159   1.248   0.206
 1519TIP3   OH2 4499   3.212   7.049   5.508
 1519TIP3    H1 4500   3.160   7.022   5.584
 1519TIP3    H2 4501   3.188   7.141   5.494
 1520TIP3   OH2 4502   5.585   7.117   5.500
 1520TIP3    H1 4503   5.607   7.168   5.578
 1520TIP3    H2 4504   5.579   7.027   5.532
 1521TIP3   OH2 4505   6.220   1.856   2.626
 1521TIP3    H1 4506   6.182   1.911   2.557
 1521TIP3    H2 4507   6.176   1.771   2.615
 1522TIP3   OH2 4508   4.954   5.056   5.802
 1522TIP3    H1 4509   4.905   5.056   5.719
 1522TIP3    H2 4510   4.901   5.002   5.861
 1523TIP3   OH2 4511  -0.028   3.794   6.400
 1523TIP3    H1 4512  -0.106   3.740   6.392
 1523TIP3    H2 4513   0.035   3.737   6.445
 1524TIP3   OH2 4514   5.214   1.914   5.651
 1524TIP3    H1 4515   5.140   1.939   5.707
 1524TIP3    H2 4516   5.195   1.955   5.567
 1525TIP3   OH2 4517   0.775   2.572   2.245
 1525TIP3    H1 4518   0.691   2.536   2.275
 1525TIP3    H2 4519   0.762   2.667   2.247
 1526TIP3   OH2 4520   2.673   1.232   3.667
 1526TIP3    H1 4521   2.604   1.259   3.728
 1526TIP3    H2 4522   2.752   1.225   3.721
 1527TIP3   OH2 4523   0.689   6.178   6.091
 1527TIP3    H1 4524   0.692   6.097   6.040
 1527TIP3    H2 4525   0.646   6.154   6.173
 1528TIP3   OH2 4526   1.846   0.614   5.096
 1528TIP3    H1 4527   1.901   0.673   5.147
 1528TIP3    H2 4528   1.818   0.547   5.158
 1529TIP3   OH2 4529   3.884   3.620   6.046
 1529TIP3    H1 4530   3.853   3.557   5.980
 1529TIP3    H2 4531   3.806   3.639   6.098
 1530TIP3   OH2 4532   3.625   0.561   0.246
 1530TIP3    H1 4533   3.592   0.648   0.224
 1530TIP3    H2 4534   3.546   0.508   0.260
 1531TIP3   OH2 4535   3.056   6.799   1.596
 1531TIP3    H1 4536   3.135   6.768   1.552
 1531TIP3    H2 4537   3.045   6.740   1.670
 1532TIP3   OH2 4538   5.762   5.225   3.935
 1532TIP3    H1 4539   5.708   5.293   3.895
 1532TIP3    H2 4540   5.813   5.272   4.001
 1533TIP3   OH2 4541   3.752   1.014   6.478
 1533TIP3    H1 4542   3.681   0.968   6.523
 1533TIP3    H2 4543   3.710   1.054   6.402
 1534TIP3   OH2 4544   2.067   0.343   3.696
 1534TIP3    H1 4545   1.978   0.331   3.663
 1534TIP3    H2 4546   2.079   0.272   3.759
 1535TIP3   OH2 4547   4.174   1.410   3.656
 1535TIP3    H1 4548   4.095   1.394   3.709
 1535TIP3    H2 4549   4.143   1.406   3.565
 1536TIP3   OH2 4550   2.065   3.295   4.595
 1536TIP3    H1 4551   2.085   3.285   4.502
 1536TIP3    H2 4552   2.078   3.207   4.631
 1537TIP3   OH2 4553   0.445   7.400   2.031
 1537TIP3    H1 4554   0.501   7.322   2.022
 1537TIP3    H2 4555   0.506   7.473   2.031
 1538TIP3   OH2 4556   3.743   2.723   1.754
 1538TIP3    H1 4557   3.815   2.717   1.692
 1538TIP3    H2 4558   3.768   2.795   1.813
 1539TIP3   OH2 4559   1.874   2.317   0.394
 1539TIP3    H1 4560   1.782   2.326   0.416
 1539TIP3    H2 4561   1.886   2.224   0.377
 1540TIP3   OH2 4562   0.386   4.044   2.756
 1540TIP3    H1 4563   0.454   3.978   2.771
 1540TIP3    H2 4564   0.413   4.088   2.676
 1541TIP3   OH2 4565   7.761   0.714   1.553
 1541TIP3    H1 4566   7.694   0.718   1.621
 1541TIP3    H2 4567   7.716   0.673   1.478
 1542TIP3   OH2 4568   4.580   0.603   5.554
 1542TIP3    H1 4569   4.624   0.524   5.584
 1542TIP3    H2 4570   4.591   0.666   5.625
 1543TIP3   OH2 4571   5.494   7.794   2.969
 1543TIP3    H1 4572   5.545   7.751   3.037
 1543TIP3    H2 4573   5.513   7.744   2.889
 1544TIP3   OH2 4574   1.293   6.650   3.351
 1544TIP3    H1 4575   1.349   6.610   3.417
 1544TIP3    H2 4576   1.268   6.734   3.389
 1545TIP3   OH2 4577   1.159   5.660   4.939
 1545TIP3    H1 4578   1.124   5.583   4.985
 1545TIP3    H2 4579   1.145   5.732   5.000
 1546TIP3   OH2 4580   3.407   7.395   2.001
 1546TIP3    H1 4581   3.398   7.448   2.080
 1546TIP3    H2 4582   3.352   7.318   2.017
 1547TIP3   OH2 4583   7.602   2.799   2.095
 1547TIP3    H1 4584   7.677   2.828   2.148
 1547TIP3    H2 4585   7.616   2.841   2.010
 1548TIP3   OH2 4586   8.212   6.727   0.948
 1548TIP3    H1 4587   8.145   6.736   1.015
 1548TIP3    H2 4588   8.167   6.747   0.866
 1549TIP3   OH2 4589   4.166   7.645   4.768
 1549TIP3    H1 4590   4.204   7.591   4.836
 1549TIP3    H2 4591   4.207   7.615   4.687
 1550TIP3   OH2 4592   0.596   0.104   0.193
 1550TIP3    H1 4593   0.613   0.010   0.207
 1550TIP3    H2 4594   0.668   0.148   0.236
 1551TIP3   OH2 4595   7.517   0.553   6.645
 1551TIP3    H1 4596   7.549   0.636   6.681
 1551TIP3    H2 4597   7.512   0.495   6.721
 1552TIP3   OH2 4598   4.608   5.827   0.852
 1552TIP3    H1 4599   4.617   5.919   0.826
 1552TIP3    H2 4600   4.616   5.778   0.771
 1553TIP3   OH2 4601   2.333   0.731   6.088
 1553TIP3    H1 4602   2.377   0.677   6.153
 1553TIP3    H2 4603   2.371   0.818   6.098
 1554TIP3   OH2 4604   6.954   7.125   2.427
 1554TIP3    H1 4605   7.046   7.098   2.421
 1554TIP3    H2 4606   6.941   7.145   2.520
 1555TIP3   OH2 4607   3.106   6.952   5.765
 1555TIP3    H1 4608   3.128   6.866   5.727
 1555TIP3    H2 4609   3.143   6.950   5.853
 1556TIP3   OH2 4610   0.877   4.837   2.586
 1556TIP3    H1 4611   0.816   4.834   2.513
 1556TIP3    H2 4612   0.887   4.745   2.612
 1557TIP3   OH2 4613   3.431   3.529   0.660
 1557TIP3    H1 4614   3.491   3.470   0.706
 1557TIP3    H2 4615   3.488   3.577   0.600
 1558TIP3   OH2 4616   5.659   4.371   5.171
 1558TIP3    H1 4617   5.587   4.427   5.142
 1558TIP3    H2 4618   5.738   4.416   5.142
 1559TIP3   OH2 4619   2.715   5.629   1.984
 1559TIP3    H1 4620   2.731   5.708   2.036
 1559TIP3    H2 4621   2.803   5.598   1.961
 1560TIP3   OH2 4622   7.704   3.737   1.133
 1560TIP3    H1 4623   7.609   3.746   1.137
 1560TIP3    H2 4624   7.720   3.684   1.055
 1561TIP3   OH2 4625   6.671   6.154   1.432
 1561TIP3    H1 4626   6.733   6.105   1.485
 1561TIP3    H2 4627   6.627   6.212   1.493
 1562TIP3   OH2 4628   6.952   5.659   3.083
 1562TIP3    H1 4629   6.928   5.696   2.998
 1562TIP3    H2 4630   7.046   5.642   3.077
 1563TIP3   OH2 4631   7.226   7.265   5.905
 1563TIP3    H1 4632   7.244   7.313   5.824
 1563TIP3    H2 4633   7.234   7.331   5.974
 1564TIP3   OH2 4634   7.272   1.541   1.889
 1564TIP3    H1 4635   7.300   1.611   1.830
 1564TIP3    H2 4636   7.353   1.498   1.916
 1565TIP3   OH2 4637   6.993   1.240   1.259
 1565TIP3    H1 4638   7.002   1.335   1.254
 1565TIP3    H2 4639   7.051   1.214   1.330
 1566TIP3   OH2 4640   0.401   2.773   0.680
 1566TIP3    H1 4641   0.394   2.848   0.739
 1566TIP3    H2 4642   0.313   2.736   0.677
 1567TIP3   OH2 4643   4.204   6.623   4.793
 1567TIP3    H1 4644   4.156   6.700   4.763
 1567TIP3    H2 4645   4.170   6.551   4.739
 1568TIP3   OH2 4646   5.986   6.610   2.914
 1568TIP3    H1 4647   5.917   6.550   2.887
 1568TIP3    H2 4648   6.052   6.554   2.955
 1569TIP3   OH2 4649   2.014   5.040   5.567
 1569TIP3    H1 4650   2.064   5.034   5.485
 1569TIP3    H2 4651   1.979   5.129   5.568
 1570TIP3   OH2 4652   2.231   0.622   1.758
 1570TIP3    H1 4653   2.209   0.644   1.668
 1570TIP3    H2 4654   2.265   0.532   1.754
 1571TIP3   OH2 4655   3.019   3.399   5.819
 1571TIP3    H1 4656   3.007   3.494   5.819
 1571TIP3    H2 4657   2.935   3.364   5.849
 1572TIP3   OH2 4658   8.117   7.465   4.070
 1572TIP3    H1 4659   8.078   7.392   4.118
 1572TIP3    H2 4660   8.119   7.436   3.979
 1573TIP3   OH2 4661   2.668   4.496   1.851
 1573TIP3    H1 4662   2.656   4.586   1.823
 1573TIP3    H2 4663   2.582   4.455   1.839
 1574TIP3   OH2 4664   3.621   0.711   4.955
 1574TIP3    H1 4665   3.553   0.778   4.947
 1574TIP3    H2 4666   3.618   0.664   4.872
 1575TIP3   OH2 4667   4.482   2.719   3.193
 1575TIP3    H1 4668   4.490   2.665   3.272
 1575TIP3    H2 4669   4.551   2.785   3.202
 1576TIP3   OH2 4670   7.581   1.404   2.796
 1576TIP3    H1 4671   7.576   1.457   2.717
 1576TIP3    H2 4672   7.651   1.341   2.778
 1577TIP3   OH2 4673   6.491   4.101   6.331
 1577TIP3    H1 4674   6.480   4.140   6.245
 1577TIP3    H2 4675   6.546   4.164   6.379
 1578TIP3   OH2 4676   1.878   4.498   3.746
 1578TIP3    H1 4677   1.821   4.511   3.670
 1578TIP3    H2 4678   1.941   4.570   3.741
 1579TIP3   OH2 4679   2.383   7.228   5.211
 1579TIP3    H1 4680   2.355   7.209   5.121
 1579TIP3    H2 4681   2.305   7.264   5.253
 1580TIP3   OH2 4682   1.779   4.831   1.311
 1580TIP3    H1 4683   1.704   4.841   1.252
 1580TIP3    H2 4684   1.798   4.737   1.310
 1581TIP3   OH2 4685   5.583   6.556   4.236
 1581TIP3    H1 4686   5.498   6.595   4.255
 1581TIP3    H2 4687   5.603   6.583   4.146
 1582TIP3   OH2 4688   3.237   1.167   3.149
 1582TIP3    H1 4689   3.176   1.219   3.097
 1582TIP3    H2 4690   3.320   1.174   3.103
 1583TIP3   OH2 4691   2.863   5.919   3.404
 1583TIP3    H1 4692   2.838   5.936   3.495
 1583TIP3    H2 4693   2.925   5.989   3.383
 1584TIP3   OH2 4694   0.811   6.255   0.725
 1584TIP3    H1 4695   0.866   6.271   0.648
 1584TIP3    H2 4696   0.743   6.196   0.694
 1585TIP3   OH2 4697   0.271   6.139   3.469
 1585TIP3    H1 4698   0.303   6.229   3.467
 1585TIP3    H2 4699   0.188   6.144   3.517
 1586TIP3   OH2 4700   4.326   4.811   5.315
 1586TIP3    H1 4701   4.358   4.765   5.237
 1586TIP3    H2 4702   4.326   4.903   5.290
 1587TIP3   OH2 4703   1.631   4.425   1.720
 1587TIP3    H1 4704   1.598   4.493   1.660
 1587TIP3    H2 4705   1.587   4.345   1.690
 1588TIP3   OH2 4706   2.344   0.994   5.286
 1588TIP3    H1 4707   2.384   0.907   5.288
 1588TIP3    H2 4708   2.381   1.035   5.208
 1589TIP3   OH2 4709   2.358   4.252   1.496
 1589TIP3    H1 4710   2.267   4.225   1.480
 1589TIP3    H2 4711   2.360   4.345   1.476
 1590TIP3   OH2 4712   5.073   7.777   2.544
 1590TIP3    H1 4713   5.039   7.754   2.630
 1590TIP3    H2 4714   5.134   7.849   2.561
 1591TIP3   OH2 4715   6.148   6.602   0.840
 1591TIP3    H1 4716   6.227   6.632   0.884
 1591TIP3    H2 4717   6.078   6.656   0.876
 1592TIP3   OH2 4718   0.913   0.213   2.114
 1592TIP3    H1 4719   0.918   0.120   2.093
 1592TIP3    H2 4720   0.992   0.251   2.076
 1593TIP3   OH2 4721   3.480   2.308   3.886
 1593TIP3    H1 4722   3.451   2.331   3.974
 1593TIP3    H2 4723   3.437   2.371   3.829
 1594TIP3   OH2 4724   7.031   1.297   2.649
 1594TIP3    H1 4725   7.107   1.241   2.631
 1594TIP3    H2 4726   7.069   1.385   2.662
 1595TIP3   OH2 4727   0.533   0.496   2.015
 1595TIP3    H1 4728   0.607   0.450   2.054
 1595TIP3    H2 4729   0.562   0.586   2.006
 1596TIP3   OH2 4730   6.063   1.402   2.672
 1596TIP3    H1 4731   6.019   1.446   2.744
 1596TIP3    H2 4732   6.059   1.309   2.695
 1597TIP3   OH2 4733   8.256   0.804   1.418
 1597TIP3    H1 4734   8.296   0.824   1.334
 1597TIP3    H2 4735   8.170   0.769   1.396
 1598TIP3   OH2 4736   3.297   6.144   0.213
 1598TIP3    H1 4737   3.228   6.101   0.162
 1598TIP3    H2 4738   3.250   6.191   0.282
 1599TIP3   OH2 4739   5.617   7.024   2.573
 1599TIP3    H1 4740   5.552   7.054   2.510
 1599TIP3    H2 4741   5.658   7.104   2.605
 1600TIP3   OH2 4742   6.899   7.240   0.565
 1600TIP3    H1 4743   6.916   7.304   0.635
 1600TIP3    H2 4744   6.851   7.169   0.609
 1601TIP3   OH2 4745   2.081   0.023   2.608
 1601TIP3    H1 4746   2.097  -0.017   2.523
 1601TIP3    H2 4747   2.004  -0.023   2.642
 1602TIP3   OH2 4748   5.846   6.616   5.645
 1602TIP3    H1 4749   5.765   6.613   5.595
 1602TIP3    H2 4750   5.903   6.675   5.596
 1603TIP3   OH2 4751   7.309   4.203   5.991
 1603TIP3    H1 4752   7.276   4.273   6.047
 1603TIP3    H2 4753   7.380   4.243   5.941
 1604TIP3   OH2 4754   7.290   2.822   5.363
 1604TIP3    H1 4755   7.245   2.828   5.447
 1604TIP3    H2 4756   7.228   2.775   5.306
 1605TIP3   OH2 4757   3.764   3.383   3.312
 1605TIP3    H1 4758   3.745   3.477   3.316
 1605TIP3    H2 4759   3.709   3.345   3.381
 1606TIP3   OH2 4760   6.489   7.475   0.509
 1606TIP3    H1 4761   6.422   7.538   0.536
 1606TIP3    H2 4762   6.441   7.396   0.486
 1607TIP3   OH2 4763   3.387   4.395   0.170
 1607TIP3    H1 4764   3.459   4.448   0.206
 1607TIP3    H2 4765   3.374   4.431   0.082
 1608TIP3   OH2 4766   5.748   7.790   5.207
 1608TIP3    H1 4767   5.670   7.734   5.207
 1608TIP3    H2 4768   5.785   7.779   5.295
 1609TIP3   OH2 4769   6.001   6.474   5.313
 1609TIP3    H1 4770   5.916   6.463   5.355
 1609TIP3    H2 4771   6.008   6.401   5.251
 1610TIP3   OH2 4772   7.631   5.432   2.614
 1610TIP3    H1 4773   7.558   5.476   2.658
 1610TIP3    H2 4774   7.589   5.360   2.566
 1611TIP3   OH2 4775   6.937   5.294   5.066
 1611TIP3    H1 4776   6.851   5.314   5.030
 1611TIP3    H2 4777   6.921   5.223   5.128
 1612TIP3   OH2 4778   2.076   2.232   1.553
 1612TIP3    H1 4779   2.112   2.290   1.621
 1612TIP3    H2 4780   2.100   2.144   1.582
 1613TIP3   OH2 4781   2.118   4.255   5.370
 1613TIP3    H1 4782   2.098   4.227   5.281
 1613TIP3    H2 4783   2.198   4.208   5.393
 1614TIP3   OH2 4784   1.442   7.663   3.711
 1614TIP3    H1 4785   1.366   7.612   3.682
 1614TIP3    H2 4786   1.407   7.749   3.733
 1615TIP3   OH2 4787   6.284   2.255   1.185
 1615TIP3    H1 4788   6.196   2.241   1.221
 1615TIP3    H2 4789   6.273   2.245   1.090
 1616TIP3   OH2 4790   6.065   7.652   4.877
 1616TIP3    H1 4791   6.083   7.641   4.783
 1616TIP3    H2 4792   6.112   7.732   4.901
 1617TIP3   OH2 4793   1.478   2.838   0.227
 1617TIP3    H1 4794   1.455   2.750   0.256
 1617TIP3    H2 4795   1.499   2.827   0.134
 1618TIP3   OH2 4796   2.897   7.293   1.002
 1618TIP3    H1 4797   2.863   7.344   1.076
 1618TIP3    H2 4798   2.988   7.322   0.993
 1619TIP3   OH2 4799   1.291   0.768   1.642
 1619TIP3    H1 4800   1.312   0.835   1.708
 1619TIP3    H2 4801   1.365   0.707   1.645
 1620TIP3   OH2 4802   8.251   7.737   2.824
 1620TIP3    H1 4803   8.234   7.781   2.907
 1620TIP3    H2 4804   8.222   7.647   2.839
 1621TIP3   OH2 4805   3.999   2.181   1.900
 1621TIP3    H1 4806   3.923   2.154   1.950
 1621TIP3    H2 4807   3.966   2.195   1.811
 1622TIP3   OH2 4808   0.511   0.384   0.231
 1622TIP3    H1 4809   0.586   0.415   0.283
 1622TIP3    H2 4810   0.531   0.292   0.215
 1623TIP3   OH2 4811   0.136   3.171   4.279
 1623TIP3    H1 4812   0.152   3.183   4.186
 1623TIP3    H2 4813   0.069   3.236   4.301
 1624TIP3   OH2 4814   0.717   7.522   6.103
 1624TIP3    H1 4815   0.635   7.528   6.053
 1624TIP3    H2 4816   0.749   7.612   6.106
 1625TIP3   OH2 4817   2.388   4.203   1.787
 1625TIP3    H1 4818   2.387   4.247   1.702
 1625TIP3    H2 4819   2.387   4.109   1.766
 1626TIP3   OH2 4820   8.070   2.175   3.781
 1626TIP3    H1 4821   8.017   2.252   3.764
 1626TIP3    H2 4822   8.161   2.207   3.775
 1627TIP3   OH2 4823   8.121   0.925   2.328
 1627TIP3    H1 4824   8.150   0.944   2.239
 1627TIP3    H2 4825   8.033   0.962   2.334
 1628TIP3   OH2 4826   1.636   6.007   2.024
 1628TIP3    H1 4827   1.706   5.991   1.961
 1628TIP3    H2 4828   1.615   5.920   2.058
 1629TIP3   OH2 4829   6.878   2.136   4.702
 1629TIP3    H1 4830   6.798   2.189   4.692
 1629TIP3    H2 4831   6.934   2.188   4.759
 1630TIP3   OH2 4832   1.049   4.633   0.156
 1630TIP3    H1 4833   1.029   4.539   0.153
 1630TIP3    H2 4834   1.112   4.642   0.228
 1631TIP3   OH2 4835   7.666   1.356   4.335
 1631TIP3    H1 4836   7.706   1.424   4.282
 1631TIP3    H2 4837   7.739   1.303   4.366
 1632TIP3   OH2 4838   5.630   1.619   4.139
 1632TIP3    H1 4839   5.702   1.673   4.107
 1632TIP3    H2 4840   5.551   1.670   4.122
 1633TIP3   OH2 4841   7.230   4.190   2.164
 1633TIP3    H1 4842   7.256   4.278   2.190
 1633TIP3    H2 4843   7.146   4.176   2.207
 1634TIP3   OH2 4844   6.112   3.235   5.638
 1634TIP3    H1 4845   6.139   3.255   5.728
 1634TIP3    H2 4846   6.017   3.246   5.638
 1635TIP3   OH2 4847   4.573   7.706   0.965
 1635TIP3    H1 4848   4.666   7.728   0.973
 1635TIP3    H2 4849   4.573   7.617   0.929
 1636TIP3   OH2 4850   5.910   3.393   2.139
 1636TIP3    H1 4851   5.954   3.466   2.096
 1636TIP3    H2 4852   5.840   3.434   2.190
 1637TIP3   OH2 4853   7.640   4.910   2.594
 1637TIP3    H1 4854   7.611   4.926   2.684
 1637TIP3    H2 4855   7.656   4.816   2.590
 1638TIP3   OH2 4856   6.117   1.831   3.079
 1638TIP3    H1 4857   6.058   1.847   3.153
 1638TIP3    H2 4858   6.088   1.893   3.012
 1639TIP3   OH2 4859   7.521   1.474   1.930
 1639TIP3    H1 4860   7.515   1.477   2.025
 1639TIP3    H2 4861   7.598   1.526   1.909
 1640TIP3   OH2 4862   2.522   3.593   3.261
 1640TIP3    H1 4863   2.551   3.584   3.352
 1640TIP3    H2 4864   2.436   3.553   3.259
 1641TIP3   OH2 4865   3.487   2.348   5.875
 1641TIP3    H1 4866   3.470   2.396   5.794
 1641TIP3    H2 4867   3.400   2.327   5.910
 1642TIP3   OH2 4868   5.924   6.440   1.239
 1642TIP3    H1 4869   5.959   6.375   1.301
 1642TIP3    H2 4870   5.915   6.519   1.291
 1643TIP3   OH2 4871   4.414   6.580   0.018
 1643TIP3    H1 4872   4.420   6.485   0.030
 1643TIP3    H2 4873   4.320   6.599   0.023
 1644TIP3   OH2 4874   2.930   6.828   6.726
 1644TIP3    H1 4875   2.993   6.897   6.703
 1644TIP3    H2 4876   2.981   6.747   6.718
 1645TIP3   OH2 4877   6.654   7.769   0.549
 1645TIP3    H1 4878   6.695   7.695   0.504
 1645TIP3    H2 4879   6.727   7.818   0.587
 1646TIP3   OH2 4880   0.923   3.581   2.969
 1646TIP3    H1 4881   0.983   3.554   2.900
 1646TIP3    H2 4882   0.868   3.504   2.984
 1647TIP3   OH2 4883   5.632   2.652   2.651
 1647TIP3    H1 4884   5.642   2.746   2.637
 1647TIP3    H2 4885   5.538   2.637   2.652
 1648TIP3   OH2 4886   1.599   3.592   1.660
 1648TIP3    H1 4887   1.586   3.682   1.691
 1648TIP3    H2 4888   1.514   3.550   1.674
 1649TIP3   OH2 4889   5.147   1.576   1.644
 1649TIP3    H1 4890   5.140   1.508   1.577
 1649TIP3    H2 4891   5.192   1.534   1.717
 1650TIP3   OH2 4892   1.442   7.767   2.197
 1650TIP3    H1 4893   1.410   7.709   2.266
 1650TIP3    H2 4894   1.401   7.733   2.117
 1651TIP3   OH2 4895   2.557   1.435   6.226
 1651TIP3    H1 4896   2.535   1.524   6.253
 1651TIP3    H2 4897   2.527   1.380   6.299
 1652TIP3   OH2 4898   0.715   6.989   6.618
 1652TIP3    H1 4899   0.807   6.991   6.592
 1652TIP3    H2 4900   0.670   7.040   6.551
 1653TIP3   OH2 4901   0.719   3.759   5.825
 1653TIP3    H1 4902   0.650   3.694   5.837
 1653TIP3    H2 4903   0.786   3.712   5.775
 1654TIP3   OH2 4904   2.859   5.659  -0.001
 1654TIP3    H1 4905   2.828   5.684   0.086
 1654TIP3    H2 4906   2.953   5.673   0.002
 1655TIP3   OH2 4907   3.932   3.365   2.431
 1655TIP3    H1 4908   3.914   3.274   2.455
 1655TIP3    H2 4909   4.021   3.381   2.464
 1656TIP3   OH2 4910   2.974   2.165   3.031
 1656TIP3    H1 4911   2.938   2.215   2.958
 1656TIP3    H2 4912   3.056   2.129   2.996
 1657TIP3   OH2 4913   0.084   5.002   2.791
 1657TIP3    H1 4914   0.164   4.973   2.834
 1657TIP3    H2 4915   0.069   5.090   2.825
 1658TIP3   OH2 4916   5.953   6.697   1.030
 1658TIP3    H1 4917   5.929   6.641   1.104
 1658TIP3    H2 4918   5.939   6.786   1.061
 1659TIP3   OH2 4919   5.088   1.746   6.395
 1659TIP3    H1 4920   5.117   1.659   6.368
 1659TIP3    H2 4921   5.099   1.747   6.490
 1660TIP3   OH2 4922   1.044   7.458   5.648
 1660TIP3    H1 4923   1.030   7.371   5.685
 1660TIP3    H2 4924   0.963   7.478   5.601
 1661TIP3   OH2 4925   7.246   3.396   2.218
 1661TIP3    H1 4926   7.235   3.488   2.192
 1661TIP3    H2 4927   7.244   3.398   2.314
 1662TIP3   OH2 4928   1.497   6.736   1.240
 1662TIP3    H1 4929   1.529   6.817   1.280
 1662TIP3    H2 4930   1.451   6.691   1.310
 1663TIP3   OH2 4931   3.467   0.072   1.696
 1663TIP3    H1 4932   3.470   0.065   1.791
 1663TIP3    H2 4933   3.388   0.122   1.677
 1664TIP3   OH2 4934   2.676   0.039   0.282
 1664TIP3    H1 4935   2.737   0.105   0.248
 1664TIP3    H2 4936   2.655  -0.015   0.205
 1665TIP3   OH2 4937   0.914   1.218   1.129
 1665TIP3    H1 4938   0.932   1.124   1.126
 1665TIP3    H2 4939   0.971   1.251   1.198
 1666TIP3   OH2 4940   3.835   2.457   4.536
 1666TIP3    H1 4941   3.911   2.427   4.587
 1666TIP3    H2 4942   3.873   2.514   4.469
 1667TIP3   OH2 4943   0.701   4.376   1.388
 1667TIP3    H1 4944   0.755   4.319   1.442
 1667TIP3    H2 4945   0.629   4.319   1.358
 1668TIP3   OH2 4946   3.479   0.746   1.404
 1668TIP3    H1 4947   3.419   0.685   1.363
 1668TIP3    H2 4948   3.522   0.695   1.473
 1669TIP3   OH2 4949   0.899   1.231   4.448
 1669TIP3    H1 4950   0.932   1.238   4.358
 1669TIP3    H2 4951   0.960   1.173   4.492
 1670TIP3   OH2 4952   2.128   0.315   3.306
 1670TIP3    H1 4953   2.178   0.397   3.303
 1670TIP3    H2 4954   2.125   0.286   3.215
 1671TIP3   OH2 4955   1.069   2.592   1.799
 1671TIP3    H1 4956   0.995   2.541   1.764
 1671TIP3    H2 4957   1.058   2.587   1.894
 1672TIP3   OH2 4958   1.452   0.660   3.431
 1672TIP3    H1 4959   1.496   0.628   3.352
 1672TIP3    H2 4960   1.370   0.612   3.434
 1673TIP3   OH2 4961   7.556   4.445   1.424
 1673TIP3    H1 4962   7.500   4.415   1.352
 1673TIP3    H2 4963   7.510   4.418   1.503
 1674TIP3   OH2 4964   8.175   5.822   6.426
 1674TIP3    H1 4965   8.186   5.871   6.507
 1674TIP3    H2 4966   8.250   5.764   6.422
 1675TIP3   OH2 4967   2.693   6.023   1.585
 1675TIP3    H1 4968   2.664   5.939   1.622
 1675TIP3    H2 4969   2.738   6.066   1.657
 1676TIP3   OH2 4970   4.256   4.300   1.084
 1676TIP3    H1 4971   4.219   4.318   1.171
 1676TIP3    H2 4972   4.312   4.223   1.098
 1677TIP3   OH2 4973   5.008   2.406   6.338
 1677TIP3    H1 4974   5.093   2.363   6.351
 1677TIP3    H2 4975   5.005   2.472   6.407
 1678TIP3   OH2 4976   0.985   6.721   3.437
 1678TIP3    H1 4977   1.033   6.664   3.497
 1678TIP3    H2 4978   0.947   6.661   3.373
 1679TIP3   OH2 4979   2.392   7.664   6.049
 1679TIP3    H1 4980   2.374   7.730   5.982
 1679TIP3    H2 4981   2.462   7.611   6.011
 1680TIP3   OH2 4982   6.676   0.115   3.805
 1680TIP3    H1 4983   6.719   0.044   3.757
 1680TIP3    H2 4984   6.630   0.165   3.737
 1681TIP3   OH2 4985   0.317   4.202   5.753
 1681TIP3    H1 4986   0.412   4.209   5.751
 1681TIP3    H2 4987   0.286   4.292   5.763
 1682TIP3   OH2 4988   7.872   5.838   0.078
 1682TIP3    H1 4989   7.920   5.912   0.040
 1682TIP3    H2 4990   7.787   5.875   0.101
 1683TIP3   OH2 4991   7.714   0.371   0.336
 1683TIP3    H1 4992   7.704   0.282   0.302
 1683TIP3    H2 4993   7.805   0.394   0.317
 1684TIP3   OH2 4994   7.211   3.878   0.074
 1684TIP3    H1 4995   7.186   3.819   0.145
 1684TIP3    H2 4996   7.298   3.910   0.098
 1685TIP3   OH2 4997   8.073   6.137   0.312
 1685TIP3    H1 4998   8.153   6.090   0.289
 1685TIP3    H2 4999   8.006   6.069   0.316
 1686TIP3   OH2 5000   6.220   5.572   2.232
 1686TIP3    H1 5001   6.264   5.607   2.155
 1686TIP3    H2 5002   6.158   5.508   2.197
 1687TIP3   OH2 5003   1.848   3.422   4.860
 1687TIP3    H1 5004   1.807   3.346   4.818
 1687TIP3    H2 5005   1.940   3.417   4.835
 1688TIP3   OH2 5006   3.983   0.564   6.666
 1688TIP3    H1 5007   4.053   0.507   6.632
 1688TIP3    H2 5008   3.903   0.513   6.653
 1689TIP3   OH2 5009   1.934   6.288   2.491
 1689TIP3    H1 5010   2.024   6.262   2.474
 1689TIP3    H2 5011   1.941   6.373   2.534
 1690TIP3   OH2 5012   0.380   1.403   5.766
 1690TIP3    H1 5013   0.296   1.410   5.722
 1690TIP3    H2 5014   0.444   1.431   5.701
 1691TIP3   OH2 5015   1.687   6.779   0.743
 1691TIP3    H1 5016   1.719   6.727   0.817
 1691TIP3    H2 5017   1.630   6.719   0.694
 1692TIP3   OH2 5018   7.039   2.092   0.381
 1692TIP3    H1 5019   7.103   2.030   0.345
 1692TIP3    H2 5020   6.996   2.129   0.304
 1693TIP3   OH2 5021   4.765   1.527   5.051
 1693TIP3    H1 5022   4.851   1.499   5.019
 1693TIP3    H2 5023   4.781   1.556   5.140
 1694TIP3   OH2 5024   8.322   6.708   5.551
 1694TIP3    H1 5025   8.414   6.696   5.573
 1694TIP3    H2 5026   8.288   6.619   5.541
 1695TIP3   OH2 5027   1.954   1.390   5.293
 1695TIP3    H1 5028   1.863   1.370   5.313
 1695TIP3    H2 5029   2.004   1.335   5.353
 1696TIP3   OH2 5030   0.522   2.351   1.076
 1696TIP3    H1 5031   0.615   2.335   1.086
 1696TIP3    H2 5032   0.493   2.290   1.009
 1697TIP3   OH2 5033   6.847   1.777   1.381
 1697TIP3    H1 5034   6.847   1.867   1.414
 1697TIP3    H2 5035   6.905   1.780   1.304
 1698TIP3   OH2 5036   1.152   4.660   0.451
 1698TIP3    H1 5037   1.086   4.593   0.434
 1698TIP3    H2 5038   1.113   4.742   0.420
 1699TIP3   OH2 5039   4.562   6.554   2.661
 1699TIP3    H1 5040   4.585   6.517   2.747
 1699TIP3    H2 5041   4.590   6.645   2.667
 1700TIP3   OH2 5042   5.464   5.820   0.326
 1700TIP3    H1 5043   5.394   5.851   0.268
 1700TIP3    H2 5044   5.464   5.725   0.315
 1701TIP3   OH2 5045   6.329   6.277   1.449
 1701TIP3    H1 5046   6.399   6.327   1.491
 1701TIP3    H2 5047   6.289   6.226   1.521
 1702TIP3   OH2 5048   7.563   2.670   4.189
 1702TIP3    H1 5049   7.471   2.674   4.164
 1702TIP3    H2 5050   7.583   2.756   4.225
 1703TIP3   OH2 5051   1.826   7.412   0.068
 1703TIP3    H1 5052   1.815   7.492   0.118
 1703TIP3    H2 5053   1.843   7.441  -0.021
 1704TIP3   OH2 5054   7.881   2.043   2.976
 1704TIP3    H1 5055   7.960   1.988   2.979
 1704TIP3    H2 5056   7.820   1.994   2.920
 1705TIP3   OH2 5057   4.426   0.131   2.192
 1705TIP3    H1 5058   4.493   0.069   2.220
 1705TIP3    H2 5059   4.343   0.084   2.207
 1706TIP3   OH2 5060   5.963   1.281   1.385
 1706TIP3    H1 5061   5.917   1.230   1.451
 1706TIP3    H2 5062   5.939   1.372   1.402
 1707TIP3   OH2 5063   1.229   7.324   1.351
 1707TIP3    H1 5064   1.213   7.366   1.436
 1707TIP3    H2 5065   1.185   7.382   1.288
 1708TIP3   OH2 5066   8.222   0.374   4.752
 1708TIP3    H1 5067   8.188   0.315   4.685
 1708TIP3    H2 5068   8.145   0.400   4.802
 1709TIP3   OH2 5069   0.340   1.513   3.164
 1709TIP3    H1 5070   0.350   1.565   3.244
 1709TIP3    H2 5071   0.266   1.455   3.183
 1710TIP3   OH2 5072   6.130   7.050   0.629
 1710TIP3    H1 5073   6.191   6.976   0.622
 1710TIP3    H2 5074   6.052   7.013   0.670
 1711TIP3   OH2 5075   2.790   7.479   6.809
 1711TIP3    H1 5076   2.786   7.553   6.749
 1711TIP3    H2 5077   2.725   7.417   6.775
 1712TIP3   OH2 5078   2.164   2.098   0.867
 1712TIP3    H1 5079   2.125   2.040   0.802
 1712TIP3    H2 5080   2.235   2.142   0.821
 1713TIP3   OH2 5081   4.636   2.957   1.909
 1713TIP3    H1 5082   4.668   2.868   1.923
 1713TIP3    H2 5083   4.558   2.965   1.964
 1714TIP3   OH2 5084   3.884   6.115   5.267
 1714TIP3    H1 5085   3.789   6.129   5.264
 1714TIP3    H2 5086   3.899   6.073   5.352
 1715TIP3   OH2 5087   6.798   4.807   2.675
 1715TIP3    H1 5088   6.872   4.860   2.648
 1715TIP3    H2 5089   6.837   4.728   2.712
 1716TIP3   OH2 5090   3.930   7.624   0.727
 1716TIP3    H1 5091   3.861   7.674   0.682
 1716TIP3    H2 5092   3.976   7.689   0.780
 1717TIP3   OH2 5093   2.262   0.252   2.871
 1717TIP3    H1 5094   2.294   0.165   2.851
 1717TIP3    H2 5095   2.315   0.311   2.817
 1718TIP3   OH2 5096   8.006   1.000   3.464
 1718TIP3    H1 5097   7.983   0.930   3.526
 1718TIP3    H2 5098   7.949   0.986   3.389
 1719TIP3   OH2 5099   2.220   0.190   1.273
 1719TIP3    H1 5100   2.208   0.157   1.184
 1719TIP3    H2 5101   2.183   0.121   1.328
 1720TIP3   OH2 5102   1.948   4.698   6.187
 1720TIP3    H1 5103   1.910   4.785   6.175
 1720TIP3    H2 5104   1.877   4.638   6.164
 1721TIP3   OH2 5105   0.311   7.593   3.884
 1721TIP3    H1 5106   0.348   7.538   3.816
 1721TIP3    H2 5107   0.359   7.570   3.963
 1722TIP3   OH2 5108   0.931   4.122   3.693
 1722TIP3    H1 5109   0.879   4.053   3.653
 1722TIP3    H2 5110   0.872   4.162   3.757
 1723TIP3   OH2 5111   6.754   0.829   0.987
 1723TIP3    H1 5112   6.709   0.861   1.065
 1723TIP3    H2 5113   6.688   0.834   0.918
 1724TIP3   OH2 5114   0.379   4.721   6.122
 1724TIP3    H1 5115   0.347   4.737   6.033
 1724TIP3    H2 5116   0.314   4.662   6.160
 1725TIP3   OH2 5117   4.595   1.540   4.663
 1725TIP3    H1 5118   4.649   1.460   4.664
 1725TIP3    H2 5119   4.506   1.509   4.681
 1726TIP3   OH2 5120   5.970   1.884   3.521
 1726TIP3    H1 5121   5.930   1.830   3.453
 1726TIP3    H2 5122   6.062   1.858   3.520
 1727TIP3   OH2 5123  -0.006   2.121   1.386
 1727TIP3    H1 5124   0.032   2.190   1.332
 1727TIP3    H2 5125  -0.098   2.145   1.394
 1728TIP3   OH2 5126   6.759   1.291   3.439
 1728TIP3    H1 5127   6.785   1.380   3.417
 1728TIP3    H2 5128   6.713   1.260   3.361
 1729TIP3   OH2 5129   1.019   3.791   3.949
 1729TIP3    H1 5130   1.066   3.862   3.906
 1729TIP3    H2 5131   0.961   3.835   4.012
 1730TIP3   OH2 5132   7.534   7.510   3.322
 1730TIP3    H1 5133   7.484   7.485   3.399
 1730TIP3    H2 5134   7.625   7.496   3.347
 1731TIP3   OH2 5135   1.304   5.108   4.124
 1731TIP3    H1 5136   1.215   5.110   4.158
 1731TIP3    H2 5137   1.338   5.196   4.142
 1732TIP3   OH2 5138   5.219   4.954   1.707
 1732TIP3    H1 5139   5.141   4.992   1.749
 1732TIP3    H2 5140   5.237   4.875   1.757
 1733TIP3   OH2 5141   2.563   1.446   4.982
 1733TIP3    H1 5142   2.506   1.482   4.914
 1733TIP3    H2 5143   2.529   1.358   4.999
 1734TIP3   OH2 5144   1.361   1.890   3.511
 1734TIP3    H1 5145   1.268   1.907   3.502
 1734TIP3    H2 5146   1.400   1.921   3.429
 1735TIP3   OH2 5147   7.998   2.931   1.001
 1735TIP3    H1 5148   8.041   2.846   0.995
 1735TIP3    H2 5149   7.979   2.955   0.910
 1736TIP3   OH2 5150   7.137   5.471   1.312
 1736TIP3    H1 5151   7.128   5.566   1.324
 1736TIP3    H2 5152   7.074   5.434   1.374
 1737TIP3   OH2 5153   3.485   4.676   1.753
 1737TIP3    H1 5154   3.580   4.670   1.742
 1737TIP3    H2 5155   3.472   4.676   1.848
 1738TIP3   OH2 5156   3.156   6.694   2.161
 1738TIP3    H1 5157   3.233   6.646   2.133
 1738TIP3    H2 5158   3.130   6.651   2.243
 1739TIP3   OH2 5159   5.105   3.027   4.524
 1739TIP3    H1 5160   5.130   3.100   4.468
 1739TIP3    H2 5161   5.187   2.996   4.561
 1740TIP3   OH2 5162   1.499   3.261   2.515
 1740TIP3    H1 5163   1.478   3.173   2.486
 1740TIP3    H2 5164   1.448   3.273   2.595
 1741TIP3   OH2 5165   3.411   7.753   3.366
 1741TIP3    H1 5166   3.399   7.722   3.456
 1741TIP3    H2 5167   3.398   7.847   3.371
 1742TIP3   OH2 5168   7.516   7.169   5.639
 1742TIP3    H1 5169   7.458   7.242   5.663
 1742TIP3    H2 5170   7.460   7.110   5.589
 1743TIP3   OH2 5171   3.415   4.977   3.441
 1743TIP3    H1 5172   3.360   4.910   3.401
 1743TIP3    H2 5173   3.395   4.972   3.535
 1744TIP3   OH2 5174   3.068   0.047   0.432
 1744TIP3    H1 5175   3.019   0.110   0.378
 1744TIP3    H2 5176   3.121  -0.002   0.369
 1745TIP3   OH2 5177   5.149   6.122   2.982
 1745TIP3    H1 5178   5.169   6.051   2.922
 1745TIP3    H2 5179   5.178   6.202   2.937
 1746TIP3   OH2 5180   5.903   7.179   4.664
 1746TIP3    H1 5181   5.857   7.254   4.626
 1746TIP3    H2 5182   5.836   7.111   4.673
 1747TIP3   OH2 5183   2.861   1.594   0.366
 1747TIP3    H1 5184   2.937   1.535   0.362
 1747TIP3    H2 5185   2.862   1.640   0.282
 1748TIP3   OH2 5186   6.622   0.294   4.046
 1748TIP3    H1 5187   6.642   0.203   4.069
 1748TIP3    H2 5188   6.656   0.305   3.957
 1749TIP3   OH2 5189   7.484   1.878   3.566
 1749TIP3    H1 5190   7.510   1.822   3.640
 1749TIP3    H2 5191   7.413   1.830   3.524
 1750TIP3   OH2 5192   3.299   4.563   6.595
 1750TIP3    H1 5193   3.221   4.509   6.583
 1750TIP3    H2 5194   3.348   4.518   6.664
 1751TIP3   OH2 5195   4.176   7.364   2.217
 1751TIP3    H1 5196   4.144   7.321   2.138
 1751TIP3    H2 5197   4.182   7.293   2.281
 1752TIP3   OH2 5198   5.568   1.834   3.813
 1752TIP3    H1 5199   5.583   1.821   3.720
 1752TIP3    H2 5200   5.566   1.746   3.850
 1753TIP3   OH2 5201   1.362   6.438   2.961
 1753TIP3    H1 5202   1.336   6.445   3.053
 1753TIP3    H2 5203   1.455   6.459   2.961
 1754TIP3   OH2 5204   4.903   0.798   3.129
 1754TIP3    H1 5205   4.816   0.781   3.167
 1754TIP3    H2 5206   4.915   0.892   3.138
 1755TIP3   OH2 5207   0.156   6.428   4.425
 1755TIP3    H1 5208   0.233   6.373   4.410
 1755TIP3    H2 5209   0.176   6.510   4.380
 1756TIP3   OH2 5210   6.765   5.645   2.131
 1756TIP3    H1 5211   6.761   5.696   2.212
 1756TIP3    H2 5212   6.827   5.575   2.150
 1757TIP3   OH2 5213   2.810   0.382   6.053
 1757TIP3    H1 5214   2.834   0.297   6.090
 1757TIP3    H2 5215   2.835   0.445   6.121
 1758TIP3   OH2 5216   4.594   0.500   4.319
 1758TIP3    H1 5217   4.518   0.553   4.296
 1758TIP3    H2 5218   4.656   0.561   4.359
 1759TIP3   OH2 5219   3.772   7.388   0.581
 1759TIP3    H1 5220   3.708   7.451   0.614
 1759TIP3    H2 5221   3.843   7.392   0.645
 1760TIP3   OH2 5222   2.275   0.419   2.235
 1760TIP3    H1 5223   2.245   0.507   2.214
 1760TIP3    H2 5224   2.197   0.373   2.266
 1761TIP3   OH2 5225   6.314   1.897   5.584
 1761TIP3    H1 5226   6.248   1.959   5.615
 1761TIP3    H2 5227   6.340   1.929   5.498
 1762TIP3   OH2 5228   1.357   4.312   3.539
 1762TIP3    H1 5229   1.366   4.307   3.443
 1762TIP3    H2 5230   1.371   4.404   3.560
 1763TIP3   OH2 5231   5.593   3.991   3.848
 1763TIP3    H1 5232   5.680   4.012   3.815
 1763TIP3    H2 5233   5.608   3.933   3.923
 1764TIP3   OH2 5234   5.099   6.447   2.087
 1764TIP3    H1 5235   5.068   6.532   2.118
 1764TIP3    H2 5236   5.030   6.416   2.028
 1765TIP3   OH2 5237   0.274   0.888   5.796
 1765TIP3    H1 5238   0.267   0.828   5.870
 1765TIP3    H2 5239   0.192   0.937   5.797
 1766TIP3   OH2 5240   4.107   5.163   4.085
 1766TIP3    H1 5241   4.153   5.199   4.161
 1766TIP3    H2 5242   4.025   5.213   4.081
 1767TIP3   OH2 5243   3.255   6.793   5.449
 1767TIP3    H1 5244   3.237   6.884   5.469
 1767TIP3    H2 5245   3.207   6.743   5.515
 1768TIP3   OH2 5246   3.615   0.893   5.805
 1768TIP3    H1 5247   3.658   0.846   5.734
 1768TIP3    H2 5248   3.687   0.923   5.861
 1769TIP3   OH2 5249   7.211   7.312   6.608
 1769TIP3    H1 5250   7.168   7.397   6.598
 1769TIP3    H2 5251   7.290   7.318   6.554
 1770TIP3   OH2 5252   0.488   0.783   6.102
 1770TIP3    H1 5253   0.446   0.703   6.068
 1770TIP3    H2 5254   0.542   0.752   6.175
 1771TIP3   OH2 5255   3.268   5.986   5.357
 1771TIP3    H1 5256   3.320   6.003   5.278
 1771TIP3    H2 5257   3.331   5.950   5.420
 1772TIP3   OH2 5258   3.260   5.378   1.673
 1772TIP3    H1 5259   3.173   5.337   1.677
 1772TIP3    H2 5260   3.292   5.358   1.585
 1773TIP3   OH2 5261   5.408   1.128   0.691
 1773TIP3    H1 5262   5.382   1.213   0.656
 1773TIP3    H2 5263   5.392   1.133   0.785
 1774TIP3   OH2 5264   7.155   1.529   6.023
 1774TIP3    H1 5265   7.233   1.572   6.056
 1774TIP3    H2 5266   7.147   1.558   5.932
 1775TIP3   OH2 5267   7.526   1.544   4.069
 1775TIP3    H1 5268   7.449   1.496   4.098
 1775TIP3    H2 5269   7.510   1.635   4.095
 1776TIP3   OH2 5270   8.082   4.206   0.579
 1776TIP3    H1 5271   8.079   4.163   0.494
 1776TIP3    H2 5272   8.040   4.144   0.639
 1777TIP3   OH2 5273   1.213   0.482   6.051
 1777TIP3    H1 5274   1.216   0.555   5.988
 1777TIP3    H2 5275   1.261   0.514   6.127
 1778TIP3   OH2 5276   6.267   3.937   0.406
 1778TIP3    H1 5277   6.278   3.869   0.472
 1778TIP3    H2 5278   6.350   3.985   0.406
 1779TIP3   OH2 5279   4.099   0.091   1.442
 1779TIP3    H1 5280   4.150   0.140   1.506
 1779TIP3    H2 5281   4.163   0.034   1.400
 1780TIP3   OH2 5282   1.992   5.344   3.240
 1780TIP3    H1 5283   2.017   5.385   3.158
 1780TIP3    H2 5284   1.992   5.250   3.220
 1781TIP3   OH2 5285   2.356   3.213   5.364
 1781TIP3    H1 5286   2.360   3.169   5.279
 1781TIP3    H2 5287   2.426   3.278   5.361
 1782TIP3   OH2 5288   4.008   2.227   0.312
 1782TIP3    H1 5289   3.971   2.315   0.307
 1782TIP3    H2 5290   4.070   2.232   0.385
 1783TIP3   OH2 5291   7.648   6.383   2.641
 1783TIP3    H1 5292   7.590   6.319   2.683
 1783TIP3    H2 5293   7.597   6.416   2.567
 1784TIP3   OH2 5294   1.198   3.323   4.028
 1784TIP3    H1 5295   1.187   3.248   4.087
 1784TIP3    H2 5296   1.122   3.379   4.048
 1785TIP3   OH2 5297   3.288   2.926   4.308
 1785TIP3    H1 5298   3.241   2.845   4.330
 1785TIP3    H2 5299   3.306   2.967   4.392
 1786TIP3   OH2 5300   4.591   2.548   0.807
 1786TIP3    H1 5301   4.556   2.521   0.722
 1786TIP3    H2 5302   4.555   2.636   0.821
 1787TIP3   OH2 5303   2.198   7.038   1.538
 1787TIP3    H1 5304   2.213   6.946   1.515
 1787TIP3    H2 5305   2.274   7.084   1.502
 1788TIP3   OH2 5306   1.701   4.114   2.855
 1788TIP3    H1 5307   1.710   4.119   2.950
 1788TIP3    H2 5308   1.695   4.020   2.836
 1789TIP3   OH2 5309   5.803   3.321   6.364
 1789TIP3    H1 5310   5.803   3.313   6.459
 1789TIP3    H2 5311   5.728   3.376   6.345
 1790TIP3   OH2 5312   2.405   5.545   3.192
 1790TIP3    H1 5313   2.403   5.640   3.204
 1790TIP3    H2 5314   2.353   5.510   3.264
 1791TIP3   OH2 5315   5.924   3.057   4.174
 1791TIP3    H1 5316   5.940   2.980   4.120
 1791TIP3    H2 5317   6.010   3.086   4.202
 1792TIP3   OH2 5318   6.655  -0.011   2.237
 1792TIP3    H1 5319   6.571   0.033   2.225
 1792TIP3    H2 5320   6.720   0.054   2.208
 1793TIP3   OH2 5321   0.224   3.185   3.246
 1793TIP3    H1 5322   0.292   3.238   3.204
 1793TIP3    H2 5323   0.271   3.137   3.315
 1794TIP3   OH2 5324   1.465   1.539   5.511
 1794TIP3    H1 5325   1.506   1.588   5.583
 1794TIP3    H2 5326   1.387   1.501   5.549
 1795TIP3   OH2 5327   4.310   3.308   2.048
 1795TIP3    H1 5328   4.301   3.403   2.046
 1795TIP3    H2 5329   4.327   3.284   1.957
 1796TIP3   OH2 5330   2.805   2.629   4.143
 1796TIP3    H1 5331   2.803   2.533   4.139
 1796TIP3    H2 5332   2.727   2.656   4.096
 1797TIP3   OH2 5333   5.578   6.154   1.559
 1797TIP3    H1 5334   5.596   6.064   1.586
 1797TIP3    H2 5335   5.487   6.169   1.583
 1798TIP3   OH2 5336   3.121   5.910   0.571
 1798TIP3    H1 5337   3.198   5.854   0.575
 1798TIP3    H2 5338   3.155   5.999   0.572
 1799TIP3   OH2 5339   0.837   7.393   5.197
 1799TIP3    H1 5340   0.745   7.369   5.189
 1799TIP3    H2 5341   0.857   7.442   5.118
 1800TIP3   OH2 5342   7.044   3.619   5.115
 1800TIP3    H1 5343   6.959   3.664   5.109
 1800TIP3    H2 5344   7.038   3.568   5.195
 1801TIP3   OH2 5345   7.998   5.971   2.570
 1801TIP3    H1 5346   8.074   5.946   2.519
 1801TIP3    H2 5347   7.968   5.889   2.609
 1802TIP3   OH2 5348   1.356   3.286   1.469
 1802TIP3    H1 5349   1.266   3.317   1.469
 1802TIP3    H2 5350   1.377   3.272   1.562
 1803TIP3   OH2 5351   0.333   6.108   1.385
 1803TIP3    H1 5352   0.345   6.017   1.358
 1803TIP3    H2 5353   0.405   6.125   1.446
 1804TIP3   OH2 5354   6.294   5.270   5.270
 1804TIP3    H1 5355   6.278   5.289   5.362
 1804TIP3    H2 5356   6.238   5.194   5.251
 1805TIP3   OH2 5357   2.902   4.442   4.646
 1805TIP3    H1 5358   2.911   4.508   4.577
 1805TIP3    H2 5359   2.946   4.365   4.611
 1806TIP3   OH2 5360   6.364   3.932   1.934
 1806TIP3    H1 5361   6.359   3.843   1.969
 1806TIP3    H2 5362   6.302   3.933   1.862
 1807TIP3   OH2 5363   6.514   6.418   1.598
 1807TIP3    H1 5364   6.545   6.356   1.664
 1807TIP3    H2 5365   6.592   6.468   1.574
 1808TIP3   OH2 5366   2.111   0.992   5.007
 1808TIP3    H1 5367   2.184   1.050   4.985
 1808TIP3    H2 5368   2.086   1.017   5.095
 1809TIP3   OH2 5369   2.679   5.973   1.314
 1809TIP3    H1 5370   2.751   5.943   1.257
 1809TIP3    H2 5371   2.720   5.983   1.400
 1810TIP3   OH2 5372   7.767   5.576   1.121
 1810TIP3    H1 5373   7.681   5.540   1.142
 1810TIP3    H2 5374   7.767   5.583   1.026
 1811TIP3   OH2 5375   5.243   0.361   2.670
 1811TIP3    H1 5376   5.157   0.376   2.708
 1811TIP3    H2 5377   5.263   0.442   2.621
 1812TIP3   OH2 5378   2.451   2.856   3.170
 1812TIP3    H1 5379   2.456   2.921   3.240
 1812TIP3    H2 5380   2.394   2.896   3.104
 1813TIP3   OH2 5381   5.167   3.605   3.947
 1813TIP3    H1 5382   5.260   3.591   3.930
 1813TIP3    H2 5383   5.158   3.594   4.042
 1814TIP3   OH2 5384   3.698   2.343   4.767
 1814TIP3    H1 5385   3.755   2.266   4.757
 1814TIP3    H2 5386   3.709   2.391   4.685
 1815TIP3   OH2 5387   8.110   5.061   6.665
 1815TIP3    H1 5388   8.189   5.114   6.657
 1815TIP3    H2 5389   8.143   4.971   6.669
 1816TIP3   OH2 5390   6.650   0.283  -0.060
 1816TIP3    H1 5391   6.621   0.369  -0.029
 1816TIP3    H2 5392   6.639   0.225   0.016
 1817TIP3   OH2 5393   5.678   0.209   3.597
 1817TIP3    H1 5394   5.619   0.225   3.523
 1817TIP3    H2 5395   5.663   0.283   3.656
 1818TIP3   OH2 5396   5.211   0.867   3.825
 1818TIP3    H1 5397   5.214   0.897   3.916
 1818TIP3    H2 5398   5.158   0.932   3.780
 1819TIP3   OH2 5399   6.460   7.583   5.787
 1819TIP3    H1 5400   6.429   7.527   5.858
 1819TIP3    H2 5401   6.412   7.553   5.710
 1820TIP3   OH2 5402   0.764   0.141   3.866
 1820TIP3    H1 5403   0.849   0.150   3.823
 1820TIP3    H2 5404   0.777   0.179   3.953
 1821TIP3   OH2 5405   3.058   3.841   5.985
 1821TIP3    H1 5406   3.014   3.781   5.924
 1821TIP3    H2 5407   3.030   3.928   5.957
 1822TIP3   OH2 5408   7.244   1.724   4.012
 1822TIP3    H1 5409   7.251   1.817   3.988
 1822TIP3    H2 5410   7.258   1.724   4.107
 1823TIP3   OH2 5411   2.894   1.303   1.827
 1823TIP3    H1 5412   2.927   1.345   1.907
 1823TIP3    H2 5413   2.964   1.245   1.800
 1824TIP3   OH2 5414   4.717   3.470   3.863
 1824TIP3    H1 5415   4.678   3.391   3.903
 1824TIP3    H2 5416   4.772   3.436   3.793
 1825TIP3   OH2 5417   1.211   6.972   1.363
 1825TIP3    H1 5418   1.203   6.925   1.280
 1825TIP3    H2 5419   1.176   6.911   1.429
 1826TIP3   OH2 5420   1.817   5.775   3.123
 1826TIP3    H1 5421   1.872   5.844   3.087
 1826TIP3    H2 5422   1.729   5.812   3.124
 1827TIP3   OH2 5423   7.663   1.992   3.362
 1827TIP3    H1 5424   7.690   1.986   3.454
 1827TIP3    H2 5425   7.664   2.086   3.343
 1828TIP3   OH2 5426   1.284   2.615   1.633
 1828TIP3    H1 5427   1.316   2.698   1.668
 1828TIP3    H2 5428   1.211   2.591   1.690
 1829TIP3   OH2 5429   6.696   0.640   2.017
 1829TIP3    H1 5430   6.674   0.598   1.934
 1829TIP3    H2 5431   6.713   0.567   2.077
 1830TIP3   OH2 5432   2.313   5.617   6.273
 1830TIP3    H1 5433   2.355   5.581   6.351
 1830TIP3    H2 5434   2.221   5.594   6.283
 1831TIP3   OH2 5435   5.141   5.444   3.132
 1831TIP3    H1 5436   5.173   5.527   3.098
 1831TIP3    H2 5437   5.104   5.466   3.217
 1832TIP3   OH2 5438   0.181   1.491   0.021
 1832TIP3    H1 5439   0.176   1.454   0.109
 1832TIP3    H2 5440   0.207   1.419  -0.035
 1833TIP3   OH2 5441   1.927   1.384   1.872
 1833TIP3    H1 5442   1.875   1.463   1.880
 1833TIP3    H2 5443   1.953   1.381   1.780
 1834TIP3   OH2 5444   1.932   6.380   4.883
 1834TIP3    H1 5445   1.901   6.389   4.973
 1834TIP3    H2 5446   1.855   6.399   4.829
 1835TIP3   OH2 5447   7.388   2.268   4.120
 1835TIP3    H1 5448   7.456   2.334   4.107
 1835TIP3    H2 5449   7.324   2.286   4.051
 1836TIP3   OH2 5450   7.284   4.773   0.703
 1836TIP3    H1 5451   7.365   4.802   0.745
 1836TIP3    H2 5452   7.219   4.840   0.726
 1837TIP3   OH2 5453   0.267   4.156   4.912
 1837TIP3    H1 5454   0.323   4.081   4.892
 1837TIP3    H2 5455   0.328   4.230   4.919
 1838TIP3   OH2 5456   4.531   7.379   5.245
 1838TIP3    H1 5457   4.508   7.315   5.313
 1838TIP3    H2 5458   4.448   7.418   5.219
 1839TIP3   OH2 5459   2.640   5.390   1.661
 1839TIP3    H1 5460   2.734   5.376   1.677
 1839TIP3    H2 5461   2.602   5.404   1.748
 1840TIP3   OH2 5462   6.104   2.504   5.192
 1840TIP3    H1 5463   6.081   2.541   5.277
 1840TIP3    H2 5464   6.103   2.578   5.132
 1841TIP3   OH2 5465   0.305   0.514   3.110
 1841TIP3    H1 5466   0.373   0.455   3.140
 1841TIP3    H2 5467   0.250   0.529   3.187
 1842TIP3   OH2 5468   2.311   4.133   3.132
 1842TIP3    H1 5469   2.232   4.084   3.109
 1842TIP3    H2 5470   2.335   4.100   3.219
 1843TIP3   OH2 5471   5.265   0.302   1.636
 1843TIP3    H1 5472   5.332   0.365   1.611
 1843TIP3    H2 5473   5.291   0.220   1.593
 1844TIP3   OH2 5474   6.777   3.165   5.854
 1844TIP3    H1 5475   6.755   3.105   5.926
 1844TIP3    H2 5476   6.757   3.116   5.775
 1845TIP3   OH2 5477   4.745   5.278   5.096
 1845TIP3    H1 5478   4.715   5.369   5.089
 1845TIP3    H2 5479   4.827   5.283   5.144
 1846TIP3   OH2 5480   3.853   2.610   4.274
 1846TIP3    H1 5481   3.884   2.682   4.219
 1846TIP3    H2 5482   3.872   2.532   4.223
 1847TIP3   OH2 5483   5.668   0.343   0.862
 1847TIP3    H1 5484   5.688   0.433   0.837
 1847TIP3    H2 5485   5.700   0.290   0.789
 1848TIP3   OH2 5486   0.182   5.854   4.646
 1848TIP3    H1 5487   0.125   5.796   4.696
 1848TIP3    H2 5488   0.268   5.812   4.648
 1849TIP3   OH2 5489   4.790   3.955   0.402
 1849TIP3    H1 5490   4.817   4.044   0.425
 1849TIP3    H2 5491   4.829   3.901   0.471
 1850TIP3   OH2 5492   3.495   0.953   4.951
 1850TIP3    H1 5493   3.511   1.014   4.879
 1850TIP3    H2 5494   3.533   0.996   5.028
 1851TIP3   OH2 5495   5.136   1.129   5.091
 1851TIP3    H1 5496   5.079   1.188   5.042
 1851TIP3    H2 5497   5.224   1.150   5.061
 1852TIP3   OH2 5498   5.357   7.715   1.428
 1852TIP3    H1 5499   5.376   7.764   1.348
 1852TIP3    H2 5500   5.425   7.647   1.432
 1853TIP3   OH2 5501   0.995   5.373   0.609
 1853TIP3    H1 5502   1.021   5.355   0.699
 1853TIP3    H2 5503   1.025   5.462   0.592
 1854TIP3   OH2 5504   5.933   4.731   2.980
 1854TIP3    H1 5505   5.938   4.826   2.970
 1854TIP3    H2 5506   5.881   4.701   2.906
 1855TIP3   OH2 5507   8.151   5.739   2.426
 1855TIP3    H1 5508   8.121   5.665   2.372
 1855TIP3    H2 5509   8.219   5.781   2.372
 1856TIP3   OH2 5510   4.646   3.963   2.748
 1856TIP3    H1 5511   4.710   3.921   2.805
 1856TIP3    H2 5512   4.698   3.999   2.676
 1857TIP3   OH2 5513   8.264   4.468  -0.022
 1857TIP3    H1 5514   8.272   4.420   0.061
 1857TIP3    H2 5515   8.241   4.557   0.004
 1858TIP3   OH2 5516   7.915   4.465   1.681
 1858TIP3    H1 5517   7.879   4.435   1.597
 1858TIP3    H2 5518   7.978   4.532   1.657
 1859TIP3   OH2 5519   2.152   0.559   5.417
 1859TIP3    H1 5520   2.136   0.554   5.511
 1859TIP3    H2 5521   2.104   0.637   5.389
 1860TIP3   OH2 5522   0.249   6.151   6.294
 1860TIP3    H1 5523   0.228   6.078   6.236
 1860TIP3    H2 5524   0.299   6.111   6.365
 1861TIP3   OH2 5525   0.316   4.704   4.301
 1861TIP3    H1 5526   0.269   4.682   4.220
 1861TIP3    H2 5527   0.255   4.760   4.349
 1862TIP3   OH2 5528   3.548   7.580   4.512
 1862TIP3    H1 5529   3.603   7.643   4.466
 1862TIP3    H2 5530   3.471   7.569   4.456
 1863TIP3   OH2 5531   5.810   1.774   4.027
 1863TIP3    H1 5532   5.781   1.753   3.938
 1863TIP3    H2 5533   5.890   1.824   4.015
 1864TIP3   OH2 5534   1.781   3.581   5.596
 1864TIP3    H1 5535   1.726   3.540   5.530
 1864TIP3    H2 5536   1.795   3.671   5.564
 1865TIP3   OH2 5537   0.939   7.135   2.810
 1865TIP3    H1 5538   1.018   7.084   2.796
 1865TIP3    H2 5539   0.932   7.145   2.905
 1866TIP3   OH2 5540   1.096   4.204   4.385
 1866TIP3    H1 5541   1.142   4.288   4.386
 1866TIP3    H2 5542   1.051   4.202   4.301
 1867TIP3   OH2 5543   4.097   4.163   2.466
 1867TIP3    H1 5544   4.178   4.164   2.517
 1867TIP3    H2 5545   4.123   4.136   2.378
 1868TIP3   OH2 5546   7.180   3.479   2.477
 1868TIP3    H1 5547   7.098   3.523   2.455
 1868TIP3    H2 5548   7.230   3.544   2.525
 1869TIP3   OH2 5549   1.152   2.847   4.462
 1869TIP3    H1 5550   1.240   2.868   4.430
 1869TIP3    H2 5551   1.166   2.815   4.551
 1870TIP3   OH2 5552   0.188   1.957   5.808
 1870TIP3    H1 5553   0.160   1.902   5.881
 1870TIP3    H2 5554   0.134   2.035   5.814
 1871TIP3   OH2 5555   4.665   7.126   1.883
 1871TIP3    H1 5556   4.652   7.035   1.857
 1871TIP3    H2 5557   4.632   7.131   1.972
 1872TIP3   OH2 5558   3.033   0.425   4.933
 1872TIP3    H1 5559   3.079   0.343   4.952
 1872TIP3    H2 5560   2.942   0.399   4.920
 1873TIP3   OH2 5561   2.758   4.984   4.048
 1873TIP3    H1 5562   2.736   4.903   4.094
 1873TIP3    H2 5563   2.822   4.957   3.982
 1874TIP3   OH2 5564   0.191   6.886   1.963
 1874TIP3    H1 5565   0.249   6.853   2.031
 1874TIP3    H2 5566   0.178   6.811   1.905
 1875TIP3   OH2 5567   2.729   7.487   0.181
 1875TIP3    H1 5568   2.667   7.559   0.166
 1875TIP3    H2 5569   2.677   7.421   0.227
 1876TIP3   OH2 5570   7.606   2.830   1.052
 1876TIP3    H1 5571   7.580   2.762   1.114
 1876TIP3    H2 5572   7.636   2.781   0.974
 1877TIP3   OH2 5573   7.182   4.652   3.891
 1877TIP3    H1 5574   7.261   4.647   3.944
 1877TIP3    H2 5575   7.154   4.561   3.880
 1878TIP3   OH2 5576   7.482   5.141   4.421
 1878TIP3    H1 5577   7.509   5.179   4.337
 1878TIP3    H2 5578   7.561   5.099   4.455
 1879TIP3   OH2 5579   4.744   0.073   6.626
 1879TIP3    H1 5580   4.664   0.071   6.574
 1879TIP3    H2 5581   4.722   0.126   6.703
 1880TIP3   OH2 5582   0.067   4.968   3.429
 1880TIP3    H1 5583   0.031   4.914   3.499
 1880TIP3    H2 5584  -0.003   4.974   3.364
 1881TIP3   OH2 5585   0.845   6.746   2.101
 1881TIP3    H1 5586   0.836   6.761   2.195
 1881TIP3    H2 5587   0.938   6.726   2.088
 1882TIP3   OH2 5588   1.444   3.873   2.010
 1882TIP3    H1 5589   1.350   3.889   2.007
 1882TIP3    H2 5590   1.473   3.917   2.091
 1883TIP3   OH2 5591   5.628   1.027   4.116
 1883TIP3    H1 5592   5.706   0.974   4.134
 1883TIP3    H2 5593   5.598   1.055   4.202
 1884TIP3   OH2 5594   6.421   6.132   0.020
 1884TIP3    H1 5595   6.508   6.172   0.018
 1884TIP3    H2 5596   6.362   6.203  -0.006
 1885TIP3   OH2 5597   4.590   1.787   6.278
 1885TIP3    H1 5598   4.663   1.795   6.340
 1885TIP3    H2 5599   4.629   1.747   6.201
 1886TIP3   OH2 5600   0.197   2.187   4.664
 1886TIP3    H1 5601   0.289   2.165   4.652
 1886TIP3    H2 5602   0.197   2.257   4.729
 1887TIP3   OH2 5603   4.873   3.192   2.917
 1887TIP3    H1 5604   4.956   3.149   2.939
 1887TIP3    H2 5605   4.837   3.139   2.846
 1888TIP3   OH2 5606   2.681   6.712   6.248
 1888TIP3    H1 5607   2.735   6.791   6.243
 1888TIP3    H2 5608   2.591   6.744   6.244
 1889TIP3   OH2 5609   1.439   1.236   0.910
 1889TIP3    H1 5610   1.364   1.283   0.946
 1889TIP3    H2 5611   1.502   1.304   0.886
 1890TIP3   OH2 5612   0.821   2.330   5.787
 1890TIP3    H1 5613   0.890   2.355   5.726
 1890TIP3    H2 5614   0.844   2.242   5.816
 1891TIP3   OH2 5615   3.951   4.282   1.135
 1891TIP3    H1 5616   3.871   4.332   1.120
 1891TIP3    H2 5617   3.921   4.195   1.163
 1892TIP3   OH2 5618   2.041   7.282   2.566
 1892TIP3    H1 5619   2.107   7.235   2.617
 1892TIP3    H2 5620   2.090   7.319   2.492
 1893TIP3   OH2 5621   7.921   1.884   3.851
 1893TIP3    H1 5622   8.011   1.857   3.836
 1893TIP3    H2 5623   7.927   1.977   3.871
 1894TIP3   OH2 5624   7.606   1.411   5.290
 1894TIP3    H1 5625   7.600   1.505   5.277
 1894TIP3    H2 5626   7.604   1.374   5.202
 1895TIP3   OH2 5627   5.405   0.804   1.250
 1895TIP3    H1 5628   5.379   0.738   1.315
 1895TIP3    H2 5629   5.325   0.819   1.199
 1896TIP3   OH2 5630   1.718   4.094   0.773
 1896TIP3    H1 5631   1.686   4.144   0.847
 1896TIP3    H2 5632   1.782   4.151   0.731
 1897TIP3   OH2 5633   0.848   3.674   5.583
 1897TIP3    H1 5634   0.757   3.684   5.557
 1897TIP3    H2 5635   0.896   3.666   5.500
 1898TIP3   OH2 5636   6.895   0.356   2.587
 1898TIP3    H1 5637   6.858   0.327   2.670
 1898TIP3    H2 5638   6.985   0.381   2.607
 1899TIP3   OH2 5639   2.227   3.010   0.734
 1899TIP3    H1 5640   2.173   2.981   0.661
 1899TIP3    H2 5641   2.204   3.102   0.746
 1900TIP3   OH2 5642   6.730   0.913   4.537
 1900TIP3    H1 5643   6.703   0.832   4.581
 1900TIP3    H2 5644   6.823   0.921   4.559
 1901TIP3   OH2 5645   3.816   4.756   3.662
 1901TIP3    H1 5646   3.833   4.850   3.667
 1901TIP3    H2 5647   3.744   4.741   3.724
 1902TIP3   OH2 5648   5.769   6.677   0.841
 1902TIP3    H1 5649   5.835   6.671   0.911
 1902TIP3    H2 5650   5.801   6.747   0.785
 1903TIP3   OH2 5651   5.894   1.743   3.758
 1903TIP3    H1 5652   5.987   1.722   3.760
 1903TIP3    H2 5653   5.885   1.807   3.688
 1904TIP3   OH2 5654   5.374   1.156   5.006
 1904TIP3    H1 5655   5.411   1.075   4.972
 1904TIP3    H2 5656   5.450   1.205   5.038
 1905TIP3   OH2 5657   1.956   0.358   6.393
 1905TIP3    H1 5658   1.997   0.275   6.367
 1905TIP3    H2 5659   1.862   0.341   6.386
 1906TIP3   OH2 5660   2.396   0.412   1.229
 1906TIP3    H1 5661   2.321   0.352   1.232
 1906TIP3    H2 5662   2.415   0.431   1.320
 1907TIP3   OH2 5663   7.266   6.840   6.713
 1907TIP3    H1 5664   7.227   6.927   6.713
 1907TIP3    H2 5665   7.211   6.789   6.773
 1908TIP3   OH2 5666   4.830   6.357   4.886
 1908TIP3    H1 5667   4.759   6.381   4.946
 1908TIP3    H2 5668   4.887   6.434   4.885
 1909TIP3   OH2 5669   0.144   2.881   6.039
 1909TIP3    H1 5670   0.106   2.966   6.016
 1909TIP3    H2 5671   0.075   2.836   6.088
 1910TIP3   OH2 5672   6.507   3.894   1.200
 1910TIP3    H1 5673   6.451   3.884   1.123
 1910TIP3    H2 5674   6.481   3.978   1.237
 1911TIP3   OH2 5675   4.464   0.880   0.851
 1911TIP3    H1 5676   4.507   0.823   0.786
 1911TIP3    H2 5677   4.438   0.958   0.801
 1912TIP3   OH2 5678   0.592   6.774   0.943
 1912TIP3    H1 5679   0.588   6.716   0.866
 1912TIP3    H2 5680   0.686   6.786   0.958
 1913TIP3   OH2 5681   2.524   7.122   5.984
 1913TIP3    H1 5682   2.512   7.158   5.896
 1913TIP3    H2 5683   2.514   7.197   6.043
 1914TIP3   OH2 5684   1.171   6.176   3.108
 1914TIP3    H1 5685   1.176   6.263   3.148
 1914TIP3    H2 5686   1.170   6.193   3.014
 1915TIP3   OH2 5687   0.291   6.775   3.395
 1915TIP3    H1 5688   0.288   6.866   3.366
 1915TIP3    H2 5689   0.254   6.776   3.483
 1916TIP3   OH2 5690   5.707   5.770   2.954
 1916TIP3    H1 5691   5.779   5.822   2.919
 1916TIP3    H2 5692   5.688   5.809   3.039
 1917TIP3   OH2 5693   0.408   5.797   5.321
 1917TIP3    H1 5694   0.333   5.757   5.365
 1917TIP3    H2 5695   0.381   5.804   5.229
 1918TIP3   OH2 5696   4.378   4.889   0.488
 1918TIP3    H1 5697   4.371   4.974   0.531
 1918TIP3    H2 5698   4.310   4.836   0.531
 1919TIP3   OH2 5699   1.686   5.610   0.219
 1919TIP3    H1 5700   1.760   5.631   0.275
 1919TIP3    H2 5701   1.695   5.516   0.200
 1920TIP3   OH2 5702   4.560   5.737   4.187
 1920TIP3    H1 5703   4.565   5.832   4.194
 1920TIP3    H2 5704   4.519   5.721   4.101
 1921TIP3   OH2 5705   1.041   4.436   3.990
 1921TIP3    H1 5706   0.962   4.488   4.006
 1921TIP3    H2 5707   1.073   4.466   3.905
 1922TIP3   OH2 5708   2.880   5.006   2.876
 1922TIP3    H1 5709   2.785   5.017   2.871
 1922TIP3    H2 5710   2.892   4.919   2.914
 1923TIP3   OH2 5711   1.272   4.824   3.976
 1923TIP3    H1 5712   1.359   4.790   3.998
 1923TIP3    H2 5713   1.265   4.904   4.028
 1924TIP3   OH2 5714   3.224   5.545   1.869
 1924TIP3    H1 5715   3.215   5.463   1.917
 1924TIP3    H2 5716   3.237   5.518   1.778
 1925TIP3   OH2 5717   3.043   4.696   1.870
 1925TIP3    H1 5718   3.081   4.618   1.910
 1925TIP3    H2 5719   2.965   4.715   1.922
 1926TIP3   OH2 5720   3.829   7.313   3.621
 1926TIP3    H1 5721   3.795   7.399   3.598
 1926TIP3    H2 5722   3.920   7.330   3.646
 1927TIP3   OH2 5723   1.499   5.480   5.205
 1927TIP3    H1 5724   1.545   5.513   5.129
 1927TIP3    H2 5725   1.494   5.385   5.191
 1928TIP3   OH2 5726   1.315   1.012   0.788
 1928TIP3    H1 5727   1.330   1.105   0.805
 1928TIP3    H2 5728   1.235   0.991   0.837
 1929TIP3   OH2 5729   4.334   4.888   1.124
 1929TIP3    H1 5730   4.245   4.905   1.157
 1929TIP3    H2 5731   4.376   4.836   1.193
 1930TIP3   OH2 5732   5.852   7.532   4.689
 1930TIP3    H1 5733   5.759   7.524   4.667
 1930TIP3    H2 5734   5.857   7.507   4.781
 1931TIP3   OH2 5735   7.058   2.079   1.200
 1931TIP3    H1 5736   7.012   2.050   1.279
 1931TIP3    H2 5737   7.149   2.088   1.228
 1932TIP3   OH2 5738   1.878   4.375   2.231
 1932TIP3    H1 5739   1.877   4.467   2.204
 1932TIP3    H2 5740   1.819   4.331   2.170
 1933TIP3   OH2 5741   2.194   1.457   1.318
 1933TIP3    H1 5742   2.233   1.445   1.404
 1933TIP3    H2 5743   2.198   1.370   1.278
 1934TIP3   OH2 5744   0.958   6.016   4.392
 1934TIP3    H1 5745   0.995   6.022   4.304
 1934TIP3    H2 5746   1.026   5.973   4.444
 1935TIP3   OH2 5747   6.807   0.008   1.473
 1935TIP3    H1 5748   6.900   0.030   1.460
 1935TIP3    H2 5749   6.768   0.020   1.386
 1936TIP3   OH2 5750   3.069   0.342   1.030
 1936TIP3    H1 5751   2.994   0.342   0.970
 1936TIP3    H2 5752   3.102   0.253   1.028
 1937TIP3   OH2 5753   4.549   0.094   6.425
 1937TIP3    H1 5754   4.541   0.190   6.428
 1937TIP3    H2 5755   4.474   0.063   6.476
 1938TIP3   OH2 5756   5.427   2.861   0.567
 1938TIP3    H1 5757   5.436   2.926   0.497
 1938TIP3    H2 5758   5.347   2.813   0.545
 1939TIP3   OH2 5759   3.925   7.389   6.231
 1939TIP3    H1 5760   4.006   7.339   6.219
 1939TIP3    H2 5761   3.921   7.447   6.155
 1940TIP3   OH2 5762   2.476   7.568   4.084
 1940TIP3    H1 5763   2.476   7.483   4.128
 1940TIP3    H2 5764   2.452   7.549   3.993
 1941TIP3   OH2 5765   3.076   6.417   5.332
 1941TIP3    H1 5766   3.013   6.449   5.397
 1941TIP3    H2 5767   3.161   6.450   5.363
 1942TIP3   OH2 5768   0.009   4.788   1.549
 1942TIP3    H1 5769   0.075   4.758   1.612
 1942TIP3    H2 5770   0.060   4.824   1.476
 1943TIP3   OH2 5771   1.496   4.977   3.710
 1943TIP3    H1 5772   1.572   4.969   3.652
 1943TIP3    H2 5773   1.532   4.977   3.798
 1944TIP3   OH2 5774   4.109   4.262   4.445
 1944TIP3    H1 5775   4.033   4.264   4.387
 1944TIP3    H2 5776   4.181   4.231   4.390
 1945TIP3   OH2 5777   6.682   3.183   6.288
 1945TIP3    H1 5778   6.751   3.222   6.341
 1945TIP3    H2 5779   6.622   3.256   6.269
 1946TIP3   OH2 5780   1.032   0.735   0.937
 1946TIP3    H1 5781   1.090   0.736   1.013
 1946TIP3    H2 5782   0.945   0.748   0.974
 1947TIP3   OH2 5783   5.527   1.161   0.195
 1947TIP3    H1 5784   5.511   1.100   0.122
 1947TIP3    H2 5785   5.503   1.111   0.273
 1948TIP3   OH2 5786   2.510   0.421   0.198
 1948TIP3    H1 5787   2.476   0.336   0.170
 1948TIP3    H2 5788   2.547   0.405   0.285
 1949TIP3   OH2 5789   0.232   0.882   6.103
 1949TIP3    H1 5790   0.220   0.970   6.140
 1949TIP3    H2 5791   0.326   0.865   6.112
 1950TIP3   OH2 5792   3.399   6.201   5.943
 1950TIP3    H1 5793   3.406   6.296   5.936
 1950TIP3    H2 5794   3.424   6.169   5.856
 1951TIP3   OH2 5795   3.770   7.479   4.021
 1951TIP3    H1 5796   3.724   7.522   3.949
 1951TIP3    H2 5797   3.778   7.547   4.088
 1952TIP3   OH2 5798   5.583   7.548   5.092
 1952TIP3    H1 5799   5.655   7.542   5.030
 1952TIP3    H2 5800   5.537   7.465   5.084
 1953TIP3   OH2 5801   6.350   5.729   3.184
 1953TIP3    H1 5802   6.325   5.637   3.180
 1953TIP3    H2 5803   6.282   5.770   3.236
 1954TIP3   OH2 5804   6.300   5.749   6.399
 1954TIP3    H1 5805   6.224   5.727   6.453
 1954TIP3    H2 5806   6.369   5.770   6.462
 1955TIP3   OH2 5807   7.683   1.173   5.475
 1955TIP3    H1 5808   7.710   1.252   5.429
 1955TIP3    H2 5809   7.764   1.139   5.515
 1956TIP3   OH2 5810   1.949   0.347   0.315
 1956TIP3    H1 5811   1.925   0.345   0.408
 1956TIP3    H2 5812   1.905   0.425   0.280
 1957TIP3   OH2 5813   6.920   7.628   6.260
 1957TIP3    H1 5814   6.894   7.558   6.319
 1957TIP3    H2 5815   6.845   7.687   6.256
 1958TIP3   OH2 5816   1.315   3.045   6.039
 1958TIP3    H1 5817   1.310   3.141   6.045
 1958TIP3    H2 5818   1.253   3.023   5.969
 1959TIP3   OH2 5819   1.941   5.083   3.159
 1959TIP3    H1 5820   1.985   5.000   3.140
 1959TIP3    H2 5821   1.863   5.083   3.104
 1960TIP3   OH2 5822   5.452   2.327   0.238
 1960TIP3    H1 5823   5.393   2.332   0.163
 1960TIP3    H2 5824   5.449   2.415   0.277
 1961TIP3   OH2 5825   5.645   7.455   0.744
 1961TIP3    H1 5826   5.665   7.549   0.735
 1961TIP3    H2 5827   5.728   7.412   0.723
 1962TIP3   OH2 5828   0.508   2.514   4.433
 1962TIP3    H1 5829   0.494   2.609   4.436
 1962TIP3    H2 5830   0.433   2.480   4.384
 1963TIP3   OH2 5831   4.079   7.390   2.567
 1963TIP3    H1 5832   4.065   7.441   2.647
 1963TIP3    H2 5833   4.049   7.302   2.590
 1964TIP3   OH2 5834   0.438   2.186   4.917
 1964TIP3    H1 5835   0.512   2.234   4.955
 1964TIP3    H2 5836   0.457   2.183   4.824
 1965TIP3   OH2 5837   4.613   4.491   6.452
 1965TIP3    H1 5838   4.667   4.488   6.373
 1965TIP3    H2 5839   4.641   4.569   6.499
 1966TIP3   OH2 5840   4.666   6.179   1.715
 1966TIP3    H1 5841   4.654   6.097   1.764
 1966TIP3    H2 5842   4.752   6.171   1.675
 1967TIP3   OH2 5843   7.562   2.620   3.074
 1967TIP3    H1 5844   7.596   2.534   3.099
 1967TIP3    H2 5845   7.483   2.631   3.128
 1968TIP3   OH2 5846   5.716   6.954   6.503
 1968TIP3    H1 5847   5.641   6.895   6.495
 1968TIP3    H2 5848   5.683   7.027   6.556
 1969TIP3   OH2 5849   7.777   6.250   0.748
 1969TIP3    H1 5850   7.827   6.325   0.780
 1969TIP3    H2 5851   7.686   6.279   0.752
 1970TIP3   OH2 5852   7.701   5.907   4.739
 1970TIP3    H1 5853   7.763   5.908   4.666
 1970TIP3    H2 5854   7.653   5.990   4.730
 1971TIP3   OH2 5855   1.792   1.131   0.897
 1971TIP3    H1 5856   1.877   1.100   0.866
 1971TIP3    H2 5857   1.764   1.195   0.832
 1972TIP3   OH2 5858   7.108   4.356   5.437
 1972TIP3    H1 5859   7.198   4.341   5.468
 1972TIP3    H2 5860   7.104   4.309   5.354
 1973TIP3   OH2 5861   3.392   2.015   2.611
 1973TIP3    H1 5862   3.406   1.923   2.632
 1973TIP3    H2 5863   3.464   2.061   2.652
 1974TIP3   OH2 5864   6.728   0.651   4.649
 1974TIP3    H1 5865   6.769   0.635   4.734
 1974TIP3    H2 5866   6.654   0.590   4.647
 1975TIP3   OH2 5867   2.059   7.597   2.692
 1975TIP3    H1 5868   1.976   7.645   2.700
 1975TIP3    H2 5869   2.104   7.640   2.620
 1976TIP3   OH2 5870   3.006   3.385   5.087
 1976TIP3    H1 5871   2.991   3.295   5.116
 1976TIP3    H2 5872   3.088   3.411   5.131
 1977TIP3   OH2 5873   7.438   0.034   1.736
 1977TIP3    H1 5874   7.458  -0.041   1.791
 1977TIP3    H2 5875   7.481   0.015   1.653
 1978TIP3   OH2 5876   5.589   6.220   1.265
 1978TIP3    H1 5877   5.511   6.169   1.246
 1978TIP3    H2 5878   5.608   6.204   1.357
 1979TIP3   OH2 5879   6.372   6.522   1.813
 1979TIP3    H1 5880   6.371   6.471   1.895
 1979TIP3    H2 5881   6.421   6.467   1.752
 1980TIP3   OH2 5882   5.692   0.695   2.318
 1980TIP3    H1 5883   5.771   0.735   2.355
 1980TIP3    H2 5884   5.711   0.683   2.225
 1981TIP3   OH2 5885   4.410   4.943  -0.047
 1981TIP3    H1 5886   4.501   4.916  -0.034
 1981TIP3    H2 5887   4.394   5.006   0.023
 1982TIP3   OH2 5888   1.658   4.725   5.179
 1982TIP3    H1 5889   1.626   4.644   5.138
 1982TIP3    H2 5890   1.578   4.774   5.200
 1983TIP3   OH2 5891   3.537   2.635   4.560
 1983TIP3    H1 5892   3.506   2.547   4.538
 1983TIP3    H2 5893   3.459   2.680   4.594
 1984TIP3   OH2 5894   5.020   3.091   4.811
 1984TIP3    H1 5895   5.044   3.181   4.834
 1984TIP3    H2 5896   4.958   3.101   4.739
 1985TIP3   OH2 5897   5.206   0.939   4.111
 1985TIP3    H1 5898   5.234   1.030   4.125
 1985TIP3    H2 5899   5.126   0.931   4.162
 1986TIP3   OH2 5900   0.556   7.121   1.792
 1986TIP3    H1 5901   0.620   7.050   1.787
 1986TIP3    H2 5902   0.544   7.136   1.885
 1987TIP3   OH2 5903   1.111   4.501   1.506
 1987TIP3    H1 5904   1.144   4.427   1.456
 1987TIP3    H2 5905   1.169   4.574   1.483
 1988TIP3   OH2 5906   7.085   6.127   1.339
 1988TIP3    H1 5907   7.070   6.134   1.433
 1988TIP3    H2 5908   7.029   6.055   1.310
 1989TIP3   OH2 5909   2.935   4.953   6.455
 1989TIP3    H1 5910   3.006   4.921   6.511
 1989TIP3    H2 5911   2.904   4.875   6.409
 1990TIP3   OH2 5912   4.695   7.579   0.052
 1990TIP3    H1 5913   4.622   7.597  -0.007
 1990TIP3    H2 5914   4.656   7.530   0.124
 1991TIP3   OH2 5915   4.808   5.703   6.029
 1991TIP3    H1 5916   4.828   5.645   5.955
 1991TIP3    H2 5917   4.718   5.733   6.011
 1992TIP3   OH2 5918   6.468   3.229   1.834
 1992TIP3    H1 5919   6.526   3.155   1.851
 1992TIP3    H2 5920   6.497   3.264   1.750
 1993TIP3   OH2 5921   5.369   3.194   3.498
 1993TIP3    H1 5922   5.433   3.246   3.547
 1993TIP3    H2 5923   5.290   3.247   3.496
 1994TIP3   OH2 5924   2.442   4.164   2.194
 1994TIP3    H1 5925   2.400   4.123   2.269
 1994TIP3    H2 5926   2.536   4.145   2.206
 1995TIP3   OH2 5927   8.242   2.936   4.261
 1995TIP3    H1 5928   8.197   2.930   4.177
 1995TIP3    H2 5929   8.298   3.012   4.254
 1996TIP3   OH2 5930   1.532   7.273   0.283
 1996TIP3    H1 5931   1.529   7.291   0.377
 1996TIP3    H2 5932   1.605   7.327   0.252
 1997TIP3   OH2 5933   2.876   5.379   2.104
 1997TIP3    H1 5934   2.843   5.297   2.142
 1997TIP3    H2 5935   2.909   5.354   2.018
 1998TIP3   OH2 5936   4.939   6.331   1.883
 1998TIP3    H1 5937   4.951   6.255   1.940
 1998TIP3    H2 5938   4.856   6.315   1.838
 1999TIP3   OH2 5939   7.115   6.867   1.489
 1999TIP3    H1 5940   7.107   6.825   1.404
 1999TIP3    H2 5941   7.193   6.922   1.481
 2000TIP3   OH2 5942   4.699   6.833   6.260
 2000TIP3    H1 5943   4.656   6.912   6.227
 2000TIP3    H2 5944   4.771   6.819   6.199
 2001TIP3   OH2 5945   8.046   3.457  -0.008
 2001TIP3    H1 5946   8.096   3.380  -0.034
 2001TIP3    H2 5947   8.003   3.432   0.074
 2002TIP3   OH2 5948   7.331   7.383   5.626
 2002TIP3    H1 5949   7.410   7.430   5.601
 2002TIP3    H2 5950   7.260   7.446   5.610
 2003TIP3   OH2 5951   8.113   6.576   0.504
 2003TIP3    H1 5952   8.160   6.511   0.453
 2003TIP3    H2 5953   8.059   6.622   0.440
 2004TIP3   OH2 5954   4.486   2.438   4.981
 2004TIP3    H1 5955   4.575   2.428   4.949
 2004TIP3    H2 5956   4.438   2.365   4.942
 2005TIP3   OH2 5957   5.528   6.611   1.617
 2005TIP3    H1 5958   5.465   6.640   1.683
 2005TIP3    H2 5959   5.478   6.555   1.558
 2006TIP3   OH2 5960   5.093   2.730   3.304
 2006TIP3    H1 5961   5.102   2.735   3.209
 2006TIP3    H2 5962   5.012   2.681   3.319
 2007TIP3   OH2 5963   6.247   2.596   1.116
 2007TIP3    H1 5964   6.170   2.540   1.125
 2007TIP3    H2 5965   6.312   2.557   1.175
 2008TIP3   OH2 5966   8.314   7.032   4.374
 2008TIP3    H1 5967   8.366   7.003   4.299
 2008TIP3    H2 5968   8.224   7.027   4.343
 2009TIP3   OH2 5969   5.580   1.695   5.963
 2009TIP3    H1 5970   5.518   1.688   6.036
 2009TIP3    H2 5971   5.530   1.738   5.893
 2010TIP3   OH2 5972   6.392   2.578   5.552
 2010TIP3    H1 5973   6.464   2.527   5.515
 2010TIP3    H2 5974   6.378   2.650   5.490
 2011TIP3   OH2 5975   5.866   6.573   3.906
 2011TIP3    H1 5976   5.853   6.481   3.930
 2011TIP3    H2 5977   5.911   6.611   3.981
 2012TIP3   OH2 5978   5.499   6.537   2.049
 2012TIP3    H1 5979   5.544   6.499   2.124
 2012TIP3    H2 5980   5.569   6.557   1.986
 2013TIP3   OH2 5981   7.730   7.556   4.032
 2013TIP3    H1 5982   7.677   7.553   4.111
 2013TIP3    H2 5983   7.760   7.466   4.019
 2014TIP3   OH2 5984   0.608   7.704   2.925
 2014TIP3    H1 5985   0.644   7.689   2.838
 2014TIP3    H2 5986   0.604   7.617   2.964
 2015TIP3   OH2 5987   0.632   0.477   4.971
 2015TIP3    H1 5988   0.539   0.497   4.960
 2015TIP3    H2 5989   0.633   0.385   4.999
 2016TIP3   OH2 5990   3.674   2.622   0.465
 2016TIP3    H1 5991   3.654   2.600   0.556
 2016TIP3    H2 5992   3.710   2.542   0.429
 2017TIP3   OH2 5993   4.428   6.351   3.446
 2017TIP3    H1 5994   4.379   6.271   3.425
 2017TIP3    H2 5995   4.515   6.320   3.471
 2018TIP3   OH2 5996   5.633   4.857   6.591
 2018TIP3    H1 5997   5.644   4.852   6.496
 2018TIP3    H2 5998   5.539   4.844   6.605
 2019TIP3   OH2 5999   7.844   0.981   1.077
 2019TIP3    H1 6000   7.911   0.913   1.077
 2019TIP3    H2 6001   7.828   0.999   1.170
 2020TIP3   OH2 6002   6.870   6.674   6.587
 2020TIP3    H1 6003   6.849   6.765   6.606
 2020TIP3    H2 6004   6.789   6.626   6.605
 2021TIP3   OH2 6005   6.024   4.568   5.645
 2021TIP3    H1 6006   5.929   4.567   5.643
 2021TIP3    H2 6007   6.050   4.621   5.569
 2022TIP3   OH2 6008   0.043   2.490   5.462
 2022TIP3    H1 6009  -0.025   2.427   5.442
 2022TIP3    H2 6010  -0.004   2.572   5.479
 2023TIP3   OH2 6011   3.469   4.986   1.925
 2023TIP3    H1 6012   3.465   5.009   2.017
 2023TIP3    H2 6013   3.460   5.070   1.878
 2024TIP3   OH2 6014   3.396   6.708   3.990
 2024TIP3    H1 6015   3.384   6.801   4.012
 2024TIP3    H2 6016   3.460   6.677   4.054
 2025TIP3   OH2 6017   4.417   1.751   2.284
 2025TIP3    H1 6018   4.416   1.697   2.364
 2025TIP3    H2 6019   4.476   1.704   2.225
 2026TIP3   OH2 6020   3.995   4.989   3.403
 2026TIP3    H1 6021   4.021   5.047   3.331
 2026TIP3    H2 6022   3.906   4.962   3.382
 2027TIP3   OH2 6023   1.722   5.325   0.140
 2027TIP3    H1 6024   1.677   5.249   0.104
 2027TIP3    H2 6025   1.801   5.288   0.180
 2028TIP3   OH2 6026   8.064   5.281   3.418
 2028TIP3    H1 6027   8.061   5.368   3.380
 2028TIP3    H2 6028   8.055   5.295   3.513
 2029TIP3   OH2 6029   6.249   7.666   0.297
 2029TIP3    H1 6030   6.188   7.633   0.364
 2029TIP3    H2 6031   6.259   7.593   0.236
 2030TIP3   OH2 6032   1.906   5.786   3.394
 2030TIP3    H1 6033   1.995   5.774   3.426
 2030TIP3    H2 6034   1.916   5.831   3.310
 2031TIP3   OH2 6035   7.622   1.733   4.696
 2031TIP3    H1 6036   7.672   1.779   4.763
 2031TIP3    H2 6037   7.579   1.662   4.743
 2032TIP3   OH2 6038   0.977   7.111   1.408
 2032TIP3    H1 6039   1.071   7.113   1.388
 2032TIP3    H2 6040   0.953   7.019   1.398
 2033TIP3   OH2 6041   0.504   6.948   4.407
 2033TIP3    H1 6042   0.503   6.962   4.502
 2033TIP3    H2 6043   0.586   6.989   4.378
 2034TIP3   OH2 6044   2.001   1.753   0.801
 2034TIP3    H1 6045   2.019   1.767   0.708
 2034TIP3    H2 6046   1.950   1.672   0.804
 2035TIP3   OH2 6047   2.927   1.958   4.915
 2035TIP3    H1 6048   2.832   1.944   4.916
 2035TIP3    H2 6049   2.937   2.052   4.900
 2036TIP3   OH2 6050   3.256   7.233   0.077
 2036TIP3    H1 6051   3.322   7.167   0.057
 2036TIP3    H2 6052   3.290   7.314   0.040
 2037TIP3   OH2 6053   4.250   2.235   2.227
 2037TIP3    H1 6054   4.249   2.143   2.255
 2037TIP3    H2 6055   4.160   2.265   2.241
 2038TIP3   OH2 6056   4.688   6.068   3.753
 2038TIP3    H1 6057   4.627   6.019   3.697
 2038TIP3    H2 6058   4.748   6.001   3.787
 2039TIP3   OH2 6059   3.650   3.638   5.169
 2039TIP3    H1 6060   3.565   3.678   5.149
 2039TIP3    H2 6061   3.667   3.580   5.095
 2040TIP3   OH2 6062   6.793   2.324   5.655
 2040TIP3    H1 6063   6.724   2.260   5.671
 2040TIP3    H2 6064   6.748   2.409   5.660
 2041TIP3   OH2 6065   4.437   4.453   4.665
 2041TIP3    H1 6066   4.368   4.408   4.712
 2041TIP3    H2 6067   4.412   4.446   4.572
 2042TIP3   OH2 6068   4.537   3.897   1.131
 2042TIP3    H1 6069   4.527   3.829   1.064
 2042TIP3    H2 6070   4.582   3.852   1.202
 2043TIP3   OH2 6071   4.267   7.813   1.089
 2043TIP3    H1 6072   4.274   7.838   1.181
 2043TIP3    H2 6073   4.353   7.777   1.067
 2044TIP3   OH2 6074   3.955   6.285   3.910
 2044TIP3    H1 6075   3.890   6.248   3.850
 2044TIP3    H2 6076   4.017   6.214   3.925
 2045TIP3   OH2 6077   4.064   3.959   3.733
 2045TIP3    H1 6078   4.144   3.909   3.750
 2045TIP3    H2 6079   4.005   3.896   3.691
 2046TIP3   OH2 6080   5.456   3.051   2.357
 2046TIP3    H1 6081   5.531   3.014   2.311
 2046TIP3    H2 6082   5.494   3.112   2.421
 2047TIP3   OH2 6083   6.002   3.674   1.497
 2047TIP3    H1 6084   6.070   3.620   1.538
 2047TIP3    H2 6085   5.920   3.644   1.536
 2048TIP3   OH2 6086   3.309   7.400   1.586
 2048TIP3    H1 6087   3.388   7.404   1.639
 2048TIP3    H2 6088   3.317   7.475   1.526
 2049TIP3   OH2 6089   1.270   4.749   5.496
 2049TIP3    H1 6090   1.320   4.688   5.442
 2049TIP3    H2 6091   1.178   4.730   5.476
 2050TIP3   OH2 6092   7.810   6.403   1.772
 2050TIP3    H1 6093   7.844   6.316   1.751
 2050TIP3    H2 6094   7.846   6.460   1.704
 2051TIP3   OH2 6095   5.346   0.431   4.591
 2051TIP3    H1 6096   5.407   0.430   4.665
 2051TIP3    H2 6097   5.357   0.516   4.550
 2052TIP3   OH2 6098   0.627   3.039   0.751
 2052TIP3    H1 6099   0.631   3.133   0.771
 2052TIP3    H2 6100   0.590   3.000   0.830
 2053TIP3   OH2 6101   2.531   0.399   4.240
 2053TIP3    H1 6102   2.544   0.308   4.266
 2053TIP3    H2 6103   2.457   0.429   4.293
 2054TIP3   OH2 6104   1.180   1.920   2.673
 2054TIP3    H1 6105   1.270   1.899   2.651
 2054TIP3    H2 6106   1.185   2.004   2.718
 2055TIP3   OH2 6107   2.521   5.109   4.101
 2055TIP3    H1 6108   2.596   5.096   4.044
 2055TIP3    H2 6109   2.459   5.159   4.049
 2056TIP3   OH2 6110   0.712   3.665   6.249
 2056TIP3    H1 6111   0.801   3.637   6.270
 2056TIP3    H2 6112   0.656   3.595   6.282
 2057TIP3   OH2 6113   6.110   2.496   4.096
 2057TIP3    H1 6114   6.015   2.510   4.097
 2057TIP3    H2 6115   6.146   2.580   4.067
 2058TIP3   OH2 6116   6.060   1.924   6.708
 2058TIP3    H1 6117   5.978   1.875   6.713
 2058TIP3    H2 6118   6.054   1.972   6.626
 2059TIP3   OH2 6119   6.386   7.822   0.488
 2059TIP3    H1 6120   6.476   7.798   0.466
 2059TIP3    H2 6121   6.332   7.769   0.429
 2060TIP3   OH2 6122   8.194   2.529   0.131
 2060TIP3    H1 6123   8.140   2.607   0.142
 2060TIP3    H2 6124   8.160   2.487   0.052
 2061TIP3   OH2 6125   3.569   1.211   6.040
 2061TIP3    H1 6126   3.564   1.268   5.963
 2061TIP3    H2 6127   3.512   1.137   6.019
 2062TIP3   OH2 6128   5.587   0.219   6.447
 2062TIP3    H1 6129   5.615   0.304   6.481
 2062TIP3    H2 6130   5.492   0.224   6.443
 2063TIP3   OH2 6131   0.910   7.361   6.724
 2063TIP3    H1 6132   0.860   7.412   6.787
 2063TIP3    H2 6133   0.929   7.422   6.653
 2064TIP3   OH2 6134   6.409   4.482   4.927
 2064TIP3    H1 6135   6.432   4.402   4.880
 2064TIP3    H2 6136   6.381   4.452   5.013
 2065TIP3   OH2 6137   0.209   4.703   1.758
 2065TIP3    H1 6138   0.186   4.613   1.783
 2065TIP3    H2 6139   0.155   4.757   1.815
 2066TIP3   OH2 6140   2.981   0.169   3.517
 2066TIP3    H1 6141   2.934   0.087   3.531
 2066TIP3    H2 6142   2.940   0.230   3.578
 2067TIP3   OH2 6143   1.525   2.453   4.046
 2067TIP3    H1 6144   1.609   2.439   4.089
 2067TIP3    H2 6145   1.481   2.368   4.050
 2068TIP3   OH2 6146   0.927   3.663   3.725
 2068TIP3    H1 6147   0.878   3.580   3.724
 2068TIP3    H2 6148   0.973   3.663   3.809
 2069TIP3   OH2 6149   4.936   4.668   2.390
 2069TIP3    H1 6150   5.001   4.736   2.372
 2069TIP3    H2 6151   4.973   4.618   2.463
 2070TIP3   OH2 6152   3.109   3.327   5.566
 2070TIP3    H1 6153   3.051   3.260   5.530
 2070TIP3    H2 6154   3.067   3.355   5.647
 2071TIP3   OH2 6155   6.698   6.756   0.730
 2071TIP3    H1 6156   6.793   6.751   0.747
 2071TIP3    H2 6157   6.673   6.666   0.709
 2072TIP3   OH2 6158   7.750   4.134   5.807
 2072TIP3    H1 6159   7.723   4.067   5.744
 2072TIP3    H2 6160   7.813   4.188   5.759
 2073TIP3   OH2 6161   1.514   7.100   6.714
 2073TIP3    H1 6162   1.450   7.169   6.698
 2073TIP3    H2 6163   1.561   7.090   6.631
 2074TIP3   OH2 6164   1.920   4.935   0.824
 2074TIP3    H1 6165   1.940   4.845   0.800
 2074TIP3    H2 6166   1.927   4.937   0.919
 2075TIP3   OH2 6167   7.476   0.835   4.514
 2075TIP3    H1 6168   7.525   0.789   4.582
 2075TIP3    H2 6169   7.455   0.767   4.450
 2076TIP3   OH2 6170   7.589   5.478   4.216
 2076TIP3    H1 6171   7.540   5.470   4.134
 2076TIP3    H2 6172   7.602   5.388   4.245
 2077TIP3   OH2 6173   5.363   2.748   1.375
 2077TIP3    H1 6174   5.410   2.722   1.295
 2077TIP3    H2 6175   5.431   2.789   1.429
 2078TIP3   OH2 6176   1.051   2.618   4.328
 2078TIP3    H1 6177   1.075   2.702   4.368
 2078TIP3    H2 6178   1.131   2.589   4.285
 2079TIP3   OH2 6179   4.966   4.640   1.777
 2079TIP3    H1 6180   4.884   4.602   1.744
 2079TIP3    H2 6181   4.948   4.658   1.869
 2080TIP3   OH2 6182   6.533   4.408   3.008
 2080TIP3    H1 6183   6.582   4.441   2.933
 2080TIP3    H2 6184   6.597   4.401   3.078
 2081TIP3   OH2 6185   5.139   1.743   0.162
 2081TIP3    H1 6186   5.213   1.803   0.155
 2081TIP3    H2 6187   5.073   1.792   0.211
 2082TIP3   OH2 6188   3.298   2.021   6.324
 2082TIP3    H1 6189   3.350   2.008   6.245
 2082TIP3    H2 6190   3.340   1.966   6.390
 2083TIP3   OH2 6191   2.901   3.600   3.599
 2083TIP3    H1 6192   2.981   3.553   3.576
 2083TIP3    H2 6193   2.839   3.532   3.625
 2084TIP3   OH2 6194   8.255   2.778   2.711
 2084TIP3    H1 6195   8.196   2.852   2.725
 2084TIP3    H2 6196   8.199   2.701   2.716
 2085TIP3   OH2 6197   7.581   5.620  -0.024
 2085TIP3    H1 6198   7.638   5.689  -0.059
 2085TIP3    H2 6199   7.574   5.640   0.069
 2086TIP3   OH2 6200   5.172   4.432   0.865
 2086TIP3    H1 6201   5.236   4.426   0.794
 2086TIP3    H2 6202   5.115   4.357   0.853
 2087TIP3   OH2 6203   5.498   4.278   4.547
 2087TIP3    H1 6204   5.407   4.299   4.525
 2087TIP3    H2 6205   5.549   4.349   4.507
 2088TIP3   OH2 6206   6.719   0.432   6.388
 2088TIP3    H1 6207   6.681   0.507   6.434
 2088TIP3    H2 6208   6.810   0.429   6.418
 2089TIP3   OH2 6209   4.902   6.947   3.979
 2089TIP3    H1 6210   4.959   7.003   3.927
 2089TIP3    H2 6211   4.817   6.950   3.934
 2090TIP3   OH2 6212   6.633   7.575   3.428
 2090TIP3    H1 6213   6.662   7.621   3.349
 2090TIP3    H2 6214   6.550   7.534   3.403
 2091TIP3   OH2 6215   2.494   6.911   1.814
 2091TIP3    H1 6216   2.408   6.890   1.779
 2091TIP3    H2 6217   2.549   6.925   1.737
 2092TIP3   OH2 6218   7.951   2.787   4.209
 2092TIP3    H1 6219   7.950   2.702   4.252
 2092TIP3    H2 6220   7.999   2.772   4.127
 2093TIP3   OH2 6221   5.846   5.613   3.665
 2093TIP3    H1 6222   5.771   5.576   3.710
 2093TIP3    H2 6223   5.916   5.549   3.678
 2094TIP3   OH2 6224   4.684   0.166   2.445
 2094TIP3    H1 6225   4.748   0.171   2.374
 2094TIP3    H2 6226   4.633   0.087   2.426
 2095TIP3   OH2 6227   1.755   3.851   5.992
 2095TIP3    H1 6228   1.775   3.921   5.930
 2095TIP3    H2 6229   1.821   3.861   6.061
 2096TIP3   OH2 6230   1.614   1.158   0.356
 2096TIP3    H1 6231   1.636   1.073   0.395
 2096TIP3    H2 6232   1.698   1.192   0.326
 2097TIP3   OH2 6233   0.458   1.930   0.049
 2097TIP3    H1 6234   0.438   2.009   0.000
 2097TIP3    H2 6235   0.372   1.890   0.066
 2098TIP3   OH2 6236   1.631   0.556   4.521
 2098TIP3    H1 6237   1.606   0.532   4.432
 2098TIP3    H2 6238   1.726   0.565   4.517
 2099TIP3   OH2 6239   6.142   0.764   3.701
 2099TIP3    H1 6240   6.067   0.792   3.754
 2099TIP3    H2 6241   6.214   0.819   3.731
 2100TIP3   OH2 6242   0.169   2.985   3.802
 2100TIP3    H1 6243   0.097   3.040   3.772
 2100TIP3    H2 6244   0.246   3.042   3.798
 2101TIP3   OH2 6245   3.651   4.799   6.733
 2101TIP3    H1 6246   3.567   4.840   6.751
 2101TIP3    H2 6247   3.706   4.824   6.807
 2102TIP3   OH2 6248   7.895   7.296   2.630
 2102TIP3    H1 6249   7.850   7.381   2.624
 2102TIP3    H2 6250   7.847   7.239   2.571
 2103TIP3   OH2 6251   3.408   0.553   2.189
 2103TIP3    H1 6252   3.391   0.493   2.116
 2103TIP3    H2 6253   3.372   0.636   2.160
 2104TIP3   OH2 6254   2.119   4.507   1.746
 2104TIP3    H1 6255   2.036   4.486   1.788
 2104TIP3    H2 6256   2.130   4.440   1.679
 2105TIP3   OH2 6257   7.576   1.278   5.749
 2105TIP3    H1 6258   7.486   1.311   5.754
 2105TIP3    H2 6259   7.568   1.192   5.709
 2106TIP3   OH2 6260   2.391   2.014   1.714
 2106TIP3    H1 6261   2.299   1.992   1.698
 2106TIP3    H2 6262   2.433   1.930   1.732
 2107TIP3   OH2 6263   4.596   3.193   2.299
 2107TIP3    H1 6264   4.670   3.133   2.291
 2107TIP3    H2 6265   4.529   3.144   2.346
 2108TIP3   OH2 6266   2.542   3.000   4.421
 2108TIP3    H1 6267   2.496   3.023   4.502
 2108TIP3    H2 6268   2.552   2.905   4.425
 2109TIP3   OH2 6269   2.000   3.470   2.087
 2109TIP3    H1 6270   1.909   3.466   2.057
 2109TIP3    H2 6271   2.051   3.495   2.010
 2110TIP3   OH2 6272   3.968   2.470   3.286
 2110TIP3    H1 6273   3.958   2.381   3.318
 2110TIP3    H2 6274   4.059   2.475   3.256
 2111TIP3   OH2 6275   6.019   7.325   0.245
 2111TIP3    H1 6276   6.007   7.231   0.255
 2111TIP3    H2 6277   6.111   7.341   0.267
 2112TIP3   OH2 6278   5.398   1.424   1.414
 2112TIP3    H1 6279   5.306   1.398   1.403
 2112TIP3    H2 6280   5.436   1.353   1.466
 2113TIP3   OH2 6281   7.325   1.231   0.111
 2113TIP3    H1 6282   7.403   1.181   0.086
 2113TIP3    H2 6283   7.261   1.165   0.138
 2114TIP3   OH2 6284   7.865   0.148   3.544
 2114TIP3    H1 6285   7.943   0.094   3.560
 2114TIP3    H2 6286   7.892   0.236   3.571
 2115TIP3   OH2 6287   5.120   2.990   0.478
 2115TIP3    H1 6288   5.128   3.043   0.399
 2115TIP3    H2 6289   5.027   2.969   0.484
 2116TIP3   OH2 6290   6.057   4.532   6.330
 2116TIP3    H1 6291   6.075   4.490   6.414
 2116TIP3    H2 6292   6.011   4.466   6.279
 2117TIP3   OH2 6293   4.021   5.802   5.377
 2117TIP3    H1 6294   3.980   5.803   5.290
 2117TIP3    H2 6295   4.114   5.820   5.360
 2118TIP3   OH2 6296   5.295   2.777   5.539
 2118TIP3    H1 6297   5.284   2.868   5.568
 2118TIP3    H2 6298   5.253   2.725   5.606
 2119TIP3   OH2 6299   0.589   2.545   1.418
 2119TIP3    H1 6300   0.605   2.610   1.348
 2119TIP3    H2 6301   0.502   2.567   1.451
 2120TIP3   OH2 6302   1.623   6.779   4.191
 2120TIP3    H1 6303   1.689   6.755   4.126
 2120TIP3    H2 6304   1.609   6.699   4.242
 2121TIP3   OH2 6305   4.876   2.397   5.270
 2121TIP3    H1 6306   4.952   2.413   5.214
 2121TIP3    H2 6307   4.910   2.404   5.359
 2122TIP3   OH2 6308   6.126   1.109   3.647
 2122TIP3    H1 6309   6.211   1.065   3.649
 2122TIP3    H2 6310   6.138   1.187   3.702
 2123TIP3   OH2 6311   3.316   0.903   4.485
 2123TIP3    H1 6312   3.282   0.814   4.494
 2123TIP3    H2 6313   3.398   0.902   4.533
 2124TIP3   OH2 6314   1.011   3.911   1.217
 2124TIP3    H1 6315   1.088   3.922   1.162
 2124TIP3    H2 6316   1.007   3.816   1.232
 2125TIP3   OH2 6317   6.170   7.475   2.575
 2125TIP3    H1 6318   6.108   7.429   2.632
 2125TIP3    H2 6319   6.216   7.405   2.528
 2126TIP3   OH2 6320   1.789   1.866   1.568
 2126TIP3    H1 6321   1.790   1.907   1.482
 2126TIP3    H2 6322   1.877   1.831   1.580
 2127TIP3   OH2 6323   1.184   7.691   6.703
 2127TIP3    H1 6324   1.231   7.658   6.780
 2127TIP3    H2 6325   1.212   7.633   6.632
 2128TIP3   OH2 6326   3.891   2.707   2.664
 2128TIP3    H1 6327   3.882   2.802   2.662
 2128TIP3    H2 6328   3.869   2.682   2.754
 2129TIP3   OH2 6329   7.577   7.506   5.638
 2129TIP3    H1 6330   7.578   7.481   5.731
 2129TIP3    H2 6331   7.648   7.569   5.630
 2130TIP3   OH2 6332   4.057   6.038   3.775
 2130TIP3    H1 6333   4.032   6.060   3.686
 2130TIP3    H2 6334   3.997   5.968   3.801
 2131TIP3   OH2 6335   4.367   2.650   2.081
 2131TIP3    H1 6336   4.357   2.557   2.059
 2131TIP3    H2 6337   4.303   2.695   2.026
 2132TIP3   OH2 6338   6.345   3.729   3.427
 2132TIP3    H1 6339   6.400   3.805   3.406
 2132TIP3    H2 6340   6.281   3.727   3.356
 2133TIP3   OH2 6341   8.296   2.091   0.604
 2133TIP3    H1 6342   8.291   2.073   0.510
 2133TIP3    H2 6343   8.278   2.007   0.645
 2134TIP3   OH2 6344   6.910   5.187   0.629
 2134TIP3    H1 6345   6.833   5.187   0.573
 2134TIP3    H2 6346   6.875   5.177   0.718
 2135TIP3   OH2 6347   7.615   2.835   0.686
 2135TIP3    H1 6348   7.705   2.839   0.718
 2135TIP3    H2 6349   7.592   2.742   0.691
 2136TIP3   OH2 6350   6.208   1.418   2.052
 2136TIP3    H1 6351   6.227   1.505   2.085
 2136TIP3    H2 6352   6.236   1.421   1.960
 2137TIP3   OH2 6353   1.537   1.097   1.968
 2137TIP3    H1 6354   1.539   1.112   2.063
 2137TIP3    H2 6355   1.629   1.099   1.942
 2138TIP3   OH2 6356   1.046   2.148   1.038
 2138TIP3    H1 6357   1.060   2.082   0.970
 2138TIP3    H2 6358   1.121   2.208   1.030
 2139TIP3   OH2 6359   0.813   2.454   4.970
 2139TIP3    H1 6360   0.803   2.444   4.876
 2139TIP3    H2 6361   0.796   2.367   5.006
 2140TIP3   OH2 6362   0.320   7.522   1.531
 2140TIP3    H1 6363   0.400   7.526   1.479
 2140TIP3    H2 6364   0.292   7.430   1.525
 2141TIP3   OH2 6365   1.295   5.355   6.006
 2141TIP3    H1 6366   1.219   5.296   6.005
 2141TIP3    H2 6367   1.346   5.326   6.081
 2142TIP3   OH2 6368   2.536   3.350   5.837
 2142TIP3    H1 6369   2.471   3.420   5.835
 2142TIP3    H2 6370   2.543   3.322   5.745
 2143TIP3   OH2 6371   2.569   3.792   1.034
 2143TIP3    H1 6372   2.629   3.824   1.102
 2143TIP3    H2 6373   2.591   3.699   1.024
 2144TIP3   OH2 6374   0.634   3.901   0.712
 2144TIP3    H1 6375   0.688   3.866   0.783
 2144TIP3    H2 6376   0.571   3.832   0.692
 2145TIP3   OH2 6377   8.242   5.578   1.119
 2145TIP3    H1 6378   8.207   5.659   1.154
 2145TIP3    H2 6379   8.166   5.534   1.080
 2146TIP3   OH2 6380   3.479   5.963   3.565
 2146TIP3    H1 6381   3.556   5.913   3.592
 2146TIP3    H2 6382   3.459   5.932   3.477
 2147TIP3   OH2 6383   6.130   1.847   4.623
 2147TIP3    H1 6384   6.040   1.816   4.631
 2147TIP3    H2 6385   6.183   1.767   4.627
 2148TIP3   OH2 6386   5.123   6.103   1.763
 2148TIP3    H1 6387   5.077   6.185   1.780
 2148TIP3    H2 6388   5.082   6.040   1.822
 2149TIP3   OH2 6389   4.666   3.611   5.260
 2149TIP3    H1 6390   4.654   3.521   5.231
 2149TIP3    H2 6391   4.638   3.664   5.186
 2150TIP3   OH2 6392   3.819   3.858   1.951
 2150TIP3    H1 6393   3.736   3.906   1.946
 2150TIP3    H2 6394   3.856   3.865   1.863
 2151TIP3   OH2 6395   4.759   6.748   4.831
 2151TIP3    H1 6396   4.829   6.691   4.864
 2151TIP3    H2 6397   4.709   6.693   4.771
 2152TIP3   OH2 6398   0.722   6.689   2.358
 2152TIP3    H1 6399   0.730   6.773   2.402
 2152TIP3    H2 6400   0.669   6.636   2.417
 2153TIP3   OH2 6401   7.285   1.467   0.778
 2153TIP3    H1 6402   7.240   1.546   0.746
 2153TIP3    H2 6403   7.377   1.493   0.785
 2154TIP3   OH2 6404   7.919   6.363   4.395
 2154TIP3    H1 6405   8.010   6.386   4.417
 2154TIP3    H2 6406   7.866   6.412   4.457
 2155TIP3   OH2 6407   5.538   0.222   2.224
 2155TIP3    H1 6408   5.540   0.180   2.138
 2155TIP3    H2 6409   5.461   0.185   2.267
 2156TIP3   OH2 6410   8.127   4.296   6.376
 2156TIP3    H1 6411   8.170   4.347   6.444
 2156TIP3    H2 6412   8.033   4.305   6.393
 2157TIP3   OH2 6413   6.584   5.340   6.293
 2157TIP3    H1 6414   6.498   5.376   6.313
 2157TIP3    H2 6415   6.596   5.270   6.358
 2158TIP3   OH2 6416   8.041   5.510   6.710
 2158TIP3    H1 6417   7.964   5.556   6.676
 2158TIP3    H2 6418   8.051   5.543   6.799
 2159TIP3   OH2 6419   7.332   0.252   3.036
 2159TIP3    H1 6420   7.358   0.345   3.035
 2159TIP3    H2 6421   7.320   0.231   3.128
 2160TIP3   OH2 6422   5.540   1.807   3.546
 2160TIP3    H1 6423   5.521   1.864   3.471
 2160TIP3    H2 6424   5.525   1.718   3.513
 2161TIP3   OH2 6425   3.300   5.223   3.806
 2161TIP3    H1 6426   3.328   5.314   3.795
 2161TIP3    H2 6427   3.207   5.228   3.827
 2162TIP3   OH2 6428   1.516   3.166   5.437
 2162TIP3    H1 6429   1.591   3.145   5.493
 2162TIP3    H2 6430   1.456   3.215   5.493
 2163TIP3   OH2 6431   5.064   5.691   4.600
 2163TIP3    H1 6432   4.986   5.745   4.594
 2163TIP3    H2 6433   5.121   5.723   4.530
 2164TIP3   OH2 6434   7.606   2.873   0.418
 2164TIP3    H1 6435   7.646   2.796   0.378
 2164TIP3    H2 6436   7.599   2.850   0.511
 2165TIP3   OH2 6437   1.429   2.344   5.314
 2165TIP3    H1 6438   1.447   2.384   5.399
 2165TIP3    H2 6439   1.355   2.285   5.330
 2166TIP3   OH2 6440   4.656   7.632   3.125
 2166TIP3    H1 6441   4.697   7.643   3.210
 2166TIP3    H2 6442   4.563   7.652   3.140
 2167TIP3   OH2 6443   8.069   3.027   3.067
 2167TIP3    H1 6444   8.117   3.080   3.130
 2167TIP3    H2 6445   7.976   3.046   3.085
 2168TIP3   OH2 6446   8.266   6.855   3.381
 2168TIP3    H1 6447   8.262   6.943   3.344
 2168TIP3    H2 6448   8.312   6.866   3.464
 2169TIP3   OH2 6449   0.665   4.880   2.445
 2169TIP3    H1 6450   0.629   4.843   2.365
 2169TIP3    H2 6451   0.591   4.923   2.488
 2170TIP3   OH2 6452   6.583   7.383   2.470
 2170TIP3    H1 6453   6.615   7.374   2.559
 2170TIP3    H2 6454   6.544   7.298   2.450
 2171TIP3   OH2 6455   5.630   5.704   1.078
 2171TIP3    H1 6456   5.663   5.780   1.126
 2171TIP3    H2 6457   5.605   5.738   0.992
 2172TIP3   OH2 6458   6.755   7.769   3.577
 2172TIP3    H1 6459   6.758   7.735   3.667
 2172TIP3    H2 6460   6.719   7.697   3.525
 2173TIP3   OH2 6461   4.973   2.668   0.157
 2173TIP3    H1 6462   4.978   2.629   0.070
 2173TIP3    H2 6463   5.033   2.743   0.153
 2174TIP3   OH2 6464   1.480   1.855   5.359
 2174TIP3    H1 6465   1.488   1.821   5.270
 2174TIP3    H2 6466   1.386   1.860   5.374
 2175TIP3   OH2 6467   1.710   2.862   3.037
 2175TIP3    H1 6468   1.665   2.835   2.958
 2175TIP3    H2 6469   1.740   2.780   3.077
 2176TIP3   OH2 6470   1.071   6.765   0.849
 2176TIP3    H1 6471   1.005   6.784   0.782
 2176TIP3    H2 6472   1.055   6.674   0.874
 2177TIP3   OH2 6473   2.260   7.438   0.717
 2177TIP3    H1 6474   2.354   7.436   0.703
 2177TIP3    H2 6475   2.248   7.491   0.796
 2178TIP3   OH2 6476   7.031   5.439   6.326
 2178TIP3    H1 6477   7.082   5.486   6.391
 2178TIP3    H2 6478   6.947   5.422   6.369
 2179TIP3   OH2 6479   5.472   3.092   1.335
 2179TIP3    H1 6480   5.433   3.125   1.255
 2179TIP3    H2 6481   5.435   3.147   1.404
 2180TIP3   OH2 6482   7.275   7.073   6.364
 2180TIP3    H1 6483   7.246   7.154   6.321
 2180TIP3    H2 6484   7.251   7.004   6.303
 2181TIP3   OH2 6485   5.267   0.986   1.520
 2181TIP3    H1 6486   5.293   0.895   1.533
 2181TIP3    H2 6487   5.173   0.981   1.502
 2182TIP3   OH2 6488   5.990   7.002   1.074
 2182TIP3    H1 6489   5.958   7.092   1.066
 2182TIP3    H2 6490   6.073   7.011   1.122
 2183TIP3   OH2 6491   1.889   5.246   3.503
 2183TIP3    H1 6492   1.910   5.316   3.440
 2183TIP3    H2 6493   1.828   5.286   3.564
 2184TIP3   OH2 6494   7.201   4.738   0.131
 2184TIP3    H1 6495   7.184   4.761   0.222
 2184TIP3    H2 6496   7.296   4.746   0.121
 2185TIP3   OH2 6497   2.324   1.343   5.252
 2185TIP3    H1 6498   2.294   1.271   5.308
 2185TIP3    H2 6499   2.405   1.310   5.213
 2186TIP3   OH2 6500   5.485   5.557   6.100
 2186TIP3    H1 6501   5.473   5.499   6.175
 2186TIP3    H2 6502   5.490   5.498   6.024
 2187TIP3   OH2 6503   5.237   2.310   6.431
 2187TIP3    H1 6504   5.292   2.233   6.436
 2187TIP3    H2 6505   5.297   2.384   6.444
 2188TIP3   OH2 6506   1.754   1.739   3.497
 2188TIP3    H1 6507   1.706   1.819   3.476
 2188TIP3    H2 6508   1.786   1.707   3.412
 2189TIP3   OH2 6509   0.134   5.649   6.285
 2189TIP3    H1 6510   0.145   5.641   6.191
 2189TIP3    H2 6511   0.221   5.672   6.318
 2190TIP3   OH2 6512   7.409   1.398   6.687
 2190TIP3    H1 6513   7.428   1.320   6.739
 2190TIP3    H2 6514   7.345   1.446   6.739
 2191TIP3   OH2 6515   6.911   6.560   3.208
 2191TIP3    H1 6516   6.819   6.586   3.210
 2191TIP3    H2 6517   6.916   6.485   3.268
 2192TIP3   OH2 6518   1.997   7.738   6.019
 2192TIP3    H1 6519   2.022   7.649   5.997
 2192TIP3    H2 6520   2.007   7.743   6.114
 2193TIP3   OH2 6521   3.241   7.256   3.767
 2193TIP3    H1 6522   3.190   7.270   3.688
 2193TIP3    H2 6523   3.193   7.188   3.814
 2194TIP3   OH2 6524   0.343   3.492   4.369
 2194TIP3    H1 6525   0.285   3.427   4.328
 2194TIP3    H2 6526   0.430   3.452   4.367
 2195TIP3   OH2 6527   6.534   0.637   2.455
 2195TIP3    H1 6528   6.441   0.649   2.435
 2195TIP3    H2 6529   6.539   0.646   2.550
 2196TIP3   OH2 6530   4.577   7.374   2.367
 2196TIP3    H1 6531   4.548   7.285   2.344
 2196TIP3    H2 6532   4.624   7.404   2.289
 2197TIP3   OH2 6533   8.132   2.743   3.351
 2197TIP3    H1 6534   8.057   2.796   3.324
 2197TIP3    H2 6535   8.166   2.787   3.429
 2198TIP3   OH2 6536   1.089   4.770   2.395
 2198TIP3    H1 6537   1.102   4.689   2.346
 2198TIP3    H2 6538   1.075   4.743   2.486
 2199TIP3   OH2 6539   2.658   1.832   2.522
 2199TIP3    H1 6540   2.751   1.814   2.539
 2199TIP3    H2 6541   2.630   1.760   2.466
 2200TIP3   OH2 6542   7.327   4.497   3.371
 2200TIP3    H1 6543   7.405   4.518   3.319
 2200TIP3    H2 6544   7.267   4.570   3.354
 2201TIP3   OH2 6545   6.710   5.200   2.108
 2201TIP3    H1 6546   6.669   5.116   2.128
 2201TIP3    H2 6547   6.674   5.260   2.175
 2202TIP3   OH2 6548   7.509   0.392   4.412
 2202TIP3    H1 6549   7.491   0.484   4.390
 2202TIP3    H2 6550   7.455   0.374   4.489
 2203TIP3   OH2 6551   4.774   7.035   3.111
 2203TIP3    H1 6552   4.737   7.116   3.076
 2203TIP3    H2 6553   4.702   6.997   3.162
 2204TIP3   OH2 6554   2.865   0.267   0.164
 2204TIP3    H1 6555   2.901   0.332   0.224
 2204TIP3    H2 6556   2.828   0.318   0.092
 2205TIP3   OH2 6557   7.715   4.402   6.637
 2205TIP3    H1 6558   7.799   4.358   6.624
 2205TIP3    H2 6559   7.737   4.496   6.633
 2206TIP3   OH2 6560   3.556   7.279   0.006
 2206TIP3    H1 6561   3.490   7.237  -0.049
 2206TIP3    H2 6562   3.583   7.211   0.068
 2207TIP3   OH2 6563   8.012   4.862   0.166
 2207TIP3    H1 6564   8.043   4.947   0.196
 2207TIP3    H2 6565   7.937   4.843   0.222
 2208TIP3   OH2 6566   3.620   0.173   3.645
 2208TIP3    H1 6567   3.568   0.101   3.683
 2208TIP3    H2 6568   3.609   0.245   3.706
 2209TIP3   OH2 6569   3.514   7.368   4.681
 2209TIP3    H1 6570   3.435   7.339   4.635
 2209TIP3    H2 6571   3.534   7.454   4.643
 2210TIP3   OH2 6572   6.908   5.306   5.473
 2210TIP3    H1 6573   6.875   5.393   5.447
 2210TIP3    H2 6574   6.892   5.251   5.397
 2211TIP3   OH2 6575   6.606   4.576   5.576
 2211TIP3    H1 6576   6.601   4.670   5.558
 2211TIP3    H2 6577   6.668   4.568   5.649
 2212TIP3   OH2 6578   7.359   0.918   1.289
 2212TIP3    H1 6579   7.437   0.959   1.251
 2212TIP3    H2 6580   7.376   0.824   1.281
 2213TIP3   OH2 6581   3.571   0.054   0.484
 2213TIP3    H1 6582   3.545   0.003   0.561
 2213TIP3    H2 6583   3.502   0.120   0.475
 2214TIP3   OH2 6584   2.921   5.454   0.494
 2214TIP3    H1 6585   2.830   5.485   0.496
 2214TIP3    H2 6586   2.918   5.370   0.540
 2215TIP3   OH2 6587   7.284   2.732   0.170
 2215TIP3    H1 6588   7.239   2.683   0.239
 2215TIP3    H2 6589   7.213   2.766   0.116
 2216TIP3   OH2 6590   0.061   6.120   4.648
 2216TIP3    H1 6591   0.071   6.139   4.555
 2216TIP3    H2 6592   0.108   6.037   4.661
 2217TIP3   OH2 6593   2.122   6.783   6.312
 2217TIP3    H1 6594   2.046   6.744   6.270
 2217TIP3    H2 6595   2.088   6.819   6.394
 2218TIP3   OH2 6596   1.945   1.651   3.683
 2218TIP3    H1 6597   1.871   1.661   3.622
 2218TIP3    H2 6598   1.960   1.556   3.686
 2219TIP3   OH2 6599   7.880   0.623   0.574
 2219TIP3    H1 6600   7.927   0.583   0.648
 2219TIP3    H2 6601   7.936   0.606   0.498
 2220TIP3   OH2 6602   0.282   0.401   0.095
 2220TIP3    H1 6603   0.365   0.401   0.142
 2220TIP3    H2 6604   0.306   0.380   0.004
 2221TIP3   OH2 6605   5.245   5.877   3.878
 2221TIP3    H1 6606   5.209   5.890   3.790
 2221TIP3    H2 6607   5.334   5.846   3.863
 2222TIP3   OH2 6608   3.208   5.067   2.596
 2222TIP3    H1 6609   3.200   5.157   2.626
 2222TIP3    H2 6610   3.135   5.054   2.535
 2223TIP3   OH2 6611   5.185   1.562   3.142
 2223TIP3    H1 6612   5.281   1.551   3.144
 2223TIP3    H2 6613   5.154   1.492   3.085
 2224TIP3   OH2 6614   7.601   2.794   5.116
 2224TIP3    H1 6615   7.642   2.719   5.158
 2224TIP3    H2 6616   7.612   2.866   5.178
 2225TIP3   OH2 6617   2.411   1.008   5.856
 2225TIP3    H1 6618   2.440   0.925   5.895
 2225TIP3    H2 6619   2.318   0.996   5.840
 2226TIP3   OH2 6620   6.873   6.951   6.544
 2226TIP3    H1 6621   6.900   6.934   6.454
 2226TIP3    H2 6622   6.943   7.007   6.579
 2227TIP3   OH2 6623   1.599   0.247   1.702
 2227TIP3    H1 6624   1.657   0.171   1.687
 2227TIP3    H2 6625   1.550   0.224   1.781
 2228TIP3   OH2 6626   2.545   4.424   1.167
 2228TIP3    H1 6627   2.623   4.401   1.217
 2228TIP3    H2 6628   2.570   4.409   1.076
 2229TIP3   OH2 6629   7.153   3.347   1.112
 2229TIP3    H1 6630   7.136   3.354   1.206
 2229TIP3    H2 6631   7.136   3.255   1.092
 2230TIP3   OH2 6632   5.127   5.029   3.291
 2230TIP3    H1 6633   5.096   5.094   3.228
 2230TIP3    H2 6634   5.197   5.073   3.340
 2231TIP3   OH2 6635   6.910   7.749   1.425
 2231TIP3    H1 6636   6.936   7.753   1.517
 2231TIP3    H2 6637   6.863   7.666   1.417
 2232TIP3   OH2 6638   4.518   6.760   0.242
 2232TIP3    H1 6639   4.487   6.707   0.168
 2232TIP3    H2 6640   4.577   6.702   0.289
 2233TIP3   OH2 6641   5.137   5.536   3.667
 2233TIP3    H1 6642   5.162   5.543   3.759
 2233TIP3    H2 6643   5.046   5.510   3.668
 2234TIP3   OH2 6644   6.182   1.089   4.553
 2234TIP3    H1 6645   6.176   1.009   4.606
 2234TIP3    H2 6646   6.232   1.062   4.476
 2235TIP3   OH2 6647   1.215   0.108   3.952
 2235TIP3    H1 6648   1.213   0.195   3.914
 2235TIP3    H2 6649   1.159   0.114   4.030
 2236TIP3   OH2 6650   8.238   1.589   4.311
 2236TIP3    H1 6651   8.164   1.561   4.365
 2236TIP3    H2 6652   8.302   1.621   4.374
 2237TIP3   OH2 6653   3.509   7.124   4.826
 2237TIP3    H1 6654   3.497   7.111   4.920
 2237TIP3    H2 6655   3.508   7.219   4.815
 2238TIP3   OH2 6656   6.137   0.111   2.353
 2238TIP3    H1 6657   6.152   0.180   2.418
 2238TIP3    H2 6658   6.079   0.152   2.288
 2239TIP3   OH2 6659   3.486   6.487   3.416
 2239TIP3    H1 6660   3.487   6.391   3.421
 2239TIP3    H2 6661   3.561   6.514   3.467
 2240TIP3   OH2 6662   3.616   1.677   3.833
 2240TIP3    H1 6663   3.544   1.616   3.851
 2240TIP3    H2 6664   3.615   1.737   3.908
 2241TIP3   OH2 6665   0.195   6.115   0.294
 2241TIP3    H1 6666   0.190   6.112   0.390
 2241TIP3    H2 6667   0.160   6.030   0.266
 2242TIP3   OH2 6668   1.577   0.290   3.238
 2242TIP3    H1 6669   1.602   0.383   3.239
 2242TIP3    H2 6670   1.641   0.248   3.296
 2243TIP3   OH2 6671   0.740   6.104   2.168
 2243TIP3    H1 6672   0.647   6.101   2.188
 2243TIP3    H2 6673   0.759   6.021   2.125
 2244TIP3   OH2 6674   6.513   0.461   4.619
 2244TIP3    H1 6675   6.456   0.417   4.556
 2244TIP3    H2 6676   6.454   0.492   4.688
 2245TIP3   OH2 6677   5.181   1.761   1.964
 2245TIP3    H1 6678   5.194   1.784   1.872
 2245TIP3    H2 6679   5.160   1.844   2.007
 2246TIP3   OH2 6680   0.368   4.203   0.758
 2246TIP3    H1 6681   0.329   4.117   0.772
 2246TIP3    H2 6682   0.293   4.260   0.738
 2247TIP3   OH2 6683   2.215   2.712   1.639
 2247TIP3    H1 6684   2.256   2.628   1.655
 2247TIP3    H2 6685   2.199   2.713   1.544
 2248TIP3   OH2 6686   1.647   0.697   1.815
 2248TIP3    H1 6687   1.582   0.629   1.832
 2248TIP3    H2 6688   1.727   0.665   1.857
 2249TIP3   OH2 6689   3.924   4.665   4.047
 2249TIP3    H1 6690   3.994   4.611   4.084
 2249TIP3    H2 6691   3.874   4.605   3.992
 2250TIP3   OH2 6692   2.667   0.687   0.843
 2250TIP3    H1 6693   2.613   0.765   0.825
 2250TIP3    H2 6694   2.604   0.620   0.869
 2251TIP3   OH2 6695   1.552   2.687   2.243
 2251TIP3    H1 6696   1.462   2.698   2.212
 2251TIP3    H2 6697   1.544   2.670   2.336
 2252TIP3   OH2 6698   5.215   0.543   4.983
 2252TIP3    H1 6699   5.287   0.479   4.982
 2252TIP3    H2 6700   5.206   0.568   5.075
 2253TIP3   OH2 6701   0.371   6.324   5.889
 2253TIP3    H1 6702   0.295   6.378   5.868
 2253TIP3    H2 6703   0.370   6.319   5.985
 2254TIP3   OH2 6704   1.551   6.351   5.078
 2254TIP3    H1 6705   1.521   6.402   5.153
 2254TIP3    H2 6706   1.478   6.354   5.016
 2255TIP3   OH2 6707   2.886   3.824   1.931
 2255TIP3    H1 6708   2.845   3.806   2.015
 2255TIP3    H2 6709   2.894   3.739   1.889
 2256TIP3   OH2 6710   0.671   6.680   6.129
 2256TIP3    H1 6711   0.759   6.692   6.164
 2256TIP3    H2 6712   0.681   6.609   6.065
 2257TIP3   OH2 6713   5.127   2.244   5.612
 2257TIP3    H1 6714   5.151   2.208   5.527
 2257TIP3    H2 6715   5.210   2.255   5.658
 2258TIP3   OH2 6716   3.554   5.224   2.566
 2258TIP3    H1 6717   3.597   5.269   2.493
 2258TIP3    H2 6718   3.490   5.287   2.598
 2259TIP3   OH2 6719   1.436   1.752   4.661
 2259TIP3    H1 6720   1.507   1.773   4.601
 2259TIP3    H2 6721   1.365   1.810   4.634
 2260TIP3   OH2 6722   1.461   4.894   5.291
 2260TIP3    H1 6723   1.439   4.826   5.355
 2260TIP3    H2 6724   1.466   4.975   5.342
 2261TIP3   OH2 6725   4.571   5.180   4.865
 2261TIP3    H1 6726   4.608   5.121   4.799
 2261TIP3    H2 6727   4.646   5.201   4.921
 2262TIP3   OH2 6728   1.698   3.068   6.451
 2262TIP3    H1 6729   1.760   2.996   6.438
 2262TIP3    H2 6730   1.618   3.038   6.409
 2263TIP3   OH2 6731   0.648   1.239   6.220
 2263TIP3    H1 6732   0.598   1.269   6.144
 2263TIP3    H2 6733   0.682   1.153   6.194
 2264TIP3   OH2 6734   3.798   4.637   5.624
 2264TIP3    H1 6735   3.805   4.731   5.640
 2264TIP3    H2 6736   3.888   4.607   5.612
 2265TIP3   OH2 6737   6.336   6.014   1.341
 2265TIP3    H1 6738   6.241   6.001   1.345
 2265TIP3    H2 6739   6.349   6.106   1.364
 2266TIP3   OH2 6740   3.870   5.643   5.505
 2266TIP3    H1 6741   3.936   5.700   5.465
 2266TIP3    H2 6742   3.787   5.676   5.472
 2267TIP3   OH2 6743   6.444   0.114   5.254
 2267TIP3    H1 6744   6.422   0.203   5.281
 2267TIP3    H2 6745   6.427   0.061   5.332
 2268TIP3   OH2 6746   5.004   0.438   3.678
 2268TIP3    H1 6747   4.911   0.421   3.691
 2268TIP3    H2 6748   5.014   0.532   3.694
 2269TIP3   OH2 6749   2.450   7.548   1.286
 2269TIP3    H1 6750   2.382   7.483   1.266
 2269TIP3    H2 6751   2.505   7.506   1.352
 2270TIP3   OH2 6752   3.156   3.230   6.224
 2270TIP3    H1 6753   3.197   3.311   6.195
 2270TIP3    H2 6754   3.224   3.186   6.276
 2271TIP3   OH2 6755   0.121   7.404   5.140
 2271TIP3    H1 6756   0.145   7.478   5.196
 2271TIP3    H2 6757   0.193   7.399   5.076
 2272TIP3   OH2 6758   2.812   5.774   1.081
 2272TIP3    H1 6759   2.758   5.728   1.145
 2272TIP3    H2 6760   2.798   5.726   0.999
 2273TIP3   OH2 6761   3.362   3.572   1.248
 2273TIP3    H1 6762   3.389   3.480   1.242
 2273TIP3    H2 6763   3.422   3.611   1.311
 2274TIP3   OH2 6764   6.721   7.197   4.575
 2274TIP3    H1 6765   6.699   7.118   4.527
 2274TIP3    H2 6766   6.796   7.172   4.629
 2275TIP3   OH2 6767   2.540   4.017   3.598
 2275TIP3    H1 6768   2.626   4.054   3.581
 2275TIP3    H2 6769   2.558   3.932   3.637
 2276TIP3   OH2 6770   1.917   6.101   0.909
 2276TIP3    H1 6771   1.872   6.080   0.991
 2276TIP3    H2 6772   1.951   6.016   0.878
 2277TIP3   OH2 6773   3.311   2.226   0.710
 2277TIP3    H1 6774   3.217   2.224   0.724
 2277TIP3    H2 6775   3.345   2.282   0.781
 2278TIP3   OH2 6776   2.956   4.980   0.861
 2278TIP3    H1 6777   2.867   4.953   0.880
 2278TIP3    H2 6778   2.976   5.047   0.926
 2279TIP3   OH2 6779   5.325   3.484   2.160
 2279TIP3    H1 6780   5.414   3.512   2.177
 2279TIP3    H2 6781   5.315   3.491   2.065
 2280TIP3   OH2 6782   7.001   2.398   0.295
 2280TIP3    H1 6783   6.943   2.415   0.370
 2280TIP3    H2 6784   7.084   2.439   0.319
 2281TIP3   OH2 6785   8.287   7.329   3.864
 2281TIP3    H1 6786   8.360   7.301   3.919
 2281TIP3    H2 6787   8.237   7.249   3.848
 2282TIP3   OH2 6788   1.767   5.907   1.715
 2282TIP3    H1 6789   1.778   5.813   1.723
 2282TIP3    H2 6790   1.838   5.945   1.767
 2283TIP3   OH2 6791   0.980   0.205   5.027
 2283TIP3    H1 6792   1.062   0.237   5.064
 2283TIP3    H2 6793   1.005   0.170   4.941
 2284TIP3   OH2 6794   4.147   1.632   2.881
 2284TIP3    H1 6795   4.146   1.561   2.817
 2284TIP3    H2 6796   4.142   1.588   2.965
 2285TIP3   OH2 6797   6.680   1.156   6.105
 2285TIP3    H1 6798   6.759   1.142   6.052
 2285TIP3    H2 6799   6.627   1.078   6.089
 2286TIP3   OH2 6800   5.975   6.347   0.154
 2286TIP3    H1 6801   6.041   6.378   0.216
 2286TIP3    H2 6802   5.993   6.253   0.145
 2287TIP3   OH2 6803   3.135   0.759   3.079
 2287TIP3    H1 6804   3.068   0.691   3.074
 2287TIP3    H2 6805   3.214   0.718   3.044
 2288TIP3   OH2 6806   7.215   3.513   1.863
 2288TIP3    H1 6807   7.215   3.542   1.772
 2288TIP3    H2 6808   7.299   3.544   1.897
 2289TIP3   OH2 6809   1.237   4.555   5.861
 2289TIP3    H1 6810   1.305   4.552   5.794
 2289TIP3    H2 6811   1.155   4.552   5.811
 2290TIP3   OH2 6812   5.577   2.899   6.708
 2290TIP3    H1 6813   5.605   2.990   6.700
 2290TIP3    H2 6814   5.557   2.872   6.619
 2291TIP3   OH2 6815   5.864   6.286   3.971
 2291TIP3    H1 6816   5.777   6.246   3.983
 2291TIP3    H2 6817   5.915   6.219   3.925
 2292TIP3   OH2 6818   7.361   7.411   4.500
 2292TIP3    H1 6819   7.317   7.401   4.585
 2292TIP3    H2 6820   7.385   7.321   4.475
 2293TIP3   OH2 6821   0.417   0.848   1.996
 2293TIP3    H1 6822   0.391   0.939   2.011
 2293TIP3    H2 6823   0.355   0.816   1.931
 2294TIP3   OH2 6824   0.538   5.004   4.088
 2294TIP3    H1 6825   0.580   4.921   4.108
 2294TIP3    H2 6826   0.490   4.989   4.007
 2295TIP3   OH2 6827   5.905   1.377   3.801
 2295TIP3    H1 6828   5.879   1.290   3.830
 2295TIP3    H2 6829   5.996   1.386   3.830
 2296TIP3   OH2 6830   0.320   1.264   2.977
 2296TIP3    H1 6831   0.268   1.343   2.989
 2296TIP3    H2 6832   0.372   1.257   3.058
 2297TIP3   OH2 6833   4.867   5.015   1.334
 2297TIP3    H1 6834   4.775   5.009   1.309
 2297TIP3    H2 6835   4.866   5.017   1.430
 2298TIP3   OH2 6836   8.305   2.667   6.603
 2298TIP3    H1 6837   8.234   2.661   6.540
 2298TIP3    H2 6838   8.303   2.757   6.634
 2299TIP3   OH2 6839   6.793   4.066   2.924
 2299TIP3    H1 6840   6.702   4.064   2.895
 2299TIP3    H2 6841   6.823   3.976   2.915
 2300TIP3   OH2 6842   2.571   3.026   5.204
 2300TIP3    H1 6843   2.551   3.079   5.282
 2300TIP3    H2 6844   2.611   3.088   5.143
 2301TIP3   OH2 6845   6.743   5.684   0.092
 2301TIP3    H1 6846   6.714   5.676   0.001
 2301TIP3    H2 6847   6.838   5.688   0.086
 2302TIP3   OH2 6848   0.089   0.097   6.050
 2302TIP3    H1 6849   0.051   0.065   6.132
 2302TIP3    H2 6850   0.027   0.069   5.982
 2303TIP3   OH2 6851   2.908   2.581   1.366
 2303TIP3    H1 6852   2.997   2.570   1.401
 2303TIP3    H2 6853   2.875   2.491   1.359
 2304TIP3   OH2 6854   0.390   0.140   3.940
 2304TIP3    H1 6855   0.466   0.197   3.947
 2304TIP3    H2 6856   0.356   0.155   3.852
 2305TIP3   OH2 6857   2.484   0.156   5.019
 2305TIP3    H1 6858   2.457   0.083   4.963
 2305TIP3    H2 6859   2.476   0.122   5.108
 2306TIP3   OH2 6860   7.148   7.080   0.279
 2306TIP3    H1 6861   7.056   7.056   0.262
 2306TIP3    H2 6862   7.177   7.123   0.199
 2307TIP3   OH2 6863   4.335   2.160   6.540
 2307TIP3    H1 6864   4.404   2.133   6.480
 2307TIP3    H2 6865   4.348   2.104   6.617
 2308TIP3   OH2 6866   6.563   5.586   1.524
 2308TIP3    H1 6867   6.492   5.556   1.581
 2308TIP3    H2 6868   6.527   5.664   1.481
 2309TIP3   OH2 6869   5.832   6.570   4.332
 2309TIP3    H1 6870   5.846   6.476   4.321
 2309TIP3    H2 6871   5.738   6.583   4.319
 2310TIP3   OH2 6872   0.891   2.988   3.270
 2310TIP3    H1 6873   0.899   2.893   3.275
 2310TIP3    H2 6874   0.806   3.002   3.229
 2311TIP3   OH2 6875   2.492   2.448   0.975
 2311TIP3    H1 6876   2.423   2.488   1.028
 2311TIP3    H2 6877   2.569   2.450   1.032
 2312TIP3   OH2 6878   5.702   6.946   1.066
 2312TIP3    H1 6879   5.670   7.024   1.021
 2312TIP3    H2 6880   5.793   6.967   1.087
 2313TIP3   OH2 6881   4.115   3.011   4.401
 2313TIP3    H1 6882   4.085   2.950   4.469
 2313TIP3    H2 6883   4.210   2.999   4.400
 2314TIP3   OH2 6884   1.559   4.677   3.778
 2314TIP3    H1 6885   1.496   4.643   3.841
 2314TIP3    H2 6886   1.633   4.707   3.830
 2315TIP3   OH2 6887   2.008   3.032   1.263
 2315TIP3    H1 6888   1.938   3.083   1.304
 2315TIP3    H2 6889   2.044   2.979   1.334
 2316TIP3   OH2 6890   7.563   5.986   2.261
 2316TIP3    H1 6891   7.605   5.969   2.177
 2316TIP3    H2 6892   7.636   6.001   2.321
 2317TIP3   OH2 6893   5.032   5.969   5.840
 2317TIP3    H1 6894   4.943   5.933   5.834
 2317TIP3    H2 6895   5.024   6.056   5.800
 2318TIP3   OH2 6896   3.517   3.774   1.673
 2318TIP3    H1 6897   3.504   3.838   1.603
 2318TIP3    H2 6898   3.594   3.724   1.645
 2319TIP3   OH2 6899   0.191   7.729   6.652
 2319TIP3    H1 6900   0.246   7.705   6.577
 2319TIP3    H2 6901   0.252   7.756   6.720
 2320TIP3   OH2 6902   8.226   5.262   5.398
 2320TIP3    H1 6903   8.309   5.250   5.444
 2320TIP3    H2 6904   8.243   5.232   5.309
 2321TIP3   OH2 6905   6.313   6.767   5.972
 2321TIP3    H1 6906   6.387   6.777   5.912
 2321TIP3    H2 6907   6.237   6.762   5.916
 2322TIP3   OH2 6908   4.368   6.374   6.161
 2322TIP3    H1 6909   4.300   6.321   6.119
 2322TIP3    H2 6910   4.425   6.311   6.204
 2323TIP3   OH2 6911   4.948   1.374   6.250
 2323TIP3    H1 6912   4.965   1.280   6.252
 2323TIP3    H2 6913   4.981   1.406   6.334
 2324TIP3   OH2 6914   2.979   6.488   3.656
 2324TIP3    H1 6915   3.026   6.412   3.690
 2324TIP3    H2 6916   3.005   6.560   3.713
 2325TIP3   OH2 6917   3.377   0.698   3.295
 2325TIP3    H1 6918   3.463   0.719   3.332
 2325TIP3    H2 6919   3.340   0.784   3.273
 2326TIP3   OH2 6920   6.959   6.134   3.262
 2326TIP3    H1 6921   7.011   6.148   3.183
 2326TIP3    H2 6922   6.889   6.074   3.234
 2327TIP3   OH2 6923   5.216   1.649   0.822
 2327TIP3    H1 6924   5.187   1.576   0.876
 2327TIP3    H2 6925   5.168   1.724   0.855
 2328TIP3   OH2 6926   2.060   0.653   3.799
 2328TIP3    H1 6927   2.117   0.596   3.746
 2328TIP3    H2 6928   2.119   0.694   3.862
 2329TIP3   OH2 6929   0.317   5.801   0.171
 2329TIP3    H1 6930   0.266   5.798   0.090
 2329TIP3    H2 6931   0.255   5.775   0.239
 2330TIP3   OH2 6932   1.361   2.561   0.272
 2330TIP3    H1 6933   1.354   2.466   0.274
 2330TIP3    H2 6934   1.448   2.577   0.233
 2331TIP3   OH2 6935   8.348   2.208   5.794
 2331TIP3    H1 6936   8.332   2.248   5.879
 2331TIP3    H2 6937   8.281   2.246   5.737
 2332TIP3   OH2 6938   8.128   3.994   1.809
 2332TIP3    H1 6939   8.160   3.904   1.806
 2332TIP3    H2 6940   8.041   3.990   1.769
 2333TIP3   OH2 6941   7.341   2.467   2.347
 2333TIP3    H1 6942   7.404   2.412   2.300
 2333TIP3    H2 6943   7.344   2.551   2.301
 2334TIP3   OH2 6944   5.834   1.960   5.769
 2334TIP3    H1 6945   5.767   2.028   5.757
 2334TIP3    H2 6946   5.855   1.931   5.681
 2335TIP3   OH2 6947   2.532   3.335   2.959
 2335TIP3    H1 6948   2.502   3.422   2.932
 2335TIP3    H2 6949   2.480   3.315   3.037
 2336TIP3   OH2 6950   0.804   5.514   4.773
 2336TIP3    H1 6951   0.816   5.607   4.750
 2336TIP3    H2 6952   0.893   5.480   4.781
 2337TIP3   OH2 6953   5.681   3.820   1.074
 2337TIP3    H1 6954   5.659   3.908   1.106
 2337TIP3    H2 6955   5.647   3.761   1.141
 2338TIP3   OH2 6956   4.188   7.043   4.856
 2338TIP3    H1 6957   4.143   7.027   4.774
 2338TIP3    H2 6958   4.134   7.108   4.901
 2339TIP3   OH2 6959   3.229   1.248   0.838
 2339TIP3    H1 6960   3.177   1.180   0.881
 2339TIP3    H2 6961   3.264   1.301   0.909
 2340TIP3   OH2 6962   1.151   5.701   4.443
 2340TIP3    H1 6963   1.115   5.618   4.413
 2340TIP3    H2 6964   1.238   5.705   4.403
 2341TIP3   OH2 6965   6.564   1.507   1.350
 2341TIP3    H1 6966   6.599   1.579   1.403
 2341TIP3    H2 6967   6.576   1.536   1.260
 2342TIP3   OH2 6968   1.572   3.153   3.105
 2342TIP3    H1 6969   1.619   3.073   3.082
 2342TIP3    H2 6970   1.506   3.163   3.036
 2343TIP3   OH2 6971   1.833   0.900   1.304
 2343TIP3    H1 6972   1.911   0.956   1.298
 2343TIP3    H2 6973   1.787   0.932   1.382
 2344TIP3   OH2 6974   2.731   1.158   0.465
 2344TIP3    H1 6975   2.679   1.087   0.427
 2344TIP3    H2 6976   2.737   1.223   0.395
 2345TIP3   OH2 6977   1.507   1.891   1.417
 2345TIP3    H1 6978   1.467   1.804   1.411
 2345TIP3    H2 6979   1.496   1.916   1.509
 2346TIP3   OH2 6980   1.667   5.487   4.156
 2346TIP3    H1 6981   1.701   5.529   4.235
 2346TIP3    H2 6982   1.678   5.552   4.087
 2347TIP3   OH2 6983   0.288   7.051   1.518
 2347TIP3    H1 6984   0.261   7.057   1.610
 2347TIP3    H2 6985   0.347   6.975   1.516
 2348TIP3   OH2 6986   1.300   5.145   1.555
 2348TIP3    H1 6987   1.277   5.219   1.499
 2348TIP3    H2 6988   1.295   5.069   1.498
 2349TIP3   OH2 6989   6.773   1.199   1.428
 2349TIP3    H1 6990   6.837   1.206   1.357
 2349TIP3    H2 6991   6.777   1.284   1.473
 2350TIP3   OH2 6992   7.938   7.124   4.573
 2350TIP3    H1 6993   7.971   7.186   4.639
 2350TIP3    H2 6994   7.927   7.177   4.494
 2351TIP3   OH2 6995   0.953   7.584   5.007
 2351TIP3    H1 6996   1.046   7.563   4.999
 2351TIP3    H2 6997   0.950   7.658   5.068
 2352TIP3   OH2 6998   5.013   2.222   6.582
 2352TIP3    H1 6999   5.077   2.245   6.514
 2352TIP3    H2 7000   5.062   2.230   6.664
 2353TIP3   OH2 7001   7.817   0.471   2.783
 2353TIP3    H1 7002   7.884   0.485   2.850
 2353TIP3    H2 7003   7.814   0.376   2.771
 2354TIP3   OH2 7004   0.524   6.292   4.670
 2354TIP3    H1 7005   0.583   6.281   4.745
 2354TIP3    H2 7006   0.437   6.300   4.708
 2355TIP3   OH2 7007   7.067   1.336   2.935
 2355TIP3    H1 7008   7.118   1.388   2.872
 2355TIP3    H2 7009   7.010   1.399   2.978
 2356TIP3   OH2 7010   3.234   7.755   6.747
 2356TIP3    H1 7011   3.151   7.739   6.702
 2356TIP3    H2 7012   3.263   7.840   6.714
 2357TIP3   OH2 7013   4.906   5.794   4.315
 2357TIP3    H1 7014   4.996   5.767   4.332
 2357TIP3    H2 7015   4.893   5.776   4.222
 2358TIP3   OH2 7016   5.209   4.593   4.057
 2358TIP3    H1 7017   5.115   4.605   4.044
 2358TIP3    H2 7018   5.226   4.502   4.035
 2359TIP3   OH2 7019   4.657   4.323   2.275
 2359TIP3    H1 7020   4.675   4.229   2.273
 2359TIP3    H2 7021   4.743   4.364   2.262
 2360TIP3   OH2 7022   3.935   0.300   0.745
 2360TIP3    H1 7023   4.000   0.368   0.764
 2360TIP3    H2 7024   3.850   0.343   0.760
 2361TIP3   OH2 7025   4.527   1.895   3.492
 2361TIP3    H1 7026   4.570   1.869   3.411
 2361TIP3    H2 7027   4.577   1.971   3.522
 2362TIP3   OH2 7028   1.675   7.000   3.875
 2362TIP3    H1 7029   1.720   7.063   3.931
 2362TIP3    H2 7030   1.700   6.914   3.910
 2363TIP3   OH2 7031   2.984   2.982   3.282
 2363TIP3    H1 7032   3.005   3.025   3.365
 2363TIP3    H2 7033   2.953   2.895   3.306
 2364TIP3   OH2 7034   1.479   6.877   3.701
 2364TIP3    H1 7035   1.515   6.948   3.754
 2364TIP3    H2 7036   1.542   6.806   3.709
 2365TIP3   OH2 7037   7.664   4.167   1.409
 2365TIP3    H1 7038   7.606   4.226   1.457
 2365TIP3    H2 7039   7.634   4.079   1.434
 2366TIP3   OH2 7040   6.166   6.143   1.647
 2366TIP3    H1 7041   6.121   6.076   1.700
 2366TIP3    H2 7042   6.126   6.225   1.674
 2367TIP3   OH2 7043   7.993   0.566   2.956
 2367TIP3    H1 7044   8.033   0.647   2.923
 2367TIP3    H2 7045   8.059   0.530   3.016
 2368TIP3   OH2 7046   3.525   1.838   2.069
 2368TIP3    H1 7047   3.506   1.761   2.014
 2368TIP3    H2 7048   3.515   1.806   2.158
 2369TIP3   OH2 7049   2.478   6.043   3.456
 2369TIP3    H1 7050   2.384   6.057   3.465
 2369TIP3    H2 7051   2.506   6.109   3.393
 2370TIP3   OH2 7052   2.457   6.676   5.166
 2370TIP3    H1 7053   2.426   6.764   5.144
 2370TIP3    H2 7054   2.453   6.672   5.261
 2371TIP3   OH2 7055   8.160   1.137   1.492
 2371TIP3    H1 7056   8.186   1.137   1.400
 2371TIP3    H2 7057   8.235   1.173   1.538
 2372TIP3   OH2 7058   7.857   2.791   2.226
 2372TIP3    H1 7059   7.931   2.789   2.165
 2372TIP3    H2 7060   7.877   2.723   2.291
 2373TIP3   OH2 7061   7.087   5.925   2.407
 2373TIP3    H1 7062   7.152   5.924   2.337
 2373TIP3    H2 7063   7.063   6.017   2.416
 2374TIP3   OH2 7064   3.957   1.061   0.507
 2374TIP3    H1 7065   3.972   1.034   0.597
 2374TIP3    H2 7066   3.921   0.984   0.463
 2375TIP3   OH2 7067   1.897   3.843   4.301
 2375TIP3    H1 7068   1.860   3.923   4.265
 2375TIP3    H2 7069   1.886   3.852   4.396
 2376TIP3   OH2 7070   7.280   2.940   6.608
 2376TIP3    H1 7071   7.357   2.977   6.652
 2376TIP3    H2 7072   7.267   2.855   6.651
 2377TIP3   OH2 7073   4.755   4.058   2.281
 2377TIP3    H1 7074   4.834   4.059   2.228
 2377TIP3    H2 7075   4.701   3.990   2.241
 2378TIP3   OH2 7076   7.959   2.919   5.659
 2378TIP3    H1 7077   7.955   2.930   5.754
 2378TIP3    H2 7078   8.051   2.900   5.641
 2379TIP3   OH2 7079   2.105   4.462   0.741
 2379TIP3    H1 7080   2.170   4.470   0.810
 2379TIP3    H2 7081   2.078   4.552   0.722
 2380TIP3   OH2 7082   2.838   2.409   6.763
 2380TIP3    H1 7083   2.906   2.387   6.699
 2380TIP3    H2 7084   2.884   2.418   6.846
 2381TIP3   OH2 7085   5.209   5.403   4.930
 2381TIP3    H1 7086   5.197   5.475   4.992
 2381TIP3    H2 7087   5.244   5.445   4.851
 2382TIP3   OH2 7088   4.936   4.783   0.376
 2382TIP3    H1 7089   4.921   4.736   0.294
 2382TIP3    H2 7090   4.990   4.858   0.351
 2383TIP3   OH2 7091   1.573   7.752   6.602
 2383TIP3    H1 7092   1.597   7.751   6.694
 2383TIP3    H2 7093   1.617   7.676   6.564
 2384TIP3   OH2 7094   0.411   2.894   4.113
 2384TIP3    H1 7095   0.445   2.818   4.160
 2384TIP3    H2 7096   0.396   2.959   4.182
 2385TIP3   OH2 7097   4.021   6.626   1.719
 2385TIP3    H1 7098   3.996   6.700   1.774
 2385TIP3    H2 7099   4.005   6.656   1.630
 2386TIP3   OH2 7100   0.805   4.228   6.559
 2386TIP3    H1 7101   0.881   4.227   6.501
 2386TIP3    H2 7102   0.802   4.140   6.597
 2387TIP3   OH2 7103   5.056   5.072   1.905
 2387TIP3    H1 7104   5.087   5.158   1.875
 2387TIP3    H2 7105   5.079   5.070   1.998
 2388TIP3   OH2 7106   7.489   5.961   0.864
 2388TIP3    H1 7107   7.580   5.967   0.834
 2388TIP3    H2 7108   7.487   5.882   0.919
 2389TIP3   OH2 7109   7.678   6.573   0.089
 2389TIP3    H1 7110   7.755   6.629   0.095
 2389TIP3    H2 7111   7.624   6.613   0.021
 2390TIP3   OH2 7112   5.092   2.264   3.716
 2390TIP3    H1 7113   5.160   2.198   3.726
 2390TIP3    H2 7114   5.014   2.223   3.753
 2391TIP3   OH2 7115   6.942   5.746   5.260
 2391TIP3    H1 7116   6.886   5.688   5.209
 2391TIP3    H2 7117   6.886   5.777   5.331
 2392TIP3   OH2 7118   4.162   5.151   6.092
 2392TIP3    H1 7119   4.116   5.133   6.009
 2392TIP3    H2 7120   4.228   5.215   6.069
 2393TIP3   OH2 7121   0.862   5.256   6.049
 2393TIP3    H1 7122   0.951   5.289   6.036
 2393TIP3    H2 7123   0.833   5.231   5.961
 2394TIP3   OH2 7124   4.861   0.576   5.093
 2394TIP3    H1 7125   4.901   0.501   5.051
 2394TIP3    H2 7126   4.931   0.615   5.145
 2395TIP3   OH2 7127   3.296   3.547   5.067
 2395TIP3    H1 7128   3.249   3.557   5.150
 2395TIP3    H2 7129   3.336   3.633   5.053
 2396TIP3   OH2 7130   6.481   6.861   3.102
 2396TIP3    H1 7131   6.433   6.816   3.032
 2396TIP3    H2 7132   6.419   6.926   3.135
 2397TIP3   OH2 7133   3.264   6.334   1.020
 2397TIP3    H1 7134   3.347   6.377   1.041
 2397TIP3    H2 7135   3.286   6.270   0.953
 2398TIP3   OH2 7136   6.743   5.558   1.826
 2398TIP3    H1 7137   6.739   5.600   1.912
 2398TIP3    H2 7138   6.657   5.576   1.788
 2399TIP3   OH2 7139   7.921   4.267   1.446
 2399TIP3    H1 7140   7.837   4.228   1.421
 2399TIP3    H2 7141   7.986   4.221   1.393
 2400TIP3   OH2 7142   6.456   2.194   0.069
 2400TIP3    H1 7143   6.543   2.167   0.098
 2400TIP3    H2 7144   6.471   2.243  -0.012
 2401TIP3   OH2 7145   1.274   3.972   0.591
 2401TIP3    H1 7146   1.265   3.881   0.562
 2401TIP3    H2 7147   1.367   3.981   0.612
 2402TIP3   OH2 7148   2.414   4.437   2.171
 2402TIP3    H1 7149   2.412   4.343   2.188
 2402TIP3    H2 7150   2.341   4.473   2.221
 2403TIP3   OH2 7151   7.907   3.328   5.318
 2403TIP3    H1 7152   7.967   3.400   5.297
 2403TIP3    H2 7153   7.928   3.305   5.408
 2404TIP3   OH2 7154   7.036   4.035   4.177
 2404TIP3    H1 7155   6.958   4.081   4.208
 2404TIP3    H2 7156   7.106   4.065   4.235
 2405TIP3   OH2 7157   6.895   3.387   4.080
 2405TIP3    H1 7158   6.914   3.450   4.011
 2405TIP3    H2 7159   6.825   3.426   4.131
 2406TIP3   OH2 7160   1.034   5.218   0.852
 2406TIP3    H1 7161   1.088   5.171   0.787
 2406TIP3    H2 7162   1.085   5.212   0.933
 2407TIP3   OH2 7163   0.580   2.963   5.847
 2407TIP3    H1 7164   0.515   3.024   5.883
 2407TIP3    H2 7165   0.529   2.889   5.816
 2408TIP3   OH2 7166   3.725   4.314   2.646
 2408TIP3    H1 7167   3.658   4.315   2.578
 2408TIP3    H2 7168   3.808   4.319   2.598
 2409TIP3   OH2 7169   1.985   7.779   4.372
 2409TIP3    H1 7170   2.079   7.786   4.353
 2409TIP3    H2 7171   1.948   7.860   4.339
 2410TIP3   OH2 7172   1.852   6.784   1.945
 2410TIP3    H1 7173   1.833   6.692   1.927
 2410TIP3    H2 7174   1.782   6.812   2.004
 2411TIP3   OH2 7175   5.365   6.328   3.353
 2411TIP3    H1 7176   5.385   6.260   3.289
 2411TIP3    H2 7177   5.412   6.301   3.432
 2412TIP3   OH2 7178   2.235   7.630   0.935
 2412TIP3    H1 7179   2.268   7.709   0.894
 2412TIP3    H2 7180   2.140   7.635   0.923
 2413TIP3   OH2 7181   3.670   2.153   3.993
 2413TIP3    H1 7182   3.742   2.136   3.934
 2413TIP3    H2 7183   3.609   2.206   3.942
 2414TIP3   OH2 7184   1.709   5.340   3.058
 2414TIP3    H1 7185   1.696   5.245   3.048
 2414TIP3    H2 7186   1.627   5.379   3.028
 2415TIP3   OH2 7187   1.253   5.810   2.099
 2415TIP3    H1 7188   1.261   5.797   2.004
 2415TIP3    H2 7189   1.299   5.735   2.137
 2416TIP3   OH2 7190   4.152   2.361   2.696
 2416TIP3    H1 7191   4.212   2.372   2.623
 2416TIP3    H2 7192   4.134   2.450   2.727
 2417TIP3   OH2 7193   2.920   4.055   3.884
 2417TIP3    H1 7194   2.907   4.043   3.978
 2417TIP3    H2 7195   3.010   4.087   3.876
 2418TIP3   OH2 7196   8.005   3.661   6.652
 2418TIP3    H1 7197   7.989   3.661   6.557
 2418TIP3    H2 7198   7.995   3.570   6.678
 2419TIP3   OH2 7199   0.579   2.344   5.615
 2419TIP3    H1 7200   0.549   2.433   5.633
 2419TIP3    H2 7201   0.674   2.348   5.627
 2420TIP3   OH2 7202   7.138   3.748   1.032
 2420TIP3    H1 7203   7.088   3.749   1.113
 2420TIP3    H2 7204   7.105   3.672   0.985
 2421TIP3   OH2 7205   2.887   4.058   1.389
 2421TIP3    H1 7206   2.841   4.051   1.472
 2421TIP3    H2 7207   2.980   4.051   1.411
 2422TIP3   OH2 7208   4.546   6.611   3.340
 2422TIP3    H1 7209   4.543   6.516   3.356
 2422TIP3    H2 7210   4.639   6.631   3.329
 2423TIP3   OH2 7211   5.811   3.885   3.286
 2423TIP3    H1 7212   5.871   3.938   3.233
 2423TIP3    H2 7213   5.862   3.808   3.311
 2424TIP3   OH2 7214   7.946   2.552   5.232
 2424TIP3    H1 7215   8.015   2.485   5.232
 2424TIP3    H2 7216   7.881   2.519   5.294
 2425TIP3   OH2 7217   1.864   6.465   5.634
 2425TIP3    H1 7218   1.800   6.492   5.568
 2425TIP3    H2 7219   1.931   6.418   5.585
 2426TIP3   OH2 7220   2.069   5.878   4.749
 2426TIP3    H1 7221   2.113   5.796   4.726
 2426TIP3    H2 7222   2.078   5.884   4.844
 2427TIP3   OH2 7223   1.772   7.039   0.794
 2427TIP3    H1 7224   1.720   7.061   0.872
 2427TIP3    H2 7225   1.739   6.953   0.767
 2428TIP3   OH2 7226   3.175   5.416   3.180
 2428TIP3    H1 7227   3.110   5.350   3.153
 2428TIP3    H2 7228   3.211   5.448   3.098
 2429TIP3   OH2 7229   4.634   3.378   0.044
 2429TIP3    H1 7230   4.690   3.305   0.018
 2429TIP3    H2 7231   4.560   3.374  -0.017
 2430TIP3   OH2 7232   0.908   2.715   3.316
 2430TIP3    H1 7233   0.879   2.638   3.267
 2430TIP3    H2 7234   0.958   2.680   3.390
 2431TIP3   OH2 7235   8.028   3.808   3.491
 2431TIP3    H1 7236   8.122   3.792   3.485
 2431TIP3    H2 7237   7.994   3.780   3.406
 2432TIP3   OH2 7238   3.634   3.620   3.377
 2432TIP3    H1 7239   3.608   3.636   3.468
 2432TIP3    H2 7240   3.649   3.707   3.341
 2433TIP3   OH2 7241   2.183   7.470   4.415
 2433TIP3    H1 7242   2.175   7.495   4.323
 2433TIP3    H2 7243   2.277   7.469   4.431
 2434TIP3   OH2 7244   2.214   2.845   2.217
 2434TIP3    H1 7245   2.145   2.801   2.266
 2434TIP3    H2 7246   2.224   2.793   2.137
 2435TIP3   OH2 7247   3.761   3.034   6.541
 2435TIP3    H1 7248   3.772   3.106   6.479
 2435TIP3    H2 7249   3.781   2.955   6.490
 2436TIP3   OH2 7250   6.312   0.485   4.823
 2436TIP3    H1 7251   6.255   0.408   4.818
 2436TIP3    H2 7252   6.342   0.486   4.914
 2437TIP3   OH2 7253   0.170   6.351   2.304
 2437TIP3    H1 7254   0.077   6.369   2.287
 2437TIP3    H2 7255   0.177   6.255   2.304
 2438TIP3   OH2 7256   5.898   4.302   5.740
 2438TIP3    H1 7257   5.949   4.382   5.727
 2438TIP3    H2 7258   5.853   4.289   5.656
 2439TIP3   OH2 7259   7.639   5.972   6.236
 2439TIP3    H1 7260   7.699   6.037   6.272
 2439TIP3    H2 7261   7.631   5.994   6.143
 2440TIP3   OH2 7262   7.968   5.421   5.308
 2440TIP3    H1 7263   7.928   5.359   5.247
 2440TIP3    H2 7264   8.017   5.367   5.370
 2441TIP3   OH2 7265   6.419   2.180   2.809
 2441TIP3    H1 7266   6.345   2.204   2.753
 2441TIP3    H2 7267   6.380   2.164   2.895
 2442TIP3   OH2 7268   1.159   0.698   1.213
 2442TIP3    H1 7269   1.236   0.748   1.189
 2442TIP3    H2 7270   1.160   0.696   1.309
 2443TIP3   OH2 7271   6.080   2.008   2.411
 2443TIP3    H1 7272   6.113   1.971   2.329
 2443TIP3    H2 7273   5.986   1.991   2.409
 2444TIP3   OH2 7274   5.563   3.272   5.949
 2444TIP3    H1 7275   5.585   3.185   5.915
 2444TIP3    H2 7276   5.644   3.322   5.942
 2445TIP3   OH2 7277   6.140   6.786   1.444
 2445TIP3    H1 7278   6.158   6.819   1.532
 2445TIP3    H2 7279   6.214   6.727   1.425
 2446TIP3   OH2 7280   5.208   0.140   3.569
 2446TIP3    H1 7281   5.204   0.121   3.476
 2446TIP3    H2 7282   5.117   0.141   3.598
 2447TIP3   OH2 7283   7.281   7.549   3.998
 2447TIP3    H1 7284   7.348   7.497   3.955
 2447TIP3    H2 7285   7.223   7.578   3.928
 2448TIP3   OH2 7286   7.044   4.915   0.699
 2448TIP3    H1 7287   6.978   4.927   0.631
 2448TIP3    H2 7288   7.008   4.848   0.756
 2449TIP3   OH2 7289   3.068   1.031   5.492
 2449TIP3    H1 7290   3.034   1.050   5.579
 2449TIP3    H2 7291   3.038   1.103   5.437
 2450TIP3   OH2 7292   4.067   1.352   5.844
 2450TIP3    H1 7293   3.989   1.385   5.887
 2450TIP3    H2 7294   4.065   1.391   5.757
 2451TIP3   OH2 7295   8.213   3.692   2.380
 2451TIP3    H1 7296   8.197   3.614   2.432
 2451TIP3    H2 7297   8.194   3.765   2.440
 2452TIP3   OH2 7298   7.410   1.860   6.112
 2452TIP3    H1 7299   7.357   1.864   6.192
 2452TIP3    H2 7300   7.401   1.769   6.082
 2453TIP3   OH2 7301   0.423   1.570   2.711
 2453TIP3    H1 7302   0.481   1.526   2.773
 2453TIP3    H2 7303   0.360   1.503   2.685
 2454TIP3   OH2 7304   0.229   3.442   2.427
 2454TIP3    H1 7305   0.248   3.495   2.349
 2454TIP3    H2 7306   0.269   3.491   2.499
 2455TIP3   OH2 7307   0.532   4.075   5.480
 2455TIP3    H1 7308   0.614   4.098   5.523
 2455TIP3    H2 7309   0.481   4.031   5.549
 2456TIP3   OH2 7310   2.085   5.765   0.749
 2456TIP3    H1 7311   2.006   5.716   0.774
 2456TIP3    H2 7312   2.150   5.741   0.815
 2457TIP3   OH2 7313   0.228   6.493   5.264
 2457TIP3    H1 7314   0.324   6.491   5.270
 2457TIP3    H2 7315   0.202   6.401   5.256
 2458TIP3   OH2 7316   3.601   1.018   3.139
 2458TIP3    H1 7317   3.564   1.097   3.101
 2458TIP3    H2 7318   3.585   0.950   3.074
 2459TIP3   OH2 7319   6.328   1.639   0.138
 2459TIP3    H1 7320   6.260   1.700   0.166
 2459TIP3    H2 7321   6.287   1.553   0.143
 2460TIP3   OH2 7322   1.985   6.457   1.624
 2460TIP3    H1 7323   1.913   6.519   1.615
 2460TIP3    H2 7324   2.028   6.457   1.539
 2461TIP3   OH2 7325   2.057   3.058   3.219
 2461TIP3    H1 7326   2.103   3.127   3.171
 2461TIP3    H2 7327   1.988   3.105   3.267
 2462TIP3   OH2 7328   5.835   6.381   2.700
 2462TIP3    H1 7329   5.743   6.387   2.727
 2462TIP3    H2 7330   5.844   6.446   2.631
 2463TIP3   OH2 7331   5.684   2.200   0.235
 2463TIP3    H1 7332   5.606   2.234   0.191
 2463TIP3    H2 7333   5.707   2.268   0.298
 2464TIP3   OH2 7334   4.804   6.044   6.571
 2464TIP3    H1 7335   4.750   5.968   6.547
 2464TIP3    H2 7336   4.797   6.103   6.495
 2465TIP3   OH2 7337   7.434   7.297   3.913
 2465TIP3    H1 7338   7.351   7.259   3.885
 2465TIP3    H2 7339   7.484   7.309   3.832
 2466TIP3   OH2 7340   0.146   5.131   2.572
 2466TIP3    H1 7341   0.113   5.069   2.638
 2466TIP3    H2 7342   0.079   5.199   2.569
 2467TIP3   OH2 7343   3.661   2.015   5.755
 2467TIP3    H1 7344   3.745   1.971   5.746
 2467TIP3    H2 7345   3.680   2.093   5.806
 2468TIP3   OH2 7346   4.593   3.331   4.201
 2468TIP3    H1 7347   4.613   3.286   4.119
 2468TIP3    H2 7348   4.627   3.274   4.269
 2469TIP3   OH2 7349   7.228   1.083   2.940
 2469TIP3    H1 7350   7.317   1.115   2.925
 2469TIP3    H2 7351   7.173   1.162   2.940
 2470TIP3   OH2 7352   5.373   6.183   2.071
 2470TIP3    H1 7353   5.361   6.263   2.019
 2470TIP3    H2 7354   5.284   6.147   2.079
 2471TIP3   OH2 7355   0.843   1.414   5.902
 2471TIP3    H1 7356   0.861   1.324   5.929
 2471TIP3    H2 7357   0.858   1.414   5.807
 2472TIP3   OH2 7358   2.045   2.586   3.508
 2472TIP3    H1 7359   2.028   2.675   3.476
 2472TIP3    H2 7360   2.129   2.593   3.553
 2473TIP3   OH2 7361   4.549   7.623   5.882
 2473TIP3    H1 7362   4.562   7.645   5.974
 2473TIP3    H2 7363   4.588   7.537   5.872
 2474TIP3   OH2 7364   4.282   6.540   1.769
 2474TIP3    H1 7365   4.191   6.569   1.765
 2474TIP3    H2 7366   4.277   6.445   1.771
 2475TIP3   OH2 7367   7.363   7.799   6.607
 2475TIP3    H1 7368   7.399   7.735   6.668
 2475TIP3    H2 7369   7.283   7.831   6.650
 2476TIP3   OH2 7370   4.515   4.971   2.268
 2476TIP3    H1 7371   4.528   5.001   2.178
 2476TIP3    H2 7372   4.581   4.902   2.280
 2477TIP3   OH2 7373   7.916   0.590   5.061
 2477TIP3    H1 7374   7.856   0.653   5.102
 2477TIP3    H2 7375   7.974   0.562   5.131
 2478TIP3   OH2 7376   0.424   0.874   3.943
 2478TIP3    H1 7377   0.450   0.925   4.020
 2478TIP3    H2 7378   0.336   0.843   3.963
 2479TIP3   OH2 7379   0.720   2.099   2.666
 2479TIP3    H1 7380   0.648   2.090   2.728
 2479TIP3    H2 7381   0.763   2.013   2.666
 2480TIP3   OH2 7382   0.510   0.560   5.509
 2480TIP3    H1 7383   0.472   0.509   5.438
 2480TIP3    H2 7384   0.471   0.647   5.499
 2481TIP3   OH2 7385   5.985   2.155   3.241
 2481TIP3    H1 7386   5.913   2.146   3.304
 2481TIP3    H2 7387   5.941   2.152   3.156
 2482TIP3   OH2 7388   3.015   4.111   3.558
 2482TIP3    H1 7389   3.033   4.191   3.608
 2482TIP3    H2 7390   2.921   4.117   3.538
 2483TIP3   OH2 7391   3.260   1.782   0.843
 2483TIP3    H1 7392   3.326   1.798   0.775
 2483TIP3    H2 7393   3.228   1.693   0.825
 2484TIP3   OH2 7394   0.059   0.208   6.603
 2484TIP3    H1 7395   0.140   0.231   6.557
 2484TIP3    H2 7396   0.049   0.114   6.587
 2485TIP3   OH2 7397   3.879   7.369   4.613
 2485TIP3    H1 7398   3.866   7.381   4.518
 2485TIP3    H2 7399   3.873   7.458   4.649
 2486TIP3   OH2 7400   0.318   5.086   3.131
 2486TIP3    H1 7401   0.232   5.051   3.155
 2486TIP3    H2 7402   0.380   5.038   3.187
 2487TIP3   OH2 7403   7.553   5.249   1.780
 2487TIP3    H1 7404   7.487   5.269   1.714
 2487TIP3    H2 7405   7.635   5.280   1.742
 2488TIP3   OH2 7406   2.206   0.334   0.407
 2488TIP3    H1 7407   2.125   0.324   0.357
 2488TIP3    H2 7408   2.227   0.427   0.400
 2489TIP3   OH2 7409   4.287   5.835   5.356
 2489TIP3    H1 7410   4.313   5.767   5.419
 2489TIP3    H2 7411   4.298   5.794   5.270
 2490TIP3   OH2 7412   5.795   1.470   2.718
 2490TIP3    H1 7413   5.772   1.432   2.633
 2490TIP3    H2 7414   5.820   1.395   2.772
 2491TIP3   OH2 7415   0.481   1.961   5.815
 2491TIP3    H1 7416   0.491   2.055   5.828
 2491TIP3    H2 7417   0.387   1.945   5.819
 2492TIP3   OH2 7418   8.194   1.561   1.805
 2492TIP3    H1 7419   8.103   1.580   1.783
 2492TIP3    H2 7420   8.221   1.495   1.740
 2493TIP3   OH2 7421   3.829   1.585   4.805
 2493TIP3    H1 7422   3.751   1.633   4.831
 2493TIP3    H2 7423   3.862   1.547   4.886
 2494TIP3   OH2 7424   3.321   2.668   6.311
 2494TIP3    H1 7425   3.385   2.643   6.377
 2494TIP3    H2 7426   3.297   2.586   6.268
 2495TIP3   OH2 7427   3.770   4.782   0.150
 2495TIP3    H1 7428   3.772   4.689   0.172
 2495TIP3    H2 7429   3.839   4.792   0.084
 2496TIP3   OH2 7430   4.745   2.228   5.866
 2496TIP3    H1 7431   4.683   2.295   5.835
 2496TIP3    H2 7432   4.758   2.171   5.790
 2497TIP3   OH2 7433   2.085   2.161   2.184
 2497TIP3    H1 7434   2.042   2.190   2.264
 2497TIP3    H2 7435   2.029   2.092   2.150
 2498TIP3   OH2 7436   2.533   7.804   3.106
 2498TIP3    H1 7437   2.526   7.711   3.084
 2498TIP3    H2 7438   2.511   7.850   3.025
 2499TIP3   OH2 7439   6.098   1.606   5.969
 2499TIP3    H1 7440   6.028   1.670   5.958
 2499TIP3    H2 7441   6.129   1.588   5.880
 2500TIP3   OH2 7442   5.410   4.166   2.326
 2500TIP3    H1 7443   5.330   4.218   2.330
 2500TIP3    H2 7444   5.405   4.121   2.241
 2501TIP3   OH2 7445   2.785   3.096   1.929
 2501TIP3    H1 7446   2.801   3.070   2.019
 2501TIP3    H2 7447   2.691   3.086   1.916
 2502TIP3   OH2 7448   0.642   3.975   2.985
 2502TIP3    H1 7449   0.625   3.887   3.016
 2502TIP3    H2 7450   0.734   3.973   2.956
 2503TIP3   OH2 7451   2.495   6.508   0.174
 2503TIP3    H1 7452   2.494   6.578   0.109
 2503TIP3    H2 7453   2.570   6.453   0.149
 2504TIP3   OH2 7454   0.824   2.960   6.261
 2504TIP3    H1 7455   0.745   2.906   6.258
 2504TIP3    H2 7456   0.815   3.020   6.187
 2505TIP3   OH2 7457   5.325   3.340   3.124
 2505TIP3    H1 7458   5.277   3.287   3.059
 2505TIP3    H2 7459   5.356   3.416   3.075
 2506TIP3   OH2 7460   0.349   7.316   5.305
 2506TIP3    H1 7461   0.258   7.302   5.278
 2506TIP3    H2 7462   0.351   7.284   5.395
 2507TIP3   OH2 7463   0.930   3.404   3.409
 2507TIP3    H1 7464   0.845   3.421   3.370
 2507TIP3    H2 7465   0.992   3.408   3.336
 2508TIP3   OH2 7466   1.346   4.993   5.965
 2508TIP3    H1 7467   1.322   5.002   5.873
 2508TIP3    H2 7468   1.434   4.956   5.964
 2509TIP3   OH2 7469   4.856   0.985   0.304
 2509TIP3    H1 7470   4.865   1.037   0.384
 2509TIP3    H2 7471   4.808   1.042   0.244
 2510TIP3   OH2 7472   2.799   0.532   3.895
 2510TIP3    H1 7473   2.760   0.544   3.981
 2510TIP3    H2 7474   2.773   0.611   3.846
 2511TIP3   OH2 7475   2.648   1.922   2.949
 2511TIP3    H1 7476   2.703   1.844   2.939
 2511TIP3    H2 7477   2.663   1.951   3.039
 2512TIP3   OH2 7478   6.593   4.866   1.055
 2512TIP3    H1 7479   6.559   4.939   1.004
 2512TIP3    H2 7480   6.666   4.904   1.106
 2513TIP3   OH2 7481   1.578   5.897   3.081
 2513TIP3    H1 7482   1.600   5.903   2.988
 2513TIP3    H2 7483   1.544   5.984   3.103
 2514TIP3   OH2 7484   0.413   1.502   3.765
 2514TIP3    H1 7485   0.355   1.520   3.691
 2514TIP3    H2 7486   0.358   1.455   3.828
 2515TIP3   OH2 7487   3.406  -0.025   4.391
 2515TIP3    H1 7488   3.344   0.048   4.383
 2515TIP3    H2 7489   3.482   0.013   4.435
 2516TIP3   OH2 7490   3.993   3.061   1.536
 2516TIP3    H1 7491   4.075   3.109   1.526
 2516TIP3    H2 7492   3.940   3.115   1.594
 2517TIP3   OH2 7493   7.626   5.987   2.679
 2517TIP3    H1 7494   7.671   5.902   2.683
 2517TIP3    H2 7495   7.675   6.038   2.615
 2518TIP3   OH2 7496   8.111   5.817   0.664
 2518TIP3    H1 7497   8.184   5.755   0.660
 2518TIP3    H2 7498   8.127   5.868   0.743
 2519TIP3   OH2 7499   5.921   0.941   1.390
 2519TIP3    H1 7500   5.907   0.991   1.471
 2519TIP3    H2 7501   6.015   0.927   1.387
 2520TIP3   OH2 7502   4.114   3.917   4.307
 2520TIP3    H1 7503   4.074   3.963   4.381
 2520TIP3    H2 7504   4.093   3.971   4.231
 2521TIP3   OH2 7505   1.204   7.609   5.303
 2521TIP3    H1 7506   1.173   7.696   5.328
 2521TIP3    H2 7507   1.228   7.567   5.385
 2522TIP3   OH2 7508   2.545   7.422   0.731
 2522TIP3    H1 7509   2.547   7.455   0.821
 2522TIP3    H2 7510   2.623   7.366   0.725
 2523TIP3   OH2 7511   5.416   6.448   2.528
 2523TIP3    H1 7512   5.489   6.457   2.467
 2523TIP3    H2 7513   5.338   6.451   2.473
 2524TIP3   OH2 7514   1.064   1.756   0.209
 2524TIP3    H1 7515   1.013   1.808   0.146
 2524TIP3    H2 7516   1.095   1.821   0.273
 2525TIP3   OH2 7517   0.251   2.669   5.517
 2525TIP3    H1 7518   0.317   2.665   5.448
 2525TIP3    H2 7519   0.171   2.637   5.477
 2526TIP3   OH2 7520   0.451   6.075   2.181
 2526TIP3    H1 7521   0.425   5.991   2.141
 2526TIP3    H2 7522   0.414   6.072   2.269
 2527TIP3   OH2 7523   4.684   2.616   5.273
 2527TIP3    H1 7524   4.753   2.552   5.288
 2527TIP3    H2 7525   4.730   2.698   5.255
 2528TIP3   OH2 7526   5.899   2.557   0.097
 2528TIP3    H1 7527   5.855   2.570   0.013
 2528TIP3    H2 7528   5.992   2.566   0.077
 2529TIP3   OH2 7529   5.869   3.062   0.874
 2529TIP3    H1 7530   5.922   3.140   0.860
 2529TIP3    H2 7531   5.932   2.994   0.899
 2530TIP3   OH2 7532   6.648   0.928   4.028
 2530TIP3    H1 7533   6.680   0.929   4.118
 2530TIP3    H2 7534   6.653   1.019   4.000
 2531TIP3   OH2 7535   8.028   5.432   5.789
 2531TIP3    H1 7536   7.994   5.367   5.727
 2531TIP3    H2 7537   8.053   5.380   5.866
 2532TIP3   OH2 7538   2.466   5.840   3.216
 2532TIP3    H1 7539   2.495   5.921   3.175
 2532TIP3    H2 7540   2.454   5.861   3.308
 2533TIP3   OH2 7541   2.100   2.370   4.946
 2533TIP3    H1 7542   2.052   2.328   5.017
 2533TIP3    H2 7543   2.108   2.302   4.879
 2534TIP3   OH2 7544   7.851   3.429   1.651
 2534TIP3    H1 7545   7.876   3.482   1.575
 2534TIP3    H2 7546   7.876   3.340   1.627
 2535TIP3   OH2 7547   7.366   5.577   4.397
 2535TIP3    H1 7548   7.382   5.611   4.309
 2535TIP3    H2 7549   7.444   5.602   4.446
 2536TIP3   OH2 7550   0.060   2.070   1.956
 2536TIP3    H1 7551   0.031   2.143   1.902
 2536TIP3    H2 7552   0.034   1.992   1.908
 2537TIP3   OH2 7553   4.347   0.727   5.448
 2537TIP3    H1 7554   4.435   0.693   5.463
 2537TIP3    H2 7555   4.309   0.735   5.536
 2538TIP3   OH2 7556   4.972   5.896   1.308
 2538TIP3    H1 7557   4.925   5.934   1.233
 2538TIP3    H2 7558   5.010   5.816   1.274
 2539TIP3   OH2 7559   0.648   1.657   1.044
 2539TIP3    H1 7560   0.718   1.592   1.040
 2539TIP3    H2 7561   0.582   1.625   0.982
 2540TIP3   OH2 7562   1.118   3.032   4.775
 2540TIP3    H1 7563   1.034   3.034   4.821
 2540TIP3    H2 7564   1.176   3.083   4.831
 2541TIP3   OH2 7565   0.932   2.710   4.086
 2541TIP3    H1 7566   1.022   2.733   4.064
 2541TIP3    H2 7567   0.933   2.694   4.180
 2542TIP3   OH2 7568   0.360   1.269   1.386
 2542TIP3    H1 7569   0.424   1.335   1.413
 2542TIP3    H2 7570   0.296   1.318   1.334
 2543TIP3   OH2 7571   2.429   5.319   1.211
 2543TIP3    H1 7572   2.480   5.328   1.291
 2543TIP3    H2 7573   2.340   5.303   1.240
 2544TIP3   OH2 7574   0.313   1.744   2.971
 2544TIP3    H1 7575   0.396   1.701   2.955
 2544TIP3    H2 7576   0.333   1.812   3.036
 2545TIP3   OH2 7577   3.110   0.670   0.779
 2545TIP3    H1 7578   3.100   0.677   0.684
 2545TIP3    H2 7579   3.152   0.585   0.793
 2546TIP3   OH2 7580   7.969   2.016   6.751
 2546TIP3    H1 7581   8.000   2.107   6.749
 2546TIP3    H2 7582   7.984   1.984   6.662
 2547TIP3   OH2 7583   7.541   7.104   2.186
 2547TIP3    H1 7584   7.626   7.060   2.174
 2547TIP3    H2 7585   7.564   7.195   2.206
 2548TIP3   OH2 7586   1.592   4.894   6.042
 2548TIP3    H1 7587   1.592   4.803   6.072
 2548TIP3    H2 7588   1.640   4.942   6.110
 2549TIP3   OH2 7589   0.686   0.293   5.307
 2549TIP3    H1 7590   0.701   0.235   5.382
 2549TIP3    H2 7591   0.591   0.301   5.303
 2550TIP3   OH2 7592   6.312   5.578   0.269
 2550TIP3    H1 7593   6.345   5.667   0.282
 2550TIP3    H2 7594   6.391   5.526   0.250
 2551TIP3   OH2 7595   6.086   5.075   5.201
 2551TIP3    H1 7596   6.035   5.109   5.274
 2551TIP3    H2 7597   6.062   4.983   5.195
 2552TIP3   OH2 7598   1.056   0.714   1.891
 2552TIP3    H1 7599   1.074   0.807   1.903
 2552TIP3    H2 7600   0.990   0.711   1.822
 2553TIP3   OH2 7601   5.046   4.953   4.076
 2553TIP3    H1 7602   4.994   5.026   4.043
 2553TIP3    H2 7603   5.015   4.877   4.026
 2554TIP3   OH2 7604   2.710   4.145   4.353
 2554TIP3    H1 7605   2.614   4.151   4.362
 2554TIP3    H2 7606   2.741   4.127   4.442
 2555TIP3   OH2 7607   6.258   0.635   5.748
 2555TIP3    H1 7608   6.315   0.619   5.823
 2555TIP3    H2 7609   6.313   0.684   5.687
 2556TIP3   OH2 7610   6.403   0.044   3.622
 2556TIP3    H1 7611   6.414   0.119   3.563
 2556TIP3    H2 7612   6.318   0.008   3.600
 2557TIP3   OH2 7613   4.312   6.391   5.499
 2557TIP3    H1 7614   4.313   6.335   5.422
 2557TIP3    H2 7615   4.238   6.359   5.551
 2558TIP3   OH2 7616   1.786   5.154   0.479
 2558TIP3    H1 7617   1.773   5.090   0.410
 2558TIP3    H2 7618   1.712   5.141   0.539
 2559TIP3   OH2 7619   1.390   4.095   3.717
 2559TIP3    H1 7620   1.383   4.173   3.662
 2559TIP3    H2 7621   1.478   4.099   3.754
 2560TIP3   OH2 7622   4.453   3.555   3.572
 2560TIP3    H1 7623   4.442   3.616   3.645
 2560TIP3    H2 7624   4.516   3.599   3.514
 2561TIP3   OH2 7625   6.940   6.038   4.277
 2561TIP3    H1 7626   6.944   6.038   4.181
 2561TIP3    H2 7627   6.968   6.127   4.302
 2562TIP3   OH2 7628   4.150   7.523   0.050
 2562TIP3    H1 7629   4.195   7.439   0.061
 2562TIP3    H2 7630   4.212   7.588   0.083
 2563TIP3   OH2 7631   2.570   1.211   5.190
 2563TIP3    H1 7632   2.654   1.244   5.158
 2563TIP3    H2 7633   2.564   1.123   5.155
 2564TIP3   OH2 7634   7.593   4.642   2.639
 2564TIP3    H1 7635   7.635   4.645   2.725
 2564TIP3    H2 7636   7.645   4.580   2.589
 2565TIP3   OH2 7637   6.284   3.306   3.947
 2565TIP3    H1 7638   6.211   3.290   3.887
 2565TIP3    H2 7639   6.244   3.308   4.034
 2566TIP3   OH2 7640   6.692   3.932   2.019
 2566TIP3    H1 7641   6.613   3.956   1.971
 2566TIP3    H2 7642   6.749   3.891   1.953
 2567TIP3   OH2 7643   2.761   2.555   3.853
 2567TIP3    H1 7644   2.670   2.527   3.865
 2567TIP3    H2 7645   2.801   2.543   3.939
 2568TIP3   OH2 7646   8.045   2.628   2.089
 2568TIP3    H1 7647   8.007   2.579   2.016
 2568TIP3    H2 7648   8.033   2.571   2.165
 2569TIP3   OH2 7649   5.117   2.283   2.199
 2569TIP3    H1 7650   5.041   2.273   2.142
 2569TIP3    H2 7651   5.187   2.311   2.140
 2570TIP3   OH2 7652   5.684   2.025   3.327
 2570TIP3    H1 7653   5.671   2.012   3.233
 2570TIP3    H2 7654   5.598   2.049   3.360
 2571TIP3   OH2 7655   1.473   4.099   0.109
 2571TIP3    H1 7656   1.566   4.083   0.093
 2571TIP3    H2 7657   1.464   4.194   0.103
 2572TIP3   OH2 7658   5.196   3.510   5.461
 2572TIP3    H1 7659   5.188   3.414   5.463
 2572TIP3    H2 7660   5.106   3.542   5.462
 2573TIP3   OH2 7661   1.553   0.015   5.807
 2573TIP3    H1 7662   1.555   0.073   5.884
 2573TIP3    H2 7663   1.464   0.023   5.774
 2574TIP3   OH2 7664   2.966   0.968   4.872
 2574TIP3    H1 7665   3.021   0.906   4.921
 2574TIP3    H2 7666   3.028   1.015   4.815
 2575TIP3   OH2 7667   4.744   2.881   0.174
 2575TIP3    H1 7668   4.657   2.850   0.151
 2575TIP3    H2 7669   4.798   2.801   0.173
 2576TIP3   OH2 7670   4.246   4.815   2.988
 2576TIP3    H1 7671   4.262   4.885   3.051
 2576TIP3    H2 7672   4.152   4.798   2.993
 2577TIP3   OH2 7673   4.086   6.684   4.268
 2577TIP3    H1 7674   4.032   6.763   4.270
 2577TIP3    H2 7675   4.038   6.623   4.212
 2578TIP3   OH2 7676   2.371   7.182   4.655
 2578TIP3    H1 7677   2.448   7.126   4.644
 2578TIP3    H2 7678   2.299   7.120   4.667
 2579TIP3   OH2 7679   1.572   2.581   4.364
 2579TIP3    H1 7680   1.627   2.615   4.293
 2579TIP3    H2 7681   1.601   2.629   4.441
 2580TIP3   OH2 7682   3.459   2.098   3.664
 2580TIP3    H1 7683   3.427   2.142   3.585
 2580TIP3    H2 7684   3.458   2.166   3.731
 2581TIP3   OH2 7685   7.298   7.093   1.441
 2581TIP3    H1 7686   7.330   7.179   1.466
 2581TIP3    H2 7687   7.363   7.032   1.476
 2582TIP3   OH2 7688   0.352   6.996   6.165
 2582TIP3    H1 7689   0.285   6.985   6.233
 2582TIP3    H2 7690   0.366   7.090   6.159
 2583TIP3   OH2 7691   3.030   6.597   2.935
 2583TIP3    H1 7692   2.987   6.624   3.017
 2583TIP3    H2 7693   3.112   6.647   2.934
 2584TIP3   OH2 7694   7.155   7.689   2.072
 2584TIP3    H1 7695   7.086   7.693   2.138
 2584TIP3    H2 7696   7.124   7.625   2.009
 2585TIP3   OH2 7697   0.620   4.463   3.482
 2585TIP3    H1 7698   0.554   4.422   3.539
 2585TIP3    H2 7699   0.703   4.446   3.526
 2586TIP3   OH2 7700   7.314   3.845   1.388
 2586TIP3    H1 7701   7.318   3.782   1.459
 2586TIP3    H2 7702   7.388   3.904   1.405
 2587TIP3   OH2 7703   1.646   0.360   4.242
 2587TIP3    H1 7704   1.622   0.268   4.235
 2587TIP3    H2 7705   1.620   0.398   4.157
 2588TIP3   OH2 7706   0.215   6.770   5.340
 2588TIP3    H1 7707   0.129   6.762   5.382
 2588TIP3    H2 7708   0.208   6.717   5.261
 2589TIP3   OH2 7709   1.886   1.854   2.802
 2589TIP3    H1 7710   1.861   1.859   2.895
 2589TIP3    H2 7711   1.952   1.785   2.799
 2590TIP3   OH2 7712   0.555   4.469   4.915
 2590TIP3    H1 7713   0.475   4.489   4.866
 2590TIP3    H2 7714   0.577   4.380   4.890
 2591TIP3   OH2 7715   4.629   2.384   4.703
 2591TIP3    H1 7716   4.723   2.401   4.695
 2591TIP3    H2 7717   4.619   2.293   4.675
 2592TIP3   OH2 7718   7.479   3.613   2.776
 2592TIP3    H1 7719   7.427   3.576   2.705
 2592TIP3    H2 7720   7.570   3.607   2.744
 2593TIP3   OH2 7721   0.919   3.954   6.237
 2593TIP3    H1 7722   0.857   3.948   6.164
 2593TIP3    H2 7723   0.929   4.048   6.252
 2594TIP3   OH2 7724   8.157   4.556   1.635
 2594TIP3    H1 7725   8.192   4.644   1.640
 2594TIP3    H2 7726   8.166   4.532   1.542
 2595TIP3   OH2 7727   1.534   7.045   4.505
 2595TIP3    H1 7728   1.522   7.131   4.544
 2595TIP3    H2 7729   1.471   7.042   4.434
 2596TIP3   OH2 7730   1.344   5.797   4.824
 2596TIP3    H1 7731   1.285   5.740   4.874
 2596TIP3    H2 7732   1.289   5.869   4.795
 2597TIP3   OH2 7733   2.787   7.815   3.178
 2597TIP3    H1 7734   2.697   7.785   3.187
 2597TIP3    H2 7735   2.810   7.849   3.265
 2598TIP3   OH2 7736   1.305   2.032   5.044
 2598TIP3    H1 7737   1.285   2.077   5.126
 2598TIP3    H2 7738   1.349   1.952   5.072
 2599TIP3   OH2 7739   4.004   5.274   1.155
 2599TIP3    H1 7740   4.032   5.183   1.163
 2599TIP3    H2 7741   4.057   5.309   1.084
 2600TIP3   OH2 7742   5.777   2.475   2.836
 2600TIP3    H1 7743   5.729   2.551   2.804
 2600TIP3    H2 7744   5.720   2.401   2.815
 2601TIP3   OH2 7745   5.045   6.784   0.255
 2601TIP3    H1 7746   5.008   6.708   0.301
 2601TIP3    H2 7747   5.135   6.790   0.287
 2602TIP3   OH2 7748   8.256   1.852   1.802
 2602TIP3    H1 7749   8.223   1.765   1.826
 2602TIP3    H2 7750   8.187   1.888   1.746
 2603TIP3   OH2 7751   6.986   1.017   4.717
 2603TIP3    H1 7752   7.042   0.988   4.789
 2603TIP3    H2 7753   6.910   1.058   4.760
 2604TIP3   OH2 7754   2.573   7.751   4.928
 2604TIP3    H1 7755   2.657   7.709   4.907
 2604TIP3    H2 7756   2.587   7.843   4.905
 2605TIP3   OH2 7757   6.951   5.593   4.233
 2605TIP3    H1 7758   6.927   5.667   4.177
 2605TIP3    H2 7759   6.937   5.516   4.179
 2606TIP3   OH2 7760   3.954   7.603   6.037
 2606TIP3    H1 7761   4.029   7.647   5.995
 2606TIP3    H2 7762   3.878   7.635   5.989
 2607TIP3   OH2 7763   7.287   0.753   6.593
 2607TIP3    H1 7764   7.357   0.710   6.545
 2607TIP3    H2 7765   7.278   0.703   6.674
 2608TIP3   OH2 7766   4.310   4.209   1.535
 2608TIP3    H1 7767   4.396   4.230   1.499
 2608TIP3    H2 7768   4.248   4.246   1.473
 2609TIP3   OH2 7769   5.963   0.177   0.523
 2609TIP3    H1 7770   6.020   0.143   0.593
 2609TIP3    H2 7771   5.875   0.175   0.562
 2610TIP3   OH2 7772   4.687   4.472   3.031
 2610TIP3    H1 7773   4.635   4.394   3.014
 2610TIP3    H2 7774   4.778   4.444   3.020
 2611TIP3   OH2 7775   3.077   4.603   0.665
 2611TIP3    H1 7776   3.067   4.555   0.583
 2611TIP3    H2 7777   3.108   4.537   0.728
 2612TIP3   OH2 7778   7.481   3.552   5.066
 2612TIP3    H1 7779   7.437   3.592   5.141
 2612TIP3    H2 7780   7.447   3.463   5.062
 2613TIP3   OH2 7781   0.223   5.826   5.118
 2613TIP3    H1 7782   0.155   5.836   5.184
 2613TIP3    H2 7783   0.195   5.883   5.046
 2614TIP3   OH2 7784   1.460   1.284   1.733
 2614TIP3    H1 7785   1.458   1.209   1.792
 2614TIP3    H2 7786   1.535   1.268   1.676
 2615TIP3   OH2 7787   7.600   0.163   2.735
 2615TIP3    H1 7788   7.695   0.159   2.728
 2615TIP3    H2 7789   7.575   0.082   2.778
 2616TIP3   OH2 7790   8.263   3.176   3.708
 2616TIP3    H1 7791   8.194   3.166   3.643
 2616TIP3    H2 7792   8.267   3.271   3.724
 2617TIP3   OH2 7793   2.062   5.741   1.420
 2617TIP3    H1 7794   1.966   5.738   1.413
 2617TIP3    H2 7795   2.092   5.723   1.331
 2618TIP3   OH2 7796   0.938   3.346   4.705
 2618TIP3    H1 7797   0.874   3.413   4.682
 2618TIP3    H2 7798   0.934   3.283   4.632
 2619TIP3   OH2 7799   1.316   3.326   6.076
 2619TIP3    H1 7800   1.262   3.392   6.120
 2619TIP3    H2 7801   1.400   3.370   6.064
 2620TIP3   OH2 7802   0.845   2.815   5.237
 2620TIP3    H1 7803   0.792   2.788   5.161
 2620TIP3    H2 7804   0.918   2.865   5.198
 2621TIP3   OH2 7805   3.813   2.332   2.772
 2621TIP3    H1 7806   3.878   2.311   2.840
 2621TIP3    H2 7807   3.775   2.415   2.801
 2622TIP3   OH2 7808   7.001   5.314   4.786
 2622TIP3    H1 7809   6.929   5.278   4.734
 2622TIP3    H2 7810   6.966   5.320   4.875
 2623TIP3   OH2 7811   2.087   7.817   1.164
 2623TIP3    H1 7812   2.046   7.775   1.089
 2623TIP3    H2 7813   2.107   7.746   1.224
 2624TIP3   OH2 7814   4.429   3.918   0.081
 2624TIP3    H1 7815   4.368   3.853   0.048
 2624TIP3    H2 7816   4.374   3.994   0.101
 2625TIP3   OH2 7817   2.324   4.895   0.239
 2625TIP3    H1 7818   2.319   4.832   0.310
 2625TIP3    H2 7819   2.417   4.907   0.224
 2626TIP3   OH2 7820   6.350   3.455   4.540
 2626TIP3    H1 7821   6.351   3.439   4.634
 2626TIP3    H2 7822   6.436   3.424   4.510
 2627TIP3   OH2 7823   6.393   5.047   0.909
 2627TIP3    H1 7824   6.365   5.071   0.998
 2627TIP3    H2 7825   6.440   5.124   0.877
 2628TIP3   OH2 7826   2.904   0.392   2.397
 2628TIP3    H1 7827   2.817   0.420   2.426
 2628TIP3    H2 7828   2.936   0.335   2.466
 2629TIP3   OH2 7829   4.367   5.023   0.238
 2629TIP3    H1 7830   4.285   5.036   0.285
 2629TIP3    H2 7831   4.419   4.968   0.296
 2630TIP3   OH2 7832   8.034   0.164   2.525
 2630TIP3    H1 7833   8.128   0.162   2.505
 2630TIP3    H2 7834   7.992   0.186   2.443
 2631TIP3   OH2 7835   3.770   5.922   1.349
 2631TIP3    H1 7836   3.681   5.888   1.343
 2631TIP3    H2 7837   3.810   5.871   1.419
 2632TIP3   OH2 7838   4.108   6.212   3.292
 2632TIP3    H1 7839   4.036   6.196   3.232
 2632TIP3    H2 7840   4.139   6.300   3.269
 2633TIP3   OH2 7841   2.516   7.724   0.192
 2633TIP3    H1 7842   2.594   7.772   0.163
 2633TIP3    H2 7843   2.535   7.701   0.283
 2634TIP3   OH2 7844   1.059   5.222   0.379
 2634TIP3    H1 7845   1.059   5.268   0.463
 2634TIP3    H2 7846   1.061   5.293   0.314
 2635TIP3   OH2 7847   7.976   3.207   6.038
 2635TIP3    H1 7848   7.954   3.227   5.947
 2635TIP3    H2 7849   8.035   3.278   6.064
 2636TIP3   OH2 7850   2.481   5.699   5.905
 2636TIP3    H1 7851   2.568   5.716   5.942
 2636TIP3    H2 7852   2.477   5.603   5.897
 2637TIP3   OH2 7853   4.780   7.569   1.355
 2637TIP3    H1 7854   4.793   7.637   1.288
 2637TIP3    H2 7855   4.700   7.523   1.328
 2638TIP3   OH2 7856   1.910   7.279   0.750
 2638TIP3    H1 7857   1.861   7.199   0.771
 2638TIP3    H2 7858   1.950   7.261   0.665
 2639TIP3   OH2 7859   0.098   6.754   1.557
 2639TIP3    H1 7860   0.065   6.736   1.646
 2639TIP3    H2 7861   0.193   6.749   1.566
 2640TIP3   OH2 7862   3.197   2.594   0.781
 2640TIP3    H1 7863   3.110   2.635   0.781
 2640TIP3    H2 7864   3.205   2.556   0.868
 2641TIP3   OH2 7865   1.112   1.140   1.673
 2641TIP3    H1 7866   1.185   1.124   1.614
 2641TIP3    H2 7867   1.089   1.232   1.660
 2642TIP3   OH2 7868   6.237   3.093   1.124
 2642TIP3    H1 7869   6.238   3.167   1.063
 2642TIP3    H2 7870   6.192   3.127   1.201
 2643TIP3   OH2 7871   5.795   7.726   4.491
 2643TIP3    H1 7872   5.832   7.681   4.567
 2643TIP3    H2 7873   5.728   7.784   4.528
 2644TIP3   OH2 7874   6.821   1.279   4.026
 2644TIP3    H1 7875   6.832   1.274   4.121
 2644TIP3    H2 7876   6.882   1.213   3.992
 2645TIP3   OH2 7877   3.045   2.780   6.607
 2645TIP3    H1 7878   3.110   2.841   6.575
 2645TIP3    H2 7879   3.022   2.812   6.694
 2646TIP3   OH2 7880   6.185   0.871   5.879
 2646TIP3    H1 7881   6.177   0.942   5.815
 2646TIP3    H2 7882   6.194   0.792   5.826
 2647TIP3   OH2 7883   4.996   3.163   5.733
 2647TIP3    H1 7884   4.962   3.249   5.710
 2647TIP3    H2 7885   4.988   3.112   5.653
 2648TIP3   OH2 7886   1.676   1.831   4.558
 2648TIP3    H1 7887   1.670   1.925   4.576
 2648TIP3    H2 7888   1.693   1.825   4.464
 2649TIP3   OH2 7889   4.118   0.403   5.840
 2649TIP3    H1 7890   4.157   0.332   5.891
 2649TIP3    H2 7891   4.164   0.402   5.757
 2650TIP3   OH2 7892   0.912   7.694   1.787
 2650TIP3    H1 7893   0.916   7.600   1.773
 2650TIP3    H2 7894   0.822   7.710   1.815
 2651TIP3   OH2 7895   4.534   4.781   4.274
 2651TIP3    H1 7896   4.560   4.867   4.305
 2651TIP3    H2 7897   4.478   4.798   4.198
 2652TIP3   OH2 7898   2.153   2.497   5.966
 2652TIP3    H1 7899   2.243   2.502   5.934
 2652TIP3    H2 7900   2.126   2.407   5.946
 2653TIP3   OH2 7901   4.839   1.452   2.315
 2653TIP3    H1 7902   4.789   1.532   2.327
 2653TIP3    H2 7903   4.919   1.480   2.269
 2654TIP3   OH2 7904   6.511   5.457   4.814
 2654TIP3    H1 7905   6.588   5.420   4.858
 2654TIP3    H2 7906   6.547   5.524   4.756
 2655TIP3   OH2 7907   4.884   0.991   2.007
 2655TIP3    H1 7908   4.804   0.977   2.058
 2655TIP3    H2 7909   4.954   0.995   2.072
 2656TIP3   OH2 7910   3.751   6.631   2.114
 2656TIP3    H1 7911   3.820   6.600   2.173
 2656TIP3    H2 7912   3.726   6.717   2.149
 2657TIP3   OH2 7913   2.751   2.759   6.728
 2657TIP3    H1 7914   2.747   2.854   6.726
 2657TIP3    H2 7915   2.828   2.739   6.782
 2658TIP3   OH2 7916   0.384   3.197   1.442
 2658TIP3    H1 7917   0.356   3.118   1.489
 2658TIP3    H2 7918   0.478   3.184   1.428
 2659TIP3   OH2 7919   8.041   5.186   0.054
 2659TIP3    H1 7920   8.022   5.277   0.076
 2659TIP3    H2 7921   8.064   5.145   0.137
 2660TIP3   OH2 7922   4.929   2.217   4.320
 2660TIP3    H1 7923   4.949   2.166   4.241
 2660TIP3    H2 7924   4.844   2.185   4.349
 2661TIP3   OH2 7925   0.096   4.656   3.057
 2661TIP3    H1 7926   0.162   4.594   3.090
 2661TIP3    H2 7927   0.023   4.602   3.030
 2662TIP3   OH2 7928   3.211   2.561   6.666
 2662TIP3    H1 7929   3.180   2.652   6.668
 2662TIP3    H2 7930   3.207   2.532   6.757
 2663TIP3   OH2 7931   5.406   1.922   0.734
 2663TIP3    H1 7932   5.348   1.921   0.657
 2663TIP3    H2 7933   5.409   2.014   0.760
 2664TIP3   OH2 7934   6.162   1.724   3.756
 2664TIP3    H1 7935   6.191   1.751   3.669
 2664TIP3    H2 7936   6.240   1.685   3.797
 2665TIP3   OH2 7937   1.091   5.475   1.114
 2665TIP3    H1 7938   1.152   5.504   1.046
 2665TIP3    H2 7939   1.096   5.379   1.112
 2666TIP3   OH2 7940   7.546   1.125   3.241
 2666TIP3    H1 7941   7.625   1.137   3.295
 2666TIP3    H2 7942   7.518   1.035   3.260
 2667TIP3   OH2 7943   2.055   3.173   2.828
 2667TIP3    H1 7944   2.098   3.122   2.759
 2667TIP3    H2 7945   2.034   3.256   2.786
 2668TIP3   OH2 7946   6.803   1.309   2.801
 2668TIP3    H1 7947   6.812   1.384   2.859
 2668TIP3    H2 7948   6.890   1.298   2.762
 2669TIP3   OH2 7949   3.493   2.095   0.172
 2669TIP3    H1 7950   3.560   2.156   0.203
 2669TIP3    H2 7951   3.428   2.095   0.242
 2670TIP3   OH2 7952   0.747   7.377   0.809
 2670TIP3    H1 7953   0.695   7.409   0.736
 2670TIP3    H2 7954   0.837   7.377   0.777
 2671TIP3   OH2 7955   1.752   2.851   5.763
 2671TIP3    H1 7956   1.791   2.861   5.676
 2671TIP3    H2 7957   1.818   2.804   5.813
 2672TIP3   OH2 7958   3.048   4.199   4.163
 2672TIP3    H1 7959   3.114   4.175   4.098
 2672TIP3    H2 7960   3.083   4.169   4.247
 2673TIP3   OH2 7961   2.078   0.410   4.173
 2673TIP3    H1 7962   2.028   0.355   4.233
 2673TIP3    H2 7963   2.012   0.456   4.121
 2674TIP3   OH2 7964   3.001   4.664   1.079
 2674TIP3    H1 7965   3.080   4.646   1.131
 2674TIP3    H2 7966   2.936   4.692   1.144
 2675TIP3   OH2 7967   6.448   7.041   1.697
 2675TIP3    H1 7968   6.469   7.130   1.667
 2675TIP3    H2 7969   6.369   7.052   1.749
 2676TIP3   OH2 7970   0.889   0.859   4.958
 2676TIP3    H1 7971   0.813   0.841   5.014
 2676TIP3    H2 7972   0.964   0.824   5.006
 2677TIP3   OH2 7973   2.706   0.164   4.524
 2677TIP3    H1 7974   2.735   0.078   4.492
 2677TIP3    H2 7975   2.710   0.221   4.447
 2678TIP3   OH2 7976   6.691   1.009   1.607
 2678TIP3    H1 7977   6.725   1.080   1.551
 2678TIP3    H2 7978   6.770   0.964   1.638
 2679TIP3   OH2 7979   6.173   4.824   0.172
 2679TIP3    H1 7980   6.151   4.759   0.239
 2679TIP3    H2 7981   6.145   4.908   0.209
 2680TIP3   OH2 7982   5.721   7.193   4.283
 2680TIP3    H1 7983   5.641   7.199   4.232
 2680TIP3    H2 7984   5.747   7.284   4.298
 2681TIP3   OH2 7985   8.151   7.349   6.059
 2681TIP3    H1 7986   8.239   7.380   6.038
 2681TIP3    H2 7987   8.109   7.334   5.974
 2682TIP3   OH2 7988   2.174   1.104   3.912
 2682TIP3    H1 7989   2.100   1.141   3.863
 2682TIP3    H2 7990   2.201   1.174   3.971
 2683TIP3   OH2 7991   0.422   4.131   3.642
 2683TIP3    H1 7992   0.367   4.094   3.573
 2683TIP3    H2 7993   0.505   4.150   3.599
 2684TIP3   OH2 7994   1.514   0.919   1.731
 2684TIP3    H1 7995   1.547   0.835   1.764
 2684TIP3    H2 7996   1.495   0.970   1.811
 2685TIP3   OH2 7997   7.989   2.882   1.543
 2685TIP3    H1 7998   8.011   2.912   1.455
 2685TIP3    H2 7999   8.057   2.819   1.565
 2686TIP3   OH2 8000   5.735   2.206   1.245
 2686TIP3    H1 8001   5.732   2.117   1.280
 2686TIP3    H2 8002   5.772   2.258   1.316
 2687TIP3   OH2 8003   4.247   0.206   6.019
 2687TIP3    H1 8004   4.335   0.234   6.042
 2687TIP3    H2 8005   4.259   0.123   5.973
 2688TIP3   OH2 8006   3.022   5.619   5.170
 2688TIP3    H1 8007   3.011   5.641   5.262
 2688TIP3    H2 8008   3.031   5.704   5.126
 2689TIP3   OH2 8009   3.716   2.185   0.982
 2689TIP3    H1 8010   3.745   2.265   1.026
 2689TIP3    H2 8011   3.622   2.181   1.001
 2690TIP3   OH2 8012   6.523   7.265   3.479
 2690TIP3    H1 8013   6.475   7.315   3.413
 2690TIP3    H2 8014   6.502   7.310   3.562
 2691TIP3   OH2 8015   5.894   3.058   2.001
 2691TIP3    H1 8016   5.914   2.964   1.994
 2691TIP3    H2 8017   5.900   3.077   2.094
 2692TIP3   OH2 8018   5.328   6.250   1.642
 2692TIP3    H1 8019   5.252   6.194   1.659
 2692TIP3    H2 8020   5.348   6.289   1.727
 2693TIP3   OH2 8021   7.634   4.039   4.727
 2693TIP3    H1 8022   7.624   4.087   4.645
 2693TIP3    H2 8023   7.676   3.957   4.702
 2694TIP3   OH2 8024   7.970   7.689   4.098
 2694TIP3    H1 8025   8.017   7.606   4.107
 2694TIP3    H2 8026   7.889   7.665   4.054
 2695TIP3   OH2 8027   0.323   5.045   3.517
 2695TIP3    H1 8028   0.240   5.029   3.471
 2695TIP3    H2 8029   0.388   5.047   3.447
 2696TIP3   OH2 8030   1.513   7.320   5.571
 2696TIP3    H1 8031   1.518   7.357   5.659
 2696TIP3    H2 8032   1.587   7.260   5.566
 2697TIP3   OH2 8033   7.294   4.298   4.044
 2697TIP3    H1 8034   7.213   4.280   3.996
 2697TIP3    H2 8035   7.361   4.304   3.977
 2698TIP3   OH2 8036   0.639   3.335   3.324
 2698TIP3    H1 8037   0.568   3.340   3.388
 2698TIP3    H2 8038   0.613   3.264   3.264
 2699TIP3   OH2 8039   0.830   4.785   2.967
 2699TIP3    H1 8040   0.811   4.722   2.897
 2699TIP3    H2 8041   0.898   4.842   2.931
 2700TIP3   OH2 8042   4.676   3.772   6.058
 2700TIP3    H1 8043   4.632   3.823   6.126
 2700TIP3    H2 8044   4.767   3.802   6.061
 2701TIP3   OH2 8045   4.846   0.150   3.308
 2701TIP3    H1 8046   4.844   0.055   3.300
 2701TIP3    H2 8047   4.927   0.176   3.265
 2702TIP3   OH2 8048   7.349   4.722   5.257
 2702TIP3    H1 8049   7.276   4.669   5.290
 2702TIP3    H2 8050   7.307   4.804   5.230
 2703TIP3   OH2 8051   7.803   5.460   6.452
 2703TIP3    H1 8052   7.819   5.540   6.502
 2703TIP3    H2 8053   7.871   5.399   6.482
 2704TIP3   OH2 8054   4.334   1.761   4.703
 2704TIP3    H1 8055   4.242   1.749   4.724
 2704TIP3    H2 8056   4.333   1.810   4.620
 2705TIP3   OH2 8057   0.329   2.941   5.025
 2705TIP3    H1 8058   0.332   3.035   5.039
 2705TIP3    H2 8059   0.378   2.927   4.944
 2706TIP3   OH2 8060   7.300   0.222   3.308
 2706TIP3    H1 8061   7.303   0.193   3.399
 2706TIP3    H2 8062   7.334   0.311   3.311
 2707TIP3   OH2 8063   3.891   1.192   6.005
 2707TIP3    H1 8064   3.880   1.137   5.927
 2707TIP3    H2 8065   3.981   1.223   6.000
 2708TIP3   OH2 8066   1.387   7.086   1.085
 2708TIP3    H1 8067   1.390   7.174   1.048
 2708TIP3    H2 8068   1.345   7.033   1.017
 2709TIP3   OH2 8069   6.714   5.966   6.712
 2709TIP3    H1 8070   6.659   6.044   6.718
 2709TIP3    H2 8071   6.770   5.983   6.636
 2710TIP3   OH2 8072   2.963   0.918   6.533
 2710TIP3    H1 8073   3.042   0.945   6.487
 2710TIP3    H2 8074   2.920   0.857   6.472
 2711TIP3   OH2 8075   0.248   5.354   6.490
 2711TIP3    H1 8076   0.209   5.440   6.503
 2711TIP3    H2 8077   0.341   5.366   6.508
 2712TIP3   OH2 8078   7.668   6.082   5.540
 2712TIP3    H1 8079   7.579   6.091   5.506
 2712TIP3    H2 8080   7.670   5.995   5.580
 2713TIP3   OH2 8081   5.048   0.363   0.937
 2713TIP3    H1 8082   5.123   0.421   0.948
 2713TIP3    H2 8083   5.062   0.321   0.851
 2714TIP3   OH2 8084   5.503   4.535   5.025
 2714TIP3    H1 8085   5.427   4.494   4.984
 2714TIP3    H2 8086   5.499   4.627   4.997
 2715TIP3   OH2 8087   5.377   5.229   3.689
 2715TIP3    H1 8088   5.447   5.276   3.734
 2715TIP3    H2 8089   5.339   5.172   3.756
 2716TIP3   OH2 8090   5.477   2.047   1.707
 2716TIP3    H1 8091   5.434   2.065   1.623
 2716TIP3    H2 8092   5.486   1.952   1.709
 2717TIP3   OH2 8093   2.190   3.765   2.189
 2717TIP3    H1 8094   2.142   3.722   2.118
 2717TIP3    H2 8095   2.226   3.845   2.150
 2718TIP3   OH2 8096   1.184   6.662   4.528
 2718TIP3    H1 8097   1.243   6.615   4.587
 2718TIP3    H2 8098   1.097   6.645   4.563
 2719TIP3   OH2 8099   2.591   0.936   0.407
 2719TIP3    H1 8100   2.641   0.864   0.445
 2719TIP3    H2 8101   2.517   0.893   0.364
 2720TIP3   OH2 8102   7.029   5.645   4.558
 2720TIP3    H1 8103   7.083   5.723   4.547
 2720TIP3    H2 8104   6.940   5.680   4.567
 2721TIP3   OH2 8105   0.995   0.398   1.670
 2721TIP3    H1 8106   0.902   0.376   1.677
 2721TIP3    H2 8107   1.030   0.335   1.607
 2722TIP3   OH2 8108   5.339   1.259   4.644
 2722TIP3    H1 8109   5.315   1.341   4.601
 2722TIP3    H2 8110   5.256   1.225   4.677
 2723TIP3   OH2 8111   0.301   2.962   6.657
 2723TIP3    H1 8112   0.318   2.872   6.685
 2723TIP3    H2 8113   0.275   3.007   6.737
 2724TIP3   OH2 8114   1.067   0.077   3.325
 2724TIP3    H1 8115   1.155   0.097   3.355
 2724TIP3    H2 8116   1.021   0.161   3.326
 2725TIP3   OH2 8117   7.886   2.842   6.242
 2725TIP3    H1 8118   7.870   2.911   6.307
 2725TIP3    H2 8119   7.803   2.832   6.196
 2726TIP3   OH2 8120   5.709   7.466   5.532
 2726TIP3    H1 8121   5.614   7.467   5.525
 2726TIP3    H2 8122   5.737   7.551   5.498
 2727TIP3   OH2 8123   6.683   0.032   5.534
 2727TIP3    H1 8124   6.707   0.074   5.452
 2727TIP3    H2 8125   6.646  -0.053   5.508
 2728TIP3   OH2 8126   7.940   2.352   4.105
 2728TIP3    H1 8127   7.945   2.381   4.014
 2728TIP3    H2 8128   7.976   2.264   4.105
 2729TIP3   OH2 8129   5.361   4.066   3.180
 2729TIP3    H1 8130   5.316   4.038   3.260
 2729TIP3    H2 8131   5.397   3.985   3.144
 2730TIP3   OH2 8132   5.874   7.008   0.533
 2730TIP3    H1 8133   5.861   7.040   0.622
 2730TIP3    H2 8134   5.905   6.918   0.545
 2731TIP3   OH2 8135   6.659   6.680   3.234
 2731TIP3    H1 8136   6.648   6.625   3.156
 2731TIP3    H2 8137   6.597   6.752   3.221
 2732TIP3   OH2 8138   5.174   2.082   1.287
 2732TIP3    H1 8139   5.224   2.139   1.344
 2732TIP3    H2 8140   5.098   2.134   1.261
 2733TIP3   OH2 8141   2.012   2.474   2.436
 2733TIP3    H1 8142   1.980   2.553   2.393
 2733TIP3    H2 8143   2.107   2.478   2.426
 2734TIP3   OH2 8144   5.068   2.546   5.126
 2734TIP3    H1 8145   5.148   2.525   5.076
 2734TIP3    H2 8146   5.093   2.619   5.182
 2735TIP3   OH2 8147   3.190   0.680   6.548
 2735TIP3    H1 8148   3.146   0.636   6.475
 2735TIP3    H2 8149   3.153   0.640   6.627
 2736TIP3   OH2 8150   4.130   3.422   5.463
 2736TIP3    H1 8151   4.118   3.399   5.371
 2736TIP3    H2 8152   4.073   3.498   5.475
 2737TIP3   OH2 8153   0.091   0.762   2.986
 2737TIP3    H1 8154   0.091   0.855   3.011
 2737TIP3    H2 8155   0.040   0.719   3.055
 2738TIP3   OH2 8156   3.327   6.918   5.075
 2738TIP3    H1 8157   3.268   6.944   5.004
 2738TIP3    H2 8158   3.288   6.838   5.111
 2739TIP3   OH2 8159   1.639   6.645   3.764
 2739TIP3    H1 8160   1.624   6.554   3.740
 2739TIP3    H2 8161   1.648   6.644   3.859
 2740TIP3   OH2 8162   5.283   1.777   3.836
 2740TIP3    H1 8163   5.284   1.686   3.808
 2740TIP3    H2 8164   5.376   1.803   3.836
 2741TIP3   OH2 8165   0.464   6.661   4.841
 2741TIP3    H1 8166   0.386   6.713   4.859
 2741TIP3    H2 8167   0.463   6.648   4.746
 2742TIP3   OH2 8168   6.864   6.588   4.018
 2742TIP3    H1 8169   6.825   6.534   4.086
 2742TIP3    H2 8170   6.790   6.619   3.966
 2743TIP3   OH2 8171   7.800   3.013   3.484
 2743TIP3    H1 8172   7.822   3.036   3.574
 2743TIP3    H2 8173   7.706   3.031   3.477
 2744TIP3   OH2 8174   4.569   2.705   4.072
 2744TIP3    H1 8175   4.625   2.729   3.999
 2744TIP3    H2 8176   4.627   2.703   4.148
 2745TIP3   OH2 8177   5.734   6.281   1.869
 2745TIP3    H1 8178   5.718   6.214   1.936
 2745TIP3    H2 8179   5.825   6.306   1.882
 2746TIP3   OH2 8180   7.750   2.813   1.791
 2746TIP3    H1 8181   7.797   2.840   1.712
 2746TIP3    H2 8182   7.732   2.720   1.777
 2747TIP3   OH2 8183   7.062   7.074   0.884
 2747TIP3    H1 8184   7.120   7.016   0.933
 2747TIP3    H2 8185   7.065   7.042   0.794
 2748TIP3   OH2 8186   2.746   3.515   5.618
 2748TIP3    H1 8187   2.700   3.597   5.638
 2748TIP3    H2 8188   2.745   3.509   5.522
 2749TIP3   OH2 8189   2.182   3.208   4.362
 2749TIP3    H1 8190   2.097   3.167   4.346
 2749TIP3    H2 8191   2.244   3.156   4.310
 2750TIP3   OH2 8192   5.233   5.255   1.545
 2750TIP3    H1 8193   5.324   5.237   1.569
 2750TIP3    H2 8194   5.181   5.201   1.605
 2751TIP3   OH2 8195   6.187   7.785   2.154
 2751TIP3    H1 8196   6.141   7.810   2.234
 2751TIP3    H2 8197   6.131   7.718   2.114
 2752TIP3   OH2 8198   8.271   5.826   5.273
 2752TIP3    H1 8199   8.285   5.919   5.287
 2752TIP3    H2 8200   8.179   5.819   5.247
 2753TIP3   OH2 8201   4.862   6.621   4.272
 2753TIP3    H1 8202   4.876   6.563   4.197
 2753TIP3    H2 8203   4.891   6.707   4.242
 2754TIP3   OH2 8204   2.436   0.877   4.835
 2754TIP3    H1 8205   2.368   0.860   4.771
 2754TIP3    H2 8206   2.517   0.851   4.792
 2755TIP3   OH2 8207   5.929   3.130   5.960
 2755TIP3    H1 8208   5.962   3.145   6.048
 2755TIP3    H2 8209   5.882   3.210   5.937
 2756TIP3   OH2 8210   4.524   5.389   1.184
 2756TIP3    H1 8211   4.597   5.327   1.190
 2756TIP3    H2 8212   4.563   5.470   1.151
 2757TIP3   OH2 8213   5.333   7.406   5.041
 2757TIP3    H1 8214   5.264   7.447   5.094
 2757TIP3    H2 8215   5.287   7.345   4.984
 2758TIP3   OH2 8216   3.884   5.993   5.507
 2758TIP3    H1 8217   3.943   5.924   5.477
 2758TIP3    H2 8218   3.883   5.983   5.603
 2759TIP3   OH2 8219   7.420   3.738   1.158
 2759TIP3    H1 8220   7.412   3.772   1.247
 2759TIP3    H2 8221   7.329   3.726   1.129
 2760TIP3   OH2 8222   5.190   1.292   0.849
 2760TIP3    H1 8223   5.111   1.256   0.890
 2760TIP3    H2 8224   5.262   1.245   0.890
 2761TIP3   OH2 8225   5.726   3.599   2.849
 2761TIP3    H1 8226   5.792   3.616   2.782
 2761TIP3    H2 8227   5.687   3.684   2.867
 2762TIP3   OH2 8228   4.418   7.763   1.709
 2762TIP3    H1 8229   4.440   7.670   1.705
 2762TIP3    H2 8230   4.498   7.808   1.680
 2763TIP3   OH2 8231   4.994   7.230   2.033
 2763TIP3    H1 8232   5.080   7.272   2.035
 2763TIP3    H2 8233   4.982   7.207   1.941
 2764TIP3   OH2 8234   4.958   0.537   2.002
 2764TIP3    H1 8235   4.926   0.493   2.080
 2764TIP3    H2 8236   4.950   0.472   1.932
 2765TIP3   OH2 8237   3.102   2.422   5.093
 2765TIP3    H1 8238   3.192   2.395   5.114
 2765TIP3    H2 8239   3.068   2.459   5.174
 2766TIP3   OH2 8240   5.366   5.089   5.945
 2766TIP3    H1 8241   5.295   5.031   5.920
 2766TIP3    H2 8242   5.330   5.177   5.932
 2767TIP3   OH2 8243   0.639   6.841   6.367
 2767TIP3    H1 8244   0.691   6.813   6.442
 2767TIP3    H2 8245   0.648   6.769   6.304
 2768TIP3   OH2 8246   6.997   0.468   3.293
 2768TIP3    H1 8247   6.936   0.513   3.352
 2768TIP3    H2 8248   7.084   0.489   3.328
 2769TIP3   OH2 8249   0.437   0.788   0.151
 2769TIP3    H1 8250   0.525   0.755   0.136
 2769TIP3    H2 8251   0.381   0.732   0.096
 2770TIP3   OH2 8252   1.000   5.030   5.765
 2770TIP3    H1 8253   1.043   5.094   5.822
 2770TIP3    H2 8254   1.032   5.051   5.677
 2771TIP3   OH2 8255   4.961   3.697   5.688
 2771TIP3    H1 8256   4.934   3.789   5.680
 2771TIP3    H2 8257   4.960   3.680   5.782
 2772TIP3   OH2 8258   2.971   5.241   5.830
 2772TIP3    H1 8259   2.949   5.182   5.902
 2772TIP3    H2 8260   3.048   5.201   5.789
 2773TIP3   OH2 8261   0.275   4.813   2.295
 2773TIP3    H1 8262   0.207   4.750   2.271
 2773TIP3    H2 8263   0.232   4.898   2.291
 2774TIP3   OH2 8264   7.490   6.716   6.350
 2774TIP3    H1 8265   7.498   6.718   6.445
 2774TIP3    H2 8266   7.505   6.624   6.327
 2775TIP3   OH2 8267   5.081   2.411   0.706
 2775TIP3    H1 8268   5.048   2.479   0.765
 2775TIP3    H2 8269   5.002   2.367   0.674
 2776TIP3   OH2 8270   4.184   0.812   5.217
 2776TIP3    H1 8271   4.217   0.799   5.305
 2776TIP3    H2 8272   4.153   0.725   5.190
 2777TIP3   OH2 8273   6.055   7.353   2.792
 2777TIP3    H1 8274   5.963   7.342   2.816
 2777TIP3    H2 8275   6.103   7.313   2.865
 2778TIP3   OH2 8276   6.549   3.010   2.074
 2778TIP3    H1 8277   6.589   2.957   2.142
 2778TIP3    H2 8278   6.608   3.002   1.999
 2779TIP3   OH2 8279   2.771   6.078   2.950
 2779TIP3    H1 8280   2.695   6.038   2.907
 2779TIP3    H2 8281   2.794   6.017   3.020
 2780TIP3   OH2 8282   4.665   3.692   0.004
 2780TIP3    H1 8283   4.607   3.628   0.046
 2780TIP3    H2 8284   4.752   3.653   0.010
 2781TIP3   OH2 8285   1.801   2.364   2.021
 2781TIP3    H1 8286   1.874   2.357   2.082
 2781TIP3    H2 8287   1.736   2.302   2.054
 2782TIP3   OH2 8288   2.051   7.133   3.247
 2782TIP3    H1 8289   2.084   7.124   3.158
 2782TIP3    H2 8290   1.956   7.126   3.238
 2783TIP3   OH2 8291   1.280   3.424   2.089
 2783TIP3    H1 8292   1.276   3.388   2.178
 2783TIP3    H2 8293   1.292   3.348   2.033
 2784TIP3   OH2 8294   4.938   0.957   6.485
 2784TIP3    H1 8295   4.987   0.875   6.485
 2784TIP3    H2 8296   4.956   0.996   6.570
 2785TIP3   OH2 8297   4.749   6.247   5.494
 2785TIP3    H1 8298   4.824   6.196   5.463
 2785TIP3    H2 8299   4.678   6.224   5.434
 2786TIP3   OH2 8300   1.388   3.487   5.405
 2786TIP3    H1 8301   1.338   3.411   5.435
 2786TIP3    H2 8302   1.343   3.562   5.444
 2787TIP3   OH2 8303   4.079   6.224   5.658
 2787TIP3    H1 8304   4.012   6.185   5.714
 2787TIP3    H2 8305   4.130   6.150   5.625
 2788TIP3   OH2 8306   7.961   1.645   3.082
 2788TIP3    H1 8307   7.871   1.644   3.052
 2788TIP3    H2 8308   7.963   1.713   3.150
 2789TIP3   OH2 8309   8.040   4.872   1.656
 2789TIP3    H1 8310   8.054   4.847   1.747
 2789TIP3    H2 8311   8.128   4.879   1.619
 2790TIP3   OH2 8312   0.455   4.331   1.114
 2790TIP3    H1 8313   0.539   4.344   1.070
 2790TIP3    H2 8314   0.473   4.263   1.180
 2791TIP3   OH2 8315   7.739   4.996   0.190
 2791TIP3    H1 8316   7.709   5.085   0.210
 2791TIP3    H2 8317   7.706   4.979   0.102
 2792TIP3   OH2 8318   4.799   6.012   2.499
 2792TIP3    H1 8319   4.850   6.054   2.430
 2792TIP3    H2 8320   4.834   6.050   2.580
 2793TIP3   OH2 8321   6.850   3.565   2.318
 2793TIP3    H1 8322   6.763   3.592   2.290
 2793TIP3    H2 8323   6.904   3.572   2.239
 2794TIP3   OH2 8324   2.698   6.687   5.808
 2794TIP3    H1 8325   2.768   6.623   5.808
 2794TIP3    H2 8326   2.739   6.768   5.776
 2795TIP3   OH2 8327   7.797   3.578   3.418
 2795TIP3    H1 8328   7.871   3.518   3.422
 2795TIP3    H2 8329   7.823   3.644   3.354
 2796TIP3   OH2 8330   4.257   0.402   0.737
 2796TIP3    H1 8331   4.266   0.307   0.727
 2796TIP3    H2 8332   4.345   0.436   0.721
 2797TIP3   OH2 8333   6.504   5.341   4.028
 2797TIP3    H1 8334   6.594   5.317   4.051
 2797TIP3    H2 8335   6.459   5.349   4.112
 2798TIP3   OH2 8336   5.428   7.765   5.078
 2798TIP3    H1 8337   5.345   7.757   5.031
 2798TIP3    H2 8338   5.464   7.677   5.079
 2799TIP3   OH2 8339   0.451   4.354   0.328
 2799TIP3    H1 8340   0.416   4.427   0.276
 2799TIP3    H2 8341   0.530   4.328   0.281
 2800TIP3   OH2 8342   5.704   4.668   3.824
 2800TIP3    H1 8343   5.757   4.614   3.765
 2800TIP3    H2 8344   5.733   4.758   3.808
 2801TIP3   OH2 8345   6.612   5.299   4.300
 2801TIP3    H1 8346   6.554   5.252   4.360
 2801TIP3    H2 8347   6.630   5.382   4.344
 2802TIP3   OH2 8348   6.106   0.067   1.127
 2802TIP3    H1 8349   6.163   0.062   1.204
 2802TIP3    H2 8350   6.052   0.144   1.141
 2803TIP3   OH2 8351   3.008   1.942   0.808
 2803TIP3    H1 8352   3.094   1.900   0.797
 2803TIP3    H2 8353   2.981   1.919   0.896
 2804TIP3   OH2 8354   5.908   4.611   1.068
 2804TIP3    H1 8355   5.855   4.641   1.142
 2804TIP3    H2 8356   5.988   4.578   1.108
 2805TIP3   OH2 8357   1.340   7.767   4.401
 2805TIP3    H1 8358   1.421   7.721   4.379
 2805TIP3    H2 8359   1.298   7.784   4.317
 2806TIP3   OH2 8360   3.416   1.192   5.328
 2806TIP3    H1 8361   3.497   1.202   5.279
 2806TIP3    H2 8362   3.415   1.266   5.389
 2807TIP3   OH2 8363   8.169   6.651   3.002
 2807TIP3    H1 8364   8.109   6.667   2.928
 2807TIP3    H2 8365   8.126   6.693   3.076
 2808TIP3   OH2 8366   4.196   0.119   5.433
 2808TIP3    H1 8367   4.193   0.176   5.357
 2808TIP3    H2 8368   4.214   0.032   5.397
 2809TIP3   OH2 8369   7.225   4.978   5.203
 2809TIP3    H1 8370   7.162   4.950   5.136
 2809TIP3    H2 8371   7.306   4.994   5.154
 2810TIP3   OH2 8372   4.518   3.176   0.981
 2810TIP3    H1 8373   4.594   3.118   0.981
 2810TIP3    H2 8374   4.556   3.264   0.981
 2811TIP3   OH2 8375   2.834   3.180   5.929
 2811TIP3    H1 8376   2.778   3.192   5.852
 2811TIP3    H2 8377   2.828   3.087   5.949
 2812TIP3   OH2 8378   2.312   3.830   1.003
 2812TIP3    H1 8379   2.293   3.844   1.096
 2812TIP3    H2 8380   2.406   3.814   1.000
 2813TIP3   OH2 8381   0.552   1.837   0.784
 2813TIP3    H1 8382   0.568   1.916   0.734
 2813TIP3    H2 8383   0.544   1.768   0.718
 2814TIP3   OH2 8384   7.383   7.220   2.814
 2814TIP3    H1 8385   7.475   7.245   2.820
 2814TIP3    H2 8386   7.370   7.195   2.722
 2815TIP3   OH2 8387   0.436   4.705   0.511
 2815TIP3    H1 8388   0.367   4.640   0.521
 2815TIP3    H2 8389   0.499   4.683   0.580
 2816TIP3   OH2 8390   5.416   4.208   3.945
 2816TIP3    H1 8391   5.500   4.175   3.977
 2816TIP3    H2 8392   5.424   4.303   3.951
 2817TIP3   OH2 8393   8.114   7.047   0.196
 2817TIP3    H1 8394   8.135   7.058   0.288
 2817TIP3    H2 8395   8.194   7.010   0.157
 2818TIP3   OH2 8396   6.536   2.138   0.540
 2818TIP3    H1 8397   6.615   2.183   0.511
 2818TIP3    H2 8398   6.568   2.065   0.593
 2819TIP3   OH2 8399   0.723   6.929   2.502
 2819TIP3    H1 8400   0.685   6.910   2.588
 2819TIP3    H2 8401   0.682   7.011   2.476
 2820TIP3   OH2 8402   5.296   2.267   2.676
 2820TIP3    H1 8403   5.329   2.185   2.640
 2820TIP3    H2 8404   5.373   2.311   2.712
 2821TIP3   OH2 8405   7.505   7.794   5.175
 2821TIP3    H1 8406   7.508   7.789   5.270
 2821TIP3    H2 8407   7.487   7.705   5.146
 2822TIP3   OH2 8408   0.126   3.953   2.734
 2822TIP3    H1 8409   0.092   4.019   2.674
 2822TIP3    H2 8410   0.207   3.990   2.768
 2823TIP3   OH2 8411   4.376   2.273   3.133
 2823TIP3    H1 8412   4.365   2.199   3.194
 2823TIP3    H2 8413   4.384   2.232   3.047
 2824TIP3   OH2 8414   7.766   3.617   5.528
 2824TIP3    H1 8415   7.820   3.598   5.605
 2824TIP3    H2 8416   7.705   3.544   5.522
 2825TIP3   OH2 8417   0.890   5.951   1.093
 2825TIP3    H1 8418   0.885   5.986   1.181
 2825TIP3    H2 8419   0.832   6.007   1.041
 2826TIP3   OH2 8420   4.050   6.298   1.411
 2826TIP3    H1 8421   4.131   6.249   1.428
 2826TIP3    H2 8422   4.073   6.389   1.429
 2827TIP3   OH2 8423   7.688   5.147   3.184
 2827TIP3    H1 8424   7.720   5.214   3.123
 2827TIP3    H2 8425   7.677   5.069   3.131
 2828TIP3   OH2 8426   1.992   7.284   6.572
 2828TIP3    H1 8427   2.071   7.297   6.624
 2828TIP3    H2 8428   1.964   7.195   6.592
 2829TIP3   OH2 8429   6.158   5.103   5.514
 2829TIP3    H1 8430   6.142   5.011   5.494
 2829TIP3    H2 8431   6.090   5.150   5.466
 2830TIP3   OH2 8432   1.812   7.383   5.614
 2830TIP3    H1 8433   1.785   7.295   5.588
 2830TIP3    H2 8434   1.904   7.388   5.589
 2831TIP3   OH2 8435   0.084   0.482   5.620
 2831TIP3    H1 8436   0.086   0.495   5.526
 2831TIP3    H2 8437   0.025   0.551   5.653
 2832TIP3   OH2 8438   2.047   6.622   2.863
 2832TIP3    H1 8439   2.135   6.656   2.879
 2832TIP3    H2 8440   2.040   6.545   2.919
 2833TIP3   OH2 8441   7.712   3.772   4.625
 2833TIP3    H1 8442   7.699   3.701   4.688
 2833TIP3    H2 8443   7.713   3.728   4.540
 2834TIP3   OH2 8444   3.192   0.359   0.107
 2834TIP3    H1 8445   3.266   0.299   0.111
 2834TIP3    H2 8446   3.128   0.324   0.169
 2835TIP3   OH2 8447   6.467   1.215   2.551
 2835TIP3    H1 8448   6.431   1.172   2.474
 2835TIP3    H2 8449   6.561   1.199   2.547
 2836TIP3   OH2 8450   6.335   3.845   1.454
 2836TIP3    H1 8451   6.295   3.807   1.376
 2836TIP3    H2 8452   6.319   3.781   1.523
 2837TIP3   OH2 8453   6.822   7.506   1.430
 2837TIP3    H1 8454   6.825   7.478   1.338
 2837TIP3    H2 8455   6.801   7.427   1.479
 2838TIP3   OH2 8456   7.482   5.348   4.631
 2838TIP3    H1 8457   7.410   5.403   4.661
 2838TIP3    H2 8458   7.440   5.268   4.599
 2839TIP3   OH2 8459   3.374   0.907   5.283
 2839TIP3    H1 8460   3.377   0.997   5.317
 2839TIP3    H2 8461   3.458   0.869   5.307
 2840TIP3   OH2 8462   6.037   1.739   2.214
 2840TIP3    H1 8463   5.944   1.739   2.238
 2840TIP3    H2 8464   6.038   1.728   2.119
 2841TIP3   OH2 8465   2.735   7.388   5.905
 2841TIP3    H1 8466   2.824   7.356   5.916
 2841TIP3    H2 8467   2.680   7.323   5.949
 2842TIP3   OH2 8468   5.678   0.413   5.523
 2842TIP3    H1 8469   5.765   0.373   5.512
 2842TIP3    H2 8470   5.637   0.363   5.594
 2843TIP3   OH2 8471   4.789   2.921   3.322
 2843TIP3    H1 8472   4.755   2.849   3.375
 2843TIP3    H2 8473   4.865   2.952   3.370
 2844TIP3   OH2 8474   5.923   7.332   0.847
 2844TIP3    H1 8475   6.013   7.320   0.878
 2844TIP3    H2 8476   5.905   7.425   0.862
 2845TIP3   OH2 8477   7.681   4.043   3.887
 2845TIP3    H1 8478   7.687   4.133   3.918
 2845TIP3    H2 8479   7.667   3.991   3.966
 2846TIP3   OH2 8480   8.235   5.231   5.097
 2846TIP3    H1 8481   8.194   5.174   5.032
 2846TIP3    H2 8482   8.326   5.203   5.100
 2847TIP3   OH2 8483   5.450   2.550   0.394
 2847TIP3    H1 8484   5.498   2.576   0.472
 2847TIP3    H2 8485   5.368   2.599   0.399
 2848TIP3   OH2 8486   0.367   6.356   6.167
 2848TIP3    H1 8487   0.302   6.288   6.185
 2848TIP3    H2 8488   0.403   6.379   6.253
 2849TIP3   OH2 8489   2.429   6.077   1.222
 2849TIP3    H1 8490   2.391   6.123   1.297
 2849TIP3    H2 8491   2.510   6.038   1.256
 2850TIP3   OH2 8492   7.262   4.773   3.632
 2850TIP3    H1 8493   7.244   4.749   3.723
 2850TIP3    H2 8494   7.316   4.852   3.638
 2851TIP3   OH2 8495   3.260   7.741   5.067
 2851TIP3    H1 8496   3.348   7.779   5.073
 2851TIP3    H2 8497   3.274   7.653   5.033
 2852TIP3   OH2 8498   5.226   3.894   6.613
 2852TIP3    H1 8499   5.152   3.912   6.556
 2852TIP3    H2 8500   5.284   3.969   6.603
 2853TIP3   OH2 8501   6.805   2.637   4.152
 2853TIP3    H1 8502   6.879   2.581   4.175
 2853TIP3    H2 8503   6.818   2.659   4.060
 2854TIP3   OH2 8504   2.371   2.627   5.413
 2854TIP3    H1 8505   2.447   2.571   5.432
 2854TIP3    H2 8506   2.401   2.683   5.341
 2855TIP3   OH2 8507   6.606   6.499   0.740
 2855TIP3    H1 8508   6.693   6.462   0.724
 2855TIP3    H2 8509   6.549   6.453   0.678
 2856TIP3   OH2 8510   6.212   7.077   1.823
 2856TIP3    H1 8511   6.228   7.170   1.835
 2856TIP3    H2 8512   6.181   7.047   1.909
 2857TIP3   OH2 8513   2.421   0.912   0.767
 2857TIP3    H1 8514   2.443   0.991   0.718
 2857TIP3    H2 8515   2.453   0.840   0.712
 2858TIP3   OH2 8516   4.186   1.540   3.166
 2858TIP3    H1 8517   4.239   1.467   3.135
 2858TIP3    H2 8518   4.248   1.597   3.213
 2859TIP3   OH2 8519   4.712   0.849   3.373
 2859TIP3    H1 8520   4.617   0.865   3.373
 2859TIP3    H2 8521   4.750   0.931   3.404
 2860TIP3   OH2 8522   4.280   3.046   1.665
 2860TIP3    H1 8523   4.272   3.069   1.572
 2860TIP3    H2 8524   4.322   3.121   1.705
 2861TIP3   OH2 8525   6.934   4.984   2.071
 2861TIP3    H1 8526   6.995   5.048   2.107
 2861TIP3    H2 8527   6.849   5.027   2.076
 2862TIP3   OH2 8528   0.100   6.724   0.315
 2862TIP3    H1 8529   0.176   6.686   0.359
 2862TIP3    H2 8530   0.044   6.754   0.387
 2863TIP3   OH2 8531   7.329   7.310   3.058
 2863TIP3    H1 8532   7.347   7.263   2.976
 2863TIP3    H2 8533   7.334   7.242   3.125
 2864TIP3   OH2 8534   7.461   3.601   4.047
 2864TIP3    H1 8535   7.426   3.687   4.068
 2864TIP3    H2 8536   7.556   3.614   4.044
 2865TIP3   OH2 8537   0.997   1.270   5.412
 2865TIP3    H1 8538   1.019   1.202   5.349
 2865TIP3    H2 8539   0.987   1.349   5.359
 2866TIP3   OH2 8540   2.875   1.783   3.982
 2866TIP3    H1 8541   2.966   1.811   3.974
 2866TIP3    H2 8542   2.871   1.698   3.939
 2867TIP3   OH2 8543   0.937   5.304   3.906
 2867TIP3    H1 8544   0.878   5.257   3.965
 2867TIP3    H2 8545   0.903   5.286   3.819
 2868TIP3   OH2 8546   7.807   0.390   1.930
 2868TIP3    H1 8547   7.897   0.379   1.962
 2868TIP3    H2 8548   7.766   0.450   1.992
 2869TIP3   OH2 8549   4.624   4.471   5.529
 2869TIP3    H1 8550   4.593   4.415   5.601
 2869TIP3    H2 8551   4.543   4.504   5.489
 2870TIP3   OH2 8552   6.131   4.492   2.723
 2870TIP3    H1 8553   6.217   4.531   2.710
 2870TIP3    H2 8554   6.119   4.492   2.818
 2871TIP3   OH2 8555   2.167   2.130   4.778
 2871TIP3    H1 8556   2.079   2.095   4.770
 2871TIP3    H2 8557   2.221   2.055   4.801
 2872TIP3   OH2 8558   2.168   5.713   1.143
 2872TIP3    H1 8559   2.186   5.787   1.086
 2872TIP3    H2 8560   2.254   5.675   1.161
 2873TIP3   OH2 8561   2.326   3.611   4.523
 2873TIP3    H1 8562   2.403   3.560   4.549
 2873TIP3    H2 8563   2.273   3.550   4.472
 2874TIP3   OH2 8564   4.129   0.412   0.992
 2874TIP3    H1 8565   4.162   0.397   0.904
 2874TIP3    H2 8566   4.203   0.451   1.040
 2875TIP3   OH2 8567   7.761   3.946   5.588
 2875TIP3    H1 8568   7.842   3.910   5.624
 2875TIP3    H2 8569   7.789   4.009   5.522
 2876TIP3   OH2 8570   7.869   5.756   2.676
 2876TIP3    H1 8571   7.851   5.662   2.665
 2876TIP3    H2 8572   7.872   5.768   2.771
 2877TIP3   OH2 8573   2.716   5.704   4.929
 2877TIP3    H1 8574   2.664   5.660   4.861
 2877TIP3    H2 8575   2.700   5.651   5.008
 2878TIP3   OH2 8576   0.175   7.290   0.397
 2878TIP3    H1 8577   0.229   7.242   0.461
 2878TIP3    H2 8578   0.216   7.271   0.313
 2879TIP3   OH2 8579   0.219   4.836   1.081
 2879TIP3    H1 8580   0.227   4.809   1.172
 2879TIP3    H2 8581   0.304   4.875   1.059
 2880TIP3   OH2 8582   7.788   7.721   0.936
 2880TIP3    H1 8583   7.785   7.627   0.918
 2880TIP3    H2 8584   7.824   7.728   1.024
 2881TIP3   OH2 8585  -0.004   0.460   2.905
 2881TIP3    H1 8586   0.031   0.525   2.965
 2881TIP3    H2 8587   0.006   0.500   2.818
 2882TIP3   OH2 8588   3.120   3.255   1.520
 2882TIP3    H1 8589   3.096   3.348   1.521
 2882TIP3    H2 8590   3.125   3.231   1.612
 2883TIP3   OH2 8591   3.440   3.342   5.574
 2883TIP3    H1 8592   3.409   3.311   5.489
 2883TIP3    H2 8593   3.361   3.345   5.629
 2884TIP3   OH2 8594   2.497   5.172   0.980
 2884TIP3    H1 8595   2.434   5.100   0.980
 2884TIP3    H2 8596   2.476   5.221   1.060
 2885TIP3   OH2 8597   5.208   7.480   0.070
 2885TIP3    H1 8598   5.214   7.496   0.164
 2885TIP3    H2 8599   5.235   7.388   0.059
 2886TIP3   OH2 8600   4.702   1.052   4.796
 2886TIP3    H1 8601   4.631   1.099   4.840
 2886TIP3    H2 8602   4.780   1.075   4.847
 2887TIP3   OH2 8603   3.727   3.970   3.253
 2887TIP3    H1 8604   3.652   3.949   3.198
 2887TIP3    H2 8605   3.738   4.065   3.244
 2888TIP3   OH2 8606   6.679   1.998   6.299
 2888TIP3    H1 8607   6.772   2.016   6.315
 2888TIP3    H2 8608   6.678   1.954   6.214
 2889TIP3   OH2 8609   3.312   2.563   2.062
 2889TIP3    H1 8610   3.403   2.533   2.054
 2889TIP3    H2 8611   3.319   2.656   2.082
 2890TIP3   OH2 8612   8.251   4.955   5.848
 2890TIP3    H1 8613   8.255   4.926   5.756
 2890TIP3    H2 8614   8.230   4.876   5.897
 2891TIP3   OH2 8615   1.706   5.245   4.680
 2891TIP3    H1 8616   1.784   5.216   4.633
 2891TIP3    H2 8617   1.638   5.183   4.654
 2892TIP3   OH2 8618   6.557   0.358   3.055
 2892TIP3    H1 8619   6.563   0.308   2.973
 2892TIP3    H2 8620   6.502   0.304   3.112
 2893TIP3   OH2 8621   6.459   7.047   0.734
 2893TIP3    H1 8622   6.430   6.966   0.693
 2893TIP3    H2 8623   6.551   7.055   0.707
 2894TIP3   OH2 8624   3.966   6.109   3.517
 2894TIP3    H1 8625   3.964   6.024   3.472
 2894TIP3    H2 8626   4.011   6.167   3.456
 2895TIP3   OH2 8627   4.839   1.506   1.123
 2895TIP3    H1 8628   4.798   1.465   1.047
 2895TIP3    H2 8629   4.781   1.485   1.196
 2896TIP3   OH2 8630   8.103   3.786   4.140
 2896TIP3    H1 8631   8.167   3.831   4.196
 2896TIP3    H2 8632   8.080   3.850   4.073
 2897TIP3   OH2 8633   2.581   4.848   2.532
 2897TIP3    H1 8634   2.497   4.809   2.507
 2897TIP3    H2 8635   2.606   4.802   2.612
 2898TIP3   OH2 8636   7.066   4.335   4.762
 2898TIP3    H1 8637   7.080   4.395   4.835
 2898TIP3    H2 8638   7.032   4.255   4.802
 2899TIP3   OH2 8639   3.407   2.661   5.536
 2899TIP3    H1 8640   3.329   2.679   5.484
 2899TIP3    H2 8641   3.467   2.732   5.516
 2900TIP3   OH2 8642   3.082   0.012   5.938
 2900TIP3    H1 8643   2.992   0.029   5.963
 2900TIP3    H2 8644   3.078  -0.010   5.845
 2901TIP3   OH2 8645   0.616   0.112   2.879
 2901TIP3    H1 8646   0.639   0.033   2.831
 2901TIP3    H2 8647   0.601   0.178   2.810
 2902TIP3   OH2 8648   3.761   3.530   1.398
 2902TIP3    H1 8649   3.729   3.467   1.334
 2902TIP3    H2 8650   3.814   3.478   1.458
 2903TIP3   OH2 8651   4.009   3.463   4.204
 2903TIP3    H1 8652   4.046   3.496   4.286
 2903TIP3    H2 8653   3.957   3.537   4.170
 2904TIP3   OH2 8654   6.496   6.130   0.290
 2904TIP3    H1 8655   6.584   6.102   0.265
 2904TIP3    H2 8656   6.441   6.108   0.215
 2905TIP3   OH2 8657   7.907   7.167   1.352
 2905TIP3    H1 8658   7.859   7.099   1.305
 2905TIP3    H2 8659   7.899   7.245   1.297
 2906TIP3   OH2 8660   2.281   5.151   2.081
 2906TIP3    H1 8661   2.338   5.105   2.142
 2906TIP3    H2 8662   2.247   5.082   2.023
 2907TIP3   OH2 8663   0.364   6.903   5.017
 2907TIP3    H1 8664   0.387   6.838   5.083
 2907TIP3    H2 8665   0.446   6.950   5.000
 2908TIP3   OH2 8666   2.438   4.671   6.157
 2908TIP3    H1 8667   2.400   4.619   6.085
 2908TIP3    H2 8668   2.506   4.723   6.115
 2909TIP3   OH2 8669   0.567   5.365   0.691
 2909TIP3    H1 8670   0.653   5.393   0.660
 2909TIP3    H2 8671   0.507   5.396   0.624
 2910TIP3   OH2 8672  -0.003   7.730   0.998
 2910TIP3    H1 8673  -0.052   7.759   0.920
 2910TIP3    H2 8674  -0.031   7.640   1.012
 2911TIP3   OH2 8675   0.639   6.846   1.582
 2911TIP3    H1 8676   0.698   6.919   1.601
 2911TIP3    H2 8677   0.691   6.787   1.527
 2912TIP3   OH2 8678   7.033   4.044   6.434
 2912TIP3    H1 8679   6.995   4.046   6.346
 2912TIP3    H2 8680   7.104   4.108   6.430
 2913TIP3   OH2 8681   6.458   6.459   2.334
 2913TIP3    H1 8682   6.523   6.491   2.397
 2913TIP3    H2 8683   6.374   6.470   2.378
 2914TIP3   OH2 8684   3.831   5.586   4.897
 2914TIP3    H1 8685   3.797   5.627   4.818
 2914TIP3    H2 8686   3.763   5.524   4.923
 2915TIP3   OH2 8687   4.377   4.639   6.630
 2915TIP3    H1 8688   4.321   4.716   6.643
 2915TIP3    H2 8689   4.466   4.673   6.637
 2916TIP3   OH2 8690   1.469   1.675   6.385
 2916TIP3    H1 8691   1.522   1.595   6.391
 2916TIP3    H2 8692   1.498   1.717   6.305
 2917TIP3   OH2 8693   2.427   4.535   3.173
 2917TIP3    H1 8694   2.458   4.456   3.127
 2917TIP3    H2 8695   2.344   4.555   3.131
 2918TIP3   OH2 8696   0.958   5.857   2.831
 2918TIP3    H1 8697   0.956   5.942   2.788
 2918TIP3    H2 8698   0.989   5.875   2.920
 2919TIP3   OH2 8699   3.103   6.122   4.745
 2919TIP3    H1 8700   3.193   6.148   4.723
 2919TIP3    H2 8701   3.061   6.204   4.771
 2920TIP3   OH2 8702   6.060   3.635   3.554
 2920TIP3    H1 8703   6.062   3.602   3.644
 2920TIP3    H2 8704   6.071   3.557   3.500
 2921TIP3   OH2 8705   5.261   1.525   2.354
 2921TIP3    H1 8706   5.205   1.501   2.428
 2921TIP3    H2 8707   5.254   1.620   2.348
 2922TIP3   OH2 8708   1.455   0.516   1.720
 2922TIP3    H1 8709   1.475   0.423   1.717
 2922TIP3    H2 8710   1.393   0.525   1.793
 2923TIP3   OH2 8711   1.492   5.434   5.820
 2923TIP3    H1 8712   1.519   5.346   5.793
 2923TIP3    H2 8713   1.420   5.419   5.882
 2924TIP3   OH2 8714   6.196   3.101   6.483
 2924TIP3    H1 8715   6.113   3.058   6.503
 2924TIP3    H2 8716   6.186   3.133   6.394
 2925TIP3   OH2 8717   7.404   7.720   0.795
 2925TIP3    H1 8718   7.381   7.812   0.783
 2925TIP3    H2 8719   7.339   7.687   0.858
 2926TIP3   OH2 8720   1.425   1.761   0.992
 2926TIP3    H1 8721   1.353   1.749   1.053
 2926TIP3    H2 8722   1.382   1.790   0.911
 2927TIP3   OH2 8723   3.764   4.875   4.846
 2927TIP3    H1 8724   3.727   4.912   4.926
 2927TIP3    H2 8725   3.742   4.938   4.777
 2928TIP3   OH2 8726   5.697   5.962   3.172
 2928TIP3    H1 8727   5.628   5.966   3.239
 2928TIP3    H2 8728   5.724   6.053   3.161
 2929TIP3   OH2 8729   1.708   7.047   1.939
 2929TIP3    H1 8730   1.614   7.029   1.948
 2929TIP3    H2 8731   1.734   7.004   1.858
 2930TIP3   OH2 8732   0.658   1.906   0.416
 2930TIP3    H1 8733   0.608   1.824   0.418
 2930TIP3    H2 8734   0.708   1.901   0.335
 2931TIP3   OH2 8735   3.249   6.226   2.814
 2931TIP3    H1 8736   3.197   6.164   2.866
 2931TIP3    H2 8737   3.305   6.270   2.877
 2932TIP3   OH2 8738   4.838   4.879   3.604
 2932TIP3    H1 8739   4.755   4.835   3.624
 2932TIP3    H2 8740   4.878   4.825   3.536
 2933TIP3   OH2 8741   0.448   2.623   1.017
 2933TIP3    H1 8742   0.429   2.532   1.041
 2933TIP3    H2 8743   0.533   2.641   1.059
 2934TIP3   OH2 8744   1.357   5.477   0.502
 2934TIP3    H1 8745   1.340   5.428   0.421
 2934TIP3    H2 8746   1.431   5.534   0.480
 2935TIP3   OH2 8747   4.151   5.385   0.951
 2935TIP3    H1 8748   4.245   5.374   0.937
 2935TIP3    H2 8749   4.133   5.477   0.931
 2936TIP3   OH2 8750   2.411   6.288   2.649
 2936TIP3    H1 8751   2.391   6.306   2.741
 2936TIP3    H2 8752   2.505   6.308   2.642
 2937TIP3   OH2 8753   4.446   4.629   2.992
 2937TIP3    H1 8754   4.419   4.542   3.020
 2937TIP3    H2 8755   4.378   4.687   3.026
 2938TIP3   OH2 8756   7.557   2.094   1.820
 2938TIP3    H1 8757   7.495   2.166   1.809
 2938TIP3    H2 8758   7.527   2.047   1.898
 2939TIP3   OH2 8759   2.565   5.306   6.272
 2939TIP3    H1 8760   2.559   5.302   6.177
 2939TIP3    H2 8761   2.644   5.358   6.289
 2940TIP3   OH2 8762   7.194   3.149   3.438
 2940TIP3    H1 8763   7.200   3.072   3.494
 2940TIP3    H2 8764   7.256   3.133   3.367
 2941TIP3   OH2 8765   4.342   7.570   3.751
 2941TIP3    H1 8766   4.422   7.603   3.792
 2941TIP3    H2 8767   4.357   7.583   3.657
 2942TIP3   OH2 8768   4.762   7.220   0.787
 2942TIP3    H1 8769   4.810   7.264   0.718
 2942TIP3    H2 8770   4.707   7.156   0.741
 2943TIP3   OH2 8771   7.564   3.357   6.690
 2943TIP3    H1 8772   7.511   3.397   6.759
 2943TIP3    H2 8773   7.521   3.383   6.609
 2944TIP3   OH2 8774   3.190   0.751   2.525
 2944TIP3    H1 8775   3.156   0.695   2.595
 2944TIP3    H2 8776   3.265   0.703   2.490
 2945TIP3   OH2 8777   3.413   7.354   0.478
 2945TIP3    H1 8778   3.347   7.293   0.446
 2945TIP3    H2 8779   3.481   7.353   0.411
 2946TIP3   OH2 8780   3.579   7.536   2.832
 2946TIP3    H1 8781   3.499   7.508   2.878
 2946TIP3    H2 8782   3.555   7.619   2.791
 2947TIP3   OH2 8783   4.448   2.529   3.426
 2947TIP3    H1 8784   4.504   2.454   3.443
 2947TIP3    H2 8785   4.444   2.576   3.510
 2948TIP3   OH2 8786   3.727   5.497   5.765
 2948TIP3    H1 8787   3.819   5.493   5.739
 2948TIP3    H2 8788   3.726   5.461   5.854
 2949TIP3   OH2 8789   7.023   7.614   1.131
 2949TIP3    H1 8790   6.971   7.681   1.176
 2949TIP3    H2 8791   7.011   7.633   1.038
 2950TIP3   OH2 8792   7.364   5.344   3.697
 2950TIP3    H1 8793   7.372   5.319   3.605
 2950TIP3    H2 8794   7.314   5.272   3.737
 2951TIP3   OH2 8795   3.460   2.093   5.276
 2951TIP3    H1 8796   3.517   2.017   5.264
 2951TIP3    H2 8797   3.478   2.123   5.365
 2952TIP3   OH2 8798   6.736   1.171   0.098
 2952TIP3    H1 8799   6.752   1.098   0.157
 2952TIP3    H2 8800   6.678   1.230   0.147
 2953TIP3   OH2 8801   4.332   6.265   4.168
 2953TIP3    H1 8802   4.317   6.202   4.097
 2953TIP3    H2 8803   4.423   6.294   4.156
 2954TIP3   OH2 8804   4.202   4.271   2.769
 2954TIP3    H1 8805   4.256   4.263   2.690
 2954TIP3    H2 8806   4.243   4.212   2.832
 2955TIP3   OH2 8807   7.560   2.791   3.829
 2955TIP3    H1 8808   7.602   2.872   3.856
 2955TIP3    H2 8809   7.563   2.792   3.734
 2956TIP3   OH2 8810   5.224   6.241   4.573
 2956TIP3    H1 8811   5.283   6.316   4.579
 2956TIP3    H2 8812   5.165   6.250   4.647
 2957TIP3   OH2 8813   5.493   2.300   3.304
 2957TIP3    H1 8814   5.502   2.258   3.390
 2957TIP3    H2 8815   5.404   2.335   3.304
 2958TIP3   OH2 8816   4.311   6.823   3.043
 2958TIP3    H1 8817   4.219   6.851   3.045
 2958TIP3    H2 8818   4.316   6.752   3.107
 2959TIP3   OH2 8819   4.078   6.214   1.709
 2959TIP3    H1 8820   4.037   6.300   1.705
 2959TIP3    H2 8821   4.170   6.232   1.732
 2960TIP3   OH2 8822   6.233   3.719   1.239
 2960TIP3    H1 8823   6.230   3.655   1.169
 2960TIP3    H2 8824   6.163   3.781   1.218
 2961TIP3   OH2 8825   4.124   1.726   4.424
 2961TIP3    H1 8826   4.150   1.639   4.457
 2961TIP3    H2 8827   4.029   1.728   4.436
 2962TIP3   OH2 8828   2.883   5.401   5.079
 2962TIP3    H1 8829   2.946   5.472   5.089
 2962TIP3    H2 8830   2.933   5.331   5.036
 2963TIP3   OH2 8831   7.738   0.952   6.361
 2963TIP3    H1 8832   7.775   1.040   6.364
 2963TIP3    H2 8833   7.649   0.964   6.328
 2964TIP3   OH2 8834   6.095   6.578   4.856
 2964TIP3    H1 8835   6.047   6.495   4.867
 2964TIP3    H2 8836   6.187   6.553   4.862
 2965TIP3   OH2 8837   3.749   2.751   0.937
 2965TIP3    H1 8838   3.669   2.738   0.989
 2965TIP3    H2 8839   3.718   2.794   0.857
 2966TIP3   OH2 8840   2.660   6.335   2.584
 2966TIP3    H1 8841   2.659   6.430   2.572
 2966TIP3    H2 8842   2.713   6.321   2.663
 2967TIP3   OH2 8843   4.938   1.493   3.766
 2967TIP3    H1 8844   4.909   1.475   3.856
 2967TIP3    H2 8845   5.031   1.471   3.766
 2968TIP3   OH2 8846   0.575   4.171   4.895
 2968TIP3    H1 8847   0.523   4.091   4.883
 2968TIP3    H2 8848   0.666   4.142   4.884
 2969TIP3   OH2 8849   5.249   1.487   6.253
 2969TIP3    H1 8850   5.196   1.454   6.325
 2969TIP3    H2 8851   5.284   1.409   6.211
 2970TIP3   OH2 8852   3.530   0.731   3.642
 2970TIP3    H1 8853   3.595   0.780   3.691
 2970TIP3    H2 8854   3.530   0.770   3.554
 2971TIP3   OH2 8855   1.040   6.701   5.293
 2971TIP3    H1 8856   0.956   6.722   5.252
 2971TIP3    H2 8857   1.017   6.666   5.379
 2972TIP3   OH2 8858   2.596   3.249   3.897
 2972TIP3    H1 8859   2.651   3.218   3.825
 2972TIP3    H2 8860   2.631   3.204   3.974
 2973TIP3   OH2 8861   0.500   6.466   0.561
 2973TIP3    H1 8862   0.541   6.414   0.492
 2973TIP3    H2 8863   0.482   6.403   0.631
 2974TIP3   OH2 8864   1.108   3.784   6.222
 2974TIP3    H1 8865   1.158   3.819   6.295
 2974TIP3    H2 8866   1.049   3.855   6.197
 2975TIP3   OH2 8867   5.692   4.899   0.380
 2975TIP3    H1 8868   5.728   4.899   0.291
 2975TIP3    H2 8869   5.622   4.833   0.378
 2976TIP3   OH2 8870   6.775   6.394   2.222
 2976TIP3    H1 8871   6.824   6.344   2.157
 2976TIP3    H2 8872   6.701   6.338   2.244
 2977TIP3   OH2 8873   7.361   0.668   1.497
 2977TIP3    H1 8874   7.445   0.675   1.543
 2977TIP3    H2 8875   7.362   0.579   1.461
 2978TIP3   OH2 8876   3.581   2.200   3.191
 2978TIP3    H1 8877   3.641   2.274   3.193
 2978TIP3    H2 8878   3.639   2.123   3.184
 2979TIP3   OH2 8879   2.520   7.619   0.441
 2979TIP3    H1 8880   2.548   7.568   0.517
 2979TIP3    H2 8881   2.463   7.687   0.478
 2980TIP3   OH2 8882   1.969   7.521   1.399
 2980TIP3    H1 8883   2.013   7.486   1.321
 2980TIP3    H2 8884   2.032   7.584   1.434
 2981TIP3   OH2 8885   2.586   3.727   1.806
 2981TIP3    H1 8886   2.638   3.648   1.794
 2981TIP3    H2 8887   2.616   3.765   1.888
 2982TIP3   OH2 8888   1.400   6.727   0.986
 2982TIP3    H1 8889   1.451   6.747   1.064
 2982TIP3    H2 8890   1.441   6.647   0.951
 2983TIP3   OH2 8891   4.231   6.417   3.870
 2983TIP3    H1 8892   4.141   6.392   3.890
 2983TIP3    H2 8893   4.245   6.498   3.919
 2984TIP3   OH2 8894   0.845   1.738   0.791
 2984TIP3    H1 8895   0.762   1.748   0.838
 2984TIP3    H2 8896   0.866   1.826   0.761
 2985TIP3   OH2 8897   7.825   6.924   0.764
 2985TIP3    H1 8898   7.748   6.945   0.711
 2985TIP3    H2 8899   7.796   6.851   0.819
 2986TIP3   OH2 8900   1.739   1.341   0.739
 2986TIP3    H1 8901   1.817   1.343   0.683
 2986TIP3    H2 8902   1.753   1.412   0.803
 2987TIP3   OH2 8903   4.063   6.230   2.460
 2987TIP3    H1 8904   3.998   6.198   2.523
 2987TIP3    H2 8905   4.143   6.242   2.512
 2988TIP3   OH2 8906   7.782   2.058   5.111
 2988TIP3    H1 8907   7.860   2.018   5.149
 2988TIP3    H2 8908   7.814   2.131   5.059
 2989TIP3   OH2 8909   4.149   7.392   0.950
 2989TIP3    H1 8910   4.202   7.314   0.933
 2989TIP3    H2 8911   4.111   7.377   1.037
 2990TIP3   OH2 8912   2.375   6.578   2.249
 2990TIP3    H1 8913   2.384   6.673   2.247
 2990TIP3    H2 8914   2.465   6.545   2.250
 2991TIP3   OH2 8915   0.981   3.776   2.229
 2991TIP3    H1 8916   0.909   3.770   2.292
 2991TIP3    H2 8917   0.983   3.869   2.204
 2992TIP3   OH2 8918   0.091   6.525   1.058
 2992TIP3    H1 8919   0.015   6.471   1.081
 2992TIP3    H2 8920   0.053   6.607   1.026
 2993TIP3   OH2 8921   2.846   6.898   3.419
 2993TIP3    H1 8922   2.779   6.830   3.413
 2993TIP3    H2 8923   2.797   6.978   3.439
 2994TIP3   OH2 8924   1.766   7.355   3.245
 2994TIP3    H1 8925   1.796   7.404   3.168
 2994TIP3    H2 8926   1.674   7.336   3.227
 2995TIP3   OH2 8927   1.471   2.738   4.123
 2995TIP3    H1 8928   1.462   2.649   4.087
 2995TIP3    H2 8929   1.565   2.756   4.121
 2996TIP3   OH2 8930   5.499   1.512   2.139
 2996TIP3    H1 8931   5.442   1.518   2.061
 2996TIP3    H2 8932   5.477   1.428   2.178
 2997TIP3   OH2 8933   0.956   7.473   2.471
 2997TIP3    H1 8934   0.896   7.543   2.442
 2997TIP3    H2 8935   0.986   7.502   2.557
 2998TIP3   OH2 8936   4.420   2.515   1.419
 2998TIP3    H1 8937   4.483   2.569   1.467
 2998TIP3    H2 8938   4.458   2.506   1.332
 2999TIP3   OH2 8939   4.592   7.370   0.981
 2999TIP3    H1 8940   4.648   7.300   0.949
 2999TIP3    H2 8941   4.532   7.388   0.908
 3000TIP3   OH2 8942   0.838   1.610   3.617
 3000TIP3    H1 8943   0.918   1.559   3.630
 3000TIP3    H2 8944   0.848   1.685   3.676
 3001TIP3   OH2 8945   4.186   7.480   1.711
 3001TIP3    H1 8946   4.169   7.507   1.801
 3001TIP3    H2 8947   4.279   7.458   1.710
 3002TIP3   OH2 8948   7.831   4.058   2.301
 3002TIP3    H1 8949   7.914   4.023   2.267
 3002TIP3    H2 8950   7.764   4.009   2.254
 3003TIP3   OH2 8951   5.941   3.503   0.322
 3003TIP3    H1 8952   5.974   3.414   0.307
 3003TIP3    H2 8953   6.015   3.549   0.362
 3004TIP3   OH2 8954   7.070   7.451   2.770
 3004TIP3    H1 8955   7.078   7.380   2.706
 3004TIP3    H2 8956   7.159   7.467   2.800
 3005TIP3   OH2 8957   8.030   1.959   5.179
 3005TIP3    H1 8958   8.053   1.957   5.272
 3005TIP3    H2 8959   8.047   1.870   5.148
 3006TIP3   OH2 8960   2.739   6.431   3.818
 3006TIP3    H1 8961   2.815   6.412   3.763
 3006TIP3    H2 8962   2.680   6.480   3.761
 3007TIP3   OH2 8963   4.223   4.163   6.530
 3007TIP3    H1 8964   4.279   4.240   6.515
 3007TIP3    H2 8965   4.281   4.088   6.517
 3008TIP3   OH2 8966   2.998   2.864   1.255
 3008TIP3    H1 8967   3.071   2.805   1.270
 3008TIP3    H2 8968   2.923   2.821   1.297
 3009TIP3   OH2 8969   0.256   2.669   2.643
 3009TIP3    H1 8970   0.310   2.590   2.649
 3009TIP3    H2 8971   0.264   2.710   2.729
 3010TIP3   OH2 8972   7.871   6.755   0.114
 3010TIP3    H1 8973   7.870   6.767   0.019
 3010TIP3    H2 8974   7.964   6.748   0.136
 3011TIP3   OH2 8975   7.987   2.922   0.237
 3011TIP3    H1 8976   8.019   2.891   0.322
 3011TIP3    H2 8977   8.053   2.985   0.209
 3012TIP3   OH2 8978   5.170   7.280   1.612
 3012TIP3    H1 8979   5.118   7.310   1.537
 3012TIP3    H2 8980   5.122   7.203   1.645
 3013TIP3   OH2 8981   6.670   2.469   6.401
 3013TIP3    H1 8982   6.620   2.519   6.465
 3013TIP3    H2 8983   6.615   2.466   6.323
 3014TIP3   OH2 8984   2.799   2.886   3.822
 3014TIP3    H1 8985   2.795   2.874   3.727
 3014TIP3    H2 8986   2.723   2.942   3.842
 3015TIP3   OH2 8987   5.620   3.132   0.744
 3015TIP3    H1 8988   5.714   3.116   0.733
 3015TIP3    H2 8989   5.590   3.157   0.657
 3016TIP3   OH2 8990   3.409   4.967   2.475
 3016TIP3    H1 8991   3.344   4.991   2.540
 3016TIP3    H2 8992   3.486   5.019   2.497
 3017TIP3   OH2 8993   7.389   7.090   5.132
 3017TIP3    H1 8994   7.448   7.164   5.122
 3017TIP3    H2 8995   7.306   7.128   5.161
 3018TIP3   OH2 8996   1.303   0.527   3.171
 3018TIP3    H1 8997   1.250   0.451   3.194
 3018TIP3    H2 8998   1.366   0.493   3.107
 3019TIP3   OH2 8999   4.064   4.866   3.924
 3019TIP3    H1 9000   4.003   4.833   3.990
 3019TIP3    H2 9001   4.011   4.924   3.870
 3020TIP3   OH2 9002   7.999   4.361   4.948
 3020TIP3    H1 9003   7.985   4.267   4.936
 3020TIP3    H2 9004   8.092   4.367   4.972
 3021TIP3   OH2 9005   4.375   4.997   1.511
 3021TIP3    H1 9006   4.376   5.092   1.503
 3021TIP3    H2 9007   4.446   4.977   1.573
 3022TIP3   OH2 9008   0.256   4.798   2.849
 3022TIP3    H1 9009   0.340   4.768   2.886
 3022TIP3    H2 9010   0.192   4.776   2.917
 3023TIP3   OH2 9011   7.602   3.411   3.303
 3023TIP3    H1 9012   7.517   3.454   3.293
 3023TIP3    H2 9013   7.661   3.482   3.329
 3024TIP3   OH2 9014   6.944   1.259   5.712
 3024TIP3    H1 9015   6.991   1.214   5.642
 3024TIP3    H2 9016   6.985   1.345   5.717
 3025TIP3   OH2 9017   6.730   6.625   5.102
 3025TIP3    H1 9018   6.740   6.709   5.147
 3025TIP3    H2 9019   6.699   6.648   5.015
 3026TIP3   OH2 9020   6.817   7.346   3.440
 3026TIP3    H1 9021   6.804   7.441   3.441
 3026TIP3    H2 9022   6.728   7.310   3.438
 3027TIP3   OH2 9023   7.244   3.208   5.958
 3027TIP3    H1 9024   7.245   3.294   6.001
 3027TIP3    H2 9025   7.207   3.225   5.871
 3028TIP3   OH2 9026   4.854   2.885   1.613
 3028TIP3    H1 9027   4.901   2.965   1.594
 3028TIP3    H2 9028   4.775   2.914   1.659
 3029TIP3   OH2 9029   7.039   4.666   2.539
 3029TIP3    H1 9030   7.020   4.752   2.502
 3029TIP3    H2 9031   7.133   4.668   2.557
 3030TIP3   OH2 9032   5.909   7.253   1.157
 3030TIP3    H1 9033   5.977   7.316   1.178
 3030TIP3    H2 9034   5.909   7.192   1.230
 3031TIP3   OH2 9035   3.225   4.603   1.285
 3031TIP3    H1 9036   3.234   4.651   1.367
 3031TIP3    H2 9037   3.297   4.634   1.230
 3032TIP3   OH2 9038   5.365   2.016   2.510
 3032TIP3    H1 9039   5.366   1.929   2.549
 3032TIP3    H2 9040   5.276   2.026   2.475
 3033TIP3   OH2 9041   5.793   2.713   5.966
 3033TIP3    H1 9042   5.789   2.650   6.039
 3033TIP3    H2 9043   5.782   2.659   5.888
 3034TIP3   OH2 9044   0.400   7.508   3.215
 3034TIP3    H1 9045   0.308   7.493   3.194
 3034TIP3    H2 9046   0.447   7.487   3.135
 3035TIP3   OH2 9047   8.126   0.948   1.674
 3035TIP3    H1 9048   8.130   1.003   1.596
 3035TIP3    H2 9049   8.156   1.004   1.745
 3036TIP3   OH2 9050   4.318   3.814   3.720
 3036TIP3    H1 9051   4.317   3.892   3.665
 3036TIP3    H2 9052   4.396   3.823   3.774
 3037TIP3   OH2 9053   1.968   3.848   1.073
 3037TIP3    H1 9054   2.018   3.769   1.093
 3037TIP3    H2 9055   1.922   3.870   1.154
 3038TIP3   OH2 9056   0.796   0.268   4.114
 3038TIP3    H1 9057   0.700   0.273   4.110
 3038TIP3    H2 9058   0.823   0.356   4.141
 3039TIP3   OH2 9059   2.781   7.690   5.504
 3039TIP3    H1 9060   2.782   7.605   5.550
 3039TIP3    H2 9061   2.726   7.746   5.558
 3040TIP3   OH2 9062   4.452   1.231   5.939
 3040TIP3    H1 9063   4.542   1.217   5.967
 3040TIP3    H2 9064   4.401   1.170   5.993
 3041TIP3   OH2 9065   1.366   6.763   1.943
 3041TIP3    H1 9066   1.381   6.705   1.868
 3041TIP3    H2 9067   1.447   6.756   1.994
 3042TIP3   OH2 9068   1.364   7.255   2.432
 3042TIP3    H1 9069   1.363   7.279   2.525
 3042TIP3    H2 9070   1.282   7.291   2.398
 3043TIP3   OH2 9071   8.059   2.434   5.970
 3043TIP3    H1 9072   8.150   2.451   5.994
 3043TIP3    H2 9073   8.052   2.466   5.880
 3044TIP3   OH2 9074   2.260   7.393   1.518
 3044TIP3    H1 9075   2.208   7.376   1.597
 3044TIP3    H2 9076   2.297   7.308   1.495
 3045TIP3   OH2 9077   7.822   3.056   6.421
 3045TIP3    H1 9078   7.820   3.005   6.502
 3045TIP3    H2 9079   7.915   3.072   6.404
 3046TIP3   OH2 9080   0.700   0.216   5.038
 3046TIP3    H1 9081   0.792   0.190   5.035
 3046TIP3    H2 9082   0.674   0.201   5.129
 3047TIP3   OH2 9083   7.704   5.154   6.398
 3047TIP3    H1 9084   7.690   5.203   6.479
 3047TIP3    H2 9085   7.653   5.202   6.332
 3048TIP3   OH2 9086   3.556   7.511   5.823
 3048TIP3    H1 9087   3.606   7.475   5.751
 3048TIP3    H2 9088   3.573   7.605   5.820
 3049TIP3   OH2 9089   0.501   6.425   5.299
 3049TIP3    H1 9090   0.559   6.371   5.245
 3049TIP3    H2 9091   0.523   6.515   5.275
 3050TIP3   OH2 9092   4.194   6.745   2.148
 3050TIP3    H1 9093   4.203   6.652   2.169
 3050TIP3    H2 9094   4.280   6.770   2.114
 3051TIP3   OH2 9095   3.339   1.996   1.963
 3051TIP3    H1 9096   3.402   1.924   1.965
 3051TIP3    H2 9097   3.373   2.056   1.898
 3052TIP3   OH2 9098   8.013   6.775   3.201
 3052TIP3    H1 9099   8.072   6.851   3.201
 3052TIP3    H2 9100   7.938   6.803   3.148
 3053TIP3   OH2 9101   4.228   4.525   1.464
 3053TIP3    H1 9102   4.194   4.466   1.396
 3053TIP3    H2 9103   4.153   4.538   1.523
 3054TIP3   OH2 9104   7.621   7.444   2.553
 3054TIP3    H1 9105   7.684   7.500   2.508
 3054TIP3    H2 9106   7.535   7.475   2.523
 3055TIP3   OH2 9107   5.403   3.878   4.806
 3055TIP3    H1 9108   5.310   3.879   4.781
 3055TIP3    H2 9109   5.440   3.956   4.765
 3056TIP3   OH2 9110   3.488   0.983   1.905
 3056TIP3    H1 9111   3.473   1.061   1.853
 3056TIP3    H2 9112   3.568   1.002   1.953
 3057TIP3   OH2 9113   4.350   4.386   6.464
 3057TIP3    H1 9114   4.282   4.447   6.495
 3057TIP3    H2 9115   4.418   4.443   6.426
 3058TIP3   OH2 9116   6.463   1.893   6.729
 3058TIP3    H1 9117   6.481   1.952   6.802
 3058TIP3    H2 9118   6.549   1.874   6.691
 3059TIP3   OH2 9119   1.134   5.409   2.616
 3059TIP3    H1 9120   1.098   5.497   2.616
 3059TIP3    H2 9121   1.072   5.358   2.563
 3060TIP3   OH2 9122   1.061   5.083   4.257
 3060TIP3    H1 9123   1.025   5.161   4.300
 3060TIP3    H2 9124   0.991   5.018   4.265
 3061TIP3   OH2 9125   0.208   7.764   1.548
 3061TIP3    H1 9126   0.118   7.775   1.516
 3061TIP3    H2 9127   0.227   7.671   1.537
 3062TIP3   OH2 9128   4.342   4.480   5.827
 3062TIP3    H1 9129   4.317   4.424   5.754
 3062TIP3    H2 9130   4.271   4.544   5.834
 3063TIP3   OH2 9131   0.984   1.817   6.522
 3063TIP3    H1 9132   1.060   1.791   6.470
 3063TIP3    H2 9133   1.021   1.858   6.600
 3064TIP3   OH2 9134   2.902   2.908   5.893
 3064TIP3    H1 9135   2.985   2.907   5.942
 3064TIP3    H2 9136   2.854   2.832   5.926
 3065TIP3   OH2 9137   5.622   7.191   4.950
 3065TIP3    H1 9138   5.527   7.198   4.960
 3065TIP3    H2 9139   5.634   7.155   4.863
 3066TIP3   OH2 9140   5.226   2.364   3.214
 3066TIP3    H1 9141   5.189   2.280   3.241
 3066TIP3    H2 9142   5.166   2.395   3.145
 3067TIP3   OH2 9143   2.745   0.717   4.924
 3067TIP3    H1 9144   2.840   0.713   4.933
 3067TIP3    H2 9145   2.729   0.703   4.830
 3068TIP3   OH2 9146   5.264   2.107   3.908
 3068TIP3    H1 9147   5.308   2.191   3.923
 3068TIP3    H2 9148   5.301   2.048   3.973
 3069TIP3   OH2 9149   0.635   3.521   1.626
 3069TIP3    H1 9150   0.629   3.588   1.558
 3069TIP3    H2 9151   0.545   3.511   1.659
 3070TIP3   OH2 9152   0.733   0.359   0.706
 3070TIP3    H1 9153   0.818   0.319   0.686
 3070TIP3    H2 9154   0.744   0.398   0.793
 3071TIP3   OH2 9155   7.091   7.683   3.194
 3071TIP3    H1 9156   7.079   7.745   3.266
 3071TIP3    H2 9157   7.022   7.617   3.208
 3072TIP3   OH2 9158   1.414   3.404   4.371
 3072TIP3    H1 9159   1.434   3.338   4.437
 3072TIP3    H2 9160   1.497   3.451   4.358
 3073TIP3   OH2 9161   7.632   7.308   5.055
 3073TIP3    H1 9162   7.683   7.374   5.101
 3073TIP3    H2 9163   7.698   7.251   5.014
 3074TIP3   OH2 9164   3.638   6.688   3.519
 3074TIP3    H1 9165   3.609   6.752   3.584
 3074TIP3    H2 9166   3.622   6.731   3.435
 3075TIP3   OH2 9167   0.893   3.943   4.403
 3075TIP3    H1 9168   0.872   3.919   4.313
 3075TIP3    H2 9169   0.979   3.905   4.419
 3076TIP3   OH2 9170   4.023   4.173   3.469
 3076TIP3    H1 9171   4.012   4.093   3.521
 3076TIP3    H2 9172   4.049   4.141   3.382
 3077TIP3   OH2 9173   8.134   0.205   4.531
 3077TIP3    H1 9174   8.082   0.128   4.553
 3077TIP3    H2 9175   8.177   0.182   4.448
 3078TIP3   OH2 9176   7.295   0.151   3.762
 3078TIP3    H1 9177   7.217   0.163   3.708
 3078TIP3    H2 9178   7.281   0.206   3.839
 3079TIP3   OH2 9179   4.345   5.778   2.213
 3079TIP3    H1 9180   4.288   5.854   2.204
 3079TIP3    H2 9181   4.383   5.766   2.126
 3080TIP3   OH2 9182   0.037   2.704   4.378
 3080TIP3    H1 9183  -0.019   2.650   4.433
 3080TIP3    H2 9184  -0.023   2.753   4.323
 3081TIP3   OH2 9185   3.036   2.417   1.581
 3081TIP3    H1 9186   2.954   2.449   1.617
 3081TIP3    H2 9187   3.103   2.475   1.618
 3082TIP3   OH2 9188   2.368   0.976   1.915
 3082TIP3    H1 9189   2.386   0.911   1.984
 3082TIP3    H2 9190   2.341   1.054   1.962
 3083TIP3   OH2 9191   1.683   3.587   4.027
 3083TIP3    H1 9192   1.675   3.518   3.961
 3083TIP3    H2 9193   1.593   3.607   4.051
 3084TIP3   OH2 9194   1.846   2.173   2.359
 3084TIP3    H1 9195   1.830   2.267   2.359
 3084TIP3    H2 9196   1.862   2.151   2.450
 3085TIP3   OH2 9197   7.247   5.325   1.656
 3085TIP3    H1 9198   7.293   5.344   1.574
 3085TIP3    H2 9199   7.262   5.232   1.671
 3086TIP3   OH2 9200   2.978   6.659   6.091
 3086TIP3    H1 9201   3.021   6.729   6.140
 3086TIP3    H2 9202   2.923   6.615   6.156
 3087TIP3   OH2 9203   5.590   3.021   2.030
 3087TIP3    H1 9204   5.657   3.020   2.099
 3087TIP3    H2 9205   5.578   3.114   2.010
 3088TIP3   OH2 9206   4.037   0.013   4.688
 3088TIP3    H1 9207   3.964   0.071   4.664
 3088TIP3    H2 9208   4.064  -0.027   4.606
 3089TIP3   OH2 9209   0.405   4.675   1.442
 3089TIP3    H1 9210   0.338   4.607   1.442
 3089TIP3    H2 9211   0.472   4.643   1.502
 3090TIP3   OH2 9212   4.392   5.435   4.125
 3090TIP3    H1 9213   4.424   5.422   4.214
 3090TIP3    H2 9214   4.420   5.358   4.077
 3091TIP3   OH2 9215   7.572   7.396   2.270
 3091TIP3    H1 9216   7.504   7.457   2.242
 3091TIP3    H2 9217   7.650   7.451   2.283
 3092TIP3   OH2 9218   3.269   7.322   4.525
 3092TIP3    H1 9219   3.196   7.383   4.529
 3092TIP3    H2 9220   3.246   7.261   4.455
 3093TIP3   OH2 9221   4.850   0.773   6.691
 3093TIP3    H1 9222   4.869   0.784   6.598
 3093TIP3    H2 9223   4.920   0.717   6.723
 3094TIP3   OH2 9224   7.415   4.078   0.633
 3094TIP3    H1 9225   7.419   4.129   0.714
 3094TIP3    H2 9226   7.434   3.988   0.660
 3095TIP3   OH2 9227   3.477   3.934   5.498
 3095TIP3    H1 9228   3.430   3.953   5.579
 3095TIP3    H2 9229   3.547   3.874   5.525
 3096TIP3   OH2 9230   1.682   5.196   1.254
 3096TIP3    H1 9231   1.645   5.130   1.311
 3096TIP3    H2 9232   1.690   5.153   1.169
 3097TIP3   OH2 9233   8.020   5.423   4.920
 3097TIP3    H1 9234   8.094   5.440   4.979
 3097TIP3    H2 9235   7.952   5.388   4.977
 3098TIP3   OH2 9236   1.266   1.161   1.439
 3098TIP3    H1 9237   1.239   1.223   1.371
 3098TIP3    H2 9238   1.354   1.133   1.412
 3099TIP3   OH2 9239   6.387   1.690   0.664
 3099TIP3    H1 9240   6.413   1.750   0.594
 3099TIP3    H2 9241   6.414   1.604   0.633
 3100TIP3   OH2 9242   7.087   6.752   1.240
 3100TIP3    H1 9243   7.118   6.835   1.203
 3100TIP3    H2 9244   7.160   6.691   1.226
 3101TIP3   OH2 9245   1.042   1.713   0.529
 3101TIP3    H1 9246   0.992   1.636   0.555
 3101TIP3    H2 9247   1.131   1.681   0.516
 3102TIP3   OH2 9248   0.556   1.834   2.185
 3102TIP3    H1 9249   0.481   1.826   2.126
 3102TIP3    H2 9250   0.631   1.803   2.134
 3103TIP3   OH2 9251   6.952   4.123   1.895
 3103TIP3    H1 9252   7.034   4.075   1.903
 3103TIP3    H2 9253   6.884   4.056   1.901
 3104TIP3   OH2 9254   4.580   3.806   1.857
 3104TIP3    H1 9255   4.668   3.822   1.823
 3104TIP3    H2 9256   4.581   3.714   1.884
 3105TIP3   OH2 9257   6.963   3.021   5.534
 3105TIP3    H1 9258   6.916   2.999   5.615
 3105TIP3    H2 9259   6.945   3.114   5.521
 3106TIP3   OH2 9260   7.372   5.612   3.764
 3106TIP3    H1 9261   7.295   5.596   3.818
 3106TIP3    H2 9262   7.387   5.529   3.718
 3107TIP3   OH2 9263   7.285   1.658   6.591
 3107TIP3    H1 9264   7.209   1.709   6.563
 3107TIP3    H2 9265   7.318   1.705   6.669
 3108TIP3   OH2 9266   5.950   5.791   0.672
 3108TIP3    H1 9267   5.966   5.870   0.724
 3108TIP3    H2 9268   5.924   5.824   0.586
 3109TIP3   OH2 9269   5.489   4.699   4.784
 3109TIP3    H1 9270   5.401   4.663   4.784
 3109TIP3    H2 9271   5.526   4.672   4.700
 3110TIP3   OH2 9272   3.893   2.769   3.065
 3110TIP3    H1 9273   3.832   2.798   2.997
 3110TIP3    H2 9274   3.979   2.801   3.036
 3111TIP3   OH2 9275   0.009   2.359   1.233
 3111TIP3    H1 9276  -0.070   2.390   1.188
 3111TIP3    H2 9277   0.080   2.379   1.172
 3112TIP3   OH2 9278   3.575   7.288   4.415
 3112TIP3    H1 9279   3.564   7.355   4.481
 3112TIP3    H2 9280   3.641   7.324   4.355
 3113TIP3   OH2 9281   8.183   0.787   3.920
 3113TIP3    H1 9282   8.251   0.847   3.950
 3113TIP3    H2 9283   8.139   0.758   4.001
 3114TIP3   OH2 9284   4.025   6.967   4.626
 3114TIP3    H1 9285   3.980   7.023   4.563
 3114TIP3    H2 9286   3.964   6.895   4.642
 3115TIP3   OH2 9287   6.562   5.225   0.806
 3115TIP3    H1 9288   6.560   5.249   0.713
 3115TIP3    H2 9289   6.622   5.151   0.811
 3116TIP3   OH2 9290   7.361   7.537   2.184
 3116TIP3    H1 9291   7.317   7.460   2.148
 3116TIP3    H2 9292   7.324   7.611   2.136
 3117TIP3   OH2 9293   6.068   7.420   3.896
 3117TIP3    H1 9294   6.046   7.410   3.803
 3117TIP3    H2 9295   6.063   7.514   3.911
 3118TIP3   OH2 9296   5.771   4.846   3.383
 3118TIP3    H1 9297   5.680   4.819   3.368
 3118TIP3    H2 9298   5.766   4.901   3.461
 3119TIP3   OH2 9299   2.656   1.525   0.995
 3119TIP3    H1 9300   2.584   1.488   1.046
 3119TIP3    H2 9301   2.644   1.490   0.907
 3120TIP3   OH2 9302   4.074   2.972   6.366
 3120TIP3    H1 9303   4.002   2.981   6.304
 3120TIP3    H2 9304   4.141   2.922   6.319
 3121TIP3   OH2 9305   4.131   2.145   1.242
 3121TIP3    H1 9306   4.182   2.166   1.320
 3121TIP3    H2 9307   4.042   2.172   1.264
 3122TIP3   OH2 9308   8.168   2.813   0.474
 3122TIP3    H1 9309   8.233   2.844   0.411
 3122TIP3    H2 9310   8.149   2.723   0.448
 3123TIP3   OH2 9311   5.442   1.678   0.562
 3123TIP3    H1 9312   5.356   1.718   0.545
 3123TIP3    H2 9313   5.437   1.649   0.653
 3124TIP3   OH2 9314   4.241   0.756   1.455
 3124TIP3    H1 9315   4.316   0.801   1.416
 3124TIP3    H2 9316   4.274   0.722   1.538
 3125TIP3   OH2 9317   7.507   4.330   2.019
 3125TIP3    H1 9318   7.557   4.405   1.986
 3125TIP3    H2 9319   7.441   4.369   2.076
 3126TIP3   OH2 9320   1.916   5.063   5.111
 3126TIP3    H1 9321   1.926   4.981   5.064
 3126TIP3    H2 9322   1.871   5.121   5.050
 3127TIP3   OH2 9323   0.533   0.234   4.809
 3127TIP3    H1 9324   0.570   0.247   4.722
 3127TIP3    H2 9325   0.607   0.202   4.862
 3128TIP3   OH2 9326   3.176   7.530   3.924
 3128TIP3    H1 9327   3.270   7.512   3.921
 3128TIP3    H2 9328   3.151   7.513   4.015
 3129TIP3   OH2 9329   2.368   1.475   0.372
 3129TIP3    H1 9330   2.363   1.557   0.421
 3129TIP3    H2 9331   2.456   1.474   0.334
 3130TIP3   OH2 9332   3.686   7.208   5.212
 3130TIP3    H1 9333   3.597   7.194   5.245
 3130TIP3    H2 9334   3.689   7.300   5.189
 3131TIP3   OH2 9335   4.785   2.339   5.016
 3131TIP3    H1 9336   4.781   2.355   5.110
 3131TIP3    H2 9337   4.799   2.425   4.977
 3132TIP3   OH2 9338   3.098   5.615   2.543
 3132TIP3    H1 9339   3.006   5.608   2.518
 3132TIP3    H2 9340   3.098   5.676   2.617
 3133TIP3   OH2 9341   6.061   0.934   5.127
 3133TIP3    H1 9342   6.094   1.003   5.070
 3133TIP3    H2 9343   5.973   0.915   5.095
 3134TIP3   OH2 9344   7.492   2.294   2.186
 3134TIP3    H1 9345   7.580   2.258   2.175
 3134TIP3    H2 9346   7.435   2.217   2.181
 3135TIP3   OH2 9347   1.433   3.977   6.703
 3135TIP3    H1 9348   1.440   3.891   6.744
 3135TIP3    H2 9349   1.523   4.000   6.680
 3136TIP3   OH2 9350   0.563   1.026   1.782
 3136TIP3    H1 9351   0.527   1.109   1.751
 3136TIP3    H2 9352   0.487   0.973   1.804
 3137TIP3   OH2 9353   6.810   3.159   0.462
 3137TIP3    H1 9354   6.816   3.231   0.525
 3137TIP3    H2 9355   6.788   3.202   0.379
 3138TIP3   OH2 9356   5.429   5.706   3.215
 3138TIP3    H1 9357   5.422   5.718   3.309
 3138TIP3    H2 9358   5.503   5.646   3.203
 3139TIP3   OH2 9359   0.955   3.578   6.343
 3139TIP3    H1 9360   0.967   3.588   6.438
 3139TIP3    H2 9361   1.010   3.646   6.305
 3140TIP3   OH2 9362   8.177   3.214   0.403
 3140TIP3    H1 9363   8.198   3.178   0.317
 3140TIP3    H2 9364   8.165   3.307   0.388
 3141TIP3   OH2 9365   4.127   4.554   2.612
 3141TIP3    H1 9366   4.155   4.496   2.684
 3141TIP3    H2 9367   4.184   4.630   2.620
 3142TIP3   OH2 9368   2.591   0.217   2.360
 3142TIP3    H1 9369   2.548   0.175   2.285
 3142TIP3    H2 9370   2.588   0.150   2.429
 3143TIP3   OH2 9371   5.466   2.142   0.529
 3143TIP3    H1 9372   5.558   2.148   0.555
 3143TIP3    H2 9373   5.459   2.204   0.456
 3144TIP3   OH2 9374   7.947   5.256   2.497
 3144TIP3    H1 9375   7.905   5.173   2.474
 3144TIP3    H2 9376   7.888   5.297   2.560
 3145TIP3   OH2 9377   7.224   2.325   3.888
 3145TIP3    H1 9378   7.210   2.392   3.821
 3145TIP3    H2 9379   7.296   2.272   3.855
 3146TIP3   OH2 9380   1.473   6.509   1.806
 3146TIP3    H1 9381   1.441   6.435   1.755
 3146TIP3    H2 9382   1.480   6.581   1.743
 3147TIP3   OH2 9383   6.709   2.468   2.539
 3147TIP3    H1 9384   6.754   2.416   2.605
 3147TIP3    H2 9385   6.699   2.554   2.579
 3148TIP3   OH2 9386   4.732   5.795   5.136
 3148TIP3    H1 9387   4.683   5.782   5.218
 3148TIP3    H2 9388   4.747   5.707   5.103
 3149TIP3   OH2 9389   5.124   1.048   2.440
 3149TIP3    H1 9390   5.123   1.008   2.353
 3149TIP3    H2 9391   5.075   1.129   2.429
 3150TIP3   OH2 9392   7.648   6.105   2.935
 3150TIP3    H1 9393   7.732   6.061   2.945
 3150TIP3    H2 9394   7.599   6.049   2.875
 3151TIP3   OH2 9395   7.783   5.253   1.173
 3151TIP3    H1 9396   7.786   5.158   1.183
 3151TIP3    H2 9397   7.780   5.267   1.078
 3152TIP3   OH2 9398   8.097   3.509   2.993
 3152TIP3    H1 9399   8.100   3.580   2.929
 3152TIP3    H2 9400   8.014   3.522   3.040
 3153TIP3   OH2 9401   6.331   0.760   4.260
 3153TIP3    H1 9402   6.341   0.774   4.166
 3153TIP3    H2 9403   6.358   0.669   4.274
 3154TIP3   OH2 9404   2.822   5.656   2.547
 3154TIP3    H1 9405   2.783   5.725   2.492
 3154TIP3    H2 9406   2.767   5.655   2.625
 3155TIP3   OH2 9407   3.111   0.075   1.767
 3155TIP3    H1 9408   3.177   0.008   1.785
 3155TIP3    H2 9409   3.048   0.031   1.709
 3156TIP3   OH2 9410   4.606   7.219   2.948
 3156TIP3    H1 9411   4.530   7.204   2.892
 3156TIP3    H2 9412   4.680   7.226   2.887
 3157TIP3   OH2 9413   2.350   1.238   3.090
 3157TIP3    H1 9414   2.420   1.245   3.156
 3157TIP3    H2 9415   2.311   1.152   3.107
 3158TIP3   OH2 9416   3.054   4.428   6.580
 3158TIP3    H1 9417   2.971   4.473   6.566
 3158TIP3    H2 9418   3.035   4.336   6.559
 3159TIP3   OH2 9419   7.166   2.001   2.703
 3159TIP3    H1 9420   7.226   2.075   2.698
 3159TIP3    H2 9421   7.085   2.034   2.663
 3160TIP3   OH2 9422   6.204   1.598   6.364
 3160TIP3    H1 9423   6.148   1.672   6.387
 3160TIP3    H2 9424   6.294   1.631   6.374
 3161TIP3   OH2 9425   0.760   6.692   5.244
 3161TIP3    H1 9426   0.692   6.676   5.310
 3161TIP3    H2 9427   0.720   6.754   5.183
 3162TIP3   OH2 9428   4.397   2.022   2.657
 3162TIP3    H1 9429   4.450   2.043   2.580
 3162TIP3    H2 9430   4.315   1.987   2.620
 3163TIP3   OH2 9431   2.214   0.690   6.466
 3163TIP3    H1 9432   2.306   0.713   6.472
 3163TIP3    H2 9433   2.202   0.664   6.374
 3164TIP3   OH2 9434   7.076   1.376   2.005
 3164TIP3    H1 9435   6.994   1.420   2.026
 3164TIP3    H2 9436   7.129   1.443   1.962
 3165TIP3   OH2 9437   6.385   1.251   6.308
 3165TIP3    H1 9438   6.381   1.198   6.388
 3165TIP3    H2 9439   6.472   1.291   6.310
 3166TIP3   OH2 9440   4.198   5.499   1.406
 3166TIP3    H1 9441   4.196   5.504   1.502
 3166TIP3    H2 9442   4.107   5.485   1.381
 3167TIP3   OH2 9443   7.672   0.248   4.225
 3167TIP3    H1 9444   7.647   0.223   4.136
 3167TIP3    H2 9445   7.602   0.306   4.254
 3168TIP3   OH2 9446   0.924   1.241   4.906
 3168TIP3    H1 9447   0.892   1.183   4.837
 3168TIP3    H2 9448   0.868   1.318   4.900
 3169TIP3   OH2 9449   6.965   3.326   3.732
 3169TIP3    H1 9450   6.880   3.300   3.769
 3169TIP3    H2 9451   6.993   3.399   3.787
 3170TIP3   OH2 9452   7.018   0.139   6.309
 3170TIP3    H1 9453   7.058   0.212   6.261
 3170TIP3    H2 9454   6.990   0.178   6.392
 3171TIP3   OH2 9455   7.608   6.830   1.005
 3171TIP3    H1 9456   7.576   6.776   1.076
 3171TIP3    H2 9457   7.574   6.789   0.926
 3172TIP3   OH2 9458   5.580   7.039   3.201
 3172TIP3    H1 9459   5.621   7.028   3.287
 3172TIP3    H2 9460   5.493   7.003   3.212
 3173TIP3   OH2 9461   5.480   2.153   3.072
 3173TIP3    H1 9462   5.389   2.153   3.043
 3173TIP3    H2 9463   5.476   2.184   3.163
 3174TIP3   OH2 9464   4.606   1.098   2.099
 3174TIP3    H1 9465   4.657   1.171   2.134
 3174TIP3    H2 9466   4.583   1.046   2.176
 3175TIP3   OH2 9467   1.906   6.361   0.861
 3175TIP3    H1 9468   1.997   6.377   0.835
 3175TIP3    H2 9469   1.906   6.271   0.894
 3176TIP3   OH2 9470   4.565   0.787   2.980
 3176TIP3    H1 9471   4.488   0.756   3.028
 3176TIP3    H2 9472   4.595   0.710   2.932
 3177TIP3   OH2 9473   6.142   1.292   3.928
 3177TIP3    H1 9474   6.127   1.323   4.017
 3177TIP3    H2 9475   6.190   1.210   3.940
 3178TIP3   OH2 9476   3.300   3.975   0.549
 3178TIP3    H1 9477   3.389   3.941   0.536
 3178TIP3    H2 9478   3.310   4.045   0.613
 3179TIP3   OH2 9479   3.673   6.919   1.453
 3179TIP3    H1 9480   3.669   6.970   1.372
 3179TIP3    H2 9481   3.622   6.841   1.434
 3180TIP3   OH2 9482   5.237   7.614   5.765
 3180TIP3    H1 9483   5.261   7.637   5.854
 3180TIP3    H2 9484   5.261   7.690   5.713
 3181TIP3   OH2 9485   1.574   4.040   1.612
 3181TIP3    H1 9486   1.560   4.006   1.524
 3181TIP3    H2 9487   1.604   3.964   1.662
 3182TIP3   OH2 9488   6.949   3.305   6.070
 3182TIP3    H1 9489   6.994   3.350   5.999
 3182TIP3    H2 9490   6.915   3.225   6.029
 3183TIP3   OH2 9491   0.937   6.749   0.602
 3183TIP3    H1 9492   0.895   6.827   0.565
 3183TIP3    H2 9493   0.867   6.685   0.610
 3184TIP3   OH2 9494   1.011   4.494   6.798
 3184TIP3    H1 9495   1.089   4.535   6.760
 3184TIP3    H2 9496   0.938   4.539   6.757
 3185TIP3   OH2 9497   7.732   7.009   0.201
 3185TIP3    H1 9498   7.747   6.916   0.187
 3185TIP3    H2 9499   7.771   7.052   0.125
 3186TIP3   OH2 9500   6.257   6.076   4.942
 3186TIP3    H1 9501   6.331   6.066   4.881
 3186TIP3    H2 9502   6.212   5.992   4.939
 3187TIP3   OH2 9503   2.063   5.131   1.097
 3187TIP3    H1 9504   2.041   5.042   1.124
 3187TIP3    H2 9505   2.006   5.187   1.150
 3188TIP3   OH2 9506   1.652   0.810   6.560
 3188TIP3    H1 9507   1.563   0.779   6.547
 3188TIP3    H2 9508   1.643   0.891   6.610
 3189TIP3   OH2 9509   6.329   6.207   6.593
 3189TIP3    H1 9510   6.369   6.173   6.513
 3189TIP3    H2 9511   6.400   6.212   6.657
 3190TIP3   OH2 9512   1.801   4.602   3.263
 3190TIP3    H1 9513   1.896   4.587   3.253
 3190TIP3    H2 9514   1.761   4.527   3.218
 3191TIP3   OH2 9515   3.462   3.682   4.862
 3191TIP3    H1 9516   3.510   3.698   4.781
 3191TIP3    H2 9517   3.402   3.756   4.870
 3192TIP3   OH2 9518   1.240   5.176   0.109
 3192TIP3    H1 9519   1.296   5.224   0.169
 3192TIP3    H2 9520   1.167   5.235   0.092
 3193TIP3   OH2 9521   7.534   1.652   0.940
 3193TIP3    H1 9522   7.597   1.596   0.893
 3193TIP3    H2 9523   7.491   1.593   1.001
 3194TIP3   OH2 9524   7.464   5.004   5.041
 3194TIP3    H1 9525   7.543   5.032   5.088
 3194TIP3    H2 9526   7.476   5.038   4.953
 3195TIP3   OH2 9527   6.808   1.083   3.609
 3195TIP3    H1 9528   6.784   1.171   3.581
 3195TIP3    H2 9529   6.859   1.048   3.535
 3196TIP3   OH2 9530   5.377   2.120   4.399
 3196TIP3    H1 9531   5.465   2.124   4.360
 3196TIP3    H2 9532   5.387   2.165   4.483
 3197TIP3   OH2 9533   7.328   7.832   1.742
 3197TIP3    H1 9534   7.408   7.846   1.691
 3197TIP3    H2 9535   7.297   7.746   1.715
 3198TIP3   OH2 9536   6.353   6.588   2.571
 3198TIP3    H1 9537   6.292   6.633   2.630
 3198TIP3    H2 9538   6.405   6.658   2.533
 3199TIP3   OH2 9539   7.344   2.592   3.501
 3199TIP3    H1 9540   7.330   2.672   3.451
 3199TIP3    H2 9541   7.304   2.523   3.448
 3200TIP3   OH2 9542   3.976   4.860   5.108
 3200TIP3    H1 9543   3.900   4.880   5.054
 3200TIP3    H2 9544   4.001   4.944   5.146
 3201TIP3   OH2 9545   3.615   3.434   3.643
 3201TIP3    H1 9546   3.709   3.438   3.627
 3201TIP3    H2 9547   3.588   3.351   3.602
 3202TIP3   OH2 9548   4.144   4.628   4.274
 3202TIP3    H1 9549   4.211   4.573   4.314
 3202TIP3    H2 9550   4.161   4.716   4.309
 3203TIP3   OH2 9551   1.987   6.986   6.569
 3203TIP3    H1 9552   2.071   6.944   6.591
 3203TIP3    H2 9553   1.932   6.970   6.646
 3204TIP3   OH2 9554   4.340   1.236   5.151
 3204TIP3    H1 9555   4.261   1.242   5.205
 3204TIP3    H2 9556   4.406   1.284   5.201
 3205TIP3   OH2 9557   3.085   1.752   4.818
 3205TIP3    H1 9558   3.044   1.681   4.867
 3205TIP3    H2 9559   3.034   1.830   4.841
 3206TIP3   OH2 9560   2.882   7.521   2.364
 3206TIP3    H1 9561   2.975   7.503   2.377
 3206TIP3    H2 9562   2.875   7.550   2.273
 3207TIP3   OH2 9563   8.200   0.667   6.254
 3207TIP3    H1 9564   8.155   0.582   6.249
 3207TIP3    H2 9565   8.130   0.730   6.269
 3208TIP3   OH2 9566   2.436   5.026   6.472
 3208TIP3    H1 9567   2.508   5.069   6.517
 3208TIP3    H2 9568   2.473   4.996   6.389
 3209TIP3   OH2 9569   8.232   2.489   6.220
 3209TIP3    H1 9570   8.189   2.443   6.293
 3209TIP3    H2 9571   8.251   2.576   6.255
 3210TIP3   OH2 9572   7.858   0.766   2.705
 3210TIP3    H1 9573   7.840   0.686   2.753
 3210TIP3    H2 9574   7.943   0.795   2.738
 3211TIP3   OH2 9575   5.895   7.024   1.365
 3211TIP3    H1 9576   5.963   7.033   1.432
 3211TIP3    H2 9577   5.880   6.930   1.359
 3212TIP3   OH2 9578   0.844   0.730   1.141
 3212TIP3    H1 9579   0.786   0.670   1.093
 3212TIP3    H2 9580   0.863   0.684   1.222
 3213TIP3   OH2 9581   0.589   0.984   6.711
 3213TIP3    H1 9582   0.558   1.020   6.628
 3213TIP3    H2 9583   0.543   1.034   6.778
 3214TIP3   OH2 9584   1.794   0.168   0.040
 3214TIP3    H1 9585   1.821   0.172   0.132
 3214TIP3    H2 9586   1.701   0.145   0.044
 3215TIP3   OH2 9587   0.693   7.392   3.912
 3215TIP3    H1 9588   0.772   7.441   3.934
 3215TIP3    H2 9589   0.662   7.432   3.831
 3216TIP3   OH2 9590   0.773  -0.016   4.733
 3216TIP3    H1 9591   0.822  -0.049   4.658
 3216TIP3    H2 9592   0.836   0.037   4.782
 3217TIP3   OH2 9593   6.850   3.100   1.089
 3217TIP3    H1 9594   6.944   3.084   1.096
 3217TIP3    H2 9595   6.810   3.014   1.103
 3218TIP3   OH2 9596   4.239   0.768   0.916
 3218TIP3    H1 9597   4.319   0.804   0.878
 3218TIP3    H2 9598   4.268   0.690   0.963
 3219TIP3   OH2 9599   7.792   3.125   3.062
 3219TIP3    H1 9600   7.743   3.183   3.005
 3219TIP3    H2 9601   7.730   3.057   3.087
 3220TIP3   OH2 9602   2.045   7.632   2.118
 3220TIP3    H1 9603   2.131   7.591   2.113
 3220TIP3    H2 9604   1.991   7.583   2.056
 3221TIP3   OH2 9605   6.230   1.803   5.292
 3221TIP3    H1 9606   6.253   1.758   5.211
 3221TIP3    H2 9607   6.186   1.883   5.263
 3222TIP3   OH2 9608   5.687   1.725   3.052
 3222TIP3    H1 9609   5.767   1.702   3.006
 3222TIP3    H2 9610   5.636   1.775   2.988
 3223TIP3   OH2 9611   7.462   2.139   4.631
 3223TIP3    H1 9612   7.484   2.118   4.540
 3223TIP3    H2 9613   7.486   2.231   4.640
 3224TIP3   OH2 9614   0.904   5.635   1.760
 3224TIP3    H1 9615   0.928   5.560   1.706
 3224TIP3    H2 9616   0.893   5.599   1.848
 3225TIP3   OH2 9617   7.891   4.501   4.461
 3225TIP3    H1 9618   7.844   4.452   4.529
 3225TIP3    H2 9619   7.980   4.511   4.496
 3226TIP3   OH2 9620   3.584   2.389   4.429
 3226TIP3    H1 9621   3.660   2.424   4.475
 3226TIP3    H2 9622   3.617   2.312   4.382
 3227TIP3   OH2 9623   6.493   3.318   4.214
 3227TIP3    H1 9624   6.402   3.293   4.198
 3227TIP3    H2 9625   6.511   3.288   4.303
 3228TIP3   OH2 9626   4.258   2.772   6.298
 3228TIP3    H1 9627   4.228   2.782   6.208
 3228TIP3    H2 9628   4.199   2.707   6.336
 3229TIP3   OH2 9629   7.700   7.150   1.522
 3229TIP3    H1 9630   7.758   7.110   1.458
 3229TIP3    H2 9631   7.648   7.077   1.557
 3230TIP3   OH2 9632   1.003   5.328   1.945
 3230TIP3    H1 9633   1.009   5.284   1.861
 3230TIP3    H2 9634   0.916   5.368   1.946
 3231TIP3   OH2 9635   5.139   0.143   5.687
 3231TIP3    H1 9636   5.088   0.145   5.606
 3231TIP3    H2 9637   5.073   0.149   5.757
 3232TIP3   OH2 9638   1.053   4.385   1.161
 3232TIP3    H1 9639   1.108   4.431   1.224
 3232TIP3    H2 9640   1.079   4.420   1.076
 3233TIP3   OH2 9641   2.893   4.353   1.830
 3233TIP3    H1 9642   2.815   4.408   1.824
 3233TIP3    H2 9643   2.860   4.267   1.856
 3234TIP3   OH2 9644   3.510   2.651   1.089
 3234TIP3    H1 9645   3.535   2.654   1.182
 3234TIP3    H2 9646   3.479   2.739   1.070
 3235TIP3   OH2 9647   7.336   3.851   4.065
 3235TIP3    H1 9648   7.324   3.931   4.014
 3235TIP3    H2 9649   7.341   3.882   4.156
 3236TIP3   OH2 9650   0.710   5.272   3.261
 3236TIP3    H1 9651   0.795   5.251   3.220
 3236TIP3    H2 9652   0.657   5.305   3.189
 3237TIP3   OH2 9653   6.342   3.761   4.552
 3237TIP3    H1 9654   6.367   3.671   4.533
 3237TIP3    H2 9655   6.414   3.796   4.605
 3238TIP3   OH2 9656   1.624   5.333   2.654
 3238TIP3    H1 9657   1.590   5.420   2.675
 3238TIP3    H2 9658   1.712   5.349   2.621
 3239TIP3   OH2 9659   6.951   0.801   0.390
 3239TIP3    H1 9660   6.908   0.729   0.435
 3239TIP3    H2 9661   7.010   0.759   0.328
 3240TIP3   OH2 9662   3.627   7.060   0.460
 3240TIP3    H1 9663   3.591   7.108   0.535
 3240TIP3    H2 9664   3.667   6.982   0.498
 3241TIP3   OH2 9665   6.167   4.176   0.794
 3241TIP3    H1 9666   6.215   4.208   0.870
 3241TIP3    H2 9667   6.172   4.247   0.730
 3242TIP3   OH2 9668   3.303   3.942   5.712
 3242TIP3    H1 9669   3.241   4.012   5.736
 3242TIP3    H2 9670   3.364   3.939   5.786
 3243TIP3   OH2 9671   7.105   6.167   1.610
 3243TIP3    H1 9672   7.165   6.216   1.666
 3243TIP3    H2 9673   7.131   6.076   1.620
 3244TIP3   OH2 9674   1.875   7.141   5.198
 3244TIP3    H1 9675   1.822   7.094   5.133
 3244TIP3    H2 9676   1.930   7.200   5.146
 3245TIP3   OH2 9677   6.306   6.354   0.900
 3245TIP3    H1 9678   6.383   6.338   0.955
 3245TIP3    H2 9679   6.260   6.426   0.944
 3246TIP3   OH2 9680   8.030   6.294   0.598
 3246TIP3    H1 9681   7.968   6.221   0.603
 3246TIP3    H2 9682   8.106   6.265   0.648
 3247TIP3   OH2 9683   0.949   7.292   3.697
 3247TIP3    H1 9684   0.929   7.381   3.670
 3247TIP3    H2 9685   1.008   7.302   3.772
 3248TIP3   OH2 9686   2.746   7.153   5.486
 3248TIP3    H1 9687   2.787   7.202   5.414
 3248TIP3    H2 9688   2.657   7.187   5.491
 3249TIP3   OH2 9689   6.845   6.707   4.278
 3249TIP3    H1 9690   6.890   6.784   4.313
 3249TIP3    H2 9691   6.879   6.697   4.189
 3250TIP3   OH2 9692   1.893   2.114   4.745
 3250TIP3    H1 9693   1.833   2.160   4.803
 3250TIP3    H2 9694   1.846   2.105   4.662
 3251TIP3   OH2 9695   7.733   3.989   2.553
 3251TIP3    H1 9696   7.711   4.081   2.568
 3251TIP3    H2 9697   7.739   3.980   2.458
 3252TIP3   OH2 9698   5.241   6.385   5.359
 3252TIP3    H1 9699   5.224   6.474   5.329
 3252TIP3    H2 9700   5.288   6.343   5.287
 3253TIP3   OH2 9701   8.227   0.733   5.720
 3253TIP3    H1 9702   8.231   0.826   5.698
 3253TIP3    H2 9703   8.271   0.726   5.804
 3254TIP3   OH2 9704   7.932   2.897   3.272
 3254TIP3    H1 9705   7.844   2.881   3.238
 3254TIP3    H2 9706   7.918   2.945   3.354
 3255TIP3   OH2 9707   1.869   6.766   3.552
 3255TIP3    H1 9708   1.875   6.780   3.646
 3255TIP3    H2 9709   1.921   6.836   3.513
 3256TIP3   OH2 9710   4.040   6.264   0.751
 3256TIP3    H1 9711   4.019   6.251   0.659
 3256TIP3    H2 9712   3.956   6.258   0.796
 3257TIP3   OH2 9713   3.852   5.929   5.770
 3257TIP3    H1 9714   3.909   5.911   5.845
 3257TIP3    H2 9715   3.764   5.933   5.807
 3258TIP3   OH2 9716   6.931   7.703   4.799
 3258TIP3    H1 9717   7.018   7.678   4.767
 3258TIP3    H2 9718   6.873   7.689   4.725
 3259TIP3   OH2 9719   3.727   7.765   2.964
 3259TIP3    H1 9720   3.775   7.687   2.992
 3259TIP3    H2 9721   3.644   7.761   3.012
 3260TIP3   OH2 9722   7.438   0.674   3.206
 3260TIP3    H1 9723   7.378   0.629   3.265
 3260TIP3    H2 9724   7.447   0.762   3.243
 3261TIP3   OH2 9725   3.109   3.893   4.984
 3261TIP3    H1 9726   3.189   3.920   4.939
 3261TIP3    H2 9727   3.094   3.962   5.048
 3262TIP3   OH2 9728   7.494   4.089   5.088
 3262TIP3    H1 9729   7.584   4.061   5.102
 3262TIP3    H2 9730   7.466   4.042   5.009
 3263TIP3   OH2 9731   7.885   4.501   5.575
 3263TIP3    H1 9732   7.881   4.570   5.509
 3263TIP3    H2 9733   7.898   4.548   5.658
 3264TIP3   OH2 9734   3.362   4.978   3.708
 3264TIP3    H1 9735   3.287   4.947   3.759
 3264TIP3    H2 9736   3.355   5.073   3.710
 3265TIP3   OH2 9737   3.761   3.657   2.139
 3265TIP3    H1 9738   3.796   3.738   2.102
 3265TIP3    H2 9739   3.690   3.633   2.080
 3266TIP3   OH2 9740   0.069   6.085   5.243
 3266TIP3    H1 9741  -0.001   6.108   5.182
 3266TIP3    H2 9742   0.137   6.151   5.227
 3267TIP3   OH2 9743   6.318   5.631   4.949
 3267TIP3    H1 9744   6.375   5.699   4.984
 3267TIP3    H2 9745   6.378   5.559   4.926
 3268TIP3   OH2 9746   3.939   0.911  -0.017
 3268TIP3    H1 9747   3.974   0.994   0.016
 3268TIP3    H2 9748   4.007   0.847   0.004
 3269TIP3   OH2 9749   7.039   3.232   0.822
 3269TIP3    H1 9750   6.998   3.197   0.900
 3269TIP3    H2 9751   7.132   3.238   0.845
 3270TIP3   OH2 9752   7.084   4.025   1.018
 3270TIP3    H1 9753   7.094   3.930   1.008
 3270TIP3    H2 9754   7.131   4.045   1.099
 3271TIP3   OH2 9755   1.349   5.949   1.216
 3271TIP3    H1 9756   1.385   6.011   1.279
 3271TIP3    H2 9757   1.296   5.889   1.269
 3272TIP3   OH2 9758   4.312   4.763   0.190
 3272TIP3    H1 9759   4.360   4.771   0.108
 3272TIP3    H2 9760   4.305   4.853   0.223
 3273TIP3   OH2 9761   6.486   7.077   2.331
 3273TIP3    H1 9762   6.401   7.107   2.363
 3273TIP3    H2 9763   6.514   7.010   2.394
 3274TIP3   OH2 9764   8.186   4.492   2.438
 3274TIP3    H1 9765   8.224   4.577   2.458
 3274TIP3    H2 9766   8.226   4.432   2.500
 3275TIP3   OH2 9767   2.706   3.629   2.745
 3275TIP3    H1 9768   2.632   3.630   2.806
 3275TIP3    H2 9769   2.777   3.672   2.793
 3276TIP3   OH2 9770   3.908   1.526   0.073
 3276TIP3    H1 9771   3.913   1.569  -0.012
 3276TIP3    H2 9772   3.921   1.597   0.136
 3277TIP3   OH2 9773   2.848   4.049   0.691
 3277TIP3    H1 9774   2.811   4.095   0.616
 3277TIP3    H2 9775   2.776   3.995   0.724
 3278TIP3   OH2 9776   0.792   5.476   5.073
 3278TIP3    H1 9777   0.767   5.473   4.980
 3278TIP3    H2 9778   0.885   5.454   5.073
 3279TIP3   OH2 9779   1.655   1.066   4.213
 3279TIP3    H1 9780   1.672   0.985   4.262
 3279TIP3    H2 9781   1.571   1.050   4.170
 3280TIP3   OH2 9782   0.787   5.199   0.571
 3280TIP3    H1 9783   0.775   5.203   0.477
 3280TIP3    H2 9784   0.852   5.267   0.590
 3281TIP3   OH2 9785   5.921   1.260   0.494
 3281TIP3    H1 9786   5.979   1.189   0.520
 3281TIP3    H2 9787   5.886   1.233   0.409
 3282TIP3   OH2 9788   4.826   5.809   5.727
 3282TIP3    H1 9789   4.778   5.888   5.702
 3282TIP3    H2 9790   4.763   5.738   5.717
 3283TIP3   OH2 9791   8.156   0.625   4.907
 3283TIP3    H1 9792   8.067   0.610   4.938
 3283TIP3    H2 9793   8.146   0.670   4.824
 3284TIP3   OH2 9794   1.972   6.414   0.142
 3284TIP3    H1 9795   1.974   6.351   0.214
 3284TIP3    H2 9796   1.896   6.388   0.089
 3285TIP3   OH2 9797   0.412   0.057   3.197
 3285TIP3    H1 9798   0.381  -0.017   3.144
 3285TIP3    H2 9799   0.379   0.038   3.285
 3286TIP3   OH2 9800   1.528   3.637   4.938
 3286TIP3    H1 9801   1.488   3.692   5.005
 3286TIP3    H2 9802   1.490   3.550   4.953
 3287TIP3   OH2 9803   3.854   3.857   0.244
 3287TIP3    H1 9804   3.911   3.781   0.244
 3287TIP3    H2 9805   3.909   3.929   0.274
 3288TIP3   OH2 9806   0.580   2.667   6.678
 3288TIP3    H1 9807   0.498   2.717   6.676
 3288TIP3    H2 9808   0.553   2.577   6.698
 3289TIP3   OH2 9809   4.947   1.707   3.067
 3289TIP3    H1 9810   4.979   1.630   3.113
 3289TIP3    H2 9811   4.909   1.674   2.986
 3290TIP3   OH2 9812   3.131   4.949   3.079
 3290TIP3    H1 9813   3.210   4.907   3.047
 3290TIP3    H2 9814   3.110   4.901   3.160
 3291TIP3   OH2 9815   4.646   2.766   1.177
 3291TIP3    H1 9816   4.623   2.719   1.257
 3291TIP3    H2 9817   4.733   2.803   1.195
 3292TIP3   OH2 9818   4.975   0.093   4.994
 3292TIP3    H1 9819   4.897   0.044   4.967
 3292TIP3    H2 9820   5.018   0.116   4.912
 3293TIP3   OH2 9821   6.590   6.164   4.445
 3293TIP3    H1 9822   6.668   6.219   4.453
 3293TIP3    H2 9823   6.518   6.219   4.478
 3294TIP3   OH2 9824   6.384   1.644   4.856
 3294TIP3    H1 9825   6.330   1.670   4.781
 3294TIP3    H2 9826   6.461   1.700   4.851
 3295TIP3   OH2 9827   7.357   6.517   3.024
 3295TIP3    H1 9828   7.426   6.553   3.080
 3295TIP3    H2 9829   7.277   6.564   3.051
 3296TIP3   OH2 9830   4.419  -0.037   6.177
 3296TIP3    H1 9831   4.498   0.016   6.169
 3296TIP3    H2 9832   4.392  -0.054   6.086
 3297TIP3   OH2 9833   1.488  -0.007   3.428
 3297TIP3    H1 9834   1.413  -0.047   3.471
 3297TIP3    H2 9835   1.551   0.007   3.499
 3298TIP3   OH2 9836   5.723   0.429   4.288
 3298TIP3    H1 9837   5.687   0.421   4.376
 3298TIP3    H2 9838   5.802   0.482   4.299
 3299TIP3   OH2 9839   5.840   2.301   5.623
 3299TIP3    H1 9840   5.800   2.382   5.652
 3299TIP3    H2 9841   5.767   2.239   5.616
 3300TIP3   OH2 9842   7.727   1.062   0.212
 3300TIP3    H1 9843   7.816   1.093   0.197
 3300TIP3    H2 9844   7.687   1.061   0.125
 3301TIP3   OH2 9845   6.391   7.021   2.850
 3301TIP3    H1 9846   6.383   6.934   2.889
 3301TIP3    H2 9847   6.315   7.029   2.792
 3302TIP3   OH2 9848   1.236   0.366   0.624
 3302TIP3    H1 9849   1.303   0.358   0.556
 3302TIP3    H2 9850   1.280   0.410   0.696
 3303TIP3   OH2 9851   6.980   2.115   0.652
 3303TIP3    H1 9852   6.912   2.181   0.638
 3303TIP3    H2 9853   7.016   2.099   0.564
 3304TIP3   OH2 9854   2.181   4.041   1.690
 3304TIP3    H1 9855   2.106   3.999   1.731
 3304TIP3    H2 9856   2.257   3.992   1.720
 3305TIP3   OH2 9857   7.638   5.575   5.046
 3305TIP3    H1 9858   7.650   5.506   4.981
 3305TIP3    H2 9859   7.726   5.593   5.079
 3306TIP3   OH2 9860   6.740   2.992   6.082
 3306TIP3    H1 9861   6.719   3.035   6.165
 3306TIP3    H2 9862   6.823   2.947   6.099
 3307TIP3   OH2 9863   3.032   3.486   4.243
 3307TIP3    H1 9864   2.996   3.504   4.330
 3307TIP3    H2 9865   3.117   3.446   4.261
 3308TIP3   OH2 9866   1.706   7.537   5.411
 3308TIP3    H1 9867   1.736   7.482   5.483
 3308TIP3    H2 9868   1.716   7.482   5.333
 3309TIP3   OH2 9869   3.094   2.701   2.930
 3309TIP3    H1 9870   3.015   2.678   2.979
 3309TIP3    H2 9871   3.074   2.678   2.839
 3310TIP3   OH2 9872   1.873   4.646   5.032
 3310TIP3    H1 9873   1.820   4.691   5.097
 3310TIP3    H2 9874   1.959   4.635   5.073
 3311TIP3   OH2 9875   4.268   4.120   0.154
 3311TIP3    H1 9876   4.191   4.074   0.121
 3311TIP3    H2 9877   4.266   4.206   0.113
 3312TIP3   OH2 9878   2.153   1.516   1.989
 3312TIP3    H1 9879   2.225   1.457   1.968
 3312TIP3    H2 9880   2.078   1.480   1.942
 3313TIP3   OH2 9881   2.255   6.073   0.439
 3313TIP3    H1 9882   2.343   6.042   0.461
 3313TIP3    H2 9883   2.251   6.161   0.476
 3314TIP3   OH2 9884   3.507   4.842   5.604
 3314TIP3    H1 9885   3.528   4.751   5.623
 3314TIP3    H2 9886   3.414   4.850   5.622
 3315TIP3   OH2 9887   1.219   1.919   4.587
 3315TIP3    H1 9888   1.240   1.974   4.512
 3315TIP3    H2 9889   1.162   1.974   4.641
 3316TIP3   OH2 9890   4.849   2.938   3.831
 3316TIP3    H1 9891   4.794   2.884   3.774
 3316TIP3    H2 9892   4.794   2.955   3.907
 3317TIP3   OH2 9893   4.126   2.070   3.193
 3317TIP3    H1 9894   4.111   2.035   3.105
 3317TIP3    H2 9895   4.177   2.003   3.238
 3318TIP3   OH2 9896   7.112   4.686   3.421
 3318TIP3    H1 9897   7.146   4.718   3.505
 3318TIP3    H2 9898   7.098   4.765   3.370
 3319TIP3   OH2 9899   7.825   6.682   5.609
 3319TIP3    H1 9900   7.753   6.645   5.660
 3319TIP3    H2 9901   7.802   6.662   5.518
 3320TIP3   OH2 9902   8.189   1.871   3.825
 3320TIP3    H1 9903   8.173   1.964   3.814
 3320TIP3    H2 9904   8.262   1.865   3.887
 3321TIP3   OH2 9905   1.616   5.089   2.772
 3321TIP3    H1 9906   1.708   5.069   2.754
 3321TIP3    H2 9907   1.602   5.175   2.733
 3322TIP3   OH2 9908   6.991   2.795   2.739
 3322TIP3    H1 9909   6.978   2.795   2.834
 3322TIP3    H2 9910   7.002   2.888   2.717
 3323TIP3   OH2 9911   2.650   1.927   1.923
 3323TIP3    H1 9912   2.592   1.892   1.855
 3323TIP3    H2 9913   2.738   1.911   1.890
 3324TIP3   OH2 9914   1.601   7.035   5.674
 3324TIP3    H1 9915   1.644   6.995   5.749
 3324TIP3    H2 9916   1.663   7.026   5.602
 3325TIP3   OH2 9917   5.533   7.518   6.353
 3325TIP3    H1 9918   5.478   7.440   6.355
 3325TIP3    H2 9919   5.602   7.498   6.290
 3326TIP3   OH2 9920   2.510   5.221   3.196
 3326TIP3    H1 9921   2.439   5.156   3.190
 3326TIP3    H2 9922   2.496   5.262   3.282
 3327TIP3   OH2 9923   1.242   4.472   4.456
 3327TIP3    H1 9924   1.242   4.472   4.361
 3327TIP3    H2 9925   1.315   4.528   4.481
 3328TIP3   OH2 9926   5.562   4.761   4.075
 3328TIP3    H1 9927   5.553   4.774   4.169
 3328TIP3    H2 9928   5.654   4.780   4.056
 3329TIP3   OH2 9929   6.251   5.126   3.278
 3329TIP3    H1 9930   6.335   5.104   3.236
 3329TIP3    H2 9931   6.274   5.149   3.368
 3330TIP3   OH2 9932   2.494   1.223   3.341
 3330TIP3    H1 9933   2.562   1.168   3.377
 3330TIP3    H2 9934   2.526   1.313   3.352
 3331TIP3   OH2 9935   7.486   4.328   3.857
 3331TIP3    H1 9936   7.525   4.282   3.782
 3331TIP3    H2 9937   7.529   4.414   3.858
 3332TIP3   OH2 9938   4.740   3.779   4.720
 3332TIP3    H1 9939   4.830   3.787   4.752
 3332TIP3    H2 9940   4.750   3.760   4.626
 3333TIP3   OH2 9941   1.144   7.797   6.306
 3333TIP3    H1 9942   1.237   7.817   6.316
 3333TIP3    H2 9943   1.141   7.708   6.271
 3334TIP3   OH2 9944   1.891   1.595   0.574
 3334TIP3    H1 9945   1.797   1.579   0.561
 3334TIP3    H2 9946   1.930   1.507   0.579
 3335TIP3   OH2 9947   4.975   1.782   5.858
 3335TIP3    H1 9948   4.899   1.750   5.810
 3335TIP3    H2 9949   4.977   1.876   5.839
 3336TIP3   OH2 9950   4.843   6.881   0.493
 3336TIP3    H1 9951   4.803   6.806   0.450
 3336TIP3    H2 9952   4.901   6.844   0.559
 3337TIP3   OH2 9953   6.122   2.434   6.433
 3337TIP3    H1 9954   6.111   2.491   6.509
 3337TIP3    H2 9955   6.201   2.383   6.453
 3338TIP3   OH2 9956   6.641   6.486   3.020
 3338TIP3    H1 9957   6.693   6.546   2.966
 3338TIP3    H2 9958   6.686   6.402   3.012
 3339TIP3   OH2 9959   3.918   2.594   5.197
 3339TIP3    H1 9960   3.930   2.573   5.104
 3339TIP3    H2 9961   3.866   2.674   5.196
 3340TIP3   OH2 9962   2.150   4.745   1.273
 3340TIP3    H1 9963   2.191   4.792   1.346
 3340TIP3    H2 9964   2.221   4.693   1.236
 3341TIP3   OH2 9965   6.297   3.788   2.523
 3341TIP3    H1 9966   6.242   3.815   2.597
 3341TIP3    H2 9967   6.249   3.717   2.482
 3342TIP3   OH2 9968   4.069   0.400   4.906
 3342TIP3    H1 9969   4.024   0.316   4.893
 3342TIP3    H2 9970   4.020   0.461   4.851
 3343TIP3   OH2 9971   5.761   1.326   5.881
 3343TIP3    H1 9972   5.766   1.418   5.852
 3343TIP3    H2 9973   5.715   1.331   5.965
 3344TIP3   OH2 9974   4.056   1.424   2.715
 3344TIP3    H1 9975   4.057   1.328   2.720
 3344TIP3    H2 9976   4.076   1.444   2.624
 3345TIP3   OH2 9977   5.831   2.117   3.597
 3345TIP3    H1 9978   5.901   2.051   3.595
 3345TIP3    H2 9979   5.765   2.083   3.537
 3346TIP3   OH2 9980   7.078   3.496   2.914
 3346TIP3    H1 9981   7.090   3.477   3.007
 3346TIP3    H2 9982   7.006   3.439   2.886
 3347TIP3   OH2 9983   6.588   3.512   3.649
 3347TIP3    H1 9984   6.652   3.565   3.601
 3347TIP3    H2 9985   6.611   3.422   3.628
 3348TIP3   OH2 9986   7.189   4.156  -0.063
 3348TIP3    H1 9987   7.146   4.070  -0.060
 3348TIP3    H2 9988   7.262   4.148  -0.001
 3349TIP3   OH2 9989   4.830   3.275   3.689
 3349TIP3    H1 9990   4.804   3.329   3.615
 3349TIP3    H2 9991   4.769   3.200   3.687
 3350TIP3   OH2 9992   0.685   3.254   1.363
 3350TIP3    H1 9993   0.728   3.261   1.278
 3350TIP3    H2 9994   0.736   3.312   1.420
 3351TIP3   OH2 9995   3.812   6.689   5.411
 3351TIP3    H1 9996   3.889   6.703   5.467
 3351TIP3    H2 9997   3.849   6.659   5.328
 3352TIP3   OH2 9998   0.048   3.348   0.906
 3352TIP3    H1 9999   0.081   3.421   0.958
 3352TIP3    H210000  -0.007   3.388   0.840
 3353TIP3   OH210001   3.002   7.014   3.000
 3353TIP3    H110002   2.965   7.052   3.080
 3353TIP3    H210003   3.043   7.087   2.955
 3354TIP3   OH210004   1.125   7.411   6.428
 3354TIP3    H110005   1.074   7.477   6.475
 3354TIP3    H210006   1.060   7.347   6.399
 3355TIP3   OH210007   3.815   5.317   1.590
 3355TIP3    H110008   3.828   5.376   1.516
 3355TIP3    H210009   3.793   5.233   1.551
 3356TIP3   OH210010   2.191   2.664   5.625
 3356TIP3    H110011   2.124   2.599   5.642
 3356TIP3    H210012   2.249   2.623   5.561
 3357TIP3   OH210013   6.390   5.684   6.056
 3357TIP3    H110014   6.415   5.697   6.147
 3357TIP3    H210015   6.468   5.708   6.006
 3358TIP3   OH210016   1.519   0.614   5.893
 3358TIP3    H110017   1.552   0.537   5.941
 3358TIP3    H210018   1.539   0.595   5.802
 3359TIP3   OH210019   0.659   6.730   3.496
 3359TIP3    H110020   0.741   6.768   3.463
 3359TIP3    H210021   0.682   6.694   3.581
 3360TIP3   OH210022   4.262   6.663   5.683
 3360TIP3    H110023   4.356   6.658   5.666
 3360TIP3    H210024   4.236   6.573   5.703
 3361TIP3   OH210025   3.009   5.918   0.976
 3361TIP3    H110026   2.958   5.926   0.895
 3361TIP3    H210027   2.951   5.874   1.037
 3362TIP3   OH210028   7.108   0.706   2.645
 3362TIP3    H110029   7.019   0.727   2.673
 3362TIP3    H210030   7.163   0.769   2.692
 3363TIP3   OH210031   2.913   0.943   0.348
 3363TIP3    H110032   2.950   1.003   0.412
 3363TIP3    H210033   2.852   0.996   0.297
 3364TIP3   OH210034   3.145   2.784   4.810
 3364TIP3    H110035   3.179   2.870   4.786
 3364TIP3    H210036   3.162   2.730   4.733
 3365TIP3   OH210037   4.374   6.345   3.077
 3365TIP3    H110038   4.385   6.408   3.005
 3365TIP3    H210039   4.464   6.318   3.098
 3366TIP3   OH210040   5.850   7.771   0.763
 3366TIP3    H110041   5.837   7.825   0.686
 3366TIP3    H210042   5.763   7.763   0.802
 3367TIP3   OH210043   6.895   6.831   1.048
 3367TIP3    H110044   6.931   6.812   0.962
 3367TIP3    H210045   6.939   6.769   1.107
 3368TIP3   OH210046   2.526   0.949   5.084
 3368TIP3    H110047   2.520   0.855   5.100
 3368TIP3    H210048   2.505   0.960   4.991
 3369TIP3   OH210049   4.529   3.793   5.110
 3369TIP3    H110050   4.570   3.878   5.127
 3369TIP3    H210051   4.500   3.798   5.019
 3370TIP3   OH210052   6.869   1.826   4.826
 3370TIP3    H110053   6.922   1.758   4.784
 3370TIP3    H210054   6.879   1.902   4.769
 3371TIP3   OH210055   1.521   6.740   4.493
 3371TIP3    H110056   1.587   6.701   4.550
 3371TIP3    H210057   1.547   6.832   4.484
 3372TIP3   OH210058   2.479   3.035   1.898
 3372TIP3    H110059   2.412   3.038   1.829
 3372TIP3    H210060   2.512   2.945   1.895
 3373TIP3   OH210061   4.217   3.566   3.253
 3373TIP3    H110062   4.200   3.579   3.160
 3373TIP3    H210063   4.130   3.557   3.293
 3374TIP3   OH210064   6.327   0.136   3.958
 3374TIP3    H110065   6.347   0.214   4.010
 3374TIP3    H210066   6.376   0.066   4.000
 3375TIP3   OH210067   0.745   5.191   1.459
 3375TIP3    H110068   0.697   5.109   1.465
 3375TIP3    H210069   0.762   5.203   1.366
 3376TIP3   OH210070   2.358   5.671   2.818
 3376TIP3    H110071   2.412   5.650   2.742
 3376TIP3    H210072   2.306   5.593   2.834
 3377TIP3   OH210073   5.396   7.422   2.732
 3377TIP3    H110074   5.461   7.398   2.798
 3377TIP3    H210075   5.427   7.505   2.697
 3378TIP3   OH210076   6.397   3.194   5.825
 3378TIP3    H110077   6.312   3.221   5.860
 3378TIP3    H210078   6.418   3.262   5.760
 3379TIP3   OH210079   5.170   3.905   5.355
 3379TIP3    H110080   5.132   3.868   5.275
 3379TIP3    H210081   5.235   3.968   5.324
 3380TIP3   OH210082   7.856   0.929   3.217
 3380TIP3    H110083   7.839   0.991   3.146
 3380TIP3    H210084   7.786   0.865   3.210
 3381TIP3   OH210085   4.215   1.135   6.456
 3381TIP3    H110086   4.249   1.058   6.411
 3381TIP3    H210087   4.272   1.145   6.533
 3382TIP3   OH210088   2.496   3.045   5.671
 3382TIP3    H110089   2.423   3.107   5.669
 3382TIP3    H210090   2.574   3.100   5.673
 3383TIP3   OH210091   0.656   2.055   1.127
 3383TIP3    H110092   0.714   2.017   1.193
 3383TIP3    H210093   0.715   2.105   1.070
 3384TIP3   OH210094   2.449   0.444   0.589
 3384TIP3    H110095   2.530   0.408   0.554
 3384TIP3    H210096   2.382   0.379   0.570
 3385TIP3   OH210097   3.586   5.522   0.642
 3385TIP3    H110098   3.541   5.511   0.726
 3385TIP3    H210099   3.671   5.560   0.665
 3386TIP3   OH210100   7.998   4.382   6.042
 3386TIP3    H110101   7.905   4.359   6.052
 3386TIP3    H210102   8.002   4.434   5.961
 3387TIP3   OH210103   7.131   4.942   4.154
 3387TIP3    H110104   7.203   4.881   4.135
 3387TIP3    H210105   7.169   5.028   4.139
 3388TIP3   OH210106   5.134   0.221   1.365
 3388TIP3    H110107   5.056   0.274   1.384
 3388TIP3    H210108   5.101   0.131   1.362
 3389TIP3   OH210109   6.471   7.405   3.205
 3389TIP3    H110110   6.480   7.494   3.171
 3389TIP3    H210111   6.518   7.351   3.141
 3390TIP3   OH210112   3.472   6.903   4.358
 3390TIP3    H110113   3.477   6.861   4.272
 3390TIP3    H210114   3.412   6.977   4.345
 3391TIP3   OH210115   4.870   0.274   4.627
 3391TIP3    H110116   4.776   0.267   4.613
 3391TIP3    H210117   4.883   0.365   4.655
 3392TIP3   OH210118   2.686   4.429   2.395
 3392TIP3    H110119   2.718   4.407   2.482
 3392TIP3    H210120   2.595   4.400   2.395
 3393TIP3   OH210121   7.282   6.881   0.875
 3393TIP3    H110122   7.279   6.911   0.784
 3393TIP3    H210123   7.374   6.863   0.891
 3394TIP3   OH210124   1.712   7.623   4.724
 3394TIP3    H110125   1.778   7.633   4.656
 3394TIP3    H210126   1.647   7.691   4.704
 3395TIP3   OH210127   7.070   7.193   4.401
 3395TIP3    H110128   7.124   7.194   4.322
 3395TIP3    H210129   7.036   7.282   4.408
 3396TIP3   OH210130   7.227   4.247   6.416
 3396TIP3    H110131   7.310   4.264   6.460
 3396TIP3    H210132   7.234   4.293   6.332
 3397TIP3   OH210133   5.601   1.377   0.403
 3397TIP3    H110134   5.614   1.344   0.314
 3397TIP3    H210135   5.582   1.470   0.391
 3398TIP3   OH210136   0.321   3.737   1.932
 3398TIP3    H110137   0.411   3.766   1.947
 3398TIP3    H210138   0.329   3.671   1.862
 3399TIP3   OH210139   6.776   3.556   1.915
 3399TIP3    H110140   6.700   3.544   1.973
 3399TIP3    H210141   6.770   3.483   1.853
 3400TIP3   OH210142   2.613   0.046   1.198
 3400TIP3    H110143   2.624   0.005   1.112
 3400TIP3    H210144   2.523   0.026   1.223
 3401TIP3   OH210145   8.127   1.729   5.035
 3401TIP3    H110146   8.167   1.780   4.965
 3401TIP3    H210147   8.060   1.677   4.991
 3402TIP3   OH210148   5.258   2.744   2.693
 3402TIP3    H110149   5.260   2.755   2.598
 3402TIP3    H210150   5.169   2.714   2.712
 3403TIP3   OH210151   7.483   0.972   5.139
 3403TIP3    H110152   7.451   0.882   5.132
 3403TIP3    H210153   7.565   0.964   5.188
 3404TIP3   OH210154   5.492   2.829   6.432
 3404TIP3    H110155   5.407   2.797   6.400
 3404TIP3    H210156   5.551   2.755   6.422
 3405TIP3   OH210157   2.310   4.778   2.556
 3405TIP3    H110158   2.293   4.864   2.518
 3405TIP3    H210159   2.224   4.745   2.581
 3406TIP3   OH210160   2.533   1.196   3.902
 3406TIP3    H110161   2.505   1.135   3.970
 3406TIP3    H210162   2.588   1.259   3.948
 3407TIP3   OH210163   8.069   7.793   3.287
 3407TIP3    H110164   8.157   7.760   3.304
 3407TIP3    H210165   8.082   7.864   3.224
 3408TIP3   OH210166   5.184   3.794   0.314
 3408TIP3    H110167   5.210   3.858   0.247
 3408TIP3    H210168   5.115   3.838   0.363
 3409TIP3   OH210169   6.419   1.284   2.212
 3409TIP3    H110170   6.452   1.216   2.153
 3409TIP3    H210171   6.341   1.318   2.168
 3410TIP3   OH210172   5.475   3.053   0.955
 3410TIP3    H110173   5.518   3.074   0.873
 3410TIP3    H210174   5.478   3.134   1.006
 3411TIP3   OH210175   1.874   0.324   2.869
 3411TIP3    H110176   1.782   0.349   2.859
 3411TIP3    H210177   1.919   0.406   2.889
 3412TIP3   OH210178   4.659   6.483   6.115
 3412TIP3    H110179   4.575   6.443   6.140
 3412TIP3    H210180   4.635   6.568   6.078
 3413TIP3   OH210181   7.176   1.240   3.881
 3413TIP3    H110182   7.115   1.166   3.873
 3413TIP3    H210183   7.171   1.285   3.797
 3414TIP3   OH210184   7.343   6.396   2.258
 3414TIP3    H110185   7.251   6.420   2.242
 3414TIP3    H210186   7.338   6.324   2.321
 3415TIP3   OH210187   4.178   0.722   4.891
 3415TIP3    H110188   4.239   0.653   4.917
 3415TIP3    H210189   4.108   0.718   4.956
 3416TIP3   OH210190   6.326   2.202   0.371
 3416TIP3    H110191   6.407   2.206   0.422
 3416TIP3    H210192   6.356   2.204   0.280
 3417TIP3   OH210193   5.494   5.448   3.376
 3417TIP3    H110194   5.550   5.380   3.413
 3417TIP3    H210195   5.555   5.516   3.345
 3418TIP3   OH210196   5.323   2.030   3.643
 3418TIP3    H110197   5.278   1.946   3.634
 3418TIP3    H210198   5.314   2.052   3.736
 3419TIP3   OH210199   0.097   3.146   2.638
 3419TIP3    H110200   0.073   3.104   2.720
 3419TIP3    H210201   0.131   3.075   2.584
 3420TIP3   OH210202   6.073   2.872   0.945
 3420TIP3    H110203   6.142   2.805   0.947
 3420TIP3    H210204   6.006   2.838   1.005
 3421TIP3   OH210205   3.489   5.888   5.495
 3421TIP3    H110206   3.535   5.853   5.419
 3421TIP3    H210207   3.522   5.837   5.569
 3422TIP3   OH210208   8.214   0.218   5.532
 3422TIP3    H110209   8.300   0.240   5.496
 3422TIP3    H210210   8.152   0.264   5.475
 3423TIP3   OH210211   7.861   6.256   6.590
 3423TIP3    H110212   7.933   6.268   6.652
 3423TIP3    H210213   7.819   6.342   6.585
 3424TIP3   OH210214   6.748   5.251   3.632
 3424TIP3    H110215   6.773   5.180   3.691
 3424TIP3    H210216   6.678   5.297   3.680
 3425TIP3   OH210217   6.113   2.145   4.220
 3425TIP3    H110218   6.202   2.152   4.252
 3425TIP3    H210219   6.058   2.176   4.292
 3426TIP3   OH210220   7.888   6.548   3.285
 3426TIP3    H110221   7.925   6.475   3.235
 3426TIP3    H210222   7.914   6.626   3.237
 3427TIP3   OH210223   2.270   7.609   6.288
 3427TIP3    H110224   2.187   7.568   6.264
 3427TIP3    H210225   2.297   7.655   6.209
 3428TIP3   OH210226   6.863   3.808   3.056
 3428TIP3    H110227   6.879   3.738   3.118
 3428TIP3    H210228   6.767   3.811   3.048
 3429TIP3   OH210229   5.384   6.457   1.108
 3429TIP3    H110230   5.347   6.545   1.106
 3429TIP3    H210231   5.452   6.457   1.041
 3430TIP3   OH210232   3.645   3.825   4.633
 3430TIP3    H110233   3.666   3.911   4.669
 3430TIP3    H210234   3.566   3.839   4.580
 3431TIP3   OH210235   2.508   1.353   2.162
 3431TIP3    H110236   2.421   1.313   2.165
 3431TIP3    H210237   2.567   1.284   2.192
 3432TIP3   OH210238   1.646   2.467   1.164
 3432TIP3    H110239   1.563   2.482   1.209
 3432TIP3    H210240   1.701   2.542   1.188
 3433TIP3   OH210241   1.863   2.322   5.685
 3433TIP3    H110242   1.919   2.302   5.760
 3433TIP3    H210243   1.807   2.245   5.677
 3434TIP3   OH210244   4.655   5.236   0.114
 3434TIP3    H110245   4.632   5.215   0.024
 3434TIP3    H210246   4.581   5.287   0.147
 3435TIP3   OH210247   8.184   4.750   0.769
 3435TIP3    H110248   8.092   4.723   0.769
 3435TIP3    H210249   8.200   4.783   0.858
 3436TIP3   OH210250   0.063   4.536   0.329
 3436TIP3    H110251   0.038   4.628   0.341
 3436TIP3    H210252   0.146   4.540   0.281
 3437TIP3   OH210253   5.880   3.628   4.207
 3437TIP3    H110254   5.817   3.699   4.210
 3437TIP3    H210255   5.964   3.672   4.191
 3438TIP3   OH210256   1.811   3.496   0.520
 3438TIP3    H110257   1.862   3.478   0.441
 3438TIP3    H210258   1.813   3.591   0.529
 3439TIP3   OH210259   7.633   2.485   3.884
 3439TIP3    H110260   7.593   2.572   3.895
 3439TIP3    H210261   7.636   2.449   3.973
 3440TIP3   OH210262   5.120   0.470   3.417
 3440TIP3    H110263   5.066   0.444   3.492
 3440TIP3    H210264   5.091   0.559   3.396
 3441TIP3   OH210265   4.395   3.794   4.834
 3441TIP3    H110266   4.316   3.763   4.879
 3441TIP3    H210267   4.414   3.726   4.770
 3442TIP3   OH210268   7.182   0.440   3.735
 3442TIP3    H110269   7.107   0.499   3.736
 3442TIP3    H210270   7.159   0.371   3.798
 3443TIP3   OH210271   2.783   5.657   6.456
 3443TIP3    H110272   2.798   5.612   6.540
 3443TIP3    H210273   2.715   5.722   6.475
 3444TIP3   OH210274   5.682   2.920   1.256
 3444TIP3    H110275   5.630   2.903   1.334
 3444TIP3    H210276   5.629   2.980   1.204
 3445TIP3   OH210277   1.574   5.795   1.154
 3445TIP3    H110278   1.514   5.854   1.199
 3445TIP3    H210279   1.520   5.750   1.088
 3446TIP3   OH210280   0.551   5.687   0.314
 3446TIP3    H110281   0.629   5.704   0.261
 3446TIP3    H210282   0.478   5.710   0.258
 3447TIP3   OH210283   5.601   6.800   0.417
 3447TIP3    H110284   5.571   6.872   0.473
 3447TIP3    H210285   5.622   6.730   0.479
 3448TIP3   OH210286   1.597   3.191   0.693
 3448TIP3    H110287   1.590   3.196   0.788
 3448TIP3    H210288   1.684   3.155   0.677
 3449TIP3   OH210289   4.213   1.939   2.244
 3449TIP3    H110290   4.153   1.913   2.174
 3449TIP3    H210291   4.266   1.862   2.261
 3450TIP3   OH210292   8.202   4.573   5.301
 3450TIP3    H110293   8.142   4.629   5.252
 3450TIP3    H210294   8.181   4.484   5.273
 3451TIP3   OH210295   0.199   3.524   4.012
 3451TIP3    H110296   0.152   3.543   3.931
 3451TIP3    H210297   0.141   3.555   4.082
 3452TIP3   OH210298   6.701   2.653   4.860
 3452TIP3    H110299   6.745   2.730   4.895
 3452TIP3    H210300   6.643   2.624   4.931
 3453TIP3   OH210301   4.380   0.927   4.829
 3453TIP3    H110302   4.390   0.854   4.768
 3453TIP3    H210303   4.314   0.897   4.892
 3454TIP3   OH210304   1.970   6.689   5.801
 3454TIP3    H110305   1.932   6.602   5.788
 3454TIP3    H210306   1.897   6.742   5.834
 3455TIP3   OH210307   6.080   7.032   0.331
 3455TIP3    H110308   6.069   7.058   0.423
 3455TIP3    H210309   6.017   6.961   0.319
 3456TIP3   OH210310   1.280   0.446   4.523
 3456TIP3    H110311   1.241   0.445   4.610
 3456TIP3    H210312   1.361   0.396   4.532
 3457TIP3   OH210313   1.242   0.348   3.816
 3457TIP3    H110314   1.248   0.290   3.740
 3457TIP3    H210315   1.198   0.426   3.784
 3458TIP3   OH210316   6.620   1.392   6.242
 3458TIP3    H110317   6.677   1.465   6.217
 3458TIP3    H210318   6.669   1.314   6.215
 3459TIP3   OH210319   2.370   2.064   3.305
 3459TIP3    H110320   2.373   2.064   3.209
 3459TIP3    H210321   2.300   2.002   3.326
 3460TIP3   OH210322   6.026   6.038   4.706
 3460TIP3    H110323   6.049   5.987   4.783
 3460TIP3    H210324   6.103   6.092   4.689
 3461TIP3   OH210325   3.870   6.118   0.381
 3461TIP3    H110326   3.909   6.148   0.299
 3461TIP3    H210327   3.776   6.110   0.362
 3462TIP3   OH210328   7.115   6.690   6.068
 3462TIP3    H110329   7.100   6.608   6.022
 3462TIP3    H210330   7.044   6.695   6.132
 3463TIP3   OH210331   4.561   3.416   5.928
 3463TIP3    H110332   4.609   3.482   5.879
 3463TIP3    H210333   4.579   3.334   5.883
 3464TIP3   OH210334   2.831   6.839   2.872
 3464TIP3    H110335   2.838   6.759   2.924
 3464TIP3    H210336   2.892   6.900   2.914
 3465TIP3   OH210337   5.802   5.150   6.557
 3465TIP3    H110338   5.793   5.129   6.464
 3465TIP3    H210339   5.713   5.171   6.585
 3466TIP3   OH210340   6.693   6.526   2.474
 3466TIP3    H110341   6.748   6.472   2.417
 3466TIP3    H210342   6.742   6.529   2.557
 3467TIP3   OH210343   1.090   2.716   3.541
 3467TIP3    H110344   1.108   2.767   3.620
 3467TIP3    H210345   1.157   2.745   3.478
 3468TIP3   OH210346   3.660   3.509   6.438
 3468TIP3    H110347   3.681   3.594   6.477
 3468TIP3    H210348   3.573   3.489   6.472
 3469TIP3   OH210349   7.437   5.619   6.586
 3469TIP3    H110350   7.443   5.613   6.682
 3469TIP3    H210351   7.526   5.635   6.557
 3470TIP3   OH210352   6.571   2.270   3.911
 3470TIP3    H110353   6.495   2.224   3.875
 3470TIP3    H210354   6.641   2.205   3.908
 3471TIP3   OH210355   1.518   6.805   4.991
 3471TIP3    H110356   1.519   6.836   4.901
 3471TIP3    H210357   1.576   6.729   4.991
 3472TIP3   OH210358   7.591   5.819   5.645
 3472TIP3    H110359   7.616   5.775   5.726
 3472TIP3    H210360   7.496   5.821   5.646
 3473TIP3   OH210361   0.738   4.086   4.614
 3473TIP3    H110362   0.765   4.006   4.569
 3473TIP3    H210363   0.781   4.081   4.700
 3474TIP3   OH210364   4.283   6.907   0.231
 3474TIP3    H110365   4.253   6.904   0.140
 3474TIP3    H210366   4.346   6.835   0.237
 3475TIP3   OH210367   0.916   0.475   1.332
 3475TIP3    H110368   0.911   0.382   1.354
 3475TIP3    H210369   0.998   0.483   1.283
 3476TIP3   OH210370   5.212   3.420   3.569
 3476TIP3    H110371   5.160   3.457   3.498
 3476TIP3    H210372   5.158   3.431   3.647
 3477TIP3   OH210373   6.449   2.003   3.954
 3477TIP3    H110374   6.502   2.051   4.019
 3477TIP3    H210375   6.514   1.968   3.893
 3478TIP3   OH210376   4.728   6.447   4.625
 3478TIP3    H110377   4.819   6.435   4.597
 3478TIP3    H210378   4.689   6.501   4.556
 3479TIP3   OH210379   5.736   5.208   0.307
 3479TIP3    H110380   5.743   5.134   0.247
 3479TIP3    H210381   5.794   5.274   0.270
 3480TIP3   OH210382   7.661   0.643   0.336
 3480TIP3    H110383   7.691   0.553   0.321
 3480TIP3    H210384   7.618   0.641   0.421
 3481TIP3   OH210385   7.815   0.545   2.178
 3481TIP3    H110386   7.758   0.618   2.199
 3481TIP3    H210387   7.838   0.507   2.263
 3482TIP3   OH210388   2.462   2.976   3.821
 3482TIP3    H110389   2.516   3.038   3.870
 3482TIP3    H210390   2.376   2.982   3.863
 3483TIP3   OH210391   4.059   2.531   3.568
 3483TIP3    H110392   4.045   2.451   3.518
 3483TIP3    H210393   3.981   2.584   3.551
 3484TIP3   OH210394   5.059   4.496   6.200
 3484TIP3    H110395   4.973   4.466   6.230
 3484TIP3    H210396   5.078   4.444   6.123
 3485TIP3   OH210397   0.693   4.210   2.685
 3485TIP3    H110398   0.715   4.238   2.596
 3485TIP3    H210399   0.775   4.217   2.734
 3486TIP3   OH210400   5.177   6.850   2.002
 3486TIP3    H110401   5.111   6.785   1.977
 3486TIP3    H210402   5.151   6.877   2.091
 3487TIP3   OH210403   2.776   7.375   4.457
 3487TIP3    H110404   2.799   7.285   4.480
 3487TIP3    H210405   2.684   7.383   4.479
 3488TIP3   OH210406   4.741   2.210   6.247
 3488TIP3    H110407   4.827   2.238   6.277
 3488TIP3    H210408   4.685   2.287   6.259
 3489TIP3   OH210409   2.930   3.598   4.819
 3489TIP3    H110410   3.013   3.630   4.783
 3489TIP3    H210411   2.875   3.676   4.826
 3490TIP3   OH210412   7.033   2.596   2.210
 3490TIP3    H110413   7.126   2.617   2.209
 3490TIP3    H210414   7.030   2.500   2.212
 3491TIP3   OH210415   4.455   1.744   1.500
 3491TIP3    H110416   4.470   1.835   1.476
 3491TIP3    H210417   4.461   1.696   1.417
 3492TIP3   OH210418   6.559   5.783   5.001
 3492TIP3    H110419   6.522   5.768   4.914
 3492TIP3    H210420   6.624   5.851   4.987
 3493TIP3   OH210421   2.464   3.667   0.251
 3493TIP3    H110422   2.409   3.589   0.263
 3493TIP3    H210423   2.548   3.643   0.290
 3494TIP3   OH210424   0.668   4.173   4.336
 3494TIP3    H110425   0.616   4.112   4.284
 3494TIP3    H210426   0.663   4.139   4.426
 3495TIP3   OH210427   2.552   2.325   2.935
 3495TIP3    H110428   2.503   2.322   3.017
 3495TIP3    H210429   2.494   2.285   2.871
 3496TIP3   OH210430   6.980   4.234   2.247
 3496TIP3    H110431   6.909   4.169   2.249
 3496TIP3    H210432   6.950   4.304   2.304
 3497TIP3   OH210433   0.364   5.226   2.710
 3497TIP3    H110434   0.308   5.197   2.638
 3497TIP3    H210435   0.341   5.317   2.724
 3498TIP3   OH210436   7.174   2.673   0.800
 3498TIP3    H110437   7.146   2.590   0.839
 3498TIP3    H210438   7.101   2.698   0.744
 3499TIP3   OH210439   2.638   5.365   1.399
 3499TIP3    H110440   2.646   5.406   1.486
 3499TIP3    H210441   2.658   5.273   1.414
 3500TIP3   OH210442   1.958   2.304   2.633
 3500TIP3    H110443   1.982   2.369   2.566
 3500TIP3    H210444   2.028   2.309   2.698
 3501TIP3   OH210445   5.228   4.312   5.274
 3501TIP3    H110446   5.278   4.231   5.271
 3501TIP3    H210447   5.210   4.333   5.183
 3502TIP3   OH210448   5.617   6.541   5.832
 3502TIP3    H110449   5.686   6.573   5.774
 3502TIP3    H210450   5.648   6.563   5.920
 3503TIP3   OH210451   4.263   4.204   5.097
 3503TIP3    H110452   4.347   4.225   5.056
 3503TIP3    H210453   4.264   4.108   5.105
 3504TIP3   OH210454   3.089   6.584   2.412
 3504TIP3    H110455   3.036   6.623   2.482
 3504TIP3    H210456   3.044   6.502   2.392
 3505TIP3   OH210457   4.244   7.294   5.435
 3505TIP3    H110458   4.308   7.341   5.489
 3505TIP3    H210459   4.206   7.361   5.379
 3506TIP3   OH210460   4.139   2.149   0.548
 3506TIP3    H110461   4.134   2.125   0.641
 3506TIP3    H210462   4.222   2.112   0.518
 3507TIP3   OH210463   5.260   2.880   5.097
 3507TIP3    H110464   5.309   2.953   5.134
 3507TIP3    H210465   5.244   2.906   5.006
 3508TIP3   OH210466   7.885   7.752   4.565
 3508TIP3    H110467   7.849   7.818   4.505
 3508TIP3    H210468   7.825   7.678   4.559
 3509TIP3   OH210469   1.736   2.267   0.871
 3509TIP3    H110470   1.813   2.262   0.927
 3509TIP3    H210471   1.737   2.357   0.837
 3510TIP3   OH210472   4.772   7.789   3.664
 3510TIP3    H110473   4.857   7.814   3.701
 3510TIP3    H210474   4.717   7.867   3.674
 3511TIP3   OH210475   2.131   5.017   4.433
 3511TIP3    H110476   2.180   5.084   4.482
 3511TIP3    H210477   2.198   4.954   4.405
 3512TIP3   OH210478   3.876   4.601   2.539
 3512TIP3    H110479   3.969   4.613   2.558
 3512TIP3    H210480   3.869   4.510   2.510
 3513TIP3   OH210481   5.908   6.867   6.671
 3513TIP3    H110482   5.931   6.785   6.626
 3513TIP3    H210483   5.830   6.899   6.624
 3514TIP3   OH210484   5.830   3.583   4.742
 3514TIP3    H110485   5.860   3.657   4.796
 3514TIP3    H210486   5.753   3.617   4.697
 3515TIP3   OH210487   1.557   2.368   5.041
 3515TIP3    H110488   1.520   2.366   5.129
 3515TIP3    H210489   1.482   2.347   4.984
 3516TIP3   OH210490   6.838   5.125   5.257
 3516TIP3    H110491   6.878   5.049   5.298
 3516TIP3    H210492   6.776   5.088   5.194
 3517TIP3   OH210493   2.963   3.797   2.924
 3517TIP3    H110494   2.977   3.841   2.840
 3517TIP3    H210495   3.046   3.753   2.941
 3518TIP3   OH210496   3.396   4.928   3.029
 3518TIP3    H110497   3.425   4.839   3.009
 3518TIP3    H210498   3.432   4.982   2.958
 3519TIP3   OH210499   4.687   0.197   5.161
 3519TIP3    H110500   4.674   0.182   5.067
 3519TIP3    H210501   4.651   0.285   5.175
 3520TIP3   OH210502   4.889   5.614   1.364
 3520TIP3    H110503   4.967   5.612   1.309
 3520TIP3    H210504   4.826   5.666   1.314
 3521TIP3   OH210505   6.648   3.204   3.089
 3521TIP3    H110506   6.553   3.196   3.100
 3521TIP3    H210507   6.677   3.254   3.165
 3522TIP3   OH210508   5.965   5.587   6.005
 3522TIP3    H110509   6.010   5.513   5.966
 3522TIP3    H210510   5.919   5.629   5.932
 3523TIP3   OH210511   1.141   5.995   0.582
 3523TIP3    H110512   1.117   6.010   0.674
 3523TIP3    H210513   1.157   5.901   0.577
 3524TIP3   OH210514   0.529   6.473   6.356
 3524TIP3    H110515   0.618   6.479   6.321
 3524TIP3    H210516   0.541   6.471   6.451
 3525TIP3   OH210517   1.606   7.085   4.224
 3525TIP3    H110518   1.591   6.992   4.207
 3525TIP3    H210519   1.632   7.090   4.316
 3526TIP3   OH210520   4.184   3.245   2.672
 3526TIP3    H110521   4.231   3.163   2.691
 3526TIP3    H210522   4.113   3.246   2.736
 3527TIP3   OH210523   4.592   7.081   6.165
 3527TIP3    H110524   4.590   7.176   6.157
 3527TIP3    H210525   4.583   7.049   6.075
 3528TIP3   OH210526   5.366   3.475   2.719
 3528TIP3    H110527   5.431   3.456   2.787
 3528TIP3    H210528   5.417   3.484   2.639
 3529TIP3   OH210529   3.405   0.447   6.483
 3529TIP3    H110530   3.433   0.526   6.436
 3529TIP3    H210531   3.421   0.469   6.575
 3530TIP3   OH210532   1.257   0.892   2.985
 3530TIP3    H110533   1.260   0.862   3.076
 3530TIP3    H210534   1.200   0.969   2.987
 3531TIP3   OH210535   6.553   4.961   2.165
 3531TIP3    H110536   6.462   4.990   2.171
 3531TIP3    H210537   6.564   4.934   2.074
 3532TIP3   OH210538   1.216   6.668   6.731
 3532TIP3    H110539   1.295   6.665   6.677
 3532TIP3    H210540   1.159   6.601   6.693
 3533TIP3   OH210541   3.576   2.561   3.391
 3533TIP3    H110542   3.580   2.645   3.346
 3533TIP3    H210543   3.492   2.562   3.438
 3534TIP3   OH210544   5.133   3.805   0.954
 3534TIP3    H110545   5.083   3.793   1.034
 3534TIP3    H210546   5.166   3.717   0.933
 3535TIP3   OH210547   2.007   5.481   5.805
 3535TIP3    H110548   1.980   5.400   5.762
 3535TIP3    H210549   2.066   5.523   5.743
 3536TIP3   OH210550   4.581   3.463   6.633
 3536TIP3    H110551   4.528   3.448   6.555
 3536TIP3    H210552   4.620   3.378   6.653
 3537TIP3   OH210553   0.476   5.056   2.900
 3537TIP3    H110554   0.452   5.119   2.833
 3537TIP3    H210555   0.412   5.069   2.970
 3538TIP3   OH210556   3.938   1.332   2.206
 3538TIP3    H110557   3.973   1.291   2.126
 3538TIP3    H210558   3.848   1.355   2.184
 3539TIP3   OH210559   3.742   6.702   2.839
 3539TIP3    H110560   3.827   6.744   2.846
 3539TIP3    H210561   3.679   6.772   2.854
 3540TIP3   OH210562   3.380   3.462   3.361
 3540TIP3    H110563   3.325   3.537   3.385
 3540TIP3    H210564   3.458   3.502   3.322
 3541TIP3   OH210565   0.599   1.207   2.242
 3541TIP3    H110566   0.671   1.154   2.208
 3541TIP3    H210567   0.532   1.143   2.266
 3542TIP3   OH210568   0.837   3.093   0.246
 3542TIP3    H110569   0.872   3.154   0.182
 3542TIP3    H210570   0.887   3.012   0.232
 3543TIP3   OH210571   0.383   6.660   3.816
 3543TIP3    H110572   0.449   6.635   3.752
 3543TIP3    H210573   0.417   6.742   3.854
 3544TIP3   OH210574   4.764   4.645   4.437
 3544TIP3    H110575   4.700   4.615   4.502
 3544TIP3    H210576   4.716   4.642   4.354
 3545TIP3   OH210577   6.643   2.021   2.770
 3545TIP3    H110578   6.583   2.096   2.772
 3545TIP3    H210579   6.586   1.946   2.787
 3546TIP3   OH210580   4.909   5.214   0.907
 3546TIP3    H110581   4.970   5.149   0.942
 3546TIP3    H210582   4.966   5.282   0.871
 3547TIP3   OH210583   5.398   2.465   5.314
 3547TIP3    H110584   5.423   2.470   5.222
 3547TIP3    H210585   5.453   2.396   5.351
 3548TIP3   OH210586   4.529   7.704   6.149
 3548TIP3    H110587   4.447   7.655   6.145
 3548TIP3    H210588   4.532   7.739   6.238
 3549TIP3   OH210589   1.381   7.436   6.334
 3549TIP3    H110590   1.384   7.484   6.251
 3549TIP3    H210591   1.288   7.431   6.356
 3550TIP3   OH210592   2.430   5.482   3.661
 3550TIP3    H110593   2.445   5.389   3.645
 3550TIP3    H210594   2.516   5.522   3.655
 3551TIP3   OH210595   0.989   7.044   3.543
 3551TIP3    H110596   0.915   7.016   3.489
 3551TIP3    H210597   0.978   7.139   3.551
 3552TIP3   OH210598   0.362   4.871   4.712
 3552TIP3    H110599   0.423   4.851   4.641
 3552TIP3    H210600   0.361   4.967   4.716
 3553TIP3   OH210601   3.282   3.209   2.636
 3553TIP3    H110602   3.251   3.189   2.548
 3553TIP3    H210603   3.276   3.126   2.683
 3554TIP3   OH210604   4.321   3.882   6.518
 3554TIP3    H110605   4.322   3.830   6.438
 3554TIP3    H210606   4.326   3.817   6.588
 3555TIP3   OH210607   0.410   5.015   5.242
 3555TIP3    H110608   0.378   4.945   5.299
 3555TIP3    H210609   0.380   4.990   5.154
 3556TIP3   OH210610   6.069   1.145   6.548
 3556TIP3    H110611   6.118   1.113   6.473
 3556TIP3    H210612   6.117   1.223   6.577
 3557TIP3   OH210613   0.945   3.291   2.924
 3557TIP3    H110614   0.966   3.198   2.921
 3557TIP3    H210615   0.949   3.320   2.832
 3558TIP3   OH210616   8.165   2.972   4.688
 3558TIP3    H110617   8.125   2.901   4.638
 3558TIP3    H210618   8.090   3.023   4.721
 3559TIP3   OH210619   8.259   6.996   1.142
 3559TIP3    H110620   8.285   6.906   1.123
 3559TIP3    H210621   8.229   6.994   1.233
 3560TIP3   OH210622   4.959   5.359   5.257
 3560TIP3    H110623   5.028   5.352   5.322
 3560TIP3    H210624   4.910   5.437   5.282
 3561TIP3   OH210625   3.177   7.253   0.853
 3561TIP3    H110626   3.101   7.218   0.808
 3561TIP3    H210627   3.230   7.292   0.784
 3562TIP3   OH210628   4.114   5.836   4.005
 3562TIP3    H110629   4.141   5.756   4.050
 3562TIP3    H210630   4.074   5.806   3.924
 3563TIP3   OH210631   3.329   0.226   2.947
 3563TIP3    H110632   3.351   0.259   3.035
 3563TIP3    H210633   3.357   0.134   2.948
 3564TIP3   OH210634   0.837   0.874   1.611
 3564TIP3    H110635   0.890   0.797   1.590
 3564TIP3    H210636   0.775   0.882   1.539
 3565TIP3   OH210637   8.011   4.886   6.309
 3565TIP3    H110638   7.987   4.924   6.393
 3565TIP3    H210639   7.929   4.854   6.272
 3566TIP3   OH210640   5.269   0.375   5.700
 3566TIP3    H110641   5.362   0.357   5.691
 3566TIP3    H210642   5.227   0.290   5.688
 3567TIP3   OH210643   3.934   1.958   5.780
 3567TIP3    H110644   3.993   2.022   5.820
 3567TIP3    H210645   3.957   1.875   5.821
 3568TIP3   OH210646   3.375   3.387   1.691
 3568TIP3    H110647   3.365   3.305   1.740
 3568TIP3    H210648   3.380   3.359   1.599
 3569TIP3   OH210649   4.106   3.357   5.157
 3569TIP3    H110650   4.129   3.284   5.098
 3569TIP3    H210651   4.085   3.429   5.097
 3570TIP3   OH210652   0.212   6.077   1.842
 3570TIP3    H110653   0.275   6.124   1.897
 3570TIP3    H210654   0.212   6.125   1.759
 3571TIP3   OH210655   0.842   5.688   4.350
 3571TIP3    H110656   0.893   5.760   4.387
 3571TIP3    H210657   0.905   5.615   4.345
 3572TIP3   OH210658   1.781   5.351   3.772
 3572TIP3    H110659   1.709   5.412   3.757
 3572TIP3    H210660   1.754   5.300   3.848
 3573TIP3   OH210661   0.133   1.337   3.172
 3573TIP3    H110662   0.097   1.290   3.247
 3573TIP3    H210663   0.057   1.380   3.132
 3574TIP3   OH210664   0.367   2.252   5.851
 3574TIP3    H110665   0.276   2.239   5.875
 3574TIP3    H210666   0.367   2.331   5.797
 3575TIP3   OH210667   6.138   5.275   4.583
 3575TIP3    H110668   6.065   5.283   4.645
 3575TIP3    H210669   6.124   5.191   4.541
 3576TIP3   OH210670   1.784   2.418   1.413
 3576TIP3    H110671   1.714   2.405   1.477
 3576TIP3    H210672   1.794   2.332   1.371
 3577TIP3   OH210673   7.667   3.473   1.377
 3577TIP3    H110674   7.705   3.392   1.341
 3577TIP3    H210675   7.577   3.448   1.401
 3578TIP3   OH210676   1.446   5.107   1.813
 3578TIP3    H110677   1.419   5.146   1.730
 3578TIP3    H210678   1.507   5.171   1.850
 3579TIP3   OH210679   1.534   3.035   5.730
 3579TIP3    H110680   1.594   2.961   5.721
 3579TIP3    H210681   1.578   3.093   5.792
 3580TIP3   OH210682   0.183   2.004   2.853
 3580TIP3    H110683   0.200   1.974   2.942
 3580TIP3    H210684   0.186   1.925   2.799
 3581TIP3   OH210685   0.646   3.499   0.863
 3581TIP3    H110686   0.575   3.441   0.889
 3581TIP3    H210687   0.608   3.553   0.793
 3582TIP3   OH210688   5.819   2.716   5.558
 3582TIP3    H110689   5.755   2.749   5.494
 3582TIP3    H210690   5.829   2.788   5.621
 3583TIP3   OH210691   3.974   5.757   2.562
 3583TIP3    H110692   4.009   5.668   2.574
 3583TIP3    H210693   3.893   5.757   2.612
 3584TIP3   OH210694   6.905   1.132   5.949
 3584TIP3    H110695   6.918   1.158   5.858
 3584TIP3    H210696   6.951   1.199   6.000
 3585TIP3   OH210697   6.827   3.640   3.560
 3585TIP3    H110698   6.814   3.699   3.634
 3585TIP3    H210699   6.867   3.694   3.493
 3586TIP3   OH210700   3.314   1.223   2.791
 3586TIP3    H110701   3.317   1.170   2.711
 3586TIP3    H210702   3.234   1.195   2.836
 3587TIP3   OH210703   5.101   4.726   0.977
 3587TIP3    H110704   5.123   4.634   0.961
 3587TIP3    H210705   5.065   4.727   1.066
 3588TIP3   OH210706   7.485   7.518   5.190
 3588TIP3    H110707   7.447   7.436   5.157
 3588TIP3    H210708   7.434   7.537   5.269
 3589TIP3   OH210709   0.229   2.527   6.383
 3589TIP3    H110710   0.233   2.514   6.288
 3589TIP3    H210711   0.225   2.622   6.395
 3590TIP3   OH210712   2.509   7.063   3.220
 3590TIP3    H110713   2.578   7.100   3.274
 3590TIP3    H210714   2.518   7.107   3.135
 3591TIP3   OH210715   3.234   7.617  -0.006
 3591TIP3    H110716   3.194   7.543  -0.052
 3591TIP3    H210717   3.305   7.577   0.045
 3592TIP3   OH210718   0.260   0.185   6.359
 3592TIP3    H110719   0.239   0.193   6.266
 3592TIP3    H210720   0.263   0.090   6.374
 3593TIP3   OH210721   5.206   6.865   6.175
 3593TIP3    H110722   5.233   6.776   6.152
 3593TIP3    H210723   5.188   6.860   6.269
 3594TIP3   OH210724   7.027   4.553   1.113
 3594TIP3    H110725   7.089   4.512   1.173
 3594TIP3    H210726   7.055   4.524   1.026
 3595TIP3   OH210727   2.483   7.500   2.285
 3595TIP3    H110728   2.545   7.560   2.326
 3595TIP3    H210729   2.441   7.454   2.357
 3596TIP3   OH210730   4.548   0.780   1.916
 3596TIP3    H110731   4.514   0.846   1.977
 3596TIP3    H210732   4.554   0.700   1.969
 3597TIP3   OH210733   6.514   3.450   1.997
 3597TIP3    H110734   6.515   3.384   1.928
 3597TIP3    H210735   6.473   3.407   2.072
 3598TIP3   OH210736   6.165   1.404   6.547
 3598TIP3    H110737   6.226   1.408   6.621
 3598TIP3    H210738   6.190   1.476   6.490
 3599TIP3   OH210739   6.888   2.273   6.388
 3599TIP3    H110740   6.809   2.325   6.375
 3599TIP3    H210741   6.958   2.337   6.400
 3600TIP3   OH210742   6.877   7.457   0.783
 3600TIP3    H110743   6.870   7.378   0.837
 3600TIP3    H210744   6.789   7.494   0.783
 3601TIP3   OH210745   5.006   6.243   0.002
 3601TIP3    H110746   5.020   6.227   0.095
 3601TIP3    H210747   5.012   6.339  -0.007
 3602TIP3   OH210748   3.758   2.230   5.187
 3602TIP3    H110749   3.700   2.196   5.119
 3602TIP3    H210750   3.844   2.237   5.145
 3603TIP3   OH210751   4.363   1.406   2.393
 3603TIP3    H110752   4.453   1.406   2.360
 3603TIP3    H210753   4.363   1.474   2.461
 3604TIP3   OH210754   2.749   0.701   1.164
 3604TIP3    H110755   2.817   0.703   1.097
 3604TIP3    H210756   2.694   0.776   1.144
 3605TIP3   OH210757   4.866   4.339   5.207
 3605TIP3    H110758   4.888   4.408   5.270
 3605TIP3    H210759   4.830   4.268   5.261
 3606TIP3   OH210760   4.325   1.693   0.425
 3606TIP3    H110761   4.409   1.666   0.388
 3606TIP3    H210762   4.266   1.694   0.349
 3607TIP3   OH210763   5.288   3.900   1.275
 3607TIP3    H110764   5.367   3.946   1.244
 3607TIP3    H210765   5.215   3.955   1.246
 3608TIP3   OH210766   7.113   0.714   1.247
 3608TIP3    H110767   7.095   0.758   1.165
 3608TIP3    H210768   7.136   0.784   1.308
 3609TIP3   OH210769   0.741   7.465   1.113
 3609TIP3    H110770   0.745   7.447   1.019
 3609TIP3    H210771   0.742   7.561   1.120
 3610TIP3   OH210772   3.543   5.310   3.981
 3610TIP3    H110773   3.508   5.353   3.904
 3610TIP3    H210774   3.492   5.345   4.054
 3611TIP3   OH210775   3.187   4.664   4.686
 3611TIP3    H110776   3.196   4.755   4.716
 3611TIP3    H210777   3.189   4.670   4.591
 3612TIP3   OH210778   7.684   4.241   4.909
 3612TIP3    H110779   7.752   4.211   4.970
 3612TIP3    H210780   7.675   4.168   4.846
 3613TIP3   OH210781   2.974   6.174   0.791
 3613TIP3    H110782   2.948   6.193   0.881
 3613TIP3    H210783   2.894   6.139   0.751
 3614TIP3   OH210784   3.664   5.335   2.357
 3614TIP3    H110785   3.731   5.333   2.288
 3614TIP3    H210786   3.619   5.418   2.342
 3615TIP3   OH210787   1.854   5.338   2.012
 3615TIP3    H110788   1.940   5.361   2.047
 3615TIP3    H210789   1.792   5.382   2.070
 3616TIP3   OH210790   5.448   7.776   0.987
 3616TIP3    H110791   5.438   7.818   0.901
 3616TIP3    H210792   5.467   7.685   0.967
 3617TIP3   OH210793   0.629   7.429   1.701
 3617TIP3    H110794   0.570   7.364   1.737
 3617TIP3    H210795   0.589   7.455   1.618
 3618TIP3   OH210796   8.263   1.679   5.557
 3618TIP3    H110797   8.268   1.675   5.462
 3618TIP3    H210798   8.174   1.652   5.578
 3619TIP3   OH210799   1.211   5.336   6.298
 3619TIP3    H110800   1.305   5.348   6.290
 3619TIP3    H210801   1.199   5.242   6.308
 3620TIP3   OH210802   7.937   3.329   0.187
 3620TIP3    H110803   7.928   3.403   0.248
 3620TIP3    H210804   7.877   3.263   0.221
 3621TIP3   OH210805   4.308   1.265   4.350
 3621TIP3    H110806   4.272   1.228   4.269
 3621TIP3    H210807   4.342   1.351   4.323
 3622TIP3   OH210808   2.675   1.134   2.555
 3622TIP3    H110809   2.747   1.183   2.595
 3622TIP3    H210810   2.646   1.074   2.624
 3623TIP3   OH210811   5.655   0.400   4.547
 3623TIP3    H110812   5.738   0.406   4.594
 3623TIP3    H210813   5.589   0.426   4.611
 3624TIP3   OH210814   7.743   3.908   4.158
 3624TIP3    H110815   7.717   3.931   4.247
 3624TIP3    H210816   7.816   3.847   4.169
 3625TIP3   OH210817   7.945   3.131   1.657
 3625TIP3    H110818   7.951   3.041   1.626
 3625TIP3    H210819   7.935   3.123   1.752
 3626TIP3   OH210820   6.624   2.226   3.040
 3626TIP3    H110821   6.710   2.217   3.000
 3626TIP3    H210822   6.563   2.199   2.971
 3627TIP3   OH210823   5.553   6.431   2.771
 3627TIP3    H110824   5.486   6.434   2.702
 3627TIP3    H210825   5.529   6.501   2.831
 3628TIP3   OH210826   5.103   6.259   3.409
 3628TIP3    H110827   5.192   6.295   3.409
 3628TIP3    H210828   5.069   6.278   3.496
 3629TIP3   OH210829   1.542   1.044   1.076
 3629TIP3    H110830   1.624   1.024   1.029
 3629TIP3    H210831   1.507   1.120   1.030
 3630TIP3   OH210832   1.197   4.933   2.218
 3630TIP3    H110833   1.150   4.880   2.283
 3630TIP3    H210834   1.157   4.908   2.135
 3631TIP3   OH210835   6.629   1.987   3.726
 3631TIP3    H110836   6.570   2.021   3.659
 3631TIP3    H210837   6.717   2.008   3.693
 3632TIP3   OH210838   4.057   7.433   3.661
 3632TIP3    H110839   4.043   7.487   3.584
 3632TIP3    H210840   4.128   7.476   3.709
 3633TIP3   OH210841   5.441   4.741   3.660
 3633TIP3    H110842   5.382   4.748   3.735
 3633TIP3    H210843   5.529   4.738   3.700
 3634TIP3   OH210844   8.188   4.490   1.384
 3634TIP3    H110845   8.223   4.477   1.296
 3634TIP3    H210846   8.096   4.464   1.377
 3635TIP3   OH210847   6.797   1.093   1.906
 3635TIP3    H110848   6.891   1.075   1.905
 3635TIP3    H210849   6.758   1.011   1.935
 3636TIP3   OH210850   2.618   2.082   3.478
 3636TIP3    H110851   2.594   2.084   3.571
 3636TIP3    H210852   2.631   1.989   3.459
 3637TIP3   OH210853   5.121   4.510   2.566
 3637TIP3    H110854   5.076   4.432   2.596
 3637TIP3    H210855   5.212   4.483   2.556
 3638TIP3   OH210856   4.796   3.155   6.555
 3638TIP3    H110857   4.828   3.136   6.467
 3638TIP3    H210858   4.777   3.069   6.593
 3639TIP3   OH210859   4.260   3.511   0.405
 3639TIP3    H110860   4.216   3.457   0.470
 3639TIP3    H210861   4.334   3.550   0.451
 3640TIP3   OH210862   4.444   5.048   2.864
 3640TIP3    H110863   4.468   5.087   2.779
 3640TIP3    H210864   4.377   4.983   2.842
 3641TIP3   OH210865   5.250   6.584   6.160
 3641TIP3    H110866   5.316   6.526   6.123
 3641TIP3    H210867   5.199   6.528   6.219
 3642TIP3   OH210868   4.596   4.661   1.995
 3642TIP3    H110869   4.575   4.752   1.972
 3642TIP3    H210870   4.514   4.626   2.032
 3643TIP3   OH210871   6.008   1.998   6.010
 3643TIP3    H110872   5.983   1.999   5.918
 3643TIP3    H210873   5.932   2.037   6.055
 3644TIP3   OH210874   3.443   1.516   5.320
 3644TIP3    H110875   3.376   1.571   5.280
 3644TIP3    H210876   3.474   1.566   5.395
 3645TIP3   OH210877   5.313   2.648   4.448
 3645TIP3    H110878   5.335   2.586   4.379
 3645TIP3    H210879   5.346   2.732   4.417
 3646TIP3   OH210880   2.848   3.986   4.896
 3646TIP3    H110881   2.933   3.971   4.938
 3646TIP3    H210882   2.824   4.075   4.923
 3647TIP3   OH210883   6.571   4.672   2.232
 3647TIP3    H110884   6.567   4.763   2.203
 3647TIP3    H210885   6.542   4.621   2.157
 3648TIP3   OH210886   2.806   5.541   5.788
 3648TIP3    H110887   2.732   5.521   5.730
 3648TIP3    H210888   2.849   5.616   5.747
 3649TIP3   OH210889   0.329   3.214   4.750
 3649TIP3    H110890   0.285   3.263   4.819
 3649TIP3    H210891   0.272   3.138   4.735
 3650TIP3   OH210892   7.989   0.162   6.093
 3650TIP3    H110893   7.911   0.138   6.142
 3650TIP3    H210894   7.957   0.221   6.025
 3651TIP3   OH210895   5.809   1.411   1.943
 3651TIP3    H110896   5.894   1.429   1.903
 3651TIP3    H210897   5.746   1.420   1.871
 3652TIP3   OH210898   2.885   1.770   2.941
 3652TIP3    H110899   2.962   1.758   2.997
 3652TIP3    H210900   2.883   1.692   2.886
 3653TIP3   OH210901   6.755   3.614   1.034
 3653TIP3    H110902   6.829   3.615   0.973
 3653TIP3    H210903   6.744   3.522   1.056
 3654TIP3   OH210904   3.729   0.881   4.153
 3654TIP3    H110905   3.712   0.796   4.113
 3654TIP3    H210906   3.752   0.938   4.079
 3655TIP3   OH210907   4.053   0.960   5.479
 3655TIP3    H110908   4.010   1.044   5.493
 3655TIP3    H210909   4.145   0.982   5.463
 3656TIP3   OH210910   1.912   5.144   0.198
 3656TIP3    H110911   1.991   5.104   0.161
 3656TIP3    H210912   1.860   5.070   0.229
 3657TIP3   OH210913   0.586   4.807   1.140
 3657TIP3    H110914   0.527   4.734   1.121
 3657TIP3    H210915   0.673   4.767   1.145
 3658TIP3   OH210916   0.169   6.227   1.624
 3658TIP3    H110917   0.140   6.303   1.573
 3658TIP3    H210918   0.197   6.164   1.558
 3659TIP3   OH210919   5.681   7.221   1.010
 3659TIP3    H110920   5.765   7.249   1.049
 3659TIP3    H210921   5.676   7.270   0.928
 3660TIP3   OH210922   4.802   2.632   0.379
 3660TIP3    H110923   4.856   2.670   0.448
 3660TIP3    H210924   4.853   2.643   0.299
 3661TIP3   OH210925   5.491   5.430   5.378
 3661TIP3    H110926   5.564   5.394   5.428
 3661TIP3    H210927   5.533   5.472   5.303
 3662TIP3   OH210928   4.827   3.753   1.036
 3662TIP3    H110929   4.800   3.818   0.972
 3662TIP3    H210930   4.807   3.793   1.121
 3663TIP3   OH210931   4.692   3.650   5.807
 3663TIP3    H110932   4.705   3.663   5.901
 3663TIP3    H210933   4.640   3.726   5.779
 3664TIP3   OH210934   2.810   6.044   2.645
 3664TIP3    H110935   2.827   6.076   2.734
 3664TIP3    H210936   2.894   6.052   2.601
 3665TIP3   OH210937   6.343   1.085   3.981
 3665TIP3    H110938   6.347   0.993   4.004
 3665TIP3    H210939   6.429   1.103   3.941
 3666TIP3   OH210940   0.456   4.404   2.719
 3666TIP3    H110941   0.512   4.470   2.760
 3666TIP3    H210942   0.488   4.397   2.629
 3667TIP3   OH210943   3.826   7.423   2.777
 3667TIP3    H110944   3.740   7.459   2.797
 3667TIP3    H210945   3.810   7.330   2.763
 3668TIP3   OH210946   7.826   7.825   6.112
 3668TIP3    H110947   7.866   7.756   6.059
 3668TIP3    H210948   7.866   7.815   6.199
 3669TIP3   OH210949   3.962   1.701   4.165
 3669TIP3    H110950   4.026   1.725   4.098
 3669TIP3    H210951   3.910   1.780   4.178
 3670TIP3   OH210952   4.857   4.546   0.995
 3670TIP3    H110953   4.827   4.562   0.905
 3670TIP3    H210954   4.896   4.458   0.992
 3671TIP3   OH210955   6.809   4.217   1.638
 3671TIP3    H110956   6.840   4.206   1.728
 3671TIP3    H210957   6.804   4.312   1.626
 3672TIP3   OH210958   3.665   0.940   6.163
 3672TIP3    H110959   3.716   1.013   6.198
 3672TIP3    H210960   3.730   0.872   6.143
 3673TIP3   OH210961   4.324   1.439   4.701
 3673TIP3    H110962   4.294   1.476   4.783
 3673TIP3    H210963   4.275   1.486   4.633
 3674TIP3   OH210964   2.025   1.499   2.253
 3674TIP3    H110965   2.056   1.505   2.163
 3674TIP3    H210966   2.090   1.446   2.298
 3675TIP3   OH210967   4.087   5.627   6.056
 3675TIP3    H110968   4.020   5.559   6.060
 3675TIP3    H210969   4.138   5.606   5.978
 3676TIP3   OH210970   0.238   3.170   0.933
 3676TIP3    H110971   0.160   3.216   0.901
 3676TIP3    H210972   0.235   3.085   0.890
 3677TIP3   OH210973   1.444   5.334   4.015
 3677TIP3    H110974   1.524   5.320   4.067
 3677TIP3    H210975   1.407   5.414   4.051
 3678TIP3   OH210976   2.148   3.035   4.636
 3678TIP3    H110977   2.115   2.996   4.556
 3678TIP3    H210978   2.240   3.007   4.640
 3679TIP3   OH210979   0.001   0.907   1.000
 3679TIP3    H110980   0.072   0.847   0.976
 3679TIP3    H210981   0.011   0.981   0.941
 3680TIP3   OH210982   4.571   4.245   4.521
 3680TIP3    H110983   4.577   4.276   4.612
 3680TIP3    H210984   4.549   4.153   4.529
 3681TIP3   OH210985   0.402   1.093   3.710
 3681TIP3    H110986   0.460   1.020   3.733
 3681TIP3    H210987   0.335   1.054   3.654
 3682TIP3   OH210988   0.292   3.189   1.928
 3682TIP3    H110989   0.246   3.264   1.891
 3682TIP3    H210990   0.293   3.205   2.022
 3683TIP3   OH210991   6.272   0.656   3.252
 3683TIP3    H110992   6.230   0.588   3.200
 3683TIP3    H210993   6.210   0.673   3.323
 3684TIP3   OH210994   1.725   7.457   1.616
 3684TIP3    H110995   1.812   7.489   1.593
 3684TIP3    H210996   1.732   7.431   1.708
 3685TIP3   OH210997   5.815   7.157   1.703
 3685TIP3    H110998   5.772   7.167   1.618
 3685TIP3    H210999   5.749   7.116   1.759
 3686TIP3   OH211000   5.789   3.942   0.841
 3686TIP3    H111001   5.731   3.920   0.914
 3686TIP3    H211002   5.753   3.895   0.766
 3687TIP3   OH211003   1.276   1.375   6.755
 3687TIP3    H111004   1.180   1.380   6.765
 3687TIP3    H211005   1.303   1.466   6.742
 3688TIP3   OH211006   2.334   5.245   1.490
 3688TIP3    H111007   2.300   5.181   1.428
 3688TIP3    H211008   2.256   5.291   1.521
 3689TIP3   OH211009   4.238   4.639   3.980
 3689TIP3    H111010   4.194   4.583   4.043
 3689TIP3    H211011   4.169   4.670   3.922
 3690TIP3   OH211012   4.447   4.734   0.928
 3690TIP3    H111013   4.372   4.789   0.952
 3690TIP3    H211014   4.504   4.737   1.004
 3691TIP3   OH211015   3.063   2.063   4.550
 3691TIP3    H111016   3.032   2.151   4.571
 3691TIP3    H211017   3.009   2.004   4.604
 3692TIP3   OH211018   5.157   4.090   4.259
 3692TIP3    H111019   5.116   4.105   4.345
 3692TIP3    H211020   5.238   4.043   4.279
 3693TIP3   OH211021   0.143   3.385   2.792
 3693TIP3    H111022   0.103   3.317   2.738
 3693TIP3    H211023   0.091   3.386   2.873
 3694TIP3   OH211024   6.180   2.525   2.702
 3694TIP3    H111025   6.148   2.441   2.734
 3694TIP3    H211026   6.100   2.577   2.689
 3695TIP3   OH211027   0.717   6.265   3.050
 3695TIP3    H111028   0.807   6.235   3.057
 3695TIP3    H211029   0.664   6.187   3.065
 3696TIP3   OH211030   5.270   5.538   4.703
 3696TIP3    H111031   5.208   5.603   4.669
 3696TIP3    H211032   5.299   5.490   4.625
 3697TIP3   OH211033   4.095   2.961   3.277
 3697TIP3    H111034   4.089   3.041   3.226
 3697TIP3    H211035   4.012   2.916   3.262
 3698TIP3   OH211036   4.478   3.636   2.271
 3698TIP3    H111037   4.542   3.586   2.221
 3698TIP3    H211038   4.431   3.571   2.323
 3699TIP3   OH211039   4.321   4.537   1.986
 3699TIP3    H111040   4.266   4.524   2.063
 3699TIP3    H211041   4.285   4.479   1.919
 3700TIP3   OH211042   0.484   4.465   4.304
 3700TIP3    H111043   0.412   4.402   4.296
 3700TIP3    H211044   0.440   4.549   4.322
 3701TIP3   OH211045   4.531   1.443   0.714
 3701TIP3    H111046   4.622   1.437   0.685
 3701TIP3    H211047   4.529   1.392   0.796
 3702TIP3   OH211048   3.129   4.169   5.739
 3702TIP3    H111049   3.065   4.212   5.682
 3702TIP3    H211050   3.212   4.211   5.718
 3703TIP3   OH211051   6.773   0.184   5.327
 3703TIP3    H111052   6.828   0.150   5.257
 3703TIP3    H211053   6.820   0.260   5.361
 3704TIP3   OH211054   3.830   5.326   3.039
 3704TIP3    H111055   3.886   5.391   2.996
 3704TIP3    H211056   3.878   5.303   3.119
 3705TIP3   OH211057   7.302   4.452   2.238
 3705TIP3    H111058   7.283   4.542   2.214
 3705TIP3    H211059   7.342   4.459   2.325
 3706TIP3   OH211060   1.369   4.752   2.914
 3706TIP3    H111061   1.441   4.734   2.854
 3706TIP3    H211062   1.381   4.844   2.939
 3707TIP3   OH211063   3.461   3.327   6.067
 3707TIP3    H111064   3.451   3.242   6.110
 3707TIP3    H211065   3.417   3.389   6.125
 3708TIP3   OH211066   0.129   1.477   4.127
 3708TIP3    H111067   0.179   1.405   4.164
 3708TIP3    H211068   0.065   1.499   4.194
 3709TIP3   OH211069   4.977   7.692   2.788
 3709TIP3    H111070   5.048   7.648   2.835
 3709TIP3    H211071   4.903   7.632   2.793
 3710TIP3   OH211072   1.265   0.070   5.883
 3710TIP3    H111073   1.286   0.085   5.975
 3710TIP3    H211074   1.240  -0.023   5.879
 3711TIP3   OH211075   5.938   1.195   4.484
 3711TIP3    H111076   6.022   1.161   4.516
 3711TIP3    H211077   5.879   1.119   4.487
 3712TIP3   OH211078   0.410   3.755   4.145
 3712TIP3    H111079   0.314   3.755   4.147
 3712TIP3    H211080   0.433   3.666   4.116
 3713TIP3   OH211081   4.896   7.859   4.501
 3713TIP3    H111082   4.836   7.824   4.567
 3713TIP3    H211083   4.880   7.806   4.423
 3714TIP3   OH211084   1.861   2.557   4.507
 3714TIP3    H111085   1.872   2.462   4.505
 3714TIP3    H211086   1.896   2.587   4.424
 3715TIP3   OH211087   6.633   5.785   5.959
 3715TIP3    H111088   6.673   5.702   5.930
 3715TIP3    H211089   6.682   5.809   6.037
 3716TIP3   OH211090   2.533   6.517   0.872
 3716TIP3    H111091   2.613   6.528   0.925
 3716TIP3    H211092   2.477   6.589   0.900
 3717TIP3   OH211093   0.638   2.598   2.722
 3717TIP3    H111094   0.693   2.629   2.793
 3717TIP3    H211095   0.560   2.563   2.765
 3718TIP3   OH211096   7.986   7.754   5.510
 3718TIP3    H111097   8.061   7.700   5.484
 3718TIP3    H211098   8.012   7.843   5.487
 3719TIP3   OH211099   7.799   4.785   0.357
 3719TIP3    H111100   7.772   4.848   0.289
 3719TIP3    H211101   7.728   4.787   0.421
 3720TIP3   OH211102   2.245   7.221   3.403
 3720TIP3    H111103   2.290   7.281   3.343
 3720TIP3    H211104   2.172   7.187   3.352
 3721TIP3   OH211105   8.172   5.553   2.657
 3721TIP3    H111106   8.184   5.633   2.605
 3721TIP3    H211107   8.144   5.584   2.743
 3722TIP3   OH211108   1.932   6.703   3.197
 3722TIP3    H111109   1.893   6.618   3.176
 3722TIP3    H211110   2.012   6.682   3.244
 3723TIP3   OH211111   2.296   1.803   0.674
 3723TIP3    H111112   2.292   1.866   0.745
 3723TIP3    H211113   2.209   1.808   0.634
 3724TIP3   OH211114   7.090   0.541   4.690
 3724TIP3    H111115   7.086   0.476   4.619
 3724TIP3    H211116   7.085   0.626   4.645
 3725TIP3   OH211117   1.732   6.234   0.593
 3725TIP3    H111118   1.815   6.189   0.586
 3725TIP3    H211119   1.701   6.214   0.682
 3726TIP3   OH211120   3.680   5.761   3.295
 3726TIP3    H111121   3.752   5.746   3.233
 3726TIP3    H211122   3.621   5.687   3.282
 3727TIP3   OH211123   2.448   1.885   6.583
 3727TIP3    H111124   2.458   1.833   6.662
 3727TIP3    H211125   2.453   1.822   6.512
 3728TIP3   OH211126   7.125   3.940   4.697
 3728TIP3    H111127   7.181   3.873   4.738
 3728TIP3    H211128   7.179   4.020   4.700
 3729TIP3   OH211129   3.604   6.010   4.426
 3729TIP3    H111130   3.618   6.063   4.348
 3729TIP3    H211131   3.558   5.932   4.394
 3730TIP3   OH211132   1.536   4.464   5.142
 3730TIP3    H111133   1.479   4.400   5.184
 3730TIP3    H211134   1.601   4.412   5.095
 3731TIP3   OH211135   2.948   1.466   4.536
 3731TIP3    H111136   2.882   1.534   4.553
 3731TIP3    H211137   2.935   1.403   4.607
 3732TIP3   OH211138   7.286   7.232   1.022
 3732TIP3    H111139   7.265   7.269   0.937
 3732TIP3    H211140   7.232   7.281   1.084
 3733TIP3   OH211141   5.290   6.870   2.774
 3733TIP3    H111142   5.303   6.833   2.687
 3733TIP3    H211143   5.222   6.936   2.762
 3734TIP3   OH211144   4.630  -0.045   2.754
 3734TIP3    H111145   4.602  -0.010   2.670
 3734TIP3    H211146   4.568  -0.008   2.818
 3735TIP3   OH211147   2.673   1.594   5.239
 3735TIP3    H111148   2.624   1.580   5.158
 3735TIP3    H211149   2.736   1.662   5.216
 3736TIP3   OH211150   1.303   4.138   6.494
 3736TIP3    H111151   1.343   4.060   6.532
 3736TIP3    H211152   1.267   4.185   6.570
 3737TIP3   OH211153   6.726   1.486   2.300
 3737TIP3    H111154   6.753   1.404   2.259
 3737TIP3    H211155   6.742   1.472   2.393
 3738TIP3   OH211156   4.910   0.386   2.271
 3738TIP3    H111157   4.970   0.455   2.299
 3738TIP3    H211158   4.823   0.423   2.285
 3739TIP3   OH211159   5.068   0.774   1.963
 3739TIP3    H111160   5.015   0.827   1.903
 3739TIP3    H211161   5.024   0.689   1.965
 3740TIP3   OH211162   3.414   2.077   1.693
 3740TIP3    H111163   3.328   2.070   1.652
 3740TIP3    H211164   3.461   1.998   1.664
 3741TIP3   OH211165   0.325   3.570   2.664
 3741TIP3    H111166   0.283   3.492   2.700
 3741TIP3    H211167   0.378   3.604   2.736
 3742TIP3   OH211168   0.709   4.062   1.017
 3742TIP3    H111169   0.674   4.136   0.967
 3742TIP3    H211170   0.743   4.102   1.097
 3743TIP3   OH211171   3.105   6.542   3.374
 3743TIP3    H111172   3.038   6.538   3.307
 3743TIP3    H211173   3.056   6.549   3.456
 3744TIP3   OH211174   3.882   4.959   2.424
 3744TIP3    H111175   3.884   5.038   2.479
 3744TIP3    H211176   3.883   4.992   2.334
 3745TIP3   OH211177   0.316   1.830   2.621
 3745TIP3    H111178   0.303   1.822   2.527
 3745TIP3    H211179   0.377   1.759   2.643
 3746TIP3   OH211180   7.298   6.584   1.235
 3746TIP3    H111181   7.357   6.575   1.160
 3746TIP3    H211182   7.271   6.494   1.255
 3747TIP3   OH211183   7.686   5.722   4.074
 3747TIP3    H111184   7.604   5.702   4.030
 3747TIP3    H211185   7.689   5.662   4.148
 3748TIP3   OH211186   1.567   0.390   0.118
 3748TIP3    H111187   1.548   0.318   0.057
 3748TIP3    H211188   1.482   0.415   0.153
 3749TIP3   OH211189   7.020   0.189   3.659
 3749TIP3    H111190   6.972   0.271   3.644
 3749TIP3    H211191   7.013   0.142   3.576
 3750TIP3   OH211192   0.813   1.955   5.879
 3750TIP3    H111193   0.790   2.003   5.799
 3750TIP3    H211194   0.793   1.863   5.859
 3751TIP3   OH211195   5.774   4.623   0.284
 3751TIP3    H111196   5.861   4.660   0.302
 3751TIP3    H211197   5.760   4.640   0.191
 3752TIP3   OH211198   6.080   4.072   1.220
 3752TIP3    H111199   6.119   4.007   1.161
 3752TIP3    H211200   6.004   4.105   1.173
 3753TIP3   OH211201   6.670   1.356   0.959
 3753TIP3    H111202   6.635   1.307   1.034
 3753TIP3    H211203   6.669   1.447   0.988
 3754TIP3   OH211204   1.849   3.292   3.277
 3754TIP3    H111205   1.823   3.298   3.369
 3754TIP3    H211206   1.802   3.215   3.244
 3755TIP3   OH211207   0.724   3.584   4.137
 3755TIP3    H111208   0.692   3.548   4.219
 3755TIP3    H211209   0.651   3.572   4.076
 3756TIP3   OH211210   2.256   2.023   5.621
 3756TIP3    H111211   2.183   1.993   5.567
 3756TIP3    H211212   2.215   2.069   5.694
 3757TIP3   OH211213   2.670   3.320   1.082
 3757TIP3    H111214   2.634   3.253   1.025
 3757TIP3    H211215   2.753   3.284   1.113
 3758TIP3   OH211216   6.954   6.378   5.465
 3758TIP3    H111217   6.875   6.325   5.472
 3758TIP3    H211218   6.923   6.464   5.437
 3759TIP3   OH211219   6.515   6.978   3.772
 3759TIP3    H111220   6.478   6.974   3.861
 3759TIP3    H211221   6.439   6.970   3.714
 3760TIP3   OH211222   2.734   3.064   0.271
 3760TIP3    H111223   2.641   3.041   0.268
 3760TIP3    H211224   2.736   3.148   0.317
 3761TIP3   OH211225   3.158   4.472   0.906
 3761TIP3    H111226   3.126   4.535   0.970
 3761TIP3    H211227   3.182   4.395   0.957
 3762TIP3   OH211228   1.334   5.173   4.569
 3762TIP3    H111229   1.332   5.267   4.556
 3762TIP3    H211230   1.415   5.144   4.527
 3763TIP3   OH211231   3.181   6.776   6.449
 3763TIP3    H111232   3.214   6.777   6.539
 3763TIP3    H211233   3.245   6.828   6.399
 3764TIP3   OH211234   0.941   6.441   1.818
 3764TIP3    H111235   1.003   6.376   1.849
 3764TIP3    H211236   0.864   6.429   1.873
 3765TIP3   OH211237   6.098   5.056   4.369
 3765TIP3    H111238   6.082   5.045   4.275
 3765TIP3    H211239   6.180   5.009   4.385
 3766TIP3   OH211240   3.906   5.777   5.100
 3766TIP3    H111241   3.862   5.862   5.090
 3766TIP3    H211242   3.872   5.725   5.027
 3767TIP3   OH211243   4.365   4.454   0.861
 3767TIP3    H111244   4.426   4.527   0.876
 3767TIP3    H211245   4.377   4.397   0.936
 3768TIP3   OH211246   5.698   5.651   2.509
 3768TIP3    H111247   5.785   5.619   2.531
 3768TIP3    H211248   5.713   5.736   2.468
 3769TIP3   OH211249   5.609   2.533   3.234
 3769TIP3    H111250   5.584   2.442   3.250
 3769TIP3    H211251   5.538   2.584   3.271
 3770TIP3   OH211252   0.674   6.717   0.259
 3770TIP3    H111253   0.583   6.706   0.286
 3770TIP3    H211254   0.711   6.778   0.323
 3771TIP3   OH211255   3.107   1.218   2.444
 3771TIP3    H111256   3.155   1.231   2.362
 3771TIP3    H211257   3.156   1.150   2.490
 3772TIP3   OH211258   4.820   5.582   0.246
 3772TIP3    H111259   4.802   5.666   0.287
 3772TIP3    H211260   4.794   5.517   0.312
 3773TIP3   OH211261   0.679   5.418   4.541
 3773TIP3    H111262   0.742   5.406   4.470
 3773TIP3    H211263   0.729   5.459   4.611
 3774TIP3   OH211264   7.786   1.462   6.407
 3774TIP3    H111265   7.830   1.478   6.490
 3774TIP3    H211266   7.693   1.479   6.425
 3775TIP3   OH211267   1.057   1.501   0.279
 3775TIP3    H111268   1.076   1.592   0.256
 3775TIP3    H211269   0.961   1.499   0.287
 3776TIP3   OH211270   6.834   7.212   0.906
 3776TIP3    H111271   6.898   7.141   0.915
 3776TIP3    H211272   6.750   7.167   0.892
 3777TIP3   OH211273   2.415   6.097   4.167
 3777TIP3    H111274   2.440   6.188   4.148
 3777TIP3    H211275   2.493   6.046   4.143
 3778TIP3   OH211276   0.917   4.883   3.542
 3778TIP3    H111277   0.944   4.934   3.465
 3778TIP3    H211278   0.967   4.919   3.614
 3779TIP3   OH211279   7.738   0.425   4.788
 3779TIP3    H111280   7.727   0.371   4.710
 3779TIP3    H211281   7.801   0.377   4.842
 3780TIP3   OH211282   5.630   6.788   4.451
 3780TIP3    H111283   5.577   6.864   4.429
 3780TIP3    H211284   5.585   6.715   4.408
 3781TIP3   OH211285   6.777   4.543   5.977
 3781TIP3    H111286   6.827   4.599   5.918
 3781TIP3    H211287   6.686   4.555   5.949
 3782TIP3   OH211288   6.840   7.826   5.258
 3782TIP3    H111289   6.786   7.848   5.181
 3782TIP3    H211290   6.859   7.732   5.248
 3783TIP3   OH211291   2.949   3.574   0.145
 3783TIP3    H111292   2.920   3.542   0.060
 3783TIP3    H211293   3.014   3.641   0.124
 3784TIP3   OH211294   6.043   5.964   2.340
 3784TIP3    H111295   5.993   5.882   2.345
 3784TIP3    H211296   6.037   5.988   2.247
 3785TIP3   OH211297   7.828   0.031   4.197
 3785TIP3    H111298   7.805   0.122   4.218
 3785TIP3    H211299   7.765  -0.022   4.247
 3786TIP3   OH211300   5.454   1.500   5.656
 3786TIP3    H111301   5.459   1.410   5.688
 3786TIP3    H211302   5.385   1.540   5.709
 3787TIP3   OH211303   3.400   6.224   4.975
 3787TIP3    H111304   3.358   6.233   4.889
 3787TIP3    H211305   3.475   6.283   4.971
 3788TIP3   OH211306   8.054   7.531   3.661
 3788TIP3    H111307   8.135   7.551   3.707
 3788TIP3    H211308   7.986   7.579   3.709
 3789TIP3   OH211309   2.980   2.442   5.557
 3789TIP3    H111310   2.897   2.393   5.564
 3789TIP3    H211311   2.957   2.532   5.580
 3790TIP3   OH211312   0.093   2.713   1.399
 3790TIP3    H111313   0.037   2.714   1.322
 3790TIP3    H211314   0.080   2.799   1.439
 3791TIP3   OH211315   7.245   2.954   6.039
 3791TIP3    H111316   7.272   2.948   6.130
 3791TIP3    H211317   7.257   3.047   6.016
 3792TIP3   OH211318   1.755   5.554   5.872
 3792TIP3    H111319   1.837   5.521   5.834
 3792TIP3    H211320   1.687   5.498   5.834
 3793TIP3   OH211321   3.512   2.399   6.302
 3793TIP3    H111322   3.419   2.379   6.294
 3793TIP3    H211323   3.557   2.317   6.281
 3794TIP3   OH211324   2.313   5.907   5.888
 3794TIP3    H111325   2.235   5.868   5.928
 3794TIP3    H211326   2.382   5.843   5.904
 3795TIP3   OH211327   1.780   7.457   5.178
 3795TIP3    H111328   1.746   7.522   5.116
 3795TIP3    H211329   1.833   7.398   5.124
 3796TIP3   OH211330   7.207   5.931   0.003
 3796TIP3    H111331   7.206   6.004   0.065
 3796TIP3    H211332   7.300   5.909  -0.006
 3797TIP3   OH211333   4.807   2.605   5.002
 3797TIP3    H111334   4.902   2.616   5.006
 3797TIP3    H211335   4.771   2.689   5.028
 3798TIP3   OH211336   8.289   2.005   5.341
 3798TIP3    H111337   8.355   1.936   5.344
 3798TIP3    H211338   8.309   2.061   5.416
 3799TIP3   OH211339   8.101   4.444   0.217
 3799TIP3    H111340   8.179   4.465   0.269
 3799TIP3    H211341   8.031   4.495   0.258
 3800TIP3   OH211342   5.021   6.154   0.275
 3800TIP3    H111343   5.070   6.072   0.268
 3800TIP3    H211344   5.000   6.162   0.368
 3801TIP3   OH211345   4.410   0.326   3.364
 3801TIP3    H111346   4.324   0.368   3.370
 3801TIP3    H211347   4.405   0.272   3.285
 3802TIP3   OH211348   6.560   7.209   5.920
 3802TIP3    H111349   6.594   7.279   5.976
 3802TIP3    H211350   6.576   7.129   5.970
 3803TIP3   OH211351   6.929   2.231   6.718
 3803TIP3    H111352   6.871   2.292   6.764
 3803TIP3    H211353   6.958   2.279   6.641
 3804TIP3   OH211354   7.545   3.767   5.694
 3804TIP3    H111355   7.533   3.794   5.785
 3804TIP3    H211356   7.601   3.835   5.656
 3805TIP3   OH211357   6.047   6.873   2.977
 3805TIP3    H111358   5.990   6.903   2.906
 3805TIP3    H211359   6.030   6.779   2.982
 3806TIP3   OH211360   6.261   1.387   4.633
 3806TIP3    H111361   6.237   1.415   4.545
 3806TIP3    H211362   6.267   1.291   4.627
 3807TIP3   OH211363   0.941   4.567   2.649
 3807TIP3    H111364   0.925   4.564   2.554
 3807TIP3    H211365   1.020   4.620   2.658
 3808TIP3   OH211366   5.374   0.058   6.200
 3808TIP3    H111367   5.470   0.057   6.200
 3808TIP3    H211368   5.351   0.094   6.286
 3809TIP3   OH211369   7.878   1.279   3.562
 3809TIP3    H111370   7.953   1.262   3.504
 3809TIP3    H211371   7.902   1.356   3.612
 3810TIP3   OH211372   5.876   2.303   6.372
 3810TIP3    H111373   5.900   2.391   6.345
 3810TIP3    H211374   5.807   2.316   6.437
 3811TIP3   OH211375   4.650   5.263   2.623
 3811TIP3    H111376   4.704   5.207   2.679
 3811TIP3    H211377   4.585   5.204   2.585
 3812TIP3   OH211378   2.007   0.985   2.078
 3812TIP3    H111379   2.024   0.949   1.991
 3812TIP3    H211380   1.965   1.069   2.061
 3813TIP3   OH211381   2.657   0.913   5.624
 3813TIP3    H111382   2.664   0.896   5.530
 3813TIP3    H211383   2.657   0.826   5.664
 3814TIP3   OH211384   0.495   7.107   2.554
 3814TIP3    H111385   0.464   7.021   2.582
 3814TIP3    H211386   0.421   7.166   2.568
 3815TIP3   OH211387   1.560   7.621   4.299
 3815TIP3    H111388   1.499   7.577   4.240
 3815TIP3    H211389   1.646   7.596   4.268
 3816TIP3   OH211390   6.701   1.748   5.255
 3816TIP3    H111391   6.643   1.719   5.185
 3816TIP3    H211392   6.789   1.732   5.220
 3817TIP3   OH211393   2.085   0.010   4.897
 3817TIP3    H111394   2.092   0.006   4.992
 3817TIP3    H211395   2.059   0.101   4.879
 3818TIP3   OH211396   7.748   4.433   2.529
 3818TIP3    H111397   7.774   4.389   2.448
 3818TIP3    H211398   7.830   4.449   2.576
 3819TIP3   OH211399   2.318   7.601   3.010
 3819TIP3    H111400   2.307   7.569   2.920
 3819TIP3    H211401   2.286   7.691   3.008
 3820TIP3   OH211402   0.400   5.445   5.708
 3820TIP3    H111403   0.439   5.500   5.640
 3820TIP3    H211404   0.341   5.504   5.754
 3821TIP3   OH211405   7.063   1.445   3.501
 3821TIP3    H111406   7.048   1.507   3.573
 3821TIP3    H211407   6.992   1.463   3.439
 3822TIP3   OH211408   3.887   3.911   3.458
 3822TIP3    H111409   3.821   3.926   3.526
 3822TIP3    H211410   3.839   3.922   3.376
 3823TIP3   OH211411   2.782   1.615   4.912
 3823TIP3    H111412   2.865   1.602   4.956
 3823TIP3    H211413   2.718   1.571   4.967
 3824TIP3   OH211414   3.046   6.672   0.476
 3824TIP3    H111415   3.110   6.719   0.530
 3824TIP3    H211416   3.048   6.718   0.392
 3825TIP3   OH211417   7.551   1.411   0.726
 3825TIP3    H111418   7.612   1.401   0.653
 3825TIP3    H211419   7.543   1.323   0.763
 3826TIP3   OH211420   2.136   2.361   0.258
 3826TIP3    H111421   2.136   2.267   0.242
 3826TIP3    H211422   2.058   2.394   0.214
 3827TIP3   OH211423   4.536   6.680   4.680
 3827TIP3    H111424   4.468   6.704   4.743
 3827TIP3    H211425   4.489   6.664   4.598
 3828TIP3   OH211426   6.072   5.153   6.291
 3828TIP3    H111427   5.987   5.165   6.249
 3828TIP3    H211428   6.135   5.162   6.220
 3829TIP3   OH211429   5.515   1.237   3.250
 3829TIP3    H111430   5.566   1.215   3.172
 3829TIP3    H211431   5.564   1.309   3.291
 3830TIP3   OH211432   4.094   3.546   2.582
 3830TIP3    H111433   4.027   3.488   2.616
 3830TIP3    H211434   4.115   3.604   2.655
 3831TIP3   OH211435   6.387   7.273   6.570
 3831TIP3    H111436   6.445   7.226   6.630
 3831TIP3    H211437   6.352   7.345   6.623
 3832TIP3   OH211438   8.156   1.882   0.756
 3832TIP3    H111439   8.073   1.928   0.773
 3832TIP3    H211440   8.130   1.804   0.706
 3833TIP3   OH211441   4.979   6.030   3.343
 3833TIP3    H111442   5.009   6.021   3.253
 3833TIP3    H211443   5.021   6.110   3.375
 3834TIP3   OH211444   0.048   7.539   0.394
 3834TIP3    H111445   0.063   7.564   0.485
 3834TIP3    H211446   0.113   7.470   0.377
 3835TIP3   OH211447   6.297   1.235   5.578
 3835TIP3    H111448   6.338   1.306   5.626
 3835TIP3    H211449   6.332   1.243   5.489
 3836TIP3   OH211450   1.172   1.982   0.348
 3836TIP3    H111451   1.217   2.061   0.320
 3836TIP3    H211452   1.241   1.916   0.357
 3837TIP3   OH211453   4.093   6.943   0.822
 3837TIP3    H111454   4.175   6.904   0.794
 3837TIP3    H211455   4.052   6.974   0.741
 3838TIP3   OH211456   1.033   4.196   3.458
 3838TIP3    H111457   0.984   4.177   3.538
 3838TIP3    H211458   1.110   4.138   3.463
 3839TIP3   OH211459   1.508   4.272   2.534
 3839TIP3    H111460   1.547   4.191   2.569
 3839TIP3    H211461   1.457   4.243   2.458
 3840TIP3   OH211462   3.186   4.969   0.144
 3840TIP3    H111463   3.235   4.967   0.226
 3840TIP3    H211464   3.099   5.000   0.169
 3841TIP3   OH211465   5.635   2.566   5.123
 3841TIP3    H111466   5.570   2.631   5.097
 3841TIP3    H211467   5.719   2.604   5.098
 3842TIP3   OH211468   4.396   7.321   5.901
 3842TIP3    H111469   4.324   7.339   5.840
 3842TIP3    H211470   4.403   7.399   5.955
 3843TIP3   OH211471   0.856   5.128   2.606
 3843TIP3    H111472   0.861   5.033   2.607
 3843TIP3    H211473   0.824   5.152   2.693
 3844TIP3   OH211474   4.821   0.350   5.413
 3844TIP3    H111475   4.756   0.376   5.348
 3844TIP3    H211476   4.778   0.364   5.497
 3845TIP3   OH211477   2.204   6.441   1.994
 3845TIP3    H111478   2.268   6.478   2.054
 3845TIP3    H211479   2.120   6.473   2.026
 3846TIP3   OH211480   2.495   5.912   3.912
 3846TIP3    H111481   2.543   5.937   3.833
 3846TIP3    H211482   2.560   5.918   3.982
 3847TIP3   OH211483   1.862   7.659   0.195
 3847TIP3    H111484   1.871   7.728   0.130
 3847TIP3    H211485   1.808   7.698   0.264
 3848TIP3   OH211486   4.037   1.073   2.101
 3848TIP3    H111487   4.058   1.029   2.184
 3848TIP3    H211488   4.115   1.062   2.047
 3849TIP3   OH211489   5.198   3.655   1.212
 3849TIP3    H111490   5.236   3.743   1.218
 3849TIP3    H211491   5.268   3.601   1.173
 3850TIP3   OH211492   4.387   6.525   2.019
 3850TIP3    H111493   4.475   6.488   2.023
 3850TIP3    H211494   4.382   6.565   1.932
 3851TIP3   OH211495   2.744   3.440   4.934
 3851TIP3    H111496   2.736   3.532   4.909
 3851TIP3    H211497   2.831   3.433   4.973
 3852TIP3   OH211498   3.827   5.146   2.833
 3852TIP3    H111499   3.837   5.211   2.903
 3852TIP3    H211500   3.741   5.108   2.847
 3853TIP3   OH211501   1.901   3.468   1.793
 3853TIP3    H111502   1.843   3.453   1.868
 3853TIP3    H211503   1.989   3.448   1.826
 3854TIP3   OH211504   1.060   1.427   3.631
 3854TIP3    H111505   1.072   1.364   3.560
 3854TIP3    H211506   1.139   1.419   3.684
 3855TIP3   OH211507   0.770   2.625   4.321
 3855TIP3    H111508   0.852   2.577   4.336
 3855TIP3    H211509   0.702   2.562   4.343
 3856TIP3   OH211510   1.638   6.233   5.632
 3856TIP3    H111511   1.657   6.271   5.718
 3856TIP3    H211512   1.621   6.309   5.576
 3857TIP3   OH211513   3.526   3.670   1.413
 3857TIP3    H111514   3.604   3.631   1.452
 3857TIP3    H211515   3.526   3.761   1.445
 3858TIP3   OH211516   6.080   4.934   2.640
 3858TIP3    H111517   6.107   4.894   2.558
 3858TIP3    H211518   6.160   4.968   2.679
 3859TIP3   OH211519   0.746   4.274   6.026
 3859TIP3    H111520   0.795   4.338   6.078
 3859TIP3    H211521   0.777   4.287   5.936
 3860TIP3   OH211522   7.636   1.633   5.605
 3860TIP3    H111523   7.549   1.594   5.593
 3860TIP3    H211524   7.694   1.558   5.614
 3861TIP3   OH211525   0.106   4.003   1.025
 3861TIP3    H111526   0.200   3.984   1.029
 3861TIP3    H211527   0.093   4.044   0.940
 3862TIP3   OH211528   3.484   4.222   4.488
 3862TIP3    H111529   3.530   4.273   4.554
 3862TIP3    H211530   3.553   4.185   4.434
 3863TIP3   OH211531   5.214   4.684   3.262
 3863TIP3    H111532   5.189   4.669   3.353
 3863TIP3    H211533   5.132   4.672   3.213
 3864TIP3   OH211534   6.303   0.736   1.080
 3864TIP3    H111535   6.351   0.819   1.081
 3864TIP3    H211536   6.211   0.761   1.081
 3865TIP3   OH211537   3.425   6.539   0.770
 3865TIP3    H111538   3.339   6.512   0.738
 3865TIP3    H211539   3.470   6.576   0.694
 3866TIP3   OH211540   3.417   4.194   2.738
 3866TIP3    H111541   3.460   4.109   2.747
 3866TIP3    H211542   3.453   4.231   2.658
 3867TIP3   OH211543   1.713   3.683   2.269
 3867TIP3    H111544   1.660   3.603   2.277
 3867TIP3    H211545   1.667   3.747   2.322
 3868TIP3   OH211546   6.656   4.070   5.050
 3868TIP3    H111547   6.594   4.117   4.994
 3868TIP3    H211548   6.626   3.980   5.049
 3869TIP3   OH211549   0.095   1.002   4.285
 3869TIP3    H111550   0.020   1.053   4.258
 3869TIP3    H211551   0.131   1.050   4.359
 3870TIP3   OH211552   3.247   1.128   0.190
 3870TIP3    H111553   3.236   1.093   0.279
 3870TIP3    H211554   3.177   1.086   0.139
 3871TIP3   OH211555   4.355   5.750   4.453
 3871TIP3    H111556   4.324   5.781   4.538
 3871TIP3    H211557   4.353   5.827   4.397
 3872TIP3   OH211558   1.375   7.582   6.095
 3872TIP3    H111559   1.327   7.515   6.045
 3872TIP3    H211560   1.421   7.633   6.028
 3873TIP3   OH211561   0.634   2.064   5.254
 3873TIP3    H111562   0.604   2.037   5.341
 3873TIP3    H211563   0.659   2.156   5.264
 3874TIP3   OH211564   3.155   7.465   2.412
 3874TIP3    H111565   3.150   7.383   2.462
 3874TIP3    H211566   3.203   7.525   2.469
 3875TIP3   OH211567   1.212  -0.001   4.993
 3875TIP3    H111568   1.213   0.082   4.945
 3875TIP3    H211569   1.278  -0.054   4.948
 3876TIP3   OH211570   0.722   4.887   3.800
 3876TIP3    H111571   0.742   4.929   3.717
 3876TIP3    H211572   0.628   4.866   3.794
 3877TIP3   OH211573   8.075   6.345   6.738
 3877TIP3    H111574   8.085   6.440   6.736
 3877TIP3    H211575   8.142   6.312   6.677
 3878TIP3   OH211576   0.641   6.428   1.065
 3878TIP3    H111577   0.546   6.442   1.063
 3878TIP3    H211578   0.673   6.469   0.985
 3879TIP3   OH211579   4.891   0.956   6.010
 3879TIP3    H111580   4.887   1.043   5.971
 3879TIP3    H211581   4.931   0.901   5.944
 3880TIP3   OH211582   0.728   7.389   2.144
 3880TIP3    H111583   0.776   7.393   2.062
 3880TIP3    H211584   0.763   7.311   2.189
 3881TIP3   OH211585   2.986   5.185   4.946
 3881TIP3    H111586   3.026   5.216   4.865
 3881TIP3    H211587   2.921   5.120   4.917
 3882TIP3   OH211588   2.128   1.897   3.294
 3882TIP3    H111589   2.053   1.948   3.264
 3882TIP3    H211590   2.107   1.874   3.384
 3883TIP3   OH211591   4.601   6.361   6.568
 3883TIP3    H111592   4.549   6.281   6.565
 3883TIP3    H211593   4.537   6.432   6.574
 3884TIP3   OH211594   4.966   2.664   1.775
 3884TIP3    H111595   5.034   2.608   1.735
 3884TIP3    H211596   4.961   2.740   1.717
 3885TIP3   OH211597   1.413   2.153   4.436
 3885TIP3    H111598   1.478   2.221   4.419
 3885TIP3    H211599   1.329   2.196   4.421
 3886TIP3   OH211600   3.685   6.855   5.884
 3886TIP3    H111601   3.712   6.939   5.848
 3886TIP3    H211602   3.606   6.831   5.835
 3887TIP3   OH211603   7.705   2.940   4.893
 3887TIP3    H111604   7.692   2.893   4.975
 3887TIP3    H211605   7.689   3.032   4.916
 3888TIP3   OH211606   6.577   1.358   0.233
 3888TIP3    H111607   6.521   1.347   0.157
 3888TIP3    H211608   6.546   1.293   0.296
 3889TIP3   OH211609   3.064   2.487   2.232
 3889TIP3    H111610   3.058   2.582   2.237
 3889TIP3    H211611   3.149   2.470   2.191
 3890TIP3   OH211612   2.010   5.578   3.074
 3890TIP3    H111613   2.088   5.633   3.074
 3890TIP3    H211614   1.940   5.637   3.104
 3891TIP3   OH211615   2.847   5.040   4.348
 3891TIP3    H111616   2.809   5.128   4.342
 3891TIP3    H211617   2.891   5.027   4.264
 3892TIP3   OH211618   6.389   0.209   5.611
 3892TIP3    H111619   6.454   0.209   5.681
 3892TIP3    H211620   6.375   0.116   5.592
 3893TIP3   OH211621   3.185   0.266   2.344
 3893TIP3    H111622   3.150   0.207   2.277
 3893TIP3    H211623   3.119   0.265   2.413
 3894TIP3   OH211624   3.319   7.477   6.617
 3894TIP3    H111625   3.234   7.474   6.661
 3894TIP3    H211626   3.380   7.506   6.685
 3895TIP3   OH211627   3.040   5.343   0.025
 3895TIP3    H111628   3.034   5.392   0.108
 3895TIP3    H211629   3.133   5.323   0.017
 3896TIP3   OH211630   3.923   6.815   6.304
 3896TIP3    H111631   3.892   6.899   6.338
 3896TIP3    H211632   3.900   6.817   6.211
 3897TIP3   OH211633   0.960   3.357   4.373
 3897TIP3    H111634   0.911   3.324   4.448
 3897TIP3    H211635   0.920   3.441   4.353
 3898TIP3   OH211636   6.611   1.045   2.165
 3898TIP3    H111637   6.691   1.095   2.149
 3898TIP3    H211638   6.640   0.965   2.209
 3899TIP3   OH211639   2.499   6.199   0.859
 3899TIP3    H111640   2.568   6.199   0.926
 3899TIP3    H211641   2.491   6.290   0.831
 3900TIP3   OH211642   6.887   5.943   1.329
 3900TIP3    H111643   6.842   5.859   1.341
 3900TIP3    H211644   6.827   5.995   1.275
 3901TIP3   OH211645   1.434   3.291   4.819
 3901TIP3    H111646   1.463   3.259   4.734
 3901TIP3    H211647   1.407   3.213   4.867
 3902TIP3   OH211648   6.977   0.041   2.944
 3902TIP3    H111649   6.914   0.089   2.891
 3902TIP3    H211650   6.981  -0.046   2.903
 3903TIP3   OH211651   1.230   7.566   5.019
 3903TIP3    H111652   1.232   7.585   5.113
 3903TIP3    H211653   1.275   7.482   5.011
 3904TIP3   OH211654   5.901   5.165   5.395
 3904TIP3    H111655   5.872   5.117   5.473
 3904TIP3    H211656   5.820   5.200   5.358
 3905TIP3   OH211657   6.615   6.578   6.657
 3905TIP3    H111658   6.550   6.590   6.588
 3905TIP3    H211659   6.564   6.583   6.739
 3906TIP3   OH211660   0.061   2.882   0.259
 3906TIP3    H111661   0.121   2.954   0.239
 3906TIP3    H211662   0.092   2.809   0.205
 3907TIP3   OH211663   4.691   2.928   4.944
 3907TIP3    H111664   4.785   2.916   4.954
 3907TIP3    H211665   4.681   2.983   4.866
 3908TIP3   OH211666   5.113   0.323   0.665
 3908TIP3    H111667   5.104   0.374   0.585
 3908TIP3    H211668   5.177   0.255   0.643
 3909TIP3   OH211669   6.283   3.155   6.244
 3909TIP3    H111670   6.270   3.241   6.204
 3909TIP3    H211671   6.329   3.103   6.178
 3910TIP3   OH211672   2.265   0.737   3.515
 3910TIP3    H111673   2.275   0.766   3.606
 3910TIP3    H211674   2.216   0.806   3.473
 3911TIP3   OH211675   0.552   7.102   2.075
 3911TIP3    H111676   0.496   7.027   2.094
 3911TIP3    H211677   0.629   7.089   2.131
 3912TIP3   OH211678   1.613   7.676   1.461
 3912TIP3    H111679   1.648   7.613   1.524
 3912TIP3    H211680   1.622   7.761   1.504
 3913TIP3   OH211681   2.297   3.805   6.403
 3913TIP3    H111682   2.339   3.721   6.389
 3913TIP3    H211683   2.257   3.798   6.490
 3914TIP3   OH211684   8.288   0.375   2.190
 3914TIP3    H111685   8.288   0.338   2.278
 3914TIP3    H211686   8.351   0.322   2.142
 3915TIP3   OH211687   6.211   1.955   0.404
 3915TIP3    H111688   6.297   1.925   0.375
 3915TIP3    H211689   6.220   2.050   0.414
 3916TIP3   OH211690   6.509   5.088   6.693
 3916TIP3    H111691   6.486   5.125   6.778
 3916TIP3    H211692   6.444   5.019   6.678
 3917TIP3   OH211693   7.535   1.943   2.341
 3917TIP3    H111694   7.596   1.994   2.287
 3917TIP3    H211695   7.591   1.882   2.389
 3918TIP3   OH211696   1.824   3.669   0.107
 3918TIP3    H111697   1.899   3.627   0.148
 3918TIP3    H211698   1.774   3.596   0.069
 3919TIP3   OH211699   7.114   1.491   3.208
 3919TIP3    H111700   7.131   1.525   3.296
 3919TIP3    H211701   7.187   1.432   3.190
 3920TIP3   OH211702   7.227   2.465   1.195
 3920TIP3    H111703   7.301   2.442   1.140
 3920TIP3    H211704   7.262   2.530   1.256
 3921TIP3   OH211705   0.007   3.361   5.825
 3921TIP3    H111706   0.014   3.423   5.752
 3921TIP3    H211707   0.076   3.388   5.885
 3922TIP3   OH211708   6.185   7.070   2.688
 3922TIP3    H111709   6.205   7.118   2.607
 3922TIP3    H211710   6.106   7.113   2.722
 3923TIP3   OH211711   4.051   0.510   3.670
 3923TIP3    H111712   4.087   0.521   3.757
 3923TIP3    H211713   3.995   0.432   3.677
 3924TIP3   OH211714   3.348   6.562   1.744
 3924TIP3    H111715   3.428   6.560   1.691
 3924TIP3    H211716   3.323   6.470   1.753
 3925TIP3   OH211717   3.438   7.098   5.933
 3925TIP3    H111718   3.442   7.116   5.839
 3925TIP3    H211719   3.440   7.184   5.974
 3926TIP3   OH211720   1.390   3.818   5.109
 3926TIP3    H111721   1.305   3.774   5.114
 3926TIP3    H211722   1.368   3.910   5.098
 3927TIP3   OH211723   2.655   1.172   6.559
 3927TIP3    H111724   2.700   1.107   6.614
 3927TIP3    H211725   2.715   1.247   6.558
 3928TIP3   OH211726   5.629   1.668   2.455
 3928TIP3    H111727   5.583   1.585   2.465
 3928TIP3    H211728   5.715   1.645   2.421
 3929TIP3   OH211729   7.327   6.199   6.238
 3929TIP3    H111730   7.371   6.126   6.282
 3929TIP3    H211731   7.266   6.158   6.177
 3930TIP3   OH211732   7.411   3.316   4.020
 3930TIP3    H111733   7.437   3.406   3.998
 3930TIP3    H211734   7.316   3.315   4.009
 3931TIP3   OH211735   5.216   1.040   1.213
 3931TIP3    H111736   5.123   1.055   1.228
 3931TIP3    H211737   5.256   1.049   1.299
 3932TIP3   OH211738   5.376   6.826   4.921
 3932TIP3    H111739   5.467   6.823   4.950
 3932TIP3    H211740   5.330   6.766   4.980
 3933TIP3   OH211741   0.524   4.141   1.303
 3933TIP3    H111742   0.486   4.055   1.283
 3933TIP3    H211743   0.531   4.143   1.398
 3934TIP3   OH211744   6.006   6.803   4.510
 3934TIP3    H111745   5.923   6.781   4.551
 3934TIP3    H211746   6.040   6.719   4.478
 3935TIP3   OH211747   2.238   6.450   2.465
 3935TIP3    H111748   2.302   6.399   2.516
 3935TIP3    H211749   2.289   6.486   2.393
 3936TIP3   OH211750   7.377   0.716   0.358
 3936TIP3    H111751   7.307   0.672   0.407
 3936TIP3    H211752   7.377   0.806   0.392
 3937TIP3   OH211753   7.178   4.302   2.811
 3937TIP3    H111754   7.094   4.321   2.852
 3937TIP3    H211755   7.199   4.213   2.840
 3938TIP3   OH211756   5.206   1.605   5.715
 3938TIP3    H111757   5.208   1.695   5.682
 3938TIP3    H211758   5.133   1.604   5.777
 3939TIP3   OH211759   4.674   4.036   3.433
 3939TIP3    H111760   4.672   4.131   3.424
 3939TIP3    H211761   4.662   4.003   3.344
 3940TIP3   OH211762   4.182   0.512   4.586
 3940TIP3    H111763   4.202   0.419   4.595
 3940TIP3    H211764   4.168   0.524   4.492
 3941TIP3   OH211765   0.781   3.736   2.404
 3941TIP3    H111766   0.698   3.769   2.371
 3941TIP3    H211767   0.770   3.732   2.499
 3942TIP3   OH211768   1.078   3.897   6.636
 3942TIP3    H111769   1.083   3.983   6.677
 3942TIP3    H211770   0.996   3.860   6.669
 3943TIP3   OH211771   0.487   4.602   5.554
 3943TIP3    H111772   0.451   4.648   5.478
 3943TIP3    H211773   0.410   4.575   5.604
 3944TIP3   OH211774   7.221   5.760   3.002
 3944TIP3    H111775   7.227   5.810   3.083
 3944TIP3    H211776   7.176   5.818   2.941
 3945TIP3   OH211777   4.459   5.400   0.197
 3945TIP3    H111778   4.486   5.469   0.257
 3945TIP3    H211779   4.407   5.341   0.251
 3946TIP3   OH211780   1.113   7.286   5.398
 3946TIP3    H111781   1.136   7.321   5.484
 3946TIP3    H211782   1.192   7.239   5.370
 3947TIP3   OH211783   8.031   1.473   2.565
 3947TIP3    H111784   8.041   1.531   2.640
 3947TIP3    H211785   8.021   1.386   2.603
 3948TIP3   OH211786   5.474   1.019   6.191
 3948TIP3    H111787   5.421   0.954   6.237
 3948TIP3    H211788   5.440   1.018   6.102
 3949TIP3   OH211789   1.884   6.158   4.040
 3949TIP3    H111790   1.826   6.232   4.020
 3949TIP3    H211791   1.972   6.196   4.039
 3950TIP3   OH211792   1.277   2.218   5.816
 3950TIP3    H111793   1.215   2.182   5.880
 3950TIP3    H211794   1.267   2.313   5.823
 3951TIP3   OH211795   8.112   5.254   2.207
 3951TIP3    H111796   8.022   5.263   2.237
 3951TIP3    H211797   8.138   5.166   2.234
 3952TIP3   OH211798   8.224   3.735   4.445
 3952TIP3    H111799   8.263   3.780   4.519
 3952TIP3    H211800   8.131   3.757   4.451
 3953TIP3   OH211801   0.935   2.477   2.520
 3953TIP3    H111802   0.960   2.385   2.515
 3953TIP3    H211803   0.852   2.477   2.568
 3954TIP3   OH211804   1.237   6.921   4.745
 3954TIP3    H111805   1.249   6.948   4.654
 3954TIP3    H211806   1.166   6.977   4.778
 3955TIP3   OH211807   3.671   6.235   2.525
 3955TIP3    H111808   3.635   6.209   2.440
 3955TIP3    H211809   3.604   6.207   2.588
 3956TIP3   OH211810   1.589   5.025   4.548
 3956TIP3    H111811   1.587   4.982   4.463
 3956TIP3    H211812   1.627   4.961   4.607
 3957TIP3   OH211813   7.359   0.703   5.945
 3957TIP3    H111814   7.420   0.718   6.016
 3957TIP3    H211815   7.342   0.790   5.908
 3958TIP3   OH211816   4.487   5.630   4.793
 3958TIP3    H111817   4.447   5.713   4.817
 3958TIP3    H211818   4.574   5.654   4.759
 3959TIP3   OH211819   6.821   5.493   0.499
 3959TIP3    H111820   6.878   5.418   0.516
 3959TIP3    H211821   6.830   5.548   0.578
 3960TIP3   OH211822   6.367   7.173   4.734
 3960TIP3    H111823   6.385   7.220   4.653
 3960TIP3    H211824   6.321   7.093   4.706
 3961TIP3   OH211825   7.273   2.262   0.423
 3961TIP3    H111826   7.201   2.199   0.414
 3961TIP3    H211827   7.325   2.229   0.496
 3962TIP3   OH211828   4.432   4.732   1.331
 3962TIP3    H111829   4.475   4.651   1.304
 3962TIP3    H211830   4.365   4.705   1.393
 3963TIP3   OH211831   3.081   4.775   6.620
 3963TIP3    H111832   3.026   4.713   6.669
 3963TIP3    H211833   3.161   4.726   6.602
 3964TIP3   OH211834   7.078   4.812   4.418
 3964TIP3    H111835   7.163   4.842   4.451
 3964TIP3    H211836   7.067   4.858   4.335
 3965TIP3   OH211837   7.801   1.170   4.518
 3965TIP3    H111838   7.747   1.104   4.474
 3965TIP3    H211839   7.873   1.119   4.557
 3966TIP3   OH211840   8.087   0.386   1.632
 3966TIP3    H111841   8.134   0.348   1.706
 3966TIP3    H211842   8.037   0.458   1.670
 3967TIP3   OH211843   1.044   3.547   2.716
 3967TIP3    H111844   1.114   3.512   2.771
 3967TIP3    H211845   1.088   3.577   2.637
 3968TIP3   OH211846   7.999   5.079   4.178
 3968TIP3    H111847   7.929   5.050   4.236
 3968TIP3    H211848   8.009   5.172   4.197
 3969TIP3   OH211849   4.678   6.271   5.916
 3969TIP3    H111850   4.622   6.318   5.853
 3969TIP3    H211851   4.699   6.336   5.983
 3970TIP3   OH211852   6.149   5.957   3.014
 3970TIP3    H111853   6.176   6.045   3.039
 3970TIP3    H211854   6.181   5.901   3.085
 3971TIP3   OH211855   6.417   3.558   5.839
 3971TIP3    H111856   6.440   3.618   5.910
 3971TIP3    H211857   6.499   3.547   5.791
 3972TIP3   OH211858   0.733   3.821   1.182
 3972TIP3    H111859   0.828   3.812   1.174
 3972TIP3    H211860   0.712   3.900   1.133
 3973TIP3   OH211861   5.106   2.669   3.593
 3973TIP3    H111862   5.136   2.760   3.601
 3973TIP3    H211863   5.135   2.642   3.506
 3974TIP3   OH211864   8.171   7.283   5.163
 3974TIP3    H111865   8.247   7.332   5.131
 3974TIP3    H211866   8.207   7.226   5.231
 3975TIP3   OH211867   2.189   0.851   1.472
 3975TIP3    H111868   2.251   0.831   1.403
 3975TIP3    H211869   2.115   0.794   1.455
 3976TIP3   OH211870   5.172   4.372   2.863
 3976TIP3    H111871   5.245   4.310   2.866
 3976TIP3    H211872   5.212   4.457   2.880
 3977TIP3   OH211873   3.658   1.096   5.475
 3977TIP3    H111874   3.669   1.068   5.384
 3977TIP3    H211875   3.612   1.023   5.517
 3978TIP3   OH211876   2.936   6.748   4.636
 3978TIP3    H111877   3.002   6.715   4.697
 3978TIP3    H211878   2.974   6.733   4.550
 3979TIP3   OH211879   1.347   0.649   3.868
 3979TIP3    H111880   1.375   0.562   3.897
 3979TIP3    H211881   1.262   0.662   3.910
 3980TIP3   OH211882   0.927   5.736   0.796
 3980TIP3    H111883   0.961   5.710   0.711
 3980TIP3    H211884   1.005   5.752   0.849
 3981TIP3   OH211885   1.590   0.349   2.337
 3981TIP3    H111886   1.644   0.425   2.358
 3981TIP3    H211887   1.556   0.319   2.421
 3982TIP3   OH211888   2.462   3.158   0.020
 3982TIP3    H111889   2.454   3.095   0.091
 3982TIP3    H211890   2.530   3.219   0.050
 3983TIP3   OH211891   1.688   2.058   5.710
 3983TIP3    H111892   1.596   2.033   5.703
 3983TIP3    H211893   1.707   2.053   5.804
 3984TIP3   OH211894   0.438   1.507   6.166
 3984TIP3    H111895   0.481   1.439   6.114
 3984TIP3    H211896   0.484   1.587   6.144
 3985TIP3   OH211897   0.515   0.161   4.200
 3985TIP3    H111898   0.432   0.116   4.187
 3985TIP3    H211899   0.515   0.231   4.134
 3986TIP3   OH211900   3.653   4.527   2.807
 3986TIP3    H111901   3.686   4.511   2.896
 3986TIP3    H211902   3.697   4.462   2.753
 3987TIP3   OH211903   6.449   3.036   6.055
 3987TIP3    H111904   6.428   3.081   5.973
 3987TIP3    H211905   6.541   3.012   6.046
 3988TIP3   OH211906   1.463   2.313   1.922
 3988TIP3    H111907   1.436   2.256   1.994
 3988TIP3    H211908   1.529   2.371   1.960
 3989TIP3   OH211909   2.107   6.893   1.876
 3989TIP3    H111910   2.016   6.867   1.860
 3989TIP3    H211911   2.155   6.811   1.878
 3990TIP3   OH211912   5.970   5.603   4.127
 3990TIP3    H111913   5.984   5.511   4.103
 3990TIP3    H211914   6.014   5.613   4.211
 3991TIP3   OH211915   5.043   1.613   5.491
 3991TIP3    H111916   5.110   1.545   5.492
 3991TIP3    H211917   4.991   1.596   5.569
 3992TIP3   OH211918   3.883   3.376   6.603
 3992TIP3    H111919   3.859   3.447   6.543
 3992TIP3    H211920   3.953   3.329   6.559
 3993TIP3   OH211921   6.727   5.544   6.223
 3993TIP3    H111922   6.739   5.579   6.312
 3993TIP3    H211923   6.685   5.459   6.236
 3994TIP3   OH211924   8.034   3.956   5.642
 3994TIP3    H111925   8.052   3.981   5.732
 3994TIP3    H211926   8.023   4.039   5.595
 3995TIP3   OH211927   3.057   4.686   1.602
 3995TIP3    H111928   3.040   4.722   1.689
 3995TIP3    H211929   3.149   4.708   1.584
 3996TIP3   OH211930   2.463   3.016   1.148
 3996TIP3    H111931   2.411   2.938   1.127
 3996TIP3    H211932   2.435   3.040   1.236
 3997TIP3   OH211933   2.524   2.436   0.315
 3997TIP3    H111934   2.540   2.460   0.224
 3997TIP3    H211935   2.433   2.462   0.331
 3998TIP3   OH211936   2.687   0.383   0.426
 3998TIP3    H111937   2.709   0.472   0.401
 3998TIP3    H211938   2.753   0.359   0.492
 3999TIP3   OH211939   5.570   4.660   5.332
 3999TIP3    H111940   5.570   4.658   5.236
 3999TIP3    H211941   5.486   4.701   5.355
 4000TIP3   OH211942   0.724   7.239   5.566
 4000TIP3    H111943   0.632   7.213   5.570
 4000TIP3    H211944   0.750   7.220   5.476
 4001TIP3   OH211945   2.800   6.337   4.625
 4001TIP3    H111946   2.769   6.372   4.541
 4001TIP3    H211947   2.877   6.285   4.602
 4002TIP3   OH211948   4.920   6.497   0.326
 4002TIP3    H111949   4.991   6.449   0.368
 4002TIP3    H211950   4.947   6.506   0.235
 4003TIP3   OH211951   3.680   0.634   4.044
 4003TIP3    H111952   3.705   0.585   3.965
 4003TIP3    H211953   3.692   0.571   4.115
 4004TIP3   OH211954   0.832   4.170   5.502
 4004TIP3    H111955   0.889   4.237   5.539
 4004TIP3    H211956   0.809   4.114   5.576
 4005TIP3   OH211957   6.090   5.134   2.338
 4005TIP3    H111958   6.124   5.172   2.419
 4005TIP3    H211959   6.058   5.047   2.363
 4006TIP3   OH211960   1.239   5.374   2.312
 4006TIP3    H111961   1.259   5.433   2.240
 4006TIP3    H211962   1.305   5.393   2.378
 4007TIP3   OH211963   4.475   6.880   0.538
 4007TIP3    H111964   4.483   6.796   0.493
 4007TIP3    H211965   4.515   6.943   0.478
 4008TIP3   OH211966   4.100   2.541   0.865
 4008TIP3    H111967   4.116   2.518   0.773
 4008TIP3    H211968   4.139   2.470   0.915
 4009TIP3   OH211969   1.084   7.263   5.127
 4009TIP3    H111970   1.079   7.301   5.215
 4009TIP3    H211971   1.171   7.286   5.095
 4010TIP3   OH211972   4.261   5.761   2.497
 4010TIP3    H111973   4.319   5.792   2.427
 4010TIP3    H211974   4.182   5.815   2.488
 4011TIP3   OH211975   1.996   1.663   0.208
 4011TIP3    H111976   1.929   1.670   0.275
 4011TIP3    H211977   2.034   1.576   0.221
 4012TIP3   OH211978   5.132   1.547   5.991
 4012TIP3    H111979   5.146   1.545   6.085
 4012TIP3    H211980   5.114   1.639   5.970
 4013TIP3   OH211981   7.795   1.304   2.391
 4013TIP3    H111982   7.753   1.348   2.318
 4013TIP3    H211983   7.851   1.371   2.430
 4014TIP3   OH211984   1.428   2.582   0.613
 4014TIP3    H111985   1.402   2.567   0.704
 4014TIP3    H211986   1.350   2.617   0.571
 4015TIP3   OH211987   7.977   4.601   5.831
 4015TIP3    H111988   8.071   4.588   5.816
 4015TIP3    H211989   7.972   4.679   5.885
 4016TIP3   OH211990   7.458   4.138   2.564
 4016TIP3    H111991   7.478   4.064   2.620
 4016TIP3    H211992   7.419   4.099   2.485
 4017TIP3   OH211993   0.634   3.037   3.674
 4017TIP3    H111994   0.699   2.974   3.706
 4017TIP3    H211995   0.683   3.094   3.615
 4018TIP3   OH211996   3.523   2.868   0.412
 4018TIP3    H111997   3.578   2.792   0.428
 4018TIP3    H211998   3.449   2.834   0.362
 4019TIP3   OH211999   2.070   7.664   5.596
 4019TIP3    H112000   2.024   7.679   5.514
 4019TIP3    H212001   2.065   7.569   5.609
 4020TIP3   OH212002   1.191   0.832   3.501
 4020TIP3    H112003   1.224   0.749   3.536
 4020TIP3    H212004   1.174   0.885   3.579
 4021TIP3   OH212005   4.887   1.018   4.075
 4021TIP3    H112006   4.799   1.015   4.114
 4021TIP3    H212007   4.895   0.935   4.027
 4022TIP3   OH212008   1.753   5.621   2.853
 4022TIP3    H112009   1.760   5.563   2.929
 4022TIP3    H212010   1.843   5.626   2.818
 4023TIP3   OH212011   0.204   1.132   6.480
 4023TIP3    H112012   0.273   1.141   6.547
 4023TIP3    H212013   0.251   1.125   6.397
 4024TIP3   OH212014   6.397   6.391   3.144
 4024TIP3    H112015   6.413   6.457   3.211
 4024TIP3    H212016   6.449   6.420   3.069
 4025TIP3   OH212017   6.434   0.975   0.564
 4025TIP3    H112018   6.365   1.042   0.561
 4025TIP3    H212019   6.411   0.914   0.494
 4026TIP3   OH212020   7.597   6.549   3.730
 4026TIP3    H112021   7.654   6.572   3.657
 4026TIP3    H212022   7.649   6.490   3.784
 4027TIP3   OH212023   5.141   0.796   1.084
 4027TIP3    H112024   5.133   0.882   1.125
 4027TIP3    H212025   5.073   0.743   1.124
 4028TIP3   OH212026   1.548   4.968   6.549
 4028TIP3    H112027   1.529   5.040   6.609
 4028TIP3    H212028   1.518   4.889   6.594
 4029TIP3   OH212029   5.257   6.899   3.903
 4029TIP3    H112030   5.223   6.889   3.992
 4029TIP3    H212031   5.195   6.852   3.847
 4030TIP3   OH212032   1.799   5.758   0.025
 4030TIP3    H112033   1.759   5.720   0.103
 4030TIP3    H212034   1.749   5.838   0.009
 4031TIP3   OH212035   0.523   6.225   0.366
 4031TIP3    H112036   0.508   6.308   0.321
 4031TIP3    H212037   0.520   6.159   0.297
 4032TIP3   OH212038   0.962   2.980   4.173
 4032TIP3    H112039   1.000   2.900   4.136
 4032TIP3    H212040   1.033   3.019   4.223
 4033TIP3   OH212041   3.294   1.882   0.059
 4033TIP3    H112042   3.210   1.890   0.106
 4033TIP3    H212043   3.320   1.972   0.042
 4034TIP3   OH212044   3.452   0.120   5.251
 4034TIP3    H112045   3.538   0.086   5.222
 4034TIP3    H212046   3.430   0.186   5.185
 4035TIP3   OH212047   0.663   4.769   0.073
 4035TIP3    H112048   0.714   4.777   0.154
 4035TIP3    H212049   0.614   4.851   0.067
 4036TIP3   OH212050   7.543   4.017   6.188
 4036TIP3    H112051   7.526   4.107   6.217
 4036TIP3    H212052   7.582   3.975   6.264
 4037TIP3   OH212053   5.005   6.739   2.667
 4037TIP3    H112054   4.980   6.791   2.744
 4037TIP3    H212055   5.056   6.800   2.613
 4038TIP3   OH212056   7.729   0.071   4.884
 4038TIP3    H112057   7.702   0.034   4.968
 4038TIP3    H212058   7.825   0.067   4.886
 4039TIP3   OH212059   6.184   7.313   5.289
 4039TIP3    H112060   6.195   7.218   5.279
 4039TIP3    H212061   6.252   7.351   5.233
 4040TIP3   OH212062   8.113   5.666   2.140
 4040TIP3    H112063   8.164   5.744   2.162
 4040TIP3    H212064   8.130   5.652   2.047
 4041TIP3   OH212065   7.398   6.828   5.807
 4041TIP3    H112066   7.421   6.909   5.853
 4041TIP3    H212067   7.333   6.786   5.863
 4042TIP3   OH212068   2.520   3.189   2.407
 4042TIP3    H112069   2.611   3.207   2.383
 4042TIP3    H212070   2.502   3.103   2.371
 4043TIP3   OH212071   4.342   6.491   2.838
 4043TIP3    H112072   4.279   6.561   2.856
 4043TIP3    H212073   4.379   6.513   2.752
 4044TIP3   OH212074   3.133   2.497   1.015
 4044TIP3    H112075   3.145   2.476   1.107
 4044TIP3    H212076   3.038   2.491   1.001
 4045TIP3   OH212077   7.465   5.432   0.901
 4045TIP3    H112078   7.409   5.355   0.898
 4045TIP3    H212079   7.472   5.453   0.994
 4046TIP3   OH212080   5.170   1.067   1.811
 4046TIP3    H112081   5.095   1.019   1.775
 4046TIP3    H212082   5.238   1.057   1.745
 4047TIP3   OH212083   8.218   2.157   3.022
 4047TIP3    H112084   8.191   2.092   3.087
 4047TIP3    H212085   8.289   2.205   3.065
 4048TIP3   OH212086   4.478   0.709   2.231
 4048TIP3    H112087   4.411   0.776   2.217
 4048TIP3    H212088   4.429   0.627   2.239
 4049TIP3   OH212089   0.166   2.283   2.870
 4049TIP3    H112090   0.193   2.192   2.857
 4049TIP3    H212091   0.073   2.277   2.892
 4050TIP3   OH212092   1.495   4.065   3.309
 4050TIP3    H112093   1.484   4.003   3.380
 4050TIP3    H212094   1.544   4.138   3.348
 4051TIP3   OH212095   4.125   6.086   4.528
 4051TIP3    H112096   4.110   6.038   4.447
 4051TIP3    H212097   4.124   6.179   4.503
 4052TIP3   OH212098   7.524   4.914   1.998
 4052TIP3    H112099   7.465   4.979   1.960
 4052TIP3    H212100   7.467   4.840   2.020
 4053TIP3   OH212101   4.613   4.773   0.364
 4053TIP3    H112102   4.573   4.699   0.319
 4053TIP3    H212103   4.542   4.809   0.419
 4054TIP3   OH212104   4.578   0.507   6.201
 4054TIP3    H112105   4.519   0.581   6.186
 4054TIP3    H212106   4.666   0.544   6.191
 4055TIP3   OH212107   5.015   1.585   2.108
 4055TIP3    H112108   5.089   1.631   2.070
 4055TIP3    H212109   4.980   1.645   2.173
 4056TIP3   OH212110   3.257   3.551   5.913
 4056TIP3    H112111   3.226   3.528   6.001
 4056TIP3    H212112   3.329   3.612   5.928
 4057TIP3   OH212113   3.279   5.549   5.947
 4057TIP3    H112114   3.183   5.552   5.955
 4057TIP3    H212115   3.293   5.510   5.860
 4058TIP3   OH212116   0.123   6.769   1.216
 4058TIP3    H112117   0.195   6.715   1.184
 4058TIP3    H212118   0.151   6.798   1.303
 4059TIP3   OH212119   2.812   4.231   5.264
 4059TIP3    H112120   2.897   4.195   5.237
 4059TIP3    H212121   2.797   4.305   5.205
 4060TIP3   OH212122   3.804   5.007   2.156
 4060TIP3    H112123   3.807   5.011   2.060
 4060TIP3    H212124   3.715   5.037   2.178
 4061TIP3   OH212125   0.942   0.909   4.121
 4061TIP3    H112126   0.971   0.868   4.203
 4061TIP3    H212127   0.861   0.862   4.099
 4062TIP3   OH212128   3.789   6.027   4.908
 4062TIP3    H112129   3.815   6.107   4.953
 4062TIP3    H212130   3.700   6.044   4.877
 4063TIP3   OH212131   3.622   5.266   6.647
 4063TIP3    H112132   3.641   5.360   6.647
 4063TIP3    H212133   3.692   5.227   6.594
 4064TIP3   OH212134   4.891   0.575   0.355
 4064TIP3    H112135   4.817   0.634   0.368
 4064TIP3    H212136   4.873   0.531   0.272
 4065TIP3   OH212137   1.960   1.890   5.722
 4065TIP3    H112138   1.994   1.965   5.771
 4065TIP3    H212139   1.878   1.867   5.767
 4066TIP3   OH212140   6.097   0.848   1.685
 4066TIP3    H112141   6.020   0.903   1.697
 4066TIP3    H212142   6.135   0.877   1.602
 4067TIP3   OH212143   1.353   5.427   4.484
 4067TIP3    H112144   1.387   5.470   4.562
 4067TIP3    H212145   1.351   5.496   4.418
 4068TIP3   OH212146   5.246   6.130   5.462
 4068TIP3    H112147   5.224   6.197   5.398
 4068TIP3    H212148   5.278   6.178   5.538
 4069TIP3   OH212149   3.755   1.339   1.282
 4069TIP3    H112150   3.720   1.251   1.272
 4069TIP3    H212151   3.843   1.335   1.245
 4070TIP3   OH212152   7.805   5.039   4.682
 4070TIP3    H112153   7.768   5.005   4.600
 4070TIP3    H212154   7.855   5.116   4.655
 4071TIP3   OH212155   6.951   4.760   0.924
 4071TIP3    H112156   6.984   4.778   1.012
 4071TIP3    H212157   6.920   4.669   0.927
 4072TIP3   OH212158   7.495   3.958   3.601
 4072TIP3    H112159   7.587   3.974   3.581
 4072TIP3    H212160   7.447   3.990   3.525
 4073TIP3   OH212161   5.368   3.738   5.034
 4073TIP3    H112162   5.412   3.766   4.954
 4073TIP3    H212163   5.411   3.789   5.103
 4074TIP3   OH212164   0.668   7.677   5.035
 4074TIP3    H112165   0.763   7.668   5.033
 4074TIP3    H212166   0.653   7.771   5.029
 4075TIP3   OH212167   4.705   0.818   5.000
 4075TIP3    H112168   4.753   0.738   4.981
 4075TIP3    H212169   4.701   0.864   4.916
 4076TIP3   OH212170   5.601   1.911   5.432
 4076TIP3    H112171   5.579   1.906   5.339
 4076TIP3    H212172   5.527   1.870   5.476
 4077TIP3   OH212173   7.776   0.109   6.273
 4077TIP3    H112174   7.810   0.155   6.350
 4077TIP3    H212175   7.684   0.135   6.268
 4078TIP3   OH212176   6.279   3.994   5.918
 4078TIP3    H112177   6.292   4.064   5.854
 4078TIP3    H212178   6.281   3.913   5.866
 4079TIP3   OH212179   5.232   4.853   3.531
 4079TIP3    H112180   5.206   4.905   3.455
 4079TIP3    H212181   5.295   4.909   3.577
 4080TIP3   OH212182   2.902   3.982   2.707
 4080TIP3    H112183   2.921   3.900   2.661
 4080TIP3    H212184   2.884   4.045   2.637
 4081TIP3   OH212185   7.811   1.482   0.890
 4081TIP3    H112186   7.826   1.487   0.796
 4081TIP3    H212187   7.806   1.389   0.909
 4082TIP3   OH212188   2.497   3.907   4.666
 4082TIP3    H112189   2.539   3.870   4.744
 4082TIP3    H212190   2.426   3.846   4.646
 4083TIP3   OH212191   4.153   1.529   5.598
 4083TIP3    H112192   4.196   1.519   5.513
 4083TIP3    H212193   4.219   1.572   5.653
 4084TIP3   OH212194   0.071   2.416   0.772
 4084TIP3    H112195  -0.018   2.387   0.750
 4084TIP3    H212196   0.127   2.364   0.714
 4085TIP3   OH212197   6.496   0.330   0.530
 4085TIP3    H112198   6.412   0.319   0.486
 4085TIP3    H212199   6.557   0.353   0.460
 4086TIP3   OH212200   7.214   1.329   2.321
 4086TIP3    H112201   7.201   1.418   2.290
 4086TIP3    H212202   7.141   1.279   2.283
 4087TIP3   OH212203   2.804   1.575   1.235
 4087TIP3    H112204   2.745   1.549   1.164
 4087TIP3    H212205   2.826   1.666   1.215
 4088TIP3   OH212206   7.899   2.464   1.478
 4088TIP3    H112207   7.876   2.505   1.394
 4088TIP3    H212208   7.862   2.376   1.472
 4089TIP3   OH212209   4.450   4.323   6.050
 4089TIP3    H112210   4.453   4.355   5.960
 4089TIP3    H212211   4.371   4.362   6.088
 4090TIP3   OH212212   8.189   2.952   5.017
 4090TIP3    H112213   8.119   2.887   5.013
 4090TIP3    H212214   8.213   2.968   4.926
 4091TIP3   OH212215   5.643   7.479   4.357
 4091TIP3    H112216   5.627   7.457   4.449
 4091TIP3    H212217   5.563   7.524   4.329
 4092TIP3   OH212218   4.727   0.432   4.041
 4092TIP3    H112219   4.663   0.470   4.101
 4092TIP3    H212220   4.686   0.351   4.011
 4093TIP3   OH212221   4.359   2.432   6.179
 4093TIP3    H112222   4.269   2.433   6.145
 4093TIP3    H212223   4.396   2.350   6.146
 4094TIP3   OH212224   3.704   1.593   2.532
 4094TIP3    H112225   3.714   1.513   2.584
 4094TIP3    H212226   3.786   1.640   2.544
 4095TIP3   OH212227   5.811   4.595   0.559
 4095TIP3    H112228   5.753   4.634   0.624
 4095TIP3    H212229   5.803   4.652   0.483
 4096TIP3   OH212230   5.364   1.126   0.991
 4096TIP3    H112231   5.313   1.093   1.065
 4096TIP3    H212232   5.455   1.109   1.016
 4097TIP3   OH212233   5.446   1.856   6.575
 4097TIP3    H112234   5.381   1.786   6.586
 4097TIP3    H212235   5.525   1.811   6.546
 4098TIP3   OH212236   1.113   4.755   2.719
 4098TIP3    H112237   1.056   4.809   2.773
 4098TIP3    H212238   1.202   4.784   2.741
 4099TIP3   OH212239   5.324   4.304   5.838
 4099TIP3    H112240   5.401   4.331   5.790
 4099TIP3    H212241   5.292   4.384   5.880
 4100TIP3   OH212242   0.028   5.832   2.233
 4100TIP3    H112243   0.114   5.791   2.245
 4100TIP3    H212244   0.048   5.918   2.196
 4101TIP3   OH212245   5.712   6.537   6.566
 4101TIP3    H112246   5.632   6.588   6.579
 4101TIP3    H212247   5.681   6.453   6.530
 4102TIP3   OH212248   2.619   7.138   5.080
 4102TIP3    H112249   2.589   7.138   5.171
 4102TIP3    H212250   2.695   7.080   5.080
 4103TIP3   OH212251   3.607   5.911   5.165
 4103TIP3    H112252   3.649   5.994   5.188
 4103TIP3    H212253   3.521   5.936   5.132
 4104TIP3   OH212254   6.617   1.929   0.865
 4104TIP3    H112255   6.674   1.873   0.917
 4104TIP3    H212256   6.545   1.952   0.924
 4105TIP3   OH212257   3.480   1.522   0.971
 4105TIP3    H112258   3.476   1.603   1.022
 4105TIP3    H212259   3.423   1.461   1.018
 4106TIP3   OH212260   2.387   0.083   3.848
 4106TIP3    H112261   2.291   0.082   3.843
 4106TIP3    H212262   2.415   0.020   3.781
 4107TIP3   OH212263   7.058   6.544   2.882
 4107TIP3    H112264   7.030   6.550   2.973
 4107TIP3    H212265   7.109   6.623   2.867
 4108TIP3   OH212266   7.124   4.301   4.273
 4108TIP3    H112267   7.174   4.370   4.316
 4108TIP3    H212268   7.188   4.259   4.214
 4109TIP3   OH212269   8.048   4.862   0.549
 4109TIP3    H112270   8.036   4.788   0.488
 4109TIP3    H212271   8.120   4.835   0.605
 4110TIP3   OH212272   2.893   6.365   1.204
 4110TIP3    H112273   2.962   6.298   1.205
 4110TIP3    H212274   2.854   6.360   1.291
 4111TIP3   OH212275   8.108   3.221   0.999
 4111TIP3    H112276   8.115   3.128   1.021
 4111TIP3    H212277   8.197   3.247   0.977
 4112TIP3   OH212278   1.727   5.502   4.776
 4112TIP3    H112279   1.809   5.537   4.742
 4112TIP3    H212280   1.724   5.412   4.744
 4113TIP3   OH212281   1.348   6.084   1.490
 4113TIP3    H112282   1.334   6.172   1.525
 4113TIP3    H212283   1.292   6.028   1.544
 4114TIP3   OH212284   6.319   0.782   5.117
 4114TIP3    H112285   6.239   0.818   5.155
 4114TIP3    H212286   6.354   0.724   5.185
 4115TIP3   OH212287   3.427   2.311   1.505
 4115TIP3    H112288   3.452   2.221   1.484
 4115TIP3    H212289   3.494   2.365   1.462
 4116TIP3   OH212290   5.916   5.790   6.195
 4116TIP3    H112291   5.951   5.751   6.275
 4116TIP3    H212292   5.918   5.718   6.131
 4117TIP3   OH212293   7.009   1.175   0.072
 4117TIP3    H112294   6.921   1.189   0.036
 4117TIP3    H212295   7.040   1.263   0.094
 4118TIP3   OH212296   4.670   2.122   4.806
 4118TIP3    H112297   4.630   2.191   4.858
 4118TIP3    H212298   4.759   2.112   4.842
 4119TIP3   OH212299   0.689   5.915   5.376
 4119TIP3    H112300   0.699   6.007   5.352
 4119TIP3    H212301   0.597   5.895   5.356
 4120TIP3   OH212302   3.749   2.094   3.447
 4120TIP3    H112303   3.732   2.049   3.530
 4120TIP3    H212304   3.749   2.024   3.382
 4121TIP3   OH212305   3.483   3.934   2.682
 4121TIP3    H112306   3.464   3.852   2.636
 4121TIP3    H212307   3.569   3.960   2.650
 4122TIP3   OH212308   8.198   6.700   3.724
 4122TIP3    H112309   8.113   6.744   3.713
 4122TIP3    H212310   8.198   6.632   3.657
 4123TIP3   OH212311   5.369   0.001   5.681
 4123TIP3    H112312   5.388  -0.024   5.771
 4123TIP3    H212313   5.289   0.052   5.686
 4124TIP3   OH212314   3.886   0.600   1.253
 4124TIP3    H112315   3.831   0.537   1.299
 4124TIP3    H212316   3.826   0.667   1.221
 4125TIP3   OH212317   6.368   7.511   5.214
 4125TIP3    H112318   6.312   7.562   5.273
 4125TIP3    H212319   6.317   7.501   5.134
 4126TIP3   OH212320   0.449   5.925   0.479
 4126TIP3    H112321   0.424   5.834   0.462
 4126TIP3    H212322   0.461   5.962   0.391
 4127TIP3   OH212323   3.188   3.801   3.260
 4127TIP3    H112324   3.207   3.763   3.174
 4127TIP3    H212325   3.248   3.876   3.267
 4128TIP3   OH212326   4.477   2.620   4.605
 4128TIP3    H112327   4.496   2.554   4.671
 4128TIP3    H212328   4.449   2.570   4.529
 4129TIP3   OH212329   4.594   2.895   6.079
 4129TIP3    H112330   4.644   2.846   6.144
 4129TIP3    H212331   4.547   2.828   6.030
 4130TIP3   OH212332   5.928   5.694   6.457
 4130TIP3    H112333   5.841   5.664   6.486
 4130TIP3    H212334   5.926   5.788   6.470
 4131TIP3   OH212335   7.418   4.739   6.228
 4131TIP3    H112336   7.455   4.824   6.251
 4131TIP3    H212337   7.324   4.755   6.219
 4132TIP3   OH212338   1.173   7.181   0.747
 4132TIP3    H112339   1.197   7.098   0.788
 4132TIP3    H212340   1.126   7.228   0.815
 4133TIP3   OH212341   6.819   5.344   6.489
 4133TIP3    H112342   6.741   5.400   6.493
 4133TIP3    H212343   6.787   5.257   6.513
 4134TIP3   OH212344   0.842   0.317   5.605
 4134TIP3    H112345   0.861   0.235   5.650
 4134TIP3    H212346   0.926   0.344   5.568
 4135TIP3   OH212347   0.245   7.226   2.599
 4135TIP3    H112348   0.179   7.281   2.555
 4135TIP3    H212349   0.216   7.137   2.583
 4136TIP3   OH212350   0.231   0.295   4.101
 4136TIP3    H112351   0.222   0.259   4.189
 4136TIP3    H212352   0.287   0.233   4.056
 4137TIP3   OH212353   1.074   2.905   2.104
 4137TIP3    H112354   1.061   2.996   2.130
 4137TIP3    H212355   1.041   2.902   2.014
 4138TIP3   OH212356   7.078   6.905   3.791
 4138TIP3    H112357   7.132   6.870   3.720
 4138TIP3    H212358   6.993   6.922   3.750
 4139TIP3   OH212359   7.410   7.543   1.666
 4139TIP3    H112360   7.417   7.478   1.736
 4139TIP3    H212361   7.388   7.493   1.588
 4140TIP3   OH212362   7.350   1.148   4.963
 4140TIP3    H112363   7.397   1.116   5.040
 4140TIP3    H212364   7.331   1.069   4.912
 4141TIP3   OH212365   4.170   4.514   0.287
 4141TIP3    H112366   4.183   4.472   0.372
 4141TIP3    H212367   4.232   4.587   0.287
 4142TIP3   OH212368   7.540   5.395   1.160
 4142TIP3    H112369   7.462   5.346   1.185
 4142TIP3    H212370   7.610   5.360   1.216
 4143TIP3   OH212371   3.061   1.034   0.952
 4143TIP3    H112372   3.021   0.960   0.907
 4143TIP3    H212373   3.104   0.996   1.029
 4144TIP3   OH212374   3.720   0.568   5.402
 4144TIP3    H112375   3.667   0.513   5.460
 4144TIP3    H212376   3.779   0.615   5.460
 4145TIP3   OH212377   7.421   3.208   0.609
 4145TIP3    H112378   7.390   3.271   0.543
 4145TIP3    H212379   7.394   3.246   0.692
 4146TIP3   OH212380   4.319   1.063   5.474
 4146TIP3    H112381   4.305   1.060   5.568
 4146TIP3    H212382   4.387   1.130   5.462
 4147TIP3   OH212383   0.274   6.633   2.360
 4147TIP3    H112384   0.328   6.638   2.439
 4147TIP3    H212385   0.244   6.542   2.357
 4148TIP3   OH212386   2.149   6.345   5.973
 4148TIP3    H112387   2.192   6.431   5.971
 4148TIP3    H212388   2.221   6.283   5.987
 4149TIP3   OH212389   4.066   5.005   1.062
 4149TIP3    H112390   4.057   4.914   1.090
 4149TIP3    H212391   4.112   4.999   0.978
 4150TIP3   OH212392   4.383   3.704   6.265
 4150TIP3    H112393   4.455   3.763   6.289
 4150TIP3    H212394   4.385   3.703   6.169
 4151TIP3   OH212395   8.069   3.696   6.072
 4151TIP3    H112396   7.994   3.652   6.033
 4151TIP3    H212397   8.115   3.735   5.998
 4152TIP3   OH212398   2.717   0.643   0.362
 4152TIP3    H112399   2.789   0.674   0.309
 4152TIP3    H212400   2.638   0.671   0.315
 4153TIP3   OH212401   0.336   0.719   2.246
 4153TIP3    H112402   0.416   0.678   2.279
 4153TIP3    H212403   0.365   0.768   2.169
 4154TIP3   OH212404   5.049   6.540   5.925
 4154TIP3    H112405   5.133   6.571   5.891
 4154TIP3    H212406   5.072   6.464   5.978
 4155TIP3   OH212407   7.679   2.480   4.977
 4155TIP3    H112408   7.662   2.442   5.063
 4155TIP3    H212409   7.720   2.410   4.927
 4156TIP3   OH212410   3.366  -0.002   2.312
 4156TIP3    H112411   3.418   0.076   2.293
 4156TIP3    H212412   3.313   0.022   2.387
 4157TIP3   OH212413   1.225   7.530   3.627
 4157TIP3    H112414   1.265   7.548   3.542
 4157TIP3    H212415   1.142   7.487   3.606
 4158TIP3   OH212416   3.141   4.257   1.075
 4158TIP3    H112417   3.090   4.177   1.064
 4158TIP3    H212418   3.132   4.278   1.168
 4159TIP3   OH212419   7.881   1.763   6.556
 4159TIP3    H112420   7.830   1.783   6.635
 4159TIP3    H212421   7.841   1.817   6.488
 4160TIP3   OH212422   7.421   1.113   3.996
 4160TIP3    H112423   7.345   1.157   3.957
 4160TIP3    H212424   7.483   1.183   4.012
 4161TIP3   OH212425   5.769   5.214   5.001
 4161TIP3    H112426   5.675   5.197   4.992
 4161TIP3    H212427   5.808   5.127   5.010
 4162TIP3   OH212428   4.342   0.950   2.872
 4162TIP3    H112429   4.402   0.957   2.947
 4162TIP3    H212430   4.380   0.880   2.818
 4163TIP3   OH212431   2.667   3.383   0.079
 4163TIP3    H112432   2.692   3.442   0.151
 4163TIP3    H212433   2.734   3.315   0.080
 4164TIP3   OH212434   7.743   3.716   3.930
 4164TIP3    H112435   7.775   3.707   4.020
 4164TIP3    H212436   7.817   3.690   3.875
 4165TIP3   OH212437   4.729   1.492   6.403
 4165TIP3    H112438   4.659   1.503   6.338
 4165TIP3    H212439   4.809   1.482   6.351
 4166TIP3   OH212440   2.966   2.647   5.808
 4166TIP3    H112441   2.969   2.699   5.728
 4166TIP3    H212442   3.041   2.588   5.801
 4167TIP3   OH212443   0.679   1.179   2.842
 4167TIP3    H112444   0.639   1.199   2.757
 4167TIP3    H212445   0.660   1.087   2.857
 4168TIP3   OH212446   8.262   1.610   6.398
 4168TIP3    H112447   8.186   1.588   6.452
 4168TIP3    H212448   8.287   1.527   6.357
 4169TIP3   OH212449   1.941   5.386   4.179
 4169TIP3    H112450   1.885   5.461   4.199
 4169TIP3    H212451   2.029   5.413   4.203
 4170TIP3   OH212452   7.216   3.690   2.164
 4170TIP3    H112453   7.213   3.777   2.124
 4170TIP3    H212454   7.136   3.647   2.134
 4171TIP3   OH212455   5.627   0.762   3.665
 4171TIP3    H112456   5.617   0.846   3.711
 4171TIP3    H212457   5.537   0.733   3.649
 4172TIP3   OH212458   0.416   3.942   4.841
 4172TIP3    H112459   0.497   3.892   4.854
 4172TIP3    H212460   0.347   3.882   4.868
 4173TIP3   OH212461   0.987   2.187   5.213
 4173TIP3    H112462   0.902   2.145   5.208
 4173TIP3    H212463   0.986   2.236   5.295
 4174TIP3   OH212464   1.514   4.719   4.787
 4174TIP3    H112465   1.448   4.788   4.790
 4174TIP3    H212466   1.568   4.741   4.711
 4175TIP3   OH212467   8.270   6.281   3.293
 4175TIP3    H112468   8.300   6.193   3.317
 4175TIP3    H212469   8.201   6.301   3.356
 4176TIP3   OH212470   1.303   6.876   0.251
 4176TIP3    H112471   1.241   6.942   0.220
 4176TIP3    H212472   1.342   6.915   0.329
 4177TIP3   OH212473   2.241   5.874   4.026
 4177TIP3    H112474   2.278   5.891   4.112
 4177TIP3    H212475   2.317   5.867   3.968
 4178TIP3   OH212476   1.897   4.444   2.865
 4178TIP3    H112477   1.973   4.427   2.808
 4178TIP3    H212478   1.821   4.429   2.808
 4179TIP3   OH212479   1.019   2.889   2.388
 4179TIP3    H112480   0.933   2.930   2.376
 4179TIP3    H212481   1.046   2.865   2.299
 4180TIP3   OH212482   0.447   5.337   1.395
 4180TIP3    H112483   0.533   5.378   1.398
 4180TIP3    H212484   0.448   5.283   1.315
 4181TIP3   OH212485   6.893   7.502   3.198
 4181TIP3    H112486   6.932   7.443   3.262
 4181TIP3    H212487   6.843   7.445   3.139
 4182TIP3   OH212488   3.909   6.347   2.808
 4182TIP3    H112489   3.846   6.397   2.755
 4182TIP3    H212490   3.903   6.258   2.774
 4183TIP3   OH212491   6.051   6.288   4.866
 4183TIP3    H112492   6.003   6.249   4.939
 4183TIP3    H212493   6.143   6.283   4.892
 4184TIP3   OH212494   8.020   3.339   1.340
 4184TIP3    H112495   7.995   3.288   1.263
 4184TIP3    H212496   7.994   3.429   1.319
 4185TIP3   OH212497   0.334   5.831   2.121
 4185TIP3    H112498   0.319   5.761   2.184
 4185TIP3    H212499   0.303   5.795   2.037
 4186TIP3   OH212500   0.979   3.187   0.622
 4186TIP3    H112501   0.948   3.098   0.633
 4186TIP3    H212502   0.905   3.234   0.584
 4187TIP3   OH212503   2.989   5.729   3.855
 4187TIP3    H112504   3.000   5.666   3.926
 4187TIP3    H212505   3.045   5.696   3.784
 4188TIP3   OH212506   6.115   3.905   3.548
 4188TIP3    H112507   6.193   3.912   3.603
 4188TIP3    H212508   6.102   3.811   3.538
 4189TIP3   OH212509   2.374   3.248   4.059
 4189TIP3    H112510   2.424   3.287   4.130
 4189TIP3    H212511   2.424   3.269   3.980
 4190TIP3   OH212512   4.498   6.462   1.001
 4190TIP3    H112513   4.464   6.408   0.930
 4190TIP3    H212514   4.452   6.546   0.991
 4191TIP3   OH212515   7.571   5.176   2.062
 4191TIP3    H112516   7.569   5.080   2.064
 4191TIP3    H212517   7.551   5.198   1.971
 4192TIP3   OH212518   4.678   3.515   2.546
 4192TIP3    H112519   4.604   3.483   2.494
 4192TIP3    H212520   4.738   3.441   2.550
 4193TIP3   OH212521   1.393   0.907   6.163
 4193TIP3    H112522   1.383   1.002   6.166
 4193TIP3    H212523   1.467   0.892   6.105
 4194TIP3   OH212524   1.701   2.009   5.400
 4194TIP3    H112525   1.715   2.009   5.495
 4194TIP3    H212526   1.628   1.949   5.386
 4195TIP3   OH212527   5.768   4.770   5.618
 4195TIP3    H112528   5.855   4.776   5.577
 4195TIP3    H212529   5.709   4.750   5.545
 4196TIP3   OH212530   3.964   4.237   6.098
 4196TIP3    H112531   3.981   4.170   6.032
 4196TIP3    H212532   3.925   4.310   6.048
 4197TIP3   OH212533   2.416   7.624   4.534
 4197TIP3    H112534   2.492   7.683   4.536
 4197TIP3    H212535   2.361   7.653   4.607
 4198TIP3   OH212536   3.445   3.811   3.542
 4198TIP3    H112537   3.438   3.732   3.595
 4198TIP3    H212538   3.376   3.869   3.577
 4199TIP3   OH212539   3.404   0.325   2.486
 4199TIP3    H112540   3.477   0.306   2.428
 4199TIP3    H212541   3.325   0.308   2.434
 4200TIP3   OH212542   7.398   0.483   0.777
 4200TIP3    H112543   7.407   0.388   0.780
 4200TIP3    H212544   7.434   0.508   0.692
 4201TIP3   OH212545   6.507   1.809   5.769
 4201TIP3    H112546   6.555   1.744   5.717
 4201TIP3    H212547   6.438   1.840   5.710
 4202TIP3   OH212548   0.646   1.018   0.579
 4202TIP3    H112549   0.591   0.960   0.526
 4202TIP3    H212550   0.723   1.033   0.526
 4203TIP3   OH212551   2.959   7.033   1.123
 4203TIP3    H112552   2.865   7.050   1.119
 4203TIP3    H212553   2.995   7.084   1.050
 4204TIP3   OH212554   1.218   2.351   2.202
 4204TIP3    H112555   1.226   2.264   2.240
 4204TIP3    H212556   1.301   2.394   2.221
 4205TIP3   OH212557   0.662   1.432   6.429
 4205TIP3    H112558   0.757   1.438   6.423
 4205TIP3    H212559   0.635   1.393   6.345
 4206TIP3   OH212560   7.215   5.675   5.385
 4206TIP3    H112561   7.132   5.685   5.340
 4206TIP3    H212562   7.280   5.668   5.315
 4207TIP3   OH212563   7.776   5.815   1.625
 4207TIP3    H112564   7.695   5.765   1.618
 4207TIP3    H212565   7.809   5.795   1.713
 4208TIP3   OH212566   2.862   4.599   0.076
 4208TIP3    H112567   2.944   4.643   0.055
 4208TIP3    H212568   2.861   4.522   0.020
 4209TIP3   OH212569   6.424   2.174   6.130
 4209TIP3    H112570   6.340   2.197   6.089
 4209TIP3    H212571   6.462   2.108   6.072
 4210TIP3   OH212572   7.091   5.425   0.782
 4210TIP3    H112573   7.115   5.429   0.875
 4210TIP3    H212574   7.121   5.339   0.753
 4211TIP3   OH212575   8.133   4.788   5.114
 4211TIP3    H112576   8.114   4.874   5.075
 4211TIP3    H212577   8.228   4.779   5.106
 4212TIP3   OH212578   0.668   6.731   4.984
 4212TIP3    H112579   0.610   6.716   4.909
 4212TIP3    H212580   0.742   6.671   4.969
 4213TIP3   OH212581   5.762   6.626   1.979
 4213TIP3    H112582   5.786   6.680   1.904
 4213TIP3    H212583   5.845   6.591   2.010
 4214TIP3   OH212584   1.960   2.536   6.678
 4214TIP3    H112585   1.874   2.577   6.672
 4214TIP3    H212586   2.011   2.594   6.735
 4215TIP3   OH212587   5.458   7.472   0.925
 4215TIP3    H112588   5.465   7.425   1.008
 4215TIP3    H212589   5.542   7.457   0.882
 4216TIP3   OH212590   7.802   4.023   0.650
 4216TIP3    H112591   7.751   4.023   0.731
 4216TIP3    H212592   7.779   4.105   0.606
 4217TIP3   OH212593   1.903   3.568   4.233
 4217TIP3    H112594   1.905   3.658   4.267
 4217TIP3    H212595   1.865   3.577   4.145
 4218TIP3   OH212596   5.377   3.870   3.988
 4218TIP3    H112597   5.318   3.797   4.006
 4218TIP3    H212598   5.389   3.912   4.073
 4219TIP3   OH212599   6.517   0.645   1.545
 4219TIP3    H112600   6.449   0.646   1.477
 4219TIP3    H212601   6.583   0.585   1.511
 4220TIP3   OH212602   5.820   4.062   0.331
 4220TIP3    H112603   5.805   4.156   0.334
 4220TIP3    H212604   5.910   4.050   0.360
 4221TIP3   OH212605   4.050   6.797   3.875
 4221TIP3    H112606   3.979   6.734   3.859
 4221TIP3    H212607   4.113   6.748   3.928
 4222TIP3   OH212608   5.872   3.909   0.106
 4222TIP3    H112609   5.829   3.940   0.187
 4222TIP3    H212610   5.945   3.856   0.137
 4223TIP3   OH212611   6.943   7.767   1.703
 4223TIP3    H112612   6.873   7.765   1.768
 4223TIP3    H212613   6.992   7.686   1.716
 4224TIP3   OH212614   2.745   4.784   6.712
 4224TIP3    H112615   2.705   4.774   6.798
 4224TIP3    H212616   2.765   4.695   6.685
 4225TIP3   OH212617   5.249   0.438   6.616
 4225TIP3    H112618   5.335   0.471   6.643
 4225TIP3    H212619   5.188   0.509   6.638
 4226TIP3   OH212620   1.148   3.983   5.770
 4226TIP3    H112621   1.202   4.047   5.817
 4226TIP3    H212622   1.173   3.993   5.679
 4227TIP3   OH212623   4.254   3.265   6.103
 4227TIP3    H112624   4.340   3.223   6.102
 4227TIP3    H212625   4.221   3.253   6.014
 4228TIP3   OH212626   5.715   7.245   3.611
 4228TIP3    H112627   5.698   7.257   3.704
 4228TIP3    H212628   5.810   7.231   3.606
 4229TIP3   OH212629   3.710   0.393   0.509
 4229TIP3    H112630   3.731   0.399   0.602
 4229TIP3    H212631   3.620   0.423   0.502
 4230TIP3   OH212632   3.424   3.072   5.007
 4230TIP3    H112633   3.386   3.051   4.922
 4230TIP3    H212634   3.417   3.168   5.013
 4231TIP3   OH212635   7.226   0.196   4.959
 4231TIP3    H112636   7.238   0.229   5.048
 4231TIP3    H212637   7.288   0.245   4.906
 4232TIP3   OH212638   0.944   1.897   3.648
 4232TIP3    H112639   0.855   1.901   3.683
 4232TIP3    H212640   1.000   1.930   3.719
 4233TIP3   OH212641   0.351   4.935   0.715
 4233TIP3    H112642   0.290   4.863   0.699
 4233TIP3    H212643   0.369   4.970   0.628
 4234TIP3   OH212644   0.293   0.246   5.524
 4234TIP3    H112645   0.201   0.224   5.530
 4234TIP3    H212646   0.300   0.297   5.443
 4235TIP3   OH212647   4.359   2.466   5.614
 4235TIP3    H112648   4.297   2.538   5.617
 4235TIP3    H212649   4.306   2.390   5.588
 4236TIP3   OH212650   4.798   5.485   6.196
 4236TIP3    H112651   4.815   5.555   6.134
 4236TIP3    H212652   4.729   5.518   6.252
 4237TIP3   OH212653   5.881   3.323   4.996
 4237TIP3    H112654   5.791   3.311   5.027
 4237TIP3    H212655   5.903   3.412   5.022
 4238TIP3   OH212656   6.135   2.647   1.701
 4238TIP3    H112657   6.154   2.734   1.736
 4238TIP3    H212658   6.082   2.606   1.770
 4239TIP3   OH212659   5.520   0.244   5.658
 4239TIP3    H112660   5.578   0.209   5.726
 4239TIP3    H212661   5.470   0.169   5.627
 4240TIP3   OH212662   0.696   7.101   4.293
 4240TIP3    H112663   0.681   7.094   4.198
 4240TIP3    H212664   0.673   7.192   4.313
 4241TIP3   OH212665   5.648   6.322   6.433
 4241TIP3    H112666   5.696   6.324   6.350
 4241TIP3    H212667   5.671   6.238   6.473
 4242TIP3   OH212668   6.617   2.995   2.835
 4242TIP3    H112669   6.686   3.045   2.879
 4242TIP3    H212670   6.640   2.903   2.851
 4243TIP3   OH212671   2.537   3.838   0.548
 4243TIP3    H112672   2.511   3.891   0.473
 4243TIP3    H212673   2.632   3.848   0.553
 4244TIP3   OH212674   0.160   4.568   0.985
 4244TIP3    H112675   0.220   4.556   1.058
 4244TIP3    H212676   0.154   4.663   0.974
 4245TIP3   OH212677   1.078   7.768   3.089
 4245TIP3    H112678   1.021   7.795   3.017
 4245TIP3    H212679   1.166   7.798   3.063
 4246TIP3   OH212680   3.486   6.281   0.482
 4246TIP3    H112681   3.514   6.367   0.514
 4246TIP3    H212682   3.551   6.258   0.416
 4247TIP3   OH212683   8.063   0.703   1.951
 4247TIP3    H112684   8.093   0.682   2.039
 4247TIP3    H212685   8.142   0.695   1.897
 4248TIP3   OH212686   4.019   4.247   2.142
 4248TIP3    H112687   4.051   4.192   2.071
 4248TIP3    H212688   3.980   4.185   2.204
 4249TIP3   OH212689   5.037   0.935   0.052
 4249TIP3    H112690   4.978   0.929   0.128
 4249TIP3    H212691   5.063   1.027   0.048
 4250TIP3   OH212692   1.413   5.640   1.357
 4250TIP3    H112693   1.494   5.681   1.388
 4250TIP3    H212694   1.345   5.674   1.414
 4251TIP3   OH212695   5.977   0.213   2.134
 4251TIP3    H112696   6.051   0.256   2.090
 4251TIP3    H212697   5.908   0.280   2.134
 4252TIP3   OH212698   0.440   5.542   4.419
 4252TIP3    H112699   0.488   5.561   4.339
 4252TIP3    H212700   0.504   5.495   4.474
 4253TIP3   OH212701   4.270   4.797   2.715
 4253TIP3    H112702   4.215   4.875   2.710
 4253TIP3    H212703   4.275   4.777   2.808
 4254TIP3   OH212704   5.551   7.349   0.452
 4254TIP3    H112705   5.636   7.375   0.487
 4254TIP3    H212706   5.488   7.393   0.508
 4255TIP3   OH212707   5.976   4.516   6.614
 4255TIP3    H112708   5.947   4.590   6.561
 4255TIP3    H212709   5.942   4.534   6.701
 4256TIP3   OH212710   0.580   2.087   2.899
 4256TIP3    H112711   0.573   2.117   2.989
 4256TIP3    H212712   0.570   1.992   2.904
 4257TIP3   OH212713   3.952   0.795   3.692
 4257TIP3    H112714   3.865   0.816   3.727
 4257TIP3    H212715   3.954   0.699   3.690
 4258TIP3   OH212716   1.782   5.828   6.329
 4258TIP3    H112717   1.753   5.914   6.299
 4258TIP3    H212718   1.877   5.836   6.336
 4259TIP3   OH212719   3.247   4.962   5.242
 4259TIP3    H112720   3.154   4.945   5.223
 4259TIP3    H212721   3.286   4.978   5.156
 4260TIP3   OH212722   0.819   1.003   1.875
 4260TIP3    H112723   0.729   0.996   1.845
 4260TIP3    H212724   0.869   0.951   1.812
 4261TIP3   OH212725   0.751   5.134   2.296
 4261TIP3    H112726   0.740   5.039   2.296
 4261TIP3    H212727   0.769   5.156   2.387
 4262TIP3   OH212728   0.647   6.558   2.050
 4262TIP3    H112729   0.559   6.587   2.070
 4262TIP3    H212730   0.704   6.624   2.090
 4263TIP3   OH212731   6.565   5.311   0.539
 4263TIP3    H112732   6.617   5.360   0.475
 4263TIP3    H212733   6.535   5.234   0.492
 4264TIP3   OH212734   6.960   5.535   5.698
 4264TIP3    H112735   6.907   5.543   5.618
 4264TIP3    H212736   6.957   5.441   5.719
 4265TIP3   OH212737   2.642   5.485   3.965
 4265TIP3    H112738   2.705   5.416   3.986
 4265TIP3    H212739   2.630   5.532   4.048
 4266TIP3   OH212740   1.269   3.768   5.896
 4266TIP3    H112741   1.201   3.808   5.842
 4266TIP3    H212742   1.294   3.837   5.958
 4267TIP3   OH212743   7.741   5.746   3.310
 4267TIP3    H112744   7.739   5.722   3.403
 4267TIP3    H212745   7.822   5.796   3.300
 4268TIP3   OH212746   4.307   1.804   4.222
 4268TIP3    H112747   4.245   1.782   4.291
 4268TIP3    H212748   4.379   1.847   4.268
 4269TIP3   OH212749   0.937   0.455   3.428
 4269TIP3    H112750   0.907   0.443   3.518
 4269TIP3    H212751   0.897   0.383   3.380
 4270TIP3   OH212752   1.500   3.188   4.140
 4270TIP3    H112753   1.480   3.267   4.189
 4270TIP3    H212754   1.520   3.218   4.051
 4271TIP3   OH212755   1.341   7.214   4.958
 4271TIP3    H112756   1.364   7.132   5.002
 4271TIP3    H212757   1.425   7.249   4.927
 4272TIP3   OH212758   5.178   4.591   3.539
 4272TIP3    H112759   5.258   4.538   3.546
 4272TIP3    H212760   5.209   4.681   3.546
 4273TIP3   OH212761   2.806   7.182   2.391
 4273TIP3    H112762   2.748   7.242   2.438
 4273TIP3    H212763   2.845   7.128   2.460
 4274TIP3   OH212764   1.764   0.573   0.178
 4274TIP3    H112765   1.707   0.498   0.171
 4274TIP3    H212766   1.799   0.587   0.090
 4275TIP3   OH212767   2.727   3.076   3.353
 4275TIP3    H112768   2.820   3.065   3.331
 4275TIP3    H212769   2.685   3.095   3.269
 4276TIP3   OH212770   3.303   4.354   3.847
 4276TIP3    H112771   3.224   4.309   3.818
 4276TIP3    H212772   3.349   4.376   3.766
 4277TIP3   OH212773   0.932   5.961   5.954
 4277TIP3    H112774   0.864   5.905   5.916
 4277TIP3    H212775   0.889   6.005   6.027
 4278TIP3   OH212776   6.666   3.947   6.187
 4278TIP3    H112777   6.615   3.988   6.257
 4278TIP3    H212778   6.729   4.014   6.161
 4279TIP3   OH212779   4.140   3.256   6.730
 4279TIP3    H112780   4.151   3.346   6.761
 4279TIP3    H212781   4.112   3.265   6.639
 4280TIP3   OH212782   0.424   4.496   3.801
 4280TIP3    H112783   0.419   4.480   3.706
 4280TIP3    H212784   0.334   4.520   3.825
 4281TIP3   OH212785   0.316   3.702   3.440
 4281TIP3    H112786   0.404   3.677   3.410
 4281TIP3    H212787   0.286   3.625   3.489
 4282TIP3   OH212788   1.634   6.443   5.429
 4282TIP3    H112789   1.671   6.490   5.354
 4282TIP3    H212790   1.539   6.455   5.420
 4283TIP3   OH212791   7.785   5.982   0.830
 4283TIP3    H112792   7.850   5.985   0.901
 4283TIP3    H212793   7.776   6.073   0.803
 4284TIP3   OH212794   1.709   6.452   4.477
 4284TIP3    H112795   1.748   6.368   4.453
 4284TIP3    H212796   1.621   6.429   4.509
 4285TIP3   OH212797   7.479   0.938   4.186
 4285TIP3    H112798   7.463   0.876   4.114
 4285TIP3    H212799   7.455   1.023   4.150
 4286TIP3   OH212800   5.901   4.118   1.784
 4286TIP3    H112801   5.832   4.118   1.850
 4286TIP3    H212802   5.872   4.179   1.717
 4287TIP3   OH212803   1.347   7.318   2.700
 4287TIP3    H112804   1.268   7.366   2.727
 4287TIP3    H212805   1.419   7.365   2.743
 4288TIP3   OH212806   0.966   1.136   5.940
 4288TIP3    H112807   0.966   1.144   5.845
 4288TIP3    H212808   0.938   1.046   5.956
 4289TIP3   OH212809   0.919   2.169   2.953
 4289TIP3    H112810   0.998   2.151   2.903
 4289TIP3    H212811   0.848   2.164   2.889
 4290TIP3   OH212812   7.566   1.907   1.534
 4290TIP3    H112813   7.581   1.995   1.498
 4290TIP3    H212814   7.649   1.861   1.518
 4291TIP3   OH212815   5.318   5.547   6.527
 4291TIP3    H112816   5.344   5.456   6.511
 4291TIP3    H212817   5.353   5.568   6.613
 4292TIP3   OH212818   1.184   3.005   6.596
 4292TIP3    H112819   1.161   2.917   6.565
 4292TIP3    H212820   1.279   3.001   6.608
 4293TIP3   OH212821   7.963   0.455   0.803
 4293TIP3    H112822   7.919   0.372   0.782
 4293TIP3    H212823   8.055   0.439   0.781
 4294TIP3   OH212824   1.954   2.788   1.533
 4294TIP3    H112825   1.988   2.738   1.607
 4294TIP3    H212826   2.011   2.866   1.529
 4295TIP3   OH212827   3.538   6.245   1.570
 4295TIP3    H112828   3.601   6.279   1.507
 4295TIP3    H212829   3.518   6.319   1.627
 4296TIP3   OH212830   7.165   6.086   2.673
 4296TIP3    H112831   7.235   6.145   2.701
 4296TIP3    H212832   7.144   6.114   2.584
 4297TIP3   OH212833   0.638   2.104   2.096
 4297TIP3    H112834   0.637   2.191   2.137
 4297TIP3    H212835   0.548   2.091   2.065
 4298TIP3   OH212836   0.910   0.853   2.567
 4298TIP3    H112837   0.911   0.768   2.524
 4298TIP3    H212838   0.963   0.910   2.510
 4299TIP3   OH212839   8.007   0.159   3.918
 4299TIP3    H112840   8.003   0.066   3.893
 4299TIP3    H212841   8.038   0.158   4.009
 4300TIP3   OH212842   2.049   5.299   6.508
 4300TIP3    H112843   2.122   5.272   6.451
 4300TIP3    H212844   1.971   5.270   6.462
 4301TIP3   OH212845   2.175   1.860   4.744
 4301TIP3    H112846   2.090   1.851   4.786
 4301TIP3    H212847   2.213   1.772   4.748
 4302TIP3   OH212848   7.606   3.590   6.439
 4302TIP3    H112849   7.640   3.501   6.433
 4302TIP3    H212850   7.630   3.620   6.526
 4303TIP3   OH212851   3.533   4.367   6.685
 4303TIP3    H112852   3.501   4.298   6.742
 4303TIP3    H212853   3.626   4.350   6.675
 4304TIP3   OH212854   4.347   3.615   4.619
 4304TIP3    H112855   4.348   3.703   4.581
 4304TIP3    H212856   4.419   3.569   4.578
 4305TIP3   OH212857   6.268   5.881   0.060
 4305TIP3    H112858   6.319   5.961   0.048
 4305TIP3    H212859   6.311   5.835   0.132
 4306TIP3   OH212860   3.811   4.363   3.450
 4306TIP3    H112861   3.892   4.314   3.463
 4306TIP3    H212862   3.837   4.455   3.454
 4307TIP3   OH212863   1.985   5.308   4.710
 4307TIP3    H112864   1.961   5.215   4.709
 4307TIP3    H212865   2.078   5.310   4.686
 4308TIP3   OH212866   6.346   7.032   0.227
 4308TIP3    H112867   6.381   6.953   0.268
 4308TIP3    H212868   6.253   7.030   0.247
 4309TIP3   OH212869   4.127   1.461   4.495
 4309TIP3    H112870   4.117   1.436   4.403
 4309TIP3    H212871   4.127   1.378   4.542
 4310TIP3   OH212872   2.142   3.379   3.672
 4310TIP3    H112873   2.055   3.401   3.706
 4310TIP3    H212874   2.201   3.441   3.715
 4311TIP3   OH212875   4.553   5.621   1.392
 4311TIP3    H112876   4.542   5.529   1.414
 4311TIP3    H212877   4.489   5.667   1.447
 4312TIP3   OH212878   2.053   1.797   2.028
 4312TIP3    H112879   2.133   1.841   2.056
 4312TIP3    H212880   2.083   1.714   1.989
 4313TIP3   OH212881   2.833   6.821   3.746
 4313TIP3    H112882   2.759   6.842   3.688
 4313TIP3    H212883   2.909   6.822   3.688
 4314TIP3   OH212884   1.717   5.011   4.266
 4314TIP3    H112885   1.762   5.083   4.311
 4314TIP3    H212886   1.786   4.946   4.251
 4315TIP3   OH212887   6.905   5.553   3.696
 4315TIP3    H112888   6.964   5.500   3.750
 4315TIP3    H212889   6.950   5.637   3.686
 4316TIP3   OH212890   3.975   1.136   4.295
 4316TIP3    H112891   3.992   1.227   4.272
 4316TIP3    H212892   4.047   1.087   4.254
 4317TIP3   OH212893   2.364   3.213   0.483
 4317TIP3    H112894   2.310   3.166   0.419
 4317TIP3    H212895   2.433   3.150   0.506
 4318TIP3   OH212896   0.793   2.898   4.371
 4318TIP3    H112897   0.844   2.918   4.293
 4318TIP3    H212898   0.756   2.811   4.354
 4319TIP3   OH212899   0.695   0.465   0.448
 4319TIP3    H112900   0.753   0.541   0.456
 4319TIP3    H212901   0.675   0.441   0.538
 4320TIP3   OH212902   5.748   7.570   4.109
 4320TIP3    H112903   5.722   7.529   4.191
 4320TIP3    H212904   5.770   7.497   4.051
 4321TIP3   OH212905   7.952   2.949   5.923
 4321TIP3    H112906   7.897   2.897   5.981
 4321TIP3    H212907   7.986   3.020   5.978
 4322TIP3   OH212908   2.984   1.442   1.424
 4322TIP3    H112909   2.982   1.362   1.370
 4322TIP3    H212910   2.930   1.504   1.376
 4323TIP3   OH212911   4.078   5.240   3.789
 4323TIP3    H112912   4.115   5.211   3.872
 4323TIP3    H212913   3.993   5.278   3.812
 4324TIP3   OH212914   4.882   4.959   6.128
 4324TIP3    H112915   4.868   5.053   6.140
 4324TIP3    H212916   4.860   4.921   6.213
 4325TIP3   OH212917   1.486   4.734   1.248
 4325TIP3    H112918   1.494   4.798   1.177
 4325TIP3    H212919   1.513   4.651   1.209
 4326TIP3   OH212920   1.295   6.903   3.492
 4326TIP3    H112921   1.356   6.883   3.563
 4326TIP3    H212922   1.293   6.998   3.488
 4327TIP3   OH212923   7.679   7.051   3.650
 4327TIP3    H112924   7.658   7.122   3.589
 4327TIP3    H212925   7.606   6.990   3.643
 4328TIP3   OH212926   8.072   3.566   5.258
 4328TIP3    H112927   8.044   3.644   5.307
 4328TIP3    H212928   8.168   3.566   5.265
 4329TIP3   OH212929   4.241   3.625   2.114
 4329TIP3    H112930   4.181   3.698   2.101
 4329TIP3    H212931   4.317   3.663   2.158
 4330TIP3   OH212932   3.860   2.948   0.098
 4330TIP3    H112933   3.863   3.043   0.091
 4330TIP3    H212934   3.767   2.926   0.093
 4331TIP3   OH212935   3.803   4.502   6.469
 4331TIP3    H112936   3.789   4.423   6.416
 4331TIP3    H212937   3.830   4.568   6.406
 4332TIP3   OH212938   2.491   3.501   1.501
 4332TIP3    H112939   2.419   3.455   1.457
 4332TIP3    H212940   2.488   3.467   1.591
 4333TIP3   OH212941   5.743   7.216   2.159
 4333TIP3    H112942   5.695   7.237   2.239
 4333TIP3    H212943   5.679   7.230   2.089
 4334TIP3   OH212944   2.243   7.757   1.783
 4334TIP3    H112945   2.278   7.727   1.699
 4334TIP3    H212946   2.317   7.799   1.826
 4335TIP3   OH212947   3.697   0.597   5.940
 4335TIP3    H112948   3.659   0.535   6.003
 4335TIP3    H212949   3.703   0.679   5.988
 4336TIP3   OH212950   1.609   2.376   0.487
 4336TIP3    H112951   1.563   2.343   0.410
 4336TIP3    H212952   1.552   2.443   0.523
 4337TIP3   OH212953   1.175   7.410   2.336
 4337TIP3    H112954   1.102   7.451   2.382
 4337TIP3    H212955   1.134   7.344   2.280
 4338TIP3   OH212956   7.898   4.239   4.354
 4338TIP3    H112957   7.918   4.329   4.379
 4338TIP3    H212958   7.906   4.238   4.258
 4339TIP3   OH212959   2.513   0.432   1.779
 4339TIP3    H112960   2.469   0.386   1.850
 4339TIP3    H212961   2.597   0.387   1.770
 4340TIP3   OH212962   0.423   0.069   1.592
 4340TIP3    H112963   0.452   0.158   1.614
 4340TIP3    H212964   0.369   0.043   1.667
 4341TIP3   OH212965   4.336   5.256   3.037
 4341TIP3    H112966   4.391   5.311   2.982
 4341TIP3    H212967   4.367   5.167   3.021
 4342TIP3   OH212968   2.191   5.696   2.183
 4342TIP3    H112969   2.270   5.691   2.130
 4342TIP3    H212970   2.146   5.774   2.151
 4343TIP3   OH212971   1.099   1.687   3.358
 4343TIP3    H112972   1.123   1.751   3.291
 4343TIP3    H212973   1.006   1.704   3.375
 4344TIP3   OH212974   3.739   5.131   5.567
 4344TIP3    H112975   3.721   5.208   5.514
 4344TIP3    H212976   3.665   5.125   5.627
 4345TIP3   OH212977   3.939   3.396   5.833
 4345TIP3    H112978   4.022   3.428   5.797
 4345TIP3    H212979   3.880   3.391   5.758
 4346TIP3   OH212980   1.065   4.458   5.363
 4346TIP3    H112981   1.134   4.504   5.315
 4346TIP3    H212982   1.004   4.526   5.388
 4347TIP3   OH212983   1.744   0.120   1.061
 4347TIP3    H112984   1.749   0.054   1.130
 4347TIP3    H212985   1.650   0.134   1.048
 4348TIP3   OH212986   6.838   3.513   5.606
 4348TIP3    H112987   6.753   3.548   5.578
 4348TIP3    H212988   6.901   3.577   5.574
 4349TIP3   OH212989   4.824   7.548   5.493
 4349TIP3    H112990   4.814   7.642   5.476
 4349TIP3    H212991   4.876   7.544   5.573
 4350TIP3   OH212992   5.407   2.477   2.471
 4350TIP3    H112993   5.406   2.460   2.565
 4350TIP3    H212994   5.319   2.508   2.450
 4351TIP3   OH212995   1.992   6.665   6.561
 4351TIP3    H112996   1.914   6.708   6.527
 4351TIP3    H212997   1.993   6.579   6.519
 4352TIP3   OH212998   0.894   1.641   2.315
 4352TIP3    H112999   0.819   1.585   2.337
 4352TIP3    H213000   0.950   1.638   2.393
 4353TIP3   OH213001   6.861   5.320   0.262
 4353TIP3    H113002   6.853   5.235   0.305
 4353TIP3    H213003   6.866   5.383   0.334
 4354TIP3   OH213004   1.515   5.529   1.767
 4354TIP3    H113005   1.565   5.450   1.788
 4354TIP3    H213006   1.445   5.531   1.832
 4355TIP3   OH213007   0.807   0.440   0.974
 4355TIP3    H113008   0.770   0.406   1.056
 4355TIP3    H213009   0.902   0.432   0.986
 4356TIP3   OH213010   5.135   3.969   2.994
 4356TIP3    H113011   5.138   3.994   2.902
 4356TIP3    H213012   5.148   4.051   3.042
 4357TIP3   OH213013   1.914   0.360   1.578
 4357TIP3    H113014   1.901   0.385   1.669
 4357TIP3    H213015   1.843   0.404   1.531
 4358TIP3   OH213016   6.885   6.660   1.372
 4358TIP3    H113017   6.938   6.690   1.298
 4358TIP3    H213018   6.945   6.607   1.425
 4359TIP3   OH213019   2.886   6.613   1.474
 4359TIP3    H113020   2.931   6.686   1.517
 4359TIP3    H213021   2.874   6.642   1.383
 4360TIP3   OH213022   2.788   4.325   1.337
 4360TIP3    H113023   2.810   4.233   1.323
 4360TIP3    H213024   2.872   4.368   1.348
 4361TIP3   OH213025   1.026   5.491   4.315
 4361TIP3    H113026   0.975   5.411   4.313
 4361TIP3    H213027   1.067   5.497   4.229
 4362TIP3   OH213028   4.676   7.589   6.589
 4362TIP3    H113029   4.605   7.611   6.649
 4362TIP3    H213030   4.755   7.613   6.636
 4363TIP3   OH213031   1.978   7.270   4.537
 4363TIP3    H113032   1.890   7.307   4.531
 4363TIP3    H213033   2.032   7.329   4.484
 4364TIP3   OH213034   7.338   6.139   3.725
 4364TIP3    H113035   7.287   6.191   3.663
 4364TIP3    H213036   7.368   6.063   3.674
 4365TIP3   OH213037   0.763   1.177   5.143
 4365TIP3    H113038   0.803   1.179   5.056
 4365TIP3    H213039   0.697   1.246   5.141
 4366TIP3   OH213040   0.566   2.532   0.685
 4366TIP3    H113041   0.512   2.607   0.707
 4366TIP3    H213042   0.533   2.502   0.600
 4367TIP3   OH213043   2.096   1.722   1.250
 4367TIP3    H113044   2.150   1.796   1.280
 4367TIP3    H213045   2.135   1.646   1.292
 4368TIP3   OH213046   6.660   2.265   6.065
 4368TIP3    H113047   6.589   2.229   6.118
 4368TIP3    H213048   6.716   2.311   6.127
 4369TIP3   OH213049   5.635   0.723   1.059
 4369TIP3    H113050   5.568   0.778   1.101
 4369TIP3    H213051   5.693   0.697   1.131
 4370TIP3   OH213052   5.522   2.294   4.874
 4370TIP3    H113053   5.596   2.344   4.839
 4370TIP3    H213054   5.562   2.220   4.919
 4371TIP3   OH213055   6.473   4.136   4.826
 4371TIP3    H113056   6.416   4.081   4.772
 4371TIP3    H213057   6.561   4.121   4.792
 4372TIP3   OH213058   3.463   2.660   5.227
 4372TIP3    H113059   3.455   2.614   5.143
 4372TIP3    H213060   3.452   2.591   5.292
 4373TIP3   OH213061   0.224   2.692   1.928
 4373TIP3    H113062   0.188   2.609   1.899
 4373TIP3    H213063   0.187   2.757   1.868
 4374TIP3   OH213064   0.581   1.745   1.590
 4374TIP3    H113065   0.590   1.738   1.495
 4374TIP3    H213066   0.624   1.666   1.624
 4375TIP3   OH213067   6.252   1.638   5.724
 4375TIP3    H113068   6.204   1.668   5.647
 4375TIP3    H213069   6.314   1.709   5.742
 4376TIP3   OH213070   7.358   6.904   4.405
 4376TIP3    H113071   7.446   6.889   4.370
 4376TIP3    H213072   7.314   6.820   4.397
 4377TIP3   OH213073   1.897   0.705   3.470
 4377TIP3    H113074   1.951   0.709   3.549
 4377TIP3    H213075   1.866   0.615   3.466
 4378TIP3   OH213076   4.162   0.143   0.772
 4378TIP3    H113077   4.083   0.197   0.762
 4378TIP3    H213078   4.142   0.063   0.722
 4379TIP3   OH213079   4.857   5.769   3.868
 4379TIP3    H113080   4.901   5.813   3.796
 4379TIP3    H213081   4.922   5.765   3.938
 4380TIP3   OH213082   4.475   1.151   4.938
 4380TIP3    H113083   4.440   1.067   4.906
 4380TIP3    H213084   4.428   1.167   5.020
 4381TIP3   OH213085   3.784   1.288   0.562
 4381TIP3    H113086   3.772   1.295   0.657
 4381TIP3    H213087   3.827   1.203   0.550
 4382TIP3   OH213088   5.214   4.069   2.744
 4382TIP3    H113089   5.274   4.139   2.716
 4382TIP3    H213090   5.157   4.054   2.669
 4383TIP3   OH213091   8.128   4.434   0.723
 4383TIP3    H113092   8.067   4.506   0.708
 4383TIP3    H213093   8.095   4.362   0.669
 4384TIP3   OH213094   7.705   0.609   4.214
 4384TIP3    H113095   7.747   0.597   4.129
 4384TIP3    H213096   7.743   0.541   4.270
 4385TIP3   OH213097   1.359   2.467   5.564
 4385TIP3    H113098   1.323   2.469   5.652
 4385TIP3    H213099   1.454   2.475   5.576
 4386TIP3   OH213100   3.452   2.081   4.732
 4386TIP3    H113101   3.459   2.102   4.639
 4386TIP3    H213102   3.359   2.091   4.753
 4387TIP3   OH213103   1.605   7.645   5.006
 4387TIP3    H113104   1.541   7.711   4.982
 4387TIP3    H213105   1.660   7.636   4.928
 4388TIP3   OH213106   6.700   7.231   3.837
 4388TIP3    H113107   6.774   7.169   3.843
 4388TIP3    H213108   6.626   7.177   3.809
 4389TIP3   OH213109   3.409   4.705   2.404
 4389TIP3    H113110   3.398   4.789   2.448
 4389TIP3    H213111   3.502   4.703   2.379
 4390TIP3   OH213112   1.967   6.151   6.459
 4390TIP3    H113113   2.040   6.120   6.406
 4390TIP3    H213114   1.966   6.094   6.536
 4391TIP3   OH213115   1.744   5.218   4.008
 4391TIP3    H113116   1.747   5.297   4.063
 4391TIP3    H213117   1.802   5.156   4.053
 4392TIP3   OH213118   7.116   6.722   6.501
 4392TIP3    H113119   7.044   6.705   6.561
 4392TIP3    H213120   7.183   6.764   6.555
 4393TIP3   OH213121   7.893   6.093   4.320
 4393TIP3    H113122   7.892   6.183   4.355
 4393TIP3    H213123   7.967   6.051   4.363
 4394TIP3   OH213124   1.852   7.052   4.441
 4394TIP3    H113125   1.790   7.049   4.515
 4394TIP3    H213126   1.865   7.146   4.425
 4395TIP3   OH213127   7.504   5.370   1.510
 4395TIP3    H113128   7.462   5.327   1.435
 4395TIP3    H213129   7.523   5.458   1.479
 4396TIP3   OH213130   3.722   3.860   5.789
 4396TIP3    H113131   3.665   3.789   5.759
 4396TIP3    H213132   3.811   3.827   5.777
 4397TIP3   OH213133   6.747   0.297   5.981
 4397TIP3    H113134   6.743   0.265   5.891
 4397TIP3    H213135   6.664   0.345   5.993
 4398TIP3   OH213136   2.509   2.610   1.642
 4398TIP3    H113137   2.528   2.552   1.568
 4398TIP3    H213138   2.448   2.560   1.697
 4399TIP3   OH213139   3.595   4.930   5.959
 4399TIP3    H113140   3.588   4.838   5.984
 4399TIP3    H213141   3.520   4.972   6.001
 4400TIP3   OH213142   1.091   6.410   2.965
 4400TIP3    H113143   1.030   6.441   2.897
 4400TIP3    H213144   1.178   6.425   2.928
 4401TIP3   OH213145   5.838   1.452   4.393
 4401TIP3    H113146   5.851   1.362   4.423
 4401TIP3    H213147   5.814   1.444   4.301
 4402TIP3   OH213148   2.325   4.004   3.387
 4402TIP3    H113149   2.414   4.025   3.414
 4402TIP3    H213150   2.334   3.927   3.331
 4403TIP3   OH213151   8.178   6.448   3.937
 4403TIP3    H113152   8.238   6.413   4.002
 4403TIP3    H213153   8.215   6.532   3.911
 4404TIP3   OH213154   7.994   6.022   1.484
 4404TIP3    H113155   8.029   6.005   1.397
 4404TIP3    H213156   7.959   5.938   1.513
 4405TIP3   OH213157   2.468   3.763   6.033
 4405TIP3    H113158   2.449   3.778   5.941
 4405TIP3    H213159   2.445   3.845   6.077
 4406TIP3   OH213160   5.338   4.484   2.145
 4406TIP3    H113161   5.318   4.442   2.061
 4406TIP3    H213162   5.289   4.434   2.210
 4407TIP3   OH213163   6.981   1.994   5.157
 4407TIP3    H113164   7.007   1.981   5.066
 4407TIP3    H213165   6.942   1.910   5.183
 4408TIP3   OH213166   4.676   4.381   3.842
 4408TIP3    H113167   4.638   4.458   3.883
 4408TIP3    H213168   4.668   4.397   3.748
 4409TIP3   OH213169   4.801   3.840   1.294
 4409TIP3    H113170   4.753   3.883   1.364
 4409TIP3    H213171   4.869   3.789   1.340
 4410TIP3   OH213172   1.824   3.946   3.473
 4410TIP3    H113173   1.894   4.007   3.453
 4410TIP3    H213174   1.749   3.976   3.422
 4411TIP3   OH213175   3.215   7.067   4.632
 4411TIP3    H113176   3.172   7.050   4.716
 4411TIP3    H213177   3.206   7.162   4.620
 4412TIP3   OH213178   0.236   6.068   5.452
 4412TIP3    H113179   0.215   6.010   5.525
 4412TIP3    H213180   0.170   6.048   5.386
 4413TIP3   OH213181   5.083   7.568   3.313
 4413TIP3    H113182   4.994   7.595   3.334
 4413TIP3    H213183   5.083   7.473   3.326
 4414TIP3   OH213184   0.769   3.551   0.067
 4414TIP3    H113185   0.822   3.574  -0.010
 4414TIP3    H213186   0.833   3.546   0.138
 4415TIP3   OH213187   0.993   0.490   0.216
 4415TIP3    H113188   0.936   0.567   0.212
 4415TIP3    H213189   1.017   0.483   0.309
 4416TIP3   OH213190   1.502   2.840   0.586
 4416TIP3    H113191   1.478   2.749   0.602
 4416TIP3    H213192   1.582   2.853   0.636
 4417TIP3   OH213193   2.180   6.964   0.008
 4417TIP3    H113194   2.193   6.958   0.103
 4417TIP3    H213195   2.208   6.879  -0.026
 4418TIP3   OH213196   1.625   4.642   0.658
 4418TIP3    H113197   1.545   4.689   0.633
 4418TIP3    H213198   1.664   4.695   0.727
 4419TIP3   OH213199   0.855   6.948   4.793
 4419TIP3    H113200   0.832   7.029   4.747
 4419TIP3    H213201   0.889   6.978   4.878
 4420TIP3   OH213202   7.802   6.203   6.308
 4420TIP3    H113203   7.798   6.229   6.400
 4420TIP3    H213204   7.881   6.150   6.301
 4421TIP3   OH213205   7.206   0.927   5.779
 4421TIP3    H113206   7.250   0.962   5.702
 4421TIP3    H213207   7.113   0.926   5.756
 4422TIP3   OH213208   3.488   1.107   3.369
 4422TIP3    H113209   3.397   1.082   3.385
 4422TIP3    H213210   3.511   1.063   3.287
 4423TIP3   OH213211   7.176   0.934   4.168
 4423TIP3    H113212   7.095   0.914   4.215
 4423TIP3    H213213   7.226   0.852   4.172
 4424TIP3   OH213214   1.739   2.602   5.421
 4424TIP3    H113215   1.767   2.677   5.369
 4424TIP3    H213216   1.757   2.526   5.365
 4425TIP3   OH213217   4.767   1.821   6.480
 4425TIP3    H113218   4.851   1.865   6.470
 4425TIP3    H213219   4.770   1.782   6.567
 4426TIP3   OH213220   7.563   3.933   1.505
 4426TIP3    H113221   7.529   3.934   1.594
 4426TIP3    H213222   7.585   3.841   1.489
 4427TIP3   OH213223   3.866   4.915   5.685
 4427TIP3    H113224   3.802   4.976   5.649
 4427TIP3    H213225   3.831   4.891   5.771
 4428TIP3   OH213226   3.802   5.383   3.775
 4428TIP3    H113227   3.757   5.382   3.859
 4428TIP3    H213228   3.755   5.318   3.722
 4429TIP3   OH213229   7.568   2.371   5.202
 4429TIP3    H113230   7.509   2.310   5.157
 4429TIP3    H213231   7.526   2.387   5.286
 4430TIP3   OH213232   2.942   7.327   3.864
 4430TIP3    H113233   3.026   7.363   3.892
 4430TIP3    H213234   2.877   7.390   3.895
 4431TIP3   OH213235   2.750   0.177   6.551
 4431TIP3    H113236   2.821   0.114   6.553
 4431TIP3    H213237   2.690   0.144   6.484
 4432TIP3   OH213238   6.425   6.891   4.560
 4432TIP3    H113239   6.371   6.895   4.639
 4432TIP3    H213240   6.473   6.809   4.568
 4433TIP3   OH213241   4.197   6.497   0.699
 4433TIP3    H113242   4.124   6.465   0.752
 4433TIP3    H213243   4.261   6.426   0.700
 4434TIP3   OH213244   3.738   2.244   5.997
 4434TIP3    H113245   3.676   2.193   6.049
 4434TIP3    H213246   3.685   2.312   5.955
 4435TIP3   OH213247   6.036   4.171   6.114
 4435TIP3    H113248   6.092   4.196   6.188
 4435TIP3    H213249   6.080   4.206   6.037
 4436TIP3   OH213250   2.427   5.004   1.303
 4436TIP3    H113251   2.491   5.074   1.292
 4436TIP3    H213252   2.467   4.929   1.259
 4437TIP3   OH213253   0.964   0.276   6.393
 4437TIP3    H113254   0.992   0.336   6.324
 4437TIP3    H213255   0.874   0.254   6.371
 4438TIP3   OH213256   6.770   7.030   4.186
 4438TIP3    H113257   6.810   6.993   4.264
 4438TIP3    H213258   6.680   7.051   4.212
 4439TIP3   OH213259   5.249   1.894   4.472
 4439TIP3    H113260   5.327   1.848   4.441
 4439TIP3    H213261   5.276   1.986   4.473
 4440TIP3   OH213262   2.086   3.482   6.208
 4440TIP3    H113263   2.115   3.390   6.207
 4440TIP3    H213264   2.127   3.520   6.130
 4441TIP3   OH213265   6.258   6.177   2.150
 4441TIP3    H113266   6.184   6.117   2.139
 4441TIP3    H213267   6.335   6.126   2.124
 4442TIP3   OH213268   3.887   0.115   0.366
 4442TIP3    H113269   3.932   0.047   0.316
 4442TIP3    H213270   3.809   0.071   0.400
 4443TIP3   OH213271   6.898   0.426   3.632
 4443TIP3    H113272   6.889   0.424   3.727
 4443TIP3    H213273   6.863   0.511   3.607
 4444TIP3   OH213274   8.043   2.539   4.272
 4444TIP3    H113275   8.065   2.526   4.364
 4444TIP3    H213276   8.026   2.451   4.238
 4445TIP3   OH213277   0.649   3.704   3.068
 4445TIP3    H113278   0.676   3.618   3.035
 4445TIP3    H213279   0.657   3.698   3.163
 4446TIP3   OH213280   5.940   2.587   1.516
 4446TIP3    H113281   6.007   2.620   1.576
 4446TIP3    H213282   5.860   2.586   1.569
 4447TIP3   OH213283   6.920   5.700   6.519
 4447TIP3    H113284   6.952   5.749   6.443
 4447TIP3    H213285   6.993   5.643   6.543
 4448TIP3   OH213286   3.718   4.091   4.705
 4448TIP3    H113287   3.786   4.116   4.768
 4448TIP3    H213288   3.675   4.173   4.682
 4449TIP3   OH213289   6.081   6.597   6.198
 4449TIP3    H113290   6.047   6.521   6.152
 4449TIP3    H213291   6.164   6.568   6.236
 4450TIP3   OH213292   1.733   6.453   1.960
 4450TIP3    H113293   1.770   6.390   1.898
 4450TIP3    H213294   1.643   6.465   1.930
 4451TIP3   OH213295   5.404   4.058   2.067
 4451TIP3    H113296   5.324   4.063   2.014
 4451TIP3    H213297   5.474   4.045   2.003
 4452TIP3   OH213298   2.876   4.527   5.782
 4452TIP3    H113299   2.887   4.619   5.760
 4452TIP3    H213300   2.953   4.484   5.746
 4453TIP3   OH213301   0.948   4.150   2.828
 4453TIP3    H113302   1.016   4.185   2.772
 4453TIP3    H213303   0.991   4.133   2.911
 4454TIP3   OH213304   6.840   2.520   6.148
 4454TIP3    H113305   6.871   2.573   6.221
 4454TIP3    H213306   6.745   2.521   6.156
 4455TIP3   OH213307   1.123   2.371   0.430
 4455TIP3    H113308   1.197   2.347   0.487
 4455TIP3    H213309   1.082   2.287   0.408
 4456TIP3   OH213310   4.282   2.832   5.087
 4456TIP3    H113311   4.367   2.794   5.067
 4456TIP3    H213312   4.241   2.847   5.002
 4457TIP3   OH213313   2.824   7.255   5.243
 4457TIP3    H113314   2.872   7.178   5.210
 4457TIP3    H213315   2.743   7.256   5.191
 4458TIP3   OH213316   3.264   0.472   4.282
 4458TIP3    H113317   3.323   0.515   4.220
 4458TIP3    H213318   3.289   0.507   4.367
 4459TIP3   OH213319   5.891   5.786   3.269
 4459TIP3    H113320   5.825   5.855   3.262
 4459TIP3    H213321   5.939   5.807   3.349
 4460TIP3   OH213322   3.110   7.560   1.924
 4460TIP3    H113323   3.138   7.484   1.975
 4460TIP3    H213324   3.024   7.536   1.890
 4461TIP3   OH213325   1.190   3.551   4.320
 4461TIP3    H113326   1.130   3.477   4.321
 4461TIP3    H213327   1.277   3.512   4.334
 4462TIP3   OH213328   6.977   5.931   1.876
 4462TIP3    H113329   7.054   5.945   1.931
 4462TIP3    H213330   7.010   5.879   1.802
 4463TIP3   OH213331   7.205   3.706   3.815
 4463TIP3    H113332   7.266   3.725   3.886
 4463TIP3    H213333   7.207   3.785   3.760
 4464TIP3   OH213334   2.838   2.036   0.352
 4464TIP3    H113335   2.911   2.094   0.329
 4464TIP3    H213336   2.875   1.974   0.415
 4465TIP3   OH213337   2.862   3.925   2.301
 4465TIP3    H113338   2.884   3.834   2.280
 4465TIP3    H213339   2.946   3.971   2.300
 4466TIP3   OH213340   7.630   1.135   4.835
 4466TIP3    H113341   7.705   1.076   4.831
 4466TIP3    H213342   7.557   1.079   4.860
 4467TIP3   OH213343   1.964   2.232   6.388
 4467TIP3    H113344   1.937   2.191   6.305
 4467TIP3    H213345   1.958   2.161   6.452
 4468TIP3   OH213346   6.905   1.973   3.231
 4468TIP3    H113347   6.918   1.891   3.183
 4468TIP3    H213348   6.959   1.964   3.309
 4469TIP3   OH213349   1.483   1.470   3.080
 4469TIP3    H113350   1.544   1.467   3.006
 4469TIP3    H213351   1.461   1.378   3.097
 4470TIP3   OH213352   7.398   6.894   3.002
 4470TIP3    H113353   7.479   6.847   3.019
 4470TIP3    H213354   7.378   6.937   3.085
 4471TIP3   OH213355   0.264   2.939   2.073
 4471TIP3    H113356   0.218   2.862   2.040
 4471TIP3    H213357   0.256   3.003   2.002
 4472TIP3   OH213358   1.837   7.040   6.355
 4472TIP3    H113359   1.891   7.030   6.276
 4472TIP3    H213360   1.893   7.009   6.426
 4473TIP3   OH213361   3.589   6.044   0.630
 4473TIP3    H113362   3.563   6.132   0.604
 4473TIP3    H213363   3.650   6.057   0.702
 4474TIP3   OH213364   1.854   4.392   0.134
 4474TIP3    H113365   1.940   4.434   0.142
 4474TIP3    H213366   1.835   4.359   0.222
 4475TIP3   OH213367   2.436   3.054   4.697
 4475TIP3    H113368   2.502   3.003   4.744
 4475TIP3    H213369   2.454   3.145   4.722
 4476TIP3   OH213370   0.163   5.769   5.466
 4476TIP3    H113371   0.120   5.814   5.393
 4476TIP3    H213372   0.124   5.682   5.467
 4477TIP3   OH213373   3.110   5.556   1.484
 4477TIP3    H113374   3.181   5.583   1.425
 4477TIP3    H213375   3.086   5.636   1.530
 4478TIP3   OH213376   7.894   7.368   2.979
 4478TIP3    H113377   7.988   7.386   2.977
 4478TIP3    H213378   7.887   7.280   3.016
 4479TIP3   OH213379   4.787   7.652   1.903
 4479TIP3    H113380   4.802   7.577   1.846
 4479TIP3    H213381   4.828   7.628   1.986
 4480TIP3   OH213382   2.941   0.013   1.207
 4480TIP3    H113383   2.854  -0.004   1.170
 4480TIP3    H213384   2.926   0.074   1.279
 4481TIP3   OH213385   6.125   3.652   3.818
 4481TIP3    H113386   6.208   3.677   3.776
 4481TIP3    H213387   6.152   3.617   3.903
 4482TIP3   OH213388   3.888   6.132   2.633
 4482TIP3    H113389   3.804   6.160   2.597
 4482TIP3    H213390   3.872   6.043   2.664
 4483TIP3   OH213391   6.042   2.217   4.487
 4483TIP3    H113392   6.036   2.311   4.472
 4483TIP3    H213393   6.070   2.208   4.578
 4484TIP3   OH213394   4.425   3.463   0.792
 4484TIP3    H113395   4.359   3.445   0.859
 4484TIP3    H213396   4.422   3.387   0.734
 4485TIP3   OH213397   6.772   2.469   5.086
 4485TIP3    H113398   6.815   2.461   5.000
 4485TIP3    H213399   6.732   2.384   5.100
 4486TIP3   OH213400   6.051   0.742   6.321
 4486TIP3    H113401   5.963   0.753   6.358
 4486TIP3    H213402   6.040   0.755   6.227
 4487TIP3   OH213403   5.026   3.950   5.591
 4487TIP3    H113404   5.087   4.024   5.596
 4487TIP3    H213405   5.053   3.902   5.513
 4488TIP3   OH213406   2.344   7.595   4.816
 4488TIP3    H113407   2.424   7.644   4.836
 4488TIP3    H213408   2.332   7.536   4.890
 4489TIP3   OH213409   6.956   0.127   4.809
 4489TIP3    H113410   7.050   0.121   4.826
 4489TIP3    H213411   6.931   0.040   4.780
 4490TIP3   OH213412   1.796   7.042   2.891
 4490TIP3    H113413   1.826   6.960   2.852
 4490TIP3    H213414   1.789   7.023   2.985
 4491TIP3   OH213415   0.150   0.464   6.099
 4491TIP3    H113416   0.155   0.472   6.194
 4491TIP3    H213417   0.076   0.405   6.084
 4492TIP3   OH213418   4.398   6.912   5.129
 4492TIP3    H113419   4.365   6.925   5.040
 4492TIP3    H213420   4.349   6.976   5.182
 4493TIP3   OH213421   5.496   3.695   4.342
 4493TIP3    H113422   5.490   3.653   4.256
 4493TIP3    H213423   5.405   3.703   4.371
 4494TIP3   OH213424   4.122   6.327   4.937
 4494TIP3    H113425   4.213   6.300   4.950
 4494TIP3    H213426   4.126   6.389   4.864
 4495TIP3   OH213427   3.885   0.322   2.370
 4495TIP3    H113428   3.911   0.389   2.433
 4495TIP3    H213429   3.815   0.274   2.414
 4496TIP3   OH213430   7.138   7.475   0.866
 4496TIP3    H113431   7.173   7.400   0.818
 4496TIP3    H213432   7.053   7.492   0.825
 4497TIP3   OH213433   7.343   2.050   1.229
 4497TIP3    H113434   7.387   2.097   1.301
 4497TIP3    H213435   7.369   1.959   1.241
 4498TIP3   OH213436   0.073   7.016   2.594
 4498TIP3    H113437   0.048   6.951   2.527
 4498TIP3    H213438   0.039   6.980   2.676
 4499TIP3   OH213439   3.218   1.020   3.946
 4499TIP3    H113440   3.249   0.986   4.029
 4499TIP3    H213441   3.288   1.077   3.915
 4500TIP3   OH213442   6.596   7.332   5.479
 4500TIP3    H113443   6.596   7.419   5.440
 4500TIP3    H213444   6.684   7.321   5.514
 4501TIP3   OH213445   4.547   1.095   0.389
 4501TIP3    H113446   4.575   1.086   0.298
 4501TIP3    H213447   4.519   1.186   0.396
 4502TIP3   OH213448   5.465   3.325   4.574
 4502TIP3    H113449   5.556   3.329   4.547
 4502TIP3    H213450   5.416   3.311   4.493
 4503TIP3   OH213451   1.749   0.660   5.399
 4503TIP3    H113452   1.680   0.714   5.360
 4503TIP3    H213453   1.751   0.581   5.346
 4504TIP3   OH213454   0.876   4.540   4.306
 4504TIP3    H113455   0.939   4.585   4.249
 4504TIP3    H213456   0.917   4.542   4.392
 4505TIP3   OH213457   0.616   1.797   5.094
 4505TIP3    H113458   0.699   1.837   5.066
 4505TIP3    H213459   0.568   1.870   5.134
 4506TIP3   OH213460   6.577   1.220   5.667
 4506TIP3    H113461   6.581   1.155   5.738
 4506TIP3    H213462   6.485   1.246   5.664
 4507TIP3   OH213463   3.617   7.829   2.268
 4507TIP3    H113464   3.538   7.879   2.248
 4507TIP3    H213465   3.604   7.798   2.358
 4508TIP3   OH213466   4.573   7.261   5.003
 4508TIP3    H113467   4.587   7.265   5.097
 4508TIP3    H213468   4.485   7.224   4.993
 4509TIP3   OH213469   4.384   6.769   3.514
 4509TIP3    H113470   4.440   6.711   3.463
 4509TIP3    H213471   4.395   6.855   3.473
 4510TIP3   OH213472   7.710   2.227   1.023
 4510TIP3    H113473   7.736   2.319   1.021
 4510TIP3    H213474   7.653   2.216   0.947
 4511TIP3   OH213475   2.720   0.689   5.778
 4511TIP3    H113476   2.657   0.626   5.745
 4511TIP3    H213477   2.804   0.643   5.774
 4512TIP3   OH213478   7.163   0.924   4.907
 4512TIP3    H113479   7.245   0.888   4.872
 4512TIP3    H213480   7.167   0.905   5.001
 4513TIP3   OH213481   3.841   5.941   2.838
 4513TIP3    H113482   3.748   5.956   2.855
 4513TIP3    H213483   3.884   5.959   2.922
 4514TIP3   OH213484   6.340   6.823   0.661
 4514TIP3    H113485   6.319   6.753   0.599
 4514TIP3    H213486   6.348   6.779   0.746
 4515TIP3   OH213487   5.118   6.459   5.623
 4515TIP3    H113488   5.153   6.440   5.536
 4515TIP3    H213489   5.177   6.526   5.659
 4516TIP3   OH213490   6.233   7.327   3.296
 4516TIP3    H113491   6.169   7.296   3.231
 4516TIP3    H213492   6.314   7.340   3.246
 4517TIP3   OH213493   0.714   3.869   6.074
 4517TIP3    H113494   0.728   3.823   5.991
 4517TIP3    H213495   0.686   3.802   6.135
 4518TIP3   OH213496   2.219   0.820   5.645
 4518TIP3    H113497   2.239   0.734   5.681
 4518TIP3    H213498   2.145   0.805   5.586
 4519TIP3   OH213499   7.671   5.414   4.828
 4519TIP3    H113500   7.704   5.331   4.864
 4519TIP3    H213501   7.606   5.387   4.763
 4520TIP3   OH213502   7.265   2.285   0.752
 4520TIP3    H113503   7.188   2.229   0.743
 4520TIP3    H213504   7.301   2.264   0.838
 4521TIP3   OH213505   8.238   3.054   6.437
 4521TIP3    H113506   8.280   3.134   6.470
 4521TIP3    H213507   8.219   3.074   6.345
 4522TIP3   OH213508   4.665   2.013   2.801
 4522TIP3    H113509   4.700   2.101   2.818
 4522TIP3    H213510   4.679   1.999   2.708
 4523TIP3   OH213511   0.977   3.582   1.866
 4523TIP3    H113512   0.954   3.669   1.832
 4523TIP3    H213513   0.894   3.542   1.889
 4524TIP3   OH213514   0.996   7.833   2.135
 4524TIP3    H113515   1.053   7.783   2.076
 4524TIP3    H213516   1.021   7.924   2.120
 4525TIP3   OH213517   6.586   1.595   1.095
 4525TIP3    H113518   6.595   1.673   1.149
 4525TIP3    H213519   6.503   1.606   1.050
 4526TIP3   OH213520   1.473   5.469   3.012
 4526TIP3    H113521   1.453   5.544   3.067
 4526TIP3    H213522   1.403   5.406   3.029
 4527TIP3   OH213523   3.559   6.218   3.505
 4527TIP3    H113524   3.552   6.122   3.508
 4527TIP3    H213525   3.619   6.240   3.575
 4528TIP3   OH213526   6.300   1.320   1.082
 4528TIP3    H113527   6.272   1.407   1.111
 4528TIP3    H213528   6.381   1.303   1.130
 4529TIP3   OH213529   8.205   3.942   0.622
 4529TIP3    H113530   8.206   4.009   0.689
 4529TIP3    H213531   8.256   3.978   0.550
 4530TIP3   OH213532   7.919   6.798   1.069
 4530TIP3    H113533   7.881   6.886   1.073
 4530TIP3    H213534   7.878   6.751   1.141
 4531TIP3   OH213535   1.785   3.510   5.861
 4531TIP3    H113536   1.817   3.423   5.836
 4531TIP3    H213537   1.753   3.548   5.779
 4532TIP3   OH213538   0.392   0.708   4.250
 4532TIP3    H113539   0.309   0.662   4.234
 4532TIP3    H213540   0.407   0.697   4.344
 4533TIP3   OH213541   7.832   2.567   6.092
 4533TIP3    H113542   7.874   2.586   6.176
 4533TIP3    H213543   7.886   2.498   6.053
 4534TIP3   OH213544   1.172   0.718   4.475
 4534TIP3    H113545   1.226   0.642   4.497
 4534TIP3    H213546   1.196   0.785   4.540
 4535TIP3   OH213547   2.137   2.573   5.289
 4535TIP3    H113548   2.211   2.571   5.350
 4535TIP3    H213549   2.177   2.558   5.203
 4536TIP3   OH213550   5.231   2.933   4.811
 4536TIP3    H113551   5.295   2.962   4.747
 4536TIP3    H213552   5.151   2.982   4.789
 4537TIP3   OH213553   4.219   0.239   0.100
 4537TIP3    H113554   4.243   0.276   0.186
 4537TIP3    H213555   4.271   0.289   0.038
 4538TIP3   OH213556   6.438   1.826   2.829
 4538TIP3    H113557   6.412   1.735   2.811
 4538TIP3    H213558   6.359   1.877   2.812
 4539TIP3   OH213559   7.170   3.170   4.542
 4539TIP3    H113560   7.188   3.164   4.448
 4539TIP3    H213561   7.257   3.167   4.583
 4540TIP3   OH213562   3.534   7.308   1.102
 4540TIP3    H113563   3.544   7.380   1.164
 4540TIP3    H213564   3.621   7.297   1.064
 4541TIP3   OH213565   4.895   4.170   0.570
 4541TIP3    H113566   4.928   4.258   0.590
 4541TIP3    H213567   4.899   4.124   0.654
 4542TIP3   OH213568   4.842   7.457   1.720
 4542TIP3    H113569   4.906   7.407   1.670
 4542TIP3    H213570   4.854   7.547   1.690
 4543TIP3   OH213571   2.820   4.608   4.114
 4543TIP3    H113572   2.796   4.524   4.153
 4543TIP3    H213573   2.800   4.673   4.182
 4544TIP3   OH213574   8.214   2.357   3.416
 4544TIP3    H113575   8.270   2.292   3.460
 4544TIP3    H213576   8.271   2.433   3.403
 4545TIP3   OH213577   6.068   1.437   0.749
 4545TIP3    H113578   6.059   1.397   0.662
 4545TIP3    H213579   6.011   1.514   0.746
 4546TIP3   OH213580   0.893   6.842   6.037
 4546TIP3    H113581   0.862   6.805   5.955
 4546TIP3    H213582   0.988   6.828   6.036
 4547TIP3   OH213583   2.627   3.697   3.513
 4547TIP3    H113584   2.660   3.758   3.579
 4547TIP3    H213585   2.700   3.685   3.452
 4548TIP3   OH213586   3.043   0.788   6.778
 4548TIP3    H113587   3.052   0.695   6.756
 4548TIP3    H213588   3.035   0.831   6.693
 4549TIP3   OH213589   1.608   4.705   2.327
 4549TIP3    H113590   1.609   4.657   2.244
 4549TIP3    H213591   1.534   4.667   2.376
 4550TIP3   OH213592   0.250   1.831   6.386
 4550TIP3    H113593   0.221   1.744   6.414
 4550TIP3    H213594   0.221   1.838   6.295
 4551TIP3   OH213595   4.130   3.691   0.953
 4551TIP3    H113596   4.048   3.739   0.964
 4551TIP3    H213597   4.198   3.756   0.972
 4552TIP3   OH213598   4.410   3.094   4.727
 4552TIP3    H113599   4.471   3.162   4.754
 4552TIP3    H213600   4.414   3.094   4.631
 4553TIP3   OH213601   3.917   0.934   3.947
 4553TIP3    H113602   3.982   0.917   3.879
 4553TIP3    H213603   3.949   0.887   4.024
 4554TIP3   OH213604   7.602   5.792   5.921
 4554TIP3    H113605   7.588   5.793   6.016
 4554TIP3    H213606   7.645   5.709   5.904
 4555TIP3   OH213607   1.153   6.758   5.766
 4555TIP3    H113608   1.157   6.674   5.722
 4555TIP3    H213609   1.239   6.768   5.807
 4556TIP3   OH213610   0.189   3.561   1.027
 4556TIP3    H113611   0.212   3.642   0.982
 4556TIP3    H213612   0.146   3.588   1.107
 4557TIP3   OH213613   0.942   4.845   3.963
 4557TIP3    H113614   0.963   4.938   3.952
 4557TIP3    H213615   0.862   4.832   3.913
 4558TIP3   OH213616   5.041   2.986   2.932
 4558TIP3    H113617   5.099   2.910   2.931
 4558TIP3    H213618   4.955   2.951   2.909
 4559TIP3   OH213619   5.200   0.980   0.412
 4559TIP3    H113620   5.112   0.954   0.387
 4559TIP3    H213621   5.194   0.999   0.506
 4560TIP3   OH213622   5.412   7.424   3.739
 4560TIP3    H113623   5.468   7.387   3.807
 4560TIP3    H213624   5.363   7.349   3.705
 4561TIP3   OH213625   2.079   1.656   5.653
 4561TIP3    H113626   2.007   1.621   5.600
 4561TIP3    H213627   2.045   1.739   5.687
 4562TIP3   OH213628   6.765   5.712   3.268
 4562TIP3    H113629   6.816   5.673   3.197
 4562TIP3    H213630   6.786   5.658   3.344
 4563TIP3   OH213631   7.670   7.806   0.695
 4563TIP3    H113632   7.585   7.765   0.708
 4563TIP3    H213633   7.725   7.772   0.765
 4564TIP3   OH213634   1.819   1.672   1.977
 4564TIP3    H113635   1.784   1.752   1.937
 4564TIP3    H213636   1.891   1.703   2.032
 4565TIP3   OH213637   6.897   1.843   4.102
 4565TIP3    H113638   6.958   1.866   4.172
 4565TIP3    H213639   6.872   1.752   4.122
 4566TIP3   OH213640   7.457   3.434   1.079
 4566TIP3    H113641   7.493   3.522   1.087
 4566TIP3    H213642   7.410   3.420   1.162
 4567TIP3   OH213643   1.107   5.891   3.670
 4567TIP3    H113644   1.031   5.891   3.727
 4567TIP3    H213645   1.085   5.952   3.599
 4568TIP3   OH213646   0.228   7.674   2.151
 4568TIP3    H113647   0.230   7.590   2.196
 4568TIP3    H213648   0.280   7.661   2.072
 4569TIP3   OH213649   6.140   1.332   3.083
 4569TIP3    H113650   6.084   1.392   3.033
 4569TIP3    H213651   6.225   1.376   3.085
 4570TIP3   OH213652   4.848   1.948   4.171
 4570TIP3    H113653   4.901   1.912   4.100
 4570TIP3    H213654   4.897   1.929   4.251
 4571TIP3   OH213655   4.683   2.397   3.742
 4571TIP3    H113656   4.640   2.348   3.813
 4571TIP3    H213657   4.729   2.467   3.787
 4572TIP3   OH213658   2.425   4.193   5.425
 4572TIP3    H113659   2.407   4.241   5.507
 4572TIP3    H213660   2.392   4.250   5.356
 4573TIP3   OH213661   6.312   1.065   4.318
 4573TIP3    H113662   6.298   0.978   4.281
 4573TIP3    H213663   6.397   1.060   4.362
 4574TIP3   OH213664   6.432   0.542   6.611
 4574TIP3    H113665   6.359   0.484   6.592
 4574TIP3    H213666   6.395   0.630   6.611
 4575TIP3   OH213667   4.509   7.813   5.355
 4575TIP3    H113668   4.580   7.765   5.311
 4575TIP3    H213669   4.444   7.745   5.376
 4576TIP3   OH213670   1.172   1.295   0.925
 4576TIP3    H113671   1.107   1.224   0.925
 4576TIP3    H213672   1.176   1.323   0.834
 4577TIP3   OH213673   3.046   7.709   1.169
 4577TIP3    H113674   3.035   7.787   1.223
 4577TIP3    H213675   3.094   7.739   1.092
 4578TIP3   OH213676   6.389   7.156   5.450
 4578TIP3    H113677   6.351   7.170   5.537
 4578TIP3    H213678   6.457   7.223   5.443
 4579TIP3   OH213679   2.481   0.998   2.894
 4579TIP3    H113680   2.430   0.933   2.844
 4579TIP3    H213681   2.438   1.081   2.875
 4580TIP3   OH213682   4.529   3.647   0.986
 4580TIP3    H113683   4.510   3.576   0.924
 4580TIP3    H213684   4.624   3.645   0.997
 4581TIP3   OH213685   0.611   3.901   2.206
 4581TIP3    H113686   0.520   3.900   2.236
 4581TIP3    H213687   0.606   3.877   2.113
 4582TIP3   OH213688   6.396   7.340   2.746
 4582TIP3    H113689   6.430   7.425   2.719
 4582TIP3    H213690   6.322   7.360   2.803
 4583TIP3   OH213691   5.004   3.570   5.961
 4583TIP3    H113692   4.966   3.586   6.048
 4583TIP3    H213693   5.009   3.475   5.955
 4584TIP3   OH213694   0.903   3.752   0.311
 4584TIP3    H113695   0.892   3.666   0.349
 4584TIP3    H213696   0.988   3.748   0.267
 4585TIP3   OH213697   0.634   4.655   5.771
 4585TIP3    H113698   0.640   4.750   5.755
 4585TIP3    H213699   0.573   4.624   5.704
 4586TIP3   OH213700   2.645   0.872   2.297
 4586TIP3    H113701   2.718   0.814   2.275
 4586TIP3    H213702   2.594   0.823   2.361
 4587TIP3   OH213703   2.046   2.989   0.523
 4587TIP3    H113704   2.038   3.033   0.439
 4587TIP3    H213705   1.961   3.003   0.566
 4588TIP3   OH213706   5.173   3.601   4.235
 4588TIP3    H113707   5.152   3.509   4.252
 4588TIP3    H213708   5.184   3.640   4.322
 4589TIP3   OH213709   4.248   4.073   5.846
 4589TIP3    H113710   4.155   4.092   5.850
 4589TIP3    H213711   4.260   3.999   5.906
 4590TIP3   OH213712   7.858   7.315   4.005
 4590TIP3    H113713   7.821   7.287   4.089
 4590TIP3    H213714   7.859   7.236   3.952
 4591TIP3   OH213715   3.953   1.759   1.270
 4591TIP3    H113716   4.015   1.794   1.333
 4591TIP3    H213717   3.997   1.683   1.231
 4592TIP3   OH213718   0.028   0.918   1.866
 4592TIP3    H113719  -0.015   0.853   1.810
 4592TIP3    H213720   0.042   0.873   1.949
 4593TIP3   OH213721   5.815   1.144   3.908
 4593TIP3    H113722   5.769   1.090   3.973
 4593TIP3    H213723   5.759   1.141   3.831
 4594TIP3   OH213724   2.412   1.535   4.042
 4594TIP3    H113725   2.498   1.501   4.067
 4594TIP3    H213726   2.415   1.537   3.946
 4595TIP3   OH213727   1.551   5.899   0.068
 4595TIP3    H113728   1.515   5.984   0.043
 4595TIP3    H213729   1.524   5.888   0.159
 4596TIP3   OH213730   6.517   7.298   0.971
 4596TIP3    H113731   6.591   7.345   0.932
 4596TIP3    H213732   6.486   7.355   1.041
 4597TIP3   OH213733   1.728   4.955   0.281
 4597TIP3    H113734   1.706   4.963   0.189
 4597TIP3    H213735   1.736   4.861   0.296
 4598TIP3   OH213736   4.342   7.703   0.137
 4598TIP3    H113737   4.413   7.646   0.164
 4598TIP3    H213738   4.373   7.792   0.157
 4599TIP3   OH213739   0.839   1.226   1.714
 4599TIP3    H113740   0.904   1.160   1.689
 4599TIP3    H213741   0.800   1.193   1.794
 4600TIP3   OH213742   4.419   1.974   5.003
 4600TIP3    H113743   4.499   2.000   5.049
 4600TIP3    H213744   4.428   1.880   4.990
 4601TIP3   OH213745   6.958   1.252   3.196
 4601TIP3    H113746   6.981   1.345   3.205
 4601TIP3    H213747   7.024   1.216   3.138
 4602TIP3   OH213748   2.604   2.022   3.988
 4602TIP3    H113749   2.566   1.941   3.954
 4602TIP3    H213750   2.574   2.026   4.079
 4603TIP3   OH213751   4.439   1.200   4.671
 4603TIP3    H113752   4.450   1.180   4.764
 4603TIP3    H213753   4.399   1.286   4.670
 4604TIP3   OH213754   4.744   3.212   1.853
 4604TIP3    H113755   4.721   3.135   1.906
 4604TIP3    H213756   4.660   3.251   1.830
 4605TIP3   OH213757   3.760   6.296   5.847
 4605TIP3    H113758   3.705   6.368   5.877
 4605TIP3    H213759   3.847   6.318   5.879
 4606TIP3   OH213760   4.132   5.234   5.411
 4606TIP3    H113761   4.130   5.142   5.438
 4606TIP3    H213762   4.208   5.271   5.457
 4607TIP3   OH213763   7.326   5.763   5.650
 4607TIP3    H113764   7.270   5.836   5.676
 4607TIP3    H213765   7.300   5.744   5.560
 4608TIP3   OH213766   5.116   4.422   5.493
 4608TIP3    H113767   5.033   4.460   5.464
 4608TIP3    H213768   5.151   4.378   5.415
 4609TIP3   OH213769   3.439   0.883   0.772
 4609TIP3    H113770   3.419   0.969   0.737
 4609TIP3    H213771   3.494   0.842   0.706
 4610TIP3   OH213772   5.259   4.339   1.939
 4610TIP3    H113773   5.201   4.264   1.927
 4610TIP3    H213774   5.291   4.359   1.851
 4611TIP3   OH213775   1.997   5.812   5.335
 4611TIP3    H113776   2.042   5.888   5.372
 4611TIP3    H213777   1.914   5.846   5.303
 4612TIP3   OH213778   4.462   6.690   5.968
 4612TIP3    H113779   4.404   6.740   5.910
 4612TIP3    H213780   4.411   6.677   6.048
 4613TIP3   OH213781   3.303   0.192   5.959
 4613TIP3    H113782   3.352   0.138   6.022
 4613TIP3    H213783   3.218   0.149   5.952
 4614TIP3   OH213784   5.760   5.415   1.987
 4614TIP3    H113785   5.740   5.408   1.894
 4614TIP3    H213786   5.773   5.324   2.016
 4615TIP3   OH213787   0.714   7.444   4.297
 4615TIP3    H113788   0.749   7.512   4.239
 4615TIP3    H213789   0.791   7.412   4.345
 4616TIP3   OH213790   8.182   2.759   4.050
 4616TIP3    H113791   8.179   2.682   4.106
 4616TIP3    H213792   8.270   2.759   4.012
 4617TIP3   OH213793   1.698   2.916   4.447
 4617TIP3    H113794   1.698   3.000   4.400
 4617TIP3    H213795   1.638   2.930   4.520
 4618TIP3   OH213796   0.469   2.690   3.185
 4618TIP3    H113797   0.544   2.652   3.231
 4618TIP3    H213798   0.460   2.639   3.105
 4619TIP3   OH213799   3.053   4.048   5.219
 4619TIP3    H113800   2.996   4.013   5.287
 4619TIP3    H213801   3.138   4.059   5.262
 4620TIP3   OH213802   7.554   6.317   1.701
 4620TIP3    H113803   7.577   6.224   1.699
 4620TIP3    H213804   7.622   6.357   1.756
 4621TIP3   OH213805   5.716   4.510   5.841
 4621TIP3    H113806   5.667   4.461   5.775
 4621TIP3    H213807   5.714   4.601   5.809
 4622TIP3   OH213808   6.901   2.841   1.730
 4622TIP3    H113809   6.952   2.914   1.766
 4622TIP3    H213810   6.922   2.767   1.787
 4623TIP3   OH213811   0.174   2.613   4.644
 4623TIP3    H113812   0.116   2.587   4.573
 4623TIP3    H213813   0.182   2.708   4.636
 4624TIP3   OH213814   4.240   7.440   4.950
 4624TIP3    H113815   4.154   7.433   4.991
 4624TIP3    H213816   4.282   7.356   4.967
 4625TIP3   OH213817   3.262   0.456   5.173
 4625TIP3    H113818   3.234   0.447   5.082
 4625TIP3    H213819   3.199   0.404   5.223
 4626TIP3   OH213820   1.696   1.503   6.684
 4626TIP3    H113821   1.735   1.422   6.651
 4626TIP3    H213822   1.697   1.494   6.779
 4627TIP3   OH213823   5.986   0.813   2.590
 4627TIP3    H113824   6.031   0.738   2.551
 4627TIP3    H213825   5.939   0.777   2.665
 4628TIP3   OH213826   5.525   4.709   2.855
 4628TIP3    H113827   5.588   4.654   2.900
 4628TIP3    H213828   5.565   4.796   2.856
 4629TIP3   OH213829   1.244   5.966   3.322
 4629TIP3    H113830   1.170   5.999   3.373
 4629TIP3    H213831   1.279   6.043   3.277
 4630TIP3   OH213832   6.687   1.703   6.665
 4630TIP3    H113833   6.780   1.689   6.684
 4630TIP3    H213834   6.673   1.656   6.582
 4631TIP3   OH213835   3.254   0.961   1.157
 4631TIP3    H113836   3.325   1.009   1.198
 4631TIP3    H213837   3.228   0.895   1.222
 4632TIP3   OH213838   2.088   7.595   0.589
 4632TIP3    H113839   2.137   7.525   0.633
 4632TIP3    H213840   2.000   7.590   0.628
 4633TIP3   OH213841   5.769   0.037   2.352
 4633TIP3    H113842   5.831  -0.019   2.304
 4633TIP3    H213843   5.696   0.050   2.291
 4634TIP3   OH213844   3.543   0.845   6.569
 4634TIP3    H113845   3.596   0.770   6.541
 4634TIP3    H213846   3.458   0.807   6.591
 4635TIP3   OH213847   1.993   5.641   2.673
 4635TIP3    H113848   2.057   5.604   2.733
 4635TIP3    H213849   2.041   5.657   2.592
 4636TIP3   OH213850   0.128   5.297   3.404
 4636TIP3    H113851   0.083   5.224   3.448
 4636TIP3    H213852   0.218   5.292   3.435
 4637TIP3   OH213853   6.611   1.681   1.562
 4637TIP3    H113854   6.599   1.771   1.591
 4637TIP3    H213855   6.703   1.661   1.581
 4638TIP3   OH213856   0.320   4.818   5.757
 4638TIP3    H113857   0.283   4.734   5.780
 4638TIP3    H213858   0.312   4.871   5.836
 4639TIP3   OH213859   5.331   6.654   4.292
 4639TIP3    H113860   5.301   6.645   4.382
 4639TIP3    H213861   5.275   6.722   4.254
 4640TIP3   OH213862   5.346   0.499   0.200
 4640TIP3    H113863   5.302   0.453   0.128
 4640TIP3    H213864   5.291   0.576   0.216
 4641TIP3   OH213865   8.037   6.489   2.446
 4641TIP3    H113866   7.986   6.567   2.470
 4641TIP3    H213867   8.065   6.453   2.530
 4642TIP3   OH213868   4.871   4.541   5.410
 4642TIP3    H113869   4.879   4.625   5.456
 4642TIP3    H213870   4.797   4.498   5.452
 4643TIP3   OH213871   6.876   1.512   2.980
 4643TIP3    H113872   6.803   1.532   3.038
 4643TIP3    H213873   6.940   1.581   2.998
 4644TIP3   OH213874   6.846   3.356   2.904
 4644TIP3    H113875   6.792   3.304   2.844
 4644TIP3    H213876   6.795   3.359   2.985
 4645TIP3   OH213877   7.785   1.212   0.922
 4645TIP3    H113878   7.731   1.180   0.850
 4645TIP3    H213879   7.832   1.135   0.953
 4646TIP3   OH213880   7.734   5.220   5.653
 4646TIP3    H113881   7.720   5.249   5.743
 4646TIP3    H213882   7.829   5.206   5.647
 4647TIP3   OH213883   0.128   6.558   6.351
 4647TIP3    H113884   0.197   6.616   6.320
 4647TIP3    H213885   0.050   6.613   6.358
 4648TIP3   OH213886   1.640   1.819   6.221
 4648TIP3    H113887   1.655   1.858   6.308
 4648TIP3    H213888   1.672   1.729   6.231
 4649TIP3   OH213889   2.545   7.762   6.538
 4649TIP3    H113890   2.457   7.796   6.523
 4649TIP3    H213891   2.540   7.719   6.623
 4650TIP3   OH213892   0.653   5.255   1.714
 4650TIP3    H113893   0.686   5.261   1.624
 4650TIP3    H213894   0.594   5.180   1.713
 4651TIP3   OH213895   0.644   7.071   0.284
 4651TIP3    H113896   0.719   7.113   0.241
 4651TIP3    H213897   0.568   7.101   0.234
 4652TIP3   OH213898   7.185   3.187   6.302
 4652TIP3    H113899   7.122   3.226   6.242
 4652TIP3    H213900   7.269   3.193   6.256
 4653TIP3   OH213901   7.768   7.468   0.849
 4653TIP3    H113902   7.768   7.372   0.852
 4653TIP3    H213903   7.779   7.489   0.756
 4654TIP3   OH213904   7.794   7.605   4.851
 4654TIP3    H113905   7.747   7.565   4.923
 4654TIP3    H213906   7.745   7.684   4.830
 4655TIP3   OH213907   0.914   0.614   2.438
 4655TIP3    H113908   0.942   0.603   2.347
 4655TIP3    H213909   0.857   0.538   2.454
 4656TIP3   OH213910   3.583   2.431   5.586
 4656TIP3    H113911   3.509   2.485   5.556
 4656TIP3    H213912   3.648   2.438   5.517
 4657TIP3   OH213913   1.179   2.883   3.769
 4657TIP3    H113914   1.183   2.968   3.724
 4657TIP3    H213915   1.247   2.889   3.836
 4658TIP3   OH213916   3.963   2.810   4.508
 4658TIP3    H113917   4.007   2.728   4.484
 4658TIP3    H213918   3.872   2.796   4.483
 4659TIP3   OH213919   4.978   0.120   5.458
 4659TIP3    H113920   4.913   0.187   5.437
 4659TIP3    H213921   4.928   0.038   5.458
 4660TIP3   OH213922   2.729   3.600   0.324
 4660TIP3    H113923   2.734   3.676   0.382
 4660TIP3    H213924   2.799   3.614   0.260
 4661TIP3   OH213925   2.106   3.245   2.349
 4661TIP3    H113926   2.028   3.267   2.298
 4661TIP3    H213927   2.178   3.291   2.305
 4662TIP3   OH213928   2.068   2.484   1.398
 4662TIP3    H113929   2.068   2.406   1.454
 4662TIP3    H213930   1.978   2.491   1.367
 4663TIP3   OH213931   0.308   3.922   0.594
 4663TIP3    H113932   0.343   3.997   0.545
 4663TIP3    H213933   0.314   3.849   0.532
 4664TIP3   OH213934   5.162   2.742   1.127
 4664TIP3    H113935   5.246   2.695   1.134
 4664TIP3    H213936   5.178   2.826   1.169
 4665TIP3   OH213937   2.839   4.668   2.087
 4665TIP3    H113938   2.847   4.577   2.115
 4665TIP3    H213939   2.781   4.709   2.151
 4666TIP3   OH213940   0.149   6.437   2.030
 4666TIP3    H113941   0.082   6.396   1.975
 4666TIP3    H213942   0.147   6.387   2.112
 4667TIP3   OH213943   0.242   6.966   3.791
 4667TIP3    H113944   0.337   6.954   3.795
 4667TIP3    H213945   0.223   7.035   3.854
 4668TIP3   OH213946   3.972   3.216   3.276
 4668TIP3    H113947   3.924   3.298   3.275
 4668TIP3    H213948   3.976   3.191   3.368
 4669TIP3   OH213949   1.539   0.884   0.415
 4669TIP3    H113950   1.519   0.861   0.505
 4669TIP3    H213951   1.455   0.909   0.377
 4670TIP3   OH213952   3.669   2.921   0.730
 4670TIP3    H113953   3.687   2.881   0.645
 4670TIP3    H213954   3.575   2.940   0.728
 4671TIP3   OH213955   2.290   2.745   4.130
 4671TIP3    H113956   2.286   2.686   4.204
 4671TIP3    H213957   2.311   2.831   4.168
 4672TIP3   OH213958   1.762   6.102   3.714
 4672TIP3    H113959   1.762   6.035   3.783
 4672TIP3    H213960   1.707   6.065   3.645
 4673TIP3   OH213961   5.187   1.803   3.532
 4673TIP3    H113962   5.157   1.734   3.473
 4673TIP3    H213963   5.181   1.764   3.620
 4674TIP3   OH213964   5.450   2.391   0.983
 4674TIP3    H113965   5.457   2.431   0.896
 4674TIP3    H213966   5.433   2.298   0.966
 4675TIP3   OH213967   0.933   3.274   4.953
 4675TIP3    H113968   0.909   3.297   4.863
 4675TIP3    H213969   0.885   3.336   5.008
 4676TIP3   OH213970   4.564   6.698   3.712
 4676TIP3    H113971   4.546   6.604   3.707
 4676TIP3    H213972   4.487   6.739   3.673
 4677TIP3   OH213973   3.344   0.324   3.422
 4677TIP3    H113974   3.424   0.370   3.446
 4677TIP3    H213975   3.370   0.266   3.350
 4678TIP3   OH213976   0.756   2.114   3.939
 4678TIP3    H113977   0.690   2.154   3.996
 4678TIP3    H213978   0.813   2.186   3.913
 4679TIP3   OH213979   0.280   6.177   6.624
 4679TIP3    H113980   0.370   6.210   6.624
 4679TIP3    H213981   0.287   6.089   6.660
 4680TIP3   OH213982   6.198   1.962   3.330
 4680TIP3    H113983   6.129   2.021   3.299
 4680TIP3    H213984   6.280   2.007   3.307
 4681TIP3   OH213985   4.903   2.808   5.502
 4681TIP3    H113986   4.843   2.833   5.432
 4681TIP3    H213987   4.980   2.773   5.457
 4682TIP3   OH213988   1.397   0.297   5.785
 4682TIP3    H113989   1.352   0.217   5.814
 4682TIP3    H213990   1.366   0.365   5.845
 4683TIP3   OH213991   1.983   6.104   1.499
 4683TIP3    H113992   2.069   6.142   1.521
 4683TIP3    H213993   2.003   6.015   1.471
 4684TIP3   OH213994   3.007   4.902   5.110
 4684TIP3    H113995   3.000   4.893   5.015
 4684TIP3    H213996   2.990   4.814   5.143
 4685TIP3   OH213997   6.613   7.078   6.283
 4685TIP3    H113998   6.667   7.051   6.357
 4685TIP3    H213999   6.672   7.076   6.208
 4686TIP3   OH214000   2.375   7.351   3.118
 4686TIP3    H114001   2.339   7.438   3.101
 4686TIP3    H214002   2.317   7.291   3.071
 4687TIP3   OH214003   1.326   2.272   0.594
 4687TIP3    H114004   1.352   2.181   0.610
 4687TIP3    H214005   1.372   2.323   0.660
 4688TIP3   OH214006   3.637   6.347   6.725
 4688TIP3    H114007   3.618   6.433   6.761
 4688TIP3    H214008   3.665   6.364   6.635
 4689TIP3   OH214009   1.855   1.303   2.768
 4689TIP3    H114010   1.931   1.278   2.821
 4689TIP3    H214011   1.792   1.232   2.783
 4690TIP3   OH214012   0.409   7.744   6.194
 4690TIP3    H114013   0.389   7.764   6.103
 4690TIP3    H214014   0.503   7.763   6.203
 4691TIP3   OH214015   4.439   1.254   1.513
 4691TIP3    H114016   4.429   1.163   1.540
 4691TIP3    H214017   4.483   1.296   1.586
 4692TIP3   OH214018   3.050   2.101   3.504
 4692TIP3    H114019   2.984   2.036   3.479
 4692TIP3    H214020   3.065   2.086   3.598
 4693TIP3   OH214021   3.044   0.957   6.231
 4693TIP3    H114022   3.132   0.993   6.226
 4693TIP3    H214023   3.055   0.863   6.221
 4694TIP3   OH214024   7.468   4.391   0.594
 4694TIP3    H114025   7.457   4.348   0.679
 4694TIP3    H214026   7.558   4.371   0.568
 4695TIP3   OH214027   1.430   1.639   1.341
 4695TIP3    H114028   1.391   1.586   1.410
 4695TIP3    H214029   1.505   1.588   1.311
 4696TIP3   OH214030   4.881   4.797   0.760
 4696TIP3    H114031   4.807   4.831   0.811
 4696TIP3    H214032   4.944   4.768   0.825
 4697TIP3   OH214033   0.238   3.431   1.364
 4697TIP3    H114034   0.155   3.404   1.325
 4697TIP3    H214035   0.281   3.350   1.388
 4698TIP3   OH214036   7.721   5.434   3.064
 4698TIP3    H114037   7.646   5.475   3.107
 4698TIP3    H214038   7.791   5.498   3.071
 4699TIP3   OH214039   0.029   5.107   4.686
 4699TIP3    H114040  -0.062   5.131   4.706
 4699TIP3    H214041   0.082   5.168   4.737
 4700TIP3   OH214042   8.024   3.690   2.052
 4700TIP3    H114043   7.963   3.641   1.997
 4700TIP3    H214044   7.998   3.669   2.141
 4701TIP3   OH214045   5.761   1.122   0.726
 4701TIP3    H114046   5.759   1.052   0.661
 4701TIP3    H214047   5.769   1.202   0.674
 4702TIP3   OH214048   6.929   6.972   2.995
 4702TIP3    H114049   6.839   6.997   2.976
 4702TIP3    H214050   6.947   7.011   3.080
 4703TIP3   OH214051   5.995   7.165   3.218
 4703TIP3    H114052   5.992   7.106   3.293
 4703TIP3    H214053   5.914   7.215   3.222
 4704TIP3   OH214054   1.884   4.661   0.639
 4704TIP3    H114055   1.908   4.747   0.602
 4704TIP3    H214056   1.798   4.643   0.602
 4705TIP3   OH214057   6.884   4.585   3.536
 4705TIP3    H114058   6.846   4.673   3.525
 4705TIP3    H214059   6.966   4.588   3.486
 4706TIP3   OH214060   5.360   7.157   3.949
 4706TIP3    H114061   5.322   7.070   3.949
 4706TIP3    H214062   5.376   7.177   3.857
 4707TIP3   OH214063   5.833   1.806   5.537
 4707TIP3    H114064   5.786   1.730   5.574
 4707TIP3    H214065   5.766   1.855   5.490
 4708TIP3   OH214066   3.790   6.651   6.731
 4708TIP3    H114067   3.823   6.731   6.772
 4708TIP3    H214068   3.697   6.650   6.752
 4709TIP3   OH214069   3.182   4.800   3.813
 4709TIP3    H114070   3.121   4.747   3.864
 4709TIP3    H214071   3.230   4.736   3.760
 4710TIP3   OH214072   7.634   0.687   4.665
 4710TIP3    H114073   7.718   0.726   4.642
 4710TIP3    H214074   7.656   0.600   4.699
 4711TIP3   OH214075   7.956   5.134   6.139
 4711TIP3    H114076   7.905   5.056   6.158
 4711TIP3    H214077   7.948   5.187   6.219
 4712TIP3   OH214078   4.511   6.818   1.734
 4712TIP3    H114079   4.503   6.858   1.647
 4712TIP3    H214080   4.577   6.749   1.722
 4713TIP3   OH214081   5.806   1.062   1.169
 4713TIP3    H114082   5.861   1.055   1.246
 4713TIP3    H214083   5.717   1.044   1.201
 4714TIP3   OH214084   3.089   6.224   3.117
 4714TIP3    H114085   3.025   6.294   3.130
 4714TIP3    H214086   3.174   6.267   3.128
 4715TIP3   OH214087   4.524   6.426   4.826
 4715TIP3    H114088   4.458   6.405   4.760
 4715TIP3    H214089   4.599   6.458   4.776
 4716TIP3   OH214090   7.168   5.316   6.624
 4716TIP3    H114091   7.186   5.288   6.713
 4716TIP3    H214092   7.248   5.295   6.575
 4717TIP3   OH214093   6.834   7.180   2.656
 4717TIP3    H114094   6.807   7.266   2.687
 4717TIP3    H214095   6.752   7.136   2.634
 4718TIP3   OH214096   7.503   3.658   1.778
 4718TIP3    H114097   7.546   3.668   1.863
 4718TIP3    H214098   7.569   3.685   1.715
 4719TIP3   OH214099   4.581   0.962   5.677
 4719TIP3    H114100   4.526   1.025   5.724
 4719TIP3    H214101   4.563   0.878   5.719
 4720TIP3   OH214102   3.607   1.662   3.449
 4720TIP3    H114103   3.596   1.748   3.409
 4720TIP3    H214104   3.702   1.652   3.458
 4721TIP3   OH214105   1.349   0.637   6.639
 4721TIP3    H114106   1.349   0.732   6.639
 4721TIP3    H214107   1.261   0.613   6.669
 4722TIP3   OH214108   6.552   0.490   1.797
 4722TIP3    H114109   6.588   0.470   1.710
 4722TIP3    H214110   6.470   0.535   1.778
 4723TIP3   OH214111   1.340   7.632   3.395
 4723TIP3    H114112   1.395   7.705   3.367
 4723TIP3    H214113   1.319   7.585   3.315
 4724TIP3   OH214114   2.547   4.545   4.738
 4724TIP3    H114115   2.634   4.559   4.774
 4724TIP3    H214116   2.528   4.626   4.690
 4725TIP3   OH214117   7.119   5.288   2.408
 4725TIP3    H114118   7.118   5.375   2.369
 4725TIP3    H214119   7.038   5.247   2.378
 4726TIP3   OH214120   8.128   1.821   1.383
 4726TIP3    H114121   8.158   1.900   1.429
 4726TIP3    H214122   8.166   1.828   1.296
 4727TIP3   OH214123   0.573   4.597   1.636
 4727TIP3    H114124   0.557   4.512   1.678
 4727TIP3    H214125   0.667   4.612   1.649
 4728TIP3   OH214126   2.657   3.246   2.741
 4728TIP3    H114127   2.621   3.292   2.665
 4728TIP3    H214128   2.592   3.259   2.810
 4729TIP3   OH214129   1.268   4.010   6.059
 4729TIP3    H114130   1.188   4.058   6.040
 4729TIP3    H214131   1.313   4.063   6.125
 4730TIP3   OH214132   5.349   1.672   4.136
 4730TIP3    H114133   5.290   1.683   4.211
 4730TIP3    H214134   5.349   1.578   4.120
 4731TIP3   OH214135   6.053   6.835   2.547
 4731TIP3    H114136   6.029   6.927   2.559
 4731TIP3    H214137   6.125   6.821   2.608
 4732TIP3   OH214138  -0.010   6.749   4.481
 4732TIP3    H114139   0.065   6.797   4.447
 4732TIP3    H214140  -0.030   6.792   4.565
 4733TIP3   OH214141   5.639   1.595   6.461
 4733TIP3    H114142   5.676   1.646   6.533
 4733TIP3    H214143   5.709   1.591   6.395
 4734TIP3   OH214144   5.267   4.420   4.419
 4734TIP3    H114145   5.178   4.413   4.383
 4734TIP3    H214146   5.312   4.481   4.361
 4735TIP3   OH214147   0.450   4.915   0.360
 4735TIP3    H114148   0.435   4.832   0.405
 4735TIP3    H214149   0.410   4.904   0.274
 4736TIP3   OH214150   5.161   1.072   5.768
 4736TIP3    H114151   5.076   1.116   5.768
 4736TIP3    H214152   5.224   1.142   5.751
 4737TIP3   OH214153   5.975   2.599   0.667
 4737TIP3    H114154   6.047   2.662   0.669
 4737TIP3    H214155   5.897   2.652   0.684
 4738TIP3   OH214156   2.854   2.400   0.145
 4738TIP3    H114157   2.789   2.351   0.095
 4738TIP3    H214158   2.928   2.340   0.156
 4739TIP3   OH214159   4.756   4.507   4.147
 4739TIP3    H114160   4.701   4.482   4.222
 4739TIP3    H214161   4.756   4.429   4.091
 4740TIP3   OH214162   7.146   7.299   0.109
 4740TIP3    H114163   7.209   7.366   0.082
 4740TIP3    H214164   7.061   7.339   0.091
 4741TIP3   OH214165   3.689   0.431   5.006
 4741TIP3    H114166   3.653   0.515   5.036
 4741TIP3    H214167   3.612   0.377   4.986
 4742TIP3   OH214168   4.610   6.866   5.359
 4742TIP3    H114169   4.700   6.841   5.382
 4742TIP3    H214170   4.620   6.933   5.292
 4743TIP3   OH214171   7.217   4.501   0.504
 4743TIP3    H114172   7.206   4.433   0.437
 4743TIP3    H214173   7.308   4.491   0.533
 4744TIP3   OH214174   5.334   7.389   2.468
 4744TIP3    H114175   5.340   7.408   2.562
 4744TIP3    H214176   5.258   7.331   2.460
 4745TIP3   OH214177   3.289   4.177   4.964
 4745TIP3    H114178   3.293   4.185   5.059
 4745TIP3    H214179   3.304   4.266   4.932
 4746TIP3   OH214180   7.961   6.412   0.944
 4746TIP3    H114181   8.009   6.447   1.019
 4746TIP3    H214182   8.028   6.371   0.890
 4747TIP3   OH214183   4.216   1.442   1.495
 4747TIP3    H114184   4.203   1.491   1.414
 4747TIP3    H214185   4.297   1.393   1.480
 4748TIP3   OH214186   2.119   0.509   6.243
 4748TIP3    H114187   2.053   0.471   6.301
 4748TIP3    H214188   2.181   0.438   6.226
 4749TIP3   OH214189   2.837   5.483   6.245
 4749TIP3    H114190   2.923   5.466   6.207
 4749TIP3    H214191   2.855   5.529   6.327
 4750TIP3   OH214192   6.423   4.983   4.670
 4750TIP3    H114193   6.429   5.077   4.689
 4750TIP3    H214194   6.496   4.945   4.719
 4751TIP3   OH214195   1.692   5.187   6.065
 4751TIP3    H114196   1.722   5.272   6.097
 4751TIP3    H214197   1.769   5.130   6.072
 4752TIP3   OH214198   2.699   5.417   2.470
 4752TIP3    H114199   2.665   5.441   2.384
 4752TIP3    H214200   2.776   5.473   2.482
 4753TIP3   OH214201   2.698   2.483   2.772
 4753TIP3    H114202   2.670   2.432   2.848
 4753TIP3    H214203   2.617   2.498   2.722
 4754TIP3   OH214204   5.609   4.845   1.363
 4754TIP3    H114205   5.520   4.868   1.390
 4754TIP3    H214206   5.634   4.772   1.420
 4755TIP3   OH214207   8.076   0.823   3.692
 4755TIP3    H114208   8.121   0.805   3.775
 4755TIP3    H214209   8.116   0.763   3.630
 4756TIP3   OH214210   7.890   5.294   0.357
 4756TIP3    H114211   7.943   5.215   0.353
 4756TIP3    H214212   7.945   5.358   0.402
 4757TIP3   OH214213   1.037   6.173   1.935
 4757TIP3    H114214   1.024   6.079   1.920
 4757TIP3    H214215   1.119   6.178   1.985
 4758TIP3   OH214216   2.412   2.109   6.112
 4758TIP3    H114217   2.319   2.132   6.105
 4758TIP3    H214218   2.430   2.111   6.206
 4759TIP3   OH214219   4.544   5.620   3.509
 4759TIP3    H114220   4.486   5.548   3.534
 4759TIP3    H214221   4.585   5.592   3.428
 4760TIP3   OH214222   6.527   5.996   3.016
 4760TIP3    H114223   6.493   5.912   2.986
 4760TIP3    H214224   6.504   6.057   2.946
 4761TIP3   OH214225   4.763   5.010   5.582
 4761TIP3    H114226   4.778   5.047   5.496
 4761TIP3    H214227   4.762   4.915   5.568
 4762TIP3   OH214228   7.945   6.122   5.449
 4762TIP3    H114229   7.969   6.202   5.402
 4762TIP3    H214230   7.854   6.136   5.476
 4763TIP3   OH214231   5.799   6.318   1.617
 4763TIP3    H114232   5.800   6.322   1.712
 4763TIP3    H214233   5.727   6.258   1.596
 4764TIP3   OH214234   5.139   0.644   4.365
 4764TIP3    H114235   5.217   0.668   4.415
 4764TIP3    H214236   5.086   0.724   4.365
 4765TIP3   OH214237   0.502   7.687   1.842
 4765TIP3    H114238   0.559   7.707   1.917
 4765TIP3    H214239   0.559   7.640   1.781
 4766TIP3   OH214240   0.563   7.593   4.566
 4766TIP3    H114241   0.573   7.531   4.494
 4766TIP3    H214242   0.599   7.675   4.532
 4767TIP3   OH214243   5.616   6.627   5.505
 4767TIP3    H114244   5.532   6.586   5.524
 4767TIP3    H214245   5.640   6.593   5.418
 4768TIP3   OH214246   5.213   6.911   1.152
 4768TIP3    H114247   5.305   6.911   1.175
 4768TIP3    H214248   5.202   6.986   1.094
 4769TIP3   OH214249   0.749   7.306   2.735
 4769TIP3    H114250   0.808   7.233   2.754
 4769TIP3    H214251   0.765   7.368   2.807
 4770TIP3   OH214252   6.966   0.846   5.654
 4770TIP3    H114253   6.962   0.918   5.591
 4770TIP3    H214254   6.878   0.810   5.655
 4771TIP3   OH214255   3.731   7.564   3.525
 4771TIP3    H114256   3.807   7.611   3.492
 4771TIP3    H214257   3.679   7.632   3.570
 4772TIP3   OH214258   1.399   1.206   4.553
 4772TIP3    H114259   1.470   1.153   4.519
 4772TIP3    H214260   1.334   1.207   4.483
 4773TIP3   OH214261   2.476   1.688   2.684
 4773TIP3    H114262   2.401   1.680   2.625
 4773TIP3    H214263   2.538   1.745   2.637
 4774TIP3   OH214264   2.786   2.653   6.037
 4774TIP3    H114265   2.739   2.569   6.035
 4774TIP3    H214266   2.869   2.635   5.992
 4775TIP3   OH214267   1.767   2.723   1.365
 4775TIP3    H114268   1.845   2.748   1.414
 4775TIP3    H214269   1.747   2.635   1.395
 4776TIP3   OH214270   8.191   0.367   0.481
 4776TIP3    H114271   8.235   0.434   0.429
 4776TIP3    H214272   8.238   0.367   0.564
 4777TIP3   OH214273   3.804   7.273   2.016
 4777TIP3    H114274   3.862   7.316   1.953
 4777TIP3    H214275   3.754   7.344   2.056
 4778TIP3   OH214276   5.295   1.094   3.591
 4778TIP3    H114277   5.218   1.044   3.566
 4778TIP3    H214278   5.365   1.061   3.535
 4779TIP3   OH214279   6.231   1.147   2.701
 4779TIP3    H114280   6.322   1.158   2.674
 4779TIP3    H214281   6.203   1.065   2.660
 4780TIP3   OH214282   8.030   2.017   3.540
 4780TIP3    H114283   7.953   1.961   3.544
 4780TIP3    H214284   8.025   2.071   3.619
 4781TIP3   OH214285   5.530   3.247   5.652
 4781TIP3    H114286   5.460   3.310   5.671
 4781TIP3    H214287   5.494   3.192   5.583
 4782TIP3   OH214288   8.038   7.739   4.798
 4782TIP3    H114289   7.976   7.763   4.729
 4782TIP3    H214290   7.998   7.664   4.842
 4783TIP3   OH214291   4.485   5.998   5.852
 4783TIP3    H114292   4.473   5.991   5.946
 4783TIP3    H214293   4.577   5.973   5.838
 4784TIP3   OH214294   5.591   2.156   4.193
 4784TIP3    H114295   5.575   2.131   4.102
 4784TIP3    H214296   5.663   2.219   4.188
 4785TIP3   OH214297   1.840   3.029   0.699
 4785TIP3    H114298   1.900   3.061   0.767
 4785TIP3    H214299   1.802   2.949   0.736
 4786TIP3   OH214300   4.481   0.098   5.557
 4786TIP3    H114301   4.400   0.050   5.573
 4786TIP3    H214302   4.457   0.162   5.490
 4787TIP3   OH214303   2.665   3.812   5.647
 4787TIP3    H114304   2.708   3.864   5.715
 4787TIP3    H214305   2.694   3.851   5.565
 4788TIP3   OH214306   2.920   0.232   1.376
 4788TIP3    H114307   2.870   0.235   1.458
 4788TIP3    H214308   2.926   0.323   1.349
 4789TIP3   OH214309   5.052   6.530   2.487
 4789TIP3    H114310   5.038   6.619   2.520
 4789TIP3    H214311   5.067   6.478   2.566
 4790TIP3   OH214312   3.049   7.123   1.351
 4790TIP3    H114313   3.139   7.157   1.347
 4790TIP3    H214314   3.034   7.085   1.265
 4791TIP3   OH214315   3.211   3.509   2.314
 4791TIP3    H114316   3.253   3.537   2.233
 4791TIP3    H214317   3.201   3.590   2.365
 4792TIP3   OH214318   6.757   0.790   6.664
 4792TIP3    H114319   6.735   0.851   6.734
 4792TIP3    H214320   6.844   0.758   6.686
 4793TIP3   OH214321   5.609   5.815   3.531
 4793TIP3    H114322   5.656   5.897   3.516
 4793TIP3    H214323   5.678   5.750   3.542
 4794TIP3   OH214324   7.051   3.742   2.459
 4794TIP3    H114325   6.967   3.698   2.446
 4794TIP3    H214326   7.072   3.780   2.374
 4795TIP3   OH214327   2.938   4.541   6.299
 4795TIP3    H114328   3.030   4.567   6.298
 4795TIP3    H214329   2.922   4.514   6.389
 4796TIP3   OH214330   0.389   4.987   4.965
 4796TIP3    H114331   0.430   5.071   4.946
 4796TIP3    H214332   0.378   4.946   4.879
 4797TIP3   OH214333   1.351   1.605   4.881
 4797TIP3    H114334   1.373   1.654   4.801
 4797TIP3    H214335   1.301   1.530   4.850
 4798TIP3   OH214336   6.294   1.536   1.419
 4798TIP3    H114337   6.267   1.570   1.334
 4798TIP3    H214338   6.389   1.547   1.421
 4799TIP3   OH214339   5.016   7.342   5.965
 4799TIP3    H114340   5.038   7.276   6.031
 4799TIP3    H214341   4.934   7.310   5.927
 4800TIP3   OH214342   6.824   1.730   1.017
 4800TIP3    H114343   6.918   1.714   1.021
 4800TIP3    H214344   6.785   1.650   1.053
 4801TIP3   OH214345   4.846   7.698   4.296
 4801TIP3    H114346   4.762   7.699   4.251
 4801TIP3    H214347   4.875   7.606   4.290
 4802TIP3   OH214348   0.770   7.746   5.840
 4802TIP3    H114349   0.679   7.744   5.810
 4802TIP3    H214350   0.766   7.790   5.925
 4803TIP3   OH214351   7.216   3.654   2.681
 4803TIP3    H114352   7.129   3.673   2.645
 4803TIP3    H214353   7.213   3.688   2.770
 4804TIP3   OH214354   0.466   6.720   1.811
 4804TIP3    H114355   0.422   6.704   1.895
 4804TIP3    H214356   0.406   6.685   1.746
 4805TIP3   OH214357   7.341   1.493   2.945
 4805TIP3    H114358   7.319   1.454   3.030
 4805TIP3    H214359   7.426   1.455   2.923
 4806TIP3   OH214360   6.385   0.471   0.265
 4806TIP3    H114361   6.342   0.532   0.205
 4806TIP3    H214362   6.319   0.451   0.331
 4807TIP3   OH214363   4.492   2.130   5.286
 4807TIP3    H114364   4.497   2.225   5.272
 4807TIP3    H214365   4.566   2.095   5.235
 4808TIP3   OH214366   4.331   0.881   2.051
 4808TIP3    H114367   4.248   0.851   2.013
 4808TIP3    H214368   4.321   0.976   2.057
 4809TIP3   OH214369   7.049   6.817   1.757
 4809TIP3    H114370   7.057   6.814   1.661
 4809TIP3    H214371   7.121   6.762   1.788
 4810TIP3   OH214372   0.078   4.314   4.513
 4810TIP3    H114373   0.024   4.339   4.589
 4810TIP3    H214374   0.090   4.219   4.523
 4811TIP3   OH214375   0.794   3.185   4.503
 4811TIP3    H114376   0.713   3.146   4.470
 4811TIP3    H214377   0.861   3.121   4.482
 4812TIP3   OH214378   1.969   1.091   3.225
 4812TIP3    H114379   1.902   1.112   3.290
 4812TIP3    H214380   1.922   1.044   3.156
 4813TIP3   OH214381   5.521   4.677   4.509
 4813TIP3    H114382   5.479   4.658   4.425
 4813TIP3    H214383   5.493   4.766   4.531
 4814TIP3   OH214384   2.429   1.000   4.088
 4814TIP3    H114385   2.454   0.948   4.165
 4814TIP3    H214386   2.448   0.942   4.014
 4815TIP3   OH214387   3.291   7.711   6.457
 4815TIP3    H114388   3.298   7.624   6.497
 4815TIP3    H214389   3.351   7.766   6.509
 4816TIP3   OH214390   3.560   4.645   6.443
 4816TIP3    H114391   3.644   4.632   6.486
 4816TIP3    H214392   3.496   4.613   6.507
 4817TIP3   OH214393   5.097   7.788   1.448
 4817TIP3    H114394   5.183   7.746   1.438
 4817TIP3    H214395   5.054   7.774   1.364
 4818TIP3   OH214396   5.101   5.567   1.870
 4818TIP3    H114397   5.019   5.584   1.917
 4818TIP3    H214398   5.075   5.547   1.781
 4819TIP3   OH214399   3.268   0.735   1.671
 4819TIP3    H114400   3.184   0.748   1.629
 4819TIP3    H214401   3.319   0.683   1.609
 4820TIP3   OH214402   3.598   0.346   3.118
 4820TIP3    H114403   3.562   0.258   3.123
 4820TIP3    H214404   3.524   0.403   3.141
 4821TIP3   OH214405   2.038   1.417   1.069
 4821TIP3    H114406   2.088   1.466   1.003
 4821TIP3    H214407   2.048   1.468   1.149
 4822TIP3   OH214408   7.148   6.529   2.147
 4822TIP3    H114409   7.082   6.595   2.171
 4822TIP3    H214410   7.138   6.519   2.053
 4823TIP3   OH214411   0.595   7.203   0.579
 4823TIP3    H114412   0.607   7.139   0.508
 4823TIP3    H214413   0.654   7.275   0.556
 4824TIP3   OH214414   3.873   0.167   4.343
 4824TIP3    H114415   3.788   0.151   4.383
 4824TIP3    H214416   3.899   0.254   4.376
 4825TIP3   OH214417   2.132   1.963   6.715
 4825TIP3    H114418   2.092   2.045   6.743
 4825TIP3    H214419   2.173   1.983   6.631
 4826TIP3   OH214420   1.975   6.841   0.921
 4826TIP3    H114421   1.895   6.791   0.935
 4826TIP3    H214422   1.984   6.847   0.826
 4827TIP3   OH214423   4.503   1.937   4.383
 4827TIP3    H114424   4.547   1.988   4.315
 4827TIP3    H214425   4.437   1.997   4.419
 4828TIP3   OH214426   8.132   2.748   3.050
 4828TIP3    H114427   8.102   2.739   3.141
 4828TIP3    H214428   8.106   2.837   3.026
 4829TIP3   OH214429   5.602   6.608   1.250
 4829TIP3    H114430   5.625   6.524   1.211
 4829TIP3    H214431   5.682   6.661   1.242
 4830TIP3   OH214432   7.825   3.270   2.007
 4830TIP3    H114433   7.765   3.237   2.075
 4830TIP3    H214434   7.861   3.190   1.967
 4831TIP3   OH214435   3.606   0.812   5.405
 4831TIP3    H114436   3.685   0.810   5.458
 4831TIP3    H214437   3.549   0.745   5.442
 4832TIP3   OH214438   4.505   5.962   4.624
 4832TIP3    H114439   4.536   5.887   4.573
 4832TIP3    H214440   4.561   6.034   4.597
 4833TIP3   OH214441   3.705   0.147   2.507
 4833TIP3    H114442   3.678   0.141   2.598
 4833TIP3    H214443   3.677   0.064   2.468
 4834TIP3   OH214444   5.475   3.653   0.365
 4834TIP3    H114445   5.556   3.611   0.395
 4834TIP3    H214446   5.489   3.746   0.380
 4835TIP3   OH214447   5.079   1.461   0.141
 4835TIP3    H114448   5.170   1.431   0.137
 4835TIP3    H214449   5.086   1.556   0.151
 4836TIP3   OH214450   6.628   5.825   5.408
 4836TIP3    H114451   6.654   5.888   5.474
 4836TIP3    H214452   6.582   5.757   5.456
 4837TIP3   OH214453   1.820   3.288   2.268
 4837TIP3    H114454   1.846   3.348   2.199
 4837TIP3    H214455   1.725   3.282   2.261
 4838TIP3   OH214456   7.252   7.299   0.708
 4838TIP3    H114457   7.187   7.314   0.638
 4838TIP3    H214458   7.331   7.343   0.677
 4839TIP3   OH214459   0.458   0.378   1.607
 4839TIP3    H114460   0.475   0.404   1.517
 4839TIP3    H214461   0.424   0.457   1.649
 4840TIP3   OH214462   6.977   2.246   3.261
 4840TIP3    H114463   7.071   2.229   3.250
 4840TIP3    H214464   6.934   2.166   3.230
 4841TIP3   OH214465   0.955   3.068   5.151
 4841TIP3    H114466   0.860   3.067   5.162
 4841TIP3    H214467   0.970   3.131   5.080
 4842TIP3   OH214468   2.288   2.066   1.113
 4842TIP3    H114469   2.205   2.060   1.066
 4842TIP3    H214470   2.341   2.125   1.060
 4843TIP3   OH214471   3.342   2.836   2.073
 4843TIP3    H114472   3.296   2.910   2.113
 4843TIP3    H214473   3.301   2.826   1.987
 4844TIP3   OH214474   5.270   5.103   2.573
 4844TIP3    H114475   5.298   5.103   2.665
 4844TIP3    H214476   5.345   5.067   2.526
 4845TIP3   OH214477   5.002   3.157   1.867
 4845TIP3    H114478   5.052   3.223   1.915
 4845TIP3    H214479   4.917   3.199   1.850
 4846TIP3   OH214480   2.582   6.582   3.597
 4846TIP3    H114481   2.526   6.656   3.619
 4846TIP3    H214482   2.525   6.522   3.549
 4847TIP3   OH214483   7.592   4.112   1.108
 4847TIP3    H114484   7.655   4.071   1.168
 4847TIP3    H214485   7.531   4.159   1.164
 4848TIP3   OH214486   4.574   0.099   1.781
 4848TIP3    H114487   4.568   0.027   1.718
 4848TIP3    H214488   4.647   0.152   1.749
 4849TIP3   OH214489   2.012   2.183   3.277
 4849TIP3    H114490   1.993   2.273   3.303
 4849TIP3    H214491   2.053   2.192   3.191
 4850TIP3   OH214492   3.616   3.398   1.174
 4850TIP3    H114493   3.607   3.409   1.079
 4850TIP3    H214494   3.666   3.317   1.184
 4851TIP3   OH214495   6.966   3.020   0.137
 4851TIP3    H114496   7.029   3.048   0.204
 4851TIP3    H214497   6.978   3.083   0.066
 4852TIP3   OH214498   6.776   3.372   4.765
 4852TIP3    H114499   6.786   3.386   4.671
 4852TIP3    H214500   6.865   3.354   4.796
 4853TIP3   OH214501   2.376   4.188   2.762
 4853TIP3    H114502   2.409   4.098   2.757
 4853TIP3    H214503   2.286   4.179   2.793
 4854TIP3   OH214504   3.700   7.645   2.020
 4854TIP3    H114505   3.708   7.725   2.072
 4854TIP3    H214506   3.776   7.647   1.962
 4855TIP3   OH214507   4.902   3.909   6.112
 4855TIP3    H114508   4.870   3.988   6.154
 4855TIP3    H214509   4.957   3.940   6.040
 4856TIP3   OH214510   1.122   4.772   5.075
 4856TIP3    H114511   1.064   4.733   5.009
 4856TIP3    H214512   1.064   4.795   5.148
 4857TIP3   OH214513   7.422   4.994   0.770
 4857TIP3    H114514   7.511   4.959   0.767
 4857TIP3    H214515   7.419   5.061   0.702
 4858TIP3   OH214516   0.596   4.270   0.868
 4858TIP3    H114517   0.503   4.283   0.849
 4858TIP3    H214518   0.636   4.255   0.782
 4859TIP3   OH214519   2.190   1.714   6.426
 4859TIP3    H114520   2.195   1.801   6.466
 4859TIP3    H214521   2.281   1.692   6.405
 4860TIP3   OH214522   0.032   1.363   6.283
 4860TIP3    H114523  -0.027   1.334   6.214
 4860TIP3    H214524   0.028   1.294   6.349
 4861TIP3   OH214525   7.693   0.802   2.261
 4861TIP3    H114526   7.600   0.777   2.266
 4861TIP3    H214527   7.704   0.834   2.171
 4862TIP3   OH214528   1.411   2.820   4.380
 4862TIP3    H114529   1.450   2.806   4.294
 4862TIP3    H214530   1.484   2.845   4.437
 4863TIP3   OH214531   6.489   6.765   0.292
 4863TIP3    H114532   6.576   6.765   0.332
 4863TIP3    H214533   6.506   6.767   0.198
 4864TIP3   OH214534   3.910   7.813   3.249
 4864TIP3    H114535   3.996   7.853   3.253
 4864TIP3    H214536   3.914   7.755   3.173
 4865TIP3   OH214537   4.188   2.825   5.351
 4865TIP3    H114538   4.235   2.749   5.386
 4865TIP3    H214539   4.232   2.844   5.268
 4866TIP3   OH214540   5.592   1.159   4.662
 4866TIP3    H114541   5.603   1.119   4.576
 4866TIP3    H214542   5.506   1.201   4.658
 4867TIP3   OH214543   0.419   5.238   4.272
 4867TIP3    H114544   0.379   5.155   4.246
 4867TIP3    H214545   0.349   5.302   4.264
 4868TIP3   OH214546   5.994   0.900   3.245
 4868TIP3    H114547   5.987   0.805   3.234
 4868TIP3    H214548   6.076   0.923   3.201
 4869TIP3   OH214549   5.970   6.697   4.132
 4869TIP3    H114550   5.966   6.792   4.141
 4869TIP3    H214551   5.925   6.664   4.209
 4870TIP3   OH214552   1.576   3.084   0.311
 4870TIP3    H114553   1.555   2.997   0.279
 4870TIP3    H214554   1.670   3.092   0.297
 4871TIP3   OH214555   5.005   4.268   2.642
 4871TIP3    H114556   5.042   4.230   2.722
 4871TIP3    H214557   4.910   4.256   2.652
 4872TIP3   OH214558   3.786   2.001   1.702
 4872TIP3    H114559   3.707   1.964   1.663
 4872TIP3    H214560   3.858   1.959   1.653
 4873TIP3   OH214561   6.390   7.137   5.167
 4873TIP3    H114562   6.378   7.136   5.262
 4873TIP3    H214563   6.465   7.195   5.154
 4874TIP3   OH214564   0.500   3.400   2.476
 4874TIP3    H114565   0.577   3.413   2.531
 4874TIP3    H214566   0.514   3.455   2.399
 4875TIP3   OH214567   2.821   7.510   0.507
 4875TIP3    H114568   2.808   7.446   0.577
 4875TIP3    H214569   2.778   7.470   0.431
 4876TIP3   OH214570   5.257   7.622   0.312
 4876TIP3    H114571   5.273   7.716   0.300
 4876TIP3    H214572   5.215   7.615   0.397
 4877TIP3   OH214573   7.846   1.194   6.343
 4877TIP3    H114574   7.872   1.180   6.252
 4877TIP3    H214575   7.862   1.287   6.360
 4878TIP3   OH214576   3.004   6.034   1.768
 4878TIP3    H114577   2.984   6.077   1.852
 4878TIP3    H214578   2.975   6.097   1.702
 4879TIP3   OH214579   8.184   6.969   1.807
 4879TIP3    H114580   8.234   7.032   1.860
 4879TIP3    H214581   8.147   7.022   1.737
 4880TIP3   OH214582   3.188   0.250   6.765
 4880TIP3    H114583   3.234   0.186   6.710
 4880TIP3    H214584   3.117   0.200   6.806
 4881TIP3   OH214585   5.027   1.514   4.051
 4881TIP3    H114586   4.983   1.432   4.070
 4881TIP3    H214587   4.992   1.576   4.114
 4882TIP3   OH214588   0.855   3.367   3.818
 4882TIP3    H114589   0.762   3.376   3.798
 4882TIP3    H214590   0.858   3.329   3.906
 4883TIP3   OH214591   6.551   3.875   4.747
 4883TIP3    H114592   6.625   3.838   4.796
 4883TIP3    H214593   6.474   3.853   4.799
 4884TIP3   OH214594   6.567   6.224   1.773
 4884TIP3    H114595   6.552   6.141   1.728
 4884TIP3    H214596   6.562   6.202   1.866
 4885TIP3   OH214597   7.288   0.215   0.134
 4885TIP3    H114598   7.358   0.190   0.194
 4885TIP3    H214599   7.232   0.273   0.186
 4886TIP3   OH214600   1.114   3.400   1.375
 4886TIP3    H114601   1.028   3.373   1.409
 4886TIP3    H214602   1.125   3.350   1.295
 4887TIP3   OH214603   2.776   7.656   0.868
 4887TIP3    H114604   2.777   7.609   0.951
 4887TIP3    H214605   2.730   7.738   0.888
 4888TIP3   OH214606   7.111   4.304   6.670
 4888TIP3    H114607   7.150   4.289   6.584
 4888TIP3    H214608   7.041   4.366   6.653
 4889TIP3   OH214609   7.983   2.262   3.290
 4889TIP3    H114610   8.052   2.251   3.356
 4889TIP3    H214611   7.985   2.181   3.240
 4890TIP3   OH214612   6.721   3.700   4.358
 4890TIP3    H114613   6.698   3.613   4.324
 4890TIP3    H214614   6.800   3.724   4.309
 4891TIP3   OH214615   6.213   4.580   2.230
 4891TIP3    H114616   6.205   4.604   2.137
 4891TIP3    H214617   6.301   4.543   2.237
 4892TIP3   OH214618   4.223   1.851   1.864
 4892TIP3    H114619   4.316   1.842   1.884
 4892TIP3    H214620   4.205   1.782   1.801
 4893TIP3   OH214621   2.605   4.758   1.793
 4893TIP3    H114622   2.510   4.748   1.786
 4893TIP3    H214623   2.625   4.835   1.739
 4894TIP3   OH214624   2.403   2.458   5.879
 4894TIP3    H114625   2.463   2.519   5.837
 4894TIP3    H214626   2.449   2.374   5.881
 4895TIP3   OH214627   7.189   0.216   2.785
 4895TIP3    H114628   7.253   0.203   2.855
 4895TIP3    H214629   7.108   0.179   2.820
 4896TIP3   OH214630   4.468   5.539   2.314
 4896TIP3    H114631   4.558   5.549   2.345
 4896TIP3    H214632   4.437   5.628   2.300
 4897TIP3   OH214633   2.836   0.716   4.395
 4897TIP3    H114634   2.892   0.793   4.386
 4897TIP3    H214635   2.894   0.642   4.379
 4898TIP3   OH214636   6.082   0.702   3.436
 4898TIP3    H114637   6.106   0.719   3.527
 4898TIP3    H214638   6.025   0.625   3.441
 4899TIP3   OH214639   8.029   7.405   2.337
 4899TIP3    H114640   8.081   7.472   2.381
 4899TIP3    H214641   8.061   7.322   2.373
 4900TIP3   OH214642   1.358   5.617   1.073
 4900TIP3    H114643   1.386   5.607   1.164
 4900TIP3    H214644   1.416   5.559   1.023
 4901TIP3   OH214645   4.885   1.351   0.306
 4901TIP3    H114646   4.841   1.277   0.264
 4901TIP3    H214647   4.958   1.371   0.247
 4902TIP3   OH214648   4.053   5.028   1.811
 4902TIP3    H114649   4.062   5.113   1.769
 4902TIP3    H214650   3.958   5.011   1.810
 4903TIP3   OH214651   1.521   5.883   0.350
 4903TIP3    H114652   1.585   5.813   0.342
 4903TIP3    H214653   1.545   5.929   0.430
 4904TIP3   OH214654   7.193   7.614   4.659
 4904TIP3    H114655   7.236   7.675   4.719
 4904TIP3    H214656   7.228   7.637   4.573
 4905TIP3   OH214657   5.668   3.935   1.956
 4905TIP3    H114658   5.686   3.862   1.897
 4905TIP3    H214659   5.648   3.893   2.040
 4906TIP3   OH214660   0.990   0.137   4.761
 4906TIP3    H114661   1.073   0.100   4.732
 4906TIP3    H214662   0.991   0.227   4.729
 4907TIP3   OH214663   4.073   1.175   3.171
 4907TIP3    H114664   4.114   1.184   3.085
 4907TIP3    H214665   3.979   1.180   3.152
 4908TIP3   OH214666   6.491   5.758   6.649
 4908TIP3    H114667   6.516   5.831   6.705
 4908TIP3    H214668   6.455   5.692   6.709
 4909TIP3   OH214669   5.585   6.486   0.924
 4909TIP3    H114670   5.622   6.574   0.932
 4909TIP3    H214671   5.658   6.427   0.946
 4910TIP3   OH214672   5.571   1.396   2.530
 4910TIP3    H114673   5.524   1.362   2.606
 4910TIP3    H214674   5.630   1.325   2.504
 4911TIP3   OH214675   8.268   6.080   0.887
 4911TIP3    H114676   8.286   6.171   0.866
 4911TIP3    H214677   8.354   6.037   0.887
 4912TIP3   OH214678   4.922   0.118   3.685
 4912TIP3    H114679   4.852   0.112   3.620
 4912TIP3    H214680   4.891   0.182   3.749
 4913TIP3   OH214681   2.435   2.998   0.276
 4913TIP3    H114682   2.425   2.929   0.341
 4913TIP3    H214683   2.355   2.995   0.224
 4914TIP3   OH214684   7.018   2.583   3.548
 4914TIP3    H114685   6.989   2.510   3.493
 4914TIP3    H214686   7.000   2.661   3.496
 4915TIP3   OH214687   0.505   2.788   2.586
 4915TIP3    H114688   0.553   2.709   2.609
 4915TIP3    H214689   0.413   2.760   2.585
 4916TIP3   OH214690   2.404   3.557   4.840
 4916TIP3    H114691   2.373   3.625   4.780
 4916TIP3    H214692   2.436   3.606   4.916
 4917TIP3   OH214693   4.181   2.797   2.649
 4917TIP3    H114694   4.113   2.864   2.664
 4917TIP3    H214695   4.136   2.714   2.663
 4918TIP3   OH214696   1.945   5.066   6.045
 4918TIP3    H114697   2.030   5.083   6.084
 4918TIP3    H214698   1.964   5.040   5.955
 4919TIP3   OH214699   2.476   0.745   0.258
 4919TIP3    H114700   2.444   0.656   0.269
 4919TIP3    H214701   2.410   0.788   0.204
 4920TIP3   OH214702   4.258   1.725   5.770
 4920TIP3    H114703   4.303   1.689   5.847
 4920TIP3    H214704   4.167   1.731   5.797
 4921TIP3   OH214705   3.142   3.706   4.671
 4921TIP3    H114706   3.207   3.670   4.610
 4921TIP3    H214707   3.175   3.794   4.691
 4922TIP3   OH214708   4.610   5.275   4.414
 4922TIP3    H114709   4.589   5.294   4.505
 4922TIP3    H214710   4.660   5.352   4.385
 4923TIP3   OH214711   4.137   1.243   1.230
 4923TIP3    H114712   4.163   1.173   1.169
 4923TIP3    H214713   4.058   1.209   1.273
 4924TIP3   OH214714   2.501   1.148   0.648
 4924TIP3    H114715   2.589   1.141   0.612
 4924TIP3    H214716   2.503   1.226   0.702
 4925TIP3   OH214717   7.163   0.696   4.352
 4925TIP3    H114718   7.181   0.738   4.436
 4925TIP3    H214719   7.069   0.677   4.354
 4926TIP3   OH214720   1.916   1.318   4.465
 4926TIP3    H114721   1.973   1.355   4.532
 4926TIP3    H214722   1.857   1.390   4.441
 4927TIP3   OH214723   3.653   2.762   4.934
 4927TIP3    H114724   3.576   2.709   4.913
 4927TIP3    H214725   3.657   2.827   4.865
 4928TIP3   OH214726   1.491   6.986   0.450
 4928TIP3    H114727   1.528   6.921   0.509
 4928TIP3    H214728   1.567   7.020   0.401
 4929TIP3   OH214729   3.175   0.652   3.694
 4929TIP3    H114730   3.147   0.700   3.616
 4929TIP3    H214731   3.156   0.560   3.675
 4930TIP3   OH214732   0.064   1.285   6.703
 4930TIP3    H114733   0.149   1.323   6.725
 4930TIP3    H214734   0.082   1.224   6.631
 4931TIP3   OH214735   6.943   4.850   2.379
 4931TIP3    H114736   6.877   4.830   2.312
 4931TIP3    H214737   7.022   4.870   2.330
 4932TIP3   OH214738   1.007   6.479   1.557
 4932TIP3    H114739   1.070   6.409   1.541
 4932TIP3    H214740   0.972   6.459   1.644
 4933TIP3   OH214741   1.394   2.686   3.391
 4933TIP3    H114742   1.482   2.685   3.427
 4933TIP3    H214743   1.362   2.597   3.403
 4934TIP3   OH214744   7.958   1.081   2.052
 4934TIP3    H114745   7.908   1.131   1.987
 4934TIP3    H214746   7.901   1.075   2.128
 4935TIP3   OH214747   8.097   1.664   0.966
 4935TIP3    H114748   8.125   1.755   0.952
 4935TIP3    H214749   8.009   1.672   1.003
 4936TIP3   OH214750   8.180   2.327   2.428
 4936TIP3    H114751   8.231   2.387   2.483
 4936TIP3    H214752   8.090   2.357   2.436
 4937TIP3   OH214753   6.062   6.644   3.346
 4937TIP3    H114754   5.988   6.630   3.405
 4937TIP3    H214755   6.026   6.694   3.273
 4938TIP3   OH214756   6.604   3.571   4.868
 4938TIP3    H114757   6.677   3.630   4.884
 4938TIP3    H214758   6.645   3.485   4.859
 4939TIP3   OH214759   1.365   4.959   2.649
 4939TIP3    H114760   1.457   4.981   2.667
 4939TIP3    H214761   1.317   5.038   2.673
 4940TIP3   OH214762   6.238   1.183   3.375
 4940TIP3    H114763   6.284   1.207   3.295
 4940TIP3    H214764   6.275   1.098   3.399
 4941TIP3   OH214765   2.628   4.545   5.625
 4941TIP3    H114766   2.629   4.525   5.719
 4941TIP3    H214767   2.621   4.459   5.583
 4942TIP3   OH214768   7.041   2.279   5.782
 4942TIP3    H114769   7.048   2.361   5.831
 4942TIP3    H214770   6.957   2.287   5.735
 4943TIP3   OH214771   6.868   6.609   4.518
 4943TIP3    H114772   6.782   6.637   4.550
 4943TIP3    H214773   6.876   6.651   4.432
 4944TIP3   OH214774   2.982   6.570   5.838
 4944TIP3    H114775   2.997   6.476   5.853
 4944TIP3    H214776   2.963   6.605   5.925
 4945TIP3   OH214777   6.354   0.354   5.362
 4945TIP3    H114778   6.373   0.303   5.441
 4945TIP3    H214779   6.423   0.420   5.359
 4946TIP3   OH214780   1.889   5.131   2.669
 4946TIP3    H114781   1.962   5.151   2.610
 4946TIP3    H214782   1.899   5.038   2.689
 4947TIP3   OH214783   7.962   4.565   5.144
 4947TIP3    H114784   7.996   4.651   5.121
 4947TIP3    H214785   7.954   4.519   5.060
 4948TIP3   OH214786   7.145   6.184   6.674
 4948TIP3    H114787   7.075   6.153   6.730
 4948TIP3    H214788   7.100   6.224   6.599
 4949TIP3   OH214789   8.060   6.787   0.712
 4949TIP3    H114790   7.969   6.800   0.740
 4949TIP3    H214791   8.055   6.718   0.646
 4950TIP3   OH214792   5.885   0.097   5.297
 4950TIP3    H114793   5.919   0.049   5.222
 4950TIP3    H214794   5.795   0.119   5.272
 4951TIP3   OH214795   3.745   1.526   0.407
 4951TIP3    H114796   3.775   1.446   0.451
 4951TIP3    H214797   3.815   1.590   0.424
 4952TIP3   OH214798   3.968   2.334   2.185
 4952TIP3    H114799   3.894   2.293   2.230
 4952TIP3    H214800   3.979   2.419   2.228
 4953TIP3   OH214801   1.414   2.181   4.841
 4953TIP3    H114802   1.372   2.120   4.901
 4953TIP3    H214803   1.341   2.228   4.800
 4954TIP3   OH214804   6.613   5.121   5.442
 4954TIP3    H114805   6.691   5.141   5.389
 4954TIP3    H214806   6.636   5.151   5.530
 4955TIP3   OH214807   1.484   1.482   4.409
 4955TIP3    H114808   1.431   1.552   4.371
 4955TIP3    H214809   1.438   1.402   4.383
 4956TIP3   OH214810   4.739   2.628   6.001
 4956TIP3    H114811   4.651   2.598   5.980
 4956TIP3    H214812   4.775   2.658   5.917
 4957TIP3   OH214813   7.561   4.702   0.666
 4957TIP3    H114814   7.628   4.763   0.635
 4957TIP3    H214815   7.502   4.691   0.592
 4958TIP3   OH214816   7.744   6.022   5.938
 4958TIP3    H114817   7.718   5.937   5.902
 4958TIP3    H214818   7.666   6.076   5.931
 4959TIP3   OH214819   0.964   6.430   6.112
 4959TIP3    H114820   0.891   6.430   6.050
 4959TIP3    H214821   0.962   6.518   6.151
 4960TIP3   OH214822   6.187   4.613   3.767
 4960TIP3    H114823   6.238   4.645   3.693
 4960TIP3    H214824   6.193   4.683   3.832
 4961TIP3   OH214825   8.107   1.161   1.211
 4961TIP3    H114826   8.072   1.244   1.178
 4961TIP3    H214827   8.152   1.122   1.136
 4962TIP3   OH214828   3.395   4.679   0.437
 4962TIP3    H114829   3.373   4.592   0.470
 4962TIP3    H214830   3.449   4.663   0.360
 4963TIP3   OH214831   5.885   0.288   1.718
 4963TIP3    H114832   5.848   0.334   1.794
 4963TIP3    H214833   5.953   0.347   1.685
 4964TIP3   OH214834   7.679   1.575   1.295
 4964TIP3    H114835   7.616   1.639   1.263
 4964TIP3    H214836   7.626   1.504   1.330
 4965TIP3   OH214837   2.979   3.667   5.120
 4965TIP3    H114838   3.020   3.739   5.072
 4965TIP3    H214839   3.014   3.588   5.078
 4966TIP3   OH214840   0.143   6.454   5.556
 4966TIP3    H114841   0.236   6.473   5.567
 4966TIP3    H214842   0.136   6.417   5.468
 4967TIP3   OH214843   4.024   5.051   0.115
 4967TIP3    H114844   4.044   5.140   0.086
 4967TIP3    H214845   4.030   4.998   0.036
 4968TIP3   OH214846   7.754   6.067   1.258
 4968TIP3    H114847   7.771   5.977   1.286
 4968TIP3    H214848   7.794   6.073   1.171
 4969TIP3   OH214849   3.773   5.050   1.036
 4969TIP3    H114850   3.857   5.057   1.081
 4969TIP3    H214851   3.742   5.141   1.028
 4970TIP3   OH214852   6.746   6.229   0.442
 4970TIP3    H114853   6.767   6.142   0.408
 4970TIP3    H214854   6.745   6.218   0.537
 4971TIP3   OH214855   4.587   3.712   3.780
 4971TIP3    H114856   4.629   3.628   3.799
 4971TIP3    H214857   4.615   3.733   3.691
 4972TIP3   OH214858   7.406   6.609   0.541
 4972TIP3    H114859   7.384   6.634   0.451
 4972TIP3    H214860   7.431   6.517   0.535
 4973TIP3   OH214861   1.431   2.919   1.276
 4973TIP3    H114862   1.487   2.862   1.223
 4973TIP3    H214863   1.376   2.859   1.326
 4974TIP3   OH214864   8.024   3.289   2.806
 4974TIP3    H114865   8.069   3.345   2.870
 4974TIP3    H214866   7.956   3.244   2.857
 4975TIP3   OH214867   3.933   2.854   5.416
 4975TIP3    H114868   4.015   2.836   5.370
 4975TIP3    H214869   3.864   2.835   5.353
 4976TIP3   OH214870   1.885   2.561   0.691
 4976TIP3    H114871   1.931   2.515   0.761
 4976TIP3    H214872   1.924   2.528   0.611
 4977TIP3   OH214873   2.844   5.344   3.280
 4977TIP3    H114874   2.849   5.439   3.288
 4977TIP3    H214875   2.816   5.329   3.190
 4978TIP3   OH214876   4.335   0.852   4.047
 4978TIP3    H114877   4.352   0.831   3.955
 4978TIP3    H214878   4.336   0.767   4.091
 4979TIP3   OH214879   1.915   5.623   0.385
 4979TIP3    H114880   1.956   5.542   0.357
 4979TIP3    H214881   1.988   5.677   0.417
 4980TIP3   OH214882   2.921   1.034   5.732
 4980TIP3    H114883   2.844   1.012   5.680
 4980TIP3    H214884   2.886   1.069   5.814
 4981TIP3   OH214885   1.066   3.903   4.956
 4981TIP3    H114886   1.150   3.946   4.970
 4981TIP3    H214887   1.085   3.834   4.892
 4982TIP3   OH214888   3.848   4.551   6.734
 4982TIP3    H114889   3.834   4.517   6.646
 4982TIP3    H214890   3.789   4.626   6.740
 4983TIP3   OH214891   4.273   6.235   1.133
 4983TIP3    H114892   4.261   6.237   1.038
 4983TIP3    H214893   4.364   6.260   1.146
 4984TIP3   OH214894   0.209   6.046   0.563
 4984TIP3    H114895   0.304   6.035   0.554
 4984TIP3    H214896   0.194   6.043   0.658
 4985TIP3   OH214897   7.109   2.319   2.893
 4985TIP3    H114898   7.156   2.290   2.815
 4985TIP3    H214899   7.144   2.406   2.912
 4986TIP3   OH214900   1.888   4.998   1.491
 4986TIP3    H114901   1.945   5.053   1.436
 4986TIP3    H214902   1.825   4.961   1.429
 4987TIP3   OH214903   2.927   2.110   2.252
 4987TIP3    H114904   2.846   2.153   2.279
 4987TIP3    H214905   2.914   2.089   2.159
 4988TIP3   OH214906   1.003   6.884   2.512
 4988TIP3    H114907   0.909   6.906   2.518
 4988TIP3    H214908   1.047   6.958   2.554
 4989TIP3   OH214909   0.465   0.328   3.227
 4989TIP3    H114910   0.458   0.323   3.322
 4989TIP3    H214911   0.448   0.239   3.196
 4990TIP3   OH214912   2.703   0.999   4.824
 4990TIP3    H114913   2.736   1.067   4.883
 4990TIP3    H214914   2.774   0.933   4.823
 4991TIP3   OH214915   4.577   7.157   1.229
 4991TIP3    H114916   4.513   7.123   1.166
 4991TIP3    H214917   4.656   7.106   1.213
 4992TIP3   OH214918   1.379   0.110   6.122
 4992TIP3    H114919   1.448   0.154   6.073
 4992TIP3    H214920   1.391   0.139   6.212
 4993TIP3   OH214921   5.476   5.160   6.488
 4993TIP3    H114922   5.452   5.095   6.555
 4993TIP3    H214923   5.477   5.111   6.406
 4994TIP3   OH214924   4.316   0.109   1.604
 4994TIP3    H114925   4.273   0.144   1.682
 4994TIP3    H214926   4.384   0.172   1.582
 4995TIP3   OH214927   2.867   6.510   6.339
 4995TIP3    H114928   2.853   6.415   6.337
 4995TIP3    H214929   2.788   6.547   6.298
 4996TIP3   OH214930   3.321   4.749   1.501
 4996TIP3    H114931   3.376   4.769   1.577
 4996TIP3    H214932   3.379   4.759   1.426
 4997TIP3   OH214933   1.460   1.723   6.052
 4997TIP3    H114934   1.386   1.781   6.073
 4997TIP3    H214935   1.534   1.760   6.100
 4998TIP3   OH214936   0.058   4.017   1.622
 4998TIP3    H114937   0.040   3.950   1.689
 4998TIP3    H214938   0.049   4.100   1.668
 4999TIP3   OH214939   7.211   5.310   0.313
 4999TIP3    H114940   7.295   5.335   0.275
 4999TIP3    H214941   7.229   5.230   0.362
 5000TIP3   OH214942   4.668   4.312   3.393
 5000TIP3    H114943   4.761   4.333   3.403
 5000TIP3    H214944   4.623   4.389   3.428
 5001TIP3   OH214945   4.501   5.856   0.530
 5001TIP3    H114946   4.523   5.910   0.606
 5001TIP3    H214947   4.420   5.811   0.555
 5002TIP3   OH214948   2.971   4.984   3.866
 5002TIP3    H114949   2.947   5.047   3.798
 5002TIP3    H214950   3.047   4.938   3.831
 5003TIP3   OH214951   5.742   6.274   5.924
 5003TIP3    H114952   5.798   6.332   5.872
 5003TIP3    H214953   5.794   6.195   5.937
 5004TIP3   OH214954   7.031   3.371   1.383
 5004TIP3    H114955   7.124   3.369   1.403
 5004TIP3    H214956   6.997   3.289   1.419
 5005TIP3   OH214957   4.112   4.557   6.522
 5005TIP3    H114958   4.032   4.523   6.482
 5005TIP3    H214959   4.115   4.649   6.497
 5006TIP3   OH214960   6.180   7.442   5.014
 5006TIP3    H114961   6.118   7.370   4.999
 5006TIP3    H214962   6.134   7.519   4.981
 5007TIP3   OH214963   4.607   0.246   3.143
 5007TIP3    H114964   4.620   0.265   3.050
 5007TIP3    H214965   4.695   0.233   3.178
 5008TIP3   OH214966   7.472   0.341   6.489
 5008TIP3    H114967   7.489   0.264   6.545
 5008TIP3    H214968   7.495   0.416   6.545
 5009TIP3   OH214969   6.459   4.479   3.576
 5009TIP3    H114970   6.392   4.429   3.530
 5009TIP3    H214971   6.469   4.559   3.524
 5010TIP3   OH214972   6.027   1.234   5.966
 5010TIP3    H114973   5.951   1.291   5.952
 5010TIP3    H214974   6.001   1.151   5.927
 5011TIP3   OH214975   3.037   4.266   3.264
 5011TIP3    H114976   3.129   4.249   3.246
 5011TIP3    H214977   3.003   4.184   3.298
 5012TIP3   OH214978   4.017   1.719   5.902
 5012TIP3    H114979   4.060   1.725   5.988
 5012TIP3    H214980   3.948   1.654   5.915
 5013TIP3   OH214981   1.989   6.680   5.019
 5013TIP3    H114982   2.026   6.609   5.070
 5013TIP3    H214983   2.058   6.703   4.957
 5014TIP3   OH214984   0.179   0.242   5.227
 5014TIP3    H114985   0.200   0.149   5.223
 5014TIP3    H214986   0.145   0.263   5.140
 5015TIP3   OH214987   7.663   3.381   4.760
 5015TIP3    H114988   7.703   3.461   4.796
 5015TIP3    H214989   7.570   3.402   4.753
 5016TIP3   OH214990   5.675   6.102   5.690
 5016TIP3    H114991   5.585   6.124   5.666
 5016TIP3    H214992   5.672   6.090   5.785
 5017TIP3   OH214993   5.292   0.505   4.068
 5017TIP3    H114994   5.277   0.527   3.976
 5017TIP3    H214995   5.359   0.436   4.065
 5018TIP3   OH214996   2.355   2.128   0.457
 5018TIP3    H114997   2.443   2.131   0.496
 5018TIP3    H214998   2.301   2.181   0.515
 5019TIP3   OH214999   0.764   3.153   6.063
 5019TIP3    H115000   0.819   3.222   6.101
 5019TIP3    H215001   0.815   3.120   5.989
 5020TIP3   OH215002   6.594   7.528   0.802
 5020TIP3    H115003   6.552   7.609   0.832
 5020TIP3    H215004   6.573   7.524   0.709
 5021TIP3   OH215005   4.309   0.033   4.674
 5021TIP3    H115006   4.333   0.096   4.606
 5021TIP3    H215007   4.214   0.042   4.683
 5022TIP3   OH215008   2.647   6.351   2.007
 5022TIP3    H115009   2.732   6.317   2.035
 5022TIP3    H215010   2.604   6.376   2.089
 5023TIP3   OH215011   3.796   6.757   4.655
 5023TIP3    H115012   3.758   6.824   4.597
 5023TIP3    H215013   3.721   6.727   4.708
 5024TIP3   OH215014   1.225   4.024   3.201
 5024TIP3    H115015   1.150   4.009   3.259
 5024TIP3    H215016   1.296   4.051   3.259
 5025TIP3   OH215017   6.681   2.749   2.608
 5025TIP3    H115018   6.635   2.831   2.590
 5025TIP3    H215019   6.765   2.757   2.564
 5026TIP3   OH215020   4.675   7.701   0.691
 5026TIP3    H115021   4.648   7.636   0.626
 5026TIP3    H215022   4.614   7.688   0.764
 5027TIP3   OH215023   4.836   3.021   4.545
 5027TIP3    H115024   4.815   2.929   4.527
 5027TIP3    H215025   4.930   3.028   4.528
 5028TIP3   OH215026   3.959   5.287   3.287
 5028TIP3    H115027   3.978   5.372   3.328
 5028TIP3    H215028   4.044   5.244   3.281
 5029TIP3   OH215029   1.859   7.161   2.408
 5029TIP3    H115030   1.906   7.217   2.470
 5029TIP3    H215031   1.861   7.074   2.448
 5030TIP3   OH215032   6.374   3.884   5.022
 5030TIP3    H115033   6.302   3.842   4.974
 5030TIP3    H215034   6.349   3.976   5.027
 5031TIP3   OH215035   4.753   3.102   5.528
 5031TIP3    H115036   4.702   3.181   5.508
 5031TIP3    H215037   4.689   3.031   5.526
 5032TIP3   OH215038   8.015   6.849   2.297
 5032TIP3    H115039   7.999   6.884   2.384
 5032TIP3    H215040   8.073   6.774   2.311
 5033TIP3   OH215041   7.337   3.094   4.776
 5033TIP3    H115042   7.262   3.050   4.816
 5033TIP3    H215043   7.394   3.022   4.746
 5034TIP3   OH215044   0.847   6.071   4.659
 5034TIP3    H115045   0.893   6.083   4.576
 5034TIP3    H215046   0.864   5.980   4.683
 5035TIP3   OH215047   6.590   6.649   3.937
 5035TIP3    H115048   6.527   6.716   3.962
 5035TIP3    H215049   6.569   6.629   3.845
 5036TIP3   OH215050   4.441   5.148   4.052
 5036TIP3    H115051   4.512   5.085   4.043
 5036TIP3    H215052   4.413   5.166   3.962
 5037TIP3   OH215053   6.400   2.686   4.965
 5037TIP3    H115054   6.380   2.770   4.924
 5037TIP3    H215055   6.401   2.624   4.892
 5038TIP3   OH215056   4.021   6.686   0.561
 5038TIP3    H115057   3.962   6.704   0.634
 5038TIP3    H215058   4.086   6.627   0.597
 5039TIP3   OH215059   4.061   6.364   0.453
 5039TIP3    H115060   4.032   6.455   0.453
 5039TIP3    H215061   3.992   6.318   0.405
 5040TIP3   OH215062   4.533   0.507   0.706
 5040TIP3    H115063   4.559   0.555   0.784
 5040TIP3    H215064   4.546   0.568   0.634
 5041TIP3   OH215065   2.689   3.964   5.868
 5041TIP3    H115066   2.650   4.037   5.820
 5041TIP3    H215067   2.685   3.990   5.959
 5042TIP3   OH215068   3.934   6.977   6.712
 5042TIP3    H115069   3.995   7.017   6.651
 5042TIP3    H215070   3.926   6.886   6.682
 5043TIP3   OH215071   6.420   1.437   3.792
 5043TIP3    H115072   6.365   1.402   3.863
 5043TIP3    H215073   6.368   1.425   3.713
 5044TIP3   OH215074   3.402   6.121   3.229
 5044TIP3    H115075   3.400   6.178   3.305
 5044TIP3    H215076   3.366   6.038   3.261
 5045TIP3   OH215077   5.759   3.931   5.358
 5045TIP3    H115078   5.800   3.941   5.444
 5045TIP3    H215079   5.815   3.983   5.299
 5046TIP3   OH215080   3.926   4.162   4.873
 5046TIP3    H115081   3.904   4.185   4.964
 5046TIP3    H215082   3.975   4.238   4.841
 5047TIP3   OH215083   3.053   4.369   3.665
 5047TIP3    H115084   3.012   4.446   3.627
 5047TIP3    H215085   3.006   4.355   3.748
 5048TIP3   OH215086   3.722   5.334   0.306
 5048TIP3    H115087   3.760   5.248   0.292
 5048TIP3    H215088   3.628   5.318   0.313
 5049TIP3   OH215089   5.389   6.522   1.380
 5049TIP3    H115090   5.470   6.552   1.340
 5049TIP3    H215091   5.347   6.469   1.313
 5050TIP3   OH215092   6.227   7.782   6.072
 5050TIP3    H115093   6.140   7.762   6.105
 5050TIP3    H215094   6.282   7.711   6.104
 5051TIP3   OH215095   1.461   5.571   4.691
 5051TIP3    H115096   1.548   5.571   4.731
 5051TIP3    H215097   1.419   5.649   4.727
 5052TIP3   OH215098   5.189   7.813   4.565
 5052TIP3    H115099   5.160   7.722   4.577
 5052TIP3    H215100   5.108   7.864   4.564
 5053TIP3   OH215101   5.169   3.108   0.729
 5053TIP3    H115102   5.158   3.037   0.793
 5053TIP3    H215103   5.167   3.064   0.644
 5054TIP3   OH215104   4.084   2.852   0.198
 5054TIP3    H115105   4.006   2.871   0.146
 5054TIP3    H215106   4.050   2.818   0.281
 5055TIP3   OH215107   3.336   5.623   3.336
 5055TIP3    H115108   3.259   5.593   3.385
 5055TIP3    H215109   3.321   5.591   3.247
 5056TIP3   OH215110   7.633   1.106   1.538
 5056TIP3    H115111   7.558   1.053   1.565
 5056TIP3    H215112   7.709   1.063   1.578
 5057TIP3   OH215113   1.355   6.583   4.733
 5057TIP3    H115114   1.298   6.606   4.806
 5057TIP3    H215115   1.382   6.667   4.696
 5058TIP3   OH215116   5.733   0.836   0.130
 5058TIP3    H115117   5.694   0.755   0.162
 5058TIP3    H215118   5.809   0.807   0.080
 5059TIP3   OH215119   2.091   5.812   4.356
 5059TIP3    H115120   2.072   5.759   4.278
 5059TIP3    H215121   2.005   5.839   4.388
 5060TIP3   OH215122   5.983   6.687   6.471
 5060TIP3    H115123   6.021   6.652   6.390
 5060TIP3    H215124   5.889   6.671   6.462
 5061TIP3   OH215125   6.793   4.549   1.303
 5061TIP3    H115126   6.869   4.569   1.248
 5061TIP3    H215127   6.723   4.530   1.240
 5062TIP3   OH215128   1.451   6.566   3.554
 5062TIP3    H115129   1.440   6.591   3.645
 5062TIP3    H215130   1.495   6.481   3.557
 5063TIP3   OH215131   6.926   0.476   3.924
 5063TIP3    H115132   6.978   0.485   4.003
 5063TIP3    H215133   6.845   0.524   3.942
 5064TIP3   OH215134   2.193   6.215   1.823
 5064TIP3    H115135   2.193   6.298   1.872
 5064TIP3    H215136   2.273   6.171   1.852
 5065TIP3   OH215137   4.749   4.016   1.536
 5065TIP3    H115138   4.726   4.054   1.621
 5065TIP3    H215139   4.845   4.014   1.535
 5066TIP3   OH215140   7.140   1.202   6.769
 5066TIP3    H115141   7.068   1.181   6.711
 5066TIP3    H215142   7.208   1.137   6.749
 5067TIP3   OH215143   1.082   4.172   2.298
 5067TIP3    H115144   1.018   4.103   2.312
 5067TIP3    H215145   1.073   4.195   2.205
 5068TIP3   OH215146   3.169   2.284   4.339
 5068TIP3    H115147   3.184   2.202   4.293
 5068TIP3    H215148   3.148   2.347   4.271
 5069TIP3   OH215149   3.730   5.093   1.459
 5069TIP3    H115150   3.805   5.076   1.402
 5069TIP3    H215151   3.657   5.107   1.399
 5070TIP3   OH215152   6.105   7.605   3.403
 5070TIP3    H115153   6.195   7.629   3.380
 5070TIP3    H215154   6.078   7.545   3.334
 5071TIP3   OH215155   2.032   2.482   2.106
 5071TIP3    H115156   1.975   2.537   2.159
 5071TIP3    H215157   2.088   2.437   2.170
 5072TIP3   OH215158   3.610   1.149   3.627
 5072TIP3    H115159   3.684   1.209   3.631
 5072TIP3    H215160   3.581   1.152   3.536
 5073TIP3   OH215161   7.515   4.228   3.341
 5073TIP3    H115162   7.542   4.305   3.393
 5073TIP3    H215163   7.591   4.169   3.346
 5074TIP3   OH215164   8.234   1.130   6.416
 5074TIP3    H115165   8.319   1.120   6.458
 5074TIP3    H215166   8.239   1.076   6.338
 5075TIP3   OH215167   5.242   6.389   0.820
 5075TIP3    H115168   5.267   6.297   0.806
 5075TIP3    H215169   5.287   6.413   0.901
 5076TIP3   OH215170   0.803   2.280   1.035
 5076TIP3    H115171   0.823   2.328   1.116
 5076TIP3    H215172   0.887   2.243   1.008
 5077TIP3   OH215173   4.338   4.043   2.060
 5077TIP3    H115174   4.253   4.055   2.017
 5077TIP3    H215175   4.316   4.006   2.145
 5078TIP3   OH215176   7.553   2.489   6.065
 5078TIP3    H115177   7.502   2.568   6.046
 5078TIP3    H215178   7.643   2.520   6.074
 5079TIP3   OH215179   3.393   0.203   4.984
 5079TIP3    H115180   3.362   0.256   4.911
 5079TIP3    H215181   3.450   0.138   4.943
 5080TIP3   OH215182   1.707   1.294   1.611
 5080TIP3    H115183   1.766   1.264   1.542
 5080TIP3    H215184   1.722   1.388   1.616
 5081TIP3   OH215185   2.319   1.709   5.524
 5081TIP3    H115186   2.298   1.708   5.430
 5081TIP3    H215187   2.235   1.701   5.568
 5082TIP3   OH215188   3.845   2.386   0.767
 5082TIP3    H115189   3.829   2.294   0.788
 5082TIP3    H215190   3.912   2.413   0.830
 5083TIP3   OH215191   0.511   4.636   2.529
 5083TIP3    H115192   0.569   4.591   2.468
 5083TIP3    H215193   0.514   4.728   2.501
 5084TIP3   OH215194   0.124   3.264   6.532
 5084TIP3    H115195   0.092   3.316   6.606
 5084TIP3    H215196   0.181   3.324   6.483
 5085TIP3   OH215197   6.574   3.051   3.784
 5085TIP3    H115198   6.638   3.121   3.795
 5085TIP3    H215199   6.555   3.021   3.873
 5086TIP3   OH215200   4.460   2.420   0.565
 5086TIP3    H115201   4.456   2.377   0.479
 5086TIP3    H215202   4.368   2.436   0.587
 5087TIP3   OH215203   4.225   6.635   4.028
 5087TIP3    H115204   4.187   6.643   4.116
 5087TIP3    H215205   4.292   6.704   4.025
 5088TIP3   OH215206   6.281   0.423   2.259
 5088TIP3    H115207   6.310   0.479   2.187
 5088TIP3    H215208   6.347   0.354   2.265
 5089TIP3   OH215209   7.882   7.329   5.613
 5089TIP3    H115210   7.898   7.318   5.519
 5089TIP3    H215211   7.867   7.423   5.623
 5090TIP3   OH215212   3.142   7.384   3.120
 5090TIP3    H115213   3.055   7.398   3.157
 5090TIP3    H215214   3.202   7.407   3.190
 5091TIP3   OH215215   7.070   6.752   5.260
 5091TIP3    H115216   7.107   6.718   5.178
 5091TIP3    H215217   7.034   6.837   5.236
 5092TIP3   OH215218   0.369   2.013   5.121
 5092TIP3    H115219   0.398   2.034   5.032
 5092TIP3    H215220   0.415   2.075   5.177
 5093TIP3   OH215221   3.169   5.288   5.122
 5093TIP3    H115222   3.121   5.233   5.060
 5093TIP3    H215223   3.109   5.300   5.195
 5094TIP3   OH215224   2.137   2.810   3.069
 5094TIP3    H115225   2.220   2.855   3.055
 5094TIP3    H215226   2.095   2.859   3.140
 5095TIP3   OH215227   6.421   0.562   6.270
 5095TIP3    H115228   6.345   0.548   6.326
 5095TIP3    H215229   6.491   0.585   6.331
 5096TIP3   OH215230   5.170   7.308   4.093
 5096TIP3    H115231   5.217   7.252   4.032
 5096TIP3    H215232   5.188   7.270   4.180
 5097TIP3   OH215233   7.281   2.593   5.104
 5097TIP3    H115234   7.373   2.581   5.127
 5097TIP3    H215235   7.282   2.657   5.033
 5098TIP3   OH215236   6.094   6.670   2.348
 5098TIP3    H115237   6.076   6.722   2.425
 5098TIP3    H215238   6.189   6.654   2.352
 5099TIP3   OH215239   0.683   5.452   5.333
 5099TIP3    H115240   0.728   5.440   5.417
 5099TIP3    H215241   0.754   5.461   5.269
 5100TIP3   OH215242   3.114   4.446   1.957
 5100TIP3    H115243   3.180   4.381   1.932
 5100TIP3    H215244   3.035   4.419   1.911
 5101TIP3   OH215245   6.244   3.476   5.038
 5101TIP3    H115246   6.149   3.479   5.043
 5101TIP3    H215247   6.271   3.568   5.035
 5102TIP3   OH215248   7.016   1.453   0.096
 5102TIP3    H115249   7.026   1.466   0.002
 5102TIP3    H215250   6.939   1.506   0.119
 5103TIP3   OH215251   1.832   3.499   0.798
 5103TIP3    H115252   1.851   3.473   0.708
 5103TIP3    H215253   1.878   3.582   0.810
 5104TIP3   OH215254   7.240   6.348   5.186
 5104TIP3    H115255   7.307   6.356   5.118
 5104TIP3    H215256   7.159   6.376   5.143
 5105TIP3   OH215257   8.075   1.424   1.124
 5105TIP3    H115258   8.067   1.450   1.216
 5105TIP3    H215259   8.081   1.507   1.076
 5106TIP3   OH215260   7.637   0.538   5.782
 5106TIP3    H115261   7.697   0.515   5.711
 5106TIP3    H215262   7.578   0.463   5.790
 5107TIP3   OH215263   2.743   2.045   2.720
 5107TIP3    H115264   2.717   2.007   2.803
 5107TIP3    H215265   2.728   1.976   2.655
 5108TIP3   OH215266   3.276   2.133   6.594
 5108TIP3    H115267   3.312   2.045   6.577
 5108TIP3    H215268   3.252   2.166   6.508
 5109TIP3   OH215269   3.339   0.306   2.057
 5109TIP3    H115270   3.312   0.349   1.975
 5109TIP3    H215271   3.265   0.251   2.081
 5110TIP3   OH215272   4.274   4.967   3.761
 5110TIP3    H115273   4.249   4.906   3.692
 5110TIP3    H215274   4.204   4.961   3.826
 5111TIP3   OH215275   3.129   7.218   1.748
 5111TIP3    H115276   3.179   7.280   1.695
 5111TIP3    H215277   3.038   7.246   1.738
 5112TIP3   OH215278   4.158   1.371   1.921
 5112TIP3    H115279   4.153   1.460   1.884
 5112TIP3    H215280   4.138   1.314   1.847
 5113TIP3   OH215281   7.286   5.048   1.646
 5113TIP3    H115282   7.292   5.004   1.561
 5113TIP3    H215283   7.248   4.982   1.704
 5114TIP3   OH215284   2.777   4.797   1.563
 5114TIP3    H115285   2.869   4.778   1.547
 5114TIP3    H215286   2.754   4.745   1.640
 5115TIP3   OH215287   1.424   4.273   5.296
 5115TIP3    H115288   1.480   4.203   5.331
 5115TIP3    H215289   1.345   4.269   5.350
 5116TIP3   OH215290   1.118   1.088   3.202
 5116TIP3    H115291   1.050   1.098   3.135
 5116TIP3    H215292   1.132   0.994   3.209
 5117TIP3   OH215293   7.799   3.612   4.213
 5117TIP3    H115294   7.819   3.525   4.179
 5117TIP3    H215295   7.747   3.596   4.292
 5118TIP3   OH215296   4.612   6.924   5.904
 5118TIP3    H115297   4.593   6.832   5.886
 5118TIP3    H215298   4.633   6.962   5.818
 5119TIP3   OH215299   5.318   6.754   0.326
 5119TIP3    H115300   5.376   6.813   0.278
 5119TIP3    H215301   5.368   6.673   0.334
 5120TIP3   OH215302   2.813   3.527   5.354
 5120TIP3    H115303   2.856   3.584   5.417
 5120TIP3    H215304   2.846   3.557   5.269
 5121TIP3   OH215305   1.607   2.388   5.601
 5121TIP3    H115306   1.589   2.320   5.666
 5121TIP3    H215307   1.697   2.415   5.619
 5122TIP3   OH215308   6.006   7.757   1.103
 5122TIP3    H115309   6.093   7.734   1.133
 5122TIP3    H215310   5.962   7.793   1.180
 5123TIP3   OH215311   7.324   1.542   3.815
 5123TIP3    H115312   7.394   1.605   3.797
 5123TIP3    H215313   7.286   1.573   3.897
 5124TIP3   OH215314   2.284   4.367   0.917
 5124TIP3    H115315   2.362   4.319   0.888
 5124TIP3    H215316   2.216   4.301   0.925
 5125TIP3   OH215317   6.432   4.891   0.114
 5125TIP3    H115318   6.352   4.839   0.101
 5125TIP3    H215319   6.490   4.863   0.043
 5126TIP3   OH215320   1.433   6.987   6.168
 5126TIP3    H115321   1.477   6.906   6.140
 5126TIP3    H215322   1.366   7.002   6.102
 5127TIP3   OH215323   4.279   5.652   1.192
 5127TIP3    H115324   4.265   5.594   1.267
 5127TIP3    H215325   4.370   5.635   1.166
 5128TIP3   OH215326   0.825   1.054   3.320
 5128TIP3    H115327   0.895   1.063   3.385
 5128TIP3    H215328   0.763   0.993   3.360
 5129TIP3   OH215329   7.894   3.020   1.923
 5129TIP3    H115330   7.858   2.941   1.883
 5129TIP3    H215331   7.961   2.987   1.984
 5130TIP3   OH215332   0.057   1.824   4.046
 5130TIP3    H115333   0.033   1.868   4.128
 5130TIP3    H215334   0.148   1.796   4.059
 5131TIP3   OH215335   6.068   3.860   2.685
 5131TIP3    H115336   6.013   3.866   2.606
 5131TIP3    H215337   6.031   3.786   2.734
 5132TIP3   OH215338   4.228   4.373   4.791
 5132TIP3    H115339   4.237   4.286   4.830
 5132TIP3    H215340   4.154   4.412   4.837
 5133TIP3   OH215341   2.782   2.628   1.713
 5133TIP3    H115342   2.689   2.649   1.715
 5133TIP3    H215343   2.787   2.538   1.746
 5134TIP3   OH215344   2.612   7.153   0.092
 5134TIP3    H115345   2.685   7.200   0.052
 5134TIP3    H215346   2.537   7.175   0.037
 5135TIP3   OH215347   7.254   6.090   4.267
 5135TIP3    H115348   7.307   6.031   4.213
 5135TIP3    H215349   7.236   6.165   4.209
 5136TIP3   OH215350   3.228   0.932   3.266
 5136TIP3    H115351   3.187   0.858   3.219
 5136TIP3    H215352   3.205   1.009   3.214
 5137TIP3   OH215353   4.403   0.797   0.057
 5137TIP3    H115354   4.493   0.765   0.059
 5137TIP3    H215355   4.393   0.846   0.138
 5138TIP3   OH215356   3.946   5.933   4.655
 5138TIP3    H115357   3.870   5.968   4.702
 5138TIP3    H215358   4.003   6.009   4.642
 5139TIP3   OH215359   2.939   1.661   0.101
 5139TIP3    H115360   2.855   1.642   0.059
 5139TIP3    H215361   2.994   1.585   0.080
 5140TIP3   OH215362   0.965   5.432   6.250
 5140TIP3    H115363   0.923   5.355   6.214
 5140TIP3    H215364   1.045   5.399   6.291
 5141TIP3   OH215365   0.417   5.596   4.919
 5141TIP3    H115366   0.437   5.539   4.993
 5141TIP3    H215367   0.344   5.554   4.874
 5142TIP3   OH215368   6.836   7.403   0.368
 5142TIP3    H115369   6.756   7.441   0.405
 5142TIP3    H215370   6.858   7.331   0.427
 5143TIP3   OH215371   6.278   4.416   3.183
 5143TIP3    H115372   6.205   4.424   3.122
 5143TIP3    H215373   6.355   4.403   3.127
 5144TIP3   OH215374   3.181   3.105   4.102
 5144TIP3    H115375   3.204   3.033   4.161
 5144TIP3    H215376   3.104   3.145   4.142
 5145TIP3   OH215377   4.310   2.653   3.623
 5145TIP3    H115378   4.274   2.679   3.707
 5145TIP3    H215379   4.252   2.583   3.592
 5146TIP3   OH215380   5.866   1.794   3.299
 5146TIP3    H115381   5.827   1.735   3.234
 5146TIP3    H215382   5.805   1.867   3.305
 5147TIP3   OH215383   5.272   6.197   1.164
 5147TIP3    H115384   5.239   6.212   1.253
 5147TIP3    H215385   5.299   6.284   1.134
 5148TIP3   OH215386   0.610   4.102   6.177
 5148TIP3    H115387   0.648   4.025   6.137
 5148TIP3    H215388   0.664   4.175   6.146
 5149TIP3   OH215389   2.946   1.689   5.465
 5149TIP3    H115390   2.904   1.697   5.380
 5149TIP3    H215391   2.917   1.766   5.514
 5150TIP3   OH215392   1.356   1.217   3.153
 5150TIP3    H115393   1.297   1.141   3.159
 5150TIP3    H215394   1.303   1.285   3.111
 5151TIP3   OH215395   8.088   0.338   0.096
 5151TIP3    H115396   8.041   0.260   0.123
 5151TIP3    H215397   8.181   0.315   0.107
 5152TIP3   OH215398   1.242   5.910   6.716
 5152TIP3    H115399   1.323   5.878   6.674
 5152TIP3    H215400   1.242   5.867   6.802
 5153TIP3   OH215401   5.936   7.458   5.183
 5153TIP3    H115402   5.925   7.535   5.238
 5153TIP3    H215403   6.008   7.410   5.224
 5154TIP3   OH215404   1.296   6.343   4.932
 5154TIP3    H115405   1.216   6.322   4.883
 5154TIP3    H215406   1.282   6.433   4.962
 5155TIP3   OH215407   3.048   5.763   1.690
 5155TIP3    H115408   3.023   5.853   1.714
 5155TIP3    H215409   3.041   5.713   1.771
 5156TIP3   OH215410   3.710   1.344   0.130
 5156TIP3    H115411   3.662   1.339   0.212
 5156TIP3    H215412   3.770   1.418   0.141
 5157TIP3   OH215413   0.564   7.174   3.390
 5157TIP3    H115414   0.573   7.203   3.481
 5157TIP3    H215415   0.611   7.239   3.339
 5158TIP3   OH215416   2.990   1.040   4.575
 5158TIP3    H115417   2.963   1.003   4.491
 5158TIP3    H215418   2.926   1.109   4.592
 5159TIP3   OH215419   5.397   1.787   2.666
 5159TIP3    H115420   5.465   1.747   2.611
 5159TIP3    H215421   5.380   1.723   2.734
 5160TIP3   OH215422   2.002   6.119   0.598
 5160TIP3    H115423   2.036   6.075   0.521
 5160TIP3    H215424   2.059   6.090   0.670
 5161TIP3   OH215425   0.600   5.672   4.232
 5161TIP3    H115426   0.570   5.752   4.189
 5161TIP3    H215427   0.690   5.691   4.258
 5162TIP3   OH215428   2.177   6.033   5.305
 5162TIP3    H115429   2.180   6.129   5.308
 5162TIP3    H215430   2.199   6.012   5.214
 5163TIP3   OH215431   5.905   0.947   6.016
 5163TIP3    H115432   5.964   0.873   6.002
 5163TIP3    H215433   5.897   0.987   5.930
 5164TIP3   OH215434   6.940   3.012   0.677
 5164TIP3    H115435   6.989   3.075   0.728
 5164TIP3    H215436   6.930   3.054   0.591
 5165TIP3   OH215437   4.026   5.413   5.583
 5165TIP3    H115438   4.030   5.356   5.506
 5165TIP3    H215439   3.956   5.474   5.564
 5166TIP3   OH215440   2.467   2.927   6.606
 5166TIP3    H115441   2.446   2.834   6.611
 5166TIP3    H215442   2.560   2.932   6.628
 5167TIP3   OH215443   4.973   2.028   0.241
 5167TIP3    H115444   5.042   2.075   0.193
 5167TIP3    H215445   4.973   2.069   0.328
 5168TIP3   OH215446   2.612   0.527   2.146
 5168TIP3    H115447   2.571   0.444   2.124
 5168TIP3    H215448   2.601   0.581   2.068
 5169TIP3   OH215449   1.664   7.785   0.712
 5169TIP3    H115450   1.626   7.782   0.800
 5169TIP3    H215451   1.751   7.822   0.725
 5170TIP3   OH215452   5.183   6.237   2.645
 5170TIP3    H115453   5.101   6.216   2.690
 5170TIP3    H215454   5.242   6.267   2.714
 5171TIP3   OH215455   0.653   3.412   4.341
 5171TIP3    H115456   0.703   3.402   4.422
 5171TIP3    H215457   0.651   3.324   4.303
 5172TIP3   OH215458   1.910   3.228   5.873
 5172TIP3    H115459   1.863   3.149   5.899
 5172TIP3    H215460   1.878   3.247   5.784
 5173TIP3   OH215461   8.118   6.058   3.773
 5173TIP3    H115462   8.129   5.963   3.779
 5173TIP3    H215463   8.073   6.082   3.854
 5174TIP3   OH215464   1.038   0.657   1.593
 5174TIP3    H115465   1.027   0.566   1.619
 5174TIP3    H215466   1.127   0.679   1.619
 5175TIP3   OH215467   3.577   5.855   5.821
 5175TIP3    H115468   3.611   5.787   5.763
 5175TIP3    H215469   3.482   5.849   5.810
 5176TIP3   OH215470   6.369   2.703   0.588
 5176TIP3    H115471   6.328   2.692   0.673
 5176TIP3    H215472   6.297   2.705   0.526
 5177TIP3   OH215473   3.005   6.624   5.082
 5177TIP3    H115474   3.084   6.605   5.133
 5177TIP3    H215475   2.949   6.672   5.142
 5178TIP3   OH215476   7.183   1.866   5.459
 5178TIP3    H115477   7.200   1.802   5.527
 5178TIP3    H215478   7.121   1.927   5.498
 5179TIP3   OH215479   4.521   7.434   0.259
 5179TIP3    H115480   4.427   7.432   0.277
 5179TIP3    H215481   4.536   7.359   0.202
 5180TIP3   OH215482   0.277   0.927   1.773
 5180TIP3    H115483   0.279   0.938   1.678
 5180TIP3    H215484   0.185   0.939   1.796
 5181TIP3   OH215485   4.992   5.298   4.158
 5181TIP3    H115486   4.957   5.386   4.171
 5181TIP3    H215487   4.918   5.240   4.175
 5182TIP3   OH215488   6.701   5.241   3.347
 5182TIP3    H115489   6.751   5.264   3.425
 5182TIP3    H215490   6.681   5.325   3.306
 5183TIP3   OH215491   1.506   3.208   4.553
 5183TIP3    H115492   1.491   3.114   4.565
 5183TIP3    H215493   1.584   3.227   4.605
 5184TIP3   OH215494   5.574   1.111   0.478
 5184TIP3    H115495   5.541   1.094   0.566
 5184TIP3    H215496   5.567   1.206   0.467
 5185TIP3   OH215497   3.406   3.632   6.718
 5185TIP3    H115498   3.429   3.707   6.664
 5185TIP3    H215499   3.325   3.659   6.762
 5186TIP3   OH215500   0.264   5.668   1.640
 5186TIP3    H115501   0.339   5.698   1.589
 5186TIP3    H215502   0.247   5.580   1.608
 5187TIP3   OH215503   6.682   7.676   6.444
 5187TIP3    H115504   6.653   7.726   6.367
 5187TIP3    H215505   6.713   7.593   6.409
 5188TIP3   OH215506   0.169   7.279   3.289
 5188TIP3    H115507   0.151   7.337   3.215
 5188TIP3    H215508   0.104   7.209   3.280
 5189TIP3   OH215509   2.210   7.281   6.377
 5189TIP3    H115510   2.138   7.257   6.435
 5189TIP3    H215511   2.171   7.339   6.312
 5190TIP3   OH215512   7.606   5.596   1.770
 5190TIP3    H115513   7.539   5.577   1.704
 5190TIP3    H215514   7.669   5.524   1.761
 5191TIP3   OH215515   3.070   1.462   5.820
 5191TIP3    H115516   3.083   1.549   5.859
 5191TIP3    H215517   2.979   1.463   5.790
 5192TIP3   OH215518   3.299   3.123   1.814
 5192TIP3    H115519   3.320   3.177   1.891
 5192TIP3    H215520   3.203   3.128   1.807
 5193TIP3   OH215521   8.237   0.972   6.204
 5193TIP3    H115522   8.151   0.935   6.181
 5193TIP3    H215523   8.293   0.895   6.215
 5194TIP3   OH215524   8.198   5.701   2.909
 5194TIP3    H115525   8.237   5.786   2.892
 5194TIP3    H215526   8.242   5.670   2.988
 5195TIP3   OH215527   3.852   6.620   3.112
 5195TIP3    H115528   3.815   6.689   3.167
 5195TIP3    H215529   3.783   6.601   3.048
 5196TIP3   OH215530   0.028   4.183   0.791
 5196TIP3    H115531  -0.067   4.197   0.798
 5196TIP3    H215532   0.062   4.266   0.760
 5197TIP3   OH215533   6.228   6.632   1.176
 5197TIP3    H115534   6.323   6.630   1.181
 5197TIP3    H215535   6.203   6.540   1.166
 5198TIP3   OH215536   5.107   4.822   0.114
 5198TIP3    H115537   5.163   4.768   0.058
 5198TIP3    H215538   5.048   4.866   0.053
 5199TIP3   OH215539   1.919   2.046   1.985
 5199TIP3    H115540   1.839   2.033   1.934
 5199TIP3    H215541   1.963   1.961   1.983
 5200TIP3   OH215542   5.156   5.433   3.404
 5200TIP3    H115543   5.245   5.438   3.369
 5200TIP3    H215544   5.166   5.455   3.497
 5201TIP3   OH215545   7.290   5.885   2.226
 5201TIP3    H115546   7.289   5.794   2.256
 5201TIP3    H215547   7.378   5.916   2.248
 5202TIP3   OH215548   4.287   7.788   2.099
 5202TIP3    H115549   4.203   7.806   2.057
 5202TIP3    H215550   4.303   7.696   2.083
 5203TIP3   OH215551   3.941   1.202   6.570
 5203TIP3    H115552   3.874   1.145   6.534
 5203TIP3    H215553   4.024   1.160   6.547
 5204TIP3   OH215554   7.832   5.260   5.045
 5204TIP3    H115555   7.828   5.165   5.035
 5204TIP3    H215556   7.753   5.283   5.093
 5205TIP3   OH215557   8.182   2.738   1.661
 5205TIP3    H115558   8.245   2.690   1.608
 5205TIP3    H215559   8.235   2.804   1.707
 5206TIP3   OH215560   5.805   2.892   4.822
 5206TIP3    H115561   5.762   2.908   4.906
 5206TIP3    H215562   5.840   2.978   4.796
 5207TIP3   OH215563   0.643   3.878   1.934
 5207TIP3    H115564   0.654   3.963   1.890
 5207TIP3    H215565   0.684   3.815   1.874
 5208TIP3   OH215566   6.053   2.632   3.025
 5208TIP3    H115567   5.970   2.661   3.064
 5208TIP3    H215568   6.076   2.703   2.965
 5209TIP3   OH215569   0.756   2.304   1.389
 5209TIP3    H115570   0.665   2.334   1.392
 5209TIP3    H215571   0.802   2.372   1.339
 5210TIP3   OH215572   0.510   0.899   4.955
 5210TIP3    H115573   0.471   0.830   4.901
 5210TIP3    H215574   0.575   0.853   5.008
 5211TIP3   OH215575   3.073   1.327   6.078
 5211TIP3    H115576   3.065   1.371   5.993
 5211TIP3    H215577   3.152   1.366   6.117
 5212TIP3   OH215578   4.337   2.525   0.009
 5212TIP3    H115579   4.247   2.499  -0.008
 5212TIP3    H215580   4.389   2.448  -0.016
 5213TIP3   OH215581   2.073   1.606   2.903
 5213TIP3    H115582   2.160   1.622   2.941
 5213TIP3    H215583   2.087   1.532   2.843
 5214TIP3   OH215584   1.240   1.766   3.721
 5214TIP3    H115585   1.274   1.799   3.638
 5214TIP3    H215586   1.181   1.836   3.753
 5215TIP3   OH215587   6.115   1.905   6.276
 5215TIP3    H115588   6.181   1.861   6.223
 5215TIP3    H215589   6.068   1.960   6.214
 5216TIP3   OH215590   5.325   2.894   4.233
 5216TIP3    H115591   5.397   2.858   4.182
 5216TIP3    H215592   5.274   2.946   4.171
 5217TIP3   OH215593   0.937   1.134   5.666
 5217TIP3    H115594   0.889   1.056   5.639
 5217TIP3    H215595   0.941   1.188   5.588
 5218TIP3   OH215596   3.658   5.734   3.916
 5218TIP3    H115597   3.576   5.687   3.900
 5218TIP3    H215598   3.661   5.745   4.011
 5219TIP3   OH215599   1.159   6.191   3.879
 5219TIP3    H115600   1.205   6.259   3.928
 5219TIP3    H215601   1.197   6.109   3.911
 5220TIP3   OH215602   2.960   0.494   1.224
 5220TIP3    H115603   3.001   0.431   1.165
 5220TIP3    H215604   2.879   0.520   1.179
 5221TIP3   OH215605   5.308   4.134   4.979
 5221TIP3    H115606   5.249   4.110   4.907
 5221TIP3    H215607   5.376   4.185   4.936
 5222TIP3   OH215608   1.688   5.729   3.560
 5222TIP3    H115609   1.757   5.770   3.508
 5222TIP3    H215610   1.695   5.636   3.539
 5223TIP3   OH215611   6.276   5.273   0.022
 5223TIP3    H115612   6.369   5.255   0.010
 5223TIP3    H215613   6.263   5.273   0.117
 5224TIP3   OH215614   2.185   3.038   3.879
 5224TIP3    H115615   2.125   3.003   3.946
 5224TIP3    H215616   2.145   3.012   3.796
 5225TIP3   OH215617   6.412   0.813   3.474
 5225TIP3    H115618   6.346   0.767   3.422
 5225TIP3    H215619   6.486   0.823   3.415
 5226TIP3   OH215620   7.495   0.342   2.558
 5226TIP3    H115621   7.447   0.276   2.508
 5226TIP3    H215622   7.527   0.295   2.635
 5227TIP3   OH215623   4.606   2.309   4.316
 5227TIP3    H115624   4.645   2.268   4.393
 5227TIP3    H215625   4.632   2.253   4.243
 5228TIP3   OH215626   3.456   0.665   1.880
 5228TIP3    H115627   3.401   0.704   1.813
 5228TIP3    H215628   3.435   0.713   1.960
 5229TIP3   OH215629   5.336   3.401   5.095
 5229TIP3    H115630   5.344   3.486   5.138
 5229TIP3    H215631   5.272   3.415   5.025
 5230TIP3   OH215632   3.304   0.740   0.999
 5230TIP3    H115633   3.329   0.831   1.016
 5230TIP3    H215634   3.240   0.746   0.929
 5231TIP3   OH215635   2.223   0.610   0.356
 5231TIP3    H115636   2.164   0.596   0.430
 5231TIP3    H215637   2.239   0.704   0.355
 5232TIP3   OH215638   3.872   2.476   4.001
 5232TIP3    H115639   3.925   2.416   3.948
 5232TIP3    H215640   3.809   2.420   4.045
 5233TIP3   OH215641   4.832   6.648   5.693
 5233TIP3    H115642   4.892   6.609   5.757
 5233TIP3    H215643   4.850   6.742   5.697
 5234TIP3   OH215644   0.943   4.335   0.877
 5234TIP3    H115645   0.871   4.322   0.816
 5234TIP3    H215646   1.006   4.266   0.854
 5235TIP3   OH215647   2.796   1.019   6.112
 5235TIP3    H115648   2.884   1.036   6.146
 5235TIP3    H215649   2.800   0.928   6.082
 5236TIP3   OH215650   5.295   7.245   5.483
 5236TIP3    H115651   5.387   7.260   5.507
 5236TIP3    H215652   5.246   7.266   5.562
 5237TIP3   OH215653   3.256   4.585   5.373
 5237TIP3    H115654   3.172   4.602   5.331
 5237TIP3    H215655   3.320   4.629   5.316
 5238TIP3   OH215656   2.738   2.910   6.184
 5238TIP3    H115657   2.766   2.905   6.275
 5238TIP3    H215658   2.722   2.819   6.158
 5239TIP3   OH215659   2.793   6.483   4.960
 5239TIP3    H115660   2.874   6.528   4.985
 5239TIP3    H215661   2.753   6.459   5.044
 5240TIP3   OH215662   8.231   6.018   5.792
 5240TIP3    H115663   8.230   6.111   5.772
 5240TIP3    H215664   8.152   5.984   5.751
 5241TIP3   OH215665   7.548   4.465   4.571
 5241TIP3    H115666   7.468   4.508   4.600
 5241TIP3    H215667   7.594   4.441   4.651
 5242TIP3   OH215668   7.875   1.382   5.423
 5242TIP3    H115669   7.964   1.359   5.399
 5242TIP3    H215670   7.849   1.449   5.359
 5243TIP3   OH215671   2.453   5.436   5.779
 5243TIP3    H115672   2.541   5.408   5.754
 5243TIP3    H215673   2.414   5.359   5.820
 5244TIP3   OH215674   3.113   3.803   0.464
 5244TIP3    H115675   3.169   3.870   0.504
 5244TIP3    H215676   3.109   3.827   0.372
 5245TIP3   OH215677   1.746   4.301   0.946
 5245TIP3    H115678   1.790   4.387   0.948
 5245TIP3    H215679   1.667   4.313   0.999
 5246TIP3   OH215680   8.225   6.884   4.724
 5246TIP3    H115681   8.302   6.869   4.779
 5246TIP3    H215682   8.168   6.940   4.778
 5247TIP3   OH215683   0.253   0.230   0.386
 5247TIP3    H115684   0.312   0.294   0.347
 5247TIP3    H215685   0.235   0.263   0.474
 5248TIP3   OH215686   8.143   0.427   3.344
 5248TIP3    H115687   8.136   0.338   3.309
 5248TIP3    H215688   8.090   0.426   3.423
 5249TIP3   OH215689   1.877   1.852   3.832
 5249TIP3    H115690   1.888   1.807   3.916
 5249TIP3    H215691   1.900   1.787   3.766
 5250TIP3   OH215692   5.920   2.014   2.046
 5250TIP3    H115693   5.869   1.991   2.124
 5250TIP3    H215694   5.987   2.074   2.079
 5251TIP3   OH215695   1.664   0.765   1.150
 5251TIP3    H115696   1.706   0.801   1.228
 5251TIP3    H215697   1.703   0.814   1.077
 5252TIP3   OH215698   2.183   2.881   5.957
 5252TIP3    H115699   2.100   2.845   5.925
 5252TIP3    H215700   2.195   2.962   5.907
 5253TIP3   OH215701   5.247   0.339   4.333
 5253TIP3    H115702   5.247   0.371   4.423
 5253TIP3    H215703   5.327   0.375   4.295
 5254TIP3   OH215704   2.959   3.483   1.120
 5254TIP3    H115705   2.983   3.572   1.098
 5254TIP3    H215706   2.894   3.492   1.189
 5255TIP3   OH215707   7.088   5.412   1.044
 5255TIP3    H115708   7.112   5.450   1.128
 5255TIP3    H215709   7.005   5.366   1.061
 5256TIP3   OH215710   6.948   6.408   5.114
 5256TIP3    H115711   6.884   6.409   5.043
 5256TIP3    H215712   6.932   6.489   5.162
 5257TIP3   OH215713   2.685   2.336   5.269
 5257TIP3    H115714   2.654   2.416   5.311
 5257TIP3    H215715   2.628   2.267   5.305
 5258TIP3   OH215716   0.489   6.886   2.258
 5258TIP3    H115717   0.563   6.868   2.316
 5258TIP3    H215718   0.454   6.799   2.236
 5259TIP3   OH215719   3.056   2.023   6.185
 5259TIP3    H115720   3.134   2.010   6.239
 5259TIP3    H215721   2.988   1.971   6.227
 5260TIP3   OH215722   5.229   1.352   5.805
 5260TIP3    H115723   5.208   1.402   5.727
 5260TIP3    H215724   5.189   1.402   5.877
 5261TIP3   OH215725   4.080   2.957   6.630
 5261TIP3    H115726   4.099   3.051   6.629
 5261TIP3    H215727   4.058   2.936   6.539
 5262TIP3   OH215728   1.676   1.482   2.903
 5262TIP3    H115729   1.741   1.417   2.875
 5262TIP3    H215730   1.725   1.564   2.909
 5263TIP3   OH215731   5.698   0.204   4.952
 5263TIP3    H115732   5.689   0.298   4.967
 5263TIP3    H215733   5.652   0.163   5.025
 5264TIP3   OH215734   0.035   5.925   4.019
 5264TIP3    H115735  -0.049   5.883   4.035
 5264TIP3    H215736   0.097   5.876   4.073
 5265TIP3   OH215737   0.015   6.670   5.168
 5265TIP3    H115738  -0.052   6.721   5.123
 5265TIP3    H215739  -0.013   6.579   5.157
 5266TIP3   OH215740   7.402   1.559   6.111
 5266TIP3    H115741   7.402   1.477   6.160
 5266TIP3    H215742   7.495   1.576   6.093
 5267TIP3   OH215743   0.569   6.200   6.622
 5267TIP3    H115744   0.566   6.125   6.682
 5267TIP3    H215745   0.593   6.162   6.538
 5268TIP3   OH215746   1.868   0.285   5.940
 5268TIP3    H115747   1.963   0.293   5.932
 5268TIP3    H215748   1.841   0.238   5.860
 5269TIP3   OH215749   2.700   6.314   0.098
 5269TIP3    H115750   2.792   6.319   0.073
 5269TIP3    H215751   2.702   6.306   0.194
 5270TIP3   OH215752   7.280   2.688   1.375
 5270TIP3    H115753   7.219   2.676   1.448
 5270TIP3    H215754   7.314   2.777   1.387
 5271TIP3   OH215755   3.166   4.776   4.421
 5271TIP3    H115756   3.201   4.802   4.335
 5271TIP3    H215757   3.157   4.859   4.469
 5272TIP3   OH215758   4.067   0.080   3.015
 5272TIP3    H115759   4.108   0.057   2.932
 5272TIP3    H215760   4.077   0.175   3.021
 5273TIP3   OH215761   5.081   6.149   6.276
 5273TIP3    H115762   5.103   6.056   6.274
 5273TIP3    H215763   5.095   6.178   6.186
 5274TIP3   OH215764   7.576   5.743   4.526
 5274TIP3    H115765   7.561   5.777   4.614
 5274TIP3    H215766   7.615   5.816   4.478
 5275TIP3   OH215767   5.460   4.973   2.367
 5275TIP3    H115768   5.462   4.917   2.290
 5275TIP3    H215769   5.545   4.960   2.408
 5276TIP3   OH215770   0.086   5.843   1.702
 5276TIP3    H115771   0.148   5.772   1.684
 5276TIP3    H215772   0.138   5.909   1.747
 5277TIP3   OH215773   1.863   1.111   4.781
 5277TIP3    H115774   1.921   1.101   4.856
 5277TIP3    H215775   1.792   1.169   4.812
 5278TIP3   OH215776   5.286   4.625   2.919
 5278TIP3    H115777   5.379   4.640   2.904
 5278TIP3    H215778   5.265   4.679   2.995
 5279TIP3   OH215779   7.532   0.165   6.688
 5279TIP3    H115780   7.603   0.226   6.709
 5279TIP3    H215781   7.572   0.078   6.700
 5280TIP3   OH215782   6.406   2.771   1.413
 5280TIP3    H115783   6.393   2.684   1.450
 5280TIP3    H215784   6.469   2.759   1.343
 5281TIP3   OH215785   2.614   6.039   3.693
 5281TIP3    H115786   2.585   6.098   3.761
 5281TIP3    H215787   2.583   6.079   3.611
 5282TIP3   OH215788   3.670   3.406   0.190
 5282TIP3    H115789   3.580   3.374   0.203
 5282TIP3    H215790   3.697   3.435   0.277
 5283TIP3   OH215791   0.023   3.848   3.014
 5283TIP3    H115792   0.051   3.809   2.932
 5283TIP3    H215793  -0.008   3.935   2.991
 5284TIP3   OH215794   1.965   1.553   5.955
 5284TIP3    H115795   2.012   1.605   6.019
 5284TIP3    H215796   2.024   1.549   5.879
 5285TIP3   OH215797   5.923   2.898   6.577
 5285TIP3    H115798   6.013   2.864   6.579
 5285TIP3    H215799   5.868   2.820   6.569
 5286TIP3   OH215800   5.552   0.883   2.873
 5286TIP3    H115801   5.479   0.824   2.855
 5286TIP3    H215802   5.573   0.868   2.965
 5287TIP3   OH215803   4.126   0.894   2.354
 5287TIP3    H115804   4.071   0.895   2.433
 5287TIP3    H215805   4.159   0.805   2.350
 5288TIP3   OH215806   1.206   0.786   3.226
 5288TIP3    H115807   1.242   0.697   3.230
 5288TIP3    H215808   1.208   0.816   3.317
 5289TIP3   OH215809   2.518   6.876   1.236
 5289TIP3    H115810   2.474   6.798   1.204
 5289TIP3    H215811   2.602   6.845   1.268
 5290TIP3   OH215812   1.204   3.704   3.581
 5290TIP3    H115813   1.125   3.741   3.620
 5290TIP3    H215814   1.185   3.610   3.573
 5291TIP3   OH215815   2.098   2.267   4.425
 5291TIP3    H115816   2.007   2.276   4.455
 5291TIP3    H215817   2.117   2.173   4.435
 5292TIP3   OH215818   5.776   0.888   5.417
 5292TIP3    H115819   5.720   0.848   5.350
 5292TIP3    H215820   5.747   0.849   5.499
 5293TIP3   OH215821   6.701   0.855   2.337
 5293TIP3    H115822   6.719   0.766   2.366
 5293TIP3    H215823   6.724   0.910   2.413
 5294TIP3   OH215824   3.362   3.190   3.335
 5294TIP3    H115825   3.329   3.174   3.423
 5294TIP3    H215826   3.365   3.286   3.327
 5295TIP3   OH215827   6.471   3.197   0.489
 5295TIP3    H115828   6.542   3.243   0.445
 5295TIP3    H215829   6.509   3.113   0.513
 5296TIP3   OH215830   0.905   1.538   6.559
 5296TIP3    H115831   0.908   1.633   6.550
 5296TIP3    H215832   0.947   1.520   6.643
 5297TIP3   OH215833   1.181   1.399   1.205
 5297TIP3    H115834   1.161   1.492   1.190
 5297TIP3    H215835   1.185   1.362   1.117
 5298TIP3   OH215836   6.607   5.618   5.606
 5298TIP3    H115837   6.611   5.548   5.671
 5298TIP3    H215838   6.583   5.696   5.656
 5299TIP3   OH215839   2.512   7.094   4.370
 5299TIP3    H115840   2.459   7.057   4.442
 5299TIP3    H215841   2.539   7.180   4.402
 5300TIP3   OH215842   8.267   7.064   6.698
 5300TIP3    H115843   8.318   7.101   6.771
 5300TIP3    H215844   8.241   6.977   6.728
 5301TIP3   OH215845   5.314   7.273   0.792
 5301TIP3    H115846   5.325   7.193   0.843
 5301TIP3    H215847   5.393   7.324   0.811
 5302TIP3   OH215848   6.203   0.308   0.461
 5302TIP3    H115849   6.108   0.301   0.467
 5302TIP3    H215850   6.231   0.331   0.550
 5303TIP3   OH215851   5.308   0.156   2.338
 5303TIP3    H115852   5.247   0.101   2.290
 5303TIP3    H215853   5.276   0.155   2.428
 5304TIP3   OH215854   1.873   4.048   5.759
 5304TIP3    H115855   1.946   4.108   5.778
 5304TIP3    H215856   1.874   4.039   5.664
 5305TIP3   OH215857   6.527   4.963   5.217
 5305TIP3    H115858   6.549   5.019   5.291
 5305TIP3    H215859   6.440   4.929   5.237
 5306TIP3   OH215860   5.415   7.047   6.092
 5306TIP3    H115861   5.402   6.991   6.016
 5306TIP3    H215862   5.339   7.030   6.148
 5307TIP3   OH215863   3.354   4.495   4.420
 5307TIP3    H115864   3.374   4.406   4.451
 5307TIP3    H215865   3.343   4.485   4.325
 5308TIP3   OH215866   1.366   1.203   2.597
 5308TIP3    H115867   1.278   1.211   2.560
 5308TIP3    H215868   1.403   1.291   2.592
 5309TIP3   OH215869   4.957   5.326   0.352
 5309TIP3    H115870   4.968   5.269   0.276
 5309TIP3    H215871   5.036   5.312   0.404
 5310TIP3   OH215872   1.348   0.227   4.246
 5310TIP3    H115873   1.408   0.194   4.179
 5310TIP3    H215874   1.389   0.201   4.329
 5311TIP3   OH215875   6.222   0.965   3.127
 5311TIP3    H115876   6.227   0.933   3.037
 5311TIP3    H215877   6.312   0.958   3.160
 5312TIP3   OH215878   4.931   3.992   3.551
 5312TIP3    H115879   4.927   4.023   3.641
 5312TIP3    H215880   4.844   4.008   3.516
 5313TIP3   OH215881   3.578   3.767   1.081
 5313TIP3    H115882   3.491   3.805   1.067
 5313TIP3    H215883   3.577   3.739   1.172
 5314TIP3   OH215884   6.265   4.629   1.446
 5314TIP3    H115885   6.208   4.669   1.512
 5314TIP3    H215886   6.272   4.696   1.377
 5315TIP3   OH215887   3.683   5.210   3.337
 5315TIP3    H115888   3.673   5.135   3.278
 5315TIP3    H215889   3.775   5.236   3.327
 5316TIP3   OH215890   7.202   6.832   3.569
 5316TIP3    H115891   7.170   6.876   3.489
 5316TIP3    H215892   7.294   6.813   3.550
 5317TIP3   OH215893   3.047   5.661   3.390
 5317TIP3    H115894   3.030   5.677   3.297
 5317TIP3    H215895   2.973   5.608   3.418
 5318TIP3   OH215896   7.758   3.320   6.369
 5318TIP3    H115897   7.769   3.231   6.402
 5318TIP3    H215898   7.727   3.309   6.279
 5319TIP3   OH215899   2.253   4.576   5.605
 5319TIP3    H115900   2.307   4.654   5.606
 5319TIP3    H215901   2.181   4.595   5.665
 5320TIP3   OH215902   7.686   6.104   0.313
 5320TIP3    H115903   7.728   6.060   0.387
 5320TIP3    H215904   7.680   6.196   0.341
 5321TIP3   OH215905   1.387   0.259   6.368
 5321TIP3    H115906   1.400   0.352   6.348
 5321TIP3    H215907   1.322   0.259   6.439
 5322TIP3   OH215908   6.513   6.789   1.593
 5322TIP3    H115909   6.474   6.869   1.630
 5322TIP3    H215910   6.578   6.762   1.657
 5323TIP3   OH215911   1.771   2.140   2.943
 5323TIP3    H115912   1.734   2.100   2.864
 5323TIP3    H215913   1.865   2.134   2.931
 5324TIP3   OH215914   8.056   1.867   0.005
 5324TIP3    H115915   8.055   1.913  -0.079
 5324TIP3    H215916   8.140   1.890   0.044
 5325TIP3   OH215917   1.875   6.404   5.964
 5325TIP3    H115918   1.832   6.384   5.881
 5325TIP3    H215919   1.959   6.358   5.960
 5326TIP3   OH215920   3.543   7.165   2.808
 5326TIP3    H115921   3.517   7.135   2.721
 5326TIP3    H215922   3.483   7.120   2.868
 5327TIP3   OH215923   5.685   0.121   2.812
 5327TIP3    H115924   5.665   0.174   2.735
 5327TIP3    H215925   5.703   0.034   2.777
 5328TIP3   OH215926   5.431   7.045   2.196
 5328TIP3    H115927   5.389   6.999   2.269
 5328TIP3    H215928   5.511   6.996   2.180
 5329TIP3   OH215929   1.048   7.324   3.237
 5329TIP3    H115930   1.128   7.290   3.277
 5329TIP3    H215931   1.073   7.411   3.204
 5330TIP3   OH215932   1.802   3.479   1.524
 5330TIP3    H115933   1.720   3.507   1.565
 5330TIP3    H215934   1.865   3.474   1.596
 5331TIP3   OH215935   4.162   5.482   5.297
 5331TIP3    H115936   4.144   5.399   5.343
 5331TIP3    H215937   4.084   5.498   5.244
 5332TIP3   OH215938   2.965   7.466   5.361
 5332TIP3    H115939   2.915   7.388   5.337
 5332TIP3    H215940   2.902   7.538   5.351
 5333TIP3   OH215941   4.101   4.862   6.111
 5333TIP3    H115942   4.015   4.903   6.117
 5333TIP3    H215943   4.162   4.936   6.103
 5334TIP3   OH215944   7.501   3.665   3.480
 5334TIP3    H115945   7.497   3.715   3.562
 5334TIP3    H215946   7.592   3.673   3.452
 5335TIP3   OH215947   5.982   4.934   4.902
 5335TIP3    H115948   5.901   4.886   4.919
 5335TIP3    H215949   5.976   4.958   4.809
 5336TIP3   OH215950   5.441   6.417   5.660
 5336TIP3    H115951   5.405   6.330   5.679
 5336TIP3    H215952   5.498   6.436   5.734
 5337TIP3   OH215953   0.090   5.532   3.656
 5337TIP3    H115954   0.097   5.516   3.750
 5337TIP3    H215955   0.108   5.447   3.616
 5338TIP3   OH215956   4.713   1.963   1.681
 5338TIP3    H115957   4.763   1.914   1.746
 5338TIP3    H215958   4.780   2.013   1.633
 5339TIP3   OH215959   0.437   2.215   1.774
 5339TIP3    H115960   0.516   2.171   1.744
 5339TIP3    H215961   0.381   2.220   1.697
 5340TIP3   OH215962   5.146   2.659   5.760
 5340TIP3    H115963   5.068   2.608   5.739
 5340TIP3    H215964   5.138   2.679   5.853
 5341TIP3   OH215965   7.021   7.253   3.807
 5341TIP3    H115966   6.970   7.222   3.733
 5341TIP3    H215967   7.109   7.219   3.791
 5342TIP3   OH215968   4.699   5.523   4.289
 5342TIP3    H115969   4.622   5.580   4.282
 5342TIP3    H215970   4.754   5.546   4.214
 5343TIP3   OH215971   1.368   3.897   2.795
 5343TIP3    H115972   1.410   3.822   2.837
 5343TIP3    H215973   1.360   3.870   2.703
 5344TIP3   OH215974   3.287   4.378   5.534
 5344TIP3    H115975   3.284   4.455   5.477
 5344TIP3    H215976   3.375   4.343   5.522
 5345TIP3   OH215977   6.085   1.423   6.181
 5345TIP3    H115978   6.141   1.489   6.223
 5345TIP3    H215979   6.058   1.463   6.099
 5346TIP3   OH215980   3.281   4.927   0.399
 5346TIP3    H115981   3.327   4.843   0.399
 5346TIP3    H215982   3.213   4.917   0.466
 5347TIP3   OH215983   4.691   3.416   2.183
 5347TIP3    H115984   4.780   3.399   2.216
 5347TIP3    H215985   4.639   3.341   2.213
 5348TIP3   OH215986   5.163   6.415   6.342
 5348TIP3    H115987   5.075   6.392   6.312
 5348TIP3    H215988   5.212   6.333   6.337
 5349TIP3   OH215989   6.529   1.796   3.361
 5349TIP3    H115990   6.462   1.771   3.297
 5349TIP3    H215991   6.545   1.889   3.344
 5350TIP3   OH215992   5.481   7.498   5.939
 5350TIP3    H115993   5.425   7.573   5.957
 5350TIP3    H215994   5.466   7.438   6.012
 5351TIP3   OH215995   0.080   1.434   3.529
 5351TIP3    H115996   0.143   1.363   3.520
 5351TIP3    H215997   0.049   1.427   3.619
 5352TIP3   OH215998   6.033   3.953   1.514
 5352TIP3    H115999   5.998   3.865   1.521
 5352TIP3    H216000   6.065   3.960   1.424
 5353TIP3   OH216001   5.108   3.018   3.198
 5353TIP3    H116002   5.056   2.943   3.171
 5353TIP3    H216003   5.177   3.025   3.132
 5354TIP3   OH216004   4.421   6.594   4.992
 5354TIP3    H116005   4.343   6.587   4.938
 5354TIP3    H216006   4.482   6.529   4.957
 5355TIP3   OH216007   3.901   2.732   3.919
 5355TIP3    H116008   3.896   2.639   3.941
 5355TIP3    H216009   3.899   2.777   4.004
 5356TIP3   OH216010   5.406   3.025   4.578
 5356TIP3    H116011   5.460   2.968   4.524
 5356TIP3    H216012   5.445   3.112   4.568
 5357TIP3   OH216013   4.283   6.785   6.736
 5357TIP3    H116014   4.302   6.878   6.720
 5357TIP3    H216015   4.198   6.771   6.696
 5358TIP3   OH216016   1.165   5.769   1.399
 5358TIP3    H116017   1.134   5.834   1.462
 5358TIP3    H216018   1.086   5.730   1.363
 5359TIP3   OH216019   6.790   1.128   4.840
 5359TIP3    H116020   6.778   1.222   4.843
 5359TIP3    H216021   6.703   1.093   4.822
 5360TIP3   OH216022   8.270   6.867   2.784
 5360TIP3    H116023   8.282   6.882   2.878
 5360TIP3    H216024   8.178   6.843   2.776
 5361TIP3   OH216025   4.869   3.505   1.855
 5361TIP3    H116026   4.870   3.453   1.775
 5361TIP3    H216027   4.931   3.461   1.913
 5362TIP3   OH216028   6.551   5.167   5.711
 5362TIP3    H116029   6.513   5.106   5.647
 5362TIP3    H216030   6.578   5.111   5.784
 5363TIP3   OH216031   5.557   3.659   3.838
 5363TIP3    H116032   5.516   3.650   3.752
 5363TIP3    H216033   5.646   3.690   3.818
 5364TIP3   OH216034   5.618   2.573   0.613
 5364TIP3    H116035   5.546   2.564   0.676
 5364TIP3    H216036   5.671   2.495   0.627
 5365TIP3   OH216037   6.181   6.614   0.528
 5365TIP3    H116038   6.204   6.564   0.450
 5365TIP3    H216039   6.210   6.559   0.601
 5366TIP3   OH216040   6.091   4.961   3.454
 5366TIP3    H116041   6.146   5.032   3.421
 5366TIP3    H216042   6.061   4.915   3.376
 5367TIP3   OH216043   1.028   4.258   1.989
 5367TIP3    H116044   0.959   4.309   2.031
 5367TIP3    H216045   1.056   4.313   1.915
 5368TIP3   OH216046   7.586   6.940   6.206
 5368TIP3    H116047   7.565   6.858   6.250
 5368TIP3    H216048   7.507   6.962   6.156
 5369TIP3   OH216049   6.039   6.355   0.753
 5369TIP3    H116050   6.079   6.306   0.825
 5369TIP3    H216051   6.070   6.445   0.765
 5370TIP3   OH216052   0.394   3.989   0.978
 5370TIP3    H116053   0.449   3.975   1.056
 5370TIP3    H216054   0.452   4.032   0.916
 5371TIP3   OH216055   4.888   3.715   3.656
 5371TIP3    H116056   4.958   3.744   3.597
 5371TIP3    H216057   4.812   3.704   3.599
 5372TIP3   OH216058   3.870   0.479   6.337
 5372TIP3    H116059   3.916   0.435   6.266
 5372TIP3    H216060   3.849   0.409   6.399
 5373TIP3   OH216061   2.189   2.625   4.533
 5373TIP3    H116062   2.150   2.548   4.574
 5373TIP3    H216063   2.115   2.676   4.502
 5374TIP3   OH216064   1.696   2.277   3.433
 5374TIP3    H116065   1.692   2.205   3.370
 5374TIP3    H216066   1.767   2.252   3.493
 5375TIP3   OH216067   3.843   7.542   4.904
 5375TIP3    H116068   3.846   7.454   4.868
 5375TIP3    H216069   3.813   7.597   4.831
 5376TIP3   OH216070   3.818   2.551   4.940
 5376TIP3    H116071   3.744   2.611   4.937
 5376TIP3    H216072   3.784   2.468   4.908
 5377TIP3   OH216073   0.404   3.134   4.494
 5377TIP3    H116074   0.309   3.134   4.485
 5377TIP3    H216075   0.420   3.116   4.587
 5378TIP3   OH216076   5.573   5.855   1.341
 5378TIP3    H116077   5.612   5.924   1.287
 5378TIP3    H216078   5.479   5.861   1.324
 5379TIP3   OH216079   8.151   4.452   2.155
 5379TIP3    H116080   8.059   4.474   2.149
 5379TIP3    H216081   8.171   4.455   2.249
 5380TIP3   OH216082   7.577   3.150   3.378
 5380TIP3    H116083   7.593   3.227   3.323
 5380TIP3    H216084   7.584   3.076   3.317
 5381TIP3   OH216085   3.481   2.800   1.775
 5381TIP3    H116086   3.465   2.814   1.868
 5381TIP3    H216087   3.572   2.772   1.770
 5382TIP3   OH216088   2.924   7.176   0.481
 5382TIP3    H116089   2.941   7.229   0.403
 5382TIP3    H216090   2.906   7.089   0.448
 5383TIP3   OH216091   2.821   7.317   1.362
 5383TIP3    H116092   2.873   7.385   1.405
 5383TIP3    H216093   2.868   7.236   1.380
 5384TIP3   OH216094   4.077   3.947   5.529
 5384TIP3    H116095   4.131   3.942   5.450
 5384TIP3    H216096   4.137   3.980   5.597
 5385TIP3   OH216097   3.311   3.073   4.547
 5385TIP3    H116098   3.392   3.124   4.556
 5385TIP3    H216099   3.292   3.044   4.636
 5386TIP3   OH216100   8.014   1.582   3.468
 5386TIP3    H116101   8.055   1.603   3.551
 5386TIP3    H216102   8.087   1.563   3.409
 5387TIP3   OH216103   6.486   0.028   1.533
 5387TIP3    H116104   6.534   0.028   1.450
 5387TIP3    H216105   6.553   0.013   1.599
 5388TIP3   OH216106   1.028   2.225   4.631
 5388TIP3    H116107   0.985   2.143   4.607
 5388TIP3    H216108   1.056   2.263   4.548
 5389TIP3   OH216109   5.154   4.242   3.648
 5389TIP3    H116110   5.116   4.220   3.563
 5389TIP3    H216111   5.222   4.305   3.628
 5390TIP3   OH216112   7.878   0.876   6.009
 5390TIP3    H116113   7.799   0.866   5.955
 5390TIP3    H216114   7.949   0.845   5.952
 5391TIP3   OH216115   4.579   5.705   5.690
 5391TIP3    H116116   4.590   5.611   5.699
 5391TIP3    H216117   4.541   5.733   5.774
 5392TIP3   OH216118   5.661   4.309   3.697
 5392TIP3    H116119   5.727   4.313   3.767
 5392TIP3    H216120   5.655   4.216   3.674
 5393TIP3   OH216121   2.316   1.190   0.407
 5393TIP3    H116122   2.316   1.286   0.401
 5393TIP3    H216123   2.368   1.171   0.486
 5394TIP3   OH216124   4.803   5.656   3.596
 5394TIP3    H116125   4.837   5.570   3.572
 5394TIP3    H216126   4.721   5.664   3.548
 5395TIP3   OH216127   3.127   7.122   4.325
 5395TIP3    H116128   3.201   7.171   4.289
 5395TIP3    H216129   3.123   7.042   4.272
 5396TIP3   OH216130   1.834   4.509   4.105
 5396TIP3    H116131   1.777   4.468   4.040
 5396TIP3    H216132   1.917   4.522   4.059
 5397TIP3   OH216133   5.749   7.493   1.886
 5397TIP3    H116134   5.673   7.464   1.936
 5397TIP3    H216135   5.802   7.414   1.875
 5398TIP3   OH216136   6.337   1.793   6.155
 5398TIP3    H116137   6.383   1.869   6.120
 5398TIP3    H216138   6.378   1.718   6.112
 5399TIP3   OH216139   0.807   4.998   4.855
 5399TIP3    H116140   0.854   5.042   4.926
 5399TIP3    H216141   0.862   5.014   4.778
 5400TIP3   OH216142   2.596   1.181   5.474
 5400TIP3    H116143   2.592   1.258   5.419
 5400TIP3    H216144   2.633   1.113   5.418
 5401TIP3   OH216145   6.371   3.070   6.766
 5401TIP3    H116146   6.280   3.042   6.756
 5401TIP3    H216147   6.403   3.079   6.676
 5402TIP3   OH216148   0.053   5.809   3.660
 5402TIP3    H116149   0.097   5.725   3.674
 5402TIP3    H216150  -0.026   5.804   3.712
 5403TIP3   OH216151   8.123   3.521   1.036
 5403TIP3    H116152   8.059   3.477   0.980
 5403TIP3    H216153   8.157   3.593   0.983
 5404TIP3   OH216154   4.730   2.289   2.823
 5404TIP3    H116155   4.737   2.341   2.904
 5404TIP3    H216156   4.644   2.311   2.788
 5405TIP3   OH216157   7.148   1.787   2.041
 5405TIP3    H116158   7.125   1.786   2.134
 5405TIP3    H216159   7.111   1.705   2.007
 5406TIP3   OH216160   2.471   5.497   0.116
 5406TIP3    H116161   2.528   5.461   0.048
 5406TIP3    H216162   2.523   5.566   0.156
 5407TIP3   OH216163   5.839   2.757   1.096
 5407TIP3    H116164   5.791   2.812   1.157
 5407TIP3    H216165   5.835   2.669   1.134
 5408TIP3   OH216166   4.921   5.402   3.773
 5408TIP3    H116167   4.838   5.443   3.799
 5408TIP3    H216168   4.898   5.350   3.696
 5409TIP3   OH216169   1.187   3.310   6.622
 5409TIP3    H116170   1.220   3.400   6.619
 5409TIP3    H216171   1.259   3.259   6.659
 5410TIP3   OH216172   5.776   1.974   2.289
 5410TIP3    H116173   5.727   2.048   2.325
 5410TIP3    H216174   5.714   1.900   2.295
 5411TIP3   OH216175   8.051   5.159   2.913
 5411TIP3    H116176   7.969   5.196   2.880
 5411TIP3    H216177   8.119   5.218   2.881
 5412TIP3   OH216178   7.589   0.540   0.594
 5412TIP3    H116179   7.633   0.552   0.678
 5412TIP3    H216180   7.658   0.513   0.534
 5413TIP3   OH216181   0.470   0.428   0.692
 5413TIP3    H116182   0.401   0.364   0.709
 5413TIP3    H216183   0.550   0.385   0.723
 5414TIP3   OH216184   4.328   3.618   5.541
 5414TIP3    H116185   4.243   3.576   5.543
 5414TIP3    H216186   4.342   3.641   5.449
 5415TIP3   OH216187   7.961   5.876   0.425
 5415TIP3    H116188   7.877   5.901   0.462
 5415TIP3    H216189   8.022   5.880   0.499
 5416TIP3   OH216190   7.378   2.143   2.470
 5416TIP3    H116191   7.468   2.160   2.498
 5416TIP3    H216192   7.387   2.090   2.390
 5417TIP3   OH216193   0.294   3.815   3.078
 5417TIP3    H116194   0.335   3.887   3.125
 5417TIP3    H216195   0.202   3.840   3.069
 5418TIP3   OH216196   4.079   1.393   3.389
 5418TIP3    H116197   4.087   1.426   3.299
 5418TIP3    H216198   4.065   1.299   3.378
 5419TIP3   OH216199   2.355   0.691   4.207
 5419TIP3    H116200   2.409   0.746   4.265
 5419TIP3    H216201   2.418   0.648   4.149
 5420TIP3   OH216202   1.263   2.171   2.412
 5420TIP3    H116203   1.292   2.089   2.453
 5420TIP3    H216204   1.174   2.184   2.445
 5421TIP3   OH216205   7.766   7.052   6.365
 5421TIP3    H116206   7.695   7.005   6.321
 5421TIP3    H216207   7.842   7.040   6.309
 5422TIP3   OH216208   0.255   6.773   6.610
 5422TIP3    H116209   0.257   6.700   6.549
 5422TIP3    H216210   0.186   6.750   6.673
 5423TIP3   OH216211   2.767   3.013  -0.034
 5423TIP3    H116212   2.826   3.046   0.034
 5423TIP3    H216213   2.706   2.956   0.012
 5424TIP3   OH216214   6.137   2.296   5.680
 5424TIP3    H116215   6.047   2.284   5.650
 5424TIP3    H216216   6.190   2.283   5.601
 5425TIP3   OH216217   1.926   5.168   4.348
 5425TIP3    H116218   2.015   5.133   4.351
 5425TIP3    H216219   1.935   5.250   4.300
 5426TIP3   OH216220   6.681   2.516   1.311
 5426TIP3    H116221   6.633   2.581   1.261
 5426TIP3    H216222   6.773   2.531   1.288
 5427TIP3   OH216223   4.234   4.339   3.370
 5427TIP3    H116224   4.306   4.283   3.396
 5427TIP3    H216225   4.156   4.283   3.376
 5428TIP3   OH216226   5.778   7.717   6.293
 5428TIP3    H116227   5.778   7.622   6.293
 5428TIP3    H216228   5.823   7.742   6.213
 5429TIP3   OH216229   2.312   5.675   0.896
 5429TIP3    H116230   2.354   5.760   0.910
 5429TIP3    H216231   2.375   5.611   0.930
 5430TIP3   OH216232   0.957   3.136   2.185
 5430TIP3    H116233   0.958   3.219   2.138
 5430TIP3    H216234   0.871   3.132   2.226
 5431TIP3   OH216235   1.786   5.981   5.269
 5431TIP3    H116236   1.788   6.000   5.175
 5431TIP3    H216237   1.782   6.066   5.311
 5432TIP3   OH216238   4.388   5.447   2.633
 5432TIP3    H116239   4.333   5.374   2.660
 5432TIP3    H216240   4.424   5.419   2.548
 5433TIP3   OH216241   6.249   7.120   3.564
 5433TIP3    H116242   6.293   7.180   3.504
 5433TIP3    H216243   6.207   7.055   3.508
 5434TIP3   OH216244   3.604   6.978   4.587
 5434TIP3    H116245   3.542   6.976   4.514
 5434TIP3    H216246   3.560   7.028   4.655
 5435TIP3   OH216247   4.000   6.688   1.211
 5435TIP3    H116248   4.067   6.621   1.223
 5435TIP3    H216249   3.928   6.641   1.169
 5436TIP3   OH216250   7.536   7.402   3.672
 5436TIP3    H116251   7.608   7.464   3.683
 5436TIP3    H216252   7.568   7.341   3.605
 5437TIP3   OH216253   6.165   2.252   2.743
 5437TIP3    H116254   6.096   2.196   2.706
 5437TIP3    H216255   6.129   2.283   2.826
 5438TIP3   OH216256   0.655   7.684   4.104
 5438TIP3    H116257   0.702   7.700   4.022
 5438TIP3    H216258   0.689   7.748   4.165
 5439TIP3   OH216259   3.079   3.162   0.367
 5439TIP3    H116260   3.168   3.144   0.337
 5439TIP3    H216261   3.033   3.078   0.355
 5440TIP3   OH216262   3.109   6.736   4.861
 5440TIP3    H116263   3.103   6.831   4.871
 5440TIP3    H216264   3.071   6.701   4.941
 5441TIP3   OH216265   3.388   2.868   1.007
 5441TIP3    H116266   3.294   2.858   1.021
 5441TIP3    H216267   3.395   2.912   0.922
 5442TIP3   OH216268   4.267   2.787   2.312
 5442TIP3    H116269   4.172   2.784   2.305
 5442TIP3    H216270   4.298   2.759   2.226
 5443TIP3   OH216271   1.256   7.214   4.100
 5443TIP3    H116272   1.219   7.287   4.051
 5443TIP3    H216273   1.277   7.149   4.033
 5444TIP3   OH216274   6.884   1.995   2.674
 5444TIP3    H116275   6.911   1.978   2.764
 5444TIP3    H216276   6.794   2.027   2.682
 5445TIP3   OH216277   5.529   5.360   2.631
 5445TIP3    H116278   5.538   5.365   2.726
 5445TIP3    H216279   5.463   5.426   2.609
 5446TIP3   OH216280   2.683   5.287   5.724
 5446TIP3    H116281   2.671   5.265   5.632
 5446TIP3    H216282   2.775   5.267   5.742
 5447TIP3   OH216283   0.948   0.919   6.604
 5447TIP3    H116284   0.907   0.973   6.536
 5447TIP3    H216285   0.879   0.861   6.634
 5448TIP3   OH216286   4.116   7.224   1.967
 5448TIP3    H116287   4.029   7.209   1.931
 5448TIP3    H216288   4.157   7.287   1.907
 5449TIP3   OH216289   4.416   1.342   0.481
 5449TIP3    H116290   4.324   1.316   0.473
 5449TIP3    H216291   4.419   1.393   0.561
 5450TIP3   OH216292   1.377   0.007   3.003
 5450TIP3    H116293   1.422  -0.064   3.048
 5450TIP3    H216294   1.391  -0.010   2.910
 5451TIP3   OH216295   8.003   7.612   5.987
 5451TIP3    H116296   7.939   7.544   5.964
 5451TIP3    H216297   8.088   7.570   5.972
 5452TIP3   OH216298   1.281   6.958   0.866
 5452TIP3    H116299   1.331   6.884   0.902
 5452TIP3    H216300   1.190   6.932   0.876
 5453TIP3   OH216301   7.034   0.670   0.748
 5453TIP3    H116302   7.015   0.648   0.839
 5453TIP3    H216303   6.981   0.748   0.730
 5454TIP3   OH216304   7.774   6.619   1.284
 5454TIP3    H116305   7.724   6.542   1.311
 5454TIP3    H216306   7.719   6.694   1.310
 5455TIP3   OH216307   0.908   5.723   3.313
 5455TIP3    H116308   0.996   5.749   3.338
 5455TIP3    H216309   0.862   5.709   3.396
 5456TIP3   OH216310   7.861   7.655   0.232
 5456TIP3    H116311   7.798   7.666   0.303
 5456TIP3    H216312   7.935   7.610   0.273
 5457TIP3   OH216313   1.890   0.635   5.758
 5457TIP3    H116314   1.821   0.698   5.739
 5457TIP3    H216315   1.939   0.675   5.831
 5458TIP3   OH216316   1.079   0.170   1.042
 5458TIP3    H116317   1.113   0.129   1.122
 5458TIP3    H216318   1.117   0.258   1.042
 5459TIP3   OH216319   4.016   7.729   6.337
 5459TIP3    H116320   3.989   7.675   6.262
 5459TIP3    H216321   4.097   7.771   6.308
 5460TIP3   OH216322   4.115   3.731   6.147
 5460TIP3    H116323   4.038   3.678   6.127
 5460TIP3    H216324   4.164   3.679   6.211
 5461TIP3   OH216325   4.189   3.580   6.522
 5461TIP3    H116326   4.219   3.645   6.585
 5461TIP3    H216327   4.268   3.532   6.497
 5462TIP3   OH216328   6.398   0.937   0.086
 5462TIP3    H116329   6.352   0.859   0.117
 5462TIP3    H216330   6.489   0.909   0.076
 5463TIP3   OH216331   6.888   6.428   6.127
 5463TIP3    H116332   6.796   6.421   6.104
 5463TIP3    H216333   6.891   6.484   6.204
 5464TIP3   OH216334   5.859   6.755   1.737
 5464TIP3    H116335   5.849   6.698   1.661
 5464TIP3    H216336   5.954   6.758   1.752
 5465TIP3   OH216337   2.827   3.057   4.791
 5465TIP3    H116338   2.820   3.091   4.880
 5465TIP3    H216339   2.792   3.126   4.736
 5466TIP3   OH216340   4.096   0.567   5.146
 5466TIP3    H116341   4.004   0.593   5.154
 5466TIP3    H216342   4.094   0.488   5.092
 5467TIP3   OH216343   1.767   3.988   2.267
 5467TIP3    H116344   1.687   3.952   2.304
 5467TIP3    H216345   1.818   4.018   2.342
 5468TIP3   OH216346   3.349   3.605   6.426
 5468TIP3    H116347   3.303   3.554   6.493
 5468TIP3    H216348   3.372   3.687   6.470
 5469TIP3   OH216349   2.704   0.293   1.571
 5469TIP3    H116350   2.705   0.207   1.613
 5469TIP3    H216351   2.615   0.302   1.536
 5470TIP3   OH216352   7.057   2.406   6.564
 5470TIP3    H116353   7.074   2.420   6.657
 5470TIP3    H216354   7.094   2.482   6.520
 5471TIP3   OH216355   2.474   4.119   1.142
 5471TIP3    H116356   2.481   4.152   1.231
 5471TIP3    H216357   2.396   4.064   1.142
 5472TIP3   OH216358   4.977   1.111   6.268
 5472TIP3    H116359   4.970   1.078   6.357
 5472TIP3    H216360   4.977   1.032   6.213
 5473TIP3   OH216361   5.604   6.118   4.443
 5473TIP3    H116362   5.694   6.086   4.452
 5473TIP3    H216363   5.601   6.157   4.356
 5474TIP3   OH216364   7.149   7.337   6.279
 5474TIP3    H116365   7.208   7.405   6.309
 5474TIP3    H216366   7.112   7.370   6.197
 5475TIP3   OH216367   8.239   4.640   5.782
 5475TIP3    H116368   8.238   4.714   5.722
 5475TIP3    H216369   8.332   4.624   5.799
 5476TIP3   OH216370   7.955   2.633   2.476
 5476TIP3    H116371   8.045   2.660   2.459
 5476TIP3    H216372   7.933   2.675   2.559
 5477TIP3   OH216373   4.377   6.717   4.411
 5477TIP3    H116374   4.291   6.676   4.422
 5477TIP3    H216375   4.434   6.647   4.380
 5478TIP3   OH216376   1.970   2.732   2.344
 5478TIP3    H116377   1.884   2.729   2.300
 5478TIP3    H216378   1.965   2.808   2.401
 5479TIP3   OH216379   3.517   3.951   1.457
 5479TIP3    H116380   3.486   4.041   1.462
 5479TIP3    H216381   3.610   3.956   1.477
 5480TIP3   OH216382   8.242   1.079   2.143
 5480TIP3    H116383   8.174   1.089   2.076
 5480TIP3    H216384   8.290   1.161   2.142
 5481TIP3   OH216385   5.250   4.655   2.348
 5481TIP3    H116386   5.326   4.659   2.405
 5481TIP3    H216387   5.285   4.627   2.263
 5482TIP3   OH216388   1.879   3.786   0.465
 5482TIP3    H116389   1.864   3.820   0.554
 5482TIP3    H216390   1.969   3.812   0.445
 5483TIP3   OH216391   6.915   4.480   4.308
 5483TIP3    H116392   6.929   4.488   4.402
 5483TIP3    H216393   6.962   4.400   4.284
 5484TIP3   OH216394   6.562   0.161   1.271
 5484TIP3    H116395   6.554   0.252   1.242
 5484TIP3    H216396   6.642   0.130   1.227
 5485TIP3   OH216397   7.317   1.228   1.266
 5485TIP3    H116398   7.340   1.239   1.174
 5485TIP3    H216399   7.332   1.135   1.283
 5486TIP3   OH216400   6.055   2.679   3.581
 5486TIP3    H116401   6.094   2.742   3.520
 5486TIP3    H216402   6.007   2.618   3.525
 5487TIP3   OH216403   1.794   1.139   3.434
 5487TIP3    H116404   1.712   1.172   3.397
 5487TIP3    H216405   1.768   1.061   3.484
 5488TIP3   OH216406   7.277   0.178   5.591
 5488TIP3    H116407   7.249   0.086   5.596
 5488TIP3    H216408   7.202   0.228   5.623
 5489TIP3   OH216409   0.139   4.707   4.652
 5489TIP3    H116410   0.104   4.740   4.569
 5489TIP3    H216411   0.220   4.757   4.666
 5490TIP3   OH216412   4.329   4.174   3.970
 5490TIP3    H116413   4.252   4.130   3.933
 5490TIP3    H216414   4.368   4.221   3.897
 5491TIP3   OH216415   4.121   7.385   4.227
 5491TIP3    H116416   4.168   7.303   4.243
 5491TIP3    H216417   4.147   7.410   4.138
 5492TIP3   OH216418   7.298   6.231   3.368
 5492TIP3    H116419   7.377   6.205   3.416
 5492TIP3    H216420   7.279   6.320   3.400
 5493TIP3   OH216421   1.627   1.876   4.862
 5493TIP3    H116422   1.593   1.958   4.827
 5493TIP3    H216423   1.632   1.818   4.786
 5494TIP3   OH216424   6.307   2.845   2.904
 5494TIP3    H116425   6.361   2.914   2.865
 5494TIP3    H216426   6.218   2.876   2.894
 5495TIP3   OH216427   5.657   3.193   2.546
 5495TIP3    H116428   5.740   3.236   2.523
 5495TIP3    H216429   5.644   3.212   2.639
 5496TIP3   OH216430   0.506   4.917   6.277
 5496TIP3    H116431   0.462   4.931   6.361
 5496TIP3    H216432   0.463   4.839   6.241
 5497TIP3   OH216433   4.925   4.294   4.747
 5497TIP3    H116434   4.830   4.277   4.748
 5497TIP3    H216435   4.965   4.207   4.749
 5498TIP3   OH216436   5.473   2.226   1.901
 5498TIP3    H116437   5.438   2.162   1.840
 5498TIP3    H216438   5.566   2.232   1.879
 5499TIP3   OH216439   1.765   5.777   1.359
 5499TIP3    H116440   1.741   5.714   1.427
 5499TIP3    H216441   1.685   5.786   1.306
 5500TIP3   OH216442   5.394   4.091   5.243
 5500TIP3    H116443   5.375   4.098   5.149
 5500TIP3    H216444   5.484   4.058   5.246
 5501TIP3   OH216445   0.389   2.117   0.379
 5501TIP3    H116446   0.368   2.025   0.367
 5501TIP3    H216447   0.483   2.123   0.359
 5502TIP3   OH216448   7.925   1.602   4.887
 5502TIP3    H116449   7.933   1.645   4.801
 5502TIP3    H216450   7.916   1.509   4.867
 5503TIP3   OH216451   2.822   2.378   3.507
 5503TIP3    H116452   2.846   2.469   3.523
 5503TIP3    H216453   2.899   2.340   3.463
 5504TIP3   OH216454   7.595   6.480   4.263
 5504TIP3    H116455   7.551   6.467   4.347
 5504TIP3    H216456   7.662   6.545   4.281
 5505TIP3   OH216457   4.603   7.008   0.159
 5505TIP3    H116458   4.561   6.933   0.199
 5505TIP3    H216459   4.607   6.987   0.066
 5506TIP3   OH216460   4.873   2.598   3.904
 5506TIP3    H116461   4.917   2.540   3.966
 5506TIP3    H216462   4.943   2.656   3.873
 5507TIP3   OH216463   3.101   6.020   2.925
 5507TIP3    H116464   3.156   5.997   3.000
 5507TIP3    H216465   3.036   6.081   2.960
 5508TIP3   OH216466   5.736   0.050   1.666
 5508TIP3    H116467   5.789   0.128   1.653
 5508TIP3    H216468   5.799  -0.022   1.668
 5509TIP3   OH216469   5.911   2.098   2.973
 5509TIP3    H116470   5.909   2.187   2.936
 5509TIP3    H216471   5.990   2.059   2.936
 5510TIP3   OH216472   1.614   2.302   4.370
 5510TIP3    H116473   1.574   2.379   4.410
 5510TIP3    H216474   1.649   2.334   4.286
 5511TIP3   OH216475   7.974   3.449   3.667
 5511TIP3    H116476   8.058   3.462   3.712
 5511TIP3    H216477   7.922   3.398   3.729
 5512TIP3   OH216478   3.261   0.733   5.083
 5512TIP3    H116479   3.284   0.795   5.152
 5512TIP3    H216480   3.291   0.648   5.116
 5513TIP3   OH216481   0.997   0.946   1.197
 5513TIP3    H116482   0.940   0.869   1.208
 5513TIP3    H216483   1.073   0.927   1.252
 5514TIP3   OH216484   5.062   3.441   0.430
 5514TIP3    H116485   5.009   3.443   0.509
 5514TIP3    H216486   5.010   3.390   0.368
 5515TIP3   OH216487   7.346   7.535   6.089
 5515TIP3    H116488   7.417   7.585   6.049
 5515TIP3    H216489   7.296   7.600   6.139
 5516TIP3   OH216490   6.060   0.693   6.055
 5516TIP3    H116491   6.113   0.620   6.087
 5516TIP3    H216492   6.121   0.746   6.004
 5517TIP3   OH216493   1.289   5.268   3.046
 5517TIP3    H116494   1.205   5.311   3.032
 5517TIP3    H216495   1.285   5.236   3.136
 5518TIP3   OH216496   4.037   6.740   1.487
 5518TIP3    H116497   4.130   6.721   1.498
 5518TIP3    H216498   4.019   6.718   1.395
 5519TIP3   OH216499   6.879   2.820   5.352
 5519TIP3    H116500   6.912   2.884   5.416
 5519TIP3    H216501   6.942   2.748   5.357
 5520TIP3   OH216502   2.640   1.494   3.580
 5520TIP3    H116503   2.628   1.493   3.485
 5520TIP3    H216504   2.683   1.411   3.600
 5521TIP3   OH216505   4.451   7.074   0.966
 5521TIP3    H116506   4.383   7.140   0.948
 5521TIP3    H216507   4.502   7.070   0.885
 5522TIP3   OH216508   6.342   6.388   0.609
 5522TIP3    H116509   6.352   6.298   0.579
 5522TIP3    H216510   6.321   6.380   0.702
 5523TIP3   OH216511   5.016   5.554   2.630
 5523TIP3    H116512   4.935   5.582   2.672
 5523TIP3    H216513   5.085   5.574   2.694
 5524TIP3   OH216514   5.815   3.184   4.384
 5524TIP3    H116515   5.862   3.138   4.315
 5524TIP3    H216516   5.761   3.248   4.337
 5525TIP3   OH216517   7.892   5.286   1.444
 5525TIP3    H116518   7.884   5.309   1.352
 5525TIP3    H216519   7.985   5.296   1.464
 5526TIP3   OH216520   2.478   1.867   5.691
 5526TIP3    H116521   2.414   1.933   5.717
 5526TIP3    H216522   2.438   1.825   5.615
 5527TIP3   OH216523   1.394   4.419   6.464
 5527TIP3    H116524   1.406   4.503   6.421
 5527TIP3    H216525   1.308   4.427   6.507
 5528TIP3   OH216526   2.357   3.826   6.784
 5528TIP3    H116527   2.270   3.805   6.748
 5528TIP3    H216528   2.402   3.742   6.790
 5529TIP3   OH216529   6.018   4.991   5.921
 5529TIP3    H116530   6.078   5.053   5.963
 5529TIP3    H216531   6.075   4.934   5.869
 5530TIP3   OH216532   2.142   2.476   0.787
 5530TIP3    H116533   2.161   2.547   0.727
 5530TIP3    H216534   2.220   2.420   0.783
 5531TIP3   OH216535   6.462   1.901   0.377
 5531TIP3    H116536   6.534   1.841   0.361
 5531TIP3    H216537   6.502   1.974   0.426
 5532TIP3   OH216538   1.597   0.991   4.473
 5532TIP3    H116539   1.596   0.923   4.406
 5532TIP3    H216540   1.690   1.005   4.492
 5533TIP3   OH216541   4.086   3.126   1.981
 5533TIP3    H116542   4.134   3.045   1.964
 5533TIP3    H216543   4.098   3.141   2.075
 5534TIP3   OH216544   7.917   4.195   1.081
 5534TIP3    H116545   7.893   4.113   1.125
 5534TIP3    H216546   7.872   4.263   1.130
 5535TIP3   OH216547   6.941   6.341   1.238
 5535TIP3    H116548   6.997   6.264   1.250
 5535TIP3    H216549   6.852   6.308   1.250
 5536TIP3   OH216550   0.711   0.690   0.080
 5536TIP3    H116551   0.714   0.765   0.022
 5536TIP3    H216552   0.746   0.618   0.028
 5537TIP3   OH216553   5.195   5.429   3.937
 5537TIP3    H116554   5.120   5.402   3.883
 5537TIP3    H216555   5.257   5.356   3.929
 5538TIP3   OH216556   5.611   5.853   0.553
 5538TIP3    H116557   5.562   5.835   0.472
 5538TIP3    H216558   5.703   5.859   0.524
 5539TIP3   OH216559   0.152   5.181   5.918
 5539TIP3    H116560   0.097   5.107   5.893
 5539TIP3    H216561   0.090   5.249   5.944
 5540TIP3   OH216562   5.517   2.461   4.266
 5540TIP3    H116563   5.570   2.446   4.345
 5540TIP3    H216564   5.535   2.551   4.241
 5541TIP3   OH216565   4.193   5.041   6.421
 5541TIP3    H116566   4.175   5.057   6.513
 5541TIP3    H216567   4.162   5.119   6.376
 5542TIP3   OH216568   2.652   1.444   4.081
 5542TIP3    H116569   2.741   1.470   4.055
 5542TIP3    H216570   2.660   1.422   4.174
 5543TIP3   OH216571   4.125   7.809   0.831
 5543TIP3    H116572   4.145   7.818   0.924
 5543TIP3    H216573   4.211   7.793   0.790
 5544TIP3   OH216574   7.435   2.507   0.378
 5544TIP3    H116575   7.344   2.505   0.407
 5544TIP3    H216576   7.448   2.424   0.333
 5545TIP3   OH216577   3.813   7.512   5.697
 5545TIP3    H116578   3.837   7.488   5.608
 5545TIP3    H216579   3.846   7.601   5.707
 5546TIP3   OH216580   4.454   0.487   1.279
 5546TIP3    H116581   4.375   0.532   1.308
 5546TIP3    H216582   4.430   0.451   1.193
 5547TIP3   OH216583   1.753   4.535   6.510
 5547TIP3    H116584   1.818   4.594   6.471
 5547TIP3    H216585   1.790   4.511   6.595
 5548TIP3   OH216586   4.777   2.034   1.362
 5548TIP3    H116587   4.789   2.106   1.299
 5548TIP3    H216588   4.682   2.022   1.367
 5549TIP3   OH216589   7.164   6.357   0.400
 5549TIP3    H116590   7.151   6.276   0.350
 5549TIP3    H216591   7.134   6.427   0.342
 5550TIP3   OH216592   1.581   3.301   6.343
 5550TIP3    H116593   1.518   3.270   6.278
 5550TIP3    H216594   1.637   3.226   6.360
 5551TIP3   OH216595   0.859   1.179   2.093
 5551TIP3    H116596   0.831   1.265   2.062
 5551TIP3    H216597   0.844   1.120   2.020
 5552TIP3   OH216598   2.544   0.688   5.081
 5552TIP3    H116599   2.489   0.626   5.033
 5552TIP3    H216600   2.626   0.690   5.033
 5553TIP3   OH216601   0.029   5.260   2.904
 5553TIP3    H116602   0.118   5.295   2.896
 5553TIP3    H216603   0.006   5.273   2.996
 5554TIP3   OH216604   7.694   2.623   0.318
 5554TIP3    H116605   7.755   2.549   0.326
 5554TIP3    H216606   7.608   2.585   0.334
 5555TIP3   OH216607   2.525   4.319   3.033
 5555TIP3    H116608   2.582   4.268   2.975
 5555TIP3    H216609   2.448   4.264   3.046
 5556TIP3   OH216610   2.456   6.140   6.456
 5556TIP3    H116611   2.400   6.197   6.508
 5556TIP3    H216612   2.480   6.193   6.380
 5557TIP3   OH216613   0.536   0.363   3.986
 5557TIP3    H116614   0.556   0.444   4.033
 5557TIP3    H216615   0.565   0.380   3.896
 5558TIP3   OH216616   0.074   6.469   2.862
 5558TIP3    H116617   0.021   6.537   2.904
 5558TIP3    H216618   0.109   6.510   2.783
 5559TIP3   OH216619   8.196   4.829   3.624
 5559TIP3    H116620   8.219   4.745   3.664
 5559TIP3    H216621   8.218   4.894   3.691
 5560TIP3   OH216622   1.773   0.804   4.314
 5560TIP3    H116623   1.804   0.721   4.278
 5560TIP3    H216624   1.788   0.796   4.408
 5561TIP3   OH216625   6.684   2.716   5.218
 5561TIP3    H116626   6.760   2.748   5.267
 5561TIP3    H216627   6.716   2.639   5.172
 5562TIP3   OH216628   2.201   5.086   3.434
 5562TIP3    H116629   2.125   5.143   3.444
 5562TIP3    H216630   2.255   5.105   3.511
 5563TIP3   OH216631   6.794   5.687   1.395
 5563TIP3    H116632   6.720   5.644   1.437
 5563TIP3    H216633   6.857   5.702   1.465
 5564TIP3   OH216634   4.436   5.375   3.566
 5564TIP3    H116635   4.461   5.310   3.631
 5564TIP3    H216636   4.348   5.348   3.537
 5565TIP3   OH216637   1.530   0.100   0.072
 5565TIP3    H116638   1.443   0.094   0.033
 5565TIP3    H216639   1.514   0.101   0.166
 5566TIP3   OH216640   0.601   2.648   4.114
 5566TIP3    H116641   0.664   2.656   4.185
 5566TIP3    H216642   0.653   2.623   4.038
 5567TIP3   OH216643   4.509   0.322   1.539
 5567TIP3    H116644   4.566   0.280   1.604
 5567TIP3    H216645   4.506   0.414   1.565
 5568TIP3   OH216646   3.114   1.297   2.065
 5568TIP3    H116647   3.179   1.313   2.134
 5568TIP3    H216648   3.112   1.202   2.054
 5569TIP3   OH216649   2.099   4.539   4.017
 5569TIP3    H116650   2.087   4.444   4.011
 5569TIP3    H216651   2.188   4.550   4.052
 5570TIP3   OH216652   7.773   7.117   5.754
 5570TIP3    H116653   7.687   7.139   5.719
 5570TIP3    H216654   7.832   7.184   5.720
 5571TIP3   OH216655   5.737   0.851   6.229
 5571TIP3    H116656   5.657   0.902   6.217
 5571TIP3    H216657   5.793   0.875   6.155
 5572TIP3   OH216658   0.682   1.922   3.767
 5572TIP3    H116659   0.653   1.848   3.820
 5572TIP3    H216660   0.687   1.995   3.828
 5573TIP3   OH216661   6.123   4.640   5.176
 5573TIP3    H116662   6.192   4.700   5.146
 5573TIP3    H216663   6.072   4.692   5.238
 5574TIP3   OH216664   3.378   7.116   1.952
 5574TIP3    H116665   3.307   7.145   1.895
 5574TIP3    H216666   3.353   7.028   1.980
 5575TIP3   OH216667   1.156   0.430   4.793
 5575TIP3    H116668   1.072   0.468   4.766
 5575TIP3    H216669   1.203   0.502   4.835
 5576TIP3   OH216670   4.743   7.217   1.563
 5576TIP3    H116671   4.768   7.220   1.655
 5576TIP3    H216672   4.653   7.249   1.561
 5577TIP3   OH216673   3.409   4.557   2.671
 5577TIP3    H116674   3.431   4.569   2.579
 5577TIP3    H216675   3.485   4.511   2.707
 5578TIP3   OH216676   5.690   3.777   2.183
 5578TIP3    H116677   5.630   3.802   2.253
 5578TIP3    H216678   5.637   3.724   2.123
 5579TIP3   OH216679   2.940   4.296   3.004
 5579TIP3    H116680   2.939   4.314   3.098
 5579TIP3    H216681   3.031   4.275   2.984
 5580TIP3   OH216682   0.986   0.341   2.356
 5580TIP3    H116683   0.941   0.301   2.282
 5580TIP3    H216684   0.966   0.284   2.430
 5581TIP3   OH216685   8.010   3.668   6.365
 5581TIP3    H116686   7.983   3.739   6.307
 5581TIP3    H216687   7.996   3.588   6.315
 5582TIP3   OH216688   1.163   7.123   6.301
 5582TIP3    H116689   1.223   7.050   6.320
 5582TIP3    H216690   1.090   7.082   6.255
 5583TIP3   OH216691   7.444   4.481   5.212
 5583TIP3    H116692   7.455   4.495   5.306
 5583TIP3    H216693   7.414   4.566   5.179
 5584TIP3   OH216694   4.709   1.297   4.934
 5584TIP3    H116695   4.620   1.272   4.962
 5584TIP3    H216696   4.729   1.374   4.988
 5585TIP3   OH216697   1.672   5.610   5.013
 5585TIP3    H116698   1.675   5.699   4.977
 5585TIP3    H216699   1.688   5.554   4.937
 5586TIP3   OH216700   3.597   6.613   4.819
 5586TIP3    H116701   3.510   6.579   4.796
 5586TIP3    H216702   3.579   6.684   4.881
 5587TIP3   OH216703   3.030   4.354   6.056
 5587TIP3    H116704   2.962   4.292   6.083
 5587TIP3    H216705   3.102   4.337   6.117
 5588TIP3   OH216706   2.222   1.618   5.295
 5588TIP3    H116707   2.145   1.598   5.241
 5588TIP3    H216708   2.226   1.548   5.359
 5589TIP3   OH216709   4.726   2.601   4.249
 5589TIP3    H116710   4.704   2.508   4.252
 5589TIP3    H216711   4.822   2.602   4.244
 5590TIP3   OH216712   4.675   0.487   3.248
 5590TIP3    H116713   4.614   0.417   3.226
 5590TIP3    H216714   4.631   0.567   3.220
 5591TIP3   OH216715   0.572   3.247   1.969
 5591TIP3    H116716   0.485   3.216   1.944
 5591TIP3    H216717   0.584   3.217   2.059
 5592TIP3   OH216718   4.629   3.544   1.944
 5592TIP3    H116719   4.718   3.523   1.915
 5592TIP3    H216720   4.622   3.505   2.031
 5593TIP3   OH216721   5.099   6.760   3.640
 5593TIP3    H116722   5.174   6.703   3.654
 5593TIP3    H216723   5.025   6.712   3.677
 5594TIP3   OH216724   6.828   0.359   4.288
 5594TIP3    H116725   6.796   0.305   4.215
 5594TIP3    H216726   6.768   0.434   4.290
 5595TIP3   OH216727   7.780   1.224   2.749
 5595TIP3    H116728   7.868   1.218   2.713
 5595TIP3    H216729   7.774   1.152   2.812
 5596TIP3   OH216730   6.682   6.225   5.367
 5596TIP3    H116731   6.627   6.182   5.302
 5596TIP3    H216732   6.630   6.301   5.396
 5597TIP3   OH216733   0.532   6.021   0.176
 5597TIP3    H116734   0.500   5.948   0.123
 5597TIP3    H216735   0.624   6.031   0.151
 5598TIP3   OH216736   3.312   5.884   3.341
 5598TIP3    H116737   3.267   5.889   3.425
 5598TIP3    H216738   3.324   5.790   3.327
 5599TIP3   OH216739   1.094   1.010   0.578
 5599TIP3    H116740   1.040   1.085   0.551
 5599TIP3    H216741   1.152   1.046   0.645
 5600TIP3   OH216742   3.247   2.491   5.737
 5600TIP3    H116743   3.284   2.562   5.685
 5600TIP3    H216744   3.204   2.434   5.673
 5601TIP3   OH216745   2.464   2.507   2.592
 5601TIP3    H116746   2.383   2.527   2.638
 5601TIP3    H216747   2.473   2.578   2.528
 5602TIP3   OH216748   6.937   3.752   4.193
 5602TIP3    H116749   6.979   3.837   4.186
 5602TIP3    H216750   7.008   3.689   4.183
 5603TIP3   OH216751   1.014   3.654   1.277
 5603TIP3    H116752   1.056   3.630   1.359
 5603TIP3    H216753   1.022   3.576   1.222
 5604TIP3   OH216754   4.737   6.511   0.718
 5604TIP3    H116755   4.806   6.504   0.783
 5604TIP3    H216756   4.746   6.432   0.664
 5605TIP3   OH216757   6.102   0.273   1.903
 5605TIP3    H116758   6.018   0.271   1.856
 5605TIP3    H216759   6.149   0.196   1.872
 5606TIP3   OH216760   6.738   0.041   4.509
 5606TIP3    H116761   6.828   0.039   4.476
 5606TIP3    H216762   6.737   0.114   4.571
 5607TIP3   OH216763   5.215   5.401   1.326
 5607TIP3    H116764   5.307   5.424   1.312
 5607TIP3    H216765   5.214   5.360   1.412
 5608TIP3   OH216766   7.635   2.439   0.024
 5608TIP3    H116767   7.620   2.521   0.070
 5608TIP3    H216768   7.572   2.378   0.064
 5609TIP3   OH216769   1.961   3.068   3.693
 5609TIP3    H116770   1.892   3.055   3.628
 5609TIP3    H216771   1.958   3.162   3.713
 5610TIP3   OH216772   2.038   5.324   6.212
 5610TIP3    H116773   1.968   5.388   6.194
 5610TIP3    H216774   1.991   5.246   6.242
 5611TIP3   OH216775   6.609   7.483   1.834
 5611TIP3    H116776   6.578   7.490   1.924
 5611TIP3    H216777   6.637   7.391   1.825
 5612TIP3   OH216778   0.004   6.083   1.280
 5612TIP3    H116779   0.086   6.133   1.279
 5612TIP3    H216780   0.032   5.993   1.297
 5613TIP3   OH216781   3.870   1.814   6.237
 5613TIP3    H116782   3.816   1.738   6.260
 5613TIP3    H216783   3.960   1.784   6.250
 5614TIP3   OH216784   4.750   7.823   5.751
 5614TIP3    H116785   4.719   7.755   5.691
 5614TIP3    H216786   4.691   7.818   5.826
 5615TIP3   OH216787   4.407   3.182   5.206
 5615TIP3    H116788   4.380   3.181   5.298
 5615TIP3    H216789   4.326   3.163   5.157
 5616TIP3   OH216790   6.392   1.235   0.056
 5616TIP3    H116791   6.305   1.249   0.095
 5616TIP3    H216792   6.410   1.143   0.070
 5617TIP3   OH216793   5.852   0.527   3.503
 5617TIP3    H116794   5.793   0.488   3.568
 5617TIP3    H216795   5.807   0.607   3.476
 5618TIP3   OH216796   1.265   2.721   1.373
 5618TIP3    H116797   1.206   2.663   1.324
 5618TIP3    H216798   1.291   2.669   1.449
 5619TIP3   OH216799   0.670   5.365   2.918
 5619TIP3    H116800   0.696   5.406   2.836
 5619TIP3    H216801   0.639   5.437   2.973
 5620TIP3   OH216802   5.080   2.036   0.653
 5620TIP3    H116803   5.019   2.092   0.605
 5620TIP3    H216804   5.146   2.012   0.588
 5621TIP3   OH216805   2.331   3.003   2.947
 5621TIP3    H116806   2.304   3.073   3.007
 5621TIP3    H216807   2.367   3.048   2.871
 5622TIP3   OH216808   5.346   1.921   3.333
 5622TIP3    H116809   5.303   1.898   3.415
 5622TIP3    H216810   5.286   1.890   3.264
 5623TIP3   OH216811   5.949   1.014   0.053
 5623TIP3    H116812   5.970   1.086   0.112
 5623TIP3    H216813   5.863   0.983   0.083
 5624TIP3   OH216814   4.807   4.616   4.980
 5624TIP3    H116815   4.881   4.561   4.956
 5624TIP3    H216816   4.751   4.615   4.902
 5625TIP3   OH216817   2.743   5.483   0.835
 5625TIP3    H116818   2.832   5.518   0.838
 5625TIP3    H216819   2.754   5.394   0.800
 5626TIP3   OH216820   7.686   7.263   4.432
 5626TIP3    H116821   7.598   7.226   4.433
 5626TIP3    H216822   7.704   7.282   4.524
 5627TIP3   OH216823   7.653   3.851   2.204
 5627TIP3    H116824   7.615   3.790   2.268
 5627TIP3    H216825   7.658   3.802   2.123
 5628TIP3   OH216826   0.365   0.621   1.640
 5628TIP3    H116827   0.301   0.629   1.711
 5628TIP3    H216828   0.362   0.706   1.596
 5629TIP3   OH216829   6.213   6.984   4.992
 5629TIP3    H116830   6.175   6.923   5.056
 5629TIP3    H216831   6.265   7.045   5.045
 5630TIP3   OH216832   0.395   2.938   3.145
 5630TIP3    H116833   0.406   2.847   3.173
 5630TIP3    H216834   0.303   2.957   3.163
 5631TIP3   OH216835   3.374   6.939   6.367
 5631TIP3    H116836   3.340   7.028   6.378
 5631TIP3    H216837   3.428   6.943   6.288
 5632TIP3   OH216838   4.206   1.532   4.952
 5632TIP3    H116839   4.279   1.497   5.004
 5632TIP3    H216840   4.128   1.498   4.995
 5633TIP3   OH216841   0.338   6.609   1.265
 5633TIP3    H116842   0.359   6.535   1.321
 5633TIP3    H216843   0.348   6.575   1.176
 5634TIP3   OH216844   4.734   1.906   0.192
 5634TIP3    H116845   4.683   1.978   0.155
 5634TIP3    H216846   4.824   1.939   0.196
 5635TIP3   OH216847   6.105   6.118   5.576
 5635TIP3    H116848   6.152   6.035   5.587
 5635TIP3    H216849   6.015   6.091   5.557
 5636TIP3   OH216850   4.671   6.344   3.861
 5636TIP3    H116851   4.592   6.379   3.819
 5636TIP3    H216852   4.672   6.251   3.836
 5637TIP3   OH216853   0.640   3.787   1.517
 5637TIP3    H116854   0.580   3.861   1.527
 5637TIP3    H216855   0.674   3.795   1.428
 5638TIP3   OH216856   5.216   4.539   5.922
 5638TIP3    H116857   5.149   4.589   5.876
 5638TIP3    H216858   5.274   4.605   5.960
 5639TIP3   OH216859   7.550   6.135   4.646
 5639TIP3    H116860   7.473   6.092   4.683
 5639TIP3    H216861   7.570   6.085   4.566
 5640TIP3   OH216862   7.563   5.745   1.994
 5640TIP3    H116863   7.595   5.691   1.922
 5640TIP3    H216864   7.605   5.709   2.072
 5641TIP3   OH216865   7.967   2.419   6.409
 5641TIP3    H116866   7.954   2.366   6.488
 5641TIP3    H216867   7.985   2.354   6.340
 5642TIP3   OH216868   3.729   1.438   4.001
 5642TIP3    H116869   3.635   1.453   3.991
 5642TIP3    H216870   3.750   1.474   4.087
 5643TIP3   OH216871   6.464   1.199   1.634
 5643TIP3    H116872   6.439   1.109   1.610
 5643TIP3    H216873   6.556   1.192   1.659
 5644TIP3   OH216874   3.002   5.993   4.980
 5644TIP3    H116875   2.927   6.028   4.932
 5644TIP3    H216876   3.078   6.029   4.934
 5645TIP3   OH216877   7.133   7.579   0.390
 5645TIP3    H116878   7.204   7.568   0.453
 5645TIP3    H216879   7.098   7.490   0.379
 5646TIP3   OH216880   0.119   0.005   5.679
 5646TIP3    H116881   0.154  -0.063   5.737
 5646TIP3    H216882   0.084   0.072   5.738
 5647TIP3   OH216883   5.751   6.043   3.458
 5647TIP3    H116884   5.820   6.072   3.399
 5647TIP3    H216885   5.791   6.045   3.545
 5648TIP3   OH216886   0.403   4.386   2.202
 5648TIP3    H116887   0.408   4.427   2.288
 5648TIP3    H216888   0.470   4.319   2.203
 5649TIP3   OH216889   3.859   4.925   4.245
 5649TIP3    H116890   3.806   4.845   4.248
 5649TIP3    H216891   3.816   4.979   4.178
 5650TIP3   OH216892   6.480   7.357   3.941
 5650TIP3    H116893   6.446   7.285   3.994
 5650TIP3    H216894   6.570   7.332   3.922
 5651TIP3   OH216895   0.332   2.525   3.001
 5651TIP3    H116896   0.272   2.459   2.966
 5651TIP3    H216897   0.321   2.601   2.944
 5652TIP3   OH216898   0.501   3.428   4.704
 5652TIP3    H116899   0.438   3.358   4.686
 5652TIP3    H216900   0.468   3.471   4.783
 5653TIP3   OH216901   2.803   2.353   4.114
 5653TIP3    H116902   2.709   2.363   4.133
 5653TIP3    H216903   2.815   2.258   4.106
 5654TIP3   OH216904   4.091   7.311   1.212
 5654TIP3    H116905   4.060   7.266   1.291
 5654TIP3    H216906   4.164   7.258   1.181
 5655TIP3   OH216907   4.933   6.997   5.897
 5655TIP3    H116908   4.877   6.968   5.825
 5655TIP3    H216909   4.906   6.943   5.971
 5656TIP3   OH216910   0.634   1.406   1.358
 5656TIP3    H116911   0.620   1.497   1.333
 5656TIP3    H216912   0.728   1.399   1.373
 5657TIP3   OH216913   1.961   4.955   2.236
 5657TIP3    H116914   2.011   5.010   2.297
 5657TIP3    H216915   2.005   4.870   2.240
 5658TIP3   OH216916   6.564   2.712   4.251
 5658TIP3    H116917   6.573   2.637   4.309
 5658TIP3    H216918   6.635   2.702   4.187
 5659TIP3   OH216919   7.986   7.661   6.282
 5659TIP3    H116920   8.041   7.657   6.204
 5659TIP3    H216921   7.967   7.569   6.303
 5660TIP3   OH216922   3.332   4.691   3.417
 5660TIP3    H116923   3.256   4.692   3.358
 5660TIP3    H216924   3.318   4.614   3.472
 5661TIP3   OH216925   2.497   2.073   1.378
 5661TIP3    H116926   2.525   2.138   1.313
 5661TIP3    H216927   2.449   2.123   1.444
 5662TIP3   OH216928   5.358   6.828   3.194
 5662TIP3    H116929   5.323   6.741   3.177
 5662TIP3    H216930   5.400   6.820   3.280
 5663TIP3   OH216931   7.279   5.295   6.108
 5663TIP3    H116932   7.293   5.356   6.035
 5663TIP3    H216933   7.323   5.337   6.182
 5664TIP3   OH216934   0.896   2.786   1.071
 5664TIP3    H116935   0.946   2.851   1.120
 5664TIP3    H216936   0.960   2.746   1.012
 5665TIP3   OH216937   1.733   7.526   2.123
 5665TIP3    H116938   1.759   7.495   2.210
 5665TIP3    H216939   1.706   7.617   2.137
 5666TIP3   OH216940   8.179   1.251   2.855
 5666TIP3    H116941   8.107   1.270   2.914
 5666TIP3    H216942   8.231   1.185   2.900
 5667TIP3   OH216943   3.788   1.462   5.749
 5667TIP3    H116944   3.721   1.510   5.797
 5667TIP3    H216945   3.825   1.526   5.688
 5668TIP3   OH216946   2.015   7.340   5.068
 5668TIP3    H116947   2.094   7.384   5.100
 5668TIP3    H216948   2.035   7.319   4.977
 5669TIP3   OH216949   6.192   4.034   2.448
 5669TIP3    H116950   6.163   4.005   2.361
 5669TIP3    H216951   6.230   3.955   2.487
 5670TIP3   OH216952   0.884   1.406   6.266
 5670TIP3    H116953   0.865   1.472   6.200
 5670TIP3    H216954   0.831   1.330   6.239
 5671TIP3   OH216955   6.468   0.240   0.934
 5671TIP3    H116956   6.443   0.279   1.018
 5671TIP3    H216957   6.562   0.256   0.927
 5672TIP3   OH216958   1.606   2.220   6.643
 5672TIP3    H116959   1.609   2.246   6.550
 5672TIP3    H216960   1.518   2.184   6.655
 5673TIP3   OH216961   7.605   1.534   3.239
 5673TIP3    H116962   7.661   1.462   3.209
 5673TIP3    H216963   7.628   1.545   3.331
 5674TIP3   OH216964   7.741   4.304   2.284
 5674TIP3    H116965   7.789   4.222   2.295
 5674TIP3    H216966   7.667   4.282   2.228
 5675TIP3   OH216967   5.828   3.508   0.761
 5675TIP3    H116968   5.902   3.468   0.716
 5675TIP3    H216969   5.865   3.540   0.844
 5676TIP3   OH216970   1.109   2.174   1.895
 5676TIP3    H116971   1.094   2.099   1.837
 5676TIP3    H216972   1.201   2.195   1.883
 5677TIP3   OH216973   8.329   3.960   3.669
 5677TIP3    H116974   8.270   4.005   3.609
 5677TIP3    H216975   8.271   3.922   3.735
 5678TIP3   OH216976   0.351   5.832   1.365
 5678TIP3    H116977   0.372   5.790   1.282
 5678TIP3    H216978   0.435   5.842   1.410
 5679TIP3   OH216979   7.302   2.672   2.188
 5679TIP3    H116980   7.352   2.647   2.111
 5679TIP3    H216981   7.312   2.767   2.193
 5680TIP3   OH216982   7.781   5.715   0.881
 5680TIP3    H116983   7.783   5.800   0.838
 5680TIP3    H216984   7.842   5.661   0.830
 5681TIP3   OH216985   5.776   4.790   0.918
 5681TIP3    H116986   5.848   4.731   0.943
 5681TIP3    H216987   5.779   4.860   0.983
 5682TIP3   OH216988   4.117   1.544   1.248
 5682TIP3    H116989   4.102   1.450   1.242
 5682TIP3    H216990   4.163   1.565   1.166
 5683TIP3   OH216991   2.819   1.345   2.339
 5683TIP3    H116992   2.756   1.278   2.313
 5683TIP3    H216993   2.852   1.317   2.424
 5684TIP3   OH216994   5.891   5.784   4.519
 5684TIP3    H116995   5.862   5.841   4.590
 5684TIP3    H216996   5.968   5.828   4.483
 5685TIP3   OH216997   1.047   0.195   4.432
 5685TIP3    H116998   1.136   0.192   4.467
 5685TIP3    H216999   1.038   0.113   4.383
 5686TIP3   OH217000   2.567   0.719   2.508
 5686TIP3    H117001   2.562   0.626   2.487
 5686TIP3    H217002   2.650   0.728   2.556
 5687TIP3   OH217003   5.122   0.793   4.922
 5687TIP3    H117004   5.073   0.839   4.990
 5687TIP3    H217005   5.147   0.710   4.962
 5688TIP3   OH217006   0.095   6.079   2.142
 5688TIP3    H117007   0.123   6.073   2.050
 5688TIP3    H217008   0.177   6.088   2.191
 5689TIP3   OH217009   2.323   3.584   0.816
 5689TIP3    H117010   2.284   3.671   0.821
 5689TIP3    H217011   2.355   3.567   0.905
 5690TIP3   OH217012   3.817   3.738   0.560
 5690TIP3    H117013   3.846   3.692   0.639
 5690TIP3    H217014   3.864   3.822   0.563
 5691TIP3   OH217015   4.328   1.225   2.605
 5691TIP3    H117016   4.238   1.221   2.638
 5691TIP3    H217017   4.322   1.192   2.515
 5692TIP3   OH217018   5.465   4.040   0.926
 5692TIP3    H117019   5.407   4.099   0.974
 5692TIP3    H217020   5.430   3.953   0.944
 5693TIP3   OH217021   6.674   0.139   1.701
 5693TIP3    H117022   6.766   0.129   1.676
 5693TIP3    H217023   6.674   0.125   1.796
 5694TIP3   OH217024   6.656   4.820   4.452
 5694TIP3    H117025   6.641   4.914   4.441
 5694TIP3    H217026   6.660   4.785   4.363
 5695TIP3   OH217027   4.652   5.272   3.851
 5695TIP3    H117028   4.564   5.235   3.847
 5695TIP3    H217029   4.638   5.366   3.858
 5696TIP3   OH217030   4.112   5.581   6.627
 5696TIP3    H117031   4.177   5.562   6.559
 5696TIP3    H217032   4.097   5.675   6.619
 5697TIP3   OH217033   4.580   5.891   1.662
 5697TIP3    H117034   4.615   5.916   1.577
 5697TIP3    H217035   4.492   5.928   1.665
 5698TIP3   OH217036   4.337   0.739   3.780
 5698TIP3    H117037   4.310   0.806   3.717
 5698TIP3    H217038   4.259   0.685   3.791
 5699TIP3   OH217039   3.803   4.076   2.173
 5699TIP3    H117040   3.764   4.025   2.245
 5699TIP3    H217041   3.768   4.036   2.094
 5700TIP3   OH217042   4.545   5.126   3.224
 5700TIP3    H117043   4.624   5.111   3.275
 5700TIP3    H217044   4.575   5.170   3.145
 5701TIP3   OH217045   5.592   6.684   3.948
 5701TIP3    H117046   5.683   6.680   3.917
 5701TIP3    H217047   5.545   6.628   3.887
 5702TIP3   OH217048   5.130   2.981   1.702
 5702TIP3    H117049   5.097   3.051   1.758
 5702TIP3    H217050   5.164   3.027   1.625
 5703TIP3   OH217051   3.771   0.293   2.118
 5703TIP3    H117052   3.805   0.322   2.034
 5703TIP3    H217053   3.846   0.293   2.177
 5704TIP3   OH217054   6.904   4.294   1.169
 5704TIP3    H117055   6.960   4.356   1.215
 5704TIP3    H217056   6.849   4.256   1.239
 5705TIP3   OH217057   6.223   5.748   1.951
 5705TIP3    H117058   6.273   5.804   2.012
 5705TIP3    H217059   6.146   5.722   2.001
 5706TIP3   OH217060   0.083   4.865   4.927
 5706TIP3    H117061   0.167   4.885   4.966
 5706TIP3    H217062   0.104   4.832   4.839
 5707TIP3   OH217063   8.187   4.106   3.450
 5707TIP3    H117064   8.220   4.036   3.393
 5707TIP3    H217065   8.094   4.111   3.430
 5708TIP3   OH217066   4.289   1.578   0.660
 5708TIP3    H117067   4.298   1.623   0.576
 5708TIP3    H217068   4.378   1.574   0.695
 5709TIP3   OH217069   3.714   2.816   3.712
 5709TIP3    H117070   3.664   2.736   3.702
 5709TIP3    H217071   3.752   2.810   3.800
 5710TIP3   OH217072   0.367   7.266   6.043
 5710TIP3    H117073   0.372   7.352   6.085
 5710TIP3    H217074   0.274   7.255   6.022
 5711TIP3   OH217075   5.530   7.651   4.811
 5711TIP3    H117076   5.564   7.659   4.900
 5711TIP3    H217077   5.441   7.685   4.816
 5712TIP3   OH217078   4.651   1.758   0.833
 5712TIP3    H117079   4.724   1.803   0.792
 5712TIP3    H217080   4.579   1.765   0.770
 5713TIP3   OH217081   7.390   1.882   1.972
 5713TIP3    H117082   7.377   1.866   1.879
 5713TIP3    H217083   7.325   1.828   2.016
 5714TIP3   OH217084   4.794   3.509   4.849
 5714TIP3    H117085   4.719   3.568   4.845
 5714TIP3    H217086   4.851   3.548   4.915
 5715TIP3   OH217087   6.410   2.121   1.635
 5715TIP3    H117088   6.357   2.199   1.618
 5715TIP3    H217089   6.492   2.138   1.589
 5716TIP3   OH217090   1.915   3.381   3.792
 5716TIP3    H117091   1.831   3.422   3.816
 5716TIP3    H217092   1.933   3.320   3.864
 5717TIP3   OH217093   2.800   7.748   4.165
 5717TIP3    H117094   2.708   7.767   4.184
 5717TIP3    H217095   2.842   7.741   4.251
 5718TIP3   OH217096   3.480   4.035   0.011
 5718TIP3    H117097   3.437   4.016  -0.072
 5718TIP3    H217098   3.538   3.960   0.025
 5719TIP3   OH217099   1.462   5.123   5.455
 5719TIP3    H117100   1.548   5.112   5.494
 5719TIP3    H217101   1.460   5.215   5.427
 5720TIP3   OH217102   6.658   7.651   1.620
 5720TIP3    H117103   6.617   7.591   1.682
 5720TIP3    H217104   6.716   7.597   1.568
 5721TIP3   OH217105   6.150   0.729   0.595
 5721TIP3    H117106   6.213   0.674   0.641
 5721TIP3    H217107   6.072   0.674   0.585
 5722TIP3   OH217108   2.759   6.015   4.865
 5722TIP3    H117109   2.698   6.088   4.861
 5722TIP3    H217110   2.720   5.955   4.929
 5723TIP3   OH217111   3.118   1.056   1.884
 5723TIP3    H117112   3.170   1.129   1.850
 5723TIP3    H217113   3.069   1.024   1.808
 5724TIP3   OH217114   1.875   5.767   5.955
 5724TIP3    H117115   1.813   5.694   5.953
 5724TIP3    H217116   1.961   5.726   5.945
 5725TIP3   OH217117   3.233   6.583   6.251
 5725TIP3    H117118   3.318   6.546   6.273
 5725TIP3    H217119   3.211   6.640   6.325
 5726TIP3   OH217120   7.164   3.281   5.704
 5726TIP3    H117121   7.154   3.367   5.743
 5726TIP3    H217122   7.082   3.267   5.655
 5727TIP3   OH217123   2.966   0.069   5.506
 5727TIP3    H117124   3.053   0.064   5.467
 5727TIP3    H217125   2.907   0.080   5.432
 5728TIP3   OH217126   2.729   3.023   1.114
 5728TIP3    H117127   2.747   3.089   1.181
 5728TIP3    H217128   2.643   2.988   1.138
 5729TIP3   OH217129   2.944   0.310   0.564
 5729TIP3    H117130   2.923   0.350   0.649
 5729TIP3    H217131   2.949   0.216   0.583
 5730TIP3   OH217132   7.594   5.365   6.765
 5730TIP3    H117133   7.665   5.369   6.829
 5730TIP3    H217134   7.517   5.397   6.813
 5731TIP3   OH217135   6.327   6.459   6.182
 5731TIP3    H117136   6.298   6.390   6.241
 5731TIP3    H217137   6.294   6.433   6.096
 5732TIP3   OH217138   5.046   2.881   1.947
 5732TIP3    H117139   5.021   2.807   1.893
 5732TIP3    H217140   5.025   2.958   1.894
 5733TIP3   OH217141   7.373   2.997   3.639
 5733TIP3    H117142   7.412   2.915   3.608
 5733TIP3    H217143   7.444   3.060   3.637
 5734TIP3   OH217144   7.404   2.200   5.054
 5734TIP3    H117145   7.447   2.125   5.011
 5734TIP3    H217146   7.406   2.269   4.988
 5735TIP3   OH217147   7.219   2.557   4.161
 5735TIP3    H117148   7.234   2.599   4.077
 5735TIP3    H217149   7.302   2.569   4.208
 5736TIP3   OH217150   5.395   2.170   2.154
 5736TIP3    H117151   5.443   2.141   2.077
 5736TIP3    H217152   5.423   2.261   2.167
 5737TIP3   OH217153   2.912   7.157   2.660
 5737TIP3    H117154   2.929   7.233   2.716
 5737TIP3    H217155   2.995   7.142   2.614
 5738TIP3   OH217156   5.452   1.783   0.972
 5738TIP3    H117157   5.425   1.813   0.885
 5738TIP3    H217158   5.440   1.688   0.968
 5739TIP3   OH217159   7.907   4.124   5.041
 5739TIP3    H117160   7.983   4.103   5.096
 5739TIP3    H217161   7.851   4.046   5.048
 5740TIP3   OH217162   2.322   2.413   4.079
 5740TIP3    H117163   2.247   2.442   4.027
 5740TIP3    H217164   2.292   2.419   4.170
 5741TIP3   OH217165   1.898   3.118   1.668
 5741TIP3    H117166   1.977   3.137   1.618
 5741TIP3    H217167   1.847   3.199   1.665
 5742TIP3   OH217168   2.011   1.086   3.646
 5742TIP3    H117169   1.942   1.080   3.581
 5742TIP3    H217170   1.994   1.013   3.706
 5743TIP3   OH217171   5.565   2.095   2.362
 5743TIP3    H117172   5.518   2.059   2.438
 5743TIP3    H217173   5.499   2.101   2.293
 5744TIP3   OH217174   8.051   3.393   2.197
 5744TIP3    H117175   8.043   3.332   2.124
 5744TIP3    H217176   8.111   3.351   2.258
 5745TIP3   OH217177   0.537   4.137   1.582
 5745TIP3    H117178   0.602   4.144   1.652
 5745TIP3    H217179   0.453   4.128   1.628
 5746TIP3   OH217180   6.003   3.450   6.159
 5746TIP3    H117181   5.953   3.404   6.227
 5746TIP3    H217182   5.977   3.542   6.169
 5747TIP3   OH217183   0.177   2.048   0.172
 5747TIP3    H117184   0.213   1.974   0.221
 5747TIP3    H217185   0.254   2.099   0.147
 5748TIP3   OH217186   2.778   0.781   3.738
 5748TIP3    H117187   2.812   0.732   3.663
 5748TIP3    H217188   2.847   0.844   3.758
 5749TIP3   OH217189   0.216   4.014   1.988
 5749TIP3    H117190   0.175   3.979   2.067
 5749TIP3    H217191   0.279   3.947   1.962
 5750TIP3   OH217192   5.917   2.196   3.907
 5750TIP3    H117193   5.844   2.139   3.884
 5750TIP3    H217194   5.884   2.285   3.891
 5751TIP3   OH217195   7.960   2.075   4.788
 5751TIP3    H117196   7.923   2.021   4.858
 5751TIP3    H217197   8.032   2.122   4.830
 5752TIP3   OH217198   3.761   5.311   0.020
 5752TIP3    H117199   3.730   5.364   0.094
 5752TIP3    H217200   3.689   5.250   0.003
 5753TIP3   OH217201   2.483   5.884   2.031
 5753TIP3    H117202   2.473   5.837   1.949
 5753TIP3    H217203   2.554   5.838   2.077
 5754TIP3   OH217204   1.422   0.874   2.083
 5754TIP3    H117205   1.415   0.803   2.019
 5754TIP3    H217206   1.443   0.951   2.031
 5755TIP3   OH217207   4.190   7.133   1.005
 5755TIP3    H117208   4.163   7.079   0.930
 5755TIP3    H217209   4.240   7.073   1.060
 5756TIP3   OH217210   3.474   1.157   4.739
 5756TIP3    H117211   3.472   1.188   4.648
 5756TIP3    H217212   3.494   1.234   4.791
 5757TIP3   OH217213   5.700   5.729   1.930
 5757TIP3    H117214   5.659   5.741   1.844
 5757TIP3    H217215   5.770   5.666   1.915
 5758TIP3   OH217216   3.100   6.676   1.838
 5758TIP3    H117217   3.181   6.627   1.819
 5758TIP3    H217218   3.130   6.763   1.862
 5759TIP3   OH217219   6.965   3.131   1.879
 5759TIP3    H117220   7.057   3.138   1.855
 5759TIP3    H217221   6.966   3.109   1.972
 5760TIP3   OH217222   1.517   3.560   6.398
 5760TIP3    H117223   1.534   3.467   6.387
 5760TIP3    H217224   1.428   3.565   6.433
 5761TIP3   OH217225   5.961   5.507   4.670
 5761TIP3    H117226   5.930   5.434   4.723
 5761TIP3    H217227   5.936   5.585   4.720
 5762TIP3   OH217228   5.608   1.785   1.193
 5762TIP3    H117229   5.612   1.698   1.231
 5762TIP3    H217230   5.559   1.774   1.111
 5763TIP3   OH217231   2.257   5.315   1.856
 5763TIP3    H117232   2.349   5.321   1.831
 5763TIP3    H217233   2.253   5.241   1.916
 5764TIP3   OH217234   3.635   1.883   2.707
 5764TIP3    H117235   3.722   1.858   2.738
 5764TIP3    H217236   3.638   1.978   2.698
 5765TIP3   OH217237   4.725   5.834   1.165
 5765TIP3    H117238   4.693   5.867   1.081
 5765TIP3    H217239   4.791   5.770   1.141
 5766TIP3   OH217240   6.420   3.234   2.458
 5766TIP3    H117241   6.474   3.312   2.450
 5766TIP3    H217242   6.331   3.263   2.437
 5767TIP3   OH217243   7.687   5.671   5.426
 5767TIP3    H117244   7.655   5.724   5.499
 5767TIP3    H217245   7.652   5.584   5.442
 5768TIP3   OH217246   2.705   6.386   0.359
 5768TIP3    H117247   2.628   6.402   0.412
 5768TIP3    H217248   2.768   6.453   0.387
 5769TIP3   OH217249   7.505   1.672   5.206
 5769TIP3    H117250   7.476   1.708   5.123
 5769TIP3    H217251   7.562   1.740   5.242
 5770TIP3   OH217252   7.098   2.578   5.658
 5770TIP3    H117253   7.129   2.666   5.638
 5770TIP3    H217254   7.095   2.575   5.753
 5771TIP3   OH217255   0.722   4.486   3.229
 5771TIP3    H117256   0.682   4.452   3.309
 5771TIP3    H217257   0.782   4.555   3.258
 5772TIP3   OH217258   1.761   2.906   4.807
 5772TIP3    H117259   1.833   2.966   4.827
 5772TIP3    H217260   1.803   2.820   4.800
 5773TIP3   OH217261   7.329   3.069   0.010
 5773TIP3    H117262   7.323   3.165   0.018
 5773TIP3    H217263   7.353   3.039   0.097
 5774TIP3   OH217264   2.905   7.028   1.578
 5774TIP3    H117265   2.954   6.954   1.614
 5774TIP3    H217266   2.960   7.062   1.508
 5775TIP3   OH217267   1.915   2.036   0.338
 5775TIP3    H117268   1.997   2.029   0.289
 5775TIP3    H217269   1.873   1.952   0.325
 5776TIP3   OH217270   7.650   6.612   4.707
 5776TIP3    H117271   7.609   6.585   4.626
 5776TIP3    H217272   7.743   6.592   4.695
 5777TIP3   OH217273   4.664   6.949   3.836
 5777TIP3    H117274   4.612   6.965   3.915
 5777TIP3    H217275   4.623   6.873   3.795
 5778TIP3   OH217276   6.623   2.249   4.740
 5778TIP3    H117277   6.531   2.274   4.732
 5778TIP3    H217278   6.633   2.225   4.832
 5779TIP3   OH217279   2.291   7.429   6.605
 5779TIP3    H117280   2.379   7.416   6.640
 5779TIP3    H217281   2.297   7.399   6.514
 5780TIP3   OH217282   4.965   1.229   4.903
 5780TIP3    H117283   4.874   1.241   4.929
 5780TIP3    H217284   4.992   1.315   4.870
 5781TIP3   OH217285   6.428   2.360   0.708
 5781TIP3    H117286   6.477   2.278   0.707
 5781TIP3    H217287   6.465   2.412   0.637
 5782TIP3   OH217288   0.703   2.280   4.376
 5782TIP3    H117289   0.738   2.286   4.287
 5782TIP3    H217290   0.636   2.348   4.380
 5783TIP3   OH217291   1.632   2.609   3.480
 5783TIP3    H117292   1.678   2.559   3.413
 5783TIP3    H217293   1.639   2.555   3.559
 5784TIP3   OH217294   7.374   7.615   2.496
 5784TIP3    H117295   7.404   7.586   2.409
 5784TIP3    H217296   7.292   7.662   2.479
 5785TIP3   OH217297   3.601   3.639   1.926
 5785TIP3    H117298   3.511   3.631   1.892
 5785TIP3    H217299   3.651   3.677   1.853
 5786TIP3   OH217300   6.581   3.801   5.936
 5786TIP3    H117301   6.579   3.896   5.944
 5786TIP3    H217302   6.597   3.784   5.843
 5787TIP3   OH217303   4.548  -0.018   5.827
 5787TIP3    H117304   4.571  -0.105   5.860
 5787TIP3    H217305   4.574  -0.020   5.735
 5788TIP3   OH217306   0.954   2.291   6.213
 5788TIP3    H117307   0.860   2.304   6.204
 5788TIP3    H217308   0.990   2.380   6.213
 5789TIP3   OH217309   4.039   7.759   3.639
 5789TIP3    H117310   3.977   7.711   3.583
 5789TIP3    H217311   4.115   7.774   3.582
 5790TIP3   OH217312   4.585   5.697   2.656
 5790TIP3    H117313   4.605   5.663   2.569
 5790TIP3    H217314   4.490   5.693   2.662
 5791TIP3   OH217315   1.823   4.907   5.318
 5791TIP3    H117316   1.762   4.849   5.272
 5791TIP3    H217317   1.852   4.969   5.251
 5792TIP3   OH217318   8.292   4.161   4.798
 5792TIP3    H117319   8.295   4.155   4.893
 5792TIP3    H217320   8.384   4.157   4.771
 5793TIP3   OH217321   6.565   7.299   5.054
 5793TIP3    H117322   6.635   7.325   4.994
 5793TIP3    H217323   6.513   7.378   5.066
 5794TIP3   OH217324   0.413   3.900   1.292
 5794TIP3    H117325   0.327   3.926   1.325
 5794TIP3    H217326   0.417   3.805   1.306
 5795TIP3   OH217327   4.545   1.615   1.256
 5795TIP3    H117328   4.488   1.539   1.257
 5795TIP3    H217329   4.523   1.661   1.175
 5796TIP3   OH217330   2.664   0.750   3.253
 5796TIP3    H117331   2.628   0.753   3.342
 5796TIP3    H217332   2.630   0.829   3.211
 5797TIP3   OH217333   7.734   1.886   6.329
 5797TIP3    H117334   7.650   1.884   6.374
 5797TIP3    H217335   7.712   1.902   6.237
 5798TIP3   OH217336   5.427   3.878   0.121
 5798TIP3    H117337   5.403   3.956   0.071
 5798TIP3    H217338   5.468   3.913   0.200
 5799TIP3   OH217339   5.743   4.774   6.120
 5799TIP3    H117340   5.684   4.714   6.166
 5799TIP3    H217341   5.700   4.789   6.036
 5800TIP3   OH217342   2.635   6.605   2.603
 5800TIP3    H117343   2.677   6.679   2.558
 5800TIP3    H217344   2.651   6.621   2.696
 5801TIP3   OH217345   7.655   7.275   2.791
 5801TIP3    H117346   7.732   7.304   2.840
 5801TIP3    H217347   7.634   7.348   2.733
 5802TIP3   OH217348   4.462   6.326   0.106
 5802TIP3    H117349   4.377   6.353   0.141
 5802TIP3    H217350   4.446   6.239   0.070
 5803TIP3   OH217351   7.885   7.166   4.904
 5803TIP3    H117352   7.980   7.156   4.908
 5803TIP3    H217353   7.851   7.083   4.938
 5804TIP3   OH217354   5.867   5.966   5.561
 5804TIP3    H117355   5.788   5.995   5.606
 5804TIP3    H217356   5.871   5.872   5.578
 5805TIP3   OH217357   7.563   0.748   1.735
 5805TIP3    H117358   7.530   0.834   1.710
 5805TIP3    H217359   7.544   0.742   1.829
 5806TIP3   OH217360   4.751   6.780   4.521
 5806TIP3    H117361   4.793   6.714   4.466
 5806TIP3    H217362   4.681   6.733   4.567
 5807TIP3   OH217363   1.591   3.394   6.042
 5807TIP3    H117364   1.615   3.362   6.129
 5807TIP3    H217365   1.631   3.332   5.982
 5808TIP3   OH217366   4.832   3.916   5.145
 5808TIP3    H117367   4.792   3.934   5.060
 5808TIP3    H217368   4.920   3.885   5.124
 5809TIP3   OH217369   1.743   1.759  -0.025
 5809TIP3    H117370   1.838   1.746  -0.019
 5809TIP3    H217371   1.706   1.673  -0.001
 5810TIP3   OH217372   3.511   7.351   1.746
 5810TIP3    H117373   3.587   7.296   1.722
 5810TIP3    H217374   3.503   7.340   1.841
 5811TIP3   OH217375   6.290   2.930   5.612
 5811TIP3    H117376   6.315   3.022   5.627
 5811TIP3    H217377   6.310   2.886   5.694
 5812TIP3   OH217378   1.947   1.245   5.018
 5812TIP3    H117379   2.027   1.275   5.062
 5812TIP3    H217380   1.920   1.319   4.964
 5813TIP3   OH217381   2.159   3.624   1.904
 5813TIP3    H117382   2.200   3.710   1.907
 5813TIP3    H217383   2.171   3.595   1.813
 5814TIP3   OH217384   5.920   5.667   1.073
 5814TIP3    H117385   5.915   5.747   1.126
 5814TIP3    H217386   5.834   5.626   1.084
 5815TIP3   OH217387   6.066   4.605   0.305
 5815TIP3    H117388   6.053   4.556   0.224
 5815TIP3    H217389   6.152   4.577   0.337
 5816TIP3   OH217390   0.753   2.918   1.956
 5816TIP3    H117391   0.708   2.901   2.039
 5816TIP3    H217392   0.792   2.835   1.932
 5817TIP3   OH217393   6.127   4.371   4.658
 5817TIP3    H117394   6.122   4.355   4.752
 5817TIP3    H217395   6.038   4.354   4.626
 5818TIP3   OH217396   2.263   4.004   0.826
 5818TIP3    H117397   2.350   4.043   0.840
 5818TIP3    H217398   2.264   3.924   0.878
 5819TIP3   OH217399   1.685   4.032   4.250
 5819TIP3    H117400   1.623   4.004   4.318
 5819TIP3    H217401   1.631   4.045   4.172
 5820TIP3   OH217402   4.188   2.823   1.151
 5820TIP3    H117403   4.130   2.809   1.076
 5820TIP3    H217404   4.234   2.905   1.130
 5821TIP3   OH217405   5.273   2.447   4.951
 5821TIP3    H117406   5.358   2.406   4.935
 5821TIP3    H217407   5.244   2.479   4.866
 5822TIP3   OH217408   6.022   3.665   5.578
 5822TIP3    H117409   6.076   3.635   5.652
 5822TIP3    H217410   5.933   3.666   5.612
 5823TIP3   OH217411   3.884   0.773   0.529
 5823TIP3    H117412   3.888   0.744   0.437
 5823TIP3    H217413   3.948   0.718   0.574
 5824TIP3   OH217414   0.771   5.456   6.536
 5824TIP3    H117415   0.840   5.436   6.473
 5824TIP3    H217416   0.791   5.544   6.566
 5825TIP3   OH217417   8.128   5.424   6.347
 5825TIP3    H117418   8.201   5.366   6.324
 5825TIP3    H217419   8.089   5.383   6.425
 5826TIP3   OH217420   0.165   1.537   0.979
 5826TIP3    H117421   0.139   1.590   0.903
 5826TIP3    H217422   0.187   1.601   1.046
 5827TIP3   OH217423   5.888   2.989   1.435
 5827TIP3    H117424   5.838   2.935   1.374
 5827TIP3    H217425   5.821   3.037   1.484
 5828TIP3   OH217426   1.859   1.041   4.515
 5828TIP3    H117427   1.880   1.119   4.463
 5828TIP3    H217428   1.876   1.068   4.605
 5829TIP3   OH217429   4.083   4.173   3.208
 5829TIP3    H117430   4.147   4.163   3.138
 5829TIP3    H217431   4.001   4.195   3.163
 5830TIP3   OH217432   7.144   5.563   3.926
 5830TIP3    H117433   7.098   5.639   3.890
 5830TIP3    H217434   7.095   5.488   3.892
 5831TIP3   OH217435   7.245   4.780   6.552
 5831TIP3    H117436   7.224   4.701   6.503
 5831TIP3    H217437   7.223   4.758   6.643
 5832TIP3   OH217438   1.561   5.886   4.174
 5832TIP3    H117439   1.649   5.915   4.197
 5832TIP3    H217440   1.559   5.887   4.078
 5833TIP3   OH217441   4.107   5.888   4.872
 5833TIP3    H117442   4.027   5.909   4.824
 5833TIP3    H217443   4.146   5.816   4.822
 5834TIP3   OH217444   5.599   4.525   6.093
 5834TIP3    H117445   5.564   4.440   6.119
 5834TIP3    H217446   5.624   4.513   6.001
 5835TIP3   OH217447   7.169   6.021   3.948
 5835TIP3    H117448   7.212   6.084   3.890
 5835TIP3    H217449   7.104   6.074   3.996
 5836TIP3   OH217450   6.598   4.771   3.915
 5836TIP3    H117451   6.685   4.752   3.879
 5836TIP3    H217452   6.550   4.688   3.905
 5837TIP3   OH217453   3.433   2.467   4.127
 5837TIP3    H117454   3.498   2.513   4.180
 5837TIP3    H217455   3.378   2.537   4.091
 5838TIP3   OH217456   3.171   2.023   3.733
 5838TIP3    H117457   3.188   1.957   3.801
 5838TIP3    H217458   3.256   2.065   3.719
 5839TIP3   OH217459   4.921   5.830   0.878
 5839TIP3    H117460   4.949   5.797   0.792
 5839TIP3    H217461   4.890   5.919   0.860
 5840TIP3   OH217462   7.738   6.363   3.891
 5840TIP3    H117463   7.740   6.327   3.980
 5840TIP3    H217464   7.702   6.293   3.838
 5841TIP3   OH217465   6.328   1.439   3.532
 5841TIP3    H117466   6.286   1.516   3.493
 5841TIP3    H217467   6.272   1.366   3.507
 5842TIP3   OH217468   5.155   2.935   0.105
 5842TIP3    H117469   5.243   2.938   0.067
 5842TIP3    H217470   5.098   2.910   0.033
 5843TIP3   OH217471   1.702   4.376   0.623
 5843TIP3    H117472   1.697   4.471   0.640
 5843TIP3    H217473   1.614   4.344   0.644
 5844TIP3   OH217474   7.203   6.045   1.995
 5844TIP3    H117475   7.215   5.995   2.075
 5844TIP3    H217476   7.276   6.019   1.939
 5845TIP3   OH217477   3.047   7.289   3.528
 5845TIP3    H117478   3.079   7.377   3.507
 5845TIP3    H217479   3.070   7.236   3.452
 5846TIP3   OH217480   7.173   1.794   0.228
 5846TIP3    H117481   7.188   1.738   0.304
 5846TIP3    H217482   7.256   1.793   0.180
 5847TIP3   OH217483   5.762   1.371   0.920
 5847TIP3    H117484   5.673   1.395   0.891
 5847TIP3    H217485   5.796   1.451   0.960
 5848TIP3   OH217486   1.954   6.527   2.111
 5848TIP3    H117487   1.882   6.482   2.067
 5848TIP3    H217488   1.914   6.571   2.186
 5849TIP3   OH217489   0.518   6.121   1.601
 5849TIP3    H117490   0.602   6.165   1.611
 5849TIP3    H217491   0.506   6.072   1.682
 5850TIP3   OH217492   2.058   2.497   6.424
 5850TIP3    H117493   2.024   2.409   6.409
 5850TIP3    H217494   2.040   2.515   6.516
 5851TIP3   OH217495   7.163   5.089   1.253
 5851TIP3    H117496   7.123   5.066   1.169
 5851TIP3    H217497   7.144   5.014   1.309
 5852TIP3   OH217498   2.742   4.411   3.511
 5852TIP3    H117499   2.720   4.455   3.593
 5852TIP3    H217500   2.768   4.482   3.452
 5853TIP3   OH217501   7.887   5.492   2.299
 5853TIP3    H117502   7.960   5.525   2.246
 5853TIP3    H217503   7.928   5.428   2.357
 5854TIP3   OH217504   5.765   0.880   0.428
 5854TIP3    H117505   5.784   0.802   0.376
 5854TIP3    H217506   5.701   0.928   0.376
 5855TIP3   OH217507   5.441   0.888   2.307
 5855TIP3    H117508   5.530   0.858   2.288
 5855TIP3    H217509   5.393   0.878   2.225
 5856TIP3   OH217510  -0.014   6.308   6.317
 5856TIP3    H117511  -0.002   6.403   6.324
 5856TIP3    H217512   0.050   6.281   6.252
 5857TIP3   OH217513   2.171   6.600   1.773
 5857TIP3    H117514   2.204   6.527   1.825
 5857TIP3    H217515   2.086   6.569   1.742
 5858TIP3   OH217516   0.894   0.999   3.051
 5858TIP3    H117517   0.917   0.914   3.014
 5858TIP3    H217518   0.834   0.978   3.123
 5859TIP3   OH217519   5.337   7.335   6.255
 5859TIP3    H117520   5.344   7.280   6.334
 5859TIP3    H217521   5.289   7.281   6.193
 5860TIP3   OH217522   6.099   7.455   1.174
 5860TIP3    H117523   6.108   7.485   1.083
 5860TIP3    H217524   6.076   7.534   1.223
 5861TIP3   OH217525   5.011   5.977   4.135
 5861TIP3    H117526   5.102   5.981   4.105
 5861TIP3    H217527   5.014   5.921   4.213
 5862TIP3   OH217528   6.411   1.270   6.030
 5862TIP3    H117529   6.482   1.254   6.092
 5862TIP3    H217530   6.418   1.200   5.965
 5863TIP3   OH217531   3.598   4.869   3.817
 5863TIP3    H117532   3.579   4.777   3.832
 5863TIP3    H217533   3.523   4.902   3.767
 5864TIP3   OH217534   1.717   6.926   1.692
 5864TIP3    H117535   1.805   6.890   1.677
 5864TIP3    H217536   1.711   6.999   1.631
 5865TIP3   OH217537   0.996   0.711   5.334
 5865TIP3    H117538   0.942   0.675   5.404
 5865TIP3    H217539   0.950   0.791   5.307
 5866TIP3   OH217540   7.109   5.261   4.375
 5866TIP3    H117541   7.145   5.207   4.304
 5866TIP3    H217542   7.080   5.198   4.441
 5867TIP3   OH217543   7.422   5.894   2.872
 5867TIP3    H117544   7.369   5.819   2.900
 5867TIP3    H217545   7.487   5.904   2.942
 5868TIP3   OH217546   3.475   2.487   6.603
 5868TIP3    H117547   3.380   2.497   6.606
 5868TIP3    H217548   3.495   2.481   6.509
 5869TIP3   OH217549   2.611   6.578   1.720
 5869TIP3    H117550   2.562   6.497   1.732
 5869TIP3    H217551   2.692   6.565   1.769
 5870TIP3   OH217552   4.298   4.278   5.654
 5870TIP3    H117553   4.219   4.261   5.603
 5870TIP3    H217554   4.294   4.213   5.725
 5871TIP3   OH217555   4.187   3.299   4.139
 5871TIP3    H117556   4.255   3.356   4.174
 5871TIP3    H217557   4.107   3.352   4.141
 5872TIP3   OH217558   5.723   2.601   1.694
 5872TIP3    H117559   5.650   2.663   1.693
 5872TIP3    H217560   5.703   2.543   1.767
 5873TIP3   OH217561   4.503   6.940   1.461
 5873TIP3    H117562   4.530   6.880   1.392
 5873TIP3    H217563   4.527   7.027   1.428
 5874TIP3   OH217564   6.891   0.439   3.036
 5874TIP3    H117565   6.966   0.494   3.011
 5874TIP3    H217566   6.899   0.430   3.131
 5875TIP3   OH217567   4.175   2.767   0.634
 5875TIP3    H117568   4.175   2.745   0.727
 5875TIP3    H217569   4.086   2.798   0.616
 5876TIP3   OH217570   1.019   4.800   5.884
 5876TIP3    H117571   1.025   4.868   5.818
 5876TIP3    H217572   0.954   4.739   5.850
 5877TIP3   OH217573   7.376   0.115   6.004
 5877TIP3    H117574   7.434   0.145   6.074
 5877TIP3    H217575   7.343   0.031   6.034
 5878TIP3   OH217576   3.416   5.770   1.030
 5878TIP3    H117577   3.382   5.716   0.958
 5878TIP3    H217578   3.510   5.776   1.011
 5879TIP3   OH217579   5.892   1.792   1.245
 5879TIP3    H117580   5.805   1.830   1.249
 5879TIP3    H217581   5.916   1.795   1.152
 5880TIP3   OH217582   7.413   4.100   0.110
 5880TIP3    H117583   7.482   4.077   0.173
 5880TIP3    H217584   7.359   4.164   0.156
 5881TIP3   OH217585   7.683   2.216   5.605
 5881TIP3    H117586   7.690   2.235   5.699
 5881TIP3    H217587   7.732   2.134   5.594
 5882TIP3   OH217588   1.268   4.443   0.286
 5882TIP3    H117589   1.208   4.406   0.221
 5882TIP3    H217590   1.278   4.372   0.350
 5883TIP3   OH217591   1.225   1.773   6.407
 5883TIP3    H117592   1.306   1.728   6.432
 5883TIP3    H217593   1.219   1.759   6.313
 5884TIP3   OH217594   1.891   4.811   4.824
 5884TIP3    H117595   1.974   4.826   4.870
 5884TIP3    H217596   1.864   4.724   4.851
 5885TIP3   OH217597   4.879   3.832   1.850
 5885TIP3    H117598   4.909   3.742   1.860
 5885TIP3    H217599   4.959   3.885   1.858
 5886TIP3   OH217600   4.652   6.237   3.083
 5886TIP3    H117601   4.683   6.204   3.167
 5886TIP3    H217602   4.712   6.308   3.061
 5887TIP3   OH217603   4.746   7.439   2.180
 5887TIP3    H117604   4.722   7.422   2.089
 5887TIP3    H217605   4.841   7.422   2.183
 5888TIP3   OH217606   0.584   5.130   2.090
 5888TIP3    H117607   0.612   5.148   2.179
 5888TIP3    H217608   0.664   5.106   2.043
 5889TIP3   OH217609   4.588   6.622   1.501
 5889TIP3    H117610   4.590   6.537   1.457
 5889TIP3    H217611   4.589   6.686   1.430
 5890TIP3   OH217612   7.532   7.142   0.743
 5890TIP3    H117613   7.465   7.178   0.801
 5890TIP3    H217614   7.483   7.084   0.684
 5891TIP3   OH217615   7.452   3.922   2.731
 5891TIP3    H117616   7.481   3.947   2.818
 5891TIP3    H217617   7.441   3.827   2.735
 5892TIP3   OH217618   7.781   7.101   6.660
 5892TIP3    H117619   7.782   7.079   6.566
 5892TIP3    H217620   7.856   7.159   6.672
 5893TIP3   OH217621   7.028   2.513   5.924
 5893TIP3    H117622   7.082   2.550   5.993
 5893TIP3    H217623   6.945   2.492   5.966
 5894TIP3   OH217624   3.117   3.801   0.078
 5894TIP3    H117625   3.122   3.825  -0.015
 5894TIP3    H217626   3.206   3.774   0.100
 5895TIP3   OH217627   7.530   7.337   6.166
 5895TIP3    H117628   7.447   7.382   6.154
 5895TIP3    H217629   7.557   7.359   6.255
 5896TIP3   OH217630   6.154   2.647   0.108
 5896TIP3    H117631   6.224   2.711   0.105
 5896TIP3    H217632   6.184   2.581   0.170
 5897TIP3   OH217633   6.032   0.977   0.541
 5897TIP3    H117634   6.056   0.892   0.578
 5897TIP3    H217635   5.963   0.957   0.477
 5898TIP3   OH217636   2.980   6.905   0.296
 5898TIP3    H117637   2.892   6.898   0.259
 5898TIP3    H217638   3.014   6.988   0.262
 5899TIP3   OH217639   0.212   3.779   1.579
 5899TIP3    H117640   0.206   3.868   1.545
 5899TIP3    H217641   0.124   3.742   1.568
 5900TIP3   OH217642   2.835   4.342   4.204
 5900TIP3    H117643   2.771   4.274   4.222
 5900TIP3    H217644   2.920   4.297   4.210
 5901TIP3   OH217645   7.988   5.554   3.315
 5901TIP3    H117646   7.919   5.532   3.378
 5901TIP3    H217647   8.060   5.587   3.369
 5902TIP3   OH217648   3.251   5.563   2.282
 5902TIP3    H117649   3.212   5.482   2.249
 5902TIP3    H217650   3.202   5.583   2.362
 5903TIP3   OH217651   1.757   5.853   6.615
 5903TIP3    H117652   1.836   5.900   6.641
 5903TIP3    H217653   1.749   5.869   6.521
 5904TIP3   OH217654   0.752   2.643   3.892
 5904TIP3    H117655   0.777   2.721   3.842
 5904TIP3    H217656   0.819   2.634   3.959
 5905TIP3   OH217657   2.854   5.872   6.019
 5905TIP3    H117658   2.804   5.791   6.028
 5905TIP3    H217659   2.810   5.934   6.077
 5906TIP3   OH217660   7.214   3.883   3.098
 5906TIP3    H117661   7.178   3.967   3.128
 5906TIP3    H217662   7.209   3.826   3.175
 5907TIP3   OH217663   2.236   6.468   4.488
 5907TIP3    H117664   2.316   6.415   4.483
 5907TIP3    H217665   2.213   6.469   4.581
 5908TIP3   OH217666   3.286   3.373   4.090
 5908TIP3    H117667   3.212   3.408   4.040
 5908TIP3    H217668   3.280   3.278   4.078
 5909TIP3   OH217669   5.489   7.279   4.163
 5909TIP3    H117670   5.427   7.284   4.236
 5909TIP3    H217671   5.439   7.239   4.092
 5910TIP3   OH217672   2.634   3.557   2.244
 5910TIP3    H117673   2.613   3.521   2.330
 5910TIP3    H217674   2.669   3.482   2.195
 5911TIP3   OH217675   2.053   2.520   4.018
 5911TIP3    H117676   1.978   2.465   3.995
 5911TIP3    H217677   2.088   2.550   3.934
 5912TIP3   OH217678   3.311   6.784   2.789
 5912TIP3    H117679   3.270   6.821   2.710
 5912TIP3    H217680   3.260   6.820   2.862
 5913TIP3   OH217681   3.271   6.151   1.496
 5913TIP3    H117682   3.311   6.238   1.505
 5913TIP3    H217683   3.177   6.167   1.490
 5914TIP3   OH217684   0.094   6.522   5.835
 5914TIP3    H117685   0.105   6.514   5.740
 5914TIP3    H217686   0.108   6.614   5.853
 5915TIP3   OH217687   5.817   6.296   5.528
 5915TIP3    H117688   5.805   6.207   5.561
 5915TIP3    H217689   5.851   6.346   5.602
 5916TIP3   OH217690   3.581   6.659   1.906
 5916TIP3    H117691   3.633   6.631   1.982
 5916TIP3    H217692   3.611   6.748   1.888
 5917TIP3   OH217693   3.082   4.705   6.045
 5917TIP3    H117694   3.049   4.616   6.030
 5917TIP3    H217695   3.109   4.706   6.137
 5918TIP3   OH217696   2.173   5.636   4.667
 5918TIP3    H117697   2.164   5.598   4.755
 5918TIP3    H217698   2.261   5.673   4.665
 5919TIP3   OH217699   4.102   5.871   6.614
 5919TIP3    H117700   4.184   5.843   6.575
 5919TIP3    H217701   4.096   5.965   6.593
 5920TIP3   OH217702   4.852   5.891   4.644
 5920TIP3    H117703   4.778   5.870   4.588
 5920TIP3    H217704   4.814   5.898   4.732
 5921TIP3   OH217705   6.232   0.918   1.446
 5921TIP3    H117706   6.328   0.908   1.449
 5921TIP3    H217707   6.216   0.968   1.366
 5922TIP3   OH217708   1.233   3.486   0.602
 5922TIP3    H117709   1.321   3.450   0.609
 5922TIP3    H217710   1.195   3.471   0.688
 5923TIP3   OH217711   0.366   7.674   6.447
 5923TIP3    H117712   0.410   7.589   6.449
 5923TIP3    H217713   0.358   7.695   6.354
 5924TIP3   OH217714   1.405   2.439   6.468
 5924TIP3    H117715   1.388   2.496   6.393
 5924TIP3    H217716   1.452   2.364   6.432
 5925TIP3   OH217717   0.401   0.931   4.564
 5925TIP3    H117718   0.436   0.848   4.531
 5925TIP3    H217719   0.468   0.964   4.623
 5926TIP3   OH217720   4.096   4.968   5.428
 5926TIP3    H117721   4.146   4.887   5.420
 5926TIP3    H217722   4.029   4.948   5.494
 5927TIP3   OH217723   8.129   0.116   0.768
 5927TIP3    H117724   8.035   0.121   0.753
 5927TIP3    H217725   8.156   0.207   0.781
 5928TIP3   OH217726   8.036   6.617   6.611
 5928TIP3    H117727   8.068   6.608   6.521
 5928TIP3    H217728   7.947   6.649   6.601
 5929TIP3   OH217729   6.541   0.471   3.812
 5929TIP3    H117730   6.574   0.413   3.744
 5929TIP3    H217731   6.459   0.430   3.841
 5930TIP3   OH217732   4.338   2.761   1.732
 5930TIP3    H117733   4.268   2.697   1.743
 5930TIP3    H217734   4.299   2.845   1.757
 5931TIP3   OH217735   5.227   7.041   5.787
 5931TIP3    H117736   5.270   7.127   5.790
 5931TIP3    H217737   5.147   7.053   5.840
 5932TIP3   OH217738   5.926   1.979   4.369
 5932TIP3    H117739   5.998   1.945   4.317
 5932TIP3    H217740   5.936   2.074   4.367
 5933TIP3   OH217741   5.045   3.578   1.431
 5933TIP3    H117742   5.080   3.568   1.343
 5933TIP3    H217743   5.088   3.656   1.466
 5934TIP3   OH217744   7.108   6.412   5.950
 5934TIP3    H117745   7.025   6.400   5.997
 5934TIP3    H217746   7.175   6.383   6.012
 5935TIP3   OH217747   1.205   7.059   2.284
 5935TIP3    H117748   1.269   7.015   2.227
 5935TIP3    H217749   1.257   7.118   2.338
 5936TIP3   OH217750   6.611   0.565   0.644
 5936TIP3    H117751   6.604   0.574   0.739
 5936TIP3    H217752   6.527   0.529   0.617
 5937TIP3   OH217753   7.624   4.544   6.064
 5937TIP3    H117754   7.706   4.498   6.047
 5937TIP3    H217755   7.630   4.623   6.010
 5938TIP3   OH217756   2.787   7.615   6.570
 5938TIP3    H117757   2.713   7.659   6.528
 5938TIP3    H217758   2.860   7.628   6.509
 5939TIP3   OH217759   6.921   4.298   2.935
 5939TIP3    H117760   6.861   4.337   3.000
 5939TIP3    H217761   6.878   4.217   2.909
 5940TIP3   OH217762   2.504   4.288   6.330
 5940TIP3    H117763   2.513   4.375   6.368
 5940TIP3    H217764   2.491   4.230   6.405
 5941TIP3   OH217765   0.577   0.912   5.372
 5941TIP3    H117766   0.518   0.890   5.444
 5941TIP3    H217767   0.543   0.994   5.337
 5942TIP3   OH217768   5.088   4.881   4.885
 5942TIP3    H117769   5.113   4.791   4.905
 5942TIP3    H217770   5.088   4.886   4.790
 5943TIP3   OH217771   3.216   2.759   5.306
 5943TIP3    H117772   3.253   2.786   5.222
 5943TIP3    H217773   3.156   2.687   5.284
 5944TIP3   OH217774   7.945   2.376   3.566
 5944TIP3    H117775   7.994   2.402   3.488
 5944TIP3    H217776   7.858   2.413   3.552
 5945TIP3   OH217777   3.070   5.645   5.442
 5945TIP3    H117778   3.057   5.739   5.453
 5945TIP3    H217779   3.079   5.611   5.531
 5946TIP3   OH217780   7.755   6.838   3.090
 5946TIP3    H117781   7.741   6.849   3.184
 5946TIP3    H217782   7.738   6.924   3.053
 5947TIP3   OH217783   5.373   2.541   3.045
 5947TIP3    H117784   5.448   2.559   3.101
 5947TIP3    H217785   5.320   2.478   3.096
 5948TIP3   OH217786   6.237   4.063   4.671
 5948TIP3    H117787   6.169   3.997   4.662
 5948TIP3    H217788   6.191   4.143   4.697
 5949TIP3   OH217789   6.546   2.803   5.477
 5949TIP3    H117790   6.584   2.758   5.402
 5949TIP3    H217791   6.583   2.758   5.553
 5950TIP3   OH217792   5.819   4.305   6.283
 5950TIP3    H117793   5.854   4.287   6.196
 5950TIP3    H217794   5.733   4.263   6.284
 5951TIP3   OH217795   5.487   4.592   1.790
 5951TIP3    H117796   5.402   4.628   1.817
 5951TIP3    H217797   5.529   4.663   1.742
 5952TIP3   OH217798   8.332   3.294   5.486
 5952TIP3    H117799   8.296   3.242   5.558
 5952TIP3    H217800   8.340   3.232   5.414
 5953TIP3   OH217801   1.075   6.748   3.080
 5953TIP3    H117802   1.073   6.675   3.142
 5953TIP3    H217803   1.095   6.825   3.134
 5954TIP3   OH217804   6.589   4.403   4.088
 5954TIP3    H117805   6.624   4.318   4.064
 5954TIP3    H217806   6.574   4.448   4.005
 5955TIP3   OH217807   7.711   3.798   5.312
 5955TIP3    H117808   7.706   3.702   5.307
 5955TIP3    H217809   7.719   3.816   5.406
 5956TIP3   OH217810   4.778   5.412   6.530
 5956TIP3    H117811   4.856   5.366   6.498
 5956TIP3    H217812   4.758   5.475   6.461
 5957TIP3   OH217813   0.391   6.461   1.500
 5957TIP3    H117814   0.345   6.486   1.580
 5957TIP3    H217815   0.351   6.377   1.475
 5958TIP3   OH217816   4.520   3.007   3.127
 5958TIP3    H117817   4.498   3.100   3.117
 5958TIP3    H217818   4.545   2.998   3.219
 5959TIP3   OH217819   2.048   1.301   4.718
 5959TIP3    H117820   1.988   1.226   4.715
 5959TIP3    H217821   2.103   1.285   4.795
 5960TIP3   OH217822   6.231   7.255   6.090
 5960TIP3    H117823   6.301   7.201   6.126
 5960TIP3    H217824   6.213   7.218   6.004
 5961TIP3   OH217825   0.459   5.839   4.832
 5961TIP3    H117826   0.443   5.753   4.869
 5961TIP3    H217827   0.454   5.826   4.737
 5962TIP3   OH217828   6.344   6.446   5.196
 5962TIP3    H117829   6.334   6.466   5.289
 5962TIP3    H217830   6.350   6.350   5.193
 5963TIP3   OH217831   4.992   7.837   0.395
 5963TIP3    H117832   4.966   7.824   0.486
 5963TIP3    H217833   4.961   7.759   0.349
 5964TIP3   OH217834   1.896   7.019   1.160
 5964TIP3    H117835   1.978   7.063   1.138
 5964TIP3    H217836   1.831   7.057   1.101
 5965TIP3   OH217837   6.042   5.569   2.983
 5965TIP3    H117838   6.106   5.600   2.919
 5965TIP3    H217839   5.959   5.566   2.934
 5966TIP3   OH217840   2.705   5.137   4.796
 5966TIP3    H117841   2.694   5.083   4.875
 5966TIP3    H217842   2.673   5.223   4.822
 5967TIP3   OH217843   5.979   2.196   0.374
 5967TIP3    H117844   6.055   2.240   0.413
 5967TIP3    H217845   5.922   2.268   0.347
 5968TIP3   OH217846   8.171   3.463   1.912
 5968TIP3    H117847   8.077   3.457   1.928
 5968TIP3    H217848   8.209   3.481   1.998
 5969TIP3   OH217849   5.187   0.205   4.800
 5969TIP3    H117850   5.131   0.138   4.762
 5969TIP3    H217851   5.264   0.207   4.742
 5970TIP3   OH217852   5.074   5.159   1.174
 5970TIP3    H117853   5.099   5.241   1.215
 5970TIP3    H217854   5.033   5.108   1.244
 5971TIP3   OH217855   3.668   4.397   1.725
 5971TIP3    H117856   3.756   4.412   1.691
 5971TIP3    H217857   3.611   4.445   1.665
 5972TIP3   OH217858   5.563   1.315   3.754
 5972TIP3    H117859   5.624   1.261   3.704
 5972TIP3    H217860   5.496   1.253   3.785
 5973TIP3   OH217861   0.469   0.847   3.092
 5973TIP3    H117862   0.561   0.861   3.070
 5973TIP3    H217863   0.425   0.834   3.007
 5974TIP3   OH217864   1.212   0.514   2.190
 5974TIP3    H117865   1.125   0.482   2.165
 5974TIP3    H217866   1.214   0.503   2.285
 5975TIP3   OH217867   7.275   2.875   0.975
 5975TIP3    H117868   7.343   2.935   0.947
 5975TIP3    H217869   7.280   2.801   0.914
 5976TIP3   OH217870   3.569   4.523   2.188
 5976TIP3    H117871   3.563   4.601   2.133
 5976TIP3    H217872   3.641   4.541   2.249
 5977TIP3   OH217873   7.926   4.881   4.879
 5977TIP3    H117874   7.941   4.787   4.867
 5977TIP3    H217875   7.868   4.906   4.808
 5978TIP3   OH217876   7.061   5.677   3.379
 5978TIP3    H117877   7.064   5.582   3.384
 5978TIP3    H217878   7.011   5.695   3.299
 5979TIP3   OH217879   3.863   1.466   6.520
 5979TIP3    H117880   3.864   1.371   6.533
 5979TIP3    H217881   3.926   1.481   6.449
 5980TIP3   OH217882   1.045   7.441   1.164
 5980TIP3    H117883   0.970   7.429   1.223
 5980TIP3    H217884   1.071   7.532   1.176
 5981TIP3   OH217885   3.121   4.907   3.370
 5981TIP3    H117886   3.118   5.001   3.349
 5981TIP3    H217887   3.081   4.901   3.457
 5982TIP3   OH217888   2.768   4.018   6.652
 5982TIP3    H117889   2.762   3.923   6.662
 5982TIP3    H217890   2.741   4.052   6.738
 5983TIP3   OH217891   0.167   4.011   1.386
 5983TIP3    H117892   0.134   4.037   1.472
 5983TIP3    H217893   0.173   4.092   1.336
 5984TIP3   OH217894   5.021   0.390   1.743
 5984TIP3    H117895   5.093   0.346   1.697
 5984TIP3    H217896   4.990   0.457   1.682
 5985TIP3   OH217897   2.470   5.860   5.638
 5985TIP3    H117898   2.463   5.810   5.556
 5985TIP3    H217899   2.435   5.801   5.704
 5986TIP3   OH217900   8.112   2.198   0.181
 5986TIP3    H117901   8.149   2.283   0.159
 5986TIP3    H217902   8.018   2.208   0.164
 5987TIP3   OH217903   4.812   3.005   0.423
 5987TIP3    H117904   4.756   2.984   0.497
 5987TIP3    H217905   4.772   2.960   0.349
 5988TIP3   OH217906   7.189   3.996   2.859
 5988TIP3    H117907   7.194   3.979   2.953
 5988TIP3    H217908   7.108   3.954   2.831
 5989TIP3   OH217909   3.273   7.605   4.808
 5989TIP3    H117910   3.264   7.631   4.716
 5989TIP3    H217911   3.187   7.570   4.832
 5990TIP3   OH217912   4.785   5.030   3.338
 5990TIP3    H117913   4.791   4.937   3.360
 5990TIP3    H217914   4.875   5.055   3.317
 5991TIP3   OH217915   6.092   7.151   2.071
 5991TIP3    H117916   6.158   7.137   2.139
 5991TIP3    H217917   6.015   7.104   2.104
 5992TIP3   OH217918   0.133   1.601   3.845
 5992TIP3    H117919   0.082   1.535   3.893
 5992TIP3    H217920   0.201   1.628   3.907
 5993TIP3   OH217921   1.750   6.657   4.664
 5993TIP3    H117922   1.778   6.734   4.614
 5993TIP3    H217923   1.752   6.586   4.600
 5994TIP3   OH217924   0.974   5.252   3.138
 5994TIP3    H117925   1.004   5.241   3.048
 5994TIP3    H217926   1.022   5.328   3.170
 5995TIP3   OH217927   1.757   0.404   5.299
 5995TIP3    H117928   1.690   0.336   5.287
 5995TIP3    H217929   1.836   0.355   5.322
 5996TIP3   OH217930   1.479   1.210   5.992
 5996TIP3    H117931   1.501   1.179   6.080
 5996TIP3    H217932   1.440   1.296   6.006
 5997TIP3   OH217933   7.305   4.624   1.495
 5997TIP3    H117934   7.393   4.642   1.528
 5997TIP3    H217935   7.283   4.700   1.441
 5998TIP3   OH217936   7.522   0.218   6.234
 5998TIP3    H117937   7.512   0.168   6.315
 5998TIP3    H217938   7.524   0.309   6.262
 5999TIP3   OH217939   8.138   6.478   1.162
 5999TIP3    H117940   8.137   6.392   1.203
 5999TIP3    H217941   8.130   6.540   1.234
 6000TIP3   OH217942   2.418   0.414   6.414
 6000TIP3    H117943   2.435   0.372   6.330
 6000TIP3    H217944   2.416   0.508   6.393
 6001TIP3   OH217945   5.106   5.852   1.918
 6001TIP3    H117946   5.093   5.807   1.835
 6001TIP3    H217947   5.112   5.782   1.983
 6002TIP3   OH217948   4.801   6.830   2.302
 6002TIP3    H117949   4.708   6.851   2.295
 6002TIP3    H217950   4.843   6.913   2.324
 6003TIP3   OH217951   6.250   5.900   5.644
 6003TIP3    H117952   6.330   5.911   5.696
 6003TIP3    H217953   6.186   5.866   5.707
 6004TIP3   OH217954   6.860   4.371   0.898
 6004TIP3    H117955   6.914   4.309   0.849
 6004TIP3    H217956   6.910   4.391   0.977
 6005TIP3   OH217957   7.296   5.051   0.352
 6005TIP3    H117958   7.301   4.959   0.379
 6005TIP3    H217959   7.354   5.056   0.276
 6006TIP3   OH217960   1.873   0.477   1.842
 6006TIP3    H117961   1.790   0.462   1.888
 6006TIP3    H217962   1.939   0.441   1.900
 6007TIP3   OH217963   5.028   0.403   5.871
 6007TIP3    H117964   5.073   0.376   5.951
 6007TIP3    H217965   5.098   0.417   5.807
 6008TIP3   OH217966   7.141   3.776   5.698
 6008TIP3    H117967   7.105   3.751   5.613
 6008TIP3    H217968   7.064   3.784   5.755
 6009TIP3   OH217969   1.999   7.458   3.350
 6009TIP3    H117970   2.016   7.524   3.283
 6009TIP3    H217971   1.918   7.414   3.322
 6010TIP3   OH217972   7.886   7.197   4.245
 6010TIP3    H117973   7.912   7.288   4.260
 6010TIP3    H217974   7.810   7.184   4.302
 6011TIP3   OH217975   7.128   5.243   5.631
 6011TIP3    H117976   7.153   5.175   5.568
 6011TIP3    H217977   7.050   5.284   5.592
 6012TIP3   OH217978   1.162   6.781   6.369
 6012TIP3    H117979   1.202   6.697   6.392
 6012TIP3    H217980   1.186   6.795   6.277
 6013TIP3   OH217981   4.833   0.621   6.445
 6013TIP3    H117982   4.796   0.568   6.516
 6013TIP3    H217983   4.872   0.556   6.386
 6014TIP3   OH217984   4.551   6.151   1.270
 6014TIP3    H117985   4.622   6.101   1.310
 6014TIP3    H217986   4.482   6.087   1.253
 6015TIP3   OH217987   7.962   6.535   4.710
 6015TIP3    H117988   8.004   6.471   4.653
 6015TIP3    H217989   7.988   6.510   4.799
 6016TIP3   OH217990   5.519   7.009   0.243
 6016TIP3    H117991   5.441   7.031   0.295
 6016TIP3    H217992   5.565   6.943   0.296
 6017TIP3   OH217993   0.295   6.662   2.085
 6017TIP3    H117994   0.263   6.577   2.054
 6017TIP3    H217995   0.268   6.665   2.177
 6018TIP3   OH217996   7.806   1.430   5.673
 6018TIP3    H117997   7.834   1.398   5.588
 6018TIP3    H217998   7.729   1.378   5.695
 6019TIP3   OH217999   2.143   7.205   0.203
 6019TIP3    H118000   2.159   7.130   0.260
 6019TIP3    H218001   2.206   7.271   0.231
 6020TIP3   OH218002   5.570   3.204   4.824
 6020TIP3    H118003   5.504   3.239   4.765
 6020TIP3    H218004   5.653   3.238   4.790
 6021TIP3   OH218005   5.928   3.608   3.217
 6021TIP3    H118006   5.993   3.555   3.264
 6021TIP3    H218007   5.847   3.557   3.224
 6022TIP3   OH218008   1.379   1.328   3.584
 6022TIP3    H118009   1.366   1.421   3.563
 6022TIP3    H218010   1.423   1.292   3.508
 6023TIP3   OH218011   0.853   7.711   2.409
 6023TIP3    H118012   0.904   7.703   2.328
 6023TIP3    H218013   0.766   7.736   2.379
 6024TIP3   OH218014   4.976   3.898   6.469
 6024TIP3    H118015   5.040   3.919   6.401
 6024TIP3    H218016   4.905   3.853   6.422
 6025TIP3   OH218017   8.101   4.493   3.925
 6025TIP3    H118018   8.118   4.565   3.985
 6025TIP3    H218019   8.050   4.533   3.854
 6026TIP3   OH218020   2.749   0.854   6.366
 6026TIP3    H118021   2.703   0.887   6.443
 6026TIP3    H218022   2.756   0.929   6.308
 6027TIP3   OH218023   0.768   7.139   2.246
 6027TIP3    H118024   0.732   7.183   2.322
 6027TIP3    H218025   0.852   7.103   2.275
 6028TIP3   OH218026   5.839   4.080   3.701
 6028TIP3    H118027   5.914   4.100   3.757
 6028TIP3    H218028   5.868   4.108   3.614
 6029TIP3   OH218029   8.228   3.187   3.241
 6029TIP3    H118030   8.226   3.251   3.170
 6029TIP3    H218031   8.315   3.196   3.280
 6030TIP3   OH218032   6.149   0.022   5.996
 6030TIP3    H118033   6.055   0.036   6.008
 6030TIP3    H218034   6.185   0.026   6.085
 6031TIP3   OH218035   8.223   4.913   4.186
 6031TIP3    H118036   8.172   4.833   4.176
 6031TIP3    H218037   8.158   4.983   4.190
 6032TIP3   OH218038   2.228   5.646   5.256
 6032TIP3    H118039   2.231   5.557   5.290
 6032TIP3    H218040   2.154   5.687   5.301
 6033TIP3   OH218041   6.564   5.473   0.190
 6033TIP3    H118042   6.554   5.396   0.133
 6033TIP3    H218043   6.630   5.527   0.146
 6034TIP3   OH218044   3.137   0.695   6.242
 6034TIP3    H118045   3.072   0.624   6.244
 6034TIP3    H218046   3.220   0.650   6.225
 6035TIP3   OH218047   1.157   5.518   2.969
 6035TIP3    H118048   1.217   5.573   2.918
 6035TIP3    H218049   1.145   5.566   3.051
 6036TIP3   OH218050   3.194   3.075   3.116
 6036TIP3    H118051   3.235   3.123   3.188
 6036TIP3    H218052   3.104   3.058   3.147
 6037TIP3   OH218053   3.364   4.622   5.720
 6037TIP3    H118054   3.384   4.545   5.668
 6037TIP3    H218055   3.326   4.588   5.801
 6038TIP3   OH218056   6.896   1.510   6.120
 6038TIP3    H118057   6.886   1.461   6.202
 6038TIP3    H218058   6.988   1.501   6.098
 6039TIP3   OH218059   4.139   0.380   2.240
 6039TIP3    H118060   4.093   0.427   2.172
 6039TIP3    H218061   4.070   0.345   2.297
 6040TIP3   OH218062   4.862   3.446   1.587
 6040TIP3    H118063   4.785   3.502   1.582
 6040TIP3    H218064   4.925   3.487   1.527
 6041TIP3   OH218065   0.874   7.177   5.359
 6041TIP3    H118066   0.964   7.184   5.389
 6041TIP3    H218067   0.857   7.259   5.312
 6042TIP3   OH218068   6.866   5.228   6.136
 6042TIP3    H118069   6.868   5.212   6.041
 6042TIP3    H218070   6.896   5.318   6.145
 6043TIP3   OH218071   1.530   3.929   6.346
 6043TIP3    H118072   1.490   4.010   6.315
 6043TIP3    H218073   1.467   3.892   6.408
 6044TIP3   OH218074   3.481   4.720   5.184
 6044TIP3    H118075   3.429   4.783   5.133
 6044TIP3    H218076   3.571   4.733   5.154
 6045TIP3   OH218077   6.046   4.314   4.919
 6045TIP3    H118078   5.964   4.332   4.874
 6045TIP3    H218079   6.032   4.346   5.008
 6046TIP3   OH218080   0.376   4.089   6.706
 6046TIP3    H118081   0.336   4.167   6.669
 6046TIP3    H218082   0.388   4.030   6.631
 6047TIP3   OH218083   1.099   3.470   1.653
 6047TIP3    H118084   1.029   3.432   1.601
 6047TIP3    H218085   1.056   3.498   1.734
 6048TIP3   OH218086   1.476   7.543   1.214
 6048TIP3    H118087   1.414   7.604   1.174
 6048TIP3    H218088   1.540   7.599   1.258
 6049TIP3   OH218089   4.477   1.685   3.226
 6049TIP3    H118090   4.524   1.739   3.163
 6049TIP3    H218091   4.540   1.618   3.252
 6050TIP3   OH218092   2.794   0.460   5.203
 6050TIP3    H118093   2.769   0.533   5.147
 6050TIP3    H218094   2.794   0.383   5.145
 6051TIP3   OH218095   2.038   4.772   1.807
 6051TIP3    H118096   2.083   4.825   1.741
 6051TIP3    H218097   2.087   4.689   1.807
 6052TIP3   OH218098   8.051   7.121   2.773
 6052TIP3    H118099   8.138   7.160   2.761
 6052TIP3    H218100   7.990   7.188   2.742
 6053TIP3   OH218101   6.294   3.444   2.210
 6053TIP3    H118102   6.275   3.401   2.126
 6053TIP3    H218103   6.255   3.386   2.275
 6054TIP3   OH218104   2.090   1.773   0.523
 6054TIP3    H118105   2.047   1.855   0.500
 6054TIP3    H218106   2.022   1.706   0.513
 6055TIP3   OH218107   3.366   1.810   4.909
 6055TIP3    H118108   3.310   1.775   4.840
 6055TIP3    H218109   3.318   1.885   4.943
 6056TIP3   OH218110   2.130   2.656   6.199
 6056TIP3    H118111   2.146   2.600   6.123
 6056TIP3    H218112   2.096   2.597   6.266
 6057TIP3   OH218113   3.122   5.757   0.267
 6057TIP3    H118114   3.206   5.726   0.301
 6057TIP3    H218115   3.144   5.800   0.184
 6058TIP3   OH218116   3.447   5.381   2.779
 6058TIP3    H118117   3.415   5.446   2.715
 6058TIP3    H218118   3.369   5.357   2.830
 6059TIP3   OH218119   1.217   4.040   5.516
 6059TIP3    H118120   1.295   4.095   5.506
 6059TIP3    H218121   1.162   4.063   5.441
 6060TIP3   OH218122   2.917   3.296   2.658
 6060TIP3    H118123   2.946   3.206   2.641
 6060TIP3    H218124   2.830   3.286   2.696
 6061TIP3   OH218125   0.429   5.767   4.559
 6061TIP3    H118126   0.404   5.716   4.483
 6061TIP3    H218127   0.485   5.837   4.524
 6062TIP3   OH218128   0.918   3.531   0.485
 6062TIP3    H118129   1.013   3.541   0.477
 6062TIP3    H218130   0.901   3.441   0.457
 6063TIP3   OH218131   5.909   6.430   2.403
 6063TIP3    H118132   6.001   6.431   2.375
 6063TIP3    H218133   5.893   6.519   2.433
 6064TIP3   OH218134   7.697   2.493   3.558
 6064TIP3    H118135   7.610   2.501   3.598
 6064TIP3    H218136   7.679   2.464   3.468
 6065TIP3   OH218137   8.042   1.053   4.609
 6065TIP3    H118138   8.039   1.133   4.556
 6065TIP3    H218139   8.113   1.001   4.571
 6066TIP3   OH218140   2.652   6.286   6.660
 6066TIP3    H118141   2.648   6.192   6.676
 6066TIP3    H218142   2.585   6.301   6.593
 6067TIP3   OH218143   7.338   0.771   3.599
 6067TIP3    H118144   7.350   0.708   3.671
 6067TIP3    H218145   7.341   0.857   3.642
 6068TIP3   OH218146   7.217   7.311   2.116
 6068TIP3    H118147   7.255   7.223   2.123
 6068TIP3    H218148   7.134   7.298   2.070
 6069TIP3   OH218149   7.198   6.475   6.398
 6069TIP3    H118150   7.166   6.565   6.396
 6069TIP3    H218151   7.226   6.457   6.309
 6070TIP3   OH218152   7.187   4.054   5.774
 6070TIP3    H118153   7.203   3.960   5.779
 6070TIP3    H218154   7.198   4.084   5.864
 6071TIP3   OH218155   5.040   2.597   6.564
 6071TIP3    H118156   5.122   2.564   6.601
 6071TIP3    H218157   5.067   2.670   6.509
 6072TIP3   OH218158   5.288   0.663   5.797
 6072TIP3    H118159   5.288   0.570   5.778
 6072TIP3    H218160   5.295   0.706   5.712
 6073TIP3   OH218161   7.963   5.921   3.221
 6073TIP3    H118162   8.054   5.913   3.190
 6073TIP3    H218163   7.962   6.005   3.268
 6074TIP3   OH218164   6.851   4.076   5.874
 6074TIP3    H118165   6.874   4.157   5.918
 6074TIP3    H218166   6.758   4.065   5.890
 6075TIP3   OH218167   4.787   0.675   4.422
 6075TIP3    H118168   4.793   0.766   4.453
 6075TIP3    H218169   4.841   0.626   4.484
 6076TIP3   OH218170   7.609   0.297   5.349
 6076TIP3    H118171   7.562   0.239   5.408
 6076TIP3    H218172   7.671   0.240   5.304
 6077TIP3   OH218173   2.230   0.573   0.822
 6077TIP3    H118174   2.171   0.552   0.894
 6077TIP3    H218175   2.312   0.528   0.844
 6078TIP3   OH218176   5.322   2.204   1.488
 6078TIP3    H118177   5.325   2.287   1.534
 6078TIP3    H218178   5.411   2.190   1.455
 6079TIP3   OH218179   5.374   0.214   0.589
 6079TIP3    H118180   5.430   0.257   0.525
 6079TIP3    H218181   5.403   0.123   0.589
 6080TIP3   OH218182   3.827   3.573   4.036
 6080TIP3    H118183   3.743   3.544   4.001
 6080TIP3    H218184   3.806   3.652   4.086
 6081TIP3   OH218185   7.228   6.192   4.888
 6081TIP3    H118186   7.307   6.227   4.930
 6081TIP3    H218187   7.215   6.247   4.811
 6082TIP3   OH218188   6.131   2.758   5.038
 6082TIP3    H118189   6.184   2.823   5.084
 6082TIP3    H218190   6.148   2.773   4.945
 6083TIP3   OH218191   0.497   0.698   4.508
 6083TIP3    H118192   0.580   0.739   4.535
 6083TIP3    H218193   0.504   0.607   4.538
 6084TIP3   OH218194   5.562   0.215   5.960
 6084TIP3    H118195   5.648   0.246   5.932
 6084TIP3    H218196   5.534   0.277   6.027
 6085TIP3   OH218197   4.249   7.811   3.457
 6085TIP3    H118198   4.295   7.729   3.436
 6085TIP3    H218199   4.226   7.848   3.371
 6086TIP3   OH218200   0.015   6.188   6.577
 6086TIP3    H118201  -0.003   6.228   6.492
 6086TIP3    H218202   0.109   6.198   6.590
 6087TIP3   OH218203   3.796   5.440   4.542
 6087TIP3    H118204   3.849   5.501   4.490
 6087TIP3    H218205   3.767   5.493   4.617
 6088TIP3   OH218206   3.096   6.470   1.562
 6088TIP3    H118207   3.019   6.499   1.513
 6088TIP3    H218208   3.162   6.455   1.495
 6089TIP3   OH218209   3.034   5.048   4.140
 6089TIP3    H118210   3.022   5.048   4.045
 6089TIP3    H218211   3.101   4.981   4.156
 6090TIP3   OH218212   4.957   7.461   0.888
 6090TIP3    H118213   4.948   7.487   0.980
 6090TIP3    H218214   4.974   7.367   0.892
 6091TIP3   OH218215   1.018   0.533   5.104
 6091TIP3    H118216   1.040   0.451   5.148
 6091TIP3    H218217   0.994   0.593   5.175
 6092TIP3   OH218218   3.725   0.284   6.754
 6092TIP3    H118219   3.758   0.200   6.786
 6092TIP3    H218220   3.712   0.270   6.660
 6093TIP3   OH218221   4.825   5.711   2.763
 6093TIP3    H118222   4.733   5.694   2.742
 6093TIP3    H218223   4.836   5.805   2.747
 6094TIP3   OH218224   4.637   1.189   3.944
 6094TIP3    H118225   4.640   1.107   3.894
 6094TIP3    H218226   4.657   1.257   3.880
 6095TIP3   OH218227   4.826   2.414   0.102
 6095TIP3    H118228   4.750   2.471   0.088
 6095TIP3    H218229   4.900   2.466   0.073
 6096TIP3   OH218230   2.121   6.113   0.197
 6096TIP3    H118231   2.172   6.092   0.276
 6096TIP3    H218232   2.135   6.039   0.138
 6097TIP3   OH218233   4.630   7.059   6.490
 6097TIP3    H118234   4.683   7.060   6.410
 6097TIP3    H218235   4.571   6.984   6.479
 6098TIP3   OH218236   6.802   1.619   0.077
 6098TIP3    H118237   6.723   1.619   0.131
 6098TIP3    H218238   6.770   1.631  -0.012
 6099TIP3   OH218239   4.898   2.062   4.914
 6099TIP3    H118240   4.952   2.007   4.857
 6099TIP3    H218241   4.958   2.129   4.947
 6100TIP3   OH218242   1.457   7.829   6.347
 6100TIP3    H118243   1.498   7.772   6.412
 6100TIP3    H218244   1.506   7.811   6.267
 6101TIP3   OH218245   0.831   4.413   3.688
 6101TIP3    H118246   0.851   4.351   3.759
 6101TIP3    H218247   0.902   4.477   3.691
 6102TIP3   OH218248   5.732   3.006   5.300
 6102TIP3    H118249   5.821   3.038   5.313
 6102TIP3    H218250   5.713   2.955   5.379
 6103TIP3   OH218251   2.352   3.804   1.290
 6103TIP3    H118252   2.406   3.819   1.368
 6103TIP3    H218253   2.389   3.725   1.250
 6104TIP3   OH218254   0.190   0.249   2.862
 6104TIP3    H118255   0.122   0.317   2.857
 6104TIP3    H218256   0.183   0.216   2.952
 6105TIP3   OH218257   5.123   7.072   0.943
 6105TIP3    H118258   5.042   7.120   0.963
 6105TIP3    H218259   5.104   7.027   0.861
 6106TIP3   OH218260   1.215   7.012   5.956
 6106TIP3    H118261   1.257   7.043   5.877
 6106TIP3    H218262   1.121   7.016   5.937
 6107TIP3   OH218263   0.571   0.621   1.141
 6107TIP3    H118264   0.556   0.595   1.050
 6107TIP3    H218265   0.483   0.629   1.178
 6108TIP3   OH218266   6.417   2.587   3.904
 6108TIP3    H118267   6.321   2.595   3.902
 6108TIP3    H218268   6.446   2.616   3.818
 6109TIP3   OH218269   1.533   3.839   4.471
 6109TIP3    H118270   1.466   3.908   4.468
 6109TIP3    H218271   1.491   3.768   4.519
 6110TIP3   OH218272   4.663   0.909   1.534
 6110TIP3    H118273   4.583   0.960   1.547
 6110TIP3    H218274   4.690   0.884   1.623
 6111TIP3   OH218275   5.809   7.436   4.939
 6111TIP3    H118276   5.874   7.453   5.007
 6111TIP3    H218277   5.775   7.348   4.960
 6112TIP3   OH218278   1.135   6.891   4.389
 6112TIP3    H118279   1.044   6.862   4.391
 6112TIP3    H218280   1.186   6.814   4.413
 6113TIP3   OH218281   7.138   0.873   1.474
 6113TIP3    H118282   7.226   0.885   1.438
 6113TIP3    H218283   7.104   0.961   1.485
 6114TIP3   OH218284   2.145   4.259   3.938
 6114TIP3    H118285   2.125   4.236   4.029
 6114TIP3    H218286   2.089   4.202   3.886
 6115TIP3   OH218287   3.858   0.548   4.796
 6115TIP3    H118288   3.806   0.522   4.872
 6115TIP3    H218289   3.833   0.639   4.780
 6116TIP3   OH218290   8.180   4.386   3.343
 6116TIP3    H118291   8.227   4.303   3.344
 6116TIP3    H218292   8.191   4.421   3.432
 6117TIP3   OH218293   0.929   6.477   2.770
 6117TIP3    H118294   0.888   6.468   2.684
 6117TIP3    H218295   0.855   6.484   2.831
 6118TIP3   OH218296   0.288   3.275   2.213
 6118TIP3    H118297   0.273   3.364   2.182
 6118TIP3    H218298   0.288   3.283   2.309
 6119TIP3   OH218299   2.596   6.925   3.616
 6119TIP3    H118300   2.581   7.008   3.571
 6119TIP3    H218301   2.515   6.876   3.604
 6120TIP3   OH218302   7.132   0.400   4.213
 6120TIP3    H118303   7.051   0.379   4.259
 6120TIP3    H218304   7.177   0.462   4.271
 6121TIP3   OH218305   3.034   7.649   0.719
 6121TIP3    H118306   3.031   7.594   0.641
 6121TIP3    H218307   2.953   7.629   0.766
 6122TIP3   OH218308   6.709   1.709   3.861
 6122TIP3    H118309   6.722   1.728   3.768
 6122TIP3    H218310   6.646   1.774   3.891
 6123TIP3   OH218311   1.819   5.548   6.550
 6123TIP3    H118312   1.771   5.629   6.568
 6123TIP3    H218313   1.832   5.509   6.636
 6124TIP3   OH218314   2.839   2.075   4.106
 6124TIP3    H118315   2.767   2.060   4.046
 6124TIP3    H218316   2.904   2.009   4.083
 6125TIP3   OH218317   5.494   1.441   0.832
 6125TIP3    H118318   5.424   1.408   0.775
 6125TIP3    H218319   5.452   1.450   0.918
 6126TIP3   OH218320   1.700   2.713   0.389
 6126TIP3    H118321   1.732   2.803   0.396
 6126TIP3    H218322   1.633   2.706   0.457
 6127TIP3   OH218323   2.398   4.494   0.225
 6127TIP3    H118324   2.472   4.522   0.170
 6127TIP3    H218325   2.434   4.491   0.313
 6128TIP3   OH218326   2.383   1.352   0.056
 6128TIP3    H118327   2.403   1.444   0.042
 6128TIP3    H218328   2.288   1.346   0.055
 6129TIP3   OH218329   5.738   1.186   3.576
 6129TIP3    H118330   5.832   1.171   3.569
 6129TIP3    H218331   5.699   1.111   3.531
 6130TIP3   OH218332   5.180   7.606   0.577
 6130TIP3    H118333   5.218   7.677   0.630
 6130TIP3    H218334   5.091   7.595   0.611
 6131TIP3   OH218335   4.966   6.600   4.873
 6131TIP3    H118336   5.011   6.652   4.807
 6131TIP3    H218337   5.025   6.598   4.947
 6132TIP3   OH218338   1.116   3.903   1.823
 6132TIP3    H118339   1.148   3.828   1.872
 6132TIP3    H218340   1.121   3.876   1.731
 6133TIP3   OH218341   7.546   7.508   3.049
 6133TIP3    H118342   7.545   7.513   3.144
 6133TIP3    H218343   7.472   7.451   3.027
 6134TIP3   OH218344   7.018   6.118   0.349
 6134TIP3    H118345   6.930   6.081   0.337
 6134TIP3    H218346   7.052   6.129   0.260
 6135TIP3   OH218347   4.228   2.310   5.272
 6135TIP3    H118348   4.310   2.358   5.280
 6135TIP3    H218349   4.203   2.319   5.180
 6136TIP3   OH218350   0.719   5.474   1.365
 6136TIP3    H118351   0.708   5.521   1.448
 6136TIP3    H218352   0.813   5.471   1.350
 6137TIP3   OH218353   2.121   7.142   1.988
 6137TIP3    H118354   2.134   7.141   2.083
 6137TIP3    H218355   2.112   7.049   1.964
 6138TIP3   OH218356   2.220   4.009   1.212
 6138TIP3    H118357   2.259   3.938   1.262
 6138TIP3    H218358   2.165   4.056   1.275
 6139TIP3   OH218359   0.288   6.251   4.795
 6139TIP3    H118360   0.205   6.216   4.762
 6139TIP3    H218361   0.335   6.174   4.827
 6140TIP3   OH218362   5.112   6.339   4.351
 6140TIP3    H118363   5.162   6.317   4.430
 6140TIP3    H218364   5.020   6.336   4.379
 6141TIP3   OH218365   4.154   5.430   1.695
 6141TIP3    H118366   4.076   5.440   1.748
 6141TIP3    H218367   4.143   5.345   1.651
 6142TIP3   OH218368   3.860   4.608   4.478
 6142TIP3    H118369   3.903   4.665   4.414
 6142TIP3    H218370   3.860   4.658   4.559
 6143TIP3   OH218371   5.284   2.637   6.264
 6143TIP3    H118372   5.328   2.587   6.332
 6143TIP3    H218373   5.263   2.572   6.197
 6144TIP3   OH218374   4.952   7.113   5.219
 6144TIP3    H118375   5.045   7.128   5.201
 6144TIP3    H218376   4.931   7.170   5.293
 6145TIP3   OH218377   0.264   3.638   4.662
 6145TIP3    H118378   0.169   3.627   4.672
 6145TIP3    H218379   0.290   3.568   4.603
 6146TIP3   OH218380   6.968   5.582   2.796
 6146TIP3    H118381   7.027   5.512   2.822
 6146TIP3    H218382   7.015   5.629   2.726
 6147TIP3   OH218383   2.936   2.872   1.749
 6147TIP3    H118384   2.904   2.945   1.802
 6147TIP3    H218385   2.870   2.803   1.760
 6148TIP3   OH218386   7.880   0.329   5.696
 6148TIP3    H118387   7.845   0.256   5.748
 6148TIP3    H218388   7.935   0.377   5.757
 6149TIP3   OH218389   6.620   3.195   0.788
 6149TIP3    H118390   6.593   3.160   0.703
 6149TIP3    H218391   6.577   3.138   0.852
 6150TIP3   OH218392   3.225   5.288   2.032
 6150TIP3    H118393   3.186   5.311   2.117
 6150TIP3    H218394   3.306   5.242   2.054
 6151TIP3   OH218395   3.543   6.689   0.952
 6151TIP3    H118396   3.479   6.734   1.007
 6151TIP3    H218397   3.492   6.624   0.904
 6152TIP3   OH218398   6.883   0.531   5.849
 6152TIP3    H118399   6.958   0.576   5.888
 6152TIP3    H218400   6.846   0.480   5.921
 6153TIP3   OH218401   4.709   5.516   3.278
 6153TIP3    H118402   4.754   5.444   3.323
 6153TIP3    H218403   4.778   5.576   3.254
 6154TIP3   OH218404   7.449   2.088   5.537
 6154TIP3    H118405   7.471   2.131   5.620
 6154TIP3    H218406   7.524   2.032   5.518
 6155TIP3   OH218407   1.849   2.161   6.062
 6155TIP3    H118408   1.786   2.096   6.031
 6155TIP3    H218409   1.932   2.137   6.021
 6156TIP3   OH218410   7.259   4.425   6.187
 6156TIP3    H118411   7.271   4.470   6.103
 6156TIP3    H218412   7.303   4.481   6.251
 6157TIP3   OH218413   1.492   2.801   6.108
 6157TIP3    H118414   1.549   2.748   6.052
 6157TIP3    H218415   1.441   2.853   6.047
 6158TIP3   OH218416   3.432   1.310   4.176
 6158TIP3    H118417   3.400   1.355   4.255
 6158TIP3    H218418   3.524   1.291   4.195
 6159TIP3   OH218419   8.052   1.285   3.145
 6159TIP3    H118420   8.064   1.285   3.240
 6159TIP3    H218421   8.099   1.362   3.115
 6160TIP3   OH218422   0.869   1.683   5.808
 6160TIP3    H118423   0.880   1.688   5.713
 6160TIP3    H218424   0.829   1.598   5.823
 6161TIP3   OH218425   0.514   0.658   0.864
 6161TIP3    H118426   0.606   0.672   0.844
 6161TIP3    H218427   0.487   0.586   0.807
 6162TIP3   OH218428   7.559   6.038   4.159
 6162TIP3    H118429   7.619   6.100   4.117
 6162TIP3    H218430   7.516   5.993   4.086
 6163TIP3   OH218431   8.145   2.552   2.853
 6163TIP3    H118432   8.088   2.476   2.863
 6163TIP3    H218433   8.147   2.592   2.941
 6164TIP3   OH218434   7.461   0.652   4.311
 6164TIP3    H118435   7.402   0.693   4.248
 6164TIP3    H218436   7.545   0.648   4.266
 6165TIP3   OH218437   4.330   2.230   4.882
 6165TIP3    H118438   4.315   2.198   4.793
 6165TIP3    H218439   4.360   2.154   4.931
 6166TIP3   OH218440   8.161   0.502   1.388
 6166TIP3    H118441   8.153   0.458   1.472
 6166TIP3    H218442   8.086   0.562   1.385
 6167TIP3   OH218443   2.532   0.111   6.399
 6167TIP3    H118444   2.474   0.140   6.469
 6167TIP3    H218445   2.527   0.015   6.403
 6168TIP3   OH218446   0.158   3.069   5.690
 6168TIP3    H118447   0.198   3.130   5.752
 6168TIP3    H218448   0.214   3.072   5.613
 6169TIP3   OH218449   5.724   2.906   2.596
 6169TIP3    H118450   5.671   2.970   2.644
 6169TIP3    H218451   5.799   2.956   2.565
 6170TIP3   OH218452   1.539   0.628   5.002
 6170TIP3    H118453   1.559   0.557   4.941
 6170TIP3    H218454   1.624   0.666   5.023
 6171TIP3   OH218455   0.248   3.828   6.655
 6171TIP3    H118456   0.336   3.817   6.691
 6171TIP3    H218457   0.261   3.882   6.577
 6172TIP3   OH218458   4.035   2.914   1.790
 6172TIP3    H118459   4.058   2.937   1.700
 6172TIP3    H218460   3.947   2.950   1.802
 6173TIP3   OH218461   6.600   1.828   4.861
 6173TIP3    H118462   6.595   1.893   4.791
 6173TIP3    H218463   6.687   1.789   4.852
 6174TIP3   OH218464   6.370   0.514   4.360
 6174TIP3    H118465   6.289   0.517   4.411
 6174TIP3    H218466   6.411   0.431   4.384
 6175TIP3   OH218467   3.211   2.009   5.616
 6175TIP3    H118468   3.178   1.964   5.693
 6175TIP3    H218469   3.134   2.022   5.561
 6176TIP3   OH218470   4.379   3.456   4.286
 6176TIP3    H118471   4.392   3.550   4.274
 6176TIP3    H218472   4.460   3.416   4.254
 6177TIP3   OH218473   5.480   6.361   0.577
 6177TIP3    H118474   5.421   6.289   0.598
 6177TIP3    H218475   5.434   6.410   0.509
 6178TIP3   OH218476   1.133   2.102   4.153
 6178TIP3    H118477   1.089   2.167   4.098
 6178TIP3    H218478   1.098   2.018   4.123
 6179TIP3   OH218479   2.043   7.458   6.181
 6179TIP3    H118480   1.951   7.445   6.202
 6179TIP3    H218481   2.044   7.480   6.088
 6180TIP3   OH218482   4.509   1.980   2.405
 6180TIP3    H118483   4.434   1.921   2.394
 6180TIP3    H218484   4.501   2.041   2.331
 6181TIP3   OH218485   4.561   4.357   6.687
 6181TIP3    H118486   4.573   4.406   6.606
 6181TIP3    H218487   4.467   4.342   6.693
 6182TIP3   OH218488   7.228   2.801   3.019
 6182TIP3    H118489   7.233   2.890   2.984
 6182TIP3    H218490   7.135   2.777   3.009
 6183TIP3   OH218491   3.865   2.271   1.665
 6183TIP3    H118492   3.804   2.197   1.664
 6183TIP3    H218493   3.815   2.342   1.705
 6184TIP3   OH218494   0.543   0.067   2.578
 6184TIP3    H118495   0.614   0.012   2.610
 6184TIP3    H218496   0.539   0.049   2.484
 6185TIP3   OH218497   6.576   3.247   2.207
 6185TIP3    H118498   6.510   3.199   2.259
 6185TIP3    H218499   6.596   3.188   2.135
 6186TIP3   OH218500   2.209   5.387   2.509
 6186TIP3    H118501   2.285   5.394   2.566
 6186TIP3    H218502   2.192   5.293   2.503
 6187TIP3   OH218503   4.985   1.881   4.383
 6187TIP3    H118504   4.972   1.793   4.418
 6187TIP3    H218505   5.080   1.894   4.383
 6188TIP3   OH218506   1.055   0.981   0.165
 6188TIP3    H118507   1.026   0.971   0.255
 6188TIP3    H218508   1.118   1.054   0.168
 6189TIP3   OH218509   3.670   3.665   6.213
 6189TIP3    H118510   3.661   3.757   6.239
 6189TIP3    H218511   3.677   3.617   6.295
 6190TIP3   OH218512   7.447   2.282   3.047
 6190TIP3    H118513   7.504   2.214   3.084
 6190TIP3    H218514   7.458   2.274   2.953
 6191TIP3   OH218515   1.727   6.295   0.010
 6191TIP3    H118516   1.724   6.209  -0.032
 6191TIP3    H218517   1.687   6.280   0.096
 6192TIP3   OH218518   0.617   1.600   3.315
 6192TIP3    H118519   0.689   1.664   3.322
 6192TIP3    H218520   0.629   1.560   3.229
 6193TIP3   OH218521   0.600   6.007   3.566
 6193TIP3    H118522   0.649   6.032   3.488
 6193TIP3    H218523   0.558   5.924   3.543
 6194TIP3   OH218524   7.107   5.750   1.347
 6194TIP3    H118525   7.022   5.794   1.342
 6194TIP3    H218526   7.164   5.802   1.290
 6195TIP3   OH218527   1.494   4.568   6.075
 6195TIP3    H118528   1.421   4.529   6.027
 6195TIP3    H218529   1.463   4.575   6.165
 6196TIP3   OH218530   7.461   0.318   5.787
 6196TIP3    H118531   7.448   0.229   5.820
 6196TIP3    H218532   7.427   0.317   5.698
 6197TIP3   OH218533   2.180   6.781   5.662
 6197TIP3    H118534   2.214   6.695   5.638
 6197TIP3    H218535   2.101   6.763   5.713
 6198TIP3   OH218536   5.777   3.226   4.014
 6198TIP3    H118537   5.827   3.162   4.064
 6198TIP3    H218538   5.693   3.183   3.998
 6199TIP3   OH218539   2.113   2.096   6.170
 6199TIP3    H118540   2.127   2.184   6.206
 6199TIP3    H218541   2.110   2.110   6.075
 6200TIP3   OH218542   1.743   4.064   1.081
 6200TIP3    H118543   1.801   4.135   1.053
 6200TIP3    H218544   1.799   4.005   1.130
 6201TIP3   OH218545   5.702   1.563   4.902
 6201TIP3    H118546   5.696   1.554   4.806
 6201TIP3    H218547   5.654   1.487   4.935
 6202TIP3   OH218548   2.130   6.526   1.368
 6202TIP3    H118549   2.210   6.529   1.421
 6202TIP3    H218550   2.121   6.614   1.332
 6203TIP3   OH218551   3.858   5.275   4.100
 6203TIP3    H118552   3.811   5.304   4.178
 6203TIP3    H218553   3.833   5.183   4.090
 6204TIP3   OH218554   7.703   6.691   5.335
 6204TIP3    H118555   7.637   6.761   5.334
 6204TIP3    H218556   7.659   6.616   5.295
 6205TIP3   OH218557   2.693   5.183   0.392
 6205TIP3    H118558   2.786   5.168   0.375
 6205TIP3    H218559   2.687   5.192   0.487
 6206TIP3   OH218560   7.107   1.808   1.281
 6206TIP3    H118561   7.181   1.845   1.329
 6206TIP3    H218562   7.134   1.810   1.189
 6207TIP3   OH218563   3.285   0.120   3.592
 6207TIP3    H118564   3.213   0.066   3.562
 6207TIP3    H218565   3.299   0.183   3.522
 6208TIP3   OH218566   6.102   5.863   4.923
 6208TIP3    H118567   6.130   5.772   4.913
 6208TIP3    H218568   6.045   5.863   5.000
 6209TIP3   OH218569   6.307   2.634   4.715
 6209TIP3    H118570   6.350   2.675   4.641
 6209TIP3    H218571   6.223   2.680   4.723
 6210TIP3   OH218572   0.742   0.579   3.822
 6210TIP3    H118573   0.707   0.637   3.890
 6210TIP3    H218574   0.804   0.634   3.773
 6211TIP3   OH218575   4.277   6.013   3.515
 6211TIP3    H118576   4.293   6.070   3.590
 6211TIP3    H218577   4.348   5.949   3.518
 6212TIP3   OH218578   7.727   3.170   0.276
 6212TIP3    H118579   7.633   3.177   0.290
 6212TIP3    H218580   7.737   3.098   0.214
 6213TIP3   OH218581   3.742   0.901   0.290
 6213TIP3    H118582   3.792   0.886   0.210
 6213TIP3    H218583   3.654   0.870   0.270
 6214TIP3   OH218584   6.634   2.261   4.477
 6214TIP3    H118585   6.631   2.231   4.568
 6214TIP3    H218586   6.678   2.190   4.430
 6215TIP3   OH218587   6.472   3.043   5.375
 6215TIP3    H118588   6.479   2.955   5.411
 6215TIP3    H218589   6.454   3.030   5.281
 6216TIP3   OH218590   4.956   7.442   4.251
 6216TIP3    H118591   5.017   7.397   4.193
 6216TIP3    H218592   4.881   7.383   4.257
 6217TIP3   OH218593   6.237   0.982   0.799
 6217TIP3    H118594   6.304   1.000   0.866
 6217TIP3    H218595   6.274   0.912   0.747
 6218TIP3   OH218596   5.653   6.940   1.787
 6218TIP3    H118597   5.567   6.900   1.772
 6218TIP3    H218598   5.715   6.874   1.757
 6219TIP3   OH218599   0.111   2.408   1.475
 6219TIP3    H118600   0.066   2.370   1.400
 6219TIP3    H218601   0.106   2.503   1.460
 6220TIP3   OH218602   5.175   4.284   1.442
 6220TIP3    H118603   5.114   4.346   1.401
 6220TIP3    H218604   5.218   4.334   1.511
 6221TIP3   OH218605   7.336   5.082   1.921
 6221TIP3    H118606   7.304   5.094   1.832
 6221TIP3    H218607   7.258   5.095   1.976
 6222TIP3   OH218608   5.804   7.692   3.871
 6222TIP3    H118609   5.894   7.708   3.842
 6222TIP3    H218610   5.811   7.679   3.965
 6223TIP3   OH218611   4.906   2.514   2.159
 6223TIP3    H118612   4.935   2.605   2.168
 6223TIP3    H218613   4.815   2.515   2.190
 6224TIP3   OH218614   3.510   6.864   0.246
 6224TIP3    H118615   3.582   6.923   0.271
 6224TIP3    H218616   3.449   6.869   0.319
 6225TIP3   OH218617   0.227   4.511   5.025
 6225TIP3    H118618   0.268   4.481   4.944
 6225TIP3    H218619   0.300   4.540   5.080
 6226TIP3   OH218620   1.080   2.031   0.761
 6226TIP3    H118621   1.163   2.044   0.714
 6226TIP3    H218622   1.016   2.013   0.693
 6227TIP3   OH218623   4.743   1.988   2.531
 6227TIP3    H118624   4.787   1.956   2.451
 6227TIP3    H218625   4.650   1.989   2.508
 6228TIP3   OH218626   7.443   0.458   0.271
 6228TIP3    H118627   7.433   0.549   0.296
 6228TIP3    H218628   7.526   0.431   0.311
 6229TIP3   OH218629   4.332   3.022   2.675
 6229TIP3    H118630   4.406   3.009   2.735
 6229TIP3    H218631   4.292   2.935   2.667
 6230TIP3   OH218632   4.074   5.851   1.150
 6230TIP3    H118633   4.001   5.789   1.151
 6230TIP3    H218634   4.152   5.796   1.161
 6231TIP3   OH218635   0.535   4.786   2.245
 6231TIP3    H118636   0.521   4.748   2.158
 6231TIP3    H218637   0.447   4.802   2.278
 6232TIP3   OH218638   6.919   1.040   5.484
 6232TIP3    H118639   6.929   1.020   5.391
 6232TIP3    H218640   6.851   1.107   5.488
 6233TIP3   OH218641   7.826   6.335   6.067
 6233TIP3    H118642   7.857   6.276   5.998
 6233TIP3    H218643   7.768   6.281   6.120
 6234TIP3   OH218644   6.216   7.673   2.765
 6234TIP3    H118645   6.302   7.658   2.803
 6234TIP3    H218646   6.206   7.604   2.699
 6235TIP3   OH218647   7.172   0.195   0.690
 6235TIP3    H118648   7.096   0.251   0.675
 6235TIP3    H218649   7.205   0.222   0.775
 6236TIP3   OH218650   1.203   0.967   3.977
 6236TIP3    H118651   1.279   0.917   4.006
 6236TIP3    H218652   1.140   0.959   4.049
 6237TIP3   OH218653   7.386   3.715   0.401
 6237TIP3    H118654   7.448   3.717   0.328
 6237TIP3    H218655   7.309   3.762   0.368
 6238TIP3   OH218656   4.740   1.232   6.087
 6238TIP3    H118657   4.707   1.159   6.139
 6238TIP3    H218658   4.787   1.287   6.150
 6239TIP3   OH218659   2.899   6.756   1.198
 6239TIP3    H118660   2.934   6.772   1.110
 6239TIP3    H218661   2.928   6.832   1.249
 6240TIP3   OH218662   7.479   0.719   6.360
 6240TIP3    H118663   7.502   0.802   6.318
 6240TIP3    H218664   7.562   0.674   6.373
 6241TIP3   OH218665   2.927   1.276   5.484
 6241TIP3    H118666   2.875   1.307   5.559
 6241TIP3    H218667   2.990   1.346   5.469
 6242TIP3   OH218668   1.054   5.687   6.356
 6242TIP3    H118669   1.055   5.641   6.272
 6242TIP3    H218670   1.095   5.627   6.418
 6243TIP3   OH218671   5.358   3.345   0.432
 6243TIP3    H118672   5.406   3.362   0.351
 6243TIP3    H218673   5.308   3.265   0.414
 6244TIP3   OH218674   4.117   3.600   4.418
 6244TIP3    H118675   4.173   3.593   4.495
 6244TIP3    H218676   4.092   3.692   4.415
 6245TIP3   OH218677   5.109   3.588   2.316
 6245TIP3    H118678   5.036   3.543   2.274
 6245TIP3    H218679   5.183   3.578   2.256
 6246TIP3   OH218680   2.222   0.560   4.490
 6246TIP3    H118681   2.259   0.617   4.422
 6246TIP3    H218682   2.298   0.512   4.524
 6247TIP3   OH218683   4.754   7.386   3.477
 6247TIP3    H118684   4.730   7.329   3.550
 6247TIP3    H218685   4.694   7.361   3.407
 6248TIP3   OH218686   6.366   6.611   1.460
 6248TIP3    H118687   6.420   6.533   1.469
 6248TIP3    H218688   6.406   6.675   1.518
 6249TIP3   OH218689   6.670   0.406   0.272
 6249TIP3    H118690   6.707   0.494   0.274
 6249TIP3    H218691   6.583   0.418   0.233
 6250TIP3   OH218692   2.738   6.912   0.177
 6250TIP3    H118693   2.676   6.868   0.236
 6250TIP3    H218694   2.683   6.969   0.123
 6251TIP3   OH218695   2.738   7.658   5.222
 6251TIP3    H118696   2.722   7.684   5.313
 6251TIP3    H218697   2.702   7.569   5.215
 6252TIP3   OH218698   4.545   3.268   2.587
 6252TIP3    H118699   4.507   3.187   2.619
 6252TIP3    H218700   4.601   3.241   2.513
 6253TIP3   OH218701   1.436   6.443   0.213
 6253TIP3    H118702   1.459   6.350   0.204
 6253TIP3    H218703   1.519   6.486   0.232
 6254TIP3   OH218704   0.471   2.706   2.049
 6254TIP3    H118705   0.388   2.697   2.002
 6254TIP3    H218706   0.499   2.616   2.065
 6255TIP3   OH218707   1.164   0.964   1.867
 6255TIP3    H118708   1.164   1.031   1.935
 6255TIP3    H218709   1.154   1.013   1.785
 6256TIP3   OH218710   5.242   6.944   0.647
 6256TIP3    H118711   5.250   6.998   0.569
 6256TIP3    H218712   5.156   6.902   0.638
 6257TIP3   OH218713   2.721   3.076   3.085
 6257TIP3    H118714   2.810   3.040   3.088
 6257TIP3    H218715   2.685   3.046   3.002
 6258TIP3   OH218716   3.014   5.322   3.863
 6258TIP3    H118717   2.939   5.269   3.890
 6258TIP3    H218718   3.034   5.375   3.940
 6259TIP3   OH218719   4.691   7.041   2.574
 6259TIP3    H118720   4.705   7.088   2.656
 6259TIP3    H218721   4.760   7.074   2.516
 6260TIP3   OH218722   5.990   1.992   4.050
 6260TIP3    H118723   6.038   2.047   4.111
 6260TIP3    H218724   5.968   2.049   3.977
 6261TIP3   OH218725   5.333   6.286   0.089
 6261TIP3    H118726   5.279   6.209   0.070
 6261TIP3    H218727   5.421   6.263   0.059
 6262TIP3   OH218728   8.097   6.034   1.979
 6262TIP3    H118729   8.127   6.024   1.889
 6262TIP3    H218730   8.040   5.959   1.994
 6263TIP3   OH218731   0.305   7.747   3.028
 6263TIP3    H118732   0.243   7.680   3.001
 6263TIP3    H218733   0.389   7.718   2.992
 6264TIP3   OH218734   1.613   6.257   2.180
 6264TIP3    H118735   1.664   6.178   2.162
 6264TIP3    H218736   1.638   6.318   2.110
 6265TIP3   OH218737   2.351   4.008   6.155
 6265TIP3    H118738   2.293   4.023   6.080
 6265TIP3    H218739   2.295   3.967   6.221
 6266TIP3   OH218740   3.025   2.655   2.661
 6266TIP3    H118741   3.049   2.735   2.615
 6266TIP3    H218742   3.090   2.591   2.633
 6267TIP3   OH218743   5.513   4.942   5.596
 6267TIP3    H118744   5.482   4.881   5.662
 6267TIP3    H218745   5.461   4.921   5.518
 6268TIP3   OH218746   4.560   4.776   3.837
 6268TIP3    H118747   4.543   4.685   3.863
 6268TIP3    H218748   4.565   4.773   3.741
 6269TIP3   OH218749   6.764   0.886   0.207
 6269TIP3    H118750   6.838   0.865   0.264
 6269TIP3    H218751   6.693   0.832   0.239
 6270TIP3   OH218752   2.333   5.177   5.852
 6270TIP3    H118753   2.269   5.234   5.895
 6270TIP3    H218754   2.335   5.099   5.907
 6271TIP3   OH218755   4.583   3.863   6.325
 6271TIP3    H118756   4.565   3.952   6.356
 6271TIP3    H218757   4.655   3.833   6.380
 6272TIP3   OH218758   3.666   7.467   5.122
 6272TIP3    H118759   3.580   7.480   5.081
 6272TIP3    H218760   3.729   7.495   5.056
 6273TIP3   OH218761   5.041   2.205   4.064
 6273TIP3    H118762   5.066   2.145   3.994
 6273TIP3    H218763   5.120   2.258   4.079
 6274TIP3   OH218764   6.706   1.414   3.767
 6274TIP3    H118765   6.670   1.422   3.679
 6274TIP3    H218766   6.632   1.434   3.825
 6275TIP3   OH218767   7.931   3.581   0.286
 6275TIP3    H118768   7.905   3.671   0.268
 6275TIP3    H218769   8.018   3.588   0.324
 6276TIP3   OH218770   0.764   4.524   5.515
 6276TIP3    H118771   0.676   4.538   5.551
 6276TIP3    H218772   0.748   4.493   5.425
 6277TIP3   OH218773   8.030   3.126   2.384
 6277TIP3    H118774   8.098   3.107   2.319
 6277TIP3    H218775   7.955   3.072   2.356
 6278TIP3   OH218776   5.030   7.339   6.516
 6278TIP3    H118777   5.059   7.324   6.607
 6278TIP3    H218778   5.093   7.404   6.482
 6279TIP3   OH218779   3.096   3.779   3.751
 6279TIP3    H118780   3.142   3.773   3.834
 6279TIP3    H218781   3.101   3.871   3.726
 6280TIP3   OH218782   5.826   2.917   3.829
 6280TIP3    H118783   5.888   2.976   3.787
 6280TIP3    H218784   5.752   2.973   3.853
 6281TIP3   OH218785   2.006   4.941   5.808
 6281TIP3    H118786   1.916   4.908   5.811
 6281TIP3    H218787   2.018   4.968   5.717
 6282TIP3   OH218788   4.510   6.023   4.224
 6282TIP3    H118789   4.431   6.031   4.276
 6282TIP3    H218790   4.563   6.099   4.249
 6283TIP3   OH218791   3.434   5.594   6.535
 6283TIP3    H118792   3.417   5.679   6.494
 6283TIP3    H218793   3.412   5.530   6.468
 6284TIP3   OH218794   4.774   3.058   1.042
 6284TIP3    H118795   4.820   3.002   1.105
 6284TIP3    H218796   4.819   3.142   1.046
 6285TIP3   OH218797   5.616   3.300   0.521
 6285TIP3    H118798   5.533   3.282   0.477
 6285TIP3    H218799   5.622   3.396   0.522
 6286TIP3   OH218800   0.947   1.274   6.498
 6286TIP3    H118801   0.972   1.348   6.553
 6286TIP3    H218802   0.922   1.314   6.414
 6287TIP3   OH218803   7.811   0.835   1.995
 6287TIP3    H118804   7.894   0.882   2.006
 6287TIP3    H218805   7.836   0.743   1.990
 6288TIP3   OH218806   0.260   4.513   0.138
 6288TIP3    H118807   0.220   4.435   0.099
 6288TIP3    H218808   0.337   4.530   0.083
 6289TIP3   OH218809   2.695   3.559   0.951
 6289TIP3    H118810   2.677   3.493   1.017
 6289TIP3    H218811   2.787   3.547   0.929
 6290TIP3   OH218812   0.951   2.601   5.386
 6290TIP3    H118813   0.912   2.674   5.338
 6290TIP3    H218814   1.023   2.639   5.435
 6291TIP3   OH218815   7.199   7.763   2.930
 6291TIP3    H118816   7.193   7.753   3.025
 6291TIP3    H218817   7.229   7.678   2.898
 6292TIP3   OH218818   3.753   0.558   1.591
 6292TIP3    H118819   3.667   0.520   1.612
 6292TIP3    H218820   3.814   0.485   1.599
 6293TIP3   OH218821   3.280   2.576   0.352
 6293TIP3    H118822   3.298   2.514   0.423
 6293TIP3    H218823   3.185   2.586   0.353
 6294TIP3   OH218824   4.591   1.567   6.650
 6294TIP3    H118825   4.662   1.609   6.699
 6294TIP3    H218826   4.634   1.526   6.575
 6295TIP3   OH218827   8.185   3.192   4.114
 6295TIP3    H118828   8.265   3.225   4.075
 6295TIP3    H218829   8.140   3.270   4.147
 6296TIP3   OH218830   5.719   7.267   2.715
 6296TIP3    H118831   5.728   7.328   2.788
 6296TIP3    H218832   5.778   7.300   2.647
 6297TIP3   OH218833   0.941   6.184   4.071
 6297TIP3    H118834   1.000   6.182   3.995
 6297TIP3    H218835   0.900   6.097   4.071
 6298TIP3   OH218836   2.793   1.145   0.800
 6298TIP3    H118837   2.781   1.129   0.893
 6298TIP3    H218838   2.881   1.181   0.792
 6299TIP3   OH218839   0.906   3.838   5.200
 6299TIP3    H118840   0.940   3.824   5.112
 6299TIP3    H218841   0.909   3.933   5.213
 6300TIP3   OH218842   0.416   6.883   0.109
 6300TIP3    H118843   0.389   6.975   0.114
 6300TIP3    H218844   0.454   6.864   0.195
 6301TIP3   OH218845   0.390   1.944   4.244
 6301TIP3    H118846   0.315   1.958   4.301
 6301TIP3    H218847   0.405   2.029   4.203
 6302TIP3   OH218848   3.216   4.964   1.363
 6302TIP3    H118849   3.258   5.014   1.433
 6302TIP3    H218850   3.249   4.875   1.374
 6303TIP3   OH218851   7.865   3.500   5.882
 6303TIP3    H118852   7.923   3.445   5.831
 6303TIP3    H218853   7.779   3.458   5.875
 6304TIP3   OH218854   5.410   4.770   5.807
 6304TIP3    H118855   5.340   4.834   5.818
 6304TIP3    H218856   5.372   4.703   5.750
 6305TIP3   OH218857   2.554   6.148   5.746
 6305TIP3    H118858   2.517   6.061   5.734
 6305TIP3    H218859   2.648   6.133   5.758
 6306TIP3   OH218860   7.660   4.891   3.809
 6306TIP3    H118861   7.748   4.922   3.790
 6306TIP3    H218862   7.656   4.886   3.904
 6307TIP3   OH218863   4.053   0.523   2.045
 6307TIP3    H118864   4.098   0.527   1.960
 6307TIP3    H218865   4.044   0.614   2.072
 6308TIP3   OH218866   0.594   2.244   2.469
 6308TIP3    H118867   0.655   2.224   2.540
 6308TIP3    H218868   0.533   2.171   2.468
 6309TIP3   OH218869   3.886   0.332   3.266
 6309TIP3    H118870   3.821   0.278   3.310
 6309TIP3    H218871   3.844   0.417   3.256
 6310TIP3   OH218872   6.527   6.854   5.133
 6310TIP3    H118873   6.444   6.807   5.126
 6310TIP3    H218874   6.517   6.930   5.076
 6311TIP3   OH218875   3.830   5.298   2.132
 6311TIP3    H118876   3.781   5.218   2.111
 6311TIP3    H218877   3.922   5.272   2.127
 6312TIP3   OH218878   4.096   1.285   2.424
 6312TIP3    H118879   4.039   1.316   2.353
 6312TIP3    H218880   4.167   1.349   2.426
 6313TIP3   OH218881   1.487   5.668   5.689
 6313TIP3    H118882   1.572   5.709   5.702
 6313TIP3    H218883   1.496   5.581   5.730
 6314TIP3   OH218884   6.845   4.154   6.195
 6314TIP3    H118885   6.900   4.227   6.168
 6314TIP3    H218886   6.798   4.186   6.271
 6315TIP3   OH218887   6.766   5.053   0.840
 6315TIP3    H118888   6.781   5.026   0.931
 6315TIP3    H218889   6.775   4.972   0.789
 6316TIP3   OH218890   2.356   1.654   2.253
 6316TIP3    H118891   2.446   1.641   2.284
 6316TIP3    H218892   2.366   1.680   2.161
 6317TIP3   OH218893   4.428   6.120   5.600
 6317TIP3    H118894   4.463   6.094   5.685
 6317TIP3    H218895   4.339   6.085   5.599
 6318TIP3   OH218896   4.817   3.913   0.097
 6318TIP3    H118897   4.739   3.857   0.102
 6318TIP3    H218898   4.831   3.943   0.187
 6319TIP3   OH218899   7.893   0.732   4.647
 6319TIP3    H118900   7.974   0.777   4.621
 6319TIP3    H218901   7.918   0.640   4.653
 6320TIP3   OH218902   0.449   0.044   2.324
 6320TIP3    H118903   0.429   0.136   2.308
 6320TIP3    H218904   0.386  -0.004   2.269
 6321TIP3   OH218905   7.967   4.370   3.666
 6321TIP3    H118906   7.919   4.419   3.599
 6321TIP3    H218907   7.954   4.420   3.746
 6322TIP3   OH218908   3.793   2.493   2.523
 6322TIP3    H118909   3.798   2.588   2.530
 6322TIP3    H218910   3.812   2.461   2.611
 6323TIP3   OH218911   2.430   6.353   1.096
 6323TIP3    H118912   2.334   6.347   1.090
 6323TIP3    H218913   2.462   6.271   1.059
 6324TIP3   OH218914   1.516   4.560   0.333
 6324TIP3    H118915   1.429   4.525   0.316
 6324TIP3    H218916   1.501   4.637   0.389
 6325TIP3   OH218917   0.921   6.066   3.093
 6325TIP3    H118918   1.011   6.077   3.124
 6325TIP3    H218919   0.927   6.072   2.998
 6326TIP3   OH218920   1.750   0.233   5.700
 6326TIP3    H118921   1.832   0.258   5.657
 6326TIP3    H218922   1.684   0.236   5.631
 6327TIP3   OH218923   6.575   3.001   2.526
 6327TIP3    H118924   6.504   3.063   2.511
 6327TIP3    H218925   6.608   3.023   2.613
 6328TIP3   OH218926   5.744   2.112   1.627
 6328TIP3    H118927   5.655   2.130   1.659
 6328TIP3    H218928   5.766   2.188   1.573
 6329TIP3   OH218929   4.197   1.158   3.896
 6329TIP3    H118930   4.112   1.164   3.853
 6329TIP3    H218931   4.259   1.145   3.825
 6330TIP3   OH218932   2.559   3.507   6.123
 6330TIP3    H118933   2.519   3.586   6.087
 6330TIP3    H218934   2.652   3.527   6.128
 6331TIP3   OH218935   6.268   3.423   6.138
 6331TIP3    H118936   6.184   3.468   6.151
 6331TIP3    H218937   6.325   3.489   6.101
 6332TIP3   OH218938   1.795   0.952   2.589
 6332TIP3    H118939   1.858   0.978   2.522
 6332TIP3    H218940   1.721   0.917   2.539
 6333TIP3   OH218941   0.055   0.841   3.307
 6333TIP3    H118942  -0.032   0.812   3.336
 6333TIP3    H218943   0.110   0.762   3.313
 6334TIP3   OH218944   4.307   6.933   5.715
 6334TIP3    H118945   4.274   6.844   5.703
 6334TIP3    H218946   4.368   6.946   5.642
 6335TIP3   OH218947   0.998   4.938   1.207
 6335TIP3    H118948   0.928   4.996   1.175
 6335TIP3    H218949   1.050   4.918   1.129
 6336TIP3   OH218950   2.745   3.612   3.084
 6336TIP3    H118951   2.760   3.520   3.063
 6336TIP3    H218952   2.692   3.611   3.163
 6337TIP3   OH218953   6.953   0.139   1.755
 6337TIP3    H118954   7.026   0.079   1.760
 6337TIP3    H218955   6.982   0.208   1.695
 6338TIP3   OH218956   4.414   7.176   2.753
 6338TIP3    H118957   4.379   7.215   2.674
 6338TIP3    H218958   4.391   7.084   2.747
 6339TIP3   OH218959   6.105   0.498   1.066
 6339TIP3    H118960   6.056   0.576   1.040
 6339TIP3    H218961   6.116   0.506   1.160
 6340TIP3   OH218962   7.508   2.380   5.469
 6340TIP3    H118963   7.564   2.324   5.523
 6340TIP3    H218964   7.424   2.382   5.516
 6341TIP3   OH218965   6.362   3.402   5.344
 6341TIP3    H118966   6.320   3.335   5.289
 6341TIP3    H218967   6.298   3.473   5.348
 6342TIP3   OH218968   3.533   5.557   2.290
 6342TIP3    H118969   3.542   5.598   2.204
 6342TIP3    H218970   3.439   5.538   2.299
 6343TIP3   OH218971   0.676   5.005   6.071
 6343TIP3    H118972   0.612   4.984   6.139
 6343TIP3    H218973   0.634   4.979   5.989
 6344TIP3   OH218974   2.377   5.573   5.550
 6344TIP3    H118975   2.399   5.502   5.611
 6344TIP3    H218976   2.286   5.594   5.570
 6345TIP3   OH218977   1.238   0.827   5.255
 6345TIP3    H118978   1.155   0.788   5.281
 6345TIP3    H218979   1.237   0.913   5.296
 6346TIP3   OH218980   0.245   2.128   2.305
 6346TIP3    H118981   0.311   2.091   2.364
 6346TIP3    H218982   0.290   2.134   2.221
 6347TIP3   OH218983   2.961   6.696   2.674
 6347TIP3    H118984   2.905   6.762   2.715
 6347TIP3    H218985   2.987   6.639   2.746
 6348TIP3   OH218986   4.604   4.988   1.260
 6348TIP3    H118987   4.571   5.053   1.198
 6348TIP3    H218988   4.525   4.944   1.293
 6349TIP3   OH218989   4.570   4.709   0.675
 6349TIP3    H118990   4.526   4.706   0.760
 6349TIP3    H218991   4.527   4.642   0.623
 6350TIP3   OH218992   4.048   4.552   6.027
 6350TIP3    H118993   4.056   4.629   5.971
 6350TIP3    H218994   3.985   4.496   5.982
 6351TIP3   OH218995   0.841   5.781   5.599
 6351TIP3    H118996   0.796   5.815   5.676
 6351TIP3    H218997   0.794   5.818   5.525
 6352TIP3   OH218998   8.351   1.374   4.578
 6352TIP3    H118999   8.303   1.365   4.660
 6352TIP3    H219000   8.291   1.342   4.511
 6353TIP3   OH219001   1.513   0.743   5.319
 6353TIP3    H119002   1.524   0.806   5.390
 6353TIP3    H219003   1.418   0.729   5.314
 6354TIP3   OH219004   2.857   5.322   1.193
 6354TIP3    H119005   2.775   5.323   1.243
 6354TIP3    H219006   2.847   5.393   1.130
 6355TIP3   OH219007   2.184   3.776   0.209
 6355TIP3    H119008   2.266   3.726   0.211
 6355TIP3    H219009   2.177   3.814   0.296
 6356TIP3   OH219010   6.264   0.060   0.452
 6356TIP3    H119011   6.248   0.072   0.546
 6356TIP3    H219012   6.244   0.146   0.414
 6357TIP3   OH219013   2.604   3.482   2.541
 6357TIP3    H119014   2.519   3.466   2.581
 6357TIP3    H219015   2.651   3.535   2.605
 6358TIP3   OH219016   3.890   4.136   1.751
 6358TIP3    H119017   3.801   4.120   1.720
 6358TIP3    H219018   3.911   4.224   1.720
 6359TIP3   OH219019   7.213   3.241   1.870
 6359TIP3    H119020   7.182   3.331   1.858
 6359TIP3    H219021   7.297   3.239   1.823
 6360TIP3   OH219022   8.112   0.817   2.872
 6360TIP3    H119023   8.080   0.890   2.924
 6360TIP3    H219024   8.206   0.834   2.861
 6361TIP3   OH219025   5.952   5.004   4.610
 6361TIP3    H119026   6.011   4.985   4.537
 6361TIP3    H219027   5.877   4.945   4.595
 6362TIP3   OH219028   2.103   4.425   3.520
 6362TIP3    H119029   2.188   4.468   3.527
 6362TIP3    H219030   2.069   4.453   3.434
 6363TIP3   OH219031   5.224   3.948   3.394
 6363TIP3    H119032   5.132   3.945   3.422
 6363TIP3    H219033   5.252   3.856   3.396
 6364TIP3   OH219034   6.675   2.733   2.882
 6364TIP3    H119035   6.597   2.680   2.900
 6364TIP3    H219036   6.699   2.711   2.792
 6365TIP3   OH219037   5.841   4.244   2.622
 6365TIP3    H119038   5.927   4.253   2.580
 6365TIP3    H219039   5.827   4.328   2.666
 6366TIP3   OH219040   6.819   6.004   1.063
 6366TIP3    H119041   6.910   5.986   1.042
 6366TIP3    H219042   6.769   5.951   1.001
 6367TIP3   OH219043   3.932   4.624   6.269
 6367TIP3    H119044   3.964   4.711   6.293
 6367TIP3    H219045   3.965   4.610   6.181
 6368TIP3   OH219046   7.251   5.709   0.533
 6368TIP3    H119047   7.204   5.793   0.538
 6368TIP3    H219048   7.187   5.644   0.561
 6369TIP3   OH219049   0.383   0.074   1.316
 6369TIP3    H119050   0.427   0.088   1.399
 6369TIP3    H219051   0.301   0.122   1.323
 6370TIP3   OH219052   5.227   5.044   0.210
 6370TIP3    H119053   5.187   4.959   0.189
 6370TIP3    H219054   5.288   5.059   0.138
 6371TIP3   OH219055   4.814   1.427   0.562
 6371TIP3    H119056   4.819   1.427   0.466
 6371TIP3    H219057   4.904   1.436   0.592
 6372TIP3   OH219058   1.251   2.120   3.078
 6372TIP3    H119059   1.236   2.137   2.985
 6372TIP3    H219060   1.226   2.202   3.121
 6373TIP3   OH219061   6.218   4.069   4.231
 6373TIP3    H119062   6.271   4.085   4.154
 6373TIP3    H219063   6.280   4.043   4.299
 6374TIP3   OH219064   5.957   3.817   5.810
 6374TIP3    H119065   5.892   3.747   5.820
 6374TIP3    H219066   6.041   3.772   5.804
 6375TIP3   OH219067   8.216   1.904   6.386
 6375TIP3    H119068   8.236   1.821   6.429
 6375TIP3    H219069   8.227   1.970   6.454
 6376TIP3   OH219070   8.252   1.941   4.899
 6376TIP3    H119071   8.263   2.010   4.965
 6376TIP3    H219072   8.269   1.985   4.816
 6377TIP3   OH219073   6.372   0.423   4.093
 6377TIP3    H119074   6.353   0.469   4.175
 6377TIP3    H219075   6.447   0.367   4.113
 6378TIP3   OH219076   7.298   0.858   2.806
 6378TIP3    H119077   7.244   0.934   2.826
 6378TIP3    H219078   7.368   0.860   2.871
 6379TIP3   OH219079   5.136   4.073   0.369
 6379TIP3    H119080   5.126   4.130   0.293
 6379TIP3    H219081   5.076   4.110   0.435
 6380TIP3   OH219082   6.562   0.717   0.307
 6380TIP3    H119083   6.497   0.730   0.377
 6380TIP3    H219084   6.526   0.644   0.256
 6381TIP3   OH219085   4.324   2.814   4.466
 6381TIP3    H119086   4.395   2.764   4.507
 6381TIP3    H219087   4.250   2.754   4.467
 6382TIP3   OH219088   1.203   5.269   5.224
 6382TIP3    H119089   1.241   5.182   5.231
 6382TIP3    H219090   1.194   5.299   5.314
 6383TIP3   OH219091   5.673   4.456   1.914
 6383TIP3    H119092   5.613   4.519   1.874
 6383TIP3    H219093   5.655   4.374   1.868
 6384TIP3   OH219094   6.876   3.624   6.505
 6384TIP3    H119095   6.879   3.538   6.464
 6384TIP3    H219096   6.822   3.677   6.445
 6385TIP3   OH219097   0.729   4.658   5.237
 6385TIP3    H119098   0.764   4.744   5.259
 6385TIP3    H219099   0.647   4.676   5.190
 6386TIP3   OH219100   7.148   2.277   2.409
 6386TIP3    H119101   7.196   2.359   2.396
 6386TIP3    H219102   7.212   2.208   2.391
 6387TIP3   OH219103   8.059   2.227   1.944
 6387TIP3    H119104   7.965   2.243   1.938
 6387TIP3    H219105   8.067   2.135   1.967
 6388TIP3   OH219106   5.415   6.577   6.510
 6388TIP3    H119107   5.326   6.563   6.544
 6388TIP3    H219108   5.426   6.509   6.443
 6389TIP3   OH219109   0.956   4.750   4.768
 6389TIP3    H119110   0.932   4.821   4.708
 6389TIP3    H219111   0.889   4.752   4.835
 6390TIP3   OH219112   0.054   4.323   0.488
 6390TIP3    H119113  -0.016   4.297   0.548
 6390TIP3    H219114   0.026   4.408   0.454
 6391TIP3   OH219115   4.910   7.602   0.278
 6391TIP3    H119116   4.945   7.513   0.287
 6391TIP3    H219117   4.867   7.602   0.193
 6392TIP3   OH219118   6.992   1.716   5.162
 6392TIP3    H119119   7.076   1.738   5.203
 6392TIP3    H219120   7.008   1.631   5.120
 6393TIP3   OH219121   1.080   2.864   6.228
 6393TIP3    H119122   1.076   2.860   6.133
 6393TIP3    H219123   0.992   2.891   6.255
 6394TIP3   OH219124   7.452   3.204   2.490
 6394TIP3    H119125   7.489   3.293   2.486
 6394TIP3    H219126   7.501   3.161   2.560
 6395TIP3   OH219127   1.741   3.527   6.584
 6395TIP3    H119128   1.660   3.540   6.535
 6395TIP3    H219129   1.770   3.615   6.608
 6396TIP3   OH219130   0.823   4.451   2.879
 6396TIP3    H119131   0.755   4.517   2.869
 6396TIP3    H219132   0.882   4.467   2.806
 6397TIP3   OH219133   2.481   1.773   0.474
 6397TIP3    H119134   2.422   1.790   0.401
 6397TIP3    H219135   2.437   1.810   0.551
 6398TIP3   OH219136   3.551   1.453   2.356
 6398TIP3    H119137   3.578   1.487   2.441
 6398TIP3    H219138   3.627   1.466   2.299
 6399TIP3   OH219139   0.162   0.620   1.871
 6399TIP3    H119140   0.118   0.643   1.953
 6399TIP3    H219141   0.094   0.630   1.804
 6400TIP3   OH219142   5.274   6.349   2.884
 6400TIP3    H119143   5.358   6.375   2.923
 6400TIP3    H219144   5.226   6.431   2.875
 6401TIP3   OH219145   7.870   4.948   6.542
 6401TIP3    H119146   7.855   4.957   6.636
 6401TIP3    H219147   7.840   5.031   6.504
 6402TIP3   OH219148   5.094   3.023   5.499
 6402TIP3    H119149   5.017   2.967   5.487
 6402TIP3    H219150   5.069   3.106   5.457
 6403TIP3   OH219151   1.260   5.954   3.938
 6403TIP3    H119152   1.225   5.900   3.867
 6403TIP3    H219153   1.353   5.961   3.920
 6404TIP3   OH219154   7.900   0.382   4.236
 6404TIP3    H119155   7.829   0.318   4.229
 6404TIP3    H219156   7.930   0.394   4.146
 6405TIP3   OH219157   2.469   3.033   3.376
 6405TIP3    H119158   2.550   3.065   3.417
 6405TIP3    H219159   2.400   3.084   3.418
 6406TIP3   OH219160   3.314   6.711   6.003
 6406TIP3    H119161   3.286   6.657   6.077
 6406TIP3    H219162   3.265   6.793   6.013
 6407TIP3   OH219163   5.415   6.628   2.924
 6407TIP3    H119164   5.375   6.601   3.006
 6407TIP3    H219165   5.358   6.696   2.890
 6408TIP3   OH219166   0.877   5.719   1.292
 6408TIP3    H119167   0.792   5.760   1.310
 6408TIP3    H219168   0.869   5.688   1.202
 6409TIP3   OH219169   4.362   5.471   4.411
 6409TIP3    H119170   4.398   5.420   4.483
 6409TIP3    H219171   4.355   5.560   4.445
 6410TIP3   OH219172   6.533   3.949   6.579
 6410TIP3    H119173   6.548   4.000   6.499
 6410TIP3    H219174   6.611   3.965   6.632
 6411TIP3   OH219175   5.946   1.061   2.446
 6411TIP3    H119176   5.964   0.979   2.493
 6411TIP3    H219177   6.011   1.063   2.376
 6412TIP3   OH219178   4.803   4.712   5.756
 6412TIP3    H119179   4.835   4.712   5.666
 6412TIP3    H219180   4.882   4.725   5.809
 6413TIP3   OH219181   4.085   1.840   6.415
 6413TIP3    H119182   4.068   1.752   6.450
 6413TIP3    H219183   4.061   1.899   6.487
 6414TIP3   OH219184   4.403   7.294   1.839
 6414TIP3    H119185   4.354   7.216   1.813
 6414TIP3    H219186   4.447   7.270   1.920
 6415TIP3   OH219187   7.899   3.755   3.235
 6415TIP3    H119188   7.930   3.806   3.161
 6415TIP3    H219189   7.803   3.761   3.230
 6416TIP3   OH219190   5.079   0.913   2.688
 6416TIP3    H119191   5.132   0.949   2.617
 6416TIP3    H219192   5.095   0.972   2.762
 6417TIP3   OH219193   0.629   5.282   3.787
 6417TIP3    H119194   0.541   5.274   3.751
 6417TIP3    H219195   0.673   5.201   3.762
 6418TIP3   OH219196   2.322   3.280   6.077
 6418TIP3    H119197   2.254   3.251   6.016
 6418TIP3    H219198   2.287   3.258   6.163
 6419TIP3   OH219199   6.104   4.108   6.739
 6419TIP3    H119200   6.026   4.058   6.716
 6419TIP3    H219201   6.166   4.089   6.669
 6420TIP3   OH219202   5.077   2.434   2.614
 6420TIP3    H119203   5.155   2.390   2.649
 6420TIP3    H219204   5.106   2.472   2.531
 6421TIP3   OH219205   3.065   5.780   6.464
 6421TIP3    H119206   3.025   5.736   6.539
 6421TIP3    H219207   3.037   5.871   6.472
 6422TIP3   OH219208   6.763   3.774   5.192
 6422TIP3    H119209   6.743   3.779   5.286
 6422TIP3    H219210   6.680   3.748   5.152
 6423TIP3   OH219211   5.514   7.896   1.890
 6423TIP3    H119212   5.515   7.804   1.865
 6423TIP3    H219213   5.445   7.902   1.956
 6424TIP3   OH219214   4.867   1.766   1.855
 6424TIP3    H119215   4.863   1.764   1.950
 6424TIP3    H219216   4.958   1.788   1.835
 6425TIP3   OH219217   3.159   5.335   0.841
 6425TIP3    H119218   3.099   5.409   0.843
 6425TIP3    H219219   3.112   5.264   0.885
 6426TIP3   OH219220   0.196   0.280   1.658
 6426TIP3    H119221   0.177   0.250   1.569
 6426TIP3    H219222   0.287   0.311   1.653
 6427TIP3   OH219223   2.858   4.246   4.904
 6427TIP3    H119224   2.772   4.279   4.878
 6427TIP3    H219225   2.910   4.249   4.824
 6428TIP3   OH219226   3.982   5.018   1.364
 6428TIP3    H119227   4.047   5.020   1.294
 6428TIP3    H219228   4.013   4.948   1.422
 6429TIP3   OH219229   6.688   7.053   2.929
 6429TIP3    H119230   6.711   7.005   2.849
 6429TIP3    H219231   6.593   7.041   2.937
 6430TIP3   OH219232   6.869   3.036   3.095
 6430TIP3    H119233   6.874   3.015   3.188
 6430TIP3    H219234   6.787   3.084   3.086
 6431TIP3   OH219235   1.470   0.876   3.997
 6431TIP3    H119236   1.523   0.933   3.941
 6431TIP3    H219237   1.448   0.802   3.941
 6432TIP3   OH219238   2.593   7.036   2.067
 6432TIP3    H119239   2.527   7.021   1.999
 6432TIP3    H219240   2.659   6.968   2.051
 6433TIP3   OH219241   4.683   6.939   4.308
 6433TIP3    H119242   4.683   6.859   4.360
 6433TIP3    H219243   4.775   6.952   4.283
 6434TIP3   OH219244   1.811   7.100   3.385
 6434TIP3    H119245   1.778   7.184   3.356
 6434TIP3    H219246   1.778   7.090   3.474
 6435TIP3   OH219247   3.176   1.244   5.217
 6435TIP3    H119248   3.128   1.311   5.265
 6435TIP3    H219249   3.250   1.221   5.273
 6436TIP3   OH219250   4.354   3.277   5.466
 6436TIP3    H119251   4.304   3.204   5.503
 6436TIP3    H219252   4.296   3.353   5.474
 6437TIP3   OH219253   7.383   6.395   3.861
 6437TIP3    H119254   7.424   6.465   3.810
 6437TIP3    H219255   7.395   6.317   3.808
 6438TIP3   OH219256   5.165   3.819   1.525
 6438TIP3    H119257   5.227   3.830   1.453
 6438TIP3    H219258   5.112   3.900   1.524
 6439TIP3   OH219259   7.356   0.297   0.519
 6439TIP3    H119260   7.280   0.281   0.575
 6439TIP3    H219261   7.364   0.392   0.516
 6440TIP3   OH219262   6.746   0.632   4.233
 6440TIP3    H119263   6.786   0.719   4.222
 6440TIP3    H219264   6.687   0.623   4.159
 6441TIP3   OH219265   8.029   6.773   1.913
 6441TIP3    H119266   8.091   6.736   1.976
 6441TIP3    H219267   8.080   6.836   1.863
 6442TIP3   OH219268   6.711   1.750   2.223
 6442TIP3    H119269   6.724   1.661   2.255
 6442TIP3    H219270   6.751   1.805   2.290
 6443TIP3   OH219271   6.329   7.552   1.990
 6443TIP3    H119272   6.303   7.531   2.080
 6443TIP3    H219273   6.249   7.585   1.949
 6444TIP3   OH219274   6.593   0.305   3.598
 6444TIP3    H119275   6.545   0.279   3.520
 6444TIP3    H219276   6.681   0.326   3.566
 6445TIP3   OH219277   1.198   1.180   4.972
 6445TIP3    H119278   1.107   1.209   4.975
 6445TIP3    H219279   1.233   1.218   4.891
 6446TIP3   OH219280   6.272   3.778   3.140
 6446TIP3    H119281   6.270   3.685   3.119
 6446TIP3    H219282   6.275   3.822   3.055
 6447TIP3   OH219283   7.377   1.691   2.378
 6447TIP3    H119284   7.420   1.774   2.355
 6447TIP3    H219285   7.313   1.715   2.444
 6448TIP3   OH219286   3.437   1.545   0.706
 6448TIP3    H119287   3.342   1.557   0.707
 6448TIP3    H219288   3.458   1.516   0.795
 6449TIP3   OH219289   2.686   6.052   6.172
 6449TIP3    H119290   2.641   5.968   6.181
 6449TIP3    H219291   2.618   6.117   6.188
 6450TIP3   OH219292   8.066   5.724   0.222
 6450TIP3    H119293   8.013   5.765   0.153
 6450TIP3    H219294   8.036   5.766   0.303
 6451TIP3   OH219295   6.716   6.058   5.593
 6451TIP3    H119296   6.775   6.088   5.662
 6451TIP3    H219297   6.709   6.133   5.533
 6452TIP3   OH219298   3.315   5.680   4.445
 6452TIP3    H119299   3.359   5.714   4.523
 6452TIP3    H219300   3.295   5.758   4.393
 6453TIP3   OH219301   2.432   1.517   3.778
 6453TIP3    H119302   2.358   1.486   3.725
 6453TIP3    H219303   2.510   1.491   3.728
 6454TIP3   OH219304   3.655   7.669   3.839
 6454TIP3    H119305   3.666   7.737   3.773
 6454TIP3    H219306   3.583   7.614   3.805
 6455TIP3   OH219307   6.330   1.166   2.960
 6455TIP3    H119308   6.265   1.159   2.889
 6455TIP3    H219309   6.278   1.165   3.040
 6456TIP3   OH219310   7.682   3.319   0.988
 6456TIP3    H119311   7.610   3.376   1.015
 6456TIP3    H219312   7.639   3.237   0.963
 6457TIP3   OH219313   0.385   2.097   2.682
 6457TIP3    H119314   0.388   2.102   2.777
 6457TIP3    H219315   0.354   2.008   2.664
 6458TIP3   OH219316   3.637   2.825   5.500
 6458TIP3    H119317   3.665   2.790   5.416
 6458TIP3    H219318   3.658   2.919   5.495
 6459TIP3   OH219319   4.764   0.720   6.134
 6459TIP3    H119320   4.791   0.701   6.044
 6459TIP3    H219321   4.813   0.799   6.158
 6460TIP3   OH219322   8.352   5.124   0.108
 6460TIP3    H119323   8.335   5.038   0.068
 6460TIP3    H219324   8.362   5.183   0.034
 6461TIP3   OH219325   6.410   2.577   2.910
 6461TIP3    H119326   6.349   2.647   2.890
 6461TIP3    H219327   6.401   2.515   2.837
 6462TIP3   OH219328   4.296   3.901   2.281
 6462TIP3    H119329   4.294   3.863   2.369
 6462TIP3    H219330   4.223   3.859   2.235
 6463TIP3   OH219331   5.819   1.122   1.996
 6463TIP3    H119332   5.757   1.184   1.960
 6463TIP3    H219333   5.894   1.175   2.023
 6464TIP3   OH219334   3.837   0.790   1.788
 6464TIP3    H119335   3.891   0.802   1.710
 6464TIP3    H219336   3.763   0.737   1.758
 6465TIP3   OH219337   2.204   7.696   2.455
 6465TIP3    H119338   2.278   7.737   2.500
 6465TIP3    H219339   2.192   7.749   2.376
 6466TIP3   OH219340   1.419   2.054   5.648
 6466TIP3    H119341   1.418   2.131   5.706
 6466TIP3    H219342   1.392   2.088   5.563
 6467TIP3   OH219343   6.614   6.537   1.982
 6467TIP3    H119344   6.557   6.492   2.045
 6467TIP3    H219345   6.554   6.583   1.924
 6468TIP3   OH219346   7.768   5.606   5.800
 6468TIP3    H119347   7.845   5.549   5.802
 6468TIP3    H219348   7.712   5.570   5.732
 6469TIP3   OH219349   0.156   3.589   6.590
 6469TIP3    H119350   0.182   3.668   6.638
 6469TIP3    H219351   0.226   3.577   6.526
 6470TIP3   OH219352   8.084   6.351   3.484
 6470TIP3    H119353   8.082   6.441   3.451
 6470TIP3    H219354   8.044   6.356   3.571
 6471TIP3   OH219355   6.390   4.768   3.280
 6471TIP3    H119356   6.388   4.779   3.185
 6471TIP3    H219357   6.480   4.740   3.299
 6472TIP3   OH219358   0.304   1.447   4.471
 6472TIP3    H119359   0.366   1.383   4.506
 6472TIP3    H219360   0.227   1.440   4.528
 6473TIP3   OH219361   5.308   0.324   3.260
 6473TIP3    H119362   5.251   0.389   3.300
 6473TIP3    H219363   5.254   0.246   3.251
 6474TIP3   OH219364   4.467   5.098   0.981
 6474TIP3    H119365   4.432   5.187   0.987
 6474TIP3    H219366   4.394   5.041   1.005
 6475TIP3   OH219367   2.882   4.434   2.774
 6475TIP3    H119368   2.892   4.376   2.849
 6475TIP3    H219369   2.964   4.425   2.725
 6476TIP3   OH219370   7.253   6.762   3.976
 6476TIP3    H119371   7.324   6.764   3.912
 6476TIP3    H219372   7.178   6.800   3.930
 6477TIP3   OH219373   8.118   0.382   5.337
 6477TIP3    H119374   8.133   0.471   5.307
 6477TIP3    H219375   8.023   0.377   5.353
 6478TIP3   OH219376   0.483   1.198   4.524
 6478TIP3    H119377   0.501   1.149   4.604
 6478TIP3    H219378   0.551   1.168   4.462
 6479TIP3   OH219379   5.175   6.776   4.760
 6479TIP3    H119380   5.253   6.792   4.813
 6479TIP3    H219381   5.155   6.861   4.721
 6480TIP3   OH219382   2.603   1.813   1.394
 6480TIP3    H119383   2.613   1.796   1.300
 6480TIP3    H219384   2.573   1.903   1.399
 6481TIP3   OH219385   2.097   1.951   4.393
 6481TIP3    H119386   2.146   1.897   4.331
 6481TIP3    H219387   2.058   1.888   4.454
 6482TIP3   OH219388   1.663   2.840   3.693
 6482TIP3    H119389   1.590   2.892   3.659
 6482TIP3    H219390   1.728   2.842   3.623
 6483TIP3   OH219391   2.647   4.758   6.018
 6483TIP3    H119392   2.711   4.824   5.991
 6483TIP3    H219393   2.694   4.675   6.013
 6484TIP3   OH219394   6.974   0.349   5.193
 6484TIP3    H119395   7.057   0.313   5.226
 6484TIP3    H219396   6.999   0.399   5.115
 6485TIP3   OH219397   2.550   6.506   5.976
 6485TIP3    H119398   2.604   6.568   5.927
 6485TIP3    H219399   2.597   6.423   5.971
 6486TIP3   OH219400   2.037   1.591   4.429
 6486TIP3    H119401   2.128   1.594   4.460
 6486TIP3    H219402   2.044   1.589   4.333
 6487TIP3   OH219403   2.186   2.015   6.445
 6487TIP3    H119404   2.245   2.088   6.462
 6487TIP3    H219405   2.160   2.025   6.354
 6488TIP3   OH219406   1.063   1.038   0.924
 6488TIP3    H119407   0.968   1.040   0.925
 6488TIP3    H219408   1.086   0.977   0.994
 6489TIP3   OH219409   6.961   0.782   6.305
 6489TIP3    H119410   6.872   0.819   6.302
 6489TIP3    H219411   7.002   0.827   6.380
 6490TIP3   OH219412   3.624   4.368   4.116
 6490TIP3    H119413   3.541   4.347   4.075
 6490TIP3    H219414   3.640   4.296   4.177
 6491TIP3   OH219415   4.723   4.980   0.917
 6491TIP3    H119416   4.755   5.067   0.894
 6491TIP3    H219417   4.630   4.993   0.936
 6492TIP3   OH219418   7.401   4.754   4.913
 6492TIP3    H119419   7.432   4.811   4.984
 6492TIP3    H219420   7.307   4.747   4.927
 6493TIP3   OH219421   7.506   5.728   3.196
 6493TIP3    H119422   7.588   5.757   3.235
 6493TIP3    H219423   7.446   5.802   3.210
 6494TIP3   OH219424   0.775   4.904   5.599
 6494TIP3    H119425   0.823   4.923   5.680
 6494TIP3    H219426   0.720   4.981   5.585
 6495TIP3   OH219427   2.137   6.247   4.073
 6495TIP3    H119428   2.228   6.222   4.090
 6495TIP3    H219429   2.142   6.339   4.047
 6496TIP3   OH219430   5.160   3.829   3.799
 6496TIP3    H119431   5.084   3.807   3.744
 6496TIP3    H219432   5.165   3.756   3.862
 6497TIP3   OH219433   0.482   2.138   6.096
 6497TIP3    H119434   0.444   2.180   6.019
 6497TIP3    H219435   0.467   2.044   6.082
 6498TIP3   OH219436   0.291   1.361   0.683
 6498TIP3    H119437   0.383   1.336   0.691
 6498TIP3    H219438   0.292   1.456   0.687
 6499TIP3   OH219439   7.178   2.344   0.070
 6499TIP3    H119440   7.107   2.345   0.134
 6499TIP3    H219441   7.135   2.322  -0.013
 6500TIP3   OH219442   5.601   5.977   6.799
 6500TIP3    H119443   5.675   5.988   6.859
 6500TIP3    H219444   5.641   5.950   6.716
 6501TIP3   OH219445   0.811   7.785   3.884
 6501TIP3    H119446   0.893   7.754   3.920
 6501TIP3    H219447   0.788   7.862   3.936
 6502TIP3   OH219448   0.935   0.736   3.726
 6502TIP3    H119449   0.925   0.821   3.768
 6502TIP3    H219450   0.944   0.756   3.633
 6503TIP3   OH219451   7.658   2.348   4.135
 6503TIP3    H119452   7.750   2.376   4.127
 6503TIP3    H219453   7.659   2.256   4.108
 6504TIP3   OH219454   4.867   3.413   5.692
 6504TIP3    H119455   4.865   3.509   5.695
 6504TIP3    H219456   4.783   3.386   5.727
 6505TIP3   OH219457   6.487   4.089   3.127
 6505TIP3    H119458   6.470   4.147   3.202
 6505TIP3    H219459   6.447   4.135   3.053
 6506TIP3   OH219460   3.607   6.267   1.907
 6506TIP3    H119461   3.597   6.285   2.001
 6506TIP3    H219462   3.682   6.320   1.881
 6507TIP3   OH219463   0.035   1.104   3.361
 6507TIP3    H119464   0.117   1.135   3.396
 6507TIP3    H219465   0.048   1.010   3.348
 6508TIP3   OH219466   6.219   5.790   4.671
 6508TIP3    H119467   6.184   5.790   4.582
 6508TIP3    H219468   6.195   5.705   4.707
 6509TIP3   OH219469   5.524   1.260   1.923
 6509TIP3    H119470   5.558   1.329   1.980
 6509TIP3    H219471   5.431   1.254   1.945
 6510TIP3   OH219472   3.436   7.034   3.757
 6510TIP3    H119473   3.372   7.103   3.738
 6510TIP3    H219474   3.520   7.079   3.763
 6511TIP3   OH219475   8.070   5.910   5.612
 6511TIP3    H119476   8.032   5.982   5.560
 6511TIP3    H219477   8.083   5.840   5.548
 6512TIP3   OH219478   5.206   1.730   5.310
 6512TIP3    H119479   5.164   1.767   5.232
 6512TIP3    H219480   5.134   1.717   5.372
 6513TIP3   OH219481   4.871   5.519   2.013
 6513TIP3    H119482   4.811   5.458   1.970
 6513TIP3    H219483   4.814   5.588   2.047
 6514TIP3   OH219484   3.979   2.848   4.196
 6514TIP3    H119485   4.026   2.875   4.275
 6514TIP3    H219486   3.964   2.930   4.149
 6515TIP3   OH219487   6.226   3.557   6.405
 6515TIP3    H119488   6.291   3.627   6.404
 6515TIP3    H219489   6.155   3.589   6.349
 6516TIP3   OH219490   5.854   4.939   1.568
 6516TIP3    H119491   5.886   4.972   1.652
 6516TIP3    H219492   5.829   5.018   1.519
 6517TIP3   OH219493   3.046   3.215   1.816
 6517TIP3    H119494   3.064   3.305   1.843
 6517TIP3    H219495   2.953   3.203   1.831
 6518TIP3   OH219496   3.002   3.853   4.138
 6518TIP3    H119497   2.929   3.915   4.138
 6518TIP3    H219498   3.017   3.833   4.231
 6519TIP3   OH219499   6.653   4.891   4.752
 6519TIP3    H119500   6.693   4.935   4.828
 6519TIP3    H219501   6.727   4.873   4.694
 6520TIP3   OH219502   6.850   3.856   3.370
 6520TIP3    H119503   6.890   3.792   3.312
 6520TIP3    H219504   6.811   3.921   3.311
 6521TIP3   OH219505   2.297   0.061   5.308
 6521TIP3    H119506   2.309   0.127   5.376
 6521TIP3    H219507   2.218   0.014   5.334
 6522TIP3   OH219508   0.412   7.663   5.127
 6522TIP3    H119509   0.490   7.638   5.077
 6522TIP3    H219510   0.343   7.674   5.062
 6523TIP3   OH219511   3.766   5.131   5.922
 6523TIP3    H119512   3.709   5.058   5.944
 6523TIP3    H219513   3.708   5.207   5.916
 6524TIP3   OH219514   2.061   0.456   1.028
 6524TIP3    H119515   2.051   0.531   1.087
 6524TIP3    H219516   2.045   0.380   1.083
 6525TIP3   OH219517   7.901   5.511   4.028
 6525TIP3    H119518   7.858   5.594   4.049
 6525TIP3    H219519   7.909   5.512   3.932
 6526TIP3   OH219520   0.526   3.187   6.497
 6526TIP3    H119521   0.573   3.117   6.543
 6526TIP3    H219522   0.594   3.249   6.473
 6527TIP3   OH219523   5.879   6.959   2.748
 6527TIP3    H119524   5.833   7.000   2.822
 6527TIP3    H219525   5.857   7.013   2.673
 6528TIP3   OH219526   3.277   1.034   2.540
 6528TIP3    H119527   3.228   0.956   2.517
 6528TIP3    H219528   3.359   1.026   2.492
 6529TIP3   OH219529   1.691   5.065   3.509
 6529TIP3    H119530   1.736   4.981   3.501
 6529TIP3    H219531   1.749   5.128   3.467
 6530TIP3   OH219532   6.669   3.170   1.555
 6530TIP3    H119533   6.627   3.234   1.499
 6530TIP3    H219534   6.611   3.094   1.552
 6531TIP3   OH219535   6.762   7.280   1.580
 6531TIP3    H119536   6.776   7.191   1.549
 6531TIP3    H219537   6.771   7.275   1.675
 6532TIP3   OH219538   1.842   7.174   3.995
 6532TIP3    H119539   1.853   7.208   4.084
 6532TIP3    H219540   1.914   7.213   3.945
 6533TIP3   OH219541   2.140   0.840   2.508
 6533TIP3    H119542   2.131   0.745   2.522
 6533TIP3    H219543   2.073   0.878   2.564
 6534TIP3   OH219544   0.300   3.190   5.141
 6534TIP3    H119545   0.223   3.156   5.187
 6534TIP3    H219546   0.354   3.227   5.210
 6535TIP3   OH219547   2.883   4.694   0.839
 6535TIP3    H119548   2.960   4.694   0.782
 6535TIP3    H219549   2.920   4.696   0.928
 6536TIP3   OH219550   1.134   1.991   3.812
 6536TIP3    H119551   1.214   1.989   3.865
 6536TIP3    H219552   1.113   2.084   3.804
 6537TIP3   OH219553   7.282   6.716   5.452
 6537TIP3    H119554   7.202   6.688   5.407
 6537TIP3    H219555   7.320   6.635   5.487
 6538TIP3   OH219556   0.882   1.872   5.099
 6538TIP3    H119557   0.863   1.931   5.027
 6538TIP3    H219558   0.930   1.799   5.059
 6539TIP3   OH219559   1.460   6.600   6.286
 6539TIP3    H119560   1.374   6.561   6.300
 6539TIP3    H219561   1.522   6.535   6.319
 6540TIP3   OH219562   7.505   0.054   5.121
 6540TIP3    H119563   7.468  -0.031   5.141
 6540TIP3    H219564   7.581   0.061   5.178
 6541TIP3   OH219565   6.356   4.169   2.912
 6541TIP3    H119566   6.421   4.125   2.857
 6541TIP3    H219567   6.379   4.262   2.906
 6542TIP3   OH219568   6.479   7.518   6.740
 6542TIP3    H119569   6.573   7.515   6.726
 6542TIP3    H219570   6.462   7.450   6.806
 6543TIP3   OH219571   7.177   3.045   4.249
 6543TIP3    H119572   7.167   3.059   4.155
 6543TIP3    H219573   7.094   3.005   4.276
 6544TIP3   OH219574   6.761   6.118   5.982
 6544TIP3    H119575   6.784   6.027   6.005
 6544TIP3    H219576   6.824   6.141   5.914
 6545TIP3   OH219577   0.838   4.613   1.738
 6545TIP3    H119578   0.892   4.622   1.660
 6545TIP3    H219579   0.892   4.566   1.801
 6546TIP3   OH219580   2.820   4.807   5.709
 6546TIP3    H119581   2.725   4.811   5.720
 6546TIP3    H219582   2.855   4.862   5.780
 6547TIP3   OH219583   1.840   2.964   1.897
 6547TIP3    H119584   1.918   2.974   1.951
 6547TIP3    H219585   1.858   3.018   1.820
 6548TIP3   OH219586   1.116   2.047   5.650
 6548TIP3    H119587   1.172   2.087   5.717
 6548TIP3    H219588   1.124   1.953   5.664
 6549TIP3   OH219589   7.118   7.553   6.639
 6549TIP3    H119590   7.044   7.594   6.594
 6549TIP3    H219591   7.086   7.534   6.727
 6550TIP3   OH219592   2.693   1.154   1.061
 6550TIP3    H119593   2.654   1.067   1.052
 6550TIP3    H219594   2.621   1.214   1.042
 6551TIP3   OH219595   7.109   3.111   4.957
 6551TIP3    H119596   7.102   3.197   4.915
 6551TIP3    H219597   7.057   3.118   5.036
 6552TIP3   OH219598   2.281   6.596   6.010
 6552TIP3    H119599   2.368   6.557   6.009
 6552TIP3    H219600   2.297   6.690   6.013
 6553TIP3   OH219601   4.001   3.880   4.002
 6553TIP3    H119602   4.009   3.931   3.921
 6553TIP3    H219603   4.068   3.812   3.994
 6554TIP3   OH219604   4.432   5.523   0.703
 6554TIP3    H119605   4.364   5.587   0.682
 6554TIP3    H219606   4.512   5.560   0.666
 6555TIP3   OH219607   4.985   5.589   4.846
 6555TIP3    H119608   5.034   5.516   4.884
 6555TIP3    H219609   5.018   5.597   4.757
 6556TIP3   OH219610   3.758   6.235   3.709
 6556TIP3    H119611   3.759   6.318   3.660
 6556TIP3    H219612   3.834   6.187   3.677
 6557TIP3   OH219613   3.568   3.784   3.891
 6557TIP3    H119614   3.552   3.878   3.880
 6557TIP3    H219615   3.598   3.775   3.982
 6558TIP3   OH219616   8.189   3.819   3.844
 6558TIP3    H119617   8.102   3.842   3.877
 6558TIP3    H219618   8.185   3.725   3.829
 6559TIP3   OH219619   1.048   0.986   4.535
 6559TIP3    H119620   1.110   0.940   4.592
 6559TIP3    H219621   0.995   0.917   4.496
 6560TIP3   OH219622   0.652   1.526   5.171
 6560TIP3    H119623   0.706   1.496   5.098
 6560TIP3    H219624   0.634   1.618   5.151
 6561TIP3   OH219625   2.220   7.098   2.692
 6561TIP3    H119626   2.171   7.017   2.677
 6561TIP3    H219627   2.294   7.093   2.632
 6562TIP3   OH219628   6.566   0.499   3.286
 6562TIP3    H119629   6.562   0.437   3.214
 6562TIP3    H219630   6.501   0.566   3.264
 6563TIP3   OH219631   6.363   4.129   1.348
 6563TIP3    H119632   6.270   4.123   1.323
 6563TIP3    H219633   6.374   4.064   1.417
 6564TIP3   OH219634   6.739   0.026   1.118
 6564TIP3    H119635   6.834   0.024   1.134
 6564TIP3    H219636   6.730   0.074   1.036
 6565TIP3   OH219637   7.258   1.759   2.616
 6565TIP3    H119638   7.350   1.764   2.641
 6565TIP3    H219639   7.217   1.834   2.658
 6566TIP3   OH219640   8.005   4.807   1.919
 6566TIP3    H119641   7.915   4.777   1.907
 6566TIP3    H219642   8.021   4.796   2.013
 6567TIP3   OH219643   7.123   5.455   0.073
 6567TIP3    H119644   7.074   5.536   0.060
 6567TIP3    H219645   7.204   5.467   0.022
 6568TIP3   OH219646   4.672   0.526   1.951
 6568TIP3    H119647   4.621   0.446   1.936
 6568TIP3    H219648   4.679   0.532   2.046
 6569TIP3   OH219649   3.415   4.959   5.018
 6569TIP3    H119650   3.507   4.972   5.042
 6569TIP3    H219651   3.414   4.968   4.923
 6570TIP3   OH219652   7.231   7.311   5.257
 6570TIP3    H119653   7.241   7.392   5.307
 6570TIP3    H219654   7.170   7.258   5.308
 6571TIP3   OH219655   6.753   6.061   0.696
 6571TIP3    H119656   6.733   6.114   0.773
 6571TIP3    H219657   6.748   5.971   0.727
 6572TIP3   OH219658   7.890   2.691   2.762
 6572TIP3    H119659   7.812   2.636   2.773
 6572TIP3    H219660   7.958   2.647   2.813
 6573TIP3   OH219661   2.946   7.723   2.593
 6573TIP3    H119662   2.962   7.791   2.527
 6573TIP3    H219663   2.914   7.648   2.543
 6574TIP3   OH219664   0.643   1.382   4.736
 6574TIP3    H119665   0.684   1.419   4.657
 6574TIP3    H219666   0.581   1.317   4.702
 6575TIP3   OH219667   4.230   3.085   1.069
 6575TIP3    H119668   4.324   3.089   1.055
 6575TIP3    H219669   4.217   3.124   1.156
 6576TIP3   OH219670   6.018   6.554   2.080
 6576TIP3    H119671   6.032   6.554   2.175
 6576TIP3    H219672   6.051   6.639   2.051
 6577TIP3   OH219673   6.334   6.366   4.105
 6577TIP3    H119674   6.325   6.456   4.075
 6577TIP3    H219675   6.262   6.353   4.167
 6578TIP3   OH219676   3.919   0.572   2.537
 6578TIP3    H119677   3.831   0.575   2.500
 6578TIP3    H219678   3.910   0.607   2.625
 6579TIP3   OH219679   2.748   5.623   3.343
 6579TIP3    H119680   2.712   5.626   3.255
 6579TIP3    H219681   2.718   5.703   3.385
 6580TIP3   OH219682   1.631   1.905   0.549
 6580TIP3    H119683   1.610   1.869   0.635
 6580TIP3    H219684   1.657   1.996   0.568
 6581TIP3   OH219685   6.611   6.375   5.125
 6581TIP3    H119686   6.662   6.450   5.153
 6581TIP3    H219687   6.524   6.389   5.162
 6582TIP3   OH219688   1.015   5.014   1.740
 6582TIP3    H119689   0.986   5.091   1.690
 6582TIP3    H219690   1.011   4.942   1.677
 6583TIP3   OH219691   5.554   5.556   2.895
 6583TIP3    H119692   5.552   5.488   2.963
 6583TIP3    H219693   5.627   5.613   2.921
 6584TIP3   OH219694   6.992   2.008   6.385
 6584TIP3    H119695   6.976   2.102   6.390
 6584TIP3    H219696   7.047   1.997   6.307
 6585TIP3   OH219697   1.274   2.816   4.704
 6585TIP3    H119698   1.282   2.758   4.780
 6585TIP3    H219699   1.204   2.877   4.727
 6586TIP3   OH219700   8.034   7.422   2.056
 6586TIP3    H119701   7.984   7.342   2.043
 6586TIP3    H219702   8.010   7.452   2.143
 6587TIP3   OH219703   3.318   3.728   5.336
 6587TIP3    H119704   3.275   3.738   5.422
 6587TIP3    H219705   3.391   3.668   5.353
 6588TIP3   OH219706   0.789   1.436   3.970
 6588TIP3    H119707   0.790   1.425   3.874
 6588TIP3    H219708   0.880   1.421   3.997
 6589TIP3   OH219709   6.953   2.783   3.003
 6589TIP3    H119710   6.924   2.868   3.034
 6589TIP3    H219711   6.873   2.730   3.002
 6590TIP3   OH219712   7.571   7.780   1.657
 6590TIP3    H119713   7.535   7.693   1.670
 6590TIP3    H219714   7.614   7.800   1.740
 6591TIP3   OH219715   1.838   0.172   5.054
 6591TIP3    H119716   1.777   0.190   5.125
 6591TIP3    H219717   1.888   0.095   5.084
 6592TIP3   OH219718   2.462   3.711   5.100
 6592TIP3    H119719   2.507   3.696   5.183
 6592TIP3    H219720   2.369   3.705   5.123
 6593TIP3   OH219721   5.559   0.433   5.019
 6593TIP3    H119722   5.637   0.481   4.992
 6593TIP3    H219723   5.553   0.447   5.114
 6594TIP3   OH219724   5.426   0.477   2.984
 6594TIP3    H119725   5.449   0.384   2.996
 6594TIP3    H219726   5.331   0.479   2.990
 6595TIP3   OH219727   1.429   3.732   4.711
 6595TIP3    H119728   1.474   3.716   4.794
 6595TIP3    H219729   1.336   3.740   4.735
 6596TIP3   OH219730   2.250   2.698   1.320
 6596TIP3    H119731   2.182   2.634   1.343
 6596TIP3    H219732   2.246   2.704   1.225
 6597TIP3   OH219733   2.001   7.599   5.280
 6597TIP3    H119734   1.932   7.558   5.229
 6597TIP3    H219735   1.962   7.680   5.312
 6598TIP3   OH219736   2.429   6.365   4.113
 6598TIP3    H119737   2.454   6.428   4.181
 6598TIP3    H219738   2.386   6.419   4.045
 6599TIP3   OH219739   7.947   0.467   4.612
 6599TIP3    H119740   7.857   0.465   4.646
 6599TIP3    H219741   7.968   0.375   4.596
 6600TIP3   OH219742   1.270   0.868   4.691
 6600TIP3    H119743   1.364   0.878   4.686
 6600TIP3    H219744   1.254   0.829   4.777
 6601TIP3   OH219745   5.591   0.099   5.180
 6601TIP3    H119746   5.561   0.009   5.193
 6601TIP3    H219747   5.531   0.152   5.232
 6602TIP3   OH219748   0.453   6.440   0.225
 6602TIP3    H119749   0.375   6.490   0.201
 6602TIP3    H219750   0.515   6.458   0.155
 6603TIP3   OH219751   5.607   6.891   5.084
 6603TIP3    H119752   5.603   6.978   5.045
 6603TIP3    H219753   5.700   6.879   5.104
 6604TIP3   OH219754   4.593   0.405   4.724
 6604TIP3    H119755   4.532   0.366   4.660
 6604TIP3    H219756   4.569   0.363   4.807
 6605TIP3   OH219757   5.132   3.704   3.495
 6605TIP3    H119758   5.136   3.644   3.421
 6605TIP3    H219759   5.215   3.691   3.540
 6606TIP3   OH219760   4.661   2.039   5.101
 6606TIP3    H119761   4.734   2.044   5.040
 6606TIP3    H219762   4.693   1.982   5.171
 6607TIP3   OH219763   3.133   0.520   3.365
 6607TIP3    H119764   3.205   0.493   3.422
 6607TIP3    H219765   3.136   0.616   3.366
 6608TIP3   OH219766   4.314   2.402   2.020
 6608TIP3    H119767   4.344   2.325   1.972
 6608TIP3    H219768   4.274   2.366   2.100
 6609TIP3   OH219769   7.499   4.991   6.664
 6609TIP3    H119770   7.414   4.994   6.619
 6609TIP3    H219771   7.545   4.917   6.624
 6610TIP3   OH219772   2.920   0.748   0.947
 6610TIP3    H119773   2.984   0.730   0.878
 6610TIP3    H219774   2.837   0.760   0.900
 6611TIP3   OH219775   2.936   6.331   6.664
 6611TIP3    H119776   2.850   6.297   6.637
 6611TIP3    H219777   2.948   6.411   6.613
 6612TIP3   OH219778   1.559   6.455   0.643
 6612TIP3    H119779   1.574   6.526   0.580
 6612TIP3    H219780   1.636   6.399   0.634
 6613TIP3   OH219781   6.264   2.637   0.847
 6613TIP3    H119782   6.248   2.569   0.912
 6613TIP3    H219783   6.292   2.713   0.898
 6614TIP3   OH219784   3.461   5.932   2.122
 6614TIP3    H119785   3.372   5.929   2.157
 6614TIP3    H219786   3.451   5.971   2.035
 6615TIP3   OH219787   3.006   3.497   3.139
 6615TIP3    H119788   2.948   3.448   3.080
 6615TIP3    H219789   2.962   3.582   3.150
 6616TIP3   OH219790   6.656   0.855   4.883
 6616TIP3    H119791   6.622   0.816   4.803
 6616TIP3    H219792   6.668   0.781   4.942
 6617TIP3   OH219793   7.531   6.189   6.023
 6617TIP3    H119794   7.490   6.236   5.950
 6617TIP3    H219795   7.481   6.217   6.100
 6618TIP3   OH219796   5.827   6.037   0.840
 6618TIP3    H119797   5.790   6.102   0.781
 6618TIP3    H219798   5.921   6.039   0.822
 6619TIP3   OH219799   5.102   7.757   3.109
 6619TIP3    H119800   5.078   7.702   3.035
 6619TIP3    H219801   5.080   7.706   3.186
 6620TIP3   OH219802   0.343   5.045   6.563
 6620TIP3    H119803   0.397   5.122   6.582
 6620TIP3    H219804   0.269   5.052   6.622
 6621TIP3   OH219805   7.352   6.948   1.168
 6621TIP3    H119806   7.305   7.020   1.211
 6621TIP3    H219807   7.318   6.949   1.078
 6622TIP3   OH219808   2.786   2.408   2.108
 6622TIP3    H119809   2.835   2.329   2.088
 6622TIP3    H219810   2.850   2.479   2.100
 6623TIP3   OH219811   4.356   2.330   0.321
 6623TIP3    H119812   4.341   2.309   0.229
 6623TIP3    H219813   4.304   2.409   0.337
 6624TIP3   OH219814   7.004   6.224   2.106
 6624TIP3    H119815   6.979   6.294   2.045
 6624TIP3    H219816   7.070   6.174   2.059
 6625TIP3   OH219817   7.172   5.379   2.838
 6625TIP3    H119818   7.132   5.339   2.915
 6625TIP3    H219819   7.189   5.307   2.778
 6626TIP3   OH219820   7.384   6.146   6.532
 6626TIP3    H119821   7.364   6.075   6.471
 6626TIP3    H219822   7.303   6.158   6.582
 6627TIP3   OH219823   6.983   2.437   4.265
 6627TIP3    H119824   7.062   2.465   4.219
 6627TIP3    H219825   6.958   2.354   4.223
 6628TIP3   OH219826   6.457   1.737   3.775
 6628TIP3    H119827   6.489   1.648   3.764
 6628TIP3    H219828   6.465   1.776   3.688
 6629TIP3   OH219829   1.272   1.597   2.142
 6629TIP3    H119830   1.342   1.555   2.091
 6629TIP3    H219831   1.299   1.585   2.233
 6630TIP3   OH219832   5.259   2.197   0.859
 6630TIP3    H119833   5.208   2.123   0.892
 6630TIP3    H219834   5.199   2.241   0.798
 6631TIP3   OH219835   4.987   0.665   2.625
 6631TIP3    H119836   5.021   0.752   2.648
 6631TIP3    H219837   5.012   0.654   2.533
 6632TIP3   OH219838   7.757   6.898   1.630
 6632TIP3    H119839   7.802   6.843   1.566
 6632TIP3    H219840   7.828   6.936   1.682
 6633TIP3   OH219841   3.422   1.154   3.833
 6633TIP3    H119842   3.482   1.160   3.758
 6633TIP3    H219843   3.479   1.155   3.910
 6634TIP3   OH219844   1.541   0.461   6.174
 6634TIP3    H119845   1.483   0.510   6.231
 6634TIP3    H219846   1.622   0.512   6.173
 6635TIP3   OH219847   4.046   6.758   3.396
 6635TIP3    H119848   4.068   6.801   3.479
 6635TIP3    H219849   4.130   6.734   3.357
 6636TIP3   OH219850   3.203   6.553   3.869
 6636TIP3    H119851   3.276   6.604   3.903
 6636TIP3    H219852   3.245   6.483   3.818
 6637TIP3   OH219853   6.174   7.292   0.533
 6637TIP3    H119854   6.143   7.204   0.555
 6637TIP3    H219855   6.258   7.277   0.489
 6638TIP3   OH219856   2.646   7.692   2.437
 6638TIP3    H119857   2.732   7.678   2.395
 6638TIP3    H219858   2.617   7.777   2.404
 6639TIP3   OH219859   7.477   7.055   2.588
 6639TIP3    H119860   7.485   6.987   2.655
 6639TIP3    H219861   7.567   7.077   2.564
 6640TIP3   OH219862   1.732   1.982   1.291
 6640TIP3    H119863   1.646   1.983   1.334
 6640TIP3    H219864   1.738   2.067   1.247
 6641TIP3   OH219865   3.917   5.815   1.586
 6641TIP3    H119866   3.920   5.896   1.637
 6641TIP3    H219867   3.913   5.745   1.651
 6642TIP3   OH219868   0.152   5.085   4.182
 6642TIP3    H119869   0.079   5.025   4.165
 6642TIP3    H219870   0.136   5.118   4.270
 6643TIP3   OH219871   2.048   3.642   5.678
 6643TIP3    H119872   2.073   3.718   5.626
 6643TIP3    H219873   1.965   3.613   5.642
 6644TIP3   OH219874   1.542   2.092   1.071
 6644TIP3    H119875   1.590   2.169   1.102
 6644TIP3    H219876   1.595   2.058   0.999
 6645TIP3   OH219877   0.207   1.715   1.180
 6645TIP3    H119878   0.278   1.730   1.243
 6645TIP3    H219879   0.145   1.785   1.196
 6646TIP3   OH219880   3.280   3.314   5.805
 6646TIP3    H119881   3.333   3.375   5.856
 6646TIP3    H219882   3.193   3.354   5.802
 6647TIP3   OH219883   0.658   4.194   0.245
 6647TIP3    H119884   0.643   4.115   0.296
 6647TIP3    H219885   0.639   4.168   0.154
 6648TIP3   OH219886   0.464   1.590   1.877
 6648TIP3    H119887   0.422   1.646   1.942
 6648TIP3    H219888   0.405   1.592   1.802
 6649TIP3   OH219889   3.107   5.639   0.594
 6649TIP3    H119890   3.095   5.729   0.564
 6649TIP3    H219891   3.055   5.587   0.533
 6650TIP3   OH219892   0.369   4.428   3.554
 6650TIP3    H119893   0.370   4.496   3.486
 6650TIP3    H219894   0.292   4.375   3.533
 6651TIP3   OH219895   5.924   3.498   4.462
 6651TIP3    H119896   5.934   3.542   4.546
 6651TIP3    H219897   5.923   3.569   4.398
 6652TIP3   OH219898   4.913   5.177   0.101
 6652TIP3    H119899   4.926   5.234   0.026
 6652TIP3    H219900   4.829   5.205   0.138
 6653TIP3   OH219901   0.183   4.400   0.770
 6653TIP3    H119902   0.211   4.480   0.725
 6653TIP3    H219903   0.149   4.431   0.854
 6654TIP3   OH219904   4.652   3.082   3.554
 6654TIP3    H119905   4.598   3.004   3.563
 6654TIP3    H219906   4.619   3.126   3.476
 6655TIP3   OH219907   6.460   5.647   3.629
 6655TIP3    H119908   6.479   5.685   3.543
 6655TIP3    H219909   6.542   5.605   3.655
 6656TIP3   OH219910   6.982   5.010   6.685
 6656TIP3    H119911   7.046   5.009   6.614
 6656TIP3    H219912   6.930   5.088   6.669
 6657TIP3   OH219913   4.140   5.345   4.316
 6657TIP3    H119914   4.124   5.292   4.395
 6657TIP3    H219915   4.227   5.382   4.330
 6658TIP3   OH219916   3.343   3.619   1.828
 6658TIP3    H119917   3.402   3.674   1.777
 6658TIP3    H219918   3.344   3.535   1.783
 6659TIP3   OH219919   3.089   7.333   5.561
 6659TIP3    H119920   3.047   7.367   5.482
 6659TIP3    H219921   3.080   7.403   5.625
 6660TIP3   OH219922   6.902   1.854   0.229
 6660TIP3    H119923   6.994   1.829   0.228
 6660TIP3    H219924   6.858   1.786   0.178
 6661TIP3   OH219925   3.476   7.747   2.661
 6661TIP3    H119926   3.389   7.710   2.645
 6661TIP3    H219927   3.460   7.823   2.718
 6662TIP3   OH219928   5.404   4.300   4.801
 6662TIP3    H119929   5.447   4.260   4.725
 6662TIP3    H219930   5.333   4.351   4.763
 6663TIP3   OH219931   6.504   6.029   3.523
 6663TIP3    H119932   6.477   6.060   3.436
 6663TIP3    H219933   6.517   5.935   3.511
 6664TIP3   OH219934   2.453   7.338   6.129
 6664TIP3    H119935   2.362   7.349   6.155
 6664TIP3    H219936   2.497   7.416   6.164
 6665TIP3   OH219937   3.045   2.202   0.763
 6665TIP3    H119938   3.029   2.124   0.816
 6665TIP3    H219939   2.957   2.238   0.748
 6666TIP3   OH219940   3.291   0.951   6.465
 6666TIP3    H119941   3.348   0.914   6.397
 6666TIP3    H219942   3.250   0.874   6.504
 6667TIP3   OH219943   4.224   1.111   6.050
 6667TIP3    H119944   4.181   1.026   6.048
 6667TIP3    H219945   4.235   1.130   6.144
 6668TIP3   OH219946   4.779   4.408   6.215
 6668TIP3    H119947   4.784   4.420   6.120
 6668TIP3    H219948   4.709   4.344   6.227
 6669TIP3   OH219949   3.458   1.237   3.027
 6669TIP3    H119950   3.423   1.221   2.939
 6669TIP3    H219951   3.529   1.299   3.014
 6670TIP3   OH219952   0.735   2.698  -0.005
 6670TIP3    H119953   0.732   2.783  -0.049
 6670TIP3    H219954   0.728   2.719   0.088
 6671TIP3   OH219955   3.002   7.420   0.274
 6671TIP3    H119956   2.926   7.478   0.266
 6671TIP3    H219957   3.073   7.467   0.229
 6672TIP3   OH219958   0.834   3.042   5.807
 6672TIP3    H119959   0.871   2.991   5.735
 6672TIP3    H219960   0.745   3.009   5.816
 6673TIP3   OH219961   5.221   4.985   6.386
 6673TIP3    H119962   5.158   4.925   6.345
 6673TIP3    H219963   5.200   4.981   6.480
 6674TIP3   OH219964   3.026   4.416   5.079
 6674TIP3    H119965   2.940   4.437   5.042
 6674TIP3    H219966   3.058   4.344   5.025
 6675TIP3   OH219967   7.598   4.801   5.219
 6675TIP3    H119968   7.608   4.814   5.313
 6675TIP3    H219969   7.507   4.773   5.208
 6676TIP3   OH219970   4.362   7.731   0.674
 6676TIP3    H119971   4.399   7.819   0.669
 6676TIP3    H219972   4.361   7.700   0.584
 6677TIP3   OH219973   4.978   6.249   5.220
 6677TIP3    H119974   4.937   6.163   5.204
 6677TIP3    H219975   5.062   6.244   5.175
 6678TIP3   OH219976   6.972   1.125   0.740
 6678TIP3    H119977   6.989   1.122   0.835
 6678TIP3    H219978   7.031   1.058   0.704
 6679TIP3   OH219979   2.001   2.050   0.616
 6679TIP3    H119980   1.980   2.078   0.527
 6679TIP3    H219981   1.919   2.060   0.664
 6680TIP3   OH219982   7.534   4.704   0.373
 6680TIP3    H119983   7.523   4.742   0.286
 6680TIP3    H219984   7.550   4.611   0.357
 6681TIP3   OH219985   3.840   5.224   0.622
 6681TIP3    H119986   3.756   5.214   0.577
 6681TIP3    H219987   3.905   5.228   0.552
 6682TIP3   OH219988   8.074   3.417   6.255
 6682TIP3    H119989   7.990   3.395   6.294
 6682TIP3    H219990   8.124   3.336   6.258
 6683TIP3   OH219991   5.624   6.437   2.348
 6683TIP3    H119992   5.652   6.347   2.333
 6683TIP3    H219993   5.705   6.486   2.361
 6684TIP3   OH219994   0.414   1.667   4.344
 6684TIP3    H119995   0.505   1.640   4.348
 6684TIP3    H219996   0.365   1.596   4.385
 6685TIP3   OH219997   5.497   7.724   6.524
 6685TIP3    H119998   5.408   7.704   6.553
 6685TIP3    H219999   5.518   7.655   6.462
 6686TIP3   OH220000   0.066   0.036   4.603
 6686TIP3    H120001   0.095   0.113   4.652
 6686TIP3    H220002   0.046  -0.029   4.670
 6687TIP3   OH220003   0.285   7.714   4.910
 6687TIP3    H120004   0.189   7.708   4.903
 6687TIP3    H220005   0.317   7.647   4.850
 6688TIP3   OH220006   2.929   2.885   0.364
 6688TIP3    H120007   2.918   2.794   0.333
 6688TIP3    H220008   2.869   2.936   0.309
 6689TIP3   OH220009   6.163   3.348   1.990
 6689TIP3    H120010   6.174   3.358   1.895
 6689TIP3    H220011   6.071   3.325   2.001
 6690TIP3   OH220012   3.012   1.750   2.004
 6690TIP3    H120013   3.068   1.676   1.982
 6690TIP3    H220014   2.994   1.792   1.920
 6691TIP3   OH220015   3.599   4.632   5.960
 6691TIP3    H120016   3.626   4.571   5.892
 6691TIP3    H220017   3.579   4.576   6.035
 6692TIP3   OH220018   6.924   4.047   3.881
 6692TIP3    H120019   6.969   4.042   3.966
 6692TIP3    H220020   6.990   4.083   3.821
 6693TIP3   OH220021   0.608   5.136   5.600
 6693TIP3    H120022   0.513   5.149   5.601
 6693TIP3    H220023   0.634   5.158   5.510
 6694TIP3   OH220024   0.234   0.588   2.470
 6694TIP3    H120025   0.245   0.617   2.379
 6694TIP3    H220026   0.219   0.668   2.519
 6695TIP3   OH220027   5.852   0.757   0.696
 6695TIP3    H120028   5.825   0.818   0.626
 6695TIP3    H220029   5.771   0.712   0.720
 6696TIP3   OH220030   6.299   0.819   4.556
 6696TIP3    H120031   6.352   0.798   4.633
 6696TIP3    H220032   6.328   0.758   4.489
 6697TIP3   OH220033   1.367   0.652   5.588
 6697TIP3    H120034   1.459   0.626   5.588
 6697TIP3    H220035   1.326   0.599   5.520
 6698TIP3   OH220036   4.590   3.230   0.437
 6698TIP3    H120037   4.580   3.179   0.356
 6698TIP3    H220038   4.645   3.304   0.412
 6699TIP3   OH220039   0.661   4.810   3.367
 6699TIP3    H120040   0.709   4.730   3.391
 6699TIP3    H220041   0.727   4.866   3.327
 6700TIP3   OH220042   7.582   6.400   0.299
 6700TIP3    H120043   7.663   6.431   0.338
 6700TIP3    H220044   7.583   6.435   0.210
 6701TIP3   OH220045   7.973   4.592   0.422
 6701TIP3    H120046   7.956   4.558   0.510
 6701TIP3    H220047   7.893   4.639   0.398
 6702TIP3   OH220048   0.330   4.293   6.488
 6702TIP3    H120049   0.276   4.269   6.413
 6702TIP3    H220050   0.418   4.306   6.452
 6703TIP3   OH220051   1.093   4.517   4.871
 6703TIP3    H120052   1.039   4.561   4.806
 6703TIP3    H220053   1.039   4.514   4.950
 6704TIP3   OH220054   8.012   3.158   5.516
 6704TIP3    H120055   7.979   3.089   5.573
 6704TIP3    H220056   8.050   3.111   5.442
 6705TIP3   OH220057   7.593   1.045   1.849
 6705TIP3    H120058   7.654   1.116   1.868
 6705TIP3    H220059   7.648   0.976   1.810
 6706TIP3   OH220060   3.966   2.087   6.827
 6706TIP3    H120061   4.037   2.126   6.776
 6706TIP3    H220062   3.912   2.042   6.762
 6707TIP3   OH220063   6.180   3.919   1.752
 6707TIP3    H120064   6.193   3.836   1.706
 6707TIP3    H220065   6.127   3.972   1.692
 6708TIP3   OH220066   2.206   1.811   3.648
 6708TIP3    H120067   2.286   1.776   3.608
 6708TIP3    H220068   2.143   1.740   3.640
 6709TIP3   OH220069   1.925   1.321   0.522
 6709TIP3    H120070   1.999   1.261   0.529
 6709TIP3    H220071   1.883   1.298   0.440
 6710TIP3   OH220072   0.789   5.717   0.506
 6710TIP3    H120073   0.715   5.708   0.446
 6710TIP3    H220074   0.796   5.811   0.522
 6711TIP3   OH220075   2.604   1.602   2.377
 6711TIP3    H120076   2.630   1.511   2.389
 6711TIP3    H220077   2.629   1.622   2.287
 6712TIP3   OH220078   1.346   2.105   6.676
 6712TIP3    H120079   1.331   2.069   6.589
 6712TIP3    H220080   1.312   2.194   6.672
 6713TIP3   OH220081   1.328   4.847   0.138
 6713TIP3    H120082   1.343   4.940   0.124
 6713TIP3    H220083   1.234   4.840   0.155
 6714TIP3   OH220084   2.444   6.907   5.557
 6714TIP3    H120085   2.361   6.953   5.543
 6714TIP3    H220086   2.419   6.825   5.599
 6715TIP3   OH220087   8.006   6.099   4.044
 6715TIP3    H120088   7.946   6.124   4.114
 6715TIP3    H220089   8.091   6.128   4.074
 6716TIP3   OH220090   2.699   7.008   2.694
 6716TIP3    H120091   2.780   7.057   2.681
 6716TIP3    H220092   2.715   6.954   2.771
 6717TIP3   OH220093   7.743   6.989   5.087
 6717TIP3    H120094   7.716   6.907   5.046
 6717TIP3    H220095   7.664   7.022   5.131
 6718TIP3   OH220096   7.331   4.316   4.988
 6718TIP3    H120097   7.242   4.337   5.018
 6718TIP3    H220098   7.323   4.230   4.946
 6719TIP3   OH220099   7.508   5.648   2.446
 6719TIP3    H120100   7.499   5.732   2.492
 6719TIP3    H220101   7.583   5.606   2.489
 6720TIP3   OH220102   3.027   0.528   2.187
 6720TIP3    H120103   3.122   0.523   2.187
 6720TIP3    H220104   2.999   0.470   2.258
 6721TIP3   OH220105   6.575   7.580   4.995
 6721TIP3    H120106   6.596   7.671   5.018
 6721TIP3    H220107   6.506   7.588   4.928
 6722TIP3   OH220108   4.913   5.105   3.878
 6722TIP3    H120109   4.863   5.182   3.904
 6722TIP3    H220110   4.940   5.123   3.788
 6723TIP3   OH220111   3.913   0.554   0.894
 6723TIP3    H120112   3.979   0.501   0.939
 6723TIP3    H220113   3.861   0.591   0.965
 6724TIP3   OH220114   7.504   4.273   6.258
 6724TIP3    H120115   7.426   4.321   6.232
 6724TIP3    H220116   7.554   4.335   6.311
 6725TIP3   OH220117   5.029   0.809   4.668
 6725TIP3    H120118   5.060   0.801   4.758
 6725TIP3    H220119   4.970   0.735   4.656
 6726TIP3   OH220120   2.789   4.522   6.541
 6726TIP3    H120121   2.753   4.495   6.626
 6726TIP3    H220122   2.713   4.526   6.483
 6727TIP3   OH220123   6.325   2.834   6.260
 6727TIP3    H120124   6.377   2.882   6.325
 6727TIP3    H220125   6.354   2.869   6.176
 6728TIP3   OH220126   2.300   1.585   4.501
 6728TIP3    H120127   2.319   1.570   4.593
 6728TIP3    H220128   2.382   1.617   4.464
 6729TIP3   OH220129   7.662   3.023   5.459
 6729TIP3    H120130   7.720   3.031   5.383
 6729TIP3    H220131   7.709   3.067   5.530
 6730TIP3   OH220132   7.907   1.989   0.982
 6730TIP3    H120133   7.902   2.053   1.052
 6730TIP3    H220134   7.878   1.907   1.022
 6731TIP3   OH220135   7.684   2.517   2.033
 6731TIP3    H120136   7.672   2.610   2.018
 6731TIP3    H220137   7.613   2.492   2.092
 6732TIP3   OH220138   1.896   0.441   3.433
 6732TIP3    H120139   1.971   0.420   3.377
 6732TIP3    H220140   1.881   0.362   3.485
 6733TIP3   OH220141   7.363   3.794   4.361
 6733TIP3    H120142   7.397   3.781   4.450
 6733TIP3    H220143   7.351   3.706   4.327
 6734TIP3   OH220144   1.218   0.529   2.472
 6734TIP3    H120145   1.127   0.507   2.492
 6734TIP3    H220146   1.225   0.621   2.497
 6735TIP3   OH220147   5.627   7.299   5.728
 6735TIP3    H120148   5.564   7.333   5.792
 6735TIP3    H220149   5.674   7.376   5.697
 6736TIP3   OH220150   3.491   4.141   6.217
 6736TIP3    H120151   3.446   4.073   6.166
 6736TIP3    H220152   3.455   4.132   6.305
 6737TIP3   OH220153   6.794   0.065   0.439
 6737TIP3    H120154   6.827  -0.024   0.447
 6737TIP3    H220155   6.717   0.068   0.496
 6738TIP3   OH220156   4.984   6.264   3.132
 6738TIP3    H120157   5.041   6.216   3.073
 6738TIP3    H220158   5.022   6.251   3.219
 6739TIP3   OH220159   3.895   4.332   2.440
 6739TIP3    H120160   3.966   4.287   2.485
 6739TIP3    H220161   3.884   4.283   2.358
 6740TIP3   OH220162   1.811   5.659   0.837
 6740TIP3    H120163   1.756   5.681   0.762
 6740TIP3    H220164   1.818   5.740   0.887
 6741TIP3   OH220165   7.251   4.247   4.554
 6741TIP3    H120166   7.169   4.199   4.537
 6741TIP3    H220167   7.224   4.323   4.605
 6742TIP3   OH220168   3.024   4.902   0.599
 6742TIP3    H120169   3.016   4.918   0.693
 6742TIP3    H220170   3.026   4.807   0.591
 6743TIP3   OH220171   0.393   6.656   4.595
 6743TIP3    H120172   0.354   6.575   4.565
 6743TIP3    H220173   0.331   6.724   4.568
 6744TIP3   OH220174   6.800   2.139   3.950
 6744TIP3    H120175   6.848   2.212   3.912
 6744TIP3    H220176   6.839   2.061   3.911
 6745TIP3   OH220177   2.266   4.566   5.346
 6745TIP3    H120178   2.255   4.474   5.324
 6745TIP3    H220179   2.244   4.572   5.438
 6746TIP3   OH220180   6.711   0.821   3.633
 6746TIP3    H120181   6.718   0.913   3.656
 6746TIP3    H220182   6.621   0.797   3.657
 6747TIP3   OH220183   7.720   4.246   2.897
 6747TIP3    H120184   7.664   4.317   2.929
 6747TIP3    H220185   7.668   4.204   2.828
 6748TIP3   OH220186   2.676   0.271   4.011
 6748TIP3    H120187   2.682   0.362   3.981
 6748TIP3    H220188   2.754   0.229   3.976
 6749TIP3   OH220189   6.493   1.376   2.771
 6749TIP3    H120190   6.465   1.292   2.736
 6749TIP3    H220191   6.584   1.363   2.796
 6750TIP3   OH220192   3.653   0.268   2.736
 6750TIP3    H120193   3.669   0.360   2.757
 6750TIP3    H220194   3.582   0.271   2.671
 6751TIP3   OH220195   2.515   5.485   1.889
 6751TIP3    H120196   2.445   5.468   1.951
 6751TIP3    H220197   2.577   5.541   1.936
 6752TIP3   OH220198   3.299   2.855   6.731
 6752TIP3    H120199   3.381   2.834   6.688
 6752TIP3    H220200   3.318   2.847   6.825
 6753TIP3   OH220201   3.675   0.999   0.598
 6753TIP3    H120202   3.731   0.933   0.639
 6753TIP3    H220203   3.646   0.958   0.517
 6754TIP3   OH220204   5.283   5.880   5.864
 6754TIP3    H120205   5.197   5.920   5.873
 6754TIP3    H220206   5.266   5.795   5.821
 6755TIP3   OH220207   4.857   3.553   2.809
 6755TIP3    H120208   4.945   3.537   2.776
 6755TIP3    H220209   4.801   3.494   2.759
 6756TIP3   OH220210   2.484   4.992   4.371
 6756TIP3    H120211   2.413   4.932   4.347
 6756TIP3    H220212   2.503   5.040   4.290
 6757TIP3   OH220213   6.575   1.947   4.606
 6757TIP3    H120214   6.633   1.965   4.532
 6757TIP3    H220215   6.496   1.997   4.587
 6758TIP3   OH220216   2.651   7.591   6.181
 6758TIP3    H120217   2.651   7.564   6.273
 6758TIP3    H220218   2.620   7.681   6.183
 6759TIP3   OH220219   2.297   6.937   3.338
 6759TIP3    H120220   2.365   6.997   3.310
 6759TIP3    H220221   2.230   6.944   3.269
 6760TIP3   OH220222   7.495   5.020   1.182
 6760TIP3    H120223   7.528   5.033   1.092
 6760TIP3    H220224   7.420   5.078   1.188
 6761TIP3   OH220225   1.036   6.050   0.819
 6761TIP3    H120226   0.973   6.119   0.841
 6761TIP3    H220227   1.053   6.006   0.902
 6762TIP3   OH220228   2.670   5.541   5.531
 6762TIP3    H120229   2.707   5.619   5.490
 6762TIP3    H220230   2.577   5.560   5.540
 6763TIP3   OH220231   0.871   0.252   0.047
 6763TIP3    H120232   0.889   0.287   0.134
 6763TIP3    H220233   0.855   0.159   0.062
 6764TIP3   OH220234   7.090   2.655   5.287
 6764TIP3    H120235   7.143   2.616   5.218
 6764TIP3    H220236   7.059   2.581   5.339
 6765TIP3   OH220237   0.876   4.292   2.492
 6765TIP3    H120238   0.947   4.311   2.553
 6765TIP3    H220239   0.898   4.205   2.457
 6766TIP3   OH220240   4.356   1.802   2.796
 6766TIP3    H120241   4.388   1.886   2.762
 6766TIP3    H220242   4.302   1.827   2.872
 6767TIP3   OH220243   6.312   6.819   4.800
 6767TIP3    H120244   6.272   6.887   4.853
 6767TIP3    H220245   6.378   6.779   4.857
 6768TIP3   OH220246   8.018   0.425   5.930
 6768TIP3    H120247   8.108   0.423   5.960
 6768TIP3    H220248   7.966   0.439   6.009
 6769TIP3   OH220249   3.269   1.087   6.064
 6769TIP3    H120250   3.290   1.057   5.975
 6769TIP3    H220251   3.209   1.160   6.051
 6770TIP3   OH220252   3.301   3.553   4.495
 6770TIP3    H120253   3.246   3.476   4.509
 6770TIP3    H220254   3.386   3.518   4.469
 6771TIP3   OH220255   5.317   5.511   2.755
 6771TIP3    H120256   5.379   5.547   2.819
 6771TIP3    H220257   5.332   5.561   2.675
 6772TIP3   OH220258   4.237   5.006   2.332
 6772TIP3    H120259   4.317   4.986   2.282
 6772TIP3    H220260   4.202   4.920   2.356
 6773TIP3   OH220261   3.677   4.052   2.520
 6773TIP3    H120262   3.638   4.024   2.437
 6773TIP3    H220263   3.765   4.014   2.519
 6774TIP3   OH220264   7.563   1.165   2.513
 6774TIP3    H120265   7.514   1.158   2.431
 6774TIP3    H220266   7.621   1.239   2.500
 6775TIP3   OH220267   4.940   0.369   3.087
 6775TIP3    H120268   4.881   0.372   3.162
 6775TIP3    H220269   4.966   0.460   3.074
 6776TIP3   OH220270   5.254   1.422   5.187
 6776TIP3    H120271   5.286   1.373   5.111
 6776TIP3    H220272   5.231   1.508   5.153
 6777TIP3   OH220273   0.728   5.373   4.245
 6777TIP3    H120274   0.709   5.284   4.215
 6777TIP3    H220275   0.661   5.427   4.202
 6778TIP3   OH220276   7.292   0.158   1.962
 6778TIP3    H120277   7.225   0.091   1.946
 6778TIP3    H220278   7.359   0.141   1.896
 6779TIP3   OH220279   4.438   7.766   4.053
 6779TIP3    H120280   4.495   7.763   3.975
 6779TIP3    H220281   4.350   7.749   4.018
 6780TIP3   OH220282   3.888   6.250   4.679
 6780TIP3    H120283   3.906   6.219   4.768
 6780TIP3    H220284   3.962   6.306   4.657
 6781TIP3   OH220285   5.882   7.644   3.032
 6781TIP3    H120286   5.912   7.651   2.941
 6781TIP3    H220287   5.814   7.577   3.029
 6782TIP3   OH220288   3.345   1.622   2.253
 6782TIP3    H120289   3.413   1.571   2.298
 6782TIP3    H220290   3.265   1.572   2.266
 6783TIP3   OH220291   6.103   3.581   2.391
 6783TIP3    H120292   6.143   3.554   2.309
 6783TIP3    H220293   6.028   3.634   2.364
 6784TIP3   OH220294   7.504   4.060   5.607
 6784TIP3    H120295   7.590   4.026   5.579
 6784TIP3    H220296   7.441   3.999   5.568
 6785TIP3   OH220297   1.118   1.366   6.132
 6785TIP3    H120298   1.095   1.292   6.074
 6785TIP3    H220299   1.041   1.379   6.186
 6786TIP3   OH220300   1.520   7.438   3.494
 6786TIP3    H120301   1.613   7.446   3.517
 6786TIP3    H220302   1.490   7.527   3.480
 6787TIP3   OH220303   7.398   0.614   3.810
 6787TIP3    H120304   7.479   0.584   3.769
 6787TIP3    H220305   7.337   0.541   3.797
 6788TIP3   OH220306   0.987   7.402   4.301
 6788TIP3    H120307   1.050   7.452   4.352
 6788TIP3    H220308   1.013   7.310   4.314
 6789TIP3   OH220309   0.611   5.436   6.008
 6789TIP3    H120310   0.652   5.425   5.922
 6789TIP3    H220311   0.647   5.364   6.061
 6790TIP3   OH220312   0.899   2.314   2.263
 6790TIP3    H120313   0.882   2.402   2.294
 6790TIP3    H220314   0.917   2.263   2.342
 6791TIP3   OH220315   6.846   1.742   2.521
 6791TIP3    H120316   6.797   1.690   2.586
 6791TIP3    H220317   6.848   1.830   2.558
 6792TIP3   OH220318   6.992   4.527   5.758
 6792TIP3    H120319   6.936   4.585   5.706
 6792TIP3    H220320   7.075   4.525   5.710
 6793TIP3   OH220321   0.244   4.686   2.594
 6793TIP3    H120322   0.327   4.642   2.609
 6793TIP3    H220323   0.237   4.750   2.666
 6794TIP3   OH220324   6.237   2.469   0.310
 6794TIP3    H120325   6.195   2.436   0.390
 6794TIP3    H220326   6.325   2.492   0.338
 6795TIP3   OH220327   5.454   2.318   4.548
 6795TIP3    H120328   5.454   2.342   4.641
 6795TIP3    H220329   5.542   2.340   4.518
 6796TIP3   OH220330   0.948   3.364   2.446
 6796TIP3    H120331   0.888   3.310   2.498
 6796TIP3    H220332   0.930   3.338   2.355
 6797TIP3   OH220333   1.028   2.844   5.954
 6797TIP3    H120334   0.956   2.893   5.914
 6797TIP3    H220335   1.082   2.816   5.881
 6798TIP3   OH220336   7.381   3.859   5.446
 6798TIP3    H120337   7.412   3.773   5.419
 6798TIP3    H220338   7.314   3.842   5.512
 6799TIP3   OH220339   3.028   0.444   0.337
 6799TIP3    H120340   3.005   0.537   0.345
 6799TIP3    H220341   3.008   0.407   0.423
 6800TIP3   OH220342   2.814   0.147   5.291
 6800TIP3    H120343   2.751   0.178   5.356
 6800TIP3    H220344   2.782   0.181   5.208
 6801TIP3   OH220345   3.246   7.159   0.383
 6801TIP3    H120346   3.278   7.173   0.294
 6801TIP3    H220347   3.221   7.067   0.385
 6802TIP3   OH220348   3.481   3.320   1.429
 6802TIP3    H120349   3.522   3.337   1.344
 6802TIP3    H220350   3.536   3.252   1.469
 6803TIP3   OH220351   2.355   3.125   6.770
 6803TIP3    H120352   2.380   3.036   6.744
 6803TIP3    H220353   2.264   3.133   6.742
 6804TIP3   OH220354   1.706   3.859   3.883
 6804TIP3    H120355   1.752   3.825   3.960
 6804TIP3    H220356   1.696   3.784   3.825
 6805TIP3   OH220357   6.205   1.195   0.588
 6805TIP3    H120358   6.241   1.235   0.667
 6805TIP3    H220359   6.159   1.117   0.619
 6806TIP3   OH220360   4.946   6.475   3.538
 6806TIP3    H120361   4.910   6.407   3.595
 6806TIP3    H220362   4.900   6.555   3.564
 6807TIP3   OH220363   3.330   7.637   0.792
 6807TIP3    H120364   3.333   7.599   0.880
 6807TIP3    H220365   3.240   7.626   0.765
 6808TIP3   OH220366   5.860   7.315   4.051
 6808TIP3    H120367   5.877   7.249   4.119
 6808TIP3    H220368   5.944   7.324   4.006
 6809TIP3   OH220369   6.073   0.900   5.403
 6809TIP3    H120370   5.985   0.906   5.440
 6809TIP3    H220371   6.061   0.921   5.310
 6810TIP3   OH220372   2.207   6.570   3.640
 6810TIP3    H120373   2.162   6.632   3.697
 6810TIP3    H220374   2.162   6.487   3.654
 6811TIP3   OH220375   2.036   0.072   4.155
 6811TIP3    H120376   1.992   0.119   4.226
 6811TIP3    H220377   1.999  -0.016   4.158
 6812TIP3   OH220378   6.715   1.303   5.432
 6812TIP3    H120379   6.688   1.291   5.523
 6812TIP3    H220380   6.634   1.317   5.384
 6813TIP3   OH220381   0.194   6.455   6.620
 6813TIP3    H120382   0.227   6.367   6.605
 6813TIP3    H220383   0.146   6.477   6.539
 6814TIP3   OH220384   3.608   1.166   2.686
 6814TIP3    H120385   3.594   1.074   2.706
 6814TIP3    H220386   3.672   1.166   2.615
 6815TIP3   OH220387   7.649   1.183   6.580
 6815TIP3    H120388   7.686   1.192   6.667
 6815TIP3    H220389   7.723   1.198   6.521
 6816TIP3   OH220390   6.879   0.496   1.526
 6816TIP3    H120391   6.909   0.570   1.577
 6816TIP3    H220392   6.954   0.436   1.523
 6817TIP3   OH220393   2.966   7.387   6.399
 6817TIP3    H120394   2.931   7.453   6.459
 6817TIP3    H220395   3.039   7.348   6.447
 6818TIP3   OH220396   6.845   7.636   2.739
 6818TIP3    H120397   6.853   7.707   2.676
 6818TIP3    H220398   6.934   7.602   2.749
 6819TIP3   OH220399   6.141   6.567   6.739
 6819TIP3    H120400   6.063   6.512   6.739
 6819TIP3    H220401   6.177   6.559   6.651
 6820TIP3   OH220402   3.911   0.985   5.133
 6820TIP3    H120403   3.909   0.985   5.037
 6820TIP3    H220404   3.959   0.906   5.156
 6821TIP3   OH220405   7.137   4.825   6.227
 6821TIP3    H120406   7.094   4.910   6.211
 6821TIP3    H220407   7.127   4.778   6.145
 6822TIP3   OH220408   4.094   7.511   5.301
 6822TIP3    H120409   4.076   7.591   5.252
 6822TIP3    H220410   4.008   7.483   5.334
 6823TIP3   OH220411   3.720   0.203   1.597
 6823TIP3    H120412   3.660   0.153   1.654
 6823TIP3    H220413   3.664   0.244   1.532
 6824TIP3   OH220414   7.139   2.364   5.039
 6824TIP3    H120415   7.063   2.407   5.000
 6824TIP3    H220416   7.203   2.434   5.049
 6825TIP3   OH220417   3.455   6.473   5.931
 6825TIP3    H120418   3.379   6.531   5.931
 6825TIP3    H220419   3.502   6.494   5.850
 6826TIP3   OH220420   2.814   3.322   6.674
 6826TIP3    H120421   2.906   3.331   6.702
 6826TIP3    H220422   2.794   3.407   6.634
 6827TIP3   OH220423   5.981   6.079   0.239
 6827TIP3    H120424   5.964   6.139   0.312
 6827TIP3    H220425   5.999   5.995   0.281
 6828TIP3   OH220426   7.562   1.313   3.554
 6828TIP3    H120427   7.593   1.233   3.511
 6828TIP3    H220428   7.472   1.293   3.580
 6829TIP3   OH220429   5.686   5.000   6.286
 6829TIP3    H120430   5.595   5.000   6.255
 6829TIP3    H220431   5.731   4.940   6.227
 6830TIP3   OH220432   0.896   5.276   3.635
 6830TIP3    H120433   0.814   5.249   3.594
 6830TIP3    H220434   0.965   5.241   3.578
 6831TIP3   OH220435   1.435   2.987   3.587
 6831TIP3    H120436   1.454   3.048   3.515
 6831TIP3    H220437   1.348   2.953   3.567
 6832TIP3   OH220438   0.865   1.517   0.568
 6832TIP3    H120439   0.826   1.565   0.641
 6832TIP3    H220440   0.803   1.527   0.496
 6833TIP3   OH220441   2.181   3.650   5.108
 6833TIP3    H120442   2.104   3.623   5.158
 6833TIP3    H220443   2.148   3.665   5.019
 6834TIP3   OH220444   2.007   0.267   5.591
 6834TIP3    H120445   2.025   0.293   5.501
 6834TIP3    H220446   2.038   0.342   5.643
 6835TIP3   OH220447   7.432   5.702   0.966
 6835TIP3    H120448   7.342   5.724   0.942
 6835TIP3    H220449   7.450   5.621   0.918
 6836TIP3   OH220450   6.875   2.998   2.133
 6836TIP3    H120451   6.927   3.073   2.160
 6836TIP3    H220452   6.806   2.991   2.199
 6837TIP3   OH220453   1.570   2.361   1.590
 6837TIP3    H120454   1.600   2.388   1.677
 6837TIP3    H220455   1.486   2.317   1.607
 6838TIP3   OH220456   2.716   4.806   4.309
 6838TIP3    H120457   2.626   4.798   4.275
 6838TIP3    H220458   2.731   4.900   4.315
 6839TIP3   OH220459   5.956   0.671   4.619
 6839TIP3    H120460   5.937   0.593   4.672
 6839TIP3    H220461   5.874   0.689   4.573
 6840TIP3   OH220462   6.149   3.125   0.805
 6840TIP3    H120463   6.103   3.074   0.739
 6840TIP3    H220464   6.152   3.068   0.882
 6841TIP3   OH220465   1.495   3.668   1.173
 6841TIP3    H120466   1.523   3.608   1.103
 6841TIP3    H220467   1.490   3.754   1.130
 6842TIP3   OH220468   6.781   3.198   2.660
 6842TIP3    H120469   6.801   3.218   2.568
 6842TIP3    H220470   6.853   3.141   2.688
 6843TIP3   OH220471   6.759   5.136   1.356
 6843TIP3    H120472   6.746   5.161   1.448
 6843TIP3    H220473   6.699   5.062   1.344
 6844TIP3   OH220474   4.021   6.312   2.039
 6844TIP3    H120475   3.955   6.280   2.101
 6844TIP3    H220476   4.104   6.302   2.084
 6845TIP3   OH220477   6.344   1.556   0.907
 6845TIP3    H120478   6.347   1.619   0.835
 6845TIP3    H220479   6.251   1.536   0.918
 6846TIP3   OH220480   5.577   6.712   3.355
 6846TIP3    H120481   5.546   6.641   3.411
 6846TIP3    H220482   5.670   6.692   3.341
 6847TIP3   OH220483   0.887   2.824   4.650
 6847TIP3    H120484   0.883   2.900   4.708
 6847TIP3    H220485   0.911   2.861   4.565
 6848TIP3   OH220486   3.022   1.511   5.015
 6848TIP3    H120487   3.036   1.454   4.939
 6848TIP3    H220488   3.077   1.473   5.084
 6849TIP3   OH220489   3.450   2.316   0.489
 6849TIP3    H120490   3.414   2.284   0.571
 6849TIP3    H220491   3.512   2.385   0.515
 6850TIP3   OH220492   5.071   5.238   5.997
 6850TIP3    H120493   5.137   5.233   5.928
 6850TIP3    H220494   5.022   5.156   5.990
 6851TIP3   OH220495   5.989   6.002   6.478
 6851TIP3    H120496   6.036   6.033   6.401
 6851TIP3    H220497   6.054   6.006   6.549
 6852TIP3   OH220498   2.809   2.154   2.004
 6852TIP3    H120499   2.874   2.153   1.934
 6852TIP3    H220500   2.741   2.094   1.973
 6853TIP3   OH220501   1.989   3.159   0.937
 6853TIP3    H120502   1.986   3.253   0.949
 6853TIP3    H220503   1.921   3.125   0.995
 6854TIP3   OH220504   0.845   5.628   2.364
 6854TIP3    H120505   0.939   5.640   2.379
 6854TIP3    H220506   0.832   5.534   2.364
 6855TIP3   OH220507   7.760   1.963   0.268
 6855TIP3    H120508   7.670   1.937   0.287
 6855TIP3    H220509   7.780   1.922   0.183
 6856TIP3   OH220510   3.906   6.951   1.579
 6856TIP3    H120511   3.942   6.871   1.540
 6856TIP3    H220512   3.819   6.959   1.540
 6857TIP3   OH220513   6.690   0.656   3.957
 6857TIP3    H120514   6.657   0.746   3.953
 6857TIP3    H220515   6.644   0.611   3.886
 6858TIP3   OH220516   3.814   7.479   2.408
 6858TIP3    H120517   3.820   7.388   2.435
 6858TIP3    H220518   3.735   7.484   2.355
 6859TIP3   OH220519   4.379   0.067   4.171
 6859TIP3    H120520   4.373   0.004   4.243
 6859TIP3    H220521   4.319   0.137   4.194
 6860TIP3   OH220522   6.780   4.837   0.648
 6860TIP3    H120523   6.797   4.747   0.676
 6860TIP3    H220524   6.688   4.837   0.621
 6861TIP3   OH220525   2.445   0.284   2.033
 6861TIP3    H120526   2.371   0.318   2.083
 6861TIP3    H220527   2.478   0.211   2.085
 6862TIP3   OH220528   2.202   1.893   2.791
 6862TIP3    H120529   2.211   1.820   2.852
 6862TIP3    H220530   2.235   1.859   2.707
 6863TIP3   OH220531   2.366   4.475   4.421
 6863TIP3    H120532   2.458   4.487   4.445
 6863TIP3    H220533   2.334   4.410   4.483
 6864TIP3   OH220534   3.361   1.132   0.645
 6864TIP3    H120535   3.424   1.199   0.618
 6864TIP3    H220536   3.318   1.169   0.722
 6865TIP3   OH220537   0.656   0.238   6.273
 6865TIP3    H120538   0.655   0.176   6.201
 6865TIP3    H220539   0.595   0.307   6.246
 6866TIP3   OH220540   3.813   2.303   0.006
 6866TIP3    H120541   3.853   2.390   0.000
 6866TIP3    H220542   3.768   2.304   0.091
 6867TIP3   OH220543   2.736   5.896   2.414
 6867TIP3    H120544   2.761   5.948   2.490
 6867TIP3    H220545   2.641   5.900   2.412
 6868TIP3   OH220546   0.432   3.812   2.529
 6868TIP3    H120547   0.406   3.744   2.591
 6868TIP3    H220548   0.493   3.867   2.577
 6869TIP3   OH220549   5.304   7.096   0.424
 6869TIP3    H120550   5.290   7.172   0.481
 6869TIP3    H220551   5.230   7.098   0.363
 6870TIP3   OH220552   6.902   6.931   4.716
 6870TIP3    H120553   6.963   6.890   4.776
 6870TIP3    H220554   6.868   7.007   4.764
 6871TIP3   OH220555   5.194   2.491   1.729
 6871TIP3    H120556   5.140   2.439   1.669
 6871TIP3    H220557   5.248   2.546   1.672
 6872TIP3   OH220558   1.689   7.156   5.406
 6872TIP3    H120559   1.751   7.176   5.336
 6872TIP3    H220560   1.654   7.070   5.384
 6873TIP3   OH220561   2.297   0.746   3.092
 6873TIP3    H120562   2.345   0.692   3.029
 6873TIP3    H220563   2.212   0.761   3.049
 6874TIP3   OH220564   0.687   3.235   2.258
 6874TIP3    H120565   0.634   3.185   2.319
 6874TIP3    H220566   0.642   3.319   2.248
 6875TIP3   OH220567   3.052   4.554   3.364
 6875TIP3    H120568   2.989   4.599   3.308
 6875TIP3    H220569   3.023   4.463   3.363
 6876TIP3   OH220570   7.133   2.035   3.952
 6876TIP3    H120571   7.106   2.035   4.044
 6876TIP3    H220572   7.053   2.057   3.904
 6877TIP3   OH220573   7.441   2.585   0.658
 6877TIP3    H120574   7.451   2.579   0.563
 6877TIP3    H220575   7.349   2.606   0.671
 6878TIP3   OH220576   7.732   4.275   6.033
 6878TIP3    H120577   7.759   4.219   5.960
 6878TIP3    H220578   7.645   4.243   6.057
 6879TIP3   OH220579   6.380   2.517   1.602
 6879TIP3    H120580   6.444   2.552   1.664
 6879TIP3    H220581   6.295   2.536   1.642
 6880TIP3   OH220582   3.019   4.666   5.229
 6880TIP3    H120583   3.028   4.588   5.174
 6880TIP3    H220584   2.958   4.640   5.297
 6881TIP3   OH220585   4.065   1.435   4.219
 6881TIP3    H120586   4.139   1.440   4.159
 6881TIP3    H220587   4.008   1.508   4.193
 6882TIP3   OH220588   4.525   4.476   2.443
 6882TIP3    H120589   4.527   4.555   2.388
 6882TIP3    H220590   4.555   4.406   2.385
 6883TIP3   OH220591   5.427   3.978   4.263
 6883TIP3    H120592   5.451   4.062   4.224
 6883TIP3    H220593   5.510   3.942   4.295
 6884TIP3   OH220594   6.812   4.157   4.243
 6884TIP3    H120595   6.793   4.204   4.162
 6884TIP3    H220596   6.730   4.116   4.268
 6885TIP3   OH220597   0.346   0.264   4.525
 6885TIP3    H120598   0.277   0.253   4.459
 6885TIP3    H220599   0.309   0.224   4.604
 6886TIP3   OH220600   5.798   2.338   1.477
 6886TIP3    H120601   5.752   2.413   1.513
 6886TIP3    H220602   5.890   2.354   1.499
 6887TIP3   OH220603   8.099   4.966   3.077
 6887TIP3    H120604   8.049   4.998   3.153
 6887TIP3    H220605   8.098   5.039   3.015
 6888TIP3   OH220606   7.197   2.006   1.648
 6888TIP3    H120607   7.265   2.073   1.640
 6888TIP3    H220608   7.155   2.026   1.732
 6889TIP3   OH220609   8.257   4.149   6.740
 6889TIP3    H120610   8.163   4.137   6.756
 6889TIP3    H220611   8.271   4.115   6.652
 6890TIP3   OH220612   1.121   4.198   5.283
 6890TIP3    H120613   1.107   4.290   5.308
 6890TIP3    H220614   1.042   4.174   5.236
 6891TIP3   OH220615   0.145   1.688   1.474
 6891TIP3    H120616   0.071   1.669   1.416
 6891TIP3    H220617   0.159   1.782   1.465
 6892TIP3   OH220618   0.960   2.429   3.338
 6892TIP3    H120619   0.938   2.442   3.430
 6892TIP3    H220620   1.039   2.376   3.340
 6893TIP3   OH220621   0.700   3.878   6.443
 6893TIP3    H120622   0.681   3.823   6.368
 6893TIP3    H220623   0.783   3.921   6.421
 6894TIP3   OH220624   6.950   1.315   6.330
 6894TIP3    H120625   7.041   1.336   6.349
 6894TIP3    H220626   6.951   1.223   6.302
 6895TIP3   OH220627   2.445   7.161   3.570
 6895TIP3    H120628   2.531   7.172   3.532
 6895TIP3    H220629   2.384   7.170   3.497
 6896TIP3   OH220630   6.907   7.696   6.593
 6896TIP3    H120631   6.943   7.785   6.595
 6896TIP3    H220632   6.816   7.708   6.565
 6897TIP3   OH220633   5.447   3.395   6.790
 6897TIP3    H120634   5.532   3.417   6.753
 6897TIP3    H220635   5.445   3.300   6.793
 6898TIP3   OH220636   3.430   7.492   0.135
 6898TIP3    H120637   3.452   7.548   0.210
 6898TIP3    H220638   3.501   7.428   0.132
 6899TIP3   OH220639   8.166   3.173   1.508
 6899TIP3    H120640   8.116   3.222   1.443
 6899TIP3    H220641   8.110   3.171   1.586
 6900TIP3   OH220642   0.376   6.483   2.734
 6900TIP3    H120643   0.299   6.539   2.728
 6900TIP3    H220644   0.368   6.439   2.819
 6901TIP3   OH220645   4.363   2.153   2.895
 6901TIP3    H120646   4.404   2.113   2.818
 6901TIP3    H220647   4.270   2.131   2.887
 6902TIP3   OH220648   6.266   2.193   3.037
 6902TIP3    H120649   6.188   2.246   3.056
 6902TIP3    H220650   6.306   2.177   3.122
 6903TIP3   OH220651   0.195   2.981   0.511
 6903TIP3    H120652   0.160   2.999   0.598
 6903TIP3    H220653   0.216   2.887   0.513
 6904TIP3   OH220654   5.810   4.769   4.535
 6904TIP3    H120655   5.741   4.824   4.497
 6904TIP3    H220656   5.768   4.685   4.552
 6905TIP3   OH220657   5.875   3.131   4.784
 6905TIP3    H120658   5.910   3.188   4.852
 6905TIP3    H220659   5.837   3.191   4.719
 6906TIP3   OH220660   2.099   4.145   2.826
 6906TIP3    H120661   2.046   4.175   2.900
 6906TIP3    H220662   2.084   4.050   2.823
 6907TIP3   OH220663   6.732   5.086   6.539
 6907TIP3    H120664   6.737   5.006   6.487
 6907TIP3    H220665   6.651   5.078   6.589
 6908TIP3   OH220666   7.070   2.798   0.027
 6908TIP3    H120667   7.040   2.781  -0.063
 6908TIP3    H220668   7.040   2.887   0.046
 6909TIP3   OH220669   7.644   0.800   0.948
 6909TIP3    H120670   7.651   0.810   0.853
 6909TIP3    H220671   7.707   0.864   0.983
 6910TIP3   OH220672   1.116   2.994   5.374
 6910TIP3    H120673   1.048   3.030   5.317
 6910TIP3    H220674   1.198   3.027   5.337
 6911TIP3   OH220675   1.822   1.005   0.047
 6911TIP3    H120676   1.801   1.092   0.013
 6911TIP3    H220677   1.740   0.956   0.039
 6912TIP3   OH220678   4.974   4.427   5.775
 6912TIP3    H120679   5.020   4.363   5.721
 6912TIP3    H220680   4.938   4.376   5.848
 6913TIP3   OH220681   2.852   4.138   2.074
 6913TIP3    H120682   2.784   4.154   2.009
 6913TIP3    H220683   2.894   4.057   2.046
 6914TIP3   OH220684   5.013   2.197   1.705
 6914TIP3    H120685   5.054   2.274   1.666
 6914TIP3    H220686   5.024   2.128   1.640
 6915TIP3   OH220687   7.841   3.317   3.860
 6915TIP3    H120688   7.763   3.372   3.853
 6915TIP3    H220689   7.867   3.324   3.952
 6916TIP3   OH220690   0.181   5.507   2.616
 6916TIP3    H120691   0.103   5.484   2.668
 6916TIP3    H220692   0.247   5.528   2.682
 6917TIP3   OH220693  -0.017   0.085   4.073
 6917TIP3    H120694  -0.031   0.002   4.028
 6917TIP3    H220695  -0.007   0.062   4.165
 6918TIP3   OH220696   7.418   6.203   2.443
 6918TIP3    H120697   7.446   6.205   2.535
 6918TIP3    H220698   7.469   6.132   2.404
 6919TIP3   OH220699   7.832   5.743   3.610
 6919TIP3    H120700   7.789   5.726   3.694
 6919TIP3    H220701   7.877   5.827   3.623
 6920TIP3   OH220702   5.139   6.921   1.592
 6920TIP3    H120703   5.061   6.866   1.603
 6920TIP3    H220704   5.115   6.982   1.523
 6921TIP3   OH220705   5.455   2.045   6.784
 6921TIP3    H120706   5.472   1.985   6.711
 6921TIP3    H220707   5.512   2.120   6.766
 6922TIP3   OH220708   4.515   2.809   6.441
 6922TIP3    H120709   4.445   2.785   6.380
 6922TIP3    H220710   4.589   2.754   6.416
 6923TIP3   OH220711   3.045   6.820   3.561
 6923TIP3    H120712   2.969   6.846   3.509
 6923TIP3    H220713   3.110   6.791   3.496
 6924TIP3   OH220714   4.497   1.939   6.020
 6924TIP3    H120715   4.454   1.926   6.105
 6924TIP3    H220716   4.577   1.886   6.025
 6925TIP3   OH220717   0.396   6.330   4.390
 6925TIP3    H120718   0.447   6.334   4.470
 6925TIP3    H220719   0.457   6.299   4.323
 6926TIP3   OH220720   6.576   0.188   2.826
 6926TIP3    H120721   6.504   0.208   2.766
 6926TIP3    H220722   6.586   0.093   2.821
 6927TIP3   OH220723   6.938   6.672   6.308
 6927TIP3    H120724   6.908   6.636   6.391
 6927TIP3    H220725   6.959   6.763   6.326
 6928TIP3   OH220726   0.650   3.291   0.058
 6928TIP3    H120727   0.679   3.242   0.135
 6928TIP3    H220728   0.692   3.377   0.067
 6929TIP3   OH220729   3.522   5.864   2.523
 6929TIP3    H120730   3.604   5.831   2.486
 6929TIP3    H220731   3.499   5.800   2.590
 6930TIP3   OH220732   0.106   3.139   1.213
 6930TIP3    H120733   0.081   3.231   1.222
 6930TIP3    H220734   0.150   3.135   1.128
 6931TIP3   OH220735   2.989   7.139   6.146
 6931TIP3    H120736   2.946   7.154   6.061
 6931TIP3    H220737   3.001   7.226   6.183
 6932TIP3   OH220738   5.970   5.359   1.127
 6932TIP3    H120739   6.052   5.352   1.176
 6932TIP3    H220740   5.951   5.453   1.124
 6933TIP3   OH220741   7.841   0.979   1.659
 6933TIP3    H120742   7.934   0.963   1.675
 6933TIP3    H220743   7.815   0.909   1.599
 6934TIP3   OH220744   5.603   5.621   1.472
 6934TIP3    H120745   5.554   5.654   1.547
 6934TIP3    H220746   5.625   5.699   1.421
 6935TIP3   OH220747   7.592   7.425   4.237
 6935TIP3    H120748   7.655   7.388   4.299
 6935TIP3    H220749   7.553   7.349   4.193
 6936TIP3   OH220750   5.258   2.396   1.997
 6936TIP3    H120751   5.316   2.328   1.965
 6936TIP3    H220752   5.240   2.451   1.921
 6937TIP3   OH220753   1.801   1.127   1.840
 6937TIP3    H120754   1.760   1.205   1.801
 6937TIP3    H220755   1.837   1.158   1.923
 6938TIP3   OH220756   1.158   4.732   6.103
 6938TIP3    H120757   1.177   4.701   6.015
 6938TIP3    H220758   1.078   4.784   6.094
 6939TIP3   OH220759   2.042   0.009   4.504
 6939TIP3    H120760   1.947   0.010   4.488
 6939TIP3    H220761   2.063   0.098   4.531
 6940TIP3   OH220762   4.034   5.512   3.429
 6940TIP3    H120763   4.095   5.575   3.389
 6940TIP3    H220764   3.974   5.566   3.480
 6941TIP3   OH220765   1.861   6.047   5.601
 6941TIP3    H120766   1.789   6.106   5.577
 6941TIP3    H220767   1.914   6.099   5.662
 6942TIP3   OH220768   6.447   4.662   1.741
 6942TIP3    H120769   6.473   4.571   1.756
 6942TIP3    H220770   6.376   4.657   1.676
 6943TIP3   OH220771   7.818   0.430   0.078
 6943TIP3    H120772   7.907   0.397   0.069
 6943TIP3    H220773   7.764   0.352   0.092
 6944TIP3   OH220774   2.945   0.023   0.057
 6944TIP3    H120775   2.920   0.033  -0.035
 6944TIP3    H220776   2.946   0.112   0.091
 6945TIP3   OH220777   2.777   6.739   5.166
 6945TIP3    H120778   2.712   6.771   5.229
 6945TIP3    H220779   2.727   6.725   5.086
 6946TIP3   OH220780   4.165   4.701   4.956
 6946TIP3    H120781   4.106   4.745   5.017
 6946TIP3    H220782   4.111   4.631   4.918
 6947TIP3   OH220783   7.837   4.954   1.278
 6947TIP3    H120784   7.920   4.997   1.298
 6947TIP3    H220785   7.789   4.955   1.361
 6948TIP3   OH220786   1.758   0.203   3.917
 6948TIP3    H120787   1.805   0.286   3.910
 6948TIP3    H220788   1.740   0.193   4.010
 6949TIP3   OH220789   0.515   3.250   0.446
 6949TIP3    H120790   0.422   3.270   0.436
 6949TIP3    H220791   0.518   3.162   0.482
 6950TIP3   OH220792   2.480   7.287   2.062
 6950TIP3    H120793   2.517   7.199   2.075
 6950TIP3    H220794   2.505   7.335   2.141
 6951TIP3   OH220795   6.461   2.042   1.213
 6951TIP3    H120796   6.397   2.100   1.253
 6951TIP3    H220797   6.426   2.025   1.125
 6952TIP3   OH220798   4.725   2.858   0.681
 6952TIP3    H120799   4.668   2.912   0.735
 6952TIP3    H220800   4.666   2.803   0.630
 6953TIP3   OH220801   5.499   4.548   6.566
 6953TIP3    H120802   5.471   4.540   6.475
 6953TIP3    H220803   5.418   4.543   6.616
 6954TIP3   OH220804   5.486   3.567   4.096
 6954TIP3    H120805   5.510   3.598   4.009
 6954TIP3    H220806   5.444   3.482   4.081
 6955TIP3   OH220807   6.315   6.175   5.203
 6955TIP3    H120808   6.304   6.131   5.119
 6955TIP3    H220809   6.394   6.136   5.241
 6956TIP3   OH220810   1.065   6.666   2.350
 6956TIP3    H120811   1.045   6.749   2.393
 6956TIP3    H220812   1.026   6.600   2.407
 6957TIP3   OH220813   1.603   1.497   4.980
 6957TIP3    H120814   1.574   1.489   5.071
 6957TIP3    H220815   1.529   1.537   4.935
 6958TIP3   OH220816   7.680   2.440   2.784
 6958TIP3    H120817   7.663   2.348   2.766
 6958TIP3    H220818   7.598   2.473   2.820
 6959TIP3   OH220819   2.899   2.857   4.627
 6959TIP3    H120820   2.868   2.914   4.697
 6959TIP3    H220821   2.931   2.779   4.672
 6960TIP3   OH220822   4.159   0.057   3.273
 6960TIP3    H120823   4.104   0.017   3.205
 6960TIP3    H220824   4.135   0.150   3.270
 6961TIP3   OH220825   6.259   5.695   1.016
 6961TIP3    H120826   6.271   5.786   0.991
 6961TIP3    H220827   6.164   5.684   1.021
 6962TIP3   OH220828   5.798   1.282   4.150
 6962TIP3    H120829   5.732   1.221   4.183
 6962TIP3    H220830   5.815   1.253   4.060
 6963TIP3   OH220831   1.943   0.265   4.829
 6963TIP3    H120832   1.890   0.228   4.900
 6963TIP3    H220833   1.922   0.359   4.831
 6964TIP3   OH220834   1.931   1.722   4.052
 6964TIP3    H120835   1.868   1.654   4.074
 6964TIP3    H220836   2.016   1.679   4.062
 6965TIP3   OH220837   6.214   0.984   5.607
 6965TIP3    H120838   6.230   1.077   5.590
 6965TIP3    H220839   6.167   0.954   5.529
 6966TIP3   OH220840   5.742   4.646   6.740
 6966TIP3    H120841   5.760   4.709   6.670
 6966TIP3    H220842   5.693   4.576   6.698
 6967TIP3   OH220843   7.192   0.980   0.161
 6967TIP3    H120844   7.147   0.900   0.187
 6967TIP3    H220845   7.127   1.027   0.108
 6968TIP3   OH220846   4.470   4.217   5.318
 6968TIP3    H120847   4.471   4.266   5.400
 6968TIP3    H220848   4.387   4.240   5.277
 6969TIP3   OH220849   0.405   3.367   2.975
 6969TIP3    H120850   0.334   3.409   3.024
 6969TIP3    H220851   0.360   3.310   2.913
 6970TIP3   OH220852   7.536   7.438   1.043
 6970TIP3    H120853   7.590   7.468   0.971
 6970TIP3    H220854   7.446   7.445   1.010
 6971TIP3   OH220855   3.663   3.870   4.977
 6971TIP3    H120856   3.597   3.812   4.939
 6971TIP3    H220857   3.664   3.847   5.070
 6972TIP3   OH220858   6.079   4.336   0.188
 6972TIP3    H120859   6.092   4.260   0.245
 6972TIP3    H220860   6.016   4.307   0.123
 6973TIP3   OH220861   7.105   5.235   3.074
 6973TIP3    H120862   7.043   5.235   3.147
 6973TIP3    H220863   7.188   5.208   3.113
 6974TIP3   OH220864   1.915   6.597   5.367
 6974TIP3    H120865   1.893   6.690   5.360
 6974TIP3    H220866   1.989   6.594   5.428
 6975TIP3   OH220867   0.270   6.629   0.087
 6975TIP3    H120868   0.336   6.697   0.071
 6975TIP3    H220869   0.206   6.671   0.144
 6976TIP3   OH220870   3.023   6.384   4.840
 6976TIP3    H120871   3.073   6.423   4.911
 6976TIP3    H220872   2.931   6.402   4.863
 6977TIP3   OH220873   8.146   7.357   3.102
 6977TIP3    H120874   8.231   7.392   3.075
 6977TIP3    H220875   8.135   7.387   3.192
 6978TIP3   OH220876   3.424   1.103   1.308
 6978TIP3    H120877   3.437   1.182   1.360
 6978TIP3    H220878   3.480   1.037   1.349
 6979TIP3   OH220879   5.950   1.716   1.947
 6979TIP3    H120880   5.864   1.693   1.981
 6979TIP3    H220881   5.937   1.801   1.904
 6980TIP3   OH220882   0.369   2.890   1.279
 6980TIP3    H120883   0.422   2.966   1.301
 6980TIP3    H220884   0.285   2.927   1.249
 6981TIP3   OH220885   7.977   7.659   1.893
 6981TIP3    H120886   8.061   7.703   1.905
 6981TIP3    H220887   7.989   7.572   1.931
 6982TIP3   OH220888   4.569   6.646   5.654
 6982TIP3    H120889   4.661   6.659   5.678
 6982TIP3    H220890   4.568   6.645   5.559
 6983TIP3   OH220891   3.677   3.889   0.874
 6983TIP3    H120892   3.641   3.852   0.954
 6983TIP3    H220893   3.739   3.823   0.843
 6984TIP3   OH220894   5.232   6.684   0.980
 6984TIP3    H120895   5.259   6.770   1.012
 6984TIP3    H220896   5.136   6.688   0.979
 6985TIP3   OH220897   1.156   4.630   1.185
 6985TIP3    H120898   1.164   4.717   1.145
 6985TIP3    H220899   1.200   4.638   1.269
 6986TIP3   OH220900   0.398   1.003   2.293
 6986TIP3    H120901   0.305   0.983   2.304
 6986TIP3    H220902   0.444   0.935   2.340
 6987TIP3   OH220903   4.944   6.146   2.740
 6987TIP3    H120904   4.906   6.233   2.731
 6987TIP3    H220905   4.897   6.107   2.814
 6988TIP3   OH220906   4.612   2.199   1.954
 6988TIP3    H120907   4.585   2.213   2.045
 6988TIP3    H220908   4.682   2.262   1.939
 6989TIP3   OH220909   1.556   0.057   4.403
 6989TIP3    H120910   1.630   0.081   4.459
 6989TIP3    H220911   1.570  -0.035   4.382
 6990TIP3   OH220912   6.822   7.509   4.612
 6990TIP3    H120913   6.793   7.475   4.697
 6990TIP3    H220914   6.762   7.469   4.549
 6991TIP3   OH220915   4.276   3.033   4.085
 6991TIP3    H120916   4.276   3.063   3.994
 6991TIP3    H220917   4.237   3.106   4.133
 6992TIP3   OH220918   3.407   7.171   5.678
 6992TIP3    H120919   3.475   7.201   5.617
 6992TIP3    H220920   3.353   7.111   5.627
 6993TIP3   OH220921   5.457   1.323   2.812
 6993TIP3    H120922   5.516   1.264   2.858
 6993TIP3    H220923   5.437   1.391   2.876
 6994TIP3   OH220924   5.213   1.216   4.123
 6994TIP3    H120925   5.270   1.283   4.085
 6994TIP3    H220926   5.237   1.215   4.216
 6995TIP3   OH220927   7.180   1.947   3.304
 6995TIP3    H120928   7.192   2.032   3.262
 6995TIP3    H220929   7.268   1.910   3.310
 6996TIP3   OH220930   7.437   6.693   1.509
 6996TIP3    H120931   7.343   6.703   1.490
 6996TIP3    H220932   7.450   6.598   1.513
 6997TIP3   OH220933   2.694   6.696   4.470
 6997TIP3    H120934   2.711   6.628   4.534
 6997TIP3    H220935   2.671   6.649   4.390
 6998TIP3   OH220936   2.836   1.832   5.705
 6998TIP3    H120937   2.741   1.818   5.705
 6998TIP3    H220938   2.872   1.749   5.737
 6999TIP3   OH220939   6.452   3.188   3.575
 6999TIP3    H120940   6.479   3.130   3.645
 6999TIP3    H220941   6.531   3.206   3.525
 7000TIP3   OH220942   3.074   3.452   3.919
 7000TIP3    H120943   3.004   3.510   3.949
 7000TIP3    H220944   3.088   3.475   3.828
 7001TIP3   OH220945   5.728   1.581   5.715
 7001TIP3    H120946   5.635   1.572   5.697
 7001TIP3    H220947   5.735   1.654   5.775
 7002TIP3   OH220948   7.660   6.918   4.232
 7002TIP3    H120949   7.704   6.883   4.155
 7002TIP3    H220950   7.637   7.008   4.208
 7003TIP3   OH220951   0.275   6.744   3.115
 7003TIP3    H120952   0.227   6.666   3.090
 7003TIP3    H220953   0.274   6.743   3.211
 7004TIP3   OH220954   7.480   5.358   0.202
 7004TIP3    H120955   7.475   5.445   0.162
 7004TIP3    H220956   7.527   5.372   0.284
 7005TIP3   OH220957   1.235   6.205   3.604
 7005TIP3    H120958   1.160   6.244   3.559
 7005TIP3    H220959   1.215   6.216   3.697
 7006TIP3   OH220960   2.293   3.489   5.806
 7006TIP3    H120961   2.216   3.491   5.748
 7006TIP3    H220962   2.266   3.540   5.882
 7007TIP3   OH220963   5.363   4.392   0.660
 7007TIP3    H120964   5.417   4.432   0.592
 7007TIP3    H220965   5.354   4.300   0.634
 7008TIP3   OH220966   3.045   3.562   0.631
 7008TIP3    H120967   3.073   3.644   0.592
 7008TIP3    H220968   3.003   3.514   0.559
 7009TIP3   OH220969   5.407   2.539   6.494
 7009TIP3    H120970   5.363   2.519   6.577
 7009TIP3    H220971   5.498   2.554   6.517
 7010TIP3   OH220972   3.007   2.159   1.824
 7010TIP3    H120973   3.076   2.202   1.875
 7010TIP3    H220974   3.029   2.179   1.733
 7011TIP3   OH220975   5.553   4.885   2.084
 7011TIP3    H120976   5.460   4.904   2.078
 7011TIP3    H220977   5.559   4.790   2.076
 7012TIP3   OH220978   1.991   4.757   5.478
 7012TIP3    H120979   2.083   4.782   5.465
 7012TIP3    H220980   1.942   4.815   5.420
 7013TIP3   OH220981   7.124   3.169   2.136
 7013TIP3    H120982   7.182   3.161   2.060
 7013TIP3    H220983   7.164   3.237   2.189
 7014TIP3   OH220984   2.737   7.408   4.178
 7014TIP3    H120985   2.642   7.408   4.182
 7014TIP3    H220986   2.764   7.360   4.257
 7015TIP3   OH220987   0.711   1.435   2.385
 7015TIP3    H120988   0.642   1.394   2.437
 7015TIP3    H220989   0.704   1.395   2.299
 7016TIP3   OH220990   3.966   1.118   3.700
 7016TIP3    H120991   3.944   1.108   3.608
 7016TIP3    H220992   3.905   1.185   3.732
 7017TIP3   OH220993   7.081   5.789   3.783
 7017TIP3    H120994   7.098   5.871   3.829
 7017TIP3    H220995   7.115   5.804   3.695
 7018TIP3   OH220996   3.657   7.424   0.331
 7018TIP3    H120997   3.727   7.440   0.268
 7018TIP3    H220998   3.701   7.398   0.411
 7019TIP3   OH220999   0.271   3.217   5.888
 7019TIP3    H121000   0.242   3.301   5.922
 7019TIP3    H221001   0.340   3.189   5.948
 7020TIP3   OH221002   2.131   0.271   5.867
 7020TIP3    H121003   2.168   0.250   5.781
 7020TIP3    H221004   2.208   0.283   5.924
 7021TIP3   OH221005   6.247   3.966   1.030
 7021TIP3    H121006   6.264   4.055   0.999
 7021TIP3    H221007   6.258   3.911   0.953
 7022TIP3   OH221008   4.455   7.443   5.537
 7022TIP3    H121009   4.390   7.471   5.601
 7022TIP3    H221010   4.459   7.515   5.474
 7023TIP3   OH221011   4.201   3.124   4.988
 7023TIP3    H121012   4.173   3.041   5.026
 7023TIP3    H221013   4.251   3.098   4.910
 7024TIP3   OH221014   0.228   4.829   6.402
 7024TIP3    H121015   0.151   4.838   6.345
 7024TIP3    H221016   0.255   4.919   6.420
 7025TIP3   OH221017   8.299   3.450   4.622
 7025TIP3    H121018   8.206   3.474   4.621
 7025TIP3    H221019   8.301   3.363   4.662
 7026TIP3   OH221020   7.799   1.227   1.886
 7026TIP3    H121021   7.770   1.318   1.887
 7026TIP3    H221022   7.885   1.229   1.844
 7027TIP3   OH221023   0.827   2.640   1.528
 7027TIP3    H121024   0.864   2.691   1.456
 7027TIP3    H221025   0.746   2.602   1.492
 7028TIP3   OH221026   3.681   5.339   5.400
 7028TIP3    H121027   3.604   5.396   5.404
 7028TIP3    H221028   3.665   5.284   5.324
 7029TIP3   OH221029   5.527   2.600   2.228
 7029TIP3    H121030   5.467   2.668   2.197
 7029TIP3    H221031   5.482   2.561   2.302
 7030TIP3   OH221032   1.155   2.995   1.183
 7030TIP3    H121033   1.243   2.988   1.222
 7030TIP3    H221034   1.170   2.981   1.090
 7031TIP3   OH221035   4.910   5.001   1.649
 7031TIP3    H121036   4.930   5.094   1.662
 7031TIP3    H221037   4.885   4.970   1.737
 7032TIP3   OH221038   1.309   7.454   3.151
 7032TIP3    H121039   1.316   7.365   3.185
 7032TIP3    H221040   1.392   7.469   3.106
 7033TIP3   OH221041   3.928   3.433   2.822
 7033TIP3    H121042   3.870   3.361   2.797
 7033TIP3    H221043   3.888   3.469   2.901
 7034TIP3   OH221044   7.955   6.976   6.147
 7034TIP3    H121045   7.899   6.936   6.079
 7034TIP3    H221046   8.037   6.995   6.102
 7035TIP3   OH221047   2.548   6.778   1.558
 7035TIP3    H121048   2.484   6.730   1.505
 7035TIP3    H221049   2.576   6.715   1.625
 7036TIP3   OH221050   5.886   4.333   0.590
 7036TIP3    H121051   5.877   4.428   0.592
 7036TIP3    H221052   5.841   4.306   0.510
 7037TIP3   OH221053   8.048   1.294   4.002
 7037TIP3    H121054   8.098   1.347   3.940
 7037TIP3    H221055   7.960   1.289   3.963
 7038TIP3   OH221056   7.342   6.481   5.566
 7038TIP3    H121057   7.433   6.451   5.574
 7038TIP3    H221058   7.299   6.413   5.515
 7039TIP3   OH221059   3.047   5.983   3.911
 7039TIP3    H121060   3.036   5.889   3.895
 7039TIP3    H221061   3.031   5.993   4.005
 7040TIP3   OH221062   7.567   6.511   6.015
 7040TIP3    H121063   7.616   6.530   5.935
 7040TIP3    H221064   7.633   6.510   6.084
 7041TIP3   OH221065   4.147   5.533   1.977
 7041TIP3    H121066   4.127   5.594   2.048
 7041TIP3    H221067   4.193   5.460   2.019
 7042TIP3   OH221068   5.300   5.110   2.835
 7042TIP3    H121069   5.219   5.159   2.823
 7042TIP3    H221070   5.278   5.044   2.902
 7043TIP3   OH221071   0.244   1.607   5.984
 7043TIP3    H121072   0.295   1.600   5.903
 7043TIP3    H221073   0.293   1.557   6.048
 7044TIP3   OH221074   1.145   6.625   2.667
 7044TIP3    H121075   1.089   6.569   2.722
 7044TIP3    H221076   1.097   6.707   2.658
 7045TIP3   OH221077   7.386   6.089   5.522
 7045TIP3    H121078   7.320   6.158   5.533
 7045TIP3    H221079   7.338   6.018   5.478
 7046TIP3   OH221080   1.412   0.923   3.363
 7046TIP3    H121081   1.440   0.832   3.362
 7046TIP3    H221082   1.368   0.934   3.447
 7047TIP3   OH221083   0.203   5.166   5.480
 7047TIP3    H121084   0.213   5.071   5.474
 7047TIP3    H221085   0.241   5.189   5.565
 7048TIP3   OH221086   4.704   0.025   5.392
 7048TIP3    H121087   4.722   0.091   5.325
 7048TIP3    H221088   4.609   0.030   5.405
 7049TIP3   OH221089   0.036   0.198   2.439
 7049TIP3    H121090   0.112   0.181   2.495
 7049TIP3    H221091   0.037   0.126   2.375
 7050TIP3   OH221092   5.321   5.619   0.820
 7050TIP3    H121093   5.283   5.553   0.878
 7050TIP3    H221094   5.415   5.602   0.823
 7051TIP3   OH221095   1.360   7.250   1.845
 7051TIP3    H121096   1.294   7.309   1.881
 7051TIP3    H221097   1.442   7.299   1.850
 7052TIP3   OH221098   4.884   7.376   1.140
 7052TIP3    H121099   4.842   7.394   1.224
 7052TIP3    H221100   4.966   7.334   1.162
 7053TIP3   OH221101   0.407   6.263   1.937
 7053TIP3    H121102   0.491   6.306   1.922
 7053TIP3    H221103   0.417   6.222   2.023
 7054TIP3   OH221104   2.845   0.356   3.685
 7054TIP3    H121105   2.829   0.421   3.617
 7054TIP3    H221106   2.855   0.406   3.766
 7055TIP3   OH221107   3.933   4.149   0.286
 7055TIP3    H121108   4.006   4.188   0.238
 7055TIP3    H221109   3.866   4.133   0.220
 7056TIP3   OH221110   0.266   1.913   1.399
 7056TIP3    H121111   0.361   1.922   1.395
 7056TIP3    H221112   0.235   1.997   1.434
 7057TIP3   OH221113   1.760   4.229   3.438
 7057TIP3    H121114   1.735   4.319   3.459
 7057TIP3    H221115   1.851   4.222   3.467
 7058TIP3   OH221116   7.392   6.598   2.764
 7058TIP3    H121117   7.347   6.537   2.705
 7058TIP3    H221118   7.403   6.548   2.845
 7059TIP3   OH221119   0.984   5.828   4.642
 7059TIP3    H121120   1.037   5.861   4.715
 7059TIP3    H221121   1.044   5.771   4.593
 7060TIP3   OH221122   3.610   3.432   5.874
 7060TIP3    H121123   3.631   3.372   5.803
 7060TIP3    H221124   3.555   3.381   5.933
 7061TIP3   OH221125   6.946   2.153   0.088
 7061TIP3    H121126   6.907   2.239   0.101
 7061TIP3    H221127   6.933   2.134  -0.005
 7062TIP3   OH221128   1.745   5.173   2.411
 7062TIP3    H121129   1.816   5.235   2.429
 7062TIP3    H221130   1.711   5.150   2.497
 7063TIP3   OH221131   4.341   7.535   4.580
 7063TIP3    H121132   4.435   7.541   4.561
 7063TIP3    H221133   4.334   7.459   4.638
 7064TIP3   OH221134   7.990   1.584   4.413
 7064TIP3    H121135   7.967   1.505   4.365
 7064TIP3    H221136   7.906   1.628   4.430
 7065TIP3   OH221137   3.755   2.002   2.002
 7065TIP3    H121138   3.665   1.972   2.009
 7065TIP3    H221139   3.769   2.017   1.908
 7066TIP3   OH221140   1.786   3.840   6.329
 7066TIP3    H121141   1.693   3.859   6.323
 7066TIP3    H221142   1.829   3.924   6.318
 7067TIP3   OH221143   3.213   0.815   5.630
 7067TIP3    H121144   3.177   0.887   5.579
 7067TIP3    H221145   3.219   0.742   5.568
 7068TIP3   OH221146   3.980   6.943   5.465
 7068TIP3    H121147   4.026   6.885   5.526
 7068TIP3    H221148   3.887   6.925   5.480
 7069TIP3   OH221149   7.558   5.248   6.118
 7069TIP3    H121150   7.567   5.326   6.172
 7069TIP3    H221151   7.476   5.262   6.069
 7070TIP3   OH221152   2.707   6.196   1.043
 7070TIP3    H121153   2.768   6.252   1.091
 7070TIP3    H221154   2.662   6.146   1.112
 7071TIP3   OH221155   0.655   2.715   1.204
 7071TIP3    H121156   0.723   2.738   1.141
 7071TIP3    H221157   0.626   2.799   1.240
 7072TIP3   OH221158   4.367   5.857   4.847
 7072TIP3    H121159   4.402   5.903   4.772
 7072TIP3    H221160   4.281   5.898   4.862
 7073TIP3   OH221161   7.472   5.255   6.550
 7073TIP3    H121162   7.502   5.301   6.628
 7073TIP3    H221163   7.446   5.168   6.582
 7074TIP3   OH221164   5.108   5.704   4.048
 7074TIP3    H121165   5.138   5.761   3.977
 7074TIP3    H221166   5.097   5.618   4.007
 7075TIP3   OH221167   3.779   7.167   4.796
 7075TIP3    H121168   3.800   7.211   4.714
 7075TIP3    H221169   3.685   7.149   4.791
 7076TIP3   OH221170   4.137   3.238   3.055
 7076TIP3    H121171   4.077   3.199   2.992
 7076TIP3    H221172   4.095   3.224   3.140
 7077TIP3   OH221173   1.445   3.721   0.852
 7077TIP3    H121174   1.511   3.771   0.804
 7077TIP3    H221175   1.494   3.651   0.896
 7078TIP3   OH221176   1.039   5.543   5.323
 7078TIP3    H121177   0.989   5.623   5.307
 7078TIP3    H221178   1.127   5.563   5.289
 7079TIP3   OH221179   7.245   7.375   4.759
 7079TIP3    H121180   7.223   7.457   4.714
 7079TIP3    H221181   7.330   7.392   4.800
 7080TIP3   OH221182   3.191   3.443   3.678
 7080TIP3    H121183   3.172   3.492   3.598
 7080TIP3    H221184   3.279   3.471   3.703
 7081TIP3   OH221185   1.634   1.388   2.408
 7081TIP3    H121186   1.597   1.404   2.495
 7081TIP3    H221187   1.694   1.462   2.395
 7082TIP3   OH221188   1.340   5.942   6.283
 7082TIP3    H121189   1.281   5.948   6.208
 7082TIP3    H221190   1.316   6.016   6.339
 7083TIP3   OH221191   3.013   4.378   5.596
 7083TIP3    H121192   3.104   4.380   5.567
 7083TIP3    H221193   2.964   4.419   5.524
 7084TIP3   OH221194   3.559   3.857   0.566
 7084TIP3    H121195   3.635   3.801   0.547
 7084TIP3    H221196   3.572   3.886   0.656
 7085TIP3   OH221197   0.215   5.482   4.548
 7085TIP3    H121198   0.128   5.514   4.523
 7085TIP3    H221199   0.273   5.519   4.481
 7086TIP3   OH221200   6.718   6.284   3.841
 7086TIP3    H121201   6.718   6.371   3.801
 7086TIP3    H221202   6.670   6.295   3.923
 7087TIP3   OH221203   1.449   2.031   2.696
 7087TIP3    H121204   1.386   2.098   2.723
 7087TIP3    H221205   1.527   2.080   2.672
 7088TIP3   OH221206   6.537   1.935   5.354
 7088TIP3    H121207   6.464   1.950   5.294
 7088TIP3    H221208   6.608   1.903   5.298
 7089TIP3   OH221209   0.229   7.221   4.013
 7089TIP3    H121210   0.222   7.267   4.097
 7089TIP3    H221211   0.286   7.147   4.032
 7090TIP3   OH221212   3.103   5.203   6.642
 7090TIP3    H121213   3.046   5.147   6.591
 7090TIP3    H221214   3.182   5.151   6.656
 7091TIP3   OH221215   2.212   0.374   1.555
 7091TIP3    H121216   2.164   0.354   1.474
 7091TIP3    H221217   2.169   0.322   1.622
 7092TIP3   OH221218   0.817   0.860   4.503
 7092TIP3    H121219   0.846   0.795   4.439
 7092TIP3    H221220   0.798   0.809   4.582
 7093TIP3   OH221221   8.121   7.158   2.432
 7093TIP3    H121222   8.043   7.104   2.442
 7093TIP3    H221223   8.189   7.097   2.403
 7094TIP3   OH221224   0.335   7.172   6.444
 7094TIP3    H121225   0.282   7.094   6.459
 7094TIP3    H221226   0.301   7.236   6.507
 7095TIP3   OH221227   1.063   4.207   6.059
 7095TIP3    H121228   1.088   4.299   6.062
 7095TIP3    H221229   0.985   4.205   6.004
 7096TIP3   OH221230   3.662   0.036   2.907
 7096TIP3    H121231   3.646   0.006   2.817
 7096TIP3    H221232   3.655   0.131   2.902
 7097TIP3   OH221233   5.423   2.803   0.841
 7097TIP3    H121234   5.439   2.888   0.881
 7097TIP3    H221235   5.439   2.817   0.748
 7098TIP3   OH221236   5.841   0.456   3.939
 7098TIP3    H121237   5.934   0.440   3.922
 7098TIP3    H221238   5.833   0.454   4.034
 7099TIP3   OH221239   1.437   6.448   5.836
 7099TIP3    H121240   1.372   6.429   5.904
 7099TIP3    H221241   1.507   6.385   5.851
 7100TIP3   OH221242   6.736   7.414   2.251
 7100TIP3    H121243   6.668   7.405   2.317
 7100TIP3    H221244   6.804   7.353   2.278
 7101TIP3   OH221245   7.862   4.370   6.388
 7101TIP3    H121246   7.832   4.280   6.383
 7101TIP3    H221247   7.792   4.417   6.432
 7102TIP3   OH221248   7.319   3.261   0.865
 7102TIP3    H121249   7.377   3.186   0.875
 7102TIP3    H221250   7.339   3.318   0.939
 7103TIP3   OH221251   4.993   0.418   4.920
 7103TIP3    H121252   5.065   0.473   4.953
 7103TIP3    H221253   5.037   0.343   4.880
 7104TIP3   OH221254   4.322   7.038   5.986
 7104TIP3    H121255   4.300   7.002   5.900
 7104TIP3    H221256   4.359   7.125   5.966
 7105TIP3   OH221257   7.778   2.340   1.817
 7105TIP3    H121258   7.756   2.386   1.898
 7105TIP3    H221259   7.858   2.383   1.786
 7106TIP3   OH221260   6.377   2.684   1.983
 7106TIP3    H121261   6.471   2.671   1.971
 7106TIP3    H221262   6.348   2.606   2.028
 7107TIP3   OH221263   3.161   6.094   5.958
 7107TIP3    H121264   3.125   6.171   6.000
 7107TIP3    H221265   3.255   6.112   5.951
 7108TIP3   OH221266   2.692   3.915   2.970
 7108TIP3    H121267   2.767   3.858   2.949
 7108TIP3    H221268   2.672   3.896   3.061
 7109TIP3   OH221269   5.515   4.377   0.173
 7109TIP3    H121270   5.469   4.296   0.155
 7109TIP3    H221271   5.447   4.437   0.204
 7110TIP3   OH221272   5.857   1.654   0.723
 7110TIP3    H121273   5.812   1.738   0.719
 7110TIP3    H221274   5.788   1.590   0.742
 7111TIP3   OH221275   5.705   3.778   6.181
 7111TIP3    H121276   5.774   3.722   6.215
 7111TIP3    H221277   5.624   3.728   6.195
 7112TIP3   OH221278   2.996   0.493   4.344
 7112TIP3    H121279   3.086   0.508   4.316
 7112TIP3    H221280   2.960   0.431   4.281
 7113TIP3   OH221281   4.218   5.184   3.283
 7113TIP3    H121282   4.253   5.229   3.360
 7113TIP3    H221283   4.259   5.229   3.209
 7114TIP3   OH221284   0.056   7.806   2.314
 7114TIP3    H121285   0.054   7.901   2.298
 7114TIP3    H221286   0.118   7.773   2.249
 7115TIP3   OH221287   7.685   1.851   2.553
 7115TIP3    H121288   7.750   1.917   2.528
 7115TIP3    H221289   7.735   1.771   2.566
 7116TIP3   OH221290   1.286   5.654   5.216
 7116TIP3    H121291   1.361   5.597   5.197
 7116TIP3    H221292   1.319   5.743   5.200
 7117TIP3   OH221293   1.881   2.189   3.616
 7117TIP3    H121294   1.895   2.191   3.710
 7117TIP3    H221295   1.960   2.148   3.581
 7118TIP3   OH221296   7.682   0.503   3.916
 7118TIP3    H121297   7.658   0.501   3.823
 7118TIP3    H221298   7.774   0.476   3.918
 7119TIP3   OH221299   2.751   4.835   2.315
 7119TIP3    H121300   2.741   4.925   2.284
 7119TIP3    H221301   2.699   4.831   2.395
 7120TIP3   OH221302   0.884   4.929   4.551
 7120TIP3    H121303   0.865   4.935   4.457
 7120TIP3    H221304   0.974   4.895   4.555
 7121TIP3   OH221305   3.865   4.876   0.798
 7121TIP3    H121306   3.870   4.807   0.865
 7121TIP3    H221307   3.871   4.958   0.847
 7122TIP3   OH221308   5.621   5.836   5.451
 7122TIP3    H121309   5.675   5.883   5.388
 7122TIP3    H221310   5.652   5.745   5.445
 7123TIP3   OH221311   7.318   1.218   0.996
 7123TIP3    H121312   7.290   1.219   0.905
 7123TIP3    H221313   7.398   1.271   0.997
 7124TIP3   OH221314   6.294   1.648   2.209
 7124TIP3    H121315   6.209   1.693   2.204
 7124TIP3    H221316   6.298   1.613   2.298
 7125TIP3   OH221317   1.272   0.112   6.789
 7125TIP3    H121318   1.266   0.168   6.711
 7125TIP3    H221319   1.180   0.095   6.813
 7126TIP3   OH221320   3.224   0.617   5.424
 7126TIP3    H121321   3.151   0.557   5.412
 7126TIP3    H221322   3.275   0.609   5.344
 7127TIP3   OH221323   3.786   3.575   4.717
 7127TIP3    H121324   3.771   3.654   4.665
 7127TIP3    H221325   3.791   3.504   4.653
 7128TIP3   OH221326   4.011   7.197   4.970
 7128TIP3    H121327   3.944   7.213   4.903
 7128TIP3    H221328   3.987   7.112   5.007
 7129TIP3   OH221329   5.098   2.007   2.074
 7129TIP3    H121330   5.025   2.067   2.064
 7129TIP3    H221331   5.133   2.025   2.162
 7130TIP3   OH221332   6.416   5.552   1.784
 7130TIP3    H121333   6.376   5.584   1.864
 7130TIP3    H221334   6.361   5.477   1.758
 7131TIP3   OH221335   3.203   4.828   2.253
 7131TIP3    H121336   3.138   4.793   2.313
 7131TIP3    H221337   3.285   4.783   2.276
 7132TIP3   OH221338   4.186   3.394   0.915
 7132TIP3    H121339   4.143   3.479   0.926
 7132TIP3    H221340   4.118   3.338   0.877
 7133TIP3   OH221341   7.360   3.982   2.363
 7133TIP3    H121342   7.304   4.027   2.300
 7133TIP3    H221343   7.303   3.963   2.437
 7134TIP3   OH221344   3.925   1.275   3.895
 7134TIP3    H121345   3.910   1.206   3.959
 7134TIP3    H221346   3.866   1.345   3.920
 7135TIP3   OH221347   3.821   3.825   1.384
 7135TIP3    H121348   3.813   3.730   1.377
 7135TIP3    H221349   3.889   3.838   1.450
 7136TIP3   OH221350   0.637   4.642   6.098
 7136TIP3    H121351   0.551   4.685   6.103
 7136TIP3    H221352   0.663   4.652   6.007
 7137TIP3   OH221353   7.834   4.698   4.281
 7137TIP3    H121354   7.837   4.789   4.314
 7137TIP3    H221355   7.863   4.645   4.356
 7138TIP3   OH221356   4.989   4.756   5.969
 7138TIP3    H121357   5.001   4.677   6.022
 7138TIP3    H221358   4.938   4.814   6.025
 7139TIP3   OH221359   1.259   5.030   4.993
 7139TIP3    H121360   1.188   4.967   5.008
 7139TIP3    H221361   1.313   4.990   4.926
 7140TIP3   OH221362   5.228   5.687   3.017
 7140TIP3    H121363   5.284   5.723   3.086
 7140TIP3    H221364   5.236   5.749   2.945
 7141TIP3   OH221365   4.651   3.917   5.736
 7141TIP3    H121366   4.599   3.967   5.799
 7141TIP3    H221367   4.704   3.983   5.691
 7142TIP3   OH221368   5.393   4.524   2.617
 7142TIP3    H121369   5.446   4.577   2.676
 7142TIP3    H221370   5.445   4.520   2.536
 7143TIP3   OH221371   1.989   1.611   5.132
 7143TIP3    H121372   1.947   1.527   5.154
 7143TIP3    H221373   1.958   1.631   5.044
 7144TIP3   OH221374   3.151   4.092   4.378
 7144TIP3    H121375   3.088   4.021   4.388
 7144TIP3    H221376   3.217   4.077   4.445
 7145TIP3   OH221377   6.259   4.824   5.016
 7145TIP3    H121378   6.219   4.882   4.952
 7145TIP3    H221379   6.337   4.790   4.971
 7146TIP3   OH221380   6.178   2.629   6.622
 7146TIP3    H121381   6.200   2.579   6.701
 7146TIP3    H221382   6.193   2.720   6.646
 7147TIP3   OH221383   2.789   3.833   3.699
 7147TIP3    H121384   2.843   3.760   3.669
 7147TIP3    H221385   2.852   3.903   3.719
 7148TIP3   OH221386   0.152   0.196   0.955
 7148TIP3    H121387   0.097   0.252   0.901
 7148TIP3    H221388   0.094   0.166   1.025
 7149TIP3   OH221389   7.276   4.990   3.026
 7149TIP3    H121390   7.229   4.951   2.953
 7149TIP3    H221391   7.212   4.995   3.096
 7150TIP3   OH221392   3.497   0.314   5.843
 7150TIP3    H121393   3.425   0.255   5.868
 7150TIP3    H221394   3.523   0.356   5.924
 7151TIP3   OH221395   3.894   5.642   0.640
 7151TIP3    H121396   3.865   5.732   0.631
 7151TIP3    H221397   3.885   5.605   0.552
 7152TIP3   OH221398   5.931   4.521   3.717
 7152TIP3    H121399   5.936   4.546   3.624
 7152TIP3    H221400   6.020   4.536   3.750
 7153TIP3   OH221401   6.527   6.826   5.798
 7153TIP3    H121402   6.610   6.781   5.812
 7153TIP3    H221403   6.552   6.914   5.769
 7154TIP3   OH221404   0.212   5.244   4.839
 7154TIP3    H121405   0.226   5.226   4.932
 7154TIP3    H221406   0.269   5.319   4.821
 7155TIP3   OH221407   2.629   5.080   2.837
 7155TIP3    H121408   2.577   5.119   2.767
 7155TIP3    H221409   2.570   5.018   2.880
 7156TIP3   OH221410   4.158   0.999   1.788
 7156TIP3    H121411   4.083   0.965   1.739
 7156TIP3    H221412   4.175   1.085   1.749
 7157TIP3   OH221413   1.876   6.717   1.600
 7157TIP3    H121414   1.793   6.689   1.560
 7157TIP3    H221415   1.930   6.745   1.527
 7158TIP3   OH221416   2.823   1.333   6.263
 7158TIP3    H121417   2.891   1.342   6.197
 7158TIP3    H221418   2.743   1.361   6.219
 7159TIP3   OH221419   4.640   3.995   3.854
 7159TIP3    H121420   4.580   3.991   3.780
 7159TIP3    H221421   4.714   4.048   3.823
 7160TIP3   OH221422   1.695   1.808   4.267
 7160TIP3    H121423   1.753   1.769   4.202
 7160TIP3    H221424   1.629   1.855   4.216
 7161TIP3   OH221425   6.454   0.730   3.747
 7161TIP3    H121426   6.436   0.719   3.653
 7161TIP3    H221427   6.467   0.641   3.779
 7162TIP3   OH221428   2.345   2.207   6.560
 7162TIP3    H121429   2.383   2.285   6.521
 7162TIP3    H221430   2.296   2.239   6.636
 7163TIP3   OH221431   2.693   1.567   1.510
 7163TIP3    H121432   2.735   1.512   1.444
 7163TIP3    H221433   2.642   1.630   1.460
 7164TIP3   OH221434   0.071   1.021   4.748
 7164TIP3    H121435   0.128   0.947   4.726
 7164TIP3    H221436   0.091   1.087   4.682
 7165TIP3   OH221437   2.545   0.723   3.507
 7165TIP3    H121438   2.453   0.698   3.511
 7165TIP3    H221439   2.563   0.762   3.593
 7166TIP3   OH221440   4.610   2.628   0.072
 7166TIP3    H121441   4.545   2.617   0.003
 7166TIP3    H221442   4.570   2.590   0.150
 7167TIP3   OH221443   6.034   3.712   1.914
 7167TIP3    H121444   6.123   3.676   1.922
 7167TIP3    H221445   6.044   3.785   1.852
 7168TIP3   OH221446   3.146   7.425   0.564
 7168TIP3    H121447   3.220   7.478   0.535
 7168TIP3    H221448   3.110   7.389   0.483
 7169TIP3   OH221449   5.676   5.591   6.493
 7169TIP3    H121450   5.637   5.531   6.557
 7169TIP3    H221451   5.687   5.538   6.414
 7170TIP3   OH221452   2.005   6.102   5.824
 7170TIP3    H121453   2.078   6.144   5.869
 7170TIP3    H221454   1.954   6.061   5.893
 7171TIP3   OH221455   2.798   3.372   3.017
 7171TIP3    H121456   2.783   3.360   2.923
 7171TIP3    H221457   2.746   3.303   3.059
 7172TIP3   OH221458   7.391   0.911   3.326
 7172TIP3    H121459   7.303   0.874   3.333
 7172TIP3    H221460   7.422   0.917   3.416
 7173TIP3   OH221461   4.845   4.214   1.313
 7173TIP3    H121462   4.775   4.149   1.309
 7173TIP3    H221463   4.846   4.244   1.404
 7174TIP3   OH221464   3.680   0.643   3.090
 7174TIP3    H121465   3.680   0.551   3.062
 7174TIP3    H221466   3.723   0.642   3.175
 7175TIP3   OH221467   6.870   0.911   1.375
 7175TIP3    H121468   6.925   0.865   1.439
 7175TIP3    H221469   6.878   1.003   1.398
 7176TIP3   OH221470   5.005   6.215   5.709
 7176TIP3    H121471   4.921   6.223   5.755
 7176TIP3    H221472   5.026   6.304   5.682
 7177TIP3   OH221473   8.153   2.249   4.748
 7177TIP3    H121474   8.134   2.289   4.833
 7177TIP3    H221475   8.179   2.322   4.692
 7178TIP3   OH221476   7.159   3.512   5.854
 7178TIP3    H121477   7.202   3.524   5.939
 7178TIP3    H221478   7.160   3.599   5.815
 7179TIP3   OH221479   1.760   3.062   2.705
 7179TIP3    H121480   1.673   3.022   2.708
 7179TIP3    H221481   1.743   3.156   2.714
 7180TIP3   OH221482   2.051   5.848   0.505
 7180TIP3    H121483   2.057   5.826   0.598
 7180TIP3    H221484   2.140   5.835   0.472
 7181TIP3   OH221485   7.038   6.545   3.818
 7181TIP3    H121486   6.987   6.578   3.893
 7181TIP3    H221487   7.126   6.578   3.833
 7182TIP3   OH221488   7.311   0.544   5.372
 7182TIP3    H121489   7.381   0.506   5.318
 7182TIP3    H221490   7.327   0.510   5.460
 7183TIP3   OH221491   7.566   3.066   1.945
 7183TIP3    H121492   7.601   3.096   1.861
 7183TIP3    H221493   7.519   3.141   1.981
 7184TIP3   OH221494   5.935   2.530   1.237
 7184TIP3    H121495   5.924   2.435   1.249
 7184TIP3    H221496   5.922   2.566   1.325
 7185TIP3   OH221497   0.820   1.773   3.382
 7185TIP3    H121498   0.807   1.867   3.398
 7185TIP3    H221499   0.811   1.733   3.469
 7186TIP3   OH221500   6.595   1.441   4.060
 7186TIP3    H121501   6.506   1.472   4.076
 7186TIP3    H221502   6.602   1.361   4.112
 7187TIP3   OH221503   3.472   0.668   5.603
 7187TIP3    H121504   3.424   0.734   5.654
 7187TIP3    H221505   3.475   0.591   5.660
 7188TIP3   OH221506   4.953   3.912   2.415
 7188TIP3    H121507   4.862   3.889   2.393
 7188TIP3    H221508   4.988   3.950   2.335
 7189TIP3   OH221509   5.528   5.840   5.997
 7189TIP3    H121510   5.513   5.750   6.028
 7189TIP3    H221511   5.441   5.872   5.974
 7190TIP3   OH221512   0.529   7.226   3.690
 7190TIP3    H121513   0.601   7.283   3.717
 7190TIP3    H221514   0.450   7.279   3.705
 7191TIP3   OH221515   3.890   7.173   1.393
 7191TIP3    H121516   3.834   7.219   1.455
 7191TIP3    H221517   3.830   7.128   1.334
 7192TIP3   OH221518   1.357   1.942   4.255
 7192TIP3    H121519   1.281   1.966   4.202
 7192TIP3    H221520   1.377   2.020   4.306
 7193TIP3   OH221521   3.593   2.549   3.755
 7193TIP3    H121522   3.643   2.469   3.768
 7193TIP3    H221523   3.508   2.520   3.722
 7194TIP3   OH221524   1.164   5.070   5.526
 7194TIP3    H121525   1.198   5.160   5.531
 7194TIP3    H221526   1.234   5.016   5.564
 7195TIP3   OH221527   2.686   3.679   1.510
 7195TIP3    H121528   2.751   3.616   1.478
 7195TIP3    H221529   2.605   3.628   1.517
 7196TIP3   OH221530   5.809   4.979   0.132
 7196TIP3    H121531   5.876   5.038   0.097
 7196TIP3    H221532   5.808   4.905   0.072
 7197TIP3   OH221533   1.177   7.004   5.502
 7197TIP3    H121534   1.139   7.063   5.567
 7197TIP3    H221535   1.236   7.059   5.450
 7198TIP3   OH221536   2.183   1.386   2.665
 7198TIP3    H121537   2.206   1.430   2.584
 7198TIP3    H221538   2.102   1.339   2.645
 7199TIP3   OH221539   4.737   6.888   1.987
 7199TIP3    H121540   4.730   6.795   2.009
 7199TIP3    H221541   4.809   6.920   2.041
 7200TIP3   OH221542   4.543   3.844   1.481
 7200TIP3    H121543   4.595   3.920   1.504
 7200TIP3    H221544   4.453   3.867   1.506
 7201TIP3   OH221545   4.918   0.762   2.288
 7201TIP3    H121546   4.945   0.768   2.196
 7201TIP3    H221547   4.948   0.675   2.316
 7202TIP3   OH221548   7.636   0.508   1.061
 7202TIP3    H121549   7.615   0.589   1.014
 7202TIP3    H221550   7.727   0.518   1.087
 7203TIP3   OH221551   3.191   2.398   4.593
 7203TIP3    H121552   3.169   2.339   4.521
 7203TIP3    H221553   3.239   2.344   4.655
 7204TIP3   OH221554   3.387   4.639   1.068
 7204TIP3    H121555   3.447   4.713   1.055
 7204TIP3    H221556   3.379   4.599   0.981
 7205TIP3   OH221557   2.027   6.844   2.197
 7205TIP3    H121558   1.999   6.825   2.108
 7205TIP3    H221559   1.980   6.780   2.251
 7206TIP3   OH221560   8.317   3.553   3.336
 7206TIP3    H121561   8.232   3.509   3.330
 7206TIP3    H221562   8.318   3.589   3.425
 7207TIP3   OH221563   7.907   7.682   1.191
 7207TIP3    H121564   7.983   7.624   1.191
 7207TIP3    H221565   7.877   7.682   1.282
 7208TIP3   OH221566   8.152   6.284   5.780
 7208TIP3    H121567   8.224   6.346   5.765
 7208TIP3    H221568   8.073   6.338   5.774
 7209TIP3   OH221569   2.542   2.087   0.964
 7209TIP3    H121570   2.573   1.998   0.976
 7209TIP3    H221571   2.578   2.115   0.880
 7210TIP3   OH221572   5.315   0.730   2.884
 7210TIP3    H121573   5.339   0.731   2.791
 7210TIP3    H221574   5.346   0.646   2.916
 7211TIP3   OH221575   0.490   7.219   2.840
 7211TIP3    H121576   0.533   7.164   2.906
 7211TIP3    H221577   0.551   7.220   2.766
 7212TIP3   OH221578   4.617   7.731   2.661
 7212TIP3    H121579   4.618   7.798   2.730
 7212TIP3    H221580   4.580   7.654   2.703
 7213TIP3   OH221581   6.186   6.396   0.327
 7213TIP3    H121582   6.165   6.349   0.408
 7213TIP3    H221583   6.281   6.388   0.319
 7214TIP3   OH221584   6.243   1.811   4.056
 7214TIP3    H121585   6.156   1.834   4.022
 7214TIP3    H221586   6.300   1.882   4.025
 7215TIP3   OH221587   7.710   3.002   2.415
 7215TIP3    H121588   7.731   2.918   2.374
 7215TIP3    H221589   7.733   2.989   2.507
 7216TIP3   OH221590   3.154   1.626   4.504
 7216TIP3    H121591   3.090   1.556   4.516
 7216TIP3    H221592   3.145   1.681   4.582
 7217TIP3   OH221593   2.356   2.308   0.792
 7217TIP3    H121594   2.395   2.370   0.730
 7217TIP3    H221595   2.392   2.334   0.877
 7218TIP3   OH221596   4.527   1.514   6.223
 7218TIP3    H121597   4.454   1.456   6.199
 7218TIP3    H221598   4.501   1.600   6.190
 7219TIP3   OH221599   2.626   2.926   0.835
 7219TIP3    H121600   2.593   3.001   0.885
 7219TIP3    H221601   2.607   2.948   0.743
 7220TIP3   OH221602   2.744   6.352   5.825
 7220TIP3    H121603   2.775   6.262   5.834
 7220TIP3    H221604   2.756   6.372   5.733
 7221TIP3   OH221605   6.859   6.111   2.554
 7221TIP3    H121606   6.892   6.072   2.634
 7221TIP3    H221607   6.763   6.110   2.564
 7222TIP3   OH221608   0.889   3.323   6.245
 7222TIP3    H121609   0.909   3.415   6.261
 7222TIP3    H221610   0.941   3.275   6.309
 7223TIP3   OH221611   4.942   6.488   1.268
 7223TIP3    H121612   4.852   6.500   1.298
 7223TIP3    H221613   4.978   6.576   1.262
 7224TIP3   OH221614   1.287   7.540   5.550
 7224TIP3    H121615   1.339   7.464   5.576
 7224TIP3    H221616   1.197   7.516   5.574
 7225TIP3   OH221617   3.202   3.506   0.860
 7225TIP3    H121618   3.278   3.470   0.814
 7225TIP3    H221619   3.160   3.562   0.795
 7226TIP3   OH221620   8.202   5.222   3.995
 7226TIP3    H121621   8.144   5.201   4.068
 7226TIP3    H221622   8.252   5.297   4.025
 7227TIP3   OH221623   0.601   2.477   0.283
 7227TIP3    H121624   0.630   2.563   0.312
 7227TIP3    H221625   0.586   2.487   0.189
 7228TIP3   OH221626   5.638   6.622   5.240
 7228TIP3    H121627   5.690   6.670   5.175
 7228TIP3    H221628   5.623   6.537   5.200
 7229TIP3   OH221629   4.451   6.433   3.718
 7229TIP3    H121630   4.368   6.439   3.766
 7229TIP3    H221631   4.424   6.423   3.627
 7230TIP3   OH221632   3.215   4.275   2.972
 7230TIP3    H121633   3.255   4.261   3.058
 7230TIP3    H221634   3.284   4.251   2.910
 7231TIP3   OH221635   6.134   0.801   2.925
 7231TIP3    H121636   6.155   0.751   3.003
 7231TIP3    H221637   6.069   0.748   2.879
 7232TIP3   OH221638   5.544   6.203   2.927
 7232TIP3    H121639   5.566   6.126   2.875
 7232TIP3    H221640   5.556   6.277   2.867
 7233TIP3   OH221641   0.623   4.636   2.794
 7233TIP3    H121642   0.594   4.647   2.703
 7233TIP3    H221643   0.584   4.709   2.841
 7234TIP3   OH221644   6.726   4.539   6.280
 7234TIP3    H121645   6.724   4.505   6.369
 7234TIP3    H221646   6.806   4.503   6.243
 7235TIP3   OH221647   2.350   3.021   4.208
 7235TIP3    H121648   2.345   3.090   4.142
 7235TIP3    H221649   2.443   3.013   4.227
 7236TIP3   OH221650   5.619   3.876   2.641
 7236TIP3    H121651   5.526   3.866   2.659
 7236TIP3    H221652   5.641   3.962   2.676
 7237TIP3   OH221653   3.832   7.115   4.452
 7237TIP3    H121654   3.745   7.078   4.473
 7237TIP3    H221655   3.814   7.184   4.388
 7238TIP3   OH221656   7.925   6.338   0.205
 7238TIP3    H121657   7.890   6.398   0.271
 7238TIP3    H221658   7.980   6.278   0.254
 7239TIP3   OH221659   8.185   2.722   0.935
 7239TIP3    H121660   8.170   2.793   0.872
 7239TIP3    H221661   8.269   2.685   0.909
 7240TIP3   OH221662   3.839   5.212   2.558
 7240TIP3    H121663   3.855   5.192   2.650
 7240TIP3    H221664   3.745   5.200   2.546
 7241TIP3   OH221665   0.605   0.418   3.005
 7241TIP3    H121666   0.557   0.376   3.077
 7241TIP3    H221667   0.536   0.452   2.947
 7242TIP3   OH221668   8.192   5.691   1.858
 7242TIP3    H121669   8.246   5.745   1.800
 7242TIP3    H221670   8.225   5.602   1.845
 7243TIP3   OH221671   0.187   2.397   4.849
 7243TIP3    H121672   0.117   2.387   4.914
 7243TIP3    H221673   0.163   2.476   4.801
 7244TIP3   OH221674   0.342   7.028   3.287
 7244TIP3    H121675   0.433   7.057   3.291
 7244TIP3    H221676   0.291   7.109   3.291
 7245TIP3   OH221677   4.533   7.340   4.302
 7245TIP3    H121678   4.611   7.287   4.317
 7245TIP3    H221679   4.542   7.413   4.363
 7246TIP3   OH221680   0.609   0.048   4.411
 7246TIP3    H121681   0.598   0.094   4.327
 7246TIP3    H221682   0.571  -0.038   4.396
 7247TIP3   OH221683   0.275   3.454   5.527
 7247TIP3    H121684   0.264   3.548   5.510
 7247TIP3    H221685   0.186   3.421   5.536
 7248TIP3   OH221686   2.378   5.847   5.127
 7248TIP3    H121687   2.317   5.867   5.057
 7248TIP3    H221688   2.344   5.767   5.167
 7249TIP3   OH221689   3.560   3.520   4.365
 7249TIP3    H121690   3.521   3.564   4.289
 7249TIP3    H221691   3.629   3.580   4.394
 7250TIP3   OH221692   5.066   6.765   3.097
 7250TIP3    H121693   5.108   6.839   3.139
 7250TIP3    H221694   5.063   6.697   3.165
 7251TIP3   OH221695   5.699   0.025   3.801
 7251TIP3    H121696   5.685  -0.058   3.756
 7251TIP3    H221697   5.702   0.091   3.731
 7252TIP3   OH221698   8.093   6.835   5.114
 7252TIP3    H121699   8.128   6.902   5.055
 7252TIP3    H221700   8.053   6.885   5.185
 7253TIP3   OH221701   1.157   6.509   1.188
 7253TIP3    H121702   1.062   6.500   1.196
 7253TIP3    H221703   1.174   6.510   1.094
 7254TIP3   OH221704   0.971   0.730   4.316
 7254TIP3    H121705   1.032   0.688   4.376
 7254TIP3    H221706   0.924   0.657   4.276
 7255TIP3   OH221707   4.098   0.853   6.020
 7255TIP3    H121708   4.041   0.824   6.090
 7255TIP3    H221709   4.175   0.796   6.025
 7256TIP3   OH221710   3.895   3.387   3.611
 7256TIP3    H121711   3.989   3.405   3.614
 7256TIP3    H221712   3.889   3.299   3.572
 7257TIP3   OH221713   5.814   7.075   6.260
 7257TIP3    H121714   5.790   7.072   6.353
 7257TIP3    H221715   5.827   6.984   6.236
 7258TIP3   OH221716   5.218   4.913   4.294
 7258TIP3    H121717   5.168   4.934   4.215
 7258TIP3    H221718   5.177   4.833   4.326
 7259TIP3   OH221719   3.105   2.695   4.322
 7259TIP3    H121720   3.030   2.754   4.322
 7259TIP3    H221721   3.082   2.626   4.261
 7260TIP3   OH221722   2.741   7.439   3.666
 7260TIP3    H121723   2.691   7.499   3.720
 7260TIP3    H221724   2.675   7.393   3.614
 7261TIP3   OH221725   4.842   1.508   2.873
 7261TIP3    H121726   4.875   1.429   2.831
 7261TIP3    H221727   4.820   1.481   2.962
 7262TIP3   OH221728   2.868   4.837   2.642
 7262TIP3    H121729   2.881   4.918   2.691
 7262TIP3    H221730   2.814   4.783   2.699
 7263TIP3   OH221731   5.746   5.856   5.021
 7263TIP3    H121732   5.769   5.927   4.961
 7263TIP3    H221733   5.726   5.899   5.104
 7264TIP3   OH221734   2.194   4.283   4.533
 7264TIP3    H121735   2.112   4.326   4.508
 7264TIP3    H221736   2.178   4.190   4.517
 7265TIP3   OH221737   1.229   6.219   2.145
 7265TIP3    H121738   1.313   6.172   2.148
 7265TIP3    H221739   1.250   6.304   2.108
 7266TIP3   OH221740   2.682   1.479   5.967
 7266TIP3    H121741   2.700   1.570   5.990
 7266TIP3    H221742   2.623   1.448   6.035
 7267TIP3   OH221743   7.515   2.723   2.767
 7267TIP3    H121744   7.480   2.724   2.857
 7267TIP3    H221745   7.439   2.743   2.712
 7268TIP3   OH221746   3.703   7.662   1.175
 7268TIP3    H121747   3.768   7.592   1.183
 7268TIP3    H221748   3.755   7.742   1.167
 7269TIP3   OH221749   4.446   5.593   3.209
 7269TIP3    H121750   4.448   5.603   3.114
 7269TIP3    H221751   4.521   5.538   3.229
 7270TIP3   OH221752   0.331   0.474   5.729
 7270TIP3    H121753   0.383   0.448   5.653
 7270TIP3    H221754   0.240   0.462   5.702
 7271TIP3   OH221755   0.357   0.337   2.507
 7271TIP3    H121756   0.397   0.333   2.420
 7271TIP3    H221757   0.302   0.415   2.506
 7272TIP3   OH221758   3.725   3.208   0.020
 7272TIP3    H121759   3.706   3.258   0.099
 7272TIP3    H221760   3.654   3.144   0.015
 7273TIP3   OH221761   7.009   5.740   0.083
 7273TIP3    H121762   7.061   5.813   0.049
 7273TIP3    H221763   7.035   5.733   0.174
 7274TIP3   OH221764   3.151   3.489   6.597
 7274TIP3    H121765   3.064   3.529   6.587
 7274TIP3    H221766   3.152   3.455   6.686
 7275TIP3   OH221767   4.390   1.360   0.988
 7275TIP3    H121768   4.387   1.331   1.079
 7275TIP3    H221769   4.353   1.448   0.989
 7276TIP3   OH221770   2.982   2.871   5.043
 7276TIP3    H121771   2.916   2.811   5.076
 7276TIP3    H221772   3.013   2.831   4.962
 7277TIP3   OH221773   2.219   6.394   6.261
 7277TIP3    H121774   2.229   6.485   6.288
 7277TIP3    H221775   2.183   6.400   6.172
 7278TIP3   OH221776   1.532   0.876   2.429
 7278TIP3    H121777   1.477   0.857   2.353
 7278TIP3    H221778   1.496   0.956   2.466
 7279TIP3   OH221779   4.378   2.060   0.409
 7279TIP3    H121780   4.375   2.146   0.369
 7279TIP3    H221781   4.345   2.001   0.341
 7280TIP3   OH221782   5.451   1.676   6.203
 7280TIP3    H121783   5.525   1.658   6.261
 7280TIP3    H221784   5.388   1.608   6.223
 7281TIP3   OH221785   2.259   2.137   0.022
 7281TIP3    H121786   2.346   2.165  -0.007
 7281TIP3    H221787   2.203   2.149  -0.054
 7282TIP3   OH221788   0.633   2.962   4.589
 7282TIP3    H121789   0.705   2.901   4.573
 7282TIP3    H221790   0.675   3.043   4.618
 7283TIP3   OH221791   5.972   7.175   3.641
 7283TIP3    H121792   6.032   7.130   3.581
 7283TIP3    H221793   6.004   7.265   3.645
 7284TIP3   OH221794   2.587   5.783   5.401
 7284TIP3    H121795   2.568   5.873   5.374
 7284TIP3    H221796   2.583   5.732   5.319
 7285TIP3   OH221797   5.016   4.036   2.164
 7285TIP3    H121798   5.066   4.107   2.204
 7285TIP3    H221799   5.052   4.028   2.075
 7286TIP3   OH221800   6.616   1.594   5.957
 7286TIP3    H121801   6.676   1.543   6.011
 7286TIP3    H221802   6.530   1.578   5.995
 7287TIP3   OH221803   2.733   4.095   1.069
 7287TIP3    H121804   2.646   4.070   1.101
 7287TIP3    H221805   2.734   4.191   1.075
 7288TIP3   OH221806   3.762   6.513   2.645
 7288TIP3    H121807   3.674   6.478   2.635
 7288TIP3    H221808   3.752   6.589   2.703
 7289TIP3   OH221809   5.957   5.069   1.817
 7289TIP3    H121810   5.998   5.150   1.786
 7289TIP3    H221811   5.949   5.081   1.912
 7290TIP3   OH221812   5.381   0.240   5.304
 7290TIP3    H121813   5.362   0.237   5.210
 7290TIP3    H221814   5.322   0.175   5.343
 7291TIP3   OH221815   2.941   0.838   2.490
 7291TIP3    H121816   3.035   0.822   2.475
 7291TIP3    H221817   2.939   0.896   2.566
 7292TIP3   OH221818   0.061   4.678   2.190
 7292TIP3    H121819   0.005   4.623   2.134
 7292TIP3    H221820   0.018   4.675   2.276
 7293TIP3   OH221821   3.952   3.104   3.513
 7293TIP3    H121822   4.015   3.033   3.532
 7293TIP3    H221823   3.869   3.059   3.498
 7294TIP3   OH221824   4.315   5.248   1.320
 7294TIP3    H121825   4.270   5.328   1.348
 7294TIP3    H221826   4.388   5.279   1.267
 7295TIP3   OH221827   3.117   7.125   6.728
 7295TIP3    H121828   3.161   7.085   6.652
 7295TIP3    H221829   3.185   7.178   6.769
 7296TIP3   OH221830   6.982   1.564   5.614
 7296TIP3    H121831   6.954   1.585   5.524
 7296TIP3    H221832   6.901   1.546   5.660
 7297TIP3   OH221833   5.361   5.698   6.301
 7297TIP3    H121834   5.406   5.642   6.238
 7297TIP3    H221835   5.348   5.643   6.378
 7298TIP3   OH221836   7.062   5.967   0.958
 7298TIP3    H121837   7.100   5.881   0.973
 7298TIP3    H221838   7.113   6.004   0.886
 7299TIP3   OH221839   8.153   6.485   4.489
 7299TIP3    H121840   8.242   6.449   4.485
 7299TIP3    H221841   8.167   6.580   4.498
 7300TIP3   OH221842   4.717   2.656   6.356
 7300TIP3    H121843   4.673   2.572   6.346
 7300TIP3    H221844   4.796   2.648   6.302
 7301TIP3   OH221845   2.075   1.064   5.267
 7301TIP3    H121846   2.169   1.053   5.282
 7301TIP3    H221847   2.041   1.096   5.351
 7302TIP3   OH221848   1.505   3.926   1.080
 7302TIP3    H121849   1.461   3.928   0.996
 7302TIP3    H221850   1.577   3.988   1.071
 7303TIP3   OH221851   7.447   6.410   6.545
 7303TIP3    H121852   7.442   6.315   6.553
 7303TIP3    H221853   7.367   6.434   6.497
 7304TIP3   OH221854   5.732   4.904   2.515
 7304TIP3    H121855   5.744   4.998   2.527
 7304TIP3    H221856   5.778   4.864   2.589
 7305TIP3   OH221857   7.231   0.542   0.994
 7305TIP3    H121858   7.286   0.553   0.916
 7305TIP3    H221859   7.245   0.623   1.044
 7306TIP3   OH221860   6.374   2.471   4.155
 7306TIP3    H121861   6.280   2.487   4.151
 7306TIP3    H221862   6.411   2.524   4.085
 7307TIP3   OH221863   5.443   5.936   2.493
 7307TIP3    H121864   5.530   5.963   2.522
 7307TIP3    H221865   5.423   5.992   2.419
 7308TIP3   OH221866   1.808   4.767   3.026
 7308TIP3    H121867   1.740   4.717   3.071
 7308TIP3    H221868   1.791   4.753   2.933
 7309TIP3   OH221869   4.616   5.502   5.026
 7309TIP3    H121870   4.574   5.551   4.956
 7309TIP3    H221871   4.549   5.495   5.094
 7310TIP3   OH221872   2.068   4.460   6.076
 7310TIP3    H121873   2.039   4.400   6.145
 7310TIP3    H221874   2.082   4.543   6.121
 7311TIP3   OH221875   2.127   3.932   1.971
 7311TIP3    H121876   2.045   3.902   1.933
 7311TIP3    H221877   2.102   4.002   2.031
 7312TIP3   OH221878   2.240   7.273   5.859
 7312TIP3    H121879   2.231   7.180   5.882
 7312TIP3    H221880   2.279   7.272   5.772
 7313TIP3   OH221881   7.072   1.137   1.850
 7313TIP3    H121882   7.091   1.214   1.904
 7313TIP3    H221883   7.049   1.173   1.764
 7314TIP3   OH221884   7.380   2.916   2.437
 7314TIP3    H121885   7.412   3.003   2.461
 7314TIP3    H221886   7.361   2.923   2.344
 7315TIP3   OH221887   7.610   4.586   4.918
 7315TIP3    H121888   7.687   4.615   4.869
 7315TIP3    H221889   7.546   4.656   4.905
 7316TIP3   OH221890   6.140   1.992   2.853
 7316TIP3    H121891   6.211   2.056   2.865
 7316TIP3    H221892   6.165   1.944   2.774
 7317TIP3   OH221893   1.355   6.154   1.899
 7317TIP3    H121894   1.322   6.193   1.818
 7317TIP3    H221895   1.437   6.111   1.874
 7318TIP3   OH221896   3.687   2.461   1.718
 7318TIP3    H121897   3.729   2.541   1.750
 7318TIP3    H221898   3.682   2.473   1.624
 7319TIP3   OH221899   4.445   0.363   5.378
 7319TIP3    H121900   4.383   0.374   5.305
 7319TIP3    H221901   4.529   0.391   5.341
 7320TIP3   OH221902   1.301   2.551   5.117
 7320TIP3    H121903   1.329   2.495   5.190
 7320TIP3    H221904   1.222   2.508   5.085
 7321TIP3   OH221905   7.678   5.646   2.228
 7321TIP3    H121906   7.608   5.657   2.292
 7321TIP3    H221907   7.739   5.584   2.269
 7322TIP3   OH221908   7.314   6.885   4.707
 7322TIP3    H121909   7.270   6.945   4.648
 7322TIP3    H221910   7.399   6.927   4.724
 7323TIP3   OH221911   0.737   1.972   4.867
 7323TIP3    H121912   0.652   1.934   4.846
 7323TIP3    H221913   0.797   1.934   4.803
 7324TIP3   OH221914   8.044   3.692   2.800
 7324TIP3    H121915   8.137   3.714   2.793
 7324TIP3    H221916   8.003   3.772   2.833
 7325TIP3   OH221917   0.954   7.140   5.941
 7325TIP3    H121918   0.880   7.103   5.989
 7325TIP3    H221919   0.966   7.227   5.979
 7326TIP3   OH221920   3.910   6.829   6.034
 7326TIP3    H121921   3.974   6.885   5.989
 7326TIP3    H221922   3.825   6.861   6.004
 7327TIP3   OH221923   0.412   3.431   6.139
 7327TIP3    H121924   0.427   3.336   6.143
 7327TIP3    H221925   0.464   3.459   6.063
 7328TIP3   OH221926   0.841   3.778   1.717
 7328TIP3    H121927   0.758   3.763   1.670
 7328TIP3    H221928   0.894   3.830   1.656
 7329TIP3   OH221929   4.901   1.165   6.691
 7329TIP3    H121930   4.827   1.181   6.632
 7329TIP3    H221931   4.937   1.252   6.708
 7330TIP3   OH221932   1.194   1.059   6.615
 7330TIP3    H121933   1.175   1.153   6.619
 7330TIP3    H221934   1.110   1.019   6.594
 7331TIP3   OH221935   2.308   3.616   2.382
 7331TIP3    H121936   2.311   3.527   2.347
 7331TIP3    H221937   2.245   3.662   2.326
 7332TIP3   OH221938   1.452   6.228   3.403
 7332TIP3    H121939   1.368   6.228   3.450
 7332TIP3    H221940   1.500   6.154   3.440
 7333TIP3   OH221941   4.729   2.967   2.330
 7333TIP3    H121942   4.760   2.932   2.413
 7333TIP3    H221943   4.706   2.890   2.278
 7334TIP3   OH221944   4.703   6.683   5.139
 7334TIP3    H121945   4.775   6.727   5.185
 7334TIP3    H221946   4.722   6.697   5.046
 7335TIP3   OH221947   2.024   5.644   5.571
 7335TIP3    H121948   2.065   5.711   5.626
 7335TIP3    H221949   2.008   5.688   5.488
 7336TIP3   OH221950   3.890   5.529   0.397
 7336TIP3    H121951   3.825   5.470   0.358
 7336TIP3    H221952   3.969   5.475   0.405
 7337TIP3   OH221953   1.102   3.076   2.570
 7337TIP3    H121954   1.067   3.019   2.502
 7337TIP3    H221955   1.150   3.017   2.628
 7338TIP3   OH221956   3.088   2.029   4.263
 7338TIP3    H121957   3.051   1.963   4.320
 7338TIP3    H221958   3.012   2.083   4.237
 7339TIP3   OH221959   7.311   7.612   1.041
 7339TIP3    H121960   7.254   7.548   0.998
 7339TIP3    H221961   7.279   7.616   1.132
 7340TIP3   OH221962   3.506   1.822   1.554
 7340TIP3    H121963   3.580   1.770   1.524
 7340TIP3    H221964   3.472   1.774   1.630
 7341TIP3   OH221965   3.847   4.712   1.543
 7341TIP3    H121966   3.893   4.629   1.555
 7341TIP3    H221967   3.826   4.715   1.450
 7342TIP3   OH221968   1.527   2.946   4.649
 7342TIP3    H121969   1.441   2.913   4.675
 7342TIP3    H221970   1.584   2.926   4.723
 7343TIP3   OH221971   2.103   5.648   4.108
 7343TIP3    H121972   2.140   5.717   4.052
 7343TIP3    H221973   2.143   5.567   4.077
 7344TIP3   OH221974   2.021   0.016   2.238
 7344TIP3    H121975   1.954   0.054   2.295
 7344TIP3    H221976   1.981   0.019   2.151
 7345TIP3   OH221977   5.597   5.067   0.562
 7345TIP3    H121978   5.580   5.138   0.500
 7345TIP3    H221979   5.630   4.995   0.508
 7346TIP3   OH221980   0.291   7.321   3.747
 7346TIP3    H121981   0.291   7.272   3.830
 7346TIP3    H221982   0.222   7.281   3.695
 7347TIP3   OH221983   2.122   6.307   5.270
 7347TIP3    H121984   2.162   6.393   5.256
 7347TIP3    H221985   2.051   6.303   5.206
 7348TIP3   OH221986   0.140   1.496   5.001
 7348TIP3    H121987   0.106   1.564   4.943
 7348TIP3    H221988   0.231   1.522   5.018
 7349TIP3   OH221989   5.476   0.128   4.781
 7349TIP3    H121990   5.528   0.126   4.701
 7349TIP3    H221991   5.541   0.136   4.851
 7350TIP3   OH221992   0.554   1.427   6.692
 7350TIP3    H121993   0.572   1.441   6.600
 7350TIP3    H221994   0.609   1.491   6.738
 7351TIP3   OH221995   7.771   4.316   4.012
 7351TIP3    H121996   7.764   4.412   4.018
 7351TIP3    H221997   7.699   4.284   4.067
 7352TIP3   OH221998   0.734   1.561   6.102
 7352TIP3    H121999   0.751   1.531   6.013
 7352TIP3    H222000   0.739   1.657   6.097
 7353TIP3   OH222001   1.221   5.136   0.679
 7353TIP3    H122002   1.165   5.089   0.617
 7353TIP3    H222003   1.287   5.073   0.705
 7354TIP3   OH222004   3.360   0.997   5.806
 7354TIP3    H122005   3.451   0.965   5.802
 7354TIP3    H222006   3.315   0.951   5.736
 7355TIP3   OH222007   3.413   1.494   3.574
 7355TIP3    H122008   3.373   1.457   3.495
 7355TIP3    H222009   3.507   1.499   3.553
 7356TIP3   OH222010   0.548   5.009   0.047
 7356TIP3    H122011   0.547   5.025  -0.048
 7356TIP3    H222012   0.473   5.058   0.080
 7357TIP3   OH222013   0.707   0.278   1.675
 7357TIP3    H122014   0.691   0.229   1.755
 7357TIP3    H222015   0.623   0.318   1.653
 7358TIP3   OH222016   2.954   5.931   1.383
 7358TIP3    H122017   2.936   5.838   1.400
 7358TIP3    H222018   3.026   5.930   1.320
 7359TIP3   OH222019   2.585   7.453   3.270
 7359TIP3    H122020   2.523   7.427   3.202
 7359TIP3    H222021   2.609   7.371   3.314
 7360TIP3   OH222022   7.810   2.320   5.375
 7360TIP3    H122023   7.751   2.280   5.311
 7360TIP3    H222024   7.772   2.298   5.460
 7361TIP3   OH222025   2.642   2.799   0.085
 7361TIP3    H122026   2.641   2.711   0.046
 7361TIP3    H222027   2.555   2.833   0.068
 7362TIP3   OH222028   4.160   0.714   2.616
 7362TIP3    H122029   4.077   0.760   2.627
 7362TIP3    H222030   4.190   0.697   2.705
 7363TIP3   OH222031   3.473   0.274   4.320
 7363TIP3    H122032   3.517   0.220   4.385
 7363TIP3    H222033   3.385   0.288   4.354
 7364TIP3   OH222034   0.782   2.399   1.921
 7364TIP3    H122035   0.703   2.345   1.912
 7364TIP3    H222036   0.766   2.475   1.865
 7365TIP3   OH222037   5.206   1.254   0.419
 7365TIP3    H122038   5.256   1.279   0.342
 7365TIP3    H222039   5.191   1.160   0.408
 7366TIP3   OH222040   7.112   4.311   0.310
 7366TIP3    H122041   7.141   4.266   0.389
 7366TIP3    H222042   7.060   4.246   0.263
 7367TIP3   OH222043   0.090   7.001   0.216
 7367TIP3    H122044   0.123   6.918   0.248
 7367TIP3    H222045   0.169   7.051   0.194
 7368TIP3   OH222046   4.545   7.497   2.741
 7368TIP3    H122047   4.475   7.451   2.695
 7368TIP3    H222048   4.507   7.521   2.826
 7369TIP3   OH222049   7.948   1.870   4.246
 7369TIP3    H122050   8.014   1.815   4.204
 7369TIP3    H222051   7.987   1.894   4.330
 7370TIP3   OH222052   7.519   4.419   2.966
 7370TIP3    H122053   7.528   4.509   2.997
 7370TIP3    H222054   7.491   4.427   2.875
 7371TIP3   OH222055   4.703   5.897   5.427
 7371TIP3    H122056   4.634   5.955   5.394
 7371TIP3    H222057   4.782   5.952   5.427
 7372TIP3   OH222058   2.553   2.746   1.316
 7372TIP3    H122059   2.479   2.709   1.363
 7372TIP3    H222060   2.629   2.728   1.372
 7373TIP3   OH222061   2.920   3.211   3.858
 7373TIP3    H122062   2.965   3.285   3.900
 7373TIP3    H222063   2.873   3.251   3.784
 7374TIP3   OH222064   3.098   0.441   2.914
 7374TIP3    H122065   3.016   0.396   2.935
 7374TIP3    H222066   3.166   0.389   2.958
 7375TIP3   OH222067   7.236   0.266   5.226
 7375TIP3    H122068   7.288   0.341   5.257
 7375TIP3    H222069   7.265   0.193   5.281
 7376TIP3   OH222070   6.809   6.008   1.637
 7376TIP3    H122071   6.897   6.046   1.634
 7376TIP3    H222072   6.811   5.948   1.711
 7377TIP3   OH222073   5.423   3.670   6.249
 7377TIP3    H122074   5.364   3.596   6.261
 7377TIP3    H222075   5.397   3.709   6.166
 7378TIP3   OH222076   1.844   3.316   2.554
 7378TIP3    H122077   1.848   3.317   2.458
 7378TIP3    H222078   1.933   3.297   2.581
 7379TIP3   OH222079   7.282   7.727   3.598
 7379TIP3    H122080   7.297   7.719   3.504
 7379TIP3    H222081   7.233   7.648   3.622
 7380TIP3   OH222082   4.616   2.058   4.119
 7380TIP3    H122083   4.551   1.999   4.082
 7380TIP3    H222084   4.696   2.005   4.125
 7381TIP3   OH222085   7.206   2.146   4.696
 7381TIP3    H122086   7.178   2.207   4.628
 7381TIP3    H222087   7.300   2.136   4.681
 7382TIP3   OH222088   3.107   3.449   2.032
 7382TIP3    H122089   3.171   3.433   2.101
 7382TIP3    H222090   3.149   3.514   1.975
 7383TIP3   OH222091   6.320   1.372   4.914
 7383TIP3    H122092   6.283   1.399   4.830
 7383TIP3    H222093   6.362   1.452   4.948
 7384TIP3   OH222094   1.077   7.732   3.386
 7384TIP3    H122095   1.065   7.737   3.291
 7384TIP3    H222096   1.172   7.728   3.398
 7385TIP3   OH222097   6.933   3.816   1.913
 7385TIP3    H122098   6.897   3.727   1.911
 7385TIP3    H222099   7.007   3.814   1.853
 7386TIP3   OH222100   4.287   5.432   6.456
 7386TIP3    H122101   4.259   5.355   6.406
 7386TIP3    H222102   4.379   5.445   6.431
 7387TIP3   OH222103   5.006   4.771   1.244
 7387TIP3    H122104   5.001   4.865   1.259
 7387TIP3    H222105   4.978   4.732   1.327
 7388TIP3   OH222106   6.588   4.273   2.295
 7388TIP3    H122107   6.632   4.307   2.373
 7388TIP3    H222108   6.509   4.230   2.328
 7389TIP3   OH222109   6.361   1.004   2.043
 7389TIP3    H122110   6.397   0.965   1.963
 7389TIP3    H222111   6.438   1.023   2.096
 7390TIP3   OH222112   2.258   5.102   2.883
 7390TIP3    H122113   2.235   5.171   2.946
 7390TIP3    H222114   2.281   5.148   2.803
 7391TIP3   OH222115   5.307   3.278   4.325
 7391TIP3    H122116   5.353   3.289   4.242
 7391TIP3    H222117   5.214   3.276   4.302
 7392TIP3   OH222118   1.046   2.353   5.640
 7392TIP3    H122119   1.000   2.363   5.557
 7392TIP3    H222120   1.110   2.284   5.624
 7393TIP3   OH222121   3.840   3.654   0.990
 7393TIP3    H122122   3.888   3.578   1.022
 7393TIP3    H222123   3.781   3.678   1.061
 7394TIP3   OH222124   8.206   2.707   1.206
 7394TIP3    H122125   8.213   2.718   1.111
 7394TIP3    H222126   8.165   2.621   1.218
 7395TIP3   OH222127   7.080   1.886   4.316
 7395TIP3    H122128   7.144   1.957   4.319
 7395TIP3    H222129   7.132   1.806   4.324
 7396TIP3   OH222130   2.196   7.225   2.953
 7396TIP3    H122131   2.109   7.265   2.944
 7396TIP3    H222132   2.209   7.177   2.872
 7397TIP3   OH222133   5.457   0.475   1.589
 7397TIP3    H122134   5.525   0.495   1.654
 7397TIP3    H222135   5.506   0.455   1.509
 7398TIP3   OH222136   0.210   1.103   4.502
 7398TIP3    H122137   0.264   1.179   4.524
 7398TIP3    H222138   0.266   1.027   4.517
 7399TIP3   OH222139   0.879   2.910   0.668
 7399TIP3    H122140   0.847   2.822   0.653
 7399TIP3    H222141   0.804   2.957   0.706
 7400TIP3   OH222142   0.849   4.073   4.886
 7400TIP3    H122143   0.912   4.006   4.913
 7400TIP3    H222144   0.898   4.155   4.894
 7401TIP3   OH222145   3.656   1.078   1.556
 7401TIP3    H122146   3.699   0.993   1.547
 7401TIP3    H222147   3.565   1.057   1.578
 7402TIP3   OH222148   4.190   5.975   5.586
 7402TIP3    H122149   4.194   5.891   5.631
 7402TIP3    H222150   4.194   5.952   5.493
 7403TIP3   OH222151   3.049   0.496   6.721
 7403TIP3    H122152   3.096   0.414   6.735
 7403TIP3    H222153   2.974   0.471   6.667
 7404TIP3   OH222154   1.311   4.394   2.948
 7404TIP3    H122155   1.301   4.301   2.968
 7404TIP3    H222156   1.339   4.396   2.856
 7405TIP3   OH222157   0.501   7.358   4.136
 7405TIP3    H122158   0.563   7.371   4.065
 7405TIP3    H222159   0.549   7.382   4.215
 7406TIP3   OH222160   5.579   4.011   4.591
 7406TIP3    H122161   5.557   4.104   4.582
 7406TIP3    H222162   5.664   4.003   4.548
 7407TIP3   OH222163   1.019   2.131   5.945
 7407TIP3    H122164   0.992   2.188   6.017
 7407TIP3    H222165   0.983   2.045   5.967
 7408TIP3   OH222166   5.863   7.549   1.005
 7408TIP3    H122167   5.904   7.629   1.037
 7408TIP3    H222168   5.832   7.504   1.083
 7409TIP3   OH222169   6.096   6.749   5.297
 7409TIP3    H122170   6.139   6.783   5.375
 7409TIP3    H222171   6.077   6.658   5.317
 7410TIP3   OH222172   5.749   7.658   5.892
 7410TIP3    H122173   5.815   7.614   5.945
 7410TIP3    H222174   5.678   7.594   5.884
 7411TIP3   OH222175   3.291   4.392   6.216
 7411TIP3    H122176   3.385   4.409   6.208
 7411TIP3    H222177   3.285   4.323   6.282
 7412TIP3   OH222178   0.385   4.641   3.312
 7412TIP3    H122179   0.470   4.660   3.351
 7412TIP3    H222180   0.404   4.584   3.237
 7413TIP3   OH222181   2.313   3.819   2.925
 7413TIP3    H122182   2.344   3.904   2.896
 7413TIP3    H222183   2.240   3.798   2.866
 7414TIP3   OH222184   5.929   5.325   5.674
 7414TIP3    H122185   5.844   5.358   5.705
 7414TIP3    H222186   5.922   5.230   5.682
 7415TIP3   OH222187   3.177   6.190   5.497
 7415TIP3    H122188   3.249   6.144   5.453
 7415TIP3    H222189   3.119   6.217   5.426
 7416TIP3   OH222190   7.525   6.485   5.225
 7416TIP3    H122191   7.565   6.456   5.143
 7416TIP3    H222192   7.489   6.406   5.263
 7417TIP3   OH222193   4.378   2.469   4.387
 7417TIP3    H122194   4.424   2.388   4.368
 7417TIP3    H222195   4.375   2.515   4.303
 7418TIP3   OH222196   7.717   3.261   6.093
 7418TIP3    H122197   7.671   3.301   6.020
 7418TIP3    H222198   7.797   3.226   6.055
 7419TIP3   OH222199   3.285   5.536   5.214
 7419TIP3    H122200   3.216   5.586   5.256
 7419TIP3    H222201   3.239   5.470   5.162
 7420TIP3   OH222202   0.768   6.985   3.379
 7420TIP3    H122203   0.748   6.929   3.303
 7420TIP3    H222204   0.683   7.019   3.405
 7421TIP3   OH222205   4.619   3.456   4.594
 7421TIP3    H122206   4.708   3.431   4.569
 7421TIP3    H222207   4.565   3.382   4.568
 7422TIP3   OH222208   5.536   1.160   4.359
 7422TIP3    H122209   5.442   1.139   4.358
 7422TIP3    H222210   5.540   1.255   4.351
 7423TIP3   OH222211   4.399   0.963   6.646
 7423TIP3    H122212   4.453   0.922   6.579
 7423TIP3    H222213   4.422   0.917   6.727
 7424TIP3   OH222214   1.032   6.249   4.859
 7424TIP3    H122215   0.978   6.219   4.932
 7424TIP3    H222216   0.970   6.296   4.802
 7425TIP3   OH222217   5.574   7.225   1.942
 7425TIP3    H122218   5.513   7.153   1.924
 7425TIP3    H222219   5.570   7.279   1.863
 7426TIP3   OH222220   7.139   1.003   5.214
 7426TIP3    H122221   7.233   1.012   5.199
 7426TIP3    H222222   7.102   1.087   5.187
 7427TIP3   OH222223   7.813   6.833   5.945
 7427TIP3    H122224   7.849   6.745   5.950
 7427TIP3    H222225   7.718   6.821   5.943
 7428TIP3   OH222226   2.983   5.227   1.896
 7428TIP3    H122227   2.974   5.195   1.807
 7428TIP3    H222228   3.075   5.210   1.919
 7429TIP3   OH222229   0.185   5.962   5.687
 7429TIP3    H122230   0.093   5.976   5.710
 7429TIP3    H222231   0.207   5.877   5.726
 7430TIP3   OH222232   6.104   3.842   4.147
 7430TIP3    H122233   6.167   3.811   4.082
 7430TIP3    H222234   6.132   3.931   4.169
 7431TIP3   OH222235   2.791   5.256   4.033
 7431TIP3    H122236   2.856   5.266   4.102
 7431TIP3    H222237   2.769   5.163   4.034
 7432TIP3   OH222238   3.731   6.873   2.238
 7432TIP3    H122239   3.728   6.945   2.302
 7432TIP3    H222240   3.710   6.914   2.155
 7433TIP3   OH222241   7.476   4.229   0.865
 7433TIP3    H122242   7.412   4.295   0.890
 7433TIP3    H222243   7.497   4.182   0.946
 7434TIP3   OH222244   2.883   5.975   4.611
 7434TIP3    H122245   2.960   5.924   4.637
 7434TIP3    H222246   2.833   5.987   4.691
 7435TIP3   OH222247   5.114   7.696   5.411
 7435TIP3    H122248   5.155   7.610   5.417
 7435TIP3    H222249   5.121   7.733   5.499
 7436TIP3   OH222250   4.775   2.897   3.054
 7436TIP3    H122251   4.796   2.898   3.148
 7436TIP3    H222252   4.689   2.939   3.049
 7437TIP3   OH222253   4.374   4.469   5.416
 7437TIP3    H122254   4.310   4.471   5.487
 7437TIP3    H222255   4.322   4.479   5.336
 7438TIP3   OH222256   5.099   5.399   4.442
 7438TIP3    H122257   5.122   5.476   4.390
 7438TIP3    H222258   5.023   5.427   4.493
 7439TIP3   OH222259   1.185   4.159   4.019
 7439TIP3    H122260   1.137   4.240   3.998
 7439TIP3    H222261   1.166   4.101   3.946
 7440TIP3   OH222262   5.914   1.361   0.027
 7440TIP3    H122263   5.892   1.446   0.066
 7440TIP3    H222264   5.969   1.382  -0.048
 7441TIP3   OH222265   1.429   5.366   0.240
 7441TIP3    H122266   1.520   5.335   0.235
 7441TIP3    H222267   1.418   5.417   0.160
 7442TIP3   OH222268   1.620   0.160   2.036
 7442TIP3    H122269   1.601   0.067   2.051
 7442TIP3    H222270   1.538   0.195   2.000
 7443TIP3   OH222271   4.717   2.170   4.519
 7443TIP3    H122272   4.661   2.126   4.582
 7443TIP3    H222273   4.802   2.175   4.562
 7444TIP3   OH222274   6.028   3.994   3.094
 7444TIP3    H122275   6.029   4.030   3.006
 7444TIP3    H222276   6.120   3.998   3.123
 7445TIP3   OH222277   4.387   5.121   4.327
 7445TIP3    H122278   4.380   5.136   4.233
 7445TIP3    H222279   4.445   5.191   4.358
 7446TIP3   OH222280   0.469   2.811   3.857
 7446TIP3    H122281   0.557   2.779   3.839
 7446TIP3    H222282   0.459   2.803   3.952
 7447TIP3   OH222283   0.715   6.893   1.854
 7447TIP3    H122284   0.651   6.839   1.807
 7447TIP3    H222285   0.739   6.842   1.931
 7448TIP3   OH222286   5.990   6.239   2.864
 7448TIP3    H122287   5.973   6.147   2.843
 7448TIP3    H222288   5.942   6.288   2.797
 7449TIP3   OH222289   2.712   6.768   1.960
 7449TIP3    H122290   2.757   6.698   1.913
 7449TIP3    H222291   2.639   6.792   1.902
 7450TIP3   OH222292   5.373   5.635   5.644
 7450TIP3    H122293   5.362   5.724   5.612
 7450TIP3    H222294   5.295   5.619   5.698
 7451TIP3   OH222295   5.837   6.817   3.249
 7451TIP3    H122296   5.803   6.891   3.299
 7451TIP3    H222297   5.794   6.823   3.164
 7452TIP3   OH222298   8.022   0.167   5.150
 7452TIP3    H122299   8.045   0.243   5.204
 7452TIP3    H222300   8.100   0.111   5.154
 7453TIP3   OH222301   2.373   4.321   5.660
 7453TIP3    H122302   2.328   4.402   5.636
 7453TIP3    H222303   2.414   4.340   5.744
 7454TIP3   OH222304   7.535   3.103   2.736
 7454TIP3    H122305   7.612   3.049   2.719
 7454TIP3    H222306   7.501   3.071   2.819
 7455TIP3   OH222307   8.117   7.085   0.713
 7455TIP3    H122308   8.187   7.099   0.777
 7455TIP3    H222309   8.089   6.995   0.728
 7456TIP3   OH222310   2.447   0.140   0.847
 7456TIP3    H122311   2.417   0.166   0.760
 7456TIP3    H222312   2.369   0.102   0.888
 7457TIP3   OH222313   4.197   0.153   0.449
 7457TIP3    H122314   4.114   0.191   0.420
 7457TIP3    H222315   4.264   0.213   0.416
 7458TIP3   OH222316   6.619   2.723   5.966
 7458TIP3    H122317   6.673   2.798   5.990
 7458TIP3    H222318   6.626   2.664   6.041
 7459TIP3   OH222319   5.923   0.640   2.816
 7459TIP3    H122320   5.962   0.574   2.759
 7459TIP3    H222321   5.881   0.590   2.885
 7460TIP3   OH222322   0.812   2.977   1.568
 7460TIP3    H122323   0.720   2.975   1.596
 7460TIP3    H222324   0.860   3.009   1.644
 7461TIP3   OH222325   0.294   3.734   5.876
 7461TIP3    H122326   0.240   3.686   5.938
 7461TIP3    H222327   0.383   3.703   5.892
 7462TIP3   OH222328   4.785   0.998   2.608
 7462TIP3    H122329   4.745   0.915   2.582
 7462TIP3    H222330   4.853   0.973   2.670
 7463TIP3   OH222331   6.203   6.416   2.902
 7463TIP3    H122332   6.237   6.386   2.817
 7463TIP3    H222333   6.121   6.367   2.913
 7464TIP3   OH222334   7.535   7.109   4.123
 7464TIP3    H122335   7.520   7.163   4.045
 7464TIP3    H222336   7.454   7.058   4.132
 7465TIP3   OH222337   4.041   3.946   6.763
 7465TIP3    H122338   4.039   3.851   6.749
 7465TIP3    H222339   4.011   3.983   6.680
 7466TIP3   OH222340   7.364   4.887   5.977
 7466TIP3    H122341   7.298   4.948   5.945
 7466TIP3    H222342   7.403   4.931   6.053
 7467TIP3   OH222343   0.721   5.471   2.657
 7467TIP3    H122344   0.744   5.419   2.580
 7467TIP3    H222345   0.800   5.522   2.675
 7468TIP3   OH222346   2.658   1.150   1.805
 7468TIP3    H122347   2.744   1.191   1.794
 7468TIP3    H222348   2.676   1.070   1.854
 7469TIP3   OH222349   6.288   5.400   6.730
 7469TIP3    H122350   6.346   5.375   6.802
 7469TIP3    H222351   6.249   5.317   6.701
 7470TIP3   OH222352   0.159   3.076   2.919
 7470TIP3    H122353   0.094   3.129   2.966
 7470TIP3    H222354   0.149   2.989   2.956
 7471TIP3   OH222355   5.241   4.225   1.030
 7471TIP3    H122356   5.176   4.199   1.095
 7471TIP3    H222357   5.221   4.316   1.010
 7472TIP3   OH222358   0.876   4.459   2.153
 7472TIP3    H122359   0.929   4.439   2.231
 7472TIP3    H222360   0.921   4.533   2.112
 7473TIP3   OH222361   2.983   7.486   1.511
 7473TIP3    H122362   3.034   7.477   1.431
 7473TIP3    H222363   3.023   7.560   1.557
 7474TIP3   OH222364   1.761   7.649   1.245
 7474TIP3    H122365   1.718   7.667   1.329
 7474TIP3    H222366   1.816   7.573   1.262
 7475TIP3   OH222367   1.417   2.991   2.431
 7475TIP3    H122368   1.495   2.940   2.408
 7475TIP3    H222369   1.348   2.925   2.443
 7476TIP3   OH222370   0.427   4.863   3.758
 7476TIP3    H122371   0.345   4.830   3.795
 7476TIP3    H222372   0.400   4.917   3.684
 7477TIP3   OH222373   6.991   4.089   3.427
 7477TIP3    H122374   6.929   4.018   3.410
 7477TIP3    H222375   7.035   4.102   3.343
 7478TIP3   OH222376   2.186   1.590   0.940
 7478TIP3    H122377   2.140   1.662   0.896
 7478TIP3    H222378   2.243   1.633   1.004
 7479TIP3   OH222379   5.146   3.645   6.732
 7479TIP3    H122380   5.165   3.731   6.696
 7479TIP3    H222381   5.103   3.662   6.815
 7480TIP3   OH222382   4.394   5.554   1.740
 7480TIP3    H122383   4.318   5.495   1.735
 7480TIP3    H222384   4.458   5.514   1.681
 7481TIP3   OH222385   3.136   4.697   0.008
 7481TIP3    H122386   3.156   4.790   0.008
 7481TIP3    H222387   3.205   4.657   0.061
 7482TIP3   OH222388   4.579   3.401   5.086
 7482TIP3    H122389   4.539   3.410   5.000
 7482TIP3    H222390   4.528   3.333   5.129
 7483TIP3   OH222391   1.505   4.717   6.673
 7483TIP3    H122392   1.588   4.676   6.649
 7483TIP3    H222393   1.449   4.645   6.699
 7484TIP3   OH222394   4.146   2.066   5.951
 7484TIP3    H122395   4.111   2.155   5.941
 7484TIP3    H222396   4.238   2.074   5.925
 7485TIP3   OH222397   5.847   3.194   6.638
 7485TIP3    H122398   5.864   3.202   6.732
 7485TIP3    H222399   5.880   3.107   6.615
 7486TIP3   OH222400   3.293   3.956   6.117
 7486TIP3    H122401   3.341   3.940   6.035
 7486TIP3    H222402   3.221   3.892   6.115
 7487TIP3   OH222403   3.265   4.155   6.719
 7487TIP3    H122404   3.314   4.123   6.794
 7487TIP3    H222405   3.205   4.083   6.698
 7488TIP3   OH222406   3.345   6.520   5.408
 7488TIP3    H122407   3.423   6.471   5.381
 7488TIP3    H222408   3.335   6.498   5.501
 7489TIP3   OH222409   2.516   2.791   2.785
 7489TIP3    H122410   2.608   2.818   2.790
 7489TIP3    H222411   2.470   2.854   2.841
 7490TIP3   OH222412   2.034   0.310   2.591
 7490TIP3    H122413   1.984   0.332   2.670
 7490TIP3    H222414   2.091   0.238   2.617
 7491TIP3   OH222415   1.553   6.958   6.460
 7491TIP3    H122416   1.494   6.952   6.385
 7491TIP3    H222417   1.618   7.024   6.434
 7492TIP3   OH222418   2.043   0.196   3.036
 7492TIP3    H122419   1.964   0.219   2.986
 7492TIP3    H222420   2.116   0.216   2.977
 7493TIP3   OH222421   0.199   4.857   1.361
 7493TIP3    H122422   0.267   4.810   1.409
 7493TIP3    H222423   0.229   4.948   1.362
 7494TIP3   OH222424   4.162   4.498   6.777
 7494TIP3    H122425   4.256   4.509   6.784
 7494TIP3    H222426   4.143   4.513   6.685
 7495TIP3   OH222427   2.722   4.752   3.415
 7495TIP3    H122428   2.778   4.756   3.492
 7495TIP3    H222429   2.778   4.714   3.347
 7496TIP3   OH222430   3.571   1.778   2.351
 7496TIP3    H122431   3.617   1.714   2.405
 7496TIP3    H222432   3.623   1.858   2.361
 7497TIP3   OH222433   4.030   3.222   1.238
 7497TIP3    H122434   4.059   3.141   1.196
 7497TIP3    H222435   4.104   3.250   1.292
 7498TIP3   OH222436   7.065   1.352   0.354
 7498TIP3    H122437   6.989   1.310   0.396
 7498TIP3    H222438   7.042   1.357   0.262
 7499TIP3   OH222439   0.965   6.211   5.753
 7499TIP3    H122440   0.925   6.145   5.809
 7499TIP3    H222441   1.047   6.171   5.724
 7500TIP3   OH222442   4.858   6.536   5.443
 7500TIP3    H122443   4.877   6.586   5.523
 7500TIP3    H222444   4.842   6.447   5.474
 7501TIP3   OH222445   6.370   7.284   0.353
 7501TIP3    H122446   6.365   7.365   0.303
 7501TIP3    H222447   6.371   7.215   0.287
 7502TIP3   OH222448   6.260   2.373   1.875
 7502TIP3    H122449   6.348   2.346   1.850
 7502TIP3    H222450   6.268   2.398   1.967
 7503TIP3   OH222451   6.948   3.307   3.456
 7503TIP3    H122452   7.036   3.279   3.429
 7503TIP3    H222453   6.961   3.353   3.539
 7504TIP3   OH222454   0.518   6.014   2.941
 7504TIP3    H122455   0.585   5.945   2.939
 7504TIP3    H222456   0.513   6.039   3.033
 7505TIP3   OH222457   7.306   5.715   6.177
 7505TIP3    H122458   7.218   5.692   6.205
 7505TIP3    H222459   7.297   5.740   6.084
 7506TIP3   OH222460   5.323   7.315   2.131
 7506TIP3    H122461   5.359   7.228   2.117
 7506TIP3    H222462   5.334   7.359   2.047
 7507TIP3   OH222463   7.728   2.288   5.895
 7507TIP3    H122464   7.660   2.349   5.866
 7507TIP3    H222465   7.715   2.282   5.990
 7508TIP3   OH222466   5.472   1.189   1.511
 7508TIP3    H122467   5.408   1.118   1.505
 7508TIP3    H222468   5.542   1.164   1.450
 7509TIP3   OH222469   7.305   5.049   6.465
 7509TIP3    H122470   7.231   5.087   6.419
 7509TIP3    H222471   7.281   4.957   6.478
 7510TIP3   OH222472   4.382   5.871   2.778
 7510TIP3    H122473   4.305   5.917   2.743
 7510TIP3    H222474   4.454   5.901   2.722
 7511TIP3   OH222475   2.057   3.865   2.859
 7511TIP3    H122476   2.015   3.847   2.944
 7511TIP3    H222477   1.998   3.825   2.795
 7512TIP3   OH222478   2.504   6.197   1.465
 7512TIP3    H122479   2.550   6.116   1.486
 7512TIP3    H222480   2.573   6.261   1.452
 7513TIP3   OH222481   0.134   0.363   4.967
 7513TIP3    H122482   0.057   0.391   4.918
 7513TIP3    H222483   0.181   0.306   4.906
 7514TIP3   OH222484   6.828   6.057   2.828
 7514TIP3    H122485   6.746   6.011   2.808
 7514TIP3    H222486   6.891   5.987   2.846
 7515TIP3   OH222487   2.806   3.383   2.096
 7515TIP3    H122488   2.885   3.411   2.048
 7515TIP3    H222489   2.838   3.361   2.183
 7516TIP3   OH222490   1.405   0.839   1.171
 7516TIP3    H122491   1.490   0.795   1.179
 7516TIP3    H222492   1.426   0.927   1.139
 7517TIP3   OH222493   0.447   2.606   5.333
 7517TIP3    H122494   0.528   2.569   5.367
 7517TIP3    H222495   0.428   2.555   5.254
 7518TIP3   OH222496   6.470   3.111   4.664
 7518TIP3    H122497   6.554   3.095   4.707
 7518TIP3    H222498   6.436   3.189   4.708
 7519TIP3   OH222499   4.686   0.299   2.878
 7519TIP3    H122500   4.655   0.260   2.797
 7519TIP3    H222501   4.773   0.333   2.857
 7520TIP3   OH222502   7.600   4.685   3.308
 7520TIP3    H122503   7.524   4.741   3.326
 7520TIP3    H222504   7.591   4.662   3.215
 7521TIP3   OH222505   6.732   6.389   6.433
 7521TIP3    H122506   6.687   6.320   6.385
 7521TIP3    H222507   6.662   6.447   6.464
 7522TIP3   OH222508   3.669   7.557   6.609
 7522TIP3    H122509   3.667   7.506   6.528
 7522TIP3    H222510   3.707   7.641   6.584
 7523TIP3   OH222511   3.527   5.248   4.579
 7523TIP3    H122512   3.438   5.283   4.575
 7523TIP3    H222513   3.568   5.275   4.497
 7524TIP3   OH222514   0.454   1.843   6.065
 7524TIP3    H122515   0.532   1.841   6.120
 7524TIP3    H222516   0.488   1.846   5.975
 7525TIP3   OH222517   7.148   2.516   3.149
 7525TIP3    H122518   7.053   2.520   3.162
 7525TIP3    H222519   7.160   2.539   3.057
 7526TIP3   OH222520   3.633   5.574   4.700
 7526TIP3    H122521   3.585   5.519   4.763
 7526TIP3    H222522   3.586   5.657   4.699
 7527TIP3   OH222523   5.175   3.045   4.061
 7527TIP3    H122524   5.122   3.125   4.054
 7527TIP3    H222525   5.257   3.066   4.016
 7528TIP3   OH222526   7.766   1.872   4.919
 7528TIP3    H122527   7.838   1.813   4.941
 7528TIP3    H222528   7.756   1.929   4.996
 7529TIP3   OH222529   6.872   6.627   5.404
 7529TIP3    H122530   6.802   6.690   5.388
 7529TIP3    H222531   6.951   6.669   5.368
 7530TIP3   OH222532   0.191   3.440   6.004
 7530TIP3    H122533   0.112   3.461   6.054
 7530TIP3    H222534   0.261   3.437   6.070
 7531TIP3   OH222535   0.591   6.696   5.768
 7531TIP3    H122536   0.554   6.759   5.830
 7531TIP3    H222537   0.676   6.673   5.805
 7532TIP3   OH222538   6.037   4.838   6.187
 7532TIP3    H122539   6.024   4.900   6.116
 7532TIP3    H222540   5.965   4.775   6.178
 7533TIP3   OH222541   3.536   3.690   2.376
 7533TIP3    H122542   3.606   3.626   2.388
 7533TIP3    H222543   3.456   3.640   2.391
 7534TIP3   OH222544   3.207   3.132   1.257
 7534TIP3    H122545   3.280   3.176   1.214
 7534TIP3    H222546   3.208   3.164   1.347
 7535TIP3   OH222547   1.462   6.092   3.681
 7535TIP3    H122548   1.451   6.000   3.658
 7535TIP3    H222549   1.382   6.134   3.647
 7536TIP3   OH222550   4.406   0.448   2.149
 7536TIP3    H122551   4.445   0.370   2.111
 7536TIP3    H222552   4.314   0.425   2.162
 7537TIP3   OH222553   4.635   6.778   1.271
 7537TIP3    H122554   4.629   6.759   1.177
 7537TIP3    H222555   4.706   6.843   1.277
 7538TIP3   OH222556   6.345   2.941   4.872
 7538TIP3    H122557   6.318   2.978   4.957
 7538TIP3    H222558   6.381   3.015   4.825
 7539TIP3   OH222559   3.582   2.475   0.720
 7539TIP3    H122560   3.676   2.457   0.727
 7539TIP3    H222561   3.543   2.429   0.794
 7540TIP3   OH222562   1.156   6.368   5.481
 7540TIP3    H122563   1.208   6.292   5.454
 7540TIP3    H222564   1.071   6.355   5.439
 7541TIP3   OH222565   4.565   0.140   4.883
 7541TIP3    H122566   4.569   0.098   4.797
 7541TIP3    H222567   4.480   0.182   4.886
 7542TIP3   OH222568   5.909   2.000   1.444
 7542TIP3    H122569   5.923   1.912   1.409
 7542TIP3    H222570   5.841   1.989   1.510
 7543TIP3   OH222571   4.501   0.364   6.427
 7543TIP3    H122572   4.409   0.348   6.406
 7543TIP3    H222573   4.527   0.436   6.369
 7544TIP3   OH222574   7.281   1.216   0.434
 7544TIP3    H122575   7.192   1.252   0.423
 7544TIP3    H222576   7.339   1.289   0.412
 7545TIP3   OH222577   0.498   7.658   0.938
 7545TIP3    H122578   0.483   7.588   1.001
 7545TIP3    H222579   0.411   7.680   0.906
 7546TIP3   OH222580   6.923   7.032   1.640
 7546TIP3    H122581   6.957   6.969   1.703
 7546TIP3    H222582   6.971   7.014   1.559
 7547TIP3   OH222583   4.149   7.208   6.210
 7547TIP3    H122584   4.160   7.149   6.135
 7547TIP3    H222585   4.224   7.189   6.267
 7548TIP3   OH222586   0.808   5.274   0.034
 7548TIP3    H122587   0.882   5.237  -0.013
 7548TIP3    H222588   0.763   5.198   0.071
 7549TIP3   OH222589   4.321   4.724   5.586
 7549TIP3    H122590   4.337   4.733   5.492
 7549TIP3    H222591   4.408   4.715   5.624
 7550TIP3   OH222592   3.530   6.891   0.743
 7550TIP3    H122593   3.491   6.965   0.789
 7550TIP3    H222594   3.555   6.830   0.813
 7551TIP3   OH222595   6.143   3.180   5.233
 7551TIP3    H122596   6.102   3.226   5.160
 7551TIP3    H222597   6.201   3.117   5.190
 7552TIP3   OH222598   0.492   1.995   2.397
 7552TIP3    H122599   0.501   1.941   2.475
 7552TIP3    H222600   0.519   1.937   2.325
 7553TIP3   OH222601   5.066   7.254   2.719
 7553TIP3    H122602   5.100   7.219   2.802
 7553TIP3    H222603   5.093   7.346   2.719
 7554TIP3   OH222604   5.563   7.650   0.430
 7554TIP3    H122605   5.517   7.570   0.404
 7554TIP3    H222606   5.514   7.721   0.388
 7555TIP3   OH222607   2.076   2.848   3.400
 7555TIP3    H122608   2.164   2.853   3.439
 7555TIP3    H222609   2.071   2.925   3.343
 7556TIP3   OH222610   2.681   5.692   3.807
 7556TIP3    H122611   2.752   5.706   3.870
 7556TIP3    H222612   2.638   5.612   3.837
 7557TIP3   OH222613   5.797   0.196   1.088
 7557TIP3    H122614   5.743   0.221   1.163
 7557TIP3    H222615   5.749   0.229   1.012
 7558TIP3   OH222616   7.041   4.872   3.819
 7558TIP3    H122617   7.088   4.790   3.830
 7558TIP3    H222618   6.989   4.880   3.900
 7559TIP3   OH222619   4.554   6.084   1.000
 7559TIP3    H122620   4.471   6.050   1.034
 7559TIP3    H222621   4.595   6.127   1.075
 7560TIP3   OH222622   1.152   4.388   3.730
 7560TIP3    H122623   1.245   4.410   3.731
 7560TIP3    H222624   1.140   4.341   3.647
 7561TIP3   OH222625   3.021   6.099   2.474
 7561TIP3    H122626   3.000   6.073   2.385
 7561TIP3    H222627   3.094   6.042   2.499
 7562TIP3   OH222628   4.218   5.134   2.574
 7562TIP3    H122629   4.150   5.092   2.627
 7562TIP3    H222630   4.200   5.106   2.485
 7563TIP3   OH222631   0.855   1.279   3.734
 7563TIP3    H122632   0.939   1.324   3.739
 7563TIP3    H222633   0.823   1.299   3.646
 7564TIP3   OH222634   1.448   1.117   5.029
 7564TIP3    H122635   1.355   1.129   5.006
 7564TIP3    H222636   1.495   1.171   4.965
 7565TIP3   OH222637   1.299   2.483   4.265
 7565TIP3    H122638   1.340   2.397   4.265
 7565TIP3    H222639   1.364   2.541   4.305
 7566TIP3   OH222640   5.683   7.056   2.934
 7566TIP3    H122641   5.634   7.077   3.014
 7566TIP3    H222642   5.657   7.123   2.871
 7567TIP3   OH222643   5.647   5.461   0.824
 7567TIP3    H122644   5.652   5.481   0.730
 7567TIP3    H222645   5.682   5.540   0.867
 7568TIP3   OH222646   0.878   1.863   2.675
 7568TIP3    H122647   0.882   1.772   2.644
 7568TIP3    H222648   0.968   1.895   2.668
 7569TIP3   OH222649   4.619   6.011   0.144
 7569TIP3    H122650   4.605   5.927   0.101
 7569TIP3    H222651   4.642   6.071   0.072
 7570TIP3   OH222652   7.435   3.705   2.333
 7570TIP3    H122653   7.415   3.798   2.348
 7570TIP3    H222654   7.368   3.676   2.270
 7571TIP3   OH222655   1.183   0.547   3.529
 7571TIP3    H122656   1.099   0.531   3.486
 7571TIP3    H222657   1.231   0.465   3.519
 7572TIP3   OH222658   3.014   7.461   4.552
 7572TIP3    H122659   2.974   7.427   4.632
 7572TIP3    H222660   2.947   7.446   4.484
 7573TIP3   OH222661   3.045   0.713   0.275
 7573TIP3    H122662   3.014   0.795   0.312
 7573TIP3    H222663   3.055   0.730   0.182
 7574TIP3   OH222664   3.103   1.396   4.795
 7574TIP3    H122665   3.167   1.465   4.778
 7574TIP3    H222666   3.152   1.330   4.845
 7575TIP3   OH222667   3.396   6.196   6.239
 7575TIP3    H122668   3.402   6.101   6.248
 7575TIP3    H222669   3.419   6.212   6.147
 7576TIP3   OH222670   7.017   7.320   3.013
 7576TIP3    H122671   7.031   7.372   2.933
 7576TIP3    H222672   7.102   7.280   3.031
 7577TIP3   OH222673   1.853   5.607   3.937
 7577TIP3    H122674   1.918   5.641   3.998
 7577TIP3    H222675   1.890   5.524   3.908
 7578TIP3   OH222676   3.990   0.766   4.173
 7578TIP3    H122677   4.055   0.817   4.221
 7578TIP3    H222678   3.909   0.815   4.183
 7579TIP3   OH222679   6.805   4.762   5.806
 7579TIP3    H122680   6.864   4.838   5.812
 7579TIP3    H222681   6.735   4.791   5.749
 7580TIP3   OH222682   4.847   7.115   1.040
 7580TIP3    H122683   4.820   7.196   1.083
 7580TIP3    H222684   4.819   7.126   0.949
 7581TIP3   OH222685   1.322   6.555   3.823
 7581TIP3    H122686   1.316   6.647   3.850
 7581TIP3    H222687   1.336   6.507   3.905
 7582TIP3   OH222688   4.229   0.635   2.360
 7582TIP3    H122689   4.195   0.550   2.328
 7582TIP3    H222690   4.182   0.650   2.442
 7583TIP3   OH222691   7.601   5.680   0.242
 7583TIP3    H122692   7.682   5.664   0.290
 7583TIP3    H222693   7.532   5.666   0.308
 7584TIP3   OH222694   1.544   1.177   3.350
 7584TIP3    H122695   1.498   1.093   3.356
 7584TIP3    H222696   1.527   1.208   3.261
 7585TIP3   OH222697   3.421   5.855   0.566
 7585TIP3    H122698   3.488   5.922   0.583
 7585TIP3    H222699   3.438   5.827   0.476
 7586TIP3   OH222700   4.330   2.374   2.490
 7586TIP3    H122701   4.333   2.346   2.399
 7586TIP3    H222702   4.358   2.466   2.488
 7587TIP3   OH222703   7.017   4.120   4.473
 7587TIP3    H122704   6.966   4.184   4.423
 7587TIP3    H222705   6.951   4.061   4.510
 7588TIP3   OH222706   6.338   7.325   1.811
 7588TIP3    H122707   6.367   7.397   1.866
 7588TIP3    H222708   6.393   7.330   1.733
 7589TIP3   OH222709   6.800   2.545   0.448
 7589TIP3    H122710   6.844   2.611   0.501
 7589TIP3    H222711   6.800   2.581   0.360
 7590TIP3   OH222712   3.735   4.831   2.930
 7590TIP3    H122713   3.750   4.855   2.839
 7590TIP3    H222714   3.686   4.749   2.926
 7591TIP3   OH222715   2.788   5.127   2.129
 7591TIP3    H122716   2.869   5.082   2.104
 7591TIP3    H222717   2.731   5.120   2.052
 7592TIP3   OH222718   1.451   6.393   0.938
 7592TIP3    H122719   1.394   6.325   0.975
 7592TIP3    H222720   1.494   6.351   0.864
 7593TIP3   OH222721   3.692   0.299   0.173
 7593TIP3    H122722   3.678   0.393   0.161
 7593TIP3    H222723   3.746   0.292   0.252
 7594TIP3   OH222724   1.539   0.919   5.524
 7594TIP3    H122725   1.585   0.998   5.555
 7594TIP3    H222726   1.494   0.886   5.602
 7595TIP3   OH222727   1.703   1.419   3.579
 7595TIP3    H122728   1.718   1.340   3.527
 7595TIP3    H222729   1.699   1.489   3.515
 7596TIP3   OH222730   5.423   0.336   1.058
 7596TIP3    H122731   5.492   0.316   0.995
 7596TIP3    H222732   5.380   0.414   1.022
 7597TIP3   OH222733   6.122   4.383   5.283
 7597TIP3    H122734   6.062   4.379   5.358
 7597TIP3    H222735   6.110   4.471   5.247
 7598TIP3   OH222736   7.114   6.485   1.878
 7598TIP3    H122737   7.021   6.467   1.867
 7598TIP3    H222738   7.158   6.419   1.825
 7599TIP3   OH222739   0.101   1.823   6.044
 7599TIP3    H122740   0.162   1.752   6.027
 7599TIP3    H222741   0.019   1.779   6.069
 7600TIP3   OH222742   2.247   0.026   4.318
 7600TIP3    H122743   2.179  -0.010   4.374
 7600TIP3    H222744   2.200   0.064   4.244
 7601TIP3   OH222745   5.863   3.182   0.465
 7601TIP3    H122746   5.908   3.253   0.512
 7601TIP3    H222747   5.771   3.194   0.486
 7602TIP3   OH222748   3.317   1.825   3.902
 7602TIP3    H122749   3.318   1.744   3.851
 7602TIP3    H222750   3.409   1.841   3.923
 7603TIP3   OH222751   8.236   1.318   4.889
 7603TIP3    H122752   8.257   1.236   4.934
 7603TIP3    H222753   8.296   1.382   4.928
 7604TIP3   OH222754   4.717   3.182   4.766
 7604TIP3    H122755   4.748   3.267   4.796
 7604TIP3    H222756   4.777   3.158   4.695
 7605TIP3   OH222757   7.246   0.286   6.249
 7605TIP3    H122758   7.308   0.282   6.322
 7605TIP3    H222759   7.299   0.317   6.175
 7606TIP3   OH222760   3.351   4.252   6.444
 7606TIP3    H122761   3.269   4.214   6.411
 7606TIP3    H222762   3.325   4.301   6.522
 7607TIP3   OH222763   5.681   1.871   0.772
 7607TIP3    H122764   5.597   1.886   0.729
 7607TIP3    H222765   5.658   1.855   0.864
 7608TIP3   OH222766   6.485   0.966   1.002
 7608TIP3    H122767   6.552   0.972   1.070
 7608TIP3    H222768   6.533   0.979   0.920
 7609TIP3   OH222769   3.091   4.132   0.408
 7609TIP3    H122770   3.128   4.094   0.328
 7609TIP3    H222771   3.160   4.121   0.473
 7610TIP3   OH222772   1.927   4.037   4.917
 7610TIP3    H122773   1.895   4.111   4.865
 7610TIP3    H222774   1.848   3.998   4.954
 7611TIP3   OH222775   0.017   7.749   4.410
 7611TIP3    H122776   0.112   7.750   4.420
 7611TIP3    H222777  -0.001   7.670   4.359
 7612TIP3   OH222778   2.589   4.680   0.105
 7612TIP3    H122779   2.677   4.668   0.071
 7612TIP3    H222780   2.597   4.754   0.166
 7613TIP3   OH222781   6.181   2.563   5.714
 7613TIP3    H122782   6.248   2.571   5.646
 7613TIP3    H222783   6.173   2.468   5.728
 7614TIP3   OH222784   2.110   4.315   1.227
 7614TIP3    H122785   2.092   4.275   1.141
 7614TIP3    H222786   2.114   4.241   1.287
 7615TIP3   OH222787   5.552   3.632   0.052
 7615TIP3    H122788   5.599   3.695  -0.004
 7615TIP3    H222789   5.488   3.685   0.099
 7616TIP3   OH222790   6.993   7.468   5.683
 7616TIP3    H122791   6.938   7.542   5.708
 7616TIP3    H222792   7.082   7.495   5.707
 7617TIP3   OH222793   6.538   3.031   1.010
 7617TIP3    H122794   6.445   3.011   1.022
 7617TIP3    H222795   6.575   3.028   1.098
 7618TIP3   OH222796   2.499   3.894   0.096
 7618TIP3    H122797   2.452   3.820   0.133
 7618TIP3    H222798   2.592   3.872   0.108
 7619TIP3   OH222799   6.471   5.782   3.884
 7619TIP3    H122800   6.433   5.865   3.856
 7619TIP3    H222801   6.512   5.747   3.805
 7620TIP3   OH222802   7.115   7.701   2.482
 7620TIP3    H122803   7.054   7.755   2.431
 7620TIP3    H222804   7.094   7.611   2.457
 7621TIP3   OH222805   7.675   3.429   0.061
 7621TIP3    H122806   7.720   3.476  -0.009
 7621TIP3    H222807   7.742   3.373   0.099
 7622TIP3   OH222808   4.859   1.062   2.301
 7622TIP3    H122809   4.776   1.021   2.324
 7622TIP3    H222810   4.924   0.993   2.312
 7623TIP3   OH222811   1.262   4.961   6.212
 7623TIP3    H122812   1.304   4.982   6.128
 7623TIP3    H222813   1.239   4.868   6.205
 7624TIP3   OH222814   7.003   7.126   1.256
 7624TIP3    H122815   7.050   7.209   1.262
 7624TIP3    H222816   6.986   7.115   1.162
 7625TIP3   OH222817   3.260   2.393   3.134
 7625TIP3    H122818   3.274   2.314   3.186
 7625TIP3    H222819   3.346   2.435   3.130
 7626TIP3   OH222820   3.527   3.656   5.997
 7626TIP3    H122821   3.559   3.644   6.086
 7626TIP3    H222822   3.572   3.589   5.945
 7627TIP3   OH222823   0.549   3.961   0.361
 7627TIP3    H122824   0.461   3.960   0.324
 7627TIP3    H222825   0.541   4.017   0.438
 7628TIP3   OH222826   2.652   6.174   2.318
 7628TIP3    H122827   2.570   6.139   2.285
 7628TIP3    H222828   2.626   6.247   2.375
 7629TIP3   OH222829   2.763   6.338   1.470
 7629TIP3    H122830   2.791   6.430   1.475
 7629TIP3    H222831   2.754   6.311   1.561
 7630TIP3   OH222832   1.607   3.582   2.869
 7630TIP3    H122833   1.611   3.556   2.961
 7630TIP3    H222834   1.523   3.547   2.838
 7631TIP3   OH222835   2.560   6.020   5.241
 7631TIP3    H122836   2.489   5.971   5.199
 7631TIP3    H222837   2.640   5.984   5.203
 7632TIP3   OH222838   0.147   7.663   5.252
 7632TIP3    H122839   0.241   7.654   5.240
 7632TIP3    H222840   0.128   7.752   5.222
 7633TIP3   OH222841   7.313   6.467   6.145
 7633TIP3    H122842   7.330   6.382   6.186
 7633TIP3    H222843   7.397   6.494   6.109
 7634TIP3   OH222844   7.923   5.243   4.553
 7634TIP3    H122845   7.918   5.170   4.491
 7634TIP3    H222846   7.857   5.305   4.522
 7635TIP3   OH222847   4.145   6.129   6.128
 7635TIP3    H122848   4.106   6.067   6.067
 7635TIP3    H222849   4.094   6.209   6.117
 7636TIP3   OH222850   7.370   4.697   4.608
 7636TIP3    H122851   7.375   4.708   4.703
 7636TIP3    H222852   7.330   4.777   4.576
 7637TIP3   OH222853   2.285   0.232   0.649
 7637TIP3    H122854   2.211   0.178   0.677
 7637TIP3    H222855   2.259   0.266   0.564
 7638TIP3   OH222856   5.946   0.562   4.322
 7638TIP3    H122857   5.993   0.482   4.345
 7638TIP3    H222858   6.008   0.633   4.343
 7639TIP3   OH222859   4.544   3.635   3.082
 7639TIP3    H122860   4.466   3.662   3.129
 7639TIP3    H222861   4.521   3.643   2.989
 7640TIP3   OH222862   1.138   7.237   0.240
 7640TIP3    H122863   1.186   7.319   0.225
 7640TIP3    H222864   1.159   7.212   0.330
 7641TIP3   OH222865   8.291   5.545   0.093
 7641TIP3    H122866   8.295   5.530  -0.002
 7641TIP3    H222867   8.207   5.589   0.106
 7642TIP3   OH222868   5.452   4.293   2.934
 7642TIP3    H122869   5.466   4.200   2.954
 7642TIP3    H222870   5.529   4.337   2.970
 7643TIP3   OH222871   6.481   4.272   0.548
 7643TIP3    H122872   6.521   4.204   0.494
 7643TIP3    H222873   6.525   4.264   0.633
 7644TIP3   OH222874   0.144   3.633   4.286
 7644TIP3    H122875   0.215   3.603   4.342
 7644TIP3    H222876   0.070   3.646   4.346
 7645TIP3   OH222877   0.385   0.833   5.549
 7645TIP3    H122878   0.296   0.813   5.520
 7645TIP3    H222879   0.375   0.862   5.640
 7646TIP3   OH222880   5.839   0.063   5.974
 7646TIP3    H122881   5.818  -0.017   5.926
 7646TIP3    H222882   5.831   0.133   5.909
 7647TIP3   OH222883   7.515   5.679   1.520
 7647TIP3    H122884   7.518   5.682   1.424
 7647TIP3    H222885   7.426   5.707   1.542
 7648TIP3   OH222886   5.813   5.964   1.518
 7648TIP3    H122887   5.734   5.949   1.465
 7648TIP3    H222888   5.885   5.953   1.456
 7649TIP3   OH222889   5.517   5.512   4.135
 7649TIP3    H122890   5.507   5.494   4.042
 7649TIP3    H222891   5.605   5.549   4.143
 7650TIP3   OH222892   7.959   5.455   0.137
 7650TIP3    H122893   7.959   5.548   0.159
 7650TIP3    H222894   7.904   5.414   0.204
 7651TIP3   OH222895   7.713   1.759   0.622
 7651TIP3    H122896   7.650   1.735   0.554
 7651TIP3    H222897   7.758   1.678   0.643
 7652TIP3   OH222898   1.820   3.022   5.118
 7652TIP3    H122899   1.902   2.983   5.087
 7652TIP3    H222900   1.783   2.956   5.177
 7653TIP3   OH222901   1.992   6.027   4.519
 7653TIP3    H122902   2.066   6.084   4.496
 7653TIP3    H222903   2.027   5.969   4.586
 7654TIP3   OH222904   6.777   3.211   3.909
 7654TIP3    H122905   6.834   3.135   3.916
 7654TIP3    H222906   6.812   3.273   3.973
 7655TIP3   OH222907   3.636   5.822   6.079
 7655TIP3    H122908   3.643   5.852   5.989
 7655TIP3    H222909   3.721   5.844   6.118
 7656TIP3   OH222910   0.900   2.495   1.259
 7656TIP3    H122911   0.900   2.572   1.202
 7656TIP3    H222912   0.992   2.468   1.261
 7657TIP3   OH222913   2.523   3.948   2.762
 7657TIP3    H122914   2.583   3.933   2.834
 7657TIP3    H222915   2.573   3.926   2.683
 7658TIP3   OH222916   2.322   2.585   3.535
 7658TIP3    H122917   2.300   2.596   3.443
 7658TIP3    H222918   2.394   2.521   3.536
 7659TIP3   OH222919   0.162   2.509   3.837
 7659TIP3    H122920   0.139   2.602   3.840
 7659TIP3    H222921   0.083   2.466   3.803
 7660TIP3   OH222922   4.278   1.881   3.334
 7660TIP3    H122923   4.341   1.921   3.394
 7660TIP3    H222924   4.330   1.856   3.258
 7661TIP3   OH222925   4.620   1.073   1.789
 7661TIP3    H122926   4.709   1.107   1.782
 7661TIP3    H222927   4.585   1.112   1.869
 7662TIP3   OH222928   0.826   6.746   4.170
 7662TIP3    H122929   0.900   6.707   4.124
 7662TIP3    H222930   0.777   6.793   4.101
 7663TIP3   OH222931   6.933   1.970   3.803
 7663TIP3    H122932   6.893   1.883   3.813
 7663TIP3    H222933   7.017   1.953   3.761
 7664TIP3   OH222934   7.175   4.910   2.267
 7664TIP3    H122935   7.248   4.928   2.326
 7664TIP3    H222936   7.209   4.842   2.208
 7665TIP3   OH222937   6.664   4.830   6.407
 7665TIP3    H122938   6.675   4.763   6.339
 7665TIP3    H222939   6.634   4.782   6.484
 7666TIP3   OH222940   0.227   1.255   0.996
 7666TIP3    H122941   0.278   1.218   0.924
 7666TIP3    H222942   0.216   1.347   0.973
 7667TIP3   OH222943   4.748   2.028   5.686
 7667TIP3    H122944   4.664   2.048   5.644
 7667TIP3    H222945   4.782   1.954   5.636
 7668TIP3   OH222946   5.262   1.497   1.899
 7668TIP3    H122947   5.290   1.587   1.914
 7668TIP3    H222948   5.167   1.503   1.889
 7669TIP3   OH222949   6.900   2.195   4.184
 7669TIP3    H122950   6.875   2.147   4.105
 7669TIP3    H222951   6.881   2.136   4.256
 7670TIP3   OH222952   0.918   4.872   6.501
 7670TIP3    H122953   0.835   4.887   6.545
 7670TIP3    H222954   0.978   4.845   6.570
 7671TIP3   OH222955   2.817   1.919   6.748
 7671TIP3    H122956   2.751   1.985   6.772
 7671TIP3    H222957   2.900   1.966   6.754
 7672TIP3   OH222958   7.426   0.238   2.313
 7672TIP3    H122959   7.458   0.150   2.332
 7672TIP3    H222960   7.345   0.224   2.263
 7673TIP3   OH222961   3.820   3.137   4.981
 7673TIP3    H122962   3.782   3.205   4.924
 7673TIP3    H222963   3.870   3.081   4.921
 7674TIP3   OH222964   3.381   7.224   4.236
 7674TIP3    H122965   3.431   7.232   4.155
 7674TIP3    H222966   3.438   7.261   4.304
 7675TIP3   OH222967   4.633   5.182   6.715
 7675TIP3    H122968   4.583   5.260   6.736
 7675TIP3    H222969   4.673   5.202   6.630
 7676TIP3   OH222970   7.218   5.678   1.583
 7676TIP3    H122971   7.134   5.665   1.627
 7676TIP3    H222972   7.194   5.706   1.494
 7677TIP3   OH222973   6.118   7.699   0.779
 7677TIP3    H122974   6.141   7.786   0.810
 7677TIP3    H222975   6.022   7.697   0.781
 7678TIP3   OH222976   8.022   7.046   2.090
 7678TIP3    H122977   8.027   6.956   2.124
 7678TIP3    H222978   8.109   7.083   2.109
 7679TIP3   OH222979   4.067   3.653   3.771
 7679TIP3    H122980   4.120   3.605   3.707
 7679TIP3    H222981   4.103   3.627   3.856
 7680TIP3   OH222982   0.139   2.650   0.114
 7680TIP3    H122983   0.183   2.588   0.056
 7680TIP3    H222984   0.054   2.610   0.131
 7681TIP3   OH222985   7.859   1.160   0.483
 7681TIP3    H122986   7.829   1.072   0.504
 7681TIP3    H222987   7.937   1.173   0.536
 7682TIP3   OH222988   0.001   2.369   1.898
 7682TIP3    H122989  -0.074   2.309   1.902
 7682TIP3    H222990   0.010   2.400   1.988
 7683TIP3   OH222991   6.560   6.108   2.053
 7683TIP3    H122992   6.556   6.174   2.122
 7683TIP3    H222993   6.645   6.067   2.065
 7684TIP3   OH222994   3.807   6.456   3.567
 7684TIP3    H122995   3.877   6.495   3.513
 7684TIP3    H222996   3.748   6.529   3.584
 7685TIP3   OH222997   4.825   3.425   3.467
 7685TIP3    H122998   4.782   3.499   3.425
 7685TIP3    H222999   4.898   3.404   3.409
 7686TIP3   OH223000   4.403   6.006   6.102
 7686TIP3    H123001   4.330   6.054   6.062
 7686TIP3    H223002   4.361   5.934   6.150
 7687TIP3   OH223003   7.638   0.205   0.095
 7687TIP3    H123004   7.615   0.151   0.019
 7687TIP3    H223005   7.573   0.182   0.161
 7688TIP3   OH223006   3.449   3.361   6.591
 7688TIP3    H123007   3.500   3.296   6.639
 7688TIP3    H223008   3.402   3.409   6.659
 7689TIP3   OH223009   0.736   2.604   6.223
 7689TIP3    H123010   0.712   2.513   6.202
 7689TIP3    H223011   0.796   2.629   6.153
 7690TIP3   OH223012   2.203   1.663   6.114
 7690TIP3    H123013   2.264   1.725   6.074
 7690TIP3    H223014   2.207   1.683   6.208
 7691TIP3   OH223015   4.438   6.003   5.124
 7691TIP3    H123016   4.405   6.068   5.063
 7691TIP3    H223017   4.370   5.935   5.126
 7692TIP3   OH223018   2.092   4.169   4.190
 7692TIP3    H123019   2.175   4.195   4.230
 7692TIP3    H223020   2.039   4.137   4.264
 7693TIP3   OH223021   5.610   4.196   1.856
 7693TIP3    H123022   5.635   4.107   1.881
 7693TIP3    H223023   5.519   4.187   1.825
 7694TIP3   OH223024   1.603   6.732   3.398
 7694TIP3    H123025   1.688   6.730   3.441
 7694TIP3    H223026   1.542   6.695   3.462
 7695TIP3   OH223027   4.372   0.725   4.625
 7695TIP3    H123028   4.414   0.705   4.542
 7695TIP3    H223029   4.308   0.655   4.637
 7696TIP3   OH223030   0.302   0.094   3.490
 7696TIP3    H123031   0.318   0.183   3.523
 7696TIP3    H223032   0.218   0.100   3.445
 7697TIP3   OH223033   1.603   3.729   3.272
 7697TIP3    H123034   1.553   3.799   3.231
 7697TIP3    H223035   1.681   3.720   3.217
 7698TIP3   OH223036   2.510   5.198   2.314
 7698TIP3    H123037   2.587   5.156   2.352
 7698TIP3    H223038   2.536   5.290   2.304
 7699TIP3   OH223039   2.167   5.454   2.849
 7699TIP3    H123040   2.072   5.441   2.843
 7699TIP3    H223041   2.193   5.402   2.925
 7700TIP3   OH223042   0.027   3.067   2.192
 7700TIP3    H123043   0.015   3.134   2.259
 7700TIP3    H223044   0.121   3.048   2.193
 7701TIP3   OH223045   2.014   2.865   0.129
 7701TIP3    H123046   1.941   2.839   0.073
 7701TIP3    H223047   2.066   2.785   0.141
 7702TIP3   OH223048   7.540   0.421   1.569
 7702TIP3    H123049   7.570   0.331   1.581
 7702TIP3    H223050   7.523   0.452   1.658
 7703TIP3   OH223051   1.458   4.687   4.112
 7703TIP3    H123052   1.492   4.599   4.129
 7703TIP3    H223053   1.479   4.736   4.191
 7704TIP3   OH223054   1.470   4.986   1.078
 7704TIP3    H123055   1.454   4.995   1.172
 7704TIP3    H223056   1.537   5.052   1.059
 7705TIP3   OH223057   2.524   4.739   1.185
 7705TIP3    H123058   2.537   4.742   1.090
 7705TIP3    H223059   2.469   4.662   1.199
 7706TIP3   OH223060   7.193   5.130   5.912
 7706TIP3    H123061   7.217   5.192   5.981
 7706TIP3    H223062   7.128   5.176   5.860
 7707TIP3   OH223063   2.693   5.488   6.695
 7707TIP3    H123064   2.781   5.466   6.726
 7707TIP3    H223065   2.654   5.537   6.767
 7708TIP3   OH223066   1.732   0.495   1.188
 7708TIP3    H123067   1.741   0.590   1.196
 7708TIP3    H223068   1.718   0.465   1.278
 7709TIP3   OH223069   6.771   4.533   0.716
 7709TIP3    H123070   6.675   4.537   0.726
 7709TIP3    H223071   6.798   4.457   0.766
 7710TIP3   OH223072   5.249   0.871   3.251
 7710TIP3    H123073   5.248   0.966   3.250
 7710TIP3    H223074   5.171   0.846   3.299
 7711TIP3   OH223075   5.151   6.893   2.501
 7711TIP3    H123076   5.111   6.897   2.414
 7711TIP3    H223077   5.239   6.860   2.486
 7712TIP3   OH223078   7.027   5.589   6.111
 7712TIP3    H123079   6.971   5.666   6.117
 7712TIP3    H223080   7.036   5.559   6.201
 7713TIP3   OH223081   4.006   3.930   1.012
 7713TIP3    H123082   3.919   3.916   1.050
 7713TIP3    H223083   3.994   4.003   0.952
 7714TIP3   OH223084   3.810   4.941   1.700
 7714TIP3    H123085   3.754   4.970   1.628
 7714TIP3    H223086   3.832   4.850   1.678
 7715TIP3   OH223087   5.357   5.727   1.096
 7715TIP3    H123088   5.448   5.699   1.108
 7715TIP3    H223089   5.364   5.819   1.072
 7716TIP3   OH223090   3.534   2.175   5.513
 7716TIP3    H123091   3.580   2.122   5.578
 7716TIP3    H223092   3.545   2.265   5.543
 7717TIP3   OH223093   1.765   5.454   6.115
 7717TIP3    H123094   1.722   5.511   6.179
 7717TIP3    H223095   1.741   5.490   6.030
 7718TIP3   OH223096   6.564   0.036   6.528
 7718TIP3    H123097   6.604   0.001   6.449
 7718TIP3    H223098   6.634   0.034   6.593
 7719TIP3   OH223099   2.894   2.259   3.770
 7719TIP3    H123100   2.836   2.299   3.705
 7719TIP3    H223101   2.863   2.168   3.775
 7720TIP3   OH223102   7.510   1.034   5.669
 7720TIP3    H123103   7.488   0.942   5.683
 7720TIP3    H223104   7.549   1.036   5.582
 7721TIP3   OH223105   8.219   5.295   2.554
 7721TIP3    H123106   8.198   5.360   2.621
 7721TIP3    H223107   8.136   5.282   2.508
 7722TIP3   OH223108   3.730   3.497   4.959
 7722TIP3    H123109   3.813   3.450   4.970
 7722TIP3    H223110   3.737   3.541   4.875
 7723TIP3   OH223111   5.953   3.089   2.520
 7723TIP3    H123112   5.999   3.114   2.599
 7723TIP3    H223113   6.019   3.046   2.466
 7724TIP3   OH223114   6.297   3.319   0.697
 7724TIP3    H123115   6.261   3.248   0.750
 7724TIP3    H223116   6.346   3.275   0.627
 7725TIP3   OH223117   1.719   4.591   5.678
 7725TIP3    H123118   1.807   4.561   5.700
 7725TIP3    H223119   1.707   4.566   5.587
 7726TIP3   OH223120   4.895   5.078   5.360
 7726TIP3    H123121   4.924   5.030   5.283
 7726TIP3    H223122   4.951   5.156   5.362
 7727TIP3   OH223123   8.191   5.339   1.454
 7727TIP3    H123124   8.255   5.390   1.404
 7727TIP3    H223125   8.230   5.253   1.462
 7728TIP3   OH223126   3.495   1.973   2.967
 7728TIP3    H123127   3.561   1.905   2.982
 7728TIP3    H223128   3.529   2.025   2.895
 7729TIP3   OH223129   7.705   1.093   3.467
 7729TIP3    H123130   7.715   1.021   3.530
 7729TIP3    H223131   7.775   1.154   3.488
 7730TIP3   OH223132   2.966   3.533   4.509
 7730TIP3    H123133   2.965   3.478   4.588
 7730TIP3    H223134   2.985   3.620   4.542
 7731TIP3   OH223135   7.893   0.944   4.138
 7731TIP3    H123136   7.829   0.907   4.200
 7731TIP3    H223137   7.849   0.940   4.053
 7732TIP3   OH223138   4.453   2.906   3.596
 7732TIP3    H123139   4.408   2.953   3.526
 7732TIP3    H223140   4.434   2.814   3.579
 7733TIP3   OH223141   3.482   0.125   3.220
 7733TIP3    H123142   3.443   0.038   3.226
 7733TIP3    H223143   3.566   0.117   3.265
 7734TIP3   OH223144   6.218   1.966   4.939
 7734TIP3    H123145   6.183   1.961   4.850
 7734TIP3    H223146   6.142   1.954   4.996
 7735TIP3   OH223147   1.285   3.177   5.248
 7735TIP3    H123148   1.215   3.228   5.289
 7735TIP3    H223149   1.360   3.191   5.305
 7736TIP3   OH223150   8.287   6.273   1.869
 7736TIP3    H123151   8.362   6.237   1.822
 7736TIP3    H223152   8.228   6.199   1.881
 7737TIP3   OH223153   6.747   2.910   4.877
 7737TIP3    H123154   6.833   2.936   4.843
 7737TIP3    H223155   6.692   2.986   4.864
 7738TIP3   OH223156   7.680   4.926   4.083
 7738TIP3    H123157   7.764   4.950   4.043
 7738TIP3    H223158   7.697   4.929   4.178
 7739TIP3   OH223159   6.365   5.491   2.981
 7739TIP3    H123160   6.386   5.445   2.900
 7739TIP3    H223161   6.286   5.448   3.014
 7740TIP3   OH223162   1.931   4.219   1.908
 7740TIP3    H123163   1.855   4.186   1.954
 7740TIP3    H223164   2.005   4.172   1.947
 7741TIP3   OH223165   5.433   4.545   3.202
 7741TIP3    H123166   5.395   4.470   3.247
 7741TIP3    H223167   5.373   4.617   3.221
 7742TIP3   OH223168   7.261   5.887   6.637
 7742TIP3    H123169   7.323   5.814   6.642
 7742TIP3    H223170   7.218   5.875   6.552
 7743TIP3   OH223171   4.541   4.689   5.727
 7743TIP3    H123172   4.521   4.624   5.794
 7743TIP3    H223173   4.633   4.711   5.740
 7744TIP3   OH223174   4.586   7.595   4.424
 7744TIP3    H123175   4.630   7.618   4.505
 7744TIP3    H223176   4.595   7.672   4.368
 7745TIP3   OH223177   3.649   3.103   1.160
 7745TIP3    H123178   3.664   3.085   1.067
 7745TIP3    H223179   3.570   3.054   1.182
 7746TIP3   OH223180   5.697   4.251   2.125
 7746TIP3    H123181   5.604   4.239   2.145
 7746TIP3    H223182   5.700   4.253   2.029
 7747TIP3   OH223183   4.932   2.930   1.247
 7747TIP3    H123184   4.949   2.870   1.320
 7747TIP3    H223185   4.940   3.017   1.285
 7748TIP3   OH223186   5.689   1.449   3.318
 7748TIP3    H123187   5.668   1.532   3.273
 7748TIP3    H223188   5.730   1.476   3.400
 7749TIP3   OH223189   8.262   0.357   1.139
 7749TIP3    H123190   8.226   0.395   1.059
 7749TIP3    H223191   8.229   0.414   1.209
 7750TIP3   OH223192   5.024   4.752   4.386
 7750TIP3    H123193   4.945   4.729   4.435
 7750TIP3    H223194   5.016   4.702   4.304
 7751TIP3   OH223195   3.615   7.281   5.553
 7751TIP3    H123196   3.626   7.223   5.477
 7751TIP3    H223197   3.561   7.352   5.520
 7752TIP3   OH223198   2.712   3.481   1.335
 7752TIP3    H123199   2.713   3.397   1.289
 7752TIP3    H223200   2.637   3.474   1.395
 7753TIP3   OH223201   0.113   1.635   0.466
 7753TIP3    H123202   0.090   1.565   0.527
 7753TIP3    H223203   0.128   1.591   0.382
 7754TIP3   OH223204   3.199   1.648   1.204
 7754TIP3    H123205   3.245   1.592   1.142
 7754TIP3    H223206   3.135   1.695   1.152
 7755TIP3   OH223207   0.424   3.304   5.352
 7755TIP3    H123208   0.452   3.244   5.421
 7755TIP3    H223209   0.363   3.364   5.396
 7756TIP3   OH223210   6.371   1.251   0.829
 7756TIP3    H123211   6.333   1.297   0.904
 7756TIP3    H223212   6.464   1.245   0.850
 7757TIP3   OH223213   2.669   3.225   6.267
 7757TIP3    H123214   2.630   3.183   6.345
 7757TIP3    H223215   2.750   3.263   6.299
 7758TIP3   OH223216   2.515   5.023   3.542
 7758TIP3    H123217   2.568   4.960   3.493
 7758TIP3    H223218   2.554   5.108   3.522
 7759TIP3   OH223219   1.877   6.404   5.158
 7759TIP3    H123220   1.786   6.377   5.169
 7759TIP3    H223221   1.888   6.476   5.220
 7760TIP3   OH223222   7.356   4.896   1.422
 7760TIP3    H123223   7.370   4.954   1.347
 7760TIP3    H223224   7.444   4.879   1.456
 7761TIP3   OH223225   4.875   4.765   4.716
 7761TIP3    H123226   4.794   4.715   4.727
 7761TIP3    H223227   4.909   4.777   4.805
 7762TIP3   OH223228   3.577   6.577   5.215
 7762TIP3    H123229   3.573   6.522   5.136
 7762TIP3    H223230   3.671   6.591   5.229
 7763TIP3   OH223231   7.699   1.913   6.069
 7763TIP3    H123232   7.625   1.881   6.017
 7763TIP3    H223233   7.772   1.917   6.007
 7764TIP3   OH223234   7.827   0.949   4.820
 7764TIP3    H123235   7.915   0.985   4.830
 7764TIP3    H223236   7.832   0.899   4.738
 7765TIP3   OH223237   7.895   3.341   2.563
 7765TIP3    H123238   7.962   3.315   2.626
 7765TIP3    H223239   7.918   3.294   2.483
 7766TIP3   OH223240   5.221   3.756   5.757
 7766TIP3    H123241   5.268   3.731   5.677
 7766TIP3    H223242   5.132   3.724   5.743
 7767TIP3   OH223243   8.295   5.558   6.565
 7767TIP3    H123244   8.220   5.550   6.625
 7767TIP3    H223245   8.256   5.560   6.478
 7768TIP3   OH223246   5.820   0.556   6.019
 7768TIP3    H123247   5.785   0.587   6.102
 7768TIP3    H223248   5.914   0.552   6.032
 7769TIP3   OH223249   3.586   7.370   3.428
 7769TIP3    H123250   3.621   7.457   3.447
 7769TIP3    H223251   3.663   7.313   3.424
 7770TIP3   OH223252   0.585   7.263   4.703
 7770TIP3    H123253   0.678   7.250   4.717
 7770TIP3    H223254   0.566   7.348   4.741
 7771TIP3   OH223255   3.562   6.892   3.177
 7771TIP3    H123256   3.556   6.797   3.182
 7771TIP3    H223257   3.655   6.911   3.191
 7772TIP3   OH223258   4.337   5.717   5.103
 7772TIP3    H123259   4.253   5.670   5.100
 7772TIP3    H223260   4.353   5.742   5.012
 7773TIP3   OH223261   1.299   5.351   1.906
 7773TIP3    H123262   1.210   5.344   1.939
 7773TIP3    H223263   1.348   5.284   1.955
 7774TIP3   OH223264   6.618   6.352   4.844
 7774TIP3    H123265   6.608   6.339   4.938
 7774TIP3    H223266   6.695   6.408   4.835
 7775TIP3   OH223267   1.580   0.075   4.118
 7775TIP3    H123268   1.544  -0.009   4.146
 7775TIP3    H223269   1.547   0.085   4.028
 7776TIP3   OH223270   0.507   6.942   3.758
 7776TIP3    H123271   0.540   6.923   3.670
 7776TIP3    H223272   0.527   7.034   3.773
 7777TIP3   OH223273   2.949   5.039   1.334
 7777TIP3    H123274   2.921   4.951   1.311
 7777TIP3    H223275   3.044   5.036   1.330
 7778TIP3   OH223276   5.692   2.037   3.954
 7778TIP3    H123277   5.647   1.980   3.892
 7778TIP3    H223278   5.735   1.977   4.015
 7779TIP3   OH223279   4.979   4.661   3.084
 7779TIP3    H123280   4.971   4.580   3.035
 7779TIP3    H223281   4.940   4.728   3.027
 7780TIP3   OH223282   1.704   1.591   4.045
 7780TIP3    H123283   1.610   1.610   4.044
 7780TIP3    H223284   1.716   1.527   3.974
 7781TIP3   OH223285   3.690   7.024   1.208
 7781TIP3    H123286   3.702   7.093   1.143
 7781TIP3    H223287   3.693   6.942   1.158
 7782TIP3   OH223288   4.877   6.902   6.604
 7782TIP3    H123289   4.840   6.945   6.526
 7782TIP3    H223290   4.804   6.900   6.666
 7783TIP3   OH223291   1.219   3.503   2.933
 7783TIP3    H123292   1.215   3.597   2.948
 7783TIP3    H223293   1.249   3.467   3.017
 7784TIP3   OH223294   7.423   1.890   6.417
 7784TIP3    H123295   7.364   1.844   6.477
 7784TIP3    H223296   7.380   1.973   6.399
 7785TIP3   OH223297   2.326   2.018   2.358
 7785TIP3    H123298   2.415   2.024   2.323
 7785TIP3    H223299   2.325   2.081   2.431
 7786TIP3   OH223300   6.749   4.214   2.083
 7786TIP3    H123301   6.711   4.132   2.052
 7786TIP3    H223302   6.693   4.241   2.156
 7787TIP3   OH223303   3.761   2.001   1.375
 7787TIP3    H123304   3.825   2.072   1.367
 7787TIP3    H223305   3.810   1.922   1.354
 7788TIP3   OH223306   5.757   5.960   6.051
 7788TIP3    H123307   5.668   5.927   6.039
 7788TIP3    H223308   5.806   5.885   6.087
 7789TIP3   OH223309   4.317   3.327   3.341
 7789TIP3    H123310   4.289   3.412   3.307
 7789TIP3    H223311   4.381   3.295   3.277
 7790TIP3   OH223312   3.512   5.083   5.725
 7790TIP3    H123313   3.554   5.063   5.809
 7790TIP3    H223314   3.500   4.997   5.684
 7791TIP3   OH223315   2.361   3.856   1.711
 7791TIP3    H123316   2.379   3.850   1.617
 7791TIP3    H223317   2.438   3.818   1.752
 7792TIP3   OH223318   5.086   2.109   3.207
 7792TIP3    H123319   5.071   2.085   3.299
 7792TIP3    H223320   5.131   2.034   3.169
 7793TIP3   OH223321   1.640   5.293   1.843
 7793TIP3    H123322   1.702   5.319   1.912
 7793TIP3    H223323   1.692   5.239   1.783
 7794TIP3   OH223324   1.983   1.317   3.961
 7794TIP3    H123325   1.944   1.266   4.031
 7794TIP3    H223326   1.909   1.360   3.917
 7795TIP3   OH223327   0.684   2.240   0.376
 7795TIP3    H123328   0.699   2.263   0.468
 7795TIP3    H223329   0.664   2.323   0.334
 7796TIP3   OH223330   8.001   4.208   2.563
 7796TIP3    H123331   7.993   4.230   2.471
 7796TIP3    H223332   8.044   4.284   2.603
 7797TIP3   OH223333   0.200   7.400   6.313
 7797TIP3    H123334   0.152   7.317   6.319
 7797TIP3    H223335   0.291   7.376   6.332
 7798TIP3   OH223336   3.097   0.859   2.100
 7798TIP3    H123337   3.022   0.809   2.133
 7798TIP3    H223338   3.061   0.915   2.031
 7799TIP3   OH223339   1.689   2.095   3.223
 7799TIP3    H123340   1.709   2.097   3.129
 7799TIP3    H223341   1.726   2.011   3.253
 7800TIP3   OH223342   5.595   4.168   4.202
 7800TIP3    H123343   5.619   4.258   4.222
 7800TIP3    H223344   5.671   4.132   4.156
 7801TIP3   OH223345   6.025   0.569   3.103
 7801TIP3    H123346   6.023   0.517   3.183
 7801TIP3    H223347   5.996   0.510   3.035
 7802TIP3   OH223348   1.886   6.623   6.172
 7802TIP3    H123349   1.910   6.555   6.235
 7802TIP3    H223350   1.903   6.584   6.086
 7803TIP3   OH223351   6.267   3.404   3.477
 7803TIP3    H123352   6.319   3.484   3.487
 7803TIP3    H223353   6.305   3.342   3.539
 7804TIP3   OH223354   5.466   7.257   3.029
 7804TIP3    H123355   5.431   7.172   3.002
 7804TIP3    H223356   5.398   7.295   3.084
 7805TIP3   OH223357   3.052   1.374   0.388
 7805TIP3    H123358   3.137   1.395   0.426
 7805TIP3    H223359   3.072   1.328   0.307
 7806TIP3   OH223360   1.781   2.422   4.165
 7806TIP3    H123361   1.843   2.490   4.192
 7806TIP3    H223362   1.835   2.344   4.153
 7807TIP3   OH223363   4.421   7.561   2.012
 7807TIP3    H123364   4.401   7.585   1.922
 7807TIP3    H223365   4.505   7.514   2.007
 7808TIP3   OH223366   1.680   7.150   3.629
 7808TIP3    H123367   1.692   7.118   3.718
 7808TIP3    H223368   1.725   7.235   3.627
 7809TIP3   OH223369   7.855   4.067   1.656
 7809TIP3    H123370   7.776   4.075   1.710
 7809TIP3    H223371   7.876   4.156   1.630
 7810TIP3   OH223372   5.722   7.407   6.207
 7810TIP3    H123373   5.706   7.333   6.148
 7810TIP3    H223374   5.818   7.414   6.211
 7811TIP3   OH223375   5.105   1.680   1.231
 7811TIP3    H123376   5.056   1.630   1.296
 7811TIP3    H223377   5.048   1.681   1.154
 7812TIP3   OH223378   7.787   5.574   0.416
 7812TIP3    H123379   7.873   5.576   0.457
 7812TIP3    H223380   7.725   5.585   0.488
 7813TIP3   OH223381   6.445   6.135   3.259
 7813TIP3    H123382   6.444   6.222   3.218
 7813TIP3    H223383   6.465   6.075   3.188
 7814TIP3   OH223384   0.546   0.427   4.579
 7814TIP3    H123385   0.630   0.394   4.545
 7814TIP3    H223386   0.481   0.366   4.545
 7815TIP3   OH223387   1.043   7.586   0.772
 7815TIP3    H123388   1.111   7.557   0.832
 7815TIP3    H223389   1.050   7.682   0.771
 7816TIP3   OH223390   7.583   2.285   6.376
 7816TIP3    H123391   7.657   2.289   6.314
 7816TIP3    H223392   7.619   2.241   6.453
 7817TIP3   OH223393   3.376   5.130   6.631
 7817TIP3    H123394   3.376   5.105   6.539
 7817TIP3    H223395   3.447   5.193   6.639
 7818TIP3   OH223396   4.889   4.160   4.465
 7818TIP3    H123397   4.799   4.183   4.443
 7818TIP3    H223398   4.887   4.067   4.484
 7819TIP3   OH223399   4.371   0.696   3.200
 7819TIP3    H123400   4.394   0.770   3.257
 7819TIP3    H223401   4.345   0.626   3.260
 7820TIP3   OH223402   1.756   3.374   4.410
 7820TIP3    H123403   1.816   3.418   4.350
 7820TIP3    H223404   1.753   3.431   4.487
 7821TIP3   OH223405   0.874   3.443   0.744
 7821TIP3    H123406   0.859   3.472   0.654
 7821TIP3    H223407   0.797   3.475   0.792
 7822TIP3   OH223408   3.087   6.334   6.144
 7822TIP3    H123409   3.144   6.279   6.198
 7822TIP3    H223410   3.111   6.424   6.167
 7823TIP3   OH223411   3.750   5.125   4.699
 7823TIP3    H123412   3.788   5.092   4.618
 7823TIP3    H223413   3.674   5.176   4.672
 7824TIP3   OH223414   3.554   3.049   4.341
 7824TIP3    H123415   3.605   2.969   4.332
 7824TIP3    H223416   3.474   3.031   4.291
 7825TIP3   OH223417   7.912   5.812   4.248
 7825TIP3    H123418   7.941   5.890   4.295
 7825TIP3    H223419   7.833   5.839   4.202
 7826TIP3   OH223420   2.207   5.992   4.971
 7826TIP3    H123421   2.233   6.062   4.912
 7826TIP3    H223422   2.114   6.006   4.987
 7827TIP3   OH223423   6.806   4.624   5.299
 7827TIP3    H123424   6.740   4.585   5.241
 7827TIP3    H223425   6.778   4.597   5.387
 7828TIP3   OH223426   2.888   2.955   6.415
 7828TIP3    H123427   2.928   2.880   6.459
 7828TIP3    H223428   2.924   3.031   6.460
 7829TIP3   OH223429   3.811   1.252   3.210
 7829TIP3    H123430   3.738   1.194   3.229
 7829TIP3    H223431   3.771   1.338   3.195
 7830TIP3   OH223432   7.156   3.563   4.459
 7830TIP3    H123433   7.109   3.647   4.455
 7830TIP3    H223434   7.179   3.544   4.368
 7831TIP3   OH223435   3.246   2.367   0.116
 7831TIP3    H123436   3.175   2.431   0.113
 7831TIP3    H223437   3.290   2.384   0.200
 7832TIP3   OH223438   2.358   4.306   2.462
 7832TIP3    H123439   2.325   4.218   2.482
 7832TIP3    H223440   2.369   4.347   2.547
 7833TIP3   OH223441   2.924   2.729   0.861
 7833TIP3    H123442   2.951   2.772   0.781
 7833TIP3    H223443   2.835   2.697   0.843
 7834TIP3   OH223444   4.907   3.069   6.286
 7834TIP3    H123445   4.889   3.048   6.194
 7834TIP3    H223446   5.001   3.056   6.296
 7835TIP3   OH223447   1.070   3.268   5.930
 7835TIP3    H123448   1.113   3.238   6.010
 7835TIP3    H223449   1.073   3.192   5.872
 7836TIP3   OH223450   0.055   7.584   0.678
 7836TIP3    H123451   0.050   7.513   0.742
 7836TIP3    H223452   0.002   7.654   0.718
 7837TIP3   OH223453   3.519   2.770   3.188
 7837TIP3    H123454   3.424   2.764   3.200
 7837TIP3    H223455   3.539   2.863   3.200
 7838TIP3   OH223456   7.644   4.693   1.283
 7838TIP3    H123457   7.606   4.612   1.318
 7838TIP3    H223458   7.702   4.724   1.351
 7839TIP3   OH223459   6.493   7.319   1.566
 7839TIP3    H123460   6.466   7.408   1.541
 7839TIP3    H223461   6.583   7.312   1.534
 7840TIP3   OH223462   6.029   0.433   2.626
 7840TIP3    H123463   5.965   0.397   2.565
 7840TIP3    H223464   6.111   0.387   2.606
 7841TIP3   OH223465   2.106   3.304   3.059
 7841TIP3    H123466   2.095   3.244   2.985
 7841TIP3    H223467   2.032   3.364   3.053
 7842TIP3   OH223468   5.684   0.332   0.159
 7842TIP3    H123469   5.778   0.329   0.143
 7842TIP3    H223470   5.645   0.313   0.073
 7843TIP3   OH223471   0.954   2.839   5.618
 7843TIP3    H123472   0.987   2.772   5.678
 7843TIP3    H223473   1.027   2.856   5.558
 7844TIP3   OH223474   6.553   1.027   2.966
 7844TIP3    H123475   6.474   1.081   2.973
 7844TIP3    H223476   6.520   0.939   2.945
 7845TIP3   OH223477   4.360   0.178   0.950
 7845TIP3    H123478   4.326   0.130   1.026
 7845TIP3    H223479   4.306   0.149   0.877
 7846TIP3   OH223480   7.213   0.090   2.524
 7846TIP3    H123481   7.282   0.027   2.543
 7846TIP3    H223482   7.199   0.136   2.607
 7847TIP3   OH223483   3.527   5.743   2.998
 7847TIP3    H123484   3.584   5.817   2.976
 7847TIP3    H223485   3.578   5.666   2.973
 7848TIP3   OH223486   0.120   6.358   6.057
 7848TIP3    H123487   0.197   6.405   6.089
 7848TIP3    H223488   0.080   6.417   5.993
 7849TIP3   OH223489   6.407   0.113   4.855
 7849TIP3    H123490   6.353   0.063   4.795
 7849TIP3    H223491   6.496   0.104   4.821
 7850TIP3   OH223492   2.313   3.284   0.767
 7850TIP3    H123493   2.308   3.278   0.671
 7850TIP3    H223494   2.325   3.377   0.784
 7851TIP3   OH223495   4.177   0.221   4.466
 7851TIP3    H123496   4.143   0.138   4.431
 7851TIP3    H223497   4.124   0.288   4.423
 7852TIP3   OH223498   2.145   4.681   5.137
 7852TIP3    H123499   2.182   4.652   5.220
 7852TIP3    H223500   2.200   4.641   5.070
 7853TIP3   OH223501   0.777   6.679   3.791
 7853TIP3    H123502   0.842   6.731   3.743
 7853TIP3    H223503   0.822   6.597   3.811
 7854TIP3   OH223504   8.145   6.237   6.065
 7854TIP3    H123505   8.236   6.261   6.081
 7854TIP3    H223506   8.132   6.251   5.971
 7855TIP3   OH223507   1.400   6.568   4.318
 7855TIP3    H123508   1.316   6.544   4.357
 7855TIP3    H223509   1.437   6.632   4.378
 7856TIP3   OH223510   4.460   4.048   3.658
 7856TIP3    H123511   4.523   4.083   3.594
 7856TIP3    H223512   4.385   4.107   3.651
 7857TIP3   OH223513   1.989   4.881   0.493
 7857TIP3    H123514   1.952   4.877   0.405
 7857TIP3    H223515   2.007   4.974   0.507
 7858TIP3   OH223516   8.141   5.367   4.665
 7858TIP3    H123517   8.112   5.393   4.752
 7858TIP3    H223518   8.060   5.345   4.619
 7859TIP3   OH223519   3.373   6.560   2.077
 7859TIP3    H123520   3.435   6.604   2.020
 7859TIP3    H223521   3.412   6.474   2.094
 7860TIP3   OH223522   2.020   5.035   6.698
 7860TIP3    H123523   1.997   5.086   6.621
 7860TIP3    H223524   2.032   4.946   6.665
 7861TIP3   OH223525   3.197   4.925   1.904
 7861TIP3    H123526   3.170   4.838   1.875
 7861TIP3    H223527   3.288   4.933   1.877
 7862TIP3   OH223528   0.728   1.497   1.634
 7862TIP3    H123529   0.804   1.514   1.691
 7862TIP3    H223530   0.763   1.442   1.564
 7863TIP3   OH223531   5.571   6.251   4.225
 7863TIP3    H123532   5.488   6.298   4.217
 7863TIP3    H223533   5.636   6.320   4.241
 7864TIP3   OH223534   6.455   5.777   1.383
 7864TIP3    H123535   6.451   5.867   1.353
 7864TIP3    H223536   6.365   5.757   1.411
 7865TIP3   OH223537   4.176   4.867   0.840
 7865TIP3    H123538   4.245   4.828   0.786
 7865TIP3    H223539   4.097   4.859   0.788
 7866TIP3   OH223540   3.365   5.619   0.328
 7866TIP3    H123541   3.336   5.588   0.414
 7866TIP3    H223542   3.459   5.630   0.338
 7867TIP3   OH223543   2.845   1.814   3.444
 7867TIP3    H123544   2.816   1.874   3.375
 7867TIP3    H223545   2.825   1.727   3.410
 7868TIP3   OH223546   4.081   2.636   4.888
 7868TIP3    H123547   4.109   2.725   4.910
 7868TIP3    H223548   3.986   2.641   4.882
 7869TIP3   OH223549   7.522   0.292   3.686
 7869TIP3    H123550   7.426   0.289   3.692
 7869TIP3    H223551   7.540   0.353   3.615
 7870TIP3   OH223552   2.478   4.613   3.700
 7870TIP3    H123553   2.439   4.555   3.765
 7870TIP3    H223554   2.430   4.595   3.619
 7871TIP3   OH223555   1.822   0.862   6.058
 7871TIP3    H123556   1.839   0.873   6.152
 7871TIP3    H223557   1.893   0.807   6.027
 7872TIP3   OH223558   1.514   7.550   3.986
 7872TIP3    H123559   1.590   7.563   3.929
 7872TIP3    H223560   1.514   7.456   4.005
 7873TIP3   OH223561   1.861   7.539   0.705
 7873TIP3    H123562   1.768   7.557   0.697
 7873TIP3    H223563   1.866   7.444   0.717
 7874TIP3   OH223564   6.236   7.484   0.895
 7874TIP3    H123565   6.330   7.483   0.876
 7874TIP3    H223566   6.204   7.562   0.852
 7875TIP3   OH223567   4.048   0.144   6.711
 7875TIP3    H123568   4.086   0.172   6.627
 7875TIP3    H223569   4.046   0.048   6.705
 7876TIP3   OH223570   2.660   4.329   5.461
 7876TIP3    H123571   2.578   4.281   5.474
 7876TIP3    H223572   2.687   4.307   5.372
 7877TIP3   OH223573   7.071   4.878   2.846
 7877TIP3    H123574   6.993   4.916   2.885
 7877TIP3    H223575   7.048   4.786   2.832
 7878TIP3   OH223576   0.572   7.143   0.852
 7878TIP3    H123577   0.653   7.175   0.891
 7878TIP3    H223578   0.560   7.197   0.774
 7879TIP3   OH223579   5.797   5.318   4.302
 7879TIP3    H123580   5.807   5.376   4.378
 7879TIP3    H223581   5.880   5.325   4.255
 7880TIP3   OH223582   1.123   4.887   1.963
 7880TIP3    H123583   1.208   4.893   1.921
 7880TIP3    H223584   1.066   4.944   1.912
 7881TIP3   OH223585   6.955   2.694   6.343
 7881TIP3    H123586   7.044   2.663   6.361
 7881TIP3    H223587   6.918   2.711   6.430
 7882TIP3   OH223588   6.629   6.806   1.341
 7882TIP3    H123589   6.599   6.823   1.430
 7882TIP3    H223590   6.715   6.765   1.352
 7883TIP3   OH223591   8.176   1.432   5.321
 7883TIP3    H123592   8.224   1.509   5.290
 7883TIP3    H223593   8.232   1.395   5.389
 7884TIP3   OH223594   5.897   6.038   4.321
 7884TIP3    H123595   5.854   6.030   4.236
 7884TIP3    H223596   5.988   6.014   4.305
 7885TIP3   OH223597   8.046   7.476   3.332
 7885TIP3    H123598   8.081   7.505   3.417
 7885TIP3    H223599   7.955   7.505   3.332
 7886TIP3   OH223600   4.820   6.364   2.683
 7886TIP3    H123601   4.746   6.309   2.711
 7886TIP3    H223602   4.781   6.428   2.624
 7887TIP3   OH223603   5.027   3.564   3.038
 7887TIP3    H123604   5.048   3.603   2.953
 7887TIP3    H223605   4.953   3.506   3.020
 7888TIP3   OH223606   7.378   2.413   4.423
 7888TIP3    H123607   7.448   2.390   4.485
 7888TIP3    H223608   7.424   2.447   4.346
 7889TIP3   OH223609   7.308   0.502   2.381
 7889TIP3    H123610   7.255   0.525   2.457
 7889TIP3    H223611   7.379   0.450   2.417
 7890TIP3   OH223612   7.457   1.493   4.490
 7890TIP3    H123613   7.483   1.402   4.505
 7890TIP3    H223614   7.538   1.537   4.463
 7891TIP3   OH223615   1.708   4.906   6.341
 7891TIP3    H123616   1.644   4.948   6.399
 7891TIP3    H223617   1.719   4.818   6.378
 7892TIP3   OH223618   2.012   5.161   1.840
 7892TIP3    H123619   1.970   5.239   1.876
 7892TIP3    H223620   1.965   5.088   1.880
 7893TIP3   OH223621   7.624   0.163   3.966
 7893TIP3    H123622   7.685   0.123   3.904
 7893TIP3    H223623   7.550   0.192   3.913
 7894TIP3   OH223624   6.749   3.351   6.643
 7894TIP3    H123625   6.717   3.407   6.714
 7894TIP3    H223626   6.686   3.363   6.573
 7895TIP3   OH223627   0.227   7.071   1.237
 7895TIP3    H123628   0.218   7.053   1.331
 7895TIP3    H223629   0.148   7.034   1.198
 7896TIP3   OH223630   0.956   0.269   3.647
 7896TIP3    H123631   1.045   0.240   3.626
 7896TIP3    H223632   0.900   0.198   3.614
 7897TIP3   OH223633   4.179   4.733   5.845
 7897TIP3    H123634   4.203   4.770   5.760
 7897TIP3    H223635   4.228   4.785   5.909
 7898TIP3   OH223636   8.224   1.724   2.555
 7898TIP3    H123637   8.214   1.671   2.635
 7898TIP3    H223638   8.180   1.806   2.575
 7899TIP3   OH223639   7.000   1.753   2.306
 7899TIP3    H123640   7.032   1.838   2.338
 7899TIP3    H223641   6.947   1.719   2.378
 7900TIP3   OH223642   2.452   1.724   3.532
 7900TIP3    H123643   2.511   1.655   3.561
 7900TIP3    H223644   2.429   1.700   3.442
 7901TIP3   OH223645   6.721   7.251   6.577
 7901TIP3    H123646   6.735   7.302   6.658
 7901TIP3    H223647   6.683   7.169   6.607
 7902TIP3   OH223648   7.037   2.814   2.017
 7902TIP3    H123649   7.035   2.753   2.091
 7902TIP3    H223650   6.972   2.881   2.039
 7903TIP3   OH223651   5.716   2.175   0.966
 7903TIP3    H123652   5.738   2.215   1.050
 7903TIP3    H223653   5.627   2.141   0.977
 7904TIP3   OH223654   6.091   4.134   0.405
 7904TIP3    H123655   6.135   4.203   0.454
 7904TIP3    H223656   6.147   4.057   0.415
 7905TIP3   OH223657   5.173   7.688   1.873
 7905TIP3    H123658   5.117   7.765   1.860
 7905TIP3    H223659   5.257   7.724   1.902
 7906TIP3   OH223660   1.012   3.184   6.438
 7906TIP3    H123661   1.052   3.097   6.439
 7906TIP3    H223662   1.064   3.234   6.501
 7907TIP3   OH223663   0.898   6.133   5.072
 7907TIP3    H123664   0.810   6.118   5.107
 7907TIP3    H223665   0.947   6.054   5.097
 7908TIP3   OH223666   3.549   0.481   3.524
 7908TIP3    H123667   3.512   0.563   3.557
 7908TIP3    H223668   3.582   0.436   3.602
 7909TIP3   OH223669   6.201   7.398   4.136
 7909TIP3    H123670   6.197   7.398   4.040
 7909TIP3    H223671   6.121   7.353   4.163
 7910TIP3   OH223672   1.346   1.368   5.200
 7910TIP3    H123673   1.396   1.301   5.153
 7910TIP3    H223674   1.412   1.424   5.240
 7911TIP3   OH223675   4.876   0.341   1.434
 7911TIP3    H123676   4.823   0.409   1.391
 7911TIP3    H223677   4.848   0.259   1.392
 7912TIP3   OH223678   5.613   6.910   5.699
 7912TIP3    H123679   5.673   6.927   5.772
 7912TIP3    H223680   5.651   6.836   5.652
 7913TIP3   OH223681   3.375   3.045   2.882
 7913TIP3    H123682   3.333   2.990   2.817
 7913TIP3    H223683   3.328   3.026   2.964
 7914TIP3   OH223684   2.698   0.371   5.653
 7914TIP3    H123685   2.730   0.303   5.713
 7914TIP3    H223686   2.778   0.415   5.623
 7915TIP3   OH223687   8.277   7.556   5.867
 7915TIP3    H123688   8.280   7.610   5.788
 7915TIP3    H223689   8.307   7.470   5.839
 7916TIP3   OH223690   4.497   2.962   5.554
 7916TIP3    H123691   4.423   3.013   5.588
 7916TIP3    H223692   4.456   2.888   5.509
 7917TIP3   OH223693   2.241   3.493   3.325
 7917TIP3    H123694   2.156   3.476   3.284
 7917TIP3    H223695   2.225   3.568   3.382
 7918TIP3   OH223696   1.410   7.184   1.548
 7918TIP3    H123697   1.438   7.274   1.531
 7918TIP3    H223698   1.407   7.177   1.644
 7919TIP3   OH223699   6.316   3.584   2.748
 7919TIP3    H123700   6.310   3.655   2.812
 7919TIP3    H223701   6.336   3.506   2.801
 7920TIP3   OH223702   7.143   3.122   3.089
 7920TIP3    H123703   7.129   3.212   3.121
 7920TIP3    H223704   7.055   3.089   3.072
 7921TIP3   OH223705   8.042   7.456   4.992
 7921TIP3    H123706   8.077   7.406   5.066
 7921TIP3    H223707   7.975   7.513   5.031
 7922TIP3   OH223708   7.286   7.668   4.393
 7922TIP3    H123709   7.294   7.573   4.390
 7922TIP3    H223710   7.349   7.700   4.328
 7923TIP3   OH223711   6.968   4.695   6.418
 7923TIP3    H123712   7.042   4.748   6.389
 7923TIP3    H223713   6.892   4.753   6.411
 7924TIP3   OH223714   6.685   3.056   1.821
 7924TIP3    H123715   6.670   3.007   1.740
 7924TIP3    H223716   6.780   3.052   1.833
 7925TIP3   OH223717   1.207   1.629   5.214
 7925TIP3    H123718   1.225   1.535   5.210
 7925TIP3    H223719   1.288   1.670   5.186
 7926TIP3   OH223720   1.685   1.678   2.627
 7926TIP3    H123721   1.748   1.627   2.575
 7926TIP3    H223722   1.702   1.769   2.603
 7927TIP3   OH223723   4.628   5.018   5.996
 7927TIP3    H123724   4.626   4.928   6.030
 7927TIP3    H223725   4.640   5.072   6.074
 7928TIP3   OH223726   3.862   1.756   4.512
 7928TIP3    H123727   3.792   1.797   4.564
 7928TIP3    H223728   3.848   1.662   4.524
 7929TIP3   OH223729   5.239   3.967   0.619
 7929TIP3    H123730   5.199   3.992   0.536
 7929TIP3    H223731   5.333   3.979   0.605
 7930TIP3   OH223732   2.566   7.789   1.243
 7930TIP3    H123733   2.523   7.704   1.231
 7930TIP3    H223734   2.499   7.853   1.218
 7931TIP3   OH223735   1.904   6.901   4.809
 7931TIP3    H123736   1.861   6.816   4.803
 7931TIP3    H223737   1.977   6.887   4.869
 7932TIP3   OH223738   0.935   5.226   4.449
 7932TIP3    H123739   0.985   5.243   4.529
 7932TIP3    H223740   0.871   5.159   4.474
 7933TIP3   OH223741   2.856   6.322   4.082
 7933TIP3    H123742   2.908   6.394   4.118
 7933TIP3    H223743   2.828   6.353   3.996
 7934TIP3   OH223744   6.010   0.397   6.611
 7934TIP3    H123745   5.998   0.488   6.638
 7934TIP3    H223746   5.932   0.352   6.642
 7935TIP3   OH223747   7.548   4.703   2.292
 7935TIP3    H123748   7.514   4.648   2.362
 7935TIP3    H223749   7.484   4.696   2.222
 7936TIP3   OH223750   6.720   3.580   0.492
 7936TIP3    H123751   6.772   3.529   0.553
 7936TIP3    H223752   6.739   3.543   0.406
 7937TIP3   OH223753   3.805   2.105   0.610
 7937TIP3    H123754   3.863   2.074   0.540
 7937TIP3    H223755   3.810   2.036   0.677
 7938TIP3   OH223756   4.747   0.363   3.714
 7938TIP3    H123757   4.712   0.317   3.637
 7938TIP3    H223758   4.682   0.430   3.734
 7939TIP3   OH223759   2.957   5.789   5.741
 7939TIP3    H123760   2.933   5.830   5.824
 7939TIP3    H223761   3.004   5.857   5.692
 7940TIP3   OH223762   7.961   0.400   3.891
 7940TIP3    H123763   7.939   0.307   3.885
 7940TIP3    H223764   8.055   0.402   3.908
 7941TIP3   OH223765   1.506   4.989   1.360
 7941TIP3    H123766   1.411   5.002   1.365
 7941TIP3    H223767   1.539   5.015   1.446
 7942TIP3   OH223768   5.964   3.925   6.077
 7942TIP3    H123769   5.966   3.915   5.982
 7942TIP3    H223770   5.993   4.015   6.092
 7943TIP3   OH223771   4.488   5.768   0.084
 7943TIP3    H123772   4.482   5.732  -0.005
 7943TIP3    H223773   4.509   5.692   0.138
 7944TIP3   OH223774   1.557   7.280   6.161
 7944TIP3    H123775   1.481   7.336   6.179
 7944TIP3    H223776   1.529   7.193   6.188
 7945TIP3   OH223777   4.905   0.181   0.748
 7945TIP3    H123778   4.935   0.095   0.777
 7945TIP3    H223779   4.981   0.220   0.705
 7946TIP3   OH223780   1.562   0.199   5.228
 7946TIP3    H123781   1.484   0.161   5.269
 7946TIP3    H223782   1.531   0.230   5.143
 7947TIP3   OH223783   0.308   1.859   0.348
 7947TIP3    H123784   0.369   1.795   0.311
 7947TIP3    H223785   0.242   1.807   0.393
 7948TIP3   OH223786   1.530   0.085   3.751
 7948TIP3    H123787   1.619   0.115   3.771
 7948TIP3    H223788   1.513   0.017   3.817
 7949TIP3   OH223789   0.380   2.469   5.050
 7949TIP3    H123790   0.388   2.552   5.004
 7949TIP3    H223791   0.377   2.403   4.981
 7950TIP3   OH223792   5.731   3.153   2.884
 7950TIP3    H123793   5.739   3.090   2.955
 7950TIP3    H223794   5.699   3.233   2.926
 7951TIP3   OH223795   3.473   1.663   6.389
 7951TIP3    H123796   3.425   1.601   6.444
 7951TIP3    H223797   3.425   1.665   6.307
 7952TIP3   OH223798   4.856   0.629   5.908
 7952TIP3    H123799   4.896   0.552   5.868
 7952TIP3    H223800   4.917   0.700   5.888
 7953TIP3   OH223801   1.499   1.353   0.137
 7953TIP3    H123802   1.495   1.287   0.206
 7953TIP3    H223803   1.429   1.414   0.158
 7954TIP3   OH223804   0.967   3.585   6.606
 7954TIP3    H123805   0.932   3.663   6.649
 7954TIP3    H223806   0.956   3.515   6.670
 7955TIP3   OH223807   0.415   4.687   6.678
 7955TIP3    H123808   0.444   4.778   6.688
 7955TIP3    H223809   0.402   4.676   6.584
 7956TIP3   OH223810   2.603   5.154   0.713
 7956TIP3    H123811   2.537   5.105   0.664
 7956TIP3    H223812   2.553   5.207   0.775
 7957TIP3   OH223813   5.897   2.175   4.917
 7957TIP3    H123814   5.871   2.172   4.825
 7957TIP3    H223815   5.823   2.137   4.964
 7958TIP3   OH223816   0.518   5.907   4.130
 7958TIP3    H123817   0.513   5.895   4.035
 7958TIP3    H223818   0.505   6.001   4.143
 7959TIP3   OH223819   4.682   0.508   2.254
 7959TIP3    H123820   4.634   0.590   2.252
 7959TIP3    H223821   4.621   0.442   2.222
 7960TIP3   OH223822   1.282   0.523   0.852
 7960TIP3    H123823   1.233   0.600   0.825
 7960TIP3    H223824   1.370   0.556   0.871
 7961TIP3   OH223825   4.554   5.625   1.059
 7961TIP3    H123826   4.570   5.684   1.133
 7961TIP3    H223827   4.583   5.675   0.982
 7962TIP3   OH223828   7.878   4.522   0.684
 7962TIP3    H123829   7.883   4.460   0.757
 7962TIP3    H223830   7.847   4.603   0.724
 7963TIP3   OH223831   3.589   6.819   2.545
 7963TIP3    H123832   3.544   6.758   2.603
 7963TIP3    H223833   3.538   6.816   2.463
 7964TIP3   OH223834   7.502   6.416   4.521
 7964TIP3    H123835   7.497   6.322   4.538
 7964TIP3    H223836   7.416   6.450   4.545
 7965TIP3   OH223837   7.923   4.587   4.813
 7965TIP3    H123838   7.955   4.503   4.845
 7965TIP3    H223839   7.947   4.588   4.720
 7966TIP3   OH223840   1.273   5.689   2.798
 7966TIP3    H123841   1.231   5.771   2.824
 7966TIP3    H223842   1.300   5.703   2.707
 7967TIP3   OH223843   3.878   0.870   2.919
 7967TIP3    H123844   3.852   0.783   2.889
 7967TIP3    H223845   3.873   0.865   3.014
 7968TIP3   OH223846   1.306   4.353   3.281
 7968TIP3    H123847   1.259   4.310   3.209
 7968TIP3    H223848   1.264   4.438   3.290
 7969TIP3   OH223849   5.133   7.230   2.295
 7969TIP3    H123850   5.204   7.260   2.238
 7969TIP3    H223851   5.075   7.306   2.303
 7970TIP3   OH223852   3.661   7.160   6.234
 7970TIP3    H123853   3.641   7.237   6.181
 7970TIP3    H223854   3.597   7.095   6.207
 7971TIP3   OH223855   6.602   6.519   3.452
 7971TIP3    H123856   6.638   6.571   3.380
 7971TIP3    H223857   6.668   6.522   3.520
 7972TIP3   OH223858   6.367   0.772   4.834
 7972TIP3    H123859   6.342   0.680   4.832
 7972TIP3    H223860   6.382   0.791   4.927
 7973TIP3   OH223861   1.502   6.687   0.534
 7973TIP3    H123862   1.448   6.697   0.455
 7973TIP3    H223863   1.440   6.690   0.606
 7974TIP3   OH223864   1.884   2.673   4.744
 7974TIP3    H123865   1.862   2.605   4.808
 7974TIP3    H223866   1.861   2.634   4.659
 7975TIP3   OH223867   5.298   3.116   6.516
 7975TIP3    H123868   5.388   3.130   6.544
 7975TIP3    H223869   5.254   3.200   6.532
 7976TIP3   OH223870   7.316   7.719   3.329
 7976TIP3    H123871   7.393   7.665   3.312
 7976TIP3    H223872   7.266   7.716   3.247
 7977TIP3   OH223873   7.785   4.169   5.431
 7977TIP3    H123874   7.751   4.201   5.347
 7977TIP3    H223875   7.878   4.194   5.429
 7978TIP3   OH223876   5.243   5.889   0.901
 7978TIP3    H123877   5.149   5.876   0.912
 7978TIP3    H223878   5.276   5.803   0.874
 7979TIP3   OH223879   2.667   2.412   6.071
 7979TIP3    H123880   2.639   2.326   6.041
 7979TIP3    H223881   2.708   2.396   6.156
 7980TIP3   OH223882   7.892   2.100   2.486
 7980TIP3    H123883   7.857   2.124   2.400
 7980TIP3    H223884   7.903   2.183   2.532
 7981TIP3   OH223885   0.346   5.171   0.160
 7981TIP3    H123886   0.263   5.127   0.173
 7981TIP3    H223887   0.322   5.261   0.139
 7982TIP3   OH223888   5.999   6.288   3.615
 7982TIP3    H123889   6.009   6.254   3.527
 7982TIP3    H223890   5.968   6.213   3.666
 7983TIP3   OH223891   4.522   6.462   2.355
 7983TIP3    H123892   4.590   6.497   2.412
 7983TIP3    H223893   4.527   6.516   2.276
 7984TIP3   OH223894   2.953   3.113   5.449
 7984TIP3    H123895   2.969   3.073   5.534
 7984TIP3    H223896   2.887   3.057   5.408
 7985TIP3   OH223897   2.062   1.112   0.482
 7985TIP3    H123898   2.151   1.125   0.448
 7985TIP3    H223899   2.026   1.042   0.427
 7986TIP3   OH223900   4.861   5.499   4.051
 7986TIP3    H123901   4.878   5.427   3.991
 7986TIP3    H223902   4.812   5.563   3.999
 7987TIP3   OH223903   4.876   4.606   2.751
 7987TIP3    H123904   4.854   4.539   2.686
 7987TIP3    H223905   4.971   4.615   2.745
 7988TIP3   OH223906   6.691   4.380   3.475
 7988TIP3    H123907   6.740   4.453   3.514
 7988TIP3    H223908   6.603   4.388   3.512
 7989TIP3   OH223909   1.083   4.927   0.392
 7989TIP3    H123910   0.998   4.929   0.436
 7989TIP3    H223911   1.101   5.018   0.370
 7990TIP3   OH223912   2.606   4.249   3.785
 7990TIP3    H123913   2.515   4.262   3.814
 7990TIP3    H223914   2.598   4.210   3.699
 7991TIP3   OH223915   6.730   4.488   1.570
 7991TIP3    H123916   6.636   4.504   1.565
 7991TIP3    H223917   6.759   4.479   1.480
 7992TIP3   OH223918   5.384   3.585   2.999
 7992TIP3    H123919   5.303   3.585   2.948
 7992TIP3    H223920   5.444   3.640   2.950
 7993TIP3   OH223921   2.254   0.900   0.428
 7993TIP3    H123922   2.302   0.982   0.441
 7993TIP3    H223923   2.223   0.877   0.516
 7994TIP3   OH223924   0.458   3.499   4.082
 7994TIP3    H123925   0.367   3.479   4.059
 7994TIP3    H223926   0.503   3.415   4.075
 7995TIP3   OH223927   3.964   1.186   0.191
 7995TIP3    H123928   3.887   1.140   0.223
 7995TIP3    H223929   3.940   1.215   0.103
 7996TIP3   OH223930   4.706   2.655   3.478
 7996TIP3    H123931   4.800   2.640   3.472
 7996TIP3    H223932   4.669   2.606   3.404
 7997TIP3   OH223933   1.603   6.981   1.347
 7997TIP3    H123934   1.684   6.952   1.305
 7997TIP3    H223935   1.632   7.042   1.415
 7998TIP3   OH223936   0.729   4.500   2.396
 7998TIP3    H123937   0.780   4.422   2.417
 7998TIP3    H223938   0.714   4.495   2.302
 7999TIP3   OH223939   0.196   6.413  -0.071
 7999TIP3    H123940   0.259   6.354  -0.030
 7999TIP3    H223941   0.196   6.491  -0.016
 8000TIP3   OH223942   2.266   7.092   4.948
 8000TIP3    H123943   2.218   7.167   4.914
 8000TIP3    H223944   2.330   7.070   4.880
 8001TIP3   OH223945   0.299   0.956   3.485
 8001TIP3    H123946   0.327   1.006   3.408
 8001TIP3    H223947   0.373   0.899   3.504
 8002TIP3   OH223948   8.126   2.530   0.465
 8002TIP3    H123949   8.041   2.500   0.433
 8002TIP3    H223950   8.160   2.457   0.516
 8003TIP3   OH223951   4.937   4.159   3.228
 8003TIP3    H123952   4.987   4.202   3.298
 8003TIP3    H223953   4.915   4.073   3.264
 8004TIP3   OH223954   5.313   5.599   2.273
 8004TIP3    H123955   5.250   5.530   2.293
 8004TIP3    H223956   5.345   5.629   2.358
 8005TIP3   OH223957   5.335   5.982   4.951
 8005TIP3    H123958   5.355   5.889   4.962
 8005TIP3    H223959   5.253   5.983   4.901
 8006TIP3   OH223960   0.565   0.310   2.705
 8006TIP3    H123961   0.535   0.249   2.638
 8006TIP3    H223962   0.487   0.362   2.727
 8007TIP3   OH223963   1.478   5.195   5.090
 8007TIP3    H123964   1.417   5.127   5.117
 8007TIP3    H223965   1.436   5.239   5.017
 8008TIP3   OH223966   3.961   2.833   1.321
 8008TIP3    H123967   3.979   2.924   1.345
 8008TIP3    H223968   4.043   2.800   1.286
 8009TIP3   OH223969   4.331   5.987   1.695
 8009TIP3    H123970   4.299   6.063   1.646
 8009TIP3    H223971   4.332   6.016   1.786
 8010TIP3   OH223972   6.500   0.157   3.385
 8010TIP3    H123973   6.434   0.193   3.326
 8010TIP3    H223974   6.560   0.108   3.329
 8011TIP3   OH223975   5.301   4.831   1.480
 8011TIP3    H123976   5.288   4.749   1.527
 8011TIP3    H223977   5.278   4.899   1.543
 8012TIP3   OH223978   5.900   4.490   6.060
 8012TIP3    H123979   5.847   4.538   6.123
 8012TIP3    H223980   5.843   4.476   5.985
 8013TIP3   OH223981   7.277   4.454   0.091
 8013TIP3    H123982   7.250   4.546   0.098
 8013TIP3    H223983   7.206   4.405   0.131
 8014TIP3   OH223984   7.156   3.536   5.335
 8014TIP3    H123985   7.149   3.440   5.342
 8014TIP3    H223986   7.244   3.555   5.367
 8015TIP3   OH223987   7.169   0.440   2.617
 8015TIP3    H123988   7.154   0.524   2.660
 8015TIP3    H223989   7.208   0.385   2.685
 8016TIP3   OH223990   2.849   0.900   0.656
 8016TIP3    H123991   2.814   0.987   0.674
 8016TIP3    H223992   2.937   0.916   0.623
 8017TIP3   OH223993   1.701   0.514   0.659
 8017TIP3    H123994   1.745   0.598   0.651
 8017TIP3    H223995   1.721   0.484   0.748
 8018TIP3   OH223996   7.396   2.404   4.850
 8018TIP3    H123997   7.459   2.443   4.789
 8018TIP3    H223998   7.312   2.444   4.826
 8019TIP3   OH223999   5.720   0.874   5.773
 8019TIP3    H124000   5.677   0.789   5.784
 8019TIP3    H224001   5.813   0.854   5.767
 8020TIP3   OH224002   7.129   4.389   3.807
 8020TIP3    H124003   7.187   4.393   3.731
 8020TIP3    H224004   7.053   4.339   3.777
 8021TIP3   OH224005   0.477   5.472   0.456
 8021TIP3    H124006   0.509   5.554   0.419
 8021TIP3    H224007   0.516   5.404   0.401
 8022TIP3   OH224008   7.849   2.376   0.665
 8022TIP3    H124009   7.848   2.320   0.587
 8022TIP3    H224010   7.757   2.389   0.687
 8023TIP3   OH224011   5.061   0.212   1.994
 8023TIP3    H124012   4.975   0.171   2.005
 8023TIP3    H224013   5.049   0.271   1.918
 8024TIP3   OH224014   2.169   6.486   0.821
 8024TIP3    H124015   2.215   6.568   0.839
 8024TIP3    H224016   2.180   6.473   0.726
 8025TIP3   OH224017   4.237   2.903   4.811
 8025TIP3    H124018   4.245   2.834   4.744
 8025TIP3    H224019   4.301   2.969   4.785
 8026TIP3   OH224020   2.377   4.240   4.265
 8026TIP3    H124021   2.390   4.159   4.314
 8026TIP3    H224022   2.360   4.306   4.333
 8027TIP3   OH224023   2.578   3.382   4.194
 8027TIP3    H124024   2.642   3.451   4.180
 8027TIP3    H224025   2.611   3.332   4.268
 8028TIP3   OH224026   1.762   1.727   5.868
 8028TIP3    H124027   1.694   1.671   5.829
 8028TIP3    H224028   1.829   1.665   5.897
 8029TIP3   OH224029   3.129   7.100   3.985
 8029TIP3    H124030   3.130   7.170   4.051
 8029TIP3    H224031   3.135   7.019   4.036
 8030TIP3   OH224032   4.849   7.109   2.224
 8030TIP3    H124033   4.873   7.139   2.311
 8030TIP3    H224034   4.896   7.167   2.164
 8031TIP3   OH224035   1.755   0.172   4.640
 8031TIP3    H124036   1.722   0.143   4.725
 8031TIP3    H224037   1.845   0.202   4.658
 8032TIP3   OH224038   1.923   5.320   5.330
 8032TIP3    H124039   1.907   5.236   5.286
 8032TIP3    H224040   1.920   5.385   5.260
 8033TIP3   OH224041   0.685   4.872   6.667
 8033TIP3    H124042   0.732   4.869   6.751
 8033TIP3    H224043   0.604   4.918   6.686
 8034TIP3   OH224044   5.216   0.738   0.169
 8034TIP3    H124045   5.289   0.746   0.108
 8034TIP3    H224046   5.149   0.797   0.135
 8035TIP3   OH224047   8.216   5.936   6.672
 8035TIP3    H124048   8.229   6.010   6.613
 8035TIP3    H224049   8.300   5.926   6.717
 8036TIP3   OH224050   6.653   6.482   6.027
 8036TIP3    H124051   6.653   6.514   5.937
 8036TIP3    H224052   6.618   6.554   6.079
 8037TIP3   OH224053   2.620   0.240   6.784
 8037TIP3    H124054   2.538   0.247   6.735
 8037TIP3    H224055   2.683   0.208   6.720
 8038TIP3   OH224056   5.893   1.408   6.597
 8038TIP3    H124057   5.888   1.439   6.687
 8038TIP3    H224058   5.975   1.442   6.564
 8039TIP3   OH224059   3.787   4.643   1.831
 8039TIP3    H124060   3.815   4.621   1.742
 8039TIP3    H224061   3.822   4.574   1.886
 8040TIP3   OH224062   5.228   4.941   3.046
 8040TIP3    H124063   5.320   4.939   3.071
 8040TIP3    H224064   5.180   4.941   3.129
 8041TIP3   OH224065   5.003   7.272   3.364
 8041TIP3    H124066   4.957   7.218   3.427
 8041TIP3    H224067   4.950   7.267   3.284
 8042TIP3   OH224068   6.191   3.920   2.176
 8042TIP3    H124069   6.175   3.960   2.090
 8042TIP3    H224070   6.137   3.841   2.176
 8043TIP3   OH224071   3.480   4.661   4.592
 8043TIP3    H124072   3.439   4.609   4.523
 8043TIP3    H224073   3.479   4.751   4.558
 8044TIP3   OH224074   8.187   7.649   1.510
 8044TIP3    H124075   8.212   7.566   1.469
 8044TIP3    H224076   8.094   7.659   1.489
 8045TIP3   OH224077   3.549   6.666   1.465
 8045TIP3    H124078   3.607   6.623   1.402
 8045TIP3    H224079   3.567   6.621   1.548
 8046TIP3   OH224080   6.835   6.584   0.482
 8046TIP3    H124081   6.915   6.621   0.446
 8046TIP3    H224082   6.860   6.548   0.567
 8047TIP3   OH224083   6.063   6.773   5.825
 8047TIP3    H124084   6.022   6.797   5.742
 8047TIP3    H224085   6.004   6.806   5.892
 8048TIP3   OH224086   7.738   4.741   1.844
 8048TIP3    H124087   7.688   4.666   1.876
 8048TIP3    H224088   7.675   4.812   1.841
 8049TIP3   OH224089   2.840   2.164   5.600
 8049TIP3    H124090   2.803   2.095   5.545
 8049TIP3    H224091   2.826   2.133   5.689
 8050TIP3   OH224092   4.412   6.731   1.036
 8050TIP3    H124093   4.398   6.799   1.102
 8050TIP3    H224094   4.369   6.766   0.957
 8051TIP3   OH224095   3.975   2.205   3.379
 8051TIP3    H124096   3.880   2.202   3.393
 8051TIP3    H224097   3.995   2.125   3.331
 8052TIP3   OH224098   0.070   3.401   6.784
 8052TIP3    H124099   0.033   3.459   6.850
 8052TIP3    H224100   0.093   3.459   6.711
 8053TIP3   OH224101   7.613   4.199   4.508
 8053TIP3    H124102   7.571   4.225   4.426
 8053TIP3    H224103   7.667   4.274   4.533
 8054TIP3   OH224104   1.470   1.700   1.823
 8054TIP3    H124105   1.427   1.782   1.850
 8054TIP3    H224106   1.469   1.646   1.902
 8055TIP3   OH224107   6.207   5.678   3.702
 8055TIP3    H124108   6.190   5.603   3.760
 8055TIP3    H224109   6.298   5.665   3.674
 8056TIP3   OH224110   5.506   0.174   3.374
 8056TIP3    H124111   5.457   0.123   3.438
 8056TIP3    H224112   5.442   0.234   3.337
 8057TIP3   OH224113   0.467   4.274   4.606
 8057TIP3    H124114   0.475   4.179   4.604
 8057TIP3    H224115   0.450   4.299   4.515
 8058TIP3   OH224116   4.059   0.658   0.697
 8058TIP3    H124117   4.006   0.646   0.775
 8058TIP3    H224118   4.141   0.697   0.729
 8059TIP3   OH224119   4.144   5.566   2.649
 8059TIP3    H124120   4.187   5.633   2.597
 8059TIP3    H224121   4.215   5.515   2.687
 8060TIP3   OH224122   7.283   3.598   1.570
 8060TIP3    H124123   7.298   3.543   1.493
 8060TIP3    H224124   7.363   3.591   1.621
 8061TIP3   OH224125   6.348   3.483   0.383
 8061TIP3    H124126   6.293   3.413   0.346
 8061TIP3    H224127   6.437   3.462   0.352
 8062TIP3   OH224128   0.059   3.991   0.306
 8062TIP3    H124129   0.031   4.079   0.283
 8062TIP3    H224130   0.153   3.999   0.324
 8063TIP3   OH224131   6.900   6.357   3.407
 8063TIP3    H124132   6.935   6.278   3.367
 8063TIP3    H224133   6.832   6.326   3.467
 8064TIP3   OH224134   2.381   5.474   0.516
 8064TIP3    H124135   2.363   5.419   0.440
 8064TIP3    H224136   2.342   5.428   0.590
 8065TIP3   OH224137   7.674   4.241   3.658
 8065TIP3    H124138   7.736   4.177   3.693
 8065TIP3    H224139   7.713   4.272   3.577
 8066TIP3   OH224140   4.206   4.366   1.798
 8066TIP3    H124141   4.137   4.395   1.738
 8066TIP3    H224142   4.264   4.313   1.744
 8067TIP3   OH224143   4.418   2.922   0.348
 8067TIP3    H124144   4.401   2.869   0.270
 8067TIP3    H224145   4.447   3.007   0.313
 8068TIP3   OH224146   5.492   6.036   6.204
 8068TIP3    H124147   5.472   5.951   6.165
 8068TIP3    H224148   5.581   6.026   6.237
 8069TIP3   OH224149   6.951   7.144   3.218
 8069TIP3    H124150   6.903   7.160   3.299
 8069TIP3    H224151   6.971   7.231   3.184
 8070TIP3   OH224152   2.985   2.451   6.285
 8070TIP3    H124153   2.979   2.547   6.281
 8070TIP3    H224154   2.955   2.422   6.198
 8071TIP3   OH224155   7.477   0.435   2.116
 8071TIP3    H124156   7.486   0.347   2.152
 8071TIP3    H224157   7.437   0.486   2.187
 8072TIP3   OH224158   5.776   4.455   2.794
 8072TIP3    H124159   5.731   4.496   2.868
 8072TIP3    H224160   5.814   4.528   2.746
 8073TIP3   OH224161   2.299   1.257   4.120
 8073TIP3    H124162   2.360   1.331   4.126
 8073TIP3    H224163   2.355   1.179   4.120
 8074TIP3   OH224164   2.756   7.550   3.945
 8074TIP3    H124165   2.781   7.634   3.985
 8074TIP3    H224166   2.712   7.503   4.015
 8075TIP3   OH224167   0.793   1.602   0.297
 8075TIP3    H124168   0.761   1.533   0.239
 8075TIP3    H224169   0.801   1.679   0.241
 8076TIP3   OH224170   3.260   5.102   2.295
 8076TIP3    H124171   3.302   5.056   2.369
 8076TIP3    H224172   3.207   5.034   2.253
 8077TIP3   OH224173   3.349   4.105   4.139
 8077TIP3    H124174   3.299   4.031   4.173
 8077TIP3    H224175   3.435   4.098   4.181
 8078TIP3   OH224176   1.820   7.317   1.265
 8078TIP3    H124177   1.872   7.241   1.240
 8078TIP3    H224178   1.872   7.361   1.332
 8079TIP3   OH224179   2.746   0.865   1.484
 8079TIP3    H124180   2.677   0.843   1.547
 8079TIP3    H224181   2.799   0.786   1.478
 8080TIP3   OH224182   3.281   5.603   1.286
 8080TIP3    H124183   3.363   5.651   1.271
 8080TIP3    H224184   3.274   5.544   1.211
 8081TIP3   OH224185   6.638   3.157   4.896
 8081TIP3    H124186   6.672   3.237   4.856
 8081TIP3    H224187   6.652   3.169   4.990
 8082TIP3   OH224188   7.534   4.624   3.777
 8082TIP3    H124189   7.560   4.710   3.745
 8082TIP3    H224190   7.473   4.642   3.849
 8083TIP3   OH224191   1.749   6.675   1.160
 8083TIP3    H124192   1.658   6.683   1.186
 8083TIP3    H224193   1.747   6.623   1.080
 8084TIP3   OH224194   7.623   3.374   5.853
 8084TIP3    H124195   7.602   3.321   5.776
 8084TIP3    H224196   7.547   3.431   5.864
 8085TIP3   OH224197   2.640   1.663   5.509
 8085TIP3    H124198   2.644   1.620   5.423
 8085TIP3    H224199   2.547   1.678   5.524
 8086TIP3   OH224200   2.452   1.189   4.821
 8086TIP3    H124201   2.485   1.100   4.832
 8086TIP3    H224202   2.493   1.220   4.740
 8087TIP3   OH224203   3.219   4.037   5.457
 8087TIP3    H124204   3.213   4.012   5.550
 8087TIP3    H224205   3.293   3.986   5.424
 8088TIP3   OH224206   7.516   6.844   1.850
 8088TIP3    H124207   7.448   6.807   1.905
 8088TIP3    H224208   7.553   6.769   1.804
 8089TIP3   OH224209   6.097   5.293   1.766
 8089TIP3    H124210   6.183   5.272   1.730
 8089TIP3    H224211   6.051   5.339   1.694
 8090TIP3   OH224212   0.274   2.001   6.583
 8090TIP3    H124213   0.280   1.926   6.524
 8090TIP3    H224214   0.182   2.027   6.578
 8091TIP3   OH224215   6.682   3.698   1.299
 8091TIP3    H124216   6.692   3.675   1.207
 8091TIP3    H224217   6.617   3.768   1.300
 8092TIP3   OH224218   2.402   4.468   1.887
 8092TIP3    H124219   2.377   4.485   1.978
 8092TIP3    H224220   2.393   4.373   1.877
 8093TIP3   OH224221   6.149   2.739   0.427
 8093TIP3    H124222   6.090   2.814   0.436
 8093TIP3    H224223   6.112   2.688   0.354
 8094TIP3   OH224224   4.016   1.345   0.970
 8094TIP3    H124225   4.100   1.336   1.014
 8094TIP3    H224226   4.039   1.371   0.880
 8095TIP3   OH224227   1.244   6.189   5.173
 8095TIP3    H124228   1.194   6.270   5.181
 8095TIP3    H224229   1.293   6.198   5.092
 8096TIP3   OH224230   0.764   6.497   0.841
 8096TIP3    H124231   0.747   6.558   0.769
 8096TIP3    H224232   0.800   6.419   0.799
 8097TIP3   OH224233   7.400   7.632   4.869
 8097TIP3    H124234   7.453   7.554   4.852
 8097TIP3    H224235   7.463   7.705   4.867
 8098TIP3   OH224236   5.790   2.039   0.016
 8098TIP3    H124237   5.772   2.074   0.104
 8098TIP3    H224238   5.863   1.978   0.029
 8099TIP3   OH224239   8.108   1.634   0.515
 8099TIP3    H124240   8.067   1.694   0.453
 8099TIP3    H224241   8.199   1.662   0.519
 8100TIP3   OH224242   7.247   2.194   3.516
 8100TIP3    H124243   7.302   2.206   3.593
 8100TIP3    H224244   7.281   2.256   3.452
 8101TIP3   OH224245   6.429  -0.057   0.916
 8101TIP3    H124246   6.442  -0.097   1.003
 8101TIP3    H224247   6.424   0.037   0.933
 8102TIP3   OH224248   0.747   3.507   4.589
 8102TIP3    H124249   0.730   3.601   4.598
 8102TIP3    H224250   0.677   3.466   4.640
 8103TIP3   OH224251   0.507   7.849   5.603
 8103TIP3    H124252   0.457   7.784   5.554
 8103TIP3    H224253   0.598   7.828   5.585
 8104TIP3   OH224254   6.495   6.303   5.805
 8104TIP3    H124255   6.520   6.350   5.885
 8104TIP3    H224256   6.528   6.214   5.817
 8105TIP3   OH224257   3.151   3.050   2.114
 8105TIP3    H124258   3.186   3.132   2.150
 8105TIP3    H224259   3.138   3.068   2.021
 8106TIP3   OH224260   6.303   6.651   2.995
 8106TIP3    H124261   6.324   6.645   3.088
 8106TIP3    H224262   6.277   6.563   2.970
 8107TIP3   OH224263   5.973   5.918   1.742
 8107TIP3    H124264   5.900   5.944   1.686
 8107TIP3    H224265   6.035   5.874   1.683
 8108TIP3   OH224266   2.609   2.034   2.348
 8108TIP3    H124267   2.622   1.975   2.422
 8108TIP3    H224268   2.637   2.120   2.380
 8109TIP3   OH224269   1.633   0.074   4.865
 8109TIP3    H124270   1.668   0.089   4.953
 8109TIP3    H224271   1.538   0.072   4.877
 8110TIP3   OH224272   4.397   0.454   1.008
 8110TIP3    H124273   4.469   0.503   0.969
 8110TIP3    H224274   4.419   0.362   0.993
 8111TIP3   OH224275   6.545   1.479   4.624
 8111TIP3    H124276   6.496   1.400   4.599
 8111TIP3    H224277   6.479   1.547   4.633
 8112TIP3   OH224278   6.980   0.392   4.883
 8112TIP3    H124279   7.012   0.442   4.808
 8112TIP3    H224280   6.968   0.303   4.850
 8113TIP3   OH224281   6.452   2.700   3.401
 8113TIP3    H124282   6.464   2.759   3.326
 8113TIP3    H224283   6.357   2.694   3.412
 8114TIP3   OH224284   6.383   4.626   2.783
 8114TIP3    H124285   6.463   4.574   2.793
 8114TIP3    H224286   6.378   4.678   2.863
 8115TIP3   OH224287   1.699   1.976   3.652
 8115TIP3    H124288   1.748   2.057   3.645
 8115TIP3    H224289   1.744   1.927   3.722
 8116TIP3   OH224290   4.999   7.043   5.576
 8116TIP3    H124291   5.042   7.010   5.497
 8116TIP3    H224292   5.071   7.065   5.635
 8117TIP3   OH224293   7.765   4.375   1.221
 8117TIP3    H124294   7.713   4.381   1.301
 8117TIP3    H224295   7.708   4.332   1.158
 8118TIP3   OH224296   3.034   7.059   3.717
 8118TIP3    H124297   3.070   7.047   3.805
 8118TIP3    H224298   3.097   7.014   3.660
 8119TIP3   OH224299   5.700   5.663   5.217
 8119TIP3    H124300   5.746   5.579   5.218
 8119TIP3    H224301   5.746   5.715   5.151
 8120TIP3   OH224302   3.569   5.871   0.062
 8120TIP3    H124303   3.629   5.797   0.076
 8120TIP3    H224304   3.508   5.840  -0.005
 8121TIP3   OH224305   1.392   4.771   0.480
 8121TIP3    H124306   1.304   4.734   0.475
 8121TIP3    H224307   1.392   4.841   0.414
 8122TIP3   OH224308   1.715   1.460   2.123
 8122TIP3    H124309   1.744   1.539   2.078
 8122TIP3    H224310   1.731   1.478   2.215
 8123TIP3   OH224311   1.201   3.774   3.030
 8123TIP3    H124312   1.125   3.831   3.021
 8123TIP3    H224313   1.189   3.730   3.114
 8124TIP3   OH224314   4.546   6.098   5.360
 8124TIP3    H124315   4.489   6.123   5.433
 8124TIP3    H224316   4.486   6.061   5.295
 8125TIP3   OH224317   3.684   6.955   5.555
 8125TIP3    H124318   3.656   6.908   5.634
 8125TIP3    H224319   3.639   6.910   5.483
 8126TIP3   OH224320   2.270   1.175   3.481
 8126TIP3    H124321   2.351   1.174   3.430
 8126TIP3    H224322   2.287   1.117   3.555
 8127TIP3   OH224323   2.009   0.625   1.517
 8127TIP3    H124324   1.921   0.651   1.543
 8127TIP3    H224325   2.017   0.534   1.544
 8128TIP3   OH224326   6.755   7.850   4.610
 8128TIP3    H124327   6.774   7.835   4.517
 8128TIP3    H224328   6.707   7.772   4.638
 8129TIP3   OH224329   7.621   6.136   3.745
 8129TIP3    H124330   7.649   6.046   3.762
 8129TIP3    H224331   7.526   6.131   3.741
 8130TIP3   OH224332   4.910   7.070   6.363
 8130TIP3    H124333   4.977   7.067   6.295
 8130TIP3    H224334   4.873   7.158   6.356
 8131TIP3   OH224335   7.705   2.475   0.921
 8131TIP3    H124336   7.658   2.430   0.851
 8131TIP3    H224337   7.778   2.519   0.877
 8132TIP3   OH224338   2.032   3.550   1.386
 8132TIP3    H124339   1.945   3.511   1.380
 8132TIP3    H224340   2.048   3.586   1.299
 8133TIP3   OH224341   2.433   5.182   2.638
 8133TIP3    H124342   2.355   5.142   2.600
 8133TIP3    H224343   2.492   5.194   2.563
 8134TIP3   OH224344   2.469   0.819   6.433
 8134TIP3    H124345   2.544   0.786   6.383
 8134TIP3    H224346   2.434   0.890   6.380
 8135TIP3   OH224347   6.389   2.777   0.045
 8135TIP3    H124348   6.451   2.715   0.083
 8135TIP3    H224349   6.381   2.846   0.111
 8136TIP3   OH224350   6.054   1.441   5.455
 8136TIP3    H124351   6.040   1.531   5.485
 8136TIP3    H224352   6.148   1.434   5.442
 8137TIP3   OH224353   5.830   2.558   2.458
 8137TIP3    H124354   5.787   2.475   2.435
 8137TIP3    H224355   5.765   2.604   2.511
 8138TIP3   OH224356   1.901   3.846   4.574
 8138TIP3    H124357   1.905   3.753   4.596
 8138TIP3    H224358   1.838   3.882   4.637
 8139TIP3   OH224359   7.214   1.662   4.734
 8139TIP3    H124360   7.251   1.597   4.674
 8139TIP3    H224361   7.179   1.611   4.807
 8140TIP3   OH224362   0.924   5.767   4.091
 8140TIP3    H124363   0.883   5.754   4.176
 8140TIP3    H224364   0.911   5.684   4.045
 8141TIP3   OH224365   1.532   1.512   0.893
 8141TIP3    H124366   1.476   1.583   0.925
 8141TIP3    H224367   1.621   1.546   0.900
 8142TIP3   OH224368   4.045   2.368   4.284
 8142TIP3    H124369   4.116   2.343   4.225
 8142TIP3    H224370   4.045   2.301   4.352
 8143TIP3   OH224371   2.871   2.627   3.603
 8143TIP3    H124372   2.952   2.676   3.618
 8143TIP3    H224373   2.825   2.631   3.687
 8144TIP3   OH224374   6.164   6.375   4.320
 8144TIP3    H124375   6.073   6.347   4.328
 8144TIP3    H224376   6.188   6.406   4.407
 8145TIP3   OH224377   6.359   4.190   1.618
 8145TIP3    H124378   6.329   4.214   1.530
 8145TIP3    H224379   6.290   4.223   1.676
 8146TIP3   OH224380   2.769   7.064   5.926
 8146TIP3    H124381   2.792   7.120   5.852
 8146TIP3    H224382   2.675   7.074   5.936
 8147TIP3   OH224383   4.081   6.892   2.355
 8147TIP3    H124384   3.987   6.882   2.369
 8147TIP3    H224385   4.099   6.843   2.274
 8148TIP3   OH224386   7.775   6.086   2.474
 8148TIP3    H124387   7.806   6.156   2.416
 8148TIP3    H224388   7.855   6.045   2.507
 8149TIP3   OH224389   1.770   3.612   1.216
 8149TIP3    H124390   1.829   3.678   1.254
 8149TIP3    H224391   1.684   3.654   1.216
 8150TIP3   OH224392   2.424   3.809   5.776
 8150TIP3    H124393   2.366   3.869   5.729
 8150TIP3    H224394   2.506   3.811   5.726
 8151TIP3   OH224395   4.678   1.241   1.138
 8151TIP3    H124396   4.586   1.217   1.147
 8151TIP3    H224397   4.724   1.187   1.203
 8152TIP3   OH224398   2.386   7.577   5.555
 8152TIP3    H124399   2.439   7.657   5.546
 8152TIP3    H224400   2.410   7.542   5.640
 8153TIP3   OH224401   0.060   5.511   5.020
 8153TIP3    H124402   0.088   5.533   5.109
 8153TIP3    H224403   0.035   5.419   5.025
 8154TIP3   OH224404   2.956   3.417   0.389
 8154TIP3    H124405   2.977   3.454   0.303
 8154TIP3    H224406   2.972   3.323   0.379
 8155TIP3   OH224407   4.432   2.694   5.431
 8155TIP3    H124408   4.496   2.694   5.360
 8155TIP3    H224409   4.462   2.626   5.491
 8156TIP3   OH224410   3.355   7.546   2.225
 8156TIP3    H124411   3.331   7.623   2.173
 8156TIP3    H224412   3.284   7.537   2.288
 8157TIP3   OH224413   4.539   4.047   6.527
 8157TIP3    H124414   4.572   4.072   6.613
 8157TIP3    H224415   4.463   3.993   6.544
 8158TIP3   OH224416   2.277   1.787   0.302
 8158TIP3    H124417   2.268   1.862   0.243
 8158TIP3    H224418   2.193   1.785   0.350
 8159TIP3   OH224419   1.452   4.919   4.287
 8159TIP3    H124420   1.404   4.973   4.225
 8159TIP3    H224421   1.543   4.950   4.280
 8160TIP3   OH224422   3.935   5.644   1.824
 8160TIP3    H124423   4.019   5.631   1.867
 8160TIP3    H224424   3.901   5.726   1.861
 8161TIP3   OH224425   5.931   2.204   5.391
 8161TIP3    H124426   5.886   2.258   5.326
 8161TIP3    H224427   5.893   2.230   5.474
 8162TIP3   OH224428   5.099   1.337   1.141
 8162TIP3    H124429   5.063   1.271   1.083
 8162TIP3    H224430   5.051   1.417   1.120
 8163TIP3   OH224431   4.884   7.391   3.133
 8163TIP3    H124432   4.801   7.439   3.142
 8163TIP3    H224433   4.865   7.323   3.069
 8164TIP3   OH224434   5.348   3.717   6.011
 8164TIP3    H124435   5.431   3.755   5.981
 8164TIP3    H224436   5.289   3.728   5.936
 8165TIP3   OH224437   6.536   6.927   4.055
 8165TIP3    H124438   6.630   6.946   4.060
 8165TIP3    H224439   6.519   6.869   4.129
 8166TIP3   OH224440   5.817   3.234   5.595
 8166TIP3    H124441   5.730   3.246   5.632
 8166TIP3    H224442   5.802   3.229   5.500
 8167TIP3   OH224443   7.097   0.643   6.007
 8167TIP3    H124444   7.069   0.728   5.973
 8167TIP3    H224445   7.190   0.654   6.026
 8168TIP3   OH224446   6.261   0.828   2.258
 8168TIP3    H124447   6.340   0.786   2.224
 8168TIP3    H224448   6.242   0.897   2.195
 8169TIP3   OH224449   0.931   4.453   6.112
 8169TIP3    H124450   0.911   4.496   6.029
 8169TIP3    H224451   0.908   4.517   6.179
 8170TIP3   OH224452   7.644   6.040   3.207
 8170TIP3    H124453   7.636   6.027   3.112
 8170TIP3    H224454   7.736   6.058   3.221
 8171TIP3   OH224455   0.430   2.198   0.861
 8171TIP3    H124456   0.424   2.110   0.899
 8171TIP3    H224457   0.471   2.185   0.776
 8172TIP3   OH224458   7.509   4.353   5.881
 8172TIP3    H124459   7.562   4.284   5.842
 8172TIP3    H224460   7.564   4.389   5.951
 8173TIP3   OH224461   3.190   6.829   3.053
 8173TIP3    H124462   3.107   6.872   3.031
 8173TIP3    H224463   3.216   6.870   3.136
 8174TIP3   OH224464   6.342   6.446   4.904
 8174TIP3    H124465   6.429   6.436   4.867
 8174TIP3    H224466   6.356   6.451   4.998
 8175TIP3   OH224467   6.940   4.076   4.830
 8175TIP3    H124468   7.003   4.030   4.775
 8175TIP3    H224469   6.944   4.030   4.914
 8176TIP3   OH224470   7.259   3.274   5.397
 8176TIP3    H124471   7.245   3.269   5.492
 8176TIP3    H224472   7.241   3.186   5.366
 8177TIP3   OH224473   1.328   7.095   3.846
 8177TIP3    H124474   1.321   7.146   3.765
 8177TIP3    H224475   1.414   7.118   3.881
 8178TIP3   OH224476   8.242   0.620   3.173
 8178TIP3    H124477   8.165   0.666   3.206
 8178TIP3    H224478   8.245   0.538   3.224
 8179TIP3   OH224479   6.240   3.718   4.836
 8179TIP3    H124480   6.246   3.759   4.750
 8179TIP3    H224481   6.146   3.716   4.855
 8180TIP3   OH224482   0.191   5.504   0.296
 8180TIP3    H124483   0.121   5.524   0.233
 8180TIP3    H224484   0.213   5.588   0.336
 8181TIP3   OH224485   4.280   3.921   0.892
 8181TIP3    H124486   4.216   3.889   0.828
 8181TIP3    H224487   4.253   4.011   0.910
 8182TIP3   OH224488   3.929   3.895   5.171
 8182TIP3    H124489   4.018   3.923   5.192
 8182TIP3    H224490   3.925   3.901   5.075
 8183TIP3   OH224491   3.727   0.145   1.074
 8183TIP3    H124492   3.664   0.201   1.030
 8183TIP3    H224493   3.727   0.063   1.024
 8184TIP3   OH224494   3.358   4.849   6.353
 8184TIP3    H124495   3.418   4.791   6.399
 8184TIP3    H224496   3.403   4.934   6.352
 8185TIP3   OH224497   4.883   1.533   5.706
 8185TIP3    H124498   4.845   1.516   5.792
 8185TIP3    H224499   4.832   1.481   5.645
 8186TIP3   OH224500   2.527   5.078   1.663
 8186TIP3    H124501   2.478   5.150   1.624
 8186TIP3    H224502   2.467   5.039   1.727
 8187TIP3   OH224503   1.310   7.626   5.811
 8187TIP3    H124504   1.299   7.703   5.754
 8187TIP3    H224505   1.220   7.600   5.832
 8188TIP3   OH224506   3.543   6.447   4.231
 8188TIP3    H124507   3.489   6.525   4.244
 8188TIP3    H224508   3.570   6.423   4.320
 8189TIP3   OH224509   0.223   4.977   1.674
 8189TIP3    H124510   0.241   4.895   1.720
 8189TIP3    H224511   0.308   5.022   1.671
 8190TIP3   OH224512   6.203   0.727   0.122
 8190TIP3    H124513   6.207   0.713   0.027
 8190TIP3    H224514   6.132   0.671   0.151
 8191TIP3   OH224515   1.624   6.728   6.093
 8191TIP3    H124516   1.712   6.712   6.127
 8191TIP3    H224517   1.567   6.682   6.154
 8192TIP3   OH224518   3.397   7.469   5.017
 8192TIP3    H124519   3.371   7.510   4.935
 8192TIP3    H224520   3.351   7.385   5.019
 8193TIP3   OH224521   0.015   1.981   3.476
 8193TIP3    H124522   0.010   1.937   3.561
 8193TIP3    H224523  -0.076   2.003   3.455
 8194TIP3   OH224524   0.684   4.455   4.041
 8194TIP3    H124525   0.666   4.543   4.009
 8194TIP3    H224526   0.630   4.398   3.986
 8195TIP3   OH224527   2.796   2.723   1.119
 8195TIP3    H124528   2.701   2.716   1.118
 8195TIP3    H224529   2.824   2.658   1.183
 8196TIP3   OH224530   0.538   1.873   4.719
 8196TIP3    H124531   0.616   1.827   4.690
 8196TIP3    H224532   0.474   1.858   4.650
 8197TIP3   OH224533   5.405   0.792   4.797
 8197TIP3    H124534   5.455   0.861   4.841
 8197TIP3    H224535   5.326   0.783   4.850
 8198TIP3   OH224536   7.817   5.859   2.967
 8198TIP3    H124537   7.885   5.876   3.031
 8198TIP3    H224538   7.772   5.781   3.000
 8199TIP3   OH224539   2.360   3.367   2.278
 8199TIP3    H124540   2.430   3.414   2.233
 8199TIP3    H224541   2.405   3.314   2.344
 8200TIP3   OH224542   6.246   0.650   2.463
 8200TIP3    H124543   6.270   0.565   2.425
 8200TIP3    H224544   6.216   0.702   2.389
 8201TIP3   OH224545   2.143   5.091   0.414
 8201TIP3    H124546   2.213   5.156   0.405
 8201TIP3    H224547   2.121   5.067   0.324
 8202TIP3   OH224548   7.016   0.069   4.380
 8202TIP3    H124549   7.102   0.096   4.413
 8202TIP3    H224550   7.027  -0.023   4.356
 8203TIP3   OH224551   7.641   3.568   4.429
 8203TIP3    H124552   7.645   3.472   4.425
 8203TIP3    H224553   7.559   3.586   4.475
 8204TIP3   OH224554   4.473   5.838   3.641
 8204TIP3    H124555   4.389   5.823   3.685
 8204TIP3    H224556   4.498   5.751   3.609
 8205TIP3   OH224557   1.213   2.466   2.598
 8205TIP3    H124558   1.195   2.383   2.643
 8205TIP3    H224559   1.126   2.503   2.581
 8206TIP3   OH224560   3.278   6.476   2.561
 8206TIP3    H124561   3.239   6.394   2.591
 8206TIP3    H224562   3.219   6.508   2.493
 8207TIP3   OH224563   0.135   2.153   4.972
 8207TIP3    H124564   0.196   2.186   4.907
 8207TIP3    H224565   0.190   2.107   5.036
 8208TIP3   OH224566   2.029   5.298   1.349
 8208TIP3    H124567   1.996   5.373   1.299
 8208TIP3    H224568   2.056   5.336   1.433
 8209TIP3   OH224569   7.421   2.997   0.255
 8209TIP3    H124570   7.491   2.976   0.317
 8209TIP3    H224571   7.395   2.912   0.219
 8210TIP3   OH224572   2.651   2.211   0.473
 8210TIP3    H124573   2.708   2.164   0.413
 8210TIP3    H224574   2.627   2.291   0.426
 8211TIP3   OH224575   4.395   7.621   5.082
 8211TIP3    H124576   4.354   7.561   5.020
 8211TIP3    H224577   4.489   7.613   5.065
 8212TIP3   OH224578   3.262   1.679   5.160
 8212TIP3    H124579   3.292   1.697   5.071
 8212TIP3    H224580   3.259   1.765   5.203
 8213TIP3   OH224581   5.130   5.938   5.230
 8213TIP3    H124582   5.098   5.887   5.156
 8213TIP3    H224583   5.218   5.966   5.204
 8214TIP3   OH224584   6.625   2.276   4.187
 8214TIP3    H124585   6.607   2.292   4.095
 8214TIP3    H224586   6.719   2.286   4.195
 8215TIP3   OH224587   1.806   4.784   1.666
 8215TIP3    H124588   1.887   4.753   1.706
 8215TIP3    H224589   1.832   4.860   1.614
 8216TIP3   OH224590   3.176   1.122   1.531
 8216TIP3    H124591   3.129   1.170   1.462
 8216TIP3    H224592   3.110   1.065   1.569
 8217TIP3   OH224593   1.948   7.288   2.855
 8217TIP3    H124594   1.910   7.203   2.873
 8217TIP3    H224595   1.943   7.297   2.759
 8218TIP3   OH224596   2.600   4.903   5.309
 8218TIP3    H124597   2.599   4.963   5.384
 8218TIP3    H224598   2.581   4.817   5.346
 8219TIP3   OH224599   5.658   2.318   2.487
 8219TIP3    H124600   5.581   2.374   2.489
 8219TIP3    H224601   5.632   2.241   2.438
 8220TIP3   OH224602   3.266   6.063   1.748
 8220TIP3    H124603   3.259   6.091   1.657
 8220TIP3    H224604   3.178   6.033   1.771
 8221TIP3   OH224605   6.227   0.264   2.558
 8221TIP3    H124606   6.309   0.290   2.516
 8221TIP3    H224607   6.255   0.215   2.636
 8222TIP3   OH224608   1.298   0.604   1.940
 8222TIP3    H124609   1.266   0.563   2.021
 8222TIP3    H224610   1.235   0.673   1.922
 8223TIP3   OH224611   3.104   2.596   0.057
 8223TIP3    H124612   3.067   2.602  -0.031
 8223TIP3    H224613   3.040   2.640   0.113
 8224TIP3   OH224614   6.724   6.840   0.417
 8224TIP3    H124615   6.764   6.772   0.471
 8224TIP3    H224616   6.797   6.878   0.368
 8225TIP3   OH224617   2.756   2.622   4.810
 8225TIP3    H124618   2.829   2.561   4.824
 8225TIP3    H224619   2.685   2.588   4.864
 8226TIP3   OH224620   2.761   2.096   1.275
 8226TIP3    H124621   2.668   2.111   1.256
 8226TIP3    H224622   2.794   2.051   1.197
 8227TIP3   OH224623   6.812   5.827   2.321
 8227TIP3    H124624   6.773   5.879   2.251
 8227TIP3    H224625   6.879   5.884   2.359
 8228TIP3   OH224626   2.294   4.220   0.347
 8228TIP3    H124627   2.311   4.288   0.412
 8228TIP3    H224628   2.199   4.208   0.348
 8229TIP3   OH224629   3.032   2.987   5.677
 8229TIP3    H124630   3.118   2.975   5.718
 8229TIP3    H224631   2.971   2.989   5.751
 8230TIP3   OH224632   5.895   7.237   6.609
 8230TIP3    H124633   5.958   7.191   6.552
 8230TIP3    H224634   5.942   7.249   6.691
 8231TIP3   OH224635  -0.038   7.693   1.941
 8231TIP3    H124636   0.023   7.729   2.005
 8231TIP3    H224637  -0.021   7.599   1.940
 8232TIP3   OH224638   1.090   6.591   3.683
 8232TIP3    H124639   1.176   6.567   3.717
 8232TIP3    H224640   1.029   6.530   3.725
 8233TIP3   OH224641   6.283   0.801   0.372
 8233TIP3    H124642   6.225   0.781   0.446
 8233TIP3    H224643   6.228   0.787   0.295
 8234TIP3   OH224644   4.786   4.080   2.552
 8234TIP3    H124645   4.854   4.038   2.499
 8234TIP3    H224646   4.717   4.102   2.489
 8235TIP3   OH224647   6.369   0.268   6.588
 8235TIP3    H124648   6.435   0.226   6.643
 8235TIP3    H224649   6.412   0.281   6.504
 8236TIP3   OH224650   5.936   1.634   4.661
 8236TIP3    H124651   5.972   1.568   4.721
 8236TIP3    H224652   5.941   1.593   4.574
 8237TIP3   OH224653   5.983   5.576   2.076
 8237TIP3    H124654   5.988   5.481   2.061
 8237TIP3    H224655   5.963   5.612   1.990
 8238TIP3   OH224656   6.499   4.168   1.932
 8238TIP3    H124657   6.455   4.084   1.922
 8238TIP3    H224658   6.472   4.199   2.019
 8239TIP3   OH224659   3.716   6.980   4.044
 8239TIP3    H124660   3.782   6.911   4.037
 8239TIP3    H224661   3.766   7.062   4.041
 8240TIP3   OH224662   5.190   2.430   6.077
 8240TIP3    H124663   5.251   2.360   6.055
 8240TIP3    H224664   5.116   2.385   6.118
 8241TIP3   OH224665   1.477   2.173   1.329
 8241TIP3    H124666   1.457   2.094   1.378
 8241TIP3    H224667   1.475   2.146   1.237
 8242TIP3   OH224668   2.928   1.962   3.230
 8242TIP3    H124669   2.941   2.031   3.164
 8242TIP3    H224670   2.990   1.894   3.206
 8243TIP3   OH224671   5.029   5.776   2.463
 8243TIP3    H124672   5.045   5.861   2.504
 8243TIP3    H224673   5.063   5.712   2.525
 8244TIP3   OH224674   2.691   7.097   3.798
 8244TIP3    H124675   2.655   7.012   3.774
 8244TIP3    H224676   2.634   7.128   3.869
 8245TIP3   OH224677   1.109   6.905   1.828
 8245TIP3    H124678   1.039   6.885   1.891
 8245TIP3    H224679   1.177   6.841   1.848
 8246TIP3   OH224680   4.043   4.595   5.527
 8246TIP3    H124681   4.046   4.608   5.432
 8246TIP3    H224682   4.126   4.631   5.559
 8247TIP3   OH224683   1.048   2.648   0.860
 8247TIP3    H124684   0.971   2.592   0.847
 8247TIP3    H224685   1.074   2.675   0.772
 8248TIP3   OH224686   6.865   3.472   0.282
 8248TIP3    H124687   6.948   3.426   0.297
 8248TIP3    H224688   6.867   3.494   0.189
 8249TIP3   OH224689   0.079   2.311   6.054
 8249TIP3    H124690   0.040   2.377   6.111
 8249TIP3    H224691   0.078   2.231   6.106
 8250TIP3   OH224692   0.494   2.897   5.241
 8250TIP3    H124693   0.492   2.813   5.288
 8250TIP3    H224694   0.435   2.884   5.167
 8251TIP3   OH224695   2.905   3.914   4.422
 8251TIP3    H124696   2.850   3.865   4.361
 8251TIP3    H224697   2.852   3.920   4.502
 8252TIP3   OH224698   2.611   2.981   0.566
 8252TIP3    H124699   2.610   2.930   0.485
 8252TIP3    H224700   2.677   3.049   0.551
 8253TIP3   OH224701   1.399   6.125   4.546
 8253TIP3    H124702   1.367   6.077   4.469
 8253TIP3    H224703   1.470   6.071   4.580
 8254TIP3   OH224704   7.882   7.379   1.179
 8254TIP3    H124705   7.816   7.444   1.199
 8254TIP3    H224706   7.857   7.344   1.094
 8255TIP3   OH224707   1.654   2.806   1.140
 8255TIP3    H124708   1.692   2.759   1.213
 8255TIP3    H224709   1.729   2.842   1.092
 8256TIP3   OH224710   3.272   0.048   2.574
 8256TIP3    H124711   3.199  -0.013   2.565
 8256TIP3    H224712   3.231   0.134   2.581
 8257TIP3   OH224713   7.135   7.792   6.319
 8257TIP3    H124714   7.114   7.835   6.402
 8257TIP3    H224715   7.078   7.714   6.317
 8258TIP3   OH224716  -0.064   4.395   6.613
 8258TIP3    H124717   0.027   4.425   6.615
 8258TIP3    H224718  -0.062   4.310   6.656
 8259TIP3   OH224719   6.613   7.013   3.437
 8259TIP3    H124720   6.572   7.099   3.446
 8259TIP3    H224721   6.643   7.011   3.346
 8260TIP3   OH224722   0.811   4.644   1.142
 8260TIP3    H124723   0.784   4.559   1.107
 8260TIP3    H224724   0.902   4.654   1.113
 8261TIP3   OH224725   3.222   7.283   1.138
 8261TIP3    H124726   3.316   7.299   1.126
 8261TIP3    H224727   3.190   7.262   1.050
 8262TIP3   OH224728   6.470   5.846   2.374
 8262TIP3    H124729   6.520   5.907   2.428
 8262TIP3    H224730   6.525   5.768   2.367
 8263TIP3   OH224731   4.514   7.351   4.731
 8263TIP3    H124732   4.524   7.342   4.826
 8263TIP3    H224733   4.594   7.312   4.695
 8264TIP3   OH224734   7.080   2.792   4.021
 8264TIP3    H124735   7.076   2.779   4.116
 8264TIP3    H224736   7.170   2.768   3.997
 8265TIP3   OH224737   4.775   2.382   5.580
 8265TIP3    H124738   4.682   2.388   5.603
 8265TIP3    H224739   4.819   2.434   5.647
 8266TIP3   OH224740   0.397   1.008   1.251
 8266TIP3    H124741   0.452   1.086   1.263
 8266TIP3    H224742   0.311   1.043   1.232
 8267TIP3   OH224743   6.123   2.191   2.058
 8267TIP3    H124744   6.143   2.243   1.980
 8267TIP3    H224745   6.200   2.136   2.070
 8268TIP3   OH224746   4.942   7.090   1.768
 8268TIP3    H124747   4.967   7.045   1.687
 8268TIP3    H224748   4.872   7.036   1.805
 8269TIP3   OH224749   6.263   3.385   6.605
 8269TIP3    H124750   6.238   3.420   6.519
 8269TIP3    H224751   6.242   3.291   6.599
 8270TIP3   OH224752   5.596   6.478   3.107
 8270TIP3    H124753   5.542   6.536   3.161
 8270TIP3    H224754   5.612   6.528   3.027
 8271TIP3   OH224755   2.337   6.882   6.020
 8271TIP3    H124756   2.391   6.859   6.095
 8271TIP3    H224757   2.374   6.965   5.989
 8272TIP3   OH224758   1.267   6.173   2.852
 8272TIP3    H124759   1.296   6.264   2.857
 8272TIP3    H224760   1.325   6.132   2.788
 8273TIP3   OH224761   6.088   7.706   3.846
 8273TIP3    H124762   6.126   7.787   3.880
 8273TIP3    H224763   6.089   7.717   3.751
 8274TIP3   OH224764   5.968   6.112   6.198
 8274TIP3    H124765   5.878   6.081   6.194
 8274TIP3    H224766   6.017   6.050   6.144
 8275TIP3   OH224767   2.578   2.450   5.494
 8275TIP3    H124768   2.533   2.366   5.509
 8275TIP3    H224769   2.591   2.486   5.581
 8276TIP3   OH224770   1.051   4.500   6.429
 8276TIP3    H124771   0.977   4.554   6.401
 8276TIP3    H224772   1.033   4.413   6.393
 8277TIP3   OH224773   2.518   0.144   4.316
 8277TIP3    H124774   2.440   0.088   4.316
 8277TIP3    H224775   2.562   0.123   4.398
 8278TIP3   OH224776   1.111   5.048   2.495
 8278TIP3    H124777   1.102   4.965   2.447
 8278TIP3    H224778   1.069   5.031   2.580
 8279TIP3   OH224779   2.386   2.856   0.011
 8279TIP3    H124780   2.353   2.935  -0.033
 8279TIP3    H224781   2.331   2.786  -0.024
 8280TIP3   OH224782   4.442   6.225   2.294
 8280TIP3    H124783   4.473   6.309   2.328
 8280TIP3    H224784   4.515   6.165   2.307
 8281TIP3   OH224785   7.509   1.375   1.637
 8281TIP3    H124786   7.492   1.372   1.731
 8281TIP3    H224787   7.605   1.380   1.631
 8282TIP3   OH224788   4.002   1.709   0.250
 8282TIP3    H124789   4.052   1.765   0.191
 8282TIP3    H224790   3.962   1.769   0.312
 8283TIP3   OH224791   5.179   4.620   4.937
 8283TIP3    H124792   5.128   4.546   4.970
 8283TIP3    H224793   5.192   4.602   4.844
 8284TIP3   OH224794   6.718   2.857   0.858
 8284TIP3    H124795   6.771   2.842   0.936
 8284TIP3    H224796   6.648   2.916   0.888
 8285TIP3   OH224797   6.420   4.202   6.661
 8285TIP3    H124798   6.514   4.208   6.646
 8285TIP3    H224799   6.411   4.183   6.754
 8286TIP3   OH224800   1.757   0.853   0.933
 8286TIP3    H124801   1.784   0.943   0.917
 8286TIP3    H224802   1.803   0.802   0.867
 8287TIP3   OH224803   2.966   3.668   5.554
 8287TIP3    H124804   3.054   3.666   5.592
 8287TIP3    H224805   2.913   3.616   5.614
 8288TIP3   OH224806   7.712   5.254   0.898
 8288TIP3    H124807   7.628   5.299   0.909
 8288TIP3    H224808   7.744   5.284   0.813
 8289TIP3   OH224809   1.894   4.392   2.503
 8289TIP3    H124810   1.877   4.347   2.420
 8289TIP3    H224811   1.908   4.321   2.566
 8290TIP3   OH224812   5.142   2.068   2.361
 8290TIP3    H124813   5.122   2.149   2.315
 8290TIP3    H224814   5.070   2.056   2.423
 8291TIP3   OH224815   0.188   6.990   5.675
 8291TIP3    H124816   0.096   6.969   5.660
 8291TIP3    H224817   0.236   6.922   5.628
 8292TIP3   OH224818   4.995   1.995   1.515
 8292TIP3    H124819   5.066   2.017   1.454
 8292TIP3    H224820   4.915   2.009   1.465
 8293TIP3   OH224821   5.392   4.127   1.684
 8293TIP3    H124822   5.319   4.091   1.735
 8293TIP3    H224823   5.361   4.213   1.655
 8294TIP3   OH224824   1.697   2.419   2.310
 8294TIP3    H124825   1.703   2.499   2.258
 8294TIP3    H224826   1.603   2.401   2.315
 8295TIP3   OH224827   7.207   2.146   3.110
 8295TIP3    H124828   7.285   2.202   3.106
 8295TIP3    H224829   7.170   2.151   3.022
 8296TIP3   OH224830   6.206   5.679   0.490
 8296TIP3    H124831   6.141   5.617   0.525
 8296TIP3    H224832   6.258   5.628   0.429
 8297TIP3   OH224833   2.718   1.966   4.594
 8297TIP3    H124834   2.637   2.017   4.594
 8297TIP3    H224835   2.767   1.998   4.517
 8298TIP3   OH224836   4.661   5.727   2.103
 8298TIP3    H124837   4.667   5.822   2.102
 8298TIP3    H224838   4.577   5.707   2.061
 8299TIP3   OH224839   6.552   4.666   6.594
 8299TIP3    H124840   6.460   4.664   6.618
 8299TIP3    H224841   6.597   4.702   6.670
 8300TIP3   OH224842   4.478   0.129   3.688
 8300TIP3    H124843   4.385   0.148   3.671
 8300TIP3    H224844   4.525   0.178   3.621
 8301TIP3   OH224845   4.009   3.654   5.521
 8301TIP3    H124846   3.920   3.670   5.554
 8301TIP3    H224847   4.049   3.740   5.517
 8302TIP3   OH224848   7.431   7.069   0.078
 8302TIP3    H124849   7.343   7.058   0.043
 8302TIP3    H224850   7.489   7.057   0.003
 8303TIP3   OH224851   1.203   4.140   0.321
 8303TIP3    H124852   1.280   4.129   0.375
 8303TIP3    H224853   1.204   4.065   0.261
 8304TIP3   OH224854   4.987   5.801   1.600
 8304TIP3    H124855   5.052   5.848   1.548
 8304TIP3    H224856   4.911   5.791   1.542
 8305TIP3   OH224857   3.974   7.641   2.792
 8305TIP3    H124858   3.971   7.686   2.707
 8305TIP3    H224859   3.910   7.570   2.784
 8306TIP3   OH224860   7.655   6.393   5.638
 8306TIP3    H124861   7.686   6.319   5.690
 8306TIP3    H224862   7.718   6.399   5.565
 8307TIP3   OH224863   0.480   4.992   3.310
 8307TIP3    H124864   0.515   4.903   3.317
 8307TIP3    H224865   0.558   5.047   3.306
 8308TIP3   OH224866   1.227   6.508   6.440
 8308TIP3    H124867   1.300   6.466   6.485
 8308TIP3    H224868   1.149   6.482   6.490
 8309TIP3   OH224869   5.557   3.592   2.003
 8309TIP3    H124870   5.617   3.589   1.929
 8309TIP3    H224871   5.485   3.535   1.978
 8310TIP3   OH224872   2.443   3.334   1.716
 8310TIP3    H124873   2.464   3.264   1.655
 8310TIP3    H224874   2.353   3.317   1.742
 8311TIP3   OH224875   2.139   3.076   6.550
 8311TIP3    H124876   2.178   3.036   6.472
 8311TIP3    H224877   2.143   3.007   6.617
 8312TIP3   OH224878   5.151   0.091   3.319
 8312TIP3    H124879   5.072   0.037   3.326
 8312TIP3    H224880   5.203   0.049   3.251
 8313TIP3   OH224881   6.412   0.256   4.442
 8313TIP3    H124882   6.330   0.214   4.467
 8313TIP3    H224883   6.477   0.186   4.442
 8314TIP3   OH224884   3.149   7.569   3.337
 8314TIP3    H124885   3.165   7.659   3.366
 8314TIP3    H224886   3.224   7.520   3.371
 8315TIP3   OH224887   1.432   1.612   4.027
 8315TIP3    H124888   1.391   1.619   4.113
 8315TIP3    H224889   1.434   1.702   3.994
 8316TIP3   OH224890   3.581   3.160   6.700
 8316TIP3    H124891   3.636   3.097   6.655
 8316TIP3    H224892   3.621   3.170   6.787
 8317TIP3   OH224893   1.821   1.850   3.219
 8317TIP3    H124894   1.881   1.785   3.183
 8317TIP3    H224895   1.737   1.832   3.175
 8318TIP3   OH224896   3.745   3.157   1.405
 8318TIP3    H124897   3.822   3.100   1.394
 8318TIP3    H224898   3.685   3.130   1.336
 8319TIP3   OH224899   3.172   1.946   5.911
 8319TIP3    H124900   3.110   2.012   5.942
 8319TIP3    H224901   3.255   1.969   5.953
 8320TIP3   OH224902   3.034   1.195   1.287
 8320TIP3    H124903   3.073   1.206   1.201
 8320TIP3    H224904   2.992   1.109   1.284
 8321TIP3   OH224905   4.963   2.096   5.210
 8321TIP3    H124906   4.903   2.140   5.271
 8321TIP3    H224907   5.021   2.166   5.180
 8322TIP3   OH224908   5.391   2.691   3.322
 8322TIP3    H124909   5.298   2.696   3.301
 8322TIP3    H224910   5.413   2.778   3.356
 8323TIP3   OH224911   7.889   1.854   2.324
 8323TIP3    H124912   7.836   1.887   2.252
 8323TIP3    H224913   7.904   1.930   2.381
 8324TIP3   OH224914   4.923   4.298   0.921
 8324TIP3    H124915   4.943   4.205   0.920
 8324TIP3    H224916   4.846   4.307   0.864
 8325TIP3   OH224917   6.807   4.408   1.842
 8325TIP3    H124918   6.838   4.469   1.775
 8325TIP3    H224919   6.712   4.403   1.828
 8326TIP3   OH224920   5.369   0.764   5.452
 8326TIP3    H124921   5.399   0.824   5.384
 8326TIP3    H224922   5.449   0.730   5.492
 8327TIP3   OH224923   2.682   4.133   3.210
 8327TIP3    H124924   2.657   4.042   3.227
 8327TIP3    H224925   2.642   4.152   3.125
 8328TIP3   OH224926   4.157   3.520   2.954
 8328TIP3    H124927   4.219   3.447   2.942
 8328TIP3    H224928   4.071   3.480   2.943
 8329TIP3   OH224929   5.457   2.680   1.726
 8329TIP3    H124930   5.419   2.599   1.760
 8329TIP3    H224931   5.424   2.749   1.784
 8330TIP3   OH224932   1.391   6.493   5.289
 8330TIP3    H124933   1.395   6.588   5.292
 8330TIP3    H224934   1.298   6.472   5.302
 8331TIP3   OH224935   4.029   3.603   0.693
 8331TIP3    H124936   4.075   3.620   0.776
 8331TIP3    H224937   4.056   3.514   0.670
 8332TIP3   OH224938   0.496   0.684   3.341
 8332TIP3    H124939   0.459   0.708   3.256
 8332TIP3    H224940   0.549   0.607   3.323
 8333TIP3   OH224941   0.550   7.597   5.876
 8333TIP3    H124942   0.636   7.564   5.849
 8333TIP3    H224943   0.488   7.537   5.834
 8334TIP3   OH224944   2.951   4.637   2.937
 8334TIP3    H124945   3.046   4.642   2.929
 8334TIP3    H224946   2.923   4.590   2.859
 8335TIP3   OH224947   6.948   3.579   3.872
 8335TIP3    H124948   6.883   3.648   3.860
 8335TIP3    H224949   7.029   3.616   3.836
 8336TIP3   OH224950   2.914   7.725   0.311
 8336TIP3    H124951   2.883   7.760   0.228
 8336TIP3    H224952   2.998   7.768   0.325
 8337TIP3   OH224953   6.968   0.773   3.923
 8337TIP3    H124954   6.874   0.759   3.922
 8337TIP3    H224955   6.998   0.744   3.837
 8338TIP3   OH224956   2.913   4.166   2.502
 8338TIP3    H124957   2.971   4.227   2.547
 8338TIP3    H224958   2.828   4.179   2.543
 8339TIP3   OH224959   5.739   3.603   0.522
 8339TIP3    H124960   5.758   3.574   0.611
 8339TIP3    H224961   5.820   3.587   0.473
 8340TIP3   OH224962   6.030   0.864   3.994
 8340TIP3    H124963   5.973   0.873   3.918
 8340TIP3    H224964   5.981   0.904   4.066
 8341TIP3   OH224965   2.989   2.842   2.238
 8341TIP3    H124966   2.995   2.858   2.332
 8341TIP3    H224967   3.036   2.916   2.198
 8342TIP3   OH224968   3.859   6.684   5.023
 8342TIP3    H124969   3.816   6.767   5.042
 8342TIP3    H224970   3.847   6.671   4.929
 8343TIP3   OH224971   0.596   6.402   3.643
 8343TIP3    H124972   0.511   6.364   3.619
 8343TIP3    H224973   0.616   6.363   3.729
 8344TIP3   OH224974   4.069   7.398   0.680
 8344TIP3    H124975   4.118   7.380   0.760
 8344TIP3    H224976   4.018   7.476   0.701
 8345TIP3   OH224977   4.028   6.803   1.940
 8345TIP3    H124978   3.994   6.883   1.980
 8345TIP3    H224979   4.091   6.769   2.004
 8346TIP3   OH224980   7.735   5.374   2.083
 8346TIP3    H124981   7.710   5.410   2.168
 8346TIP3    H224982   7.701   5.285   2.085
 8347TIP3   OH224983   2.909   5.179   2.676
 8347TIP3    H124984   2.955   5.136   2.748
 8347TIP3    H224985   2.875   5.261   2.714
 8348TIP3   OH224986   4.307   2.217   3.693
 8348TIP3    H124987   4.254   2.247   3.619
 8348TIP3    H224988   4.398   2.230   3.665
 8349TIP3   OH224989   7.623   3.155   3.659
 8349TIP3    H124990   7.642   3.170   3.567
 8349TIP3    H224991   7.618   3.243   3.697
 8350TIP3   OH224992   1.370   4.928   0.810
 8350TIP3    H124993   1.376   4.835   0.787
 8350TIP3    H224994   1.430   4.938   0.884
 8351TIP3   OH224995   0.320   7.345   0.903
 8351TIP3    H124996   0.237   7.371   0.943
 8351TIP3    H224997   0.380   7.334   0.977
 8352TIP3   OH224998   5.785   3.553   5.721
 8352TIP3    H124999   5.721   3.594   5.779
 8352TIP3    H225000   5.733   3.512   5.652
 8353TIP3   OH225001   7.459   5.181   2.943
 8353TIP3    H125002   7.454   5.236   2.866
 8353TIP3    H225003   7.373   5.140   2.950
 8354TIP3   OH225004   6.366   0.822   6.618
 8354TIP3    H125005   6.350   0.838   6.711
 8354TIP3    H225006   6.300   0.875   6.573
 8355TIP3   OH225007   4.906   6.267   6.443
 8355TIP3    H125008   4.945   6.207   6.380
 8355TIP3    H225009   4.852   6.325   6.390
 8356TIP3   OH225010   1.075   5.493   3.248
 8356TIP3    H125011   1.005   5.556   3.266
 8356TIP3    H225012   1.103   5.462   3.334
 8357TIP3   OH225013   1.376   4.081   4.699
 8357TIP3    H125014   1.399   4.095   4.607
 8357TIP3    H225015   1.284   4.053   4.696
 8358TIP3   OH225016   2.730   6.354   4.369
 8358TIP3    H125017   2.702   6.428   4.315
 8358TIP3    H225018   2.791   6.305   4.313
 8359TIP3   OH225019   7.330   2.903   6.306
 8359TIP3    H125020   7.330   2.811   6.333
 8359TIP3    H225021   7.307   2.951   6.386
 8360TIP3   OH225022   7.517   5.109   0.516
 8360TIP3    H125023   7.538   5.194   0.477
 8360TIP3    H225024   7.449   5.072   0.460
 8361TIP3   OH225025   6.498   5.983   5.231
 8361TIP3    H125026   6.504   5.919   5.160
 8361TIP3    H225027   6.544   5.942   5.305
 8362TIP3   OH225028   8.028   1.157   0.265
 8362TIP3    H125029   7.981   1.145   0.346
 8362TIP3    H225030   8.120   1.140   0.287
 8363TIP3   OH225031   0.693   6.364   0.051
 8363TIP3    H125032   0.747   6.375   0.129
 8363TIP3    H225033   0.729   6.286   0.008
 8364TIP3   OH225034   3.897   7.319   3.194
 8364TIP3    H125035   3.954   7.261   3.143
 8364TIP3    H225036   3.809   7.284   3.181
 8365TIP3   OH225037   6.578   4.257   4.470
 8365TIP3    H125038   6.617   4.338   4.438
 8365TIP3    H225039   6.635   4.229   4.542
 8366TIP3   OH225040   1.492   6.068   6.577
 8366TIP3    H125041   1.526   6.015   6.649
 8366TIP3    H225042   1.546   6.043   6.502
 8367TIP3   OH225043   4.797   6.664   3.153
 8367TIP3    H125044   4.798   6.588   3.094
 8367TIP3    H225045   4.873   6.716   3.125
 8368TIP3   OH225046   7.558   6.426   2.084
 8368TIP3    H125047   7.630   6.378   2.124
 8368TIP3    H225048   7.487   6.421   2.149
 8369TIP3   OH225049   7.513   3.717   0.155
 8369TIP3    H125050   7.488   3.662   0.081
 8369TIP3    H225051   7.586   3.770   0.123
 8370TIP3   OH225052   8.234   3.413   4.326
 8370TIP3    H125053   8.248   3.498   4.284
 8370TIP3    H225054   8.189   3.435   4.408
 8371TIP3   OH225055   5.893   5.011   0.607
 8371TIP3    H125056   5.853   5.089   0.647
 8371TIP3    H225057   5.819   4.953   0.588
 8372TIP3   OH225058   6.730   2.491   3.848
 8372TIP3    H125059   6.793   2.427   3.814
 8372TIP3    H225060   6.653   2.440   3.870
 8373TIP3   OH225061   1.683   7.250   6.459
 8373TIP3    H125062   1.689   7.342   6.432
 8373TIP3    H225063   1.769   7.214   6.438
 8374TIP3   OH225064   4.554   7.037   4.085
 8374TIP3    H125065   4.618   6.996   4.144
 8374TIP3    H225066   4.562   7.131   4.103
 8375TIP3   OH225067   6.230   3.406   1.733
 8375TIP3    H125068   6.196   3.391   1.644
 8375TIP3    H225069   6.325   3.406   1.722
 8376TIP3   OH225070   6.210   6.961   3.793
 8376TIP3    H125071   6.198   7.028   3.725
 8376TIP3    H225072   6.199   6.878   3.747
 8377TIP3   OH225073   2.230   5.706   3.496
 8377TIP3    H125074   2.180   5.702   3.578
 8377TIP3    H225075   2.306   5.650   3.512
 8378TIP3   OH225076   1.435   0.309   3.007
 8378TIP3    H125077   1.416   0.247   2.936
 8378TIP3    H225078   1.483   0.258   3.072
 8379TIP3   OH225079   4.109   5.194   0.773
 8379TIP3    H125080   4.098   5.250   0.850
 8379TIP3    H225081   4.026   5.202   0.726
 8380TIP3   OH225082   4.772   1.809   2.104
 8380TIP3    H125083   4.768   1.904   2.105
 8380TIP3    H225084   4.812   1.785   2.188
 8381TIP3   OH225085   1.616   6.888   5.309
 8381TIP3    H125086   1.537   6.894   5.255
 8381TIP3    H225087   1.588   6.841   5.387
 8382TIP3   OH225088   6.801   0.592   3.440
 8382TIP3    H125089   6.729   0.560   3.386
 8382TIP3    H225090   6.792   0.688   3.438
 8383TIP3   OH225091   1.447   0.802   4.266
 8383TIP3    H125092   1.434   0.707   4.256
 8383TIP3    H225093   1.474   0.831   4.179
 8384TIP3   OH225094   2.528   6.880   4.802
 8384TIP3    H125095   2.511   6.792   4.837
 8384TIP3    H225096   2.622   6.893   4.817
 8385TIP3   OH225097   2.358   3.132   1.369
 8385TIP3    H125098   2.308   3.213   1.355
 8385TIP3    H225099   2.440   3.162   1.409
 8386TIP3   OH225100   4.803   4.101   5.596
 8386TIP3    H125101   4.784   4.111   5.502
 8386TIP3    H225102   4.895   4.078   5.600
 8387TIP3   OH225103   3.351   1.299   2.249
 8387TIP3    H125104   3.380   1.210   2.265
 8387TIP3    H225105   3.412   1.354   2.298
 8388TIP3   OH225106   1.252   1.532   3.855
 8388TIP3    H125107   1.335   1.508   3.897
 8388TIP3    H225108   1.271   1.614   3.810
 8389TIP3   OH225109   1.980   4.039   5.190
 8389TIP3    H125110   2.069   4.056   5.158
 8389TIP3    H225111   1.925   4.040   5.111
 8390TIP3   OH225112   3.508   3.369   5.094
 8390TIP3    H125113   3.575   3.394   5.032
 8390TIP3    H225114   3.431   3.420   5.070
 8391TIP3   OH225115   6.544   7.625   4.000
 8391TIP3    H125116   6.618   7.601   4.055
 8391TIP3    H225117   6.519   7.544   3.955
 8392TIP3   OH225118   1.916   2.488   3.752
 8392TIP3    H125119   1.940   2.498   3.660
 8392TIP3    H225120   1.825   2.459   3.750
 8393TIP3   OH225121   0.446   1.625   2.359
 8393TIP3    H125122   0.494   1.665   2.431
 8393TIP3    H225123   0.476   1.671   2.281
 8394TIP3   OH225124   1.707   1.896   1.837
 8394TIP3    H125125   1.714   1.900   1.741
 8394TIP3    H225126   1.613   1.896   1.854
 8395TIP3   OH225127   3.616   0.384   6.096
 8395TIP3    H125128   3.588   0.372   6.187
 8395TIP3    H225129   3.686   0.319   6.084
 8396TIP3   OH225130   6.241   2.254   3.915
 8396TIP3    H125131   6.161   2.265   3.966
 8396TIP3    H225132   6.310   2.291   3.971
 8397TIP3   OH225133   0.832   3.788   6.728
 8397TIP3    H125134   0.827   3.786   6.824
 8397TIP3    H225135   0.740   3.789   6.699
 8398TIP3   OH225136   5.649   1.565   4.578
 8398TIP3    H125137   5.629   1.472   4.567
 8398TIP3    H225138   5.733   1.577   4.533
 8399TIP3   OH225139   7.198   3.977   5.246
 8399TIP3    H125140   7.209   4.069   5.273
 8399TIP3    H225141   7.283   3.937   5.264
 8400TIP3   OH225142   8.079   7.158   1.580
 8400TIP3    H125143   8.091   7.246   1.617
 8400TIP3    H225144   8.023   7.171   1.504
 8401TIP3   OH225145   2.367   1.829   5.959
 8401TIP3    H125146   2.462   1.834   5.965
 8401TIP3    H225147   2.337   1.915   5.990
 8402TIP3   OH225148   7.003   1.863   0.795
 8402TIP3    H125149   7.006   1.947   0.749
 8402TIP3    H225150   6.970   1.802   0.729
 8403TIP3   OH225151   1.001   4.893   0.099
 8403TIP3    H125152   0.997   4.798   0.100
 8403TIP3    H225153   0.983   4.919   0.190
 8404TIP3   OH225154   5.596   0.448   1.370
 8404TIP3    H125155   5.575   0.355   1.361
 8404TIP3    H225156   5.569   0.487   1.287
 8405TIP3   OH225157   1.317   0.865   0.040
 8405TIP3    H125158   1.222   0.873   0.051
 8405TIP3    H225159   1.331   0.771   0.026
 8406TIP3   OH225160   4.291   6.646   1.500
 8406TIP3    H125161   4.378   6.678   1.478
 8406TIP3    H225162   4.298   6.617   1.591
 8407TIP3   OH225163   8.219   5.301   1.958
 8407TIP3    H125164   8.219   5.221   1.905
 8407TIP3    H225165   8.214   5.270   2.048
 8408TIP3   OH225166   3.994   6.354   6.104
 8408TIP3    H125167   3.910   6.398   6.091
 8408TIP3    H225168   4.049   6.420   6.146
 8409TIP3   OH225169   0.475   6.302   0.790
 8409TIP3    H125170   0.456   6.261   0.874
 8409TIP3    H225171   0.522   6.234   0.740
 8410TIP3   OH225172   3.349   1.715   5.910
 8410TIP3    H125173   3.376   1.758   5.829
 8410TIP3    H225174   3.272   1.765   5.938
 8411TIP3   OH225175   6.194   0.017   6.257
 8411TIP3    H125176   6.144  -0.028   6.326
 8411TIP3    H225177   6.215   0.102   6.294
 8412TIP3   OH225178   7.130   4.701   4.932
 8412TIP3    H125179   7.073   4.765   4.974
 8412TIP3    H225180   7.082   4.619   4.935
 8413TIP3   OH225181   7.130   1.880   1.027
 8413TIP3    H125182   7.076   1.868   0.949
 8413TIP3    H225183   7.102   1.964   1.063
 8414TIP3   OH225184   2.597   1.003   3.139
 8414TIP3    H125185   2.565   0.986   3.050
 8414TIP3    H225186   2.517   1.014   3.191
 8415TIP3   OH225187   3.153   2.099   2.522
 8415TIP3    H125188   3.236   2.065   2.555
 8415TIP3    H225189   3.138   2.179   2.574
 8416TIP3   OH225190   0.143   1.212   2.497
 8416TIP3    H125191   0.219   1.267   2.478
 8416TIP3    H225192   0.125   1.167   2.414
 8417TIP3   OH225193   1.700   4.413   3.058
 8417TIP3    H125194   1.767   4.426   2.990
 8417TIP3    H225195   1.695   4.318   3.070
 8418TIP3   OH225196   8.238   5.470   4.427
 8418TIP3    H125197   8.223   5.410   4.500
 8418TIP3    H225198   8.169   5.535   4.435
 8419TIP3   OH225199   3.973   7.607   3.415
 8419TIP3    H125200   3.999   7.533   3.360
 8419TIP3    H225201   3.946   7.675   3.353
 8420TIP3   OH225202   6.624   5.869   2.743
 8420TIP3    H125203   6.651   5.795   2.688
 8420TIP3    H225204   6.556   5.833   2.800
 8421TIP3   OH225205   5.585   6.193   3.966
 8421TIP3    H125206   5.570   6.217   4.057
 8421TIP3    H225207   5.511   6.231   3.919
 8422TIP3   OH225208   5.047   5.152   4.801
 8422TIP3    H125209   5.061   5.072   4.851
 8422TIP3    H225210   5.072   5.222   4.861
 8423TIP3   OH225211   2.697   0.764   2.768
 8423TIP3    H125212   2.660   0.676   2.762
 8423TIP3    H225213   2.639   0.811   2.827
 8424TIP3   OH225214   6.516   1.972   1.933
 8424TIP3    H125215   6.547   1.885   1.957
 8424TIP3    H225216   6.492   1.965   1.841
 8425TIP3   OH225217   2.665   7.722   4.606
 8425TIP3    H125218   2.708   7.645   4.644
 8425TIP3    H225219   2.657   7.783   4.679
 8426TIP3   OH225220   8.224   2.015   0.330
 8426TIP3    H125221   8.161   2.078   0.296
 8426TIP3    H225222   8.308   2.043   0.292
 8427TIP3   OH225223   0.502   1.155   6.495
 8427TIP3    H125224   0.515   1.125   6.406
 8427TIP3    H225225   0.530   1.247   6.494
 8428TIP3   OH225226   6.875   6.447   0.790
 8428TIP3    H125227   6.969   6.457   0.807
 8428TIP3    H225228   6.839   6.417   0.873
 8429TIP3   OH225229   3.505   0.470   1.676
 8429TIP3    H125230   3.448   0.397   1.699
 8429TIP3    H225231   3.495   0.533   1.747
 8430TIP3   OH225232   0.233   5.507   0.870
 8430TIP3    H125233   0.311   5.456   0.891
 8430TIP3    H225234   0.161   5.459   0.912
 8431TIP3   OH225235   3.741   6.729   4.334
 8431TIP3    H125236   3.664   6.786   4.334
 8431TIP3    H225237   3.810   6.782   4.293
 8432TIP3   OH225238   7.015   5.000   4.747
 8432TIP3    H125239   7.001   4.913   4.711
 8432TIP3    H225240   6.953   5.055   4.700
 8433TIP3   OH225241   8.265   4.849   5.596
 8433TIP3    H125242   8.198   4.858   5.529
 8433TIP3    H225243   8.346   4.834   5.547
 8434TIP3   OH225244   5.279   1.832   1.363
 8434TIP3    H125245   5.236   1.759   1.318
 8434TIP3    H225246   5.240   1.910   1.325
 8435TIP3   OH225247   3.381   6.323   3.046
 8435TIP3    H125248   3.355   6.394   3.104
 8435TIP3    H225249   3.388   6.247   3.104
 8436TIP3   OH225250   5.796   5.237   3.132
 8436TIP3    H125251   5.838   5.173   3.074
 8436TIP3    H225252   5.869   5.279   3.178
 8437TIP3   OH225253   3.186   5.410   3.459
 8437TIP3    H125254   3.274   5.376   3.477
 8437TIP3    H225255   3.175   5.401   3.365
 8438TIP3   OH225256   0.180   5.396   4.209
 8438TIP3    H125257   0.153   5.485   4.232
 8438TIP3    H225258   0.114   5.340   4.248
 8439TIP3   OH225259   7.673   7.355   6.414
 8439TIP3    H125260   7.681   7.261   6.404
 8439TIP3    H225261   7.636   7.367   6.502
 8440TIP3   OH225262   6.319   3.418   1.210
 8440TIP3    H125263   6.354   3.398   1.124
 8440TIP3    H225264   6.353   3.505   1.230
 8441TIP3   OH225265   2.918   7.365   2.838
 8441TIP3    H125266   2.988   7.430   2.843
 8441TIP3    H225267   2.839   7.411   2.865
 8442TIP3   OH225268   0.699   4.325   1.999
 8442TIP3    H125269   0.663   4.369   1.922
 8442TIP3    H225270   0.740   4.394   2.050
 8443TIP3   OH225271   8.001   4.110   0.338
 8443TIP3    H125272   8.016   4.016   0.351
 8443TIP3    H225273   8.006   4.122   0.244
 8444TIP3   OH225274   3.959   2.720   1.576
 8444TIP3    H125275   4.037   2.679   1.537
 8444TIP3    H225276   3.952   2.805   1.532
 8445TIP3   OH225277   6.994   6.770   0.783
 8445TIP3    H125278   7.025   6.853   0.748
 8445TIP3    H225279   7.037   6.704   0.729
 8446TIP3   OH225280   7.633   3.612   2.013
 8446TIP3    H125281   7.721   3.601   1.977
 8446TIP3    H225282   7.600   3.523   2.022
 8447TIP3   OH225283   0.331   1.857   4.525
 8447TIP3    H125284   0.353   1.825   4.437
 8447TIP3    H225285   0.250   1.812   4.547
 8448TIP3   OH225286   3.550   5.399   6.360
 8448TIP3    H125287   3.513   5.431   6.278
 8448TIP3    H225288   3.638   5.436   6.363
 8449TIP3   OH225289   2.018   6.385   3.027
 8449TIP3    H125290   2.077   6.343   3.089
 8449TIP3    H225291   1.937   6.399   3.076
 8450TIP3   OH225292   0.584   3.386   3.726
 8450TIP3    H125293   0.501   3.434   3.725
 8450TIP3    H225294   0.572   3.319   3.793
 8451TIP3   OH225295   1.506   2.302   0.249
 8451TIP3    H125296   1.450   2.262   0.182
 8451TIP3    H225297   1.591   2.311   0.205
 8452TIP3   OH225298   4.161   1.560   6.472
 8452TIP3    H125299   4.252   1.589   6.465
 8452TIP3    H225300   4.120   1.588   6.390
 8453TIP3   OH225301   1.234   4.996   1.346
 8453TIP3    H125302   1.152   5.039   1.321
 8453TIP3    H225303   1.210   4.904   1.359
 8454TIP3   OH225304   1.712   1.099   5.610
 8454TIP3    H125305   1.795   1.144   5.625
 8454TIP3    H225306   1.645   1.166   5.625
 8455TIP3   OH225307   5.557   4.296   6.672
 8455TIP3    H125308   5.637   4.284   6.621
 8455TIP3    H225309   5.542   4.390   6.672
 8456TIP3   OH225310   0.164   3.406   1.826
 8456TIP3    H125311   0.147   3.357   1.746
 8456TIP3    H225312   0.077   3.426   1.861
 8457TIP3   OH225313   3.580   6.839   4.969
 8457TIP3    H125314   3.494   6.881   4.969
 8457TIP3    H225315   3.623   6.871   5.048
 8458TIP3   OH225316   1.440   4.566   3.578
 8458TIP3    H125317   1.478   4.616   3.650
 8458TIP3    H225318   1.453   4.621   3.500
 8459TIP3   OH225319   1.531   0.953   4.750
 8459TIP3    H125320   1.539   1.045   4.776
 8459TIP3    H225321   1.534   0.954   4.655
 8460TIP3   OH225322   5.875   0.451   5.179
 8460TIP3    H125323   5.898   0.394   5.252
 8460TIP3    H225324   5.901   0.539   5.208
 8461TIP3   OH225325   5.696   7.390   2.969
 8461TIP3    H125326   5.731   7.359   3.053
 8461TIP3    H225327   5.602   7.373   2.974
 8462TIP3   OH225328   4.333   3.803   2.560
 8462TIP3    H125329   4.408   3.752   2.590
 8462TIP3    H225330   4.260   3.773   2.614
 8463TIP3   OH225331   0.247   2.244   0.584
 8463TIP3    H125332   0.161   2.203   0.595
 8463TIP3    H225333   0.291   2.189   0.519
 8464TIP3   OH225334   6.241   0.942   6.397
 8464TIP3    H125335   6.167   0.883   6.381
 8464TIP3    H225336   6.267   0.972   6.310
 8465TIP3   OH225337   3.015   2.512   4.845
 8465TIP3    H125338   3.041   2.493   4.935
 8465TIP3    H225339   3.097   2.515   4.796
 8466TIP3   OH225340   6.405   6.175   2.823
 8466TIP3    H125341   6.346   6.186   2.748
 8466TIP3    H225342   6.363   6.224   2.894
 8467TIP3   OH225343   5.232   1.823   2.311
 8467TIP3    H125344   5.205   1.906   2.351
 8467TIP3    H225345   5.322   1.838   2.283
 8468TIP3   OH225346   1.692   4.667   4.294
 8468TIP3    H125347   1.713   4.735   4.230
 8468TIP3    H225348   1.744   4.592   4.268
 8469TIP3   OH225349   3.023   0.442   5.390
 8469TIP3    H125350   2.940   0.409   5.356
 8469TIP3    H225351   3.065   0.365   5.429
 8470TIP3   OH225352   3.537   5.121   1.288
 8470TIP3    H125353   3.489   5.194   1.328
 8470TIP3    H225354   3.542   5.143   1.195
 8471TIP3   OH225355   0.460   5.799   3.438
 8471TIP3    H125356   0.373   5.836   3.455
 8471TIP3    H225357   0.443   5.715   3.397
 8472TIP3   OH225358   7.362   0.961   0.461
 8472TIP3    H125359   7.426   0.966   0.532
 8472TIP3    H225360   7.351   1.052   0.433
 8473TIP3   OH225361   7.559   4.664   1.615
 8473TIP3    H125362   7.645   4.656   1.576
 8473TIP3    H225363   7.563   4.745   1.666
 8474TIP3   OH225364   3.760   5.868   0.506
 8474TIP3    H125365   3.704   5.940   0.534
 8474TIP3    H225366   3.834   5.912   0.464
 8475TIP3   OH225367   7.745   0.640   3.095
 8475TIP3    H125368   7.690   0.564   3.075
 8475TIP3    H225369   7.814   0.638   3.028
 8476TIP3   OH225370   0.127   1.180   5.432
 8476TIP3    H125371   0.082   1.249   5.480
 8476TIP3    H225372   0.138   1.214   5.344
 8477TIP3   OH225373   0.930   4.502   0.415
 8477TIP3    H125374   0.927   4.459   0.329
 8477TIP3    H225375   0.877   4.447   0.472
 8478TIP3   OH225376   6.418   2.093   6.390
 8478TIP3    H125377   6.387   2.127   6.306
 8478TIP3    H225378   6.513   2.083   6.378
 8479TIP3   OH225379   6.763   6.663   5.847
 8479TIP3    H125380   6.806   6.744   5.876
 8479TIP3    H225381   6.830   6.619   5.794
 8480TIP3   OH225382   0.746   6.365   5.690
 8480TIP3    H125383   0.830   6.323   5.675
 8480TIP3    H225384   0.681   6.301   5.662
 8481TIP3   OH225385   8.114   6.428   2.714
 8481TIP3    H125386   8.049   6.366   2.747
 8481TIP3    H225387   8.192   6.412   2.767
 8482TIP3   OH225388   6.028   1.660   2.531
 8482TIP3    H125389   5.995   1.583   2.577
 8482TIP3    H225390   6.045   1.629   2.441
 8483TIP3   OH225391   1.887   6.869   5.359
 8483TIP3    H125392   1.794   6.888   5.352
 8483TIP3    H225393   1.926   6.910   5.281
 8484TIP3   OH225394   2.929   6.054   4.134
 8484TIP3    H125395   2.919   6.146   4.110
 8484TIP3    H225396   2.955   6.056   4.226
 8485TIP3   OH225397   4.231   3.980   3.019
 8485TIP3    H125398   4.287   4.017   2.951
 8485TIP3    H225399   4.189   3.905   2.977
 8486TIP3   OH225400   5.918   0.993   2.809
 8486TIP3    H125401   5.898   0.940   2.732
 8486TIP3    H225402   5.968   0.934   2.866
 8487TIP3   OH225403   8.249   2.926   6.671
 8487TIP3    H125404   8.251   2.967   6.585
 8487TIP3    H225405   8.313   2.974   6.723
 8488TIP3   OH225406   3.373   5.381   6.147
 8488TIP3    H125407   3.298   5.355   6.201
 8488TIP3    H225408   3.339   5.453   6.093
 8489TIP3   OH225409   6.610   1.927   2.430
 8489TIP3    H125410   6.577   1.870   2.499
 8489TIP3    H225411   6.589   1.881   2.349
 8490TIP3   OH225412   6.235   6.719   3.673
 8490TIP3    H125413   6.234   6.625   3.686
 8490TIP3    H225414   6.288   6.732   3.594
 8491TIP3   OH225415   4.080   6.029   0.554
 8491TIP3    H125416   4.007   6.046   0.494
 8491TIP3    H225417   4.158   6.037   0.499
 8492TIP3   OH225418   0.206   4.488   6.633
 8492TIP3    H125419   0.258   4.416   6.596
 8492TIP3    H225420   0.271   4.548   6.670
 8493TIP3   OH225421   6.260   1.761   4.329
 8493TIP3    H125422   6.270   1.776   4.235
 8493TIP3    H225423   6.166   1.747   4.341
 8494TIP3   OH225424   2.064   5.267   2.207
 8494TIP3    H125425   2.139   5.220   2.172
 8494TIP3    H225426   2.037   5.216   2.284
 8495TIP3   OH225427   1.087   4.352   5.629
 8495TIP3    H125428   1.158   4.288   5.631
 8495TIP3    H225429   1.092   4.391   5.542
 8496TIP3   OH225430   4.662   4.756   1.110
 8496TIP3    H125431   4.658   4.817   1.183
 8496TIP3    H225432   4.703   4.805   1.040
 8497TIP3   OH225433   6.210   1.713   3.491
 8497TIP3    H125434   6.151   1.645   3.459
 8497TIP3    H225435   6.243   1.755   3.411
 8498TIP3   OH225436   2.642   2.912   2.496
 8498TIP3    H125437   2.673   2.822   2.485
 8498TIP3    H225438   2.721   2.962   2.515
 8499TIP3   OH225439   3.768   5.785   2.384
 8499TIP3    H125440   3.773   5.722   2.312
 8499TIP3    H225441   3.853   5.780   2.427
 8500TIP3   OH225442   5.232   6.381   2.333
 8500TIP3    H125443   5.160   6.416   2.386
 8500TIP3    H225444   5.190   6.351   2.253
 8501TIP3   OH225445   5.421   3.209   6.188
 8501TIP3    H125446   5.426   3.251   6.102
 8501TIP3    H225447   5.368   3.268   6.241
 8502TIP3   OH225448   3.327   5.071   1.581
 8502TIP3    H125449   3.415   5.091   1.615
 8502TIP3    H225450   3.268   5.116   1.641
 8503TIP3   OH225451   7.499   5.734   4.832
 8503TIP3    H125452   7.535   5.679   4.901
 8503TIP3    H225453   7.576   5.775   4.792
 8504TIP3   OH225454   8.052   3.959   2.170
 8504TIP3    H125455   8.129   4.002   2.130
 8504TIP3    H225456   8.042   3.878   2.120
 8505TIP3   OH225457   7.305   6.286   1.318
 8505TIP3    H125458   7.231   6.231   1.342
 8505TIP3    H225459   7.328   6.257   1.229
 8506TIP3   OH225460   4.754   0.398   1.054
 8506TIP3    H125461   4.702   0.318   1.049
 8506TIP3    H225462   4.835   0.378   1.006
 8507TIP3   OH225463   1.058   1.139   3.508
 8507TIP3    H125464   1.092   1.095   3.586
 8507TIP3    H225465   1.136   1.156   3.455
 8508TIP3   OH225466   5.152   4.751   2.675
 8508TIP3    H125467   5.236   4.735   2.719
 8508TIP3    H225468   5.145   4.680   2.611
 8509TIP3   OH225469   0.852   1.765   3.082
 8509TIP3    H125470   0.850   1.775   3.178
 8509TIP3    H225471   0.928   1.816   3.055
 8510TIP3   OH225472   4.731   5.916   6.225
 8510TIP3    H125473   4.766   5.893   6.311
 8510TIP3    H225474   4.730   5.834   6.176
 8511TIP3   OH225475   6.769   2.061   5.864
 8511TIP3    H125476   6.724   2.071   5.780
 8511TIP3    H225477   6.800   2.149   5.886
 8512TIP3   OH225478   7.878   5.891   2.098
 8512TIP3    H125479   7.896   5.835   2.173
 8512TIP3    H225480   7.877   5.831   2.023
 8513TIP3   OH225481   0.522   5.588   5.505
 8513TIP3    H125482   0.587   5.547   5.448
 8513TIP3    H225483   0.513   5.677   5.471
 8514TIP3   OH225484   7.464   1.473   2.241
 8514TIP3    H125485   7.409   1.410   2.288
 8514TIP3    H225486   7.453   1.555   2.289
 8515TIP3   OH225487   8.100   5.433   0.791
 8515TIP3    H125488   8.077   5.420   0.883
 8515TIP3    H225489   8.073   5.352   0.748
 8516TIP3   OH225490   1.720   7.349   2.622
 8516TIP3    H125491   1.667   7.269   2.619
 8516TIP3    H225492   1.715   7.377   2.714
 8517TIP3   OH225493   0.061   3.880   5.654
 8517TIP3    H125494   0.156   3.885   5.648
 8517TIP3    H225495   0.032   3.972   5.655
 8518TIP3   OH225496   3.357   0.814   2.083
 8518TIP3    H125497   3.262   0.807   2.078
 8518TIP3    H225498   3.381   0.869   2.008
 8519TIP3   OH225499   2.004   2.569   4.283
 8519TIP3    H125500   2.055   2.504   4.331
 8519TIP3    H225501   2.034   2.561   4.192
 8520TIP3   OH225502   3.502   0.799   0.186
 8520TIP3    H125503   3.415   0.780   0.222
 8520TIP3    H225504   3.502   0.894   0.172
 8521TIP3   OH225505   0.616   0.463   1.408
 8521TIP3    H125506   0.587   0.518   1.335
 8521TIP3    H225507   0.709   0.481   1.416
 8522TIP3   OH225508   6.306   4.625   6.669
 8522TIP3    H125509   6.238   4.579   6.620
 8522TIP3    H225510   6.269   4.636   6.756
 8523TIP3   OH225511   7.034   3.622   6.211
 8523TIP3    H125512   7.006   3.627   6.302
 8523TIP3    H225513   6.995   3.699   6.169
 8524TIP3   OH225514   7.026   0.841   1.028
 8524TIP3    H125515   7.041   0.931   0.998
 8524TIP3    H225516   6.932   0.829   1.022
 8525TIP3   OH225517   5.738   4.745   4.937
 8525TIP3    H125518   5.671   4.757   4.870
 8525TIP3    H225519   5.714   4.807   5.006
 8526TIP3   OH225520   4.031   5.543   3.846
 8526TIP3    H125521   3.943   5.505   3.840
 8526TIP3    H225522   4.079   5.483   3.903
 8527TIP3   OH225523   4.080   2.489   4.666
 8527TIP3    H125524   4.137   2.413   4.678
 8527TIP3    H225525   4.087   2.538   4.748
 8528TIP3   OH225526   8.233   6.979   1.418
 8528TIP3    H125527   8.290   6.939   1.483
 8528TIP3    H225528   8.181   7.043   1.467
 8529TIP3   OH225529   6.501   0.899   1.437
 8529TIP3    H125530   6.520   0.810   1.466
 8529TIP3    H225531   6.573   0.952   1.472
 8530TIP3   OH225532   7.791   5.326   2.814
 8530TIP3    H125533   7.758   5.372   2.891
 8530TIP3    H225534   7.762   5.379   2.740
 8531TIP3   OH225535   2.676   2.322   4.994
 8531TIP3    H125536   2.661   2.294   5.085
 8531TIP3    H225537   2.634   2.408   4.988
 8532TIP3   OH225538   4.700   1.187   0.157
 8532TIP3    H125539   4.731   1.140   0.079
 8532TIP3    H225540   4.629   1.243   0.124
 8533TIP3   OH225541   6.399   1.491   3.029
 8533TIP3    H125542   6.430   1.437   2.956
 8533TIP3    H225543   6.357   1.566   2.987
 8534TIP3   OH225544   5.346   7.174   3.682
 8534TIP3    H125545   5.281   7.239   3.655
 8534TIP3    H225546   5.309   7.090   3.655
 8535TIP3   OH225547   1.404   2.427   4.613
 8535TIP3    H125548   1.401   2.523   4.607
 8535TIP3    H225549   1.337   2.405   4.678
 8536TIP3   OH225550   3.887   2.065   6.373
 8536TIP3    H125551   3.892   2.001   6.302
 8536TIP3    H225552   3.972   2.110   6.370
 8537TIP3   OH225553   2.509   6.103   4.953
 8537TIP3    H125554   2.468   6.026   4.993
 8537TIP3    H225555   2.456   6.122   4.876
 8538TIP3   OH225556   2.130   7.476   1.211
 8538TIP3    H125557   2.201   7.412   1.206
 8538TIP3    H225558   2.082   7.466   1.130
 8539TIP3   OH225559   5.897   2.411   2.171
 8539TIP3    H125560   5.904   2.334   2.114
 8539TIP3    H225561   5.962   2.397   2.239
 8540TIP3   OH225562   7.586   1.924   5.273
 8540TIP3    H125563   7.498   1.961   5.284
 8540TIP3    H225564   7.633   1.989   5.221
 8541TIP3   OH225565   1.299   2.464   6.113
 8541TIP3    H125566   1.219   2.483   6.162
 8541TIP3    H225567   1.369   2.495   6.170
 8542TIP3   OH225568   4.521   4.191   0.556
 8542TIP3    H125569   4.510   4.102   0.588
 8542TIP3    H225570   4.496   4.187   0.463
 8543TIP3   OH225571   8.010   3.641   5.700
 8543TIP3    H125572   8.023   3.734   5.685
 8543TIP3    H225573   7.967   3.636   5.786
 8544TIP3   OH225574   3.005   5.588   0.837
 8544TIP3    H125575   3.052   5.630   0.909
 8544TIP3    H225576   3.055   5.609   0.759
 8545TIP3   OH225577   2.236   4.022   4.864
 8545TIP3    H125578   2.245   3.938   4.819
 8545TIP3    H225579   2.144   4.024   4.892
 8546TIP3   OH225580   0.337   0.742   3.693
 8546TIP3    H125581   0.246   0.765   3.711
 8546TIP3    H225582   0.385   0.773   3.769
 8547TIP3   OH225583   2.416   6.799   6.258
 8547TIP3    H125584   2.331   6.755   6.263
 8547TIP3    H225585   2.402   6.882   6.303
 8548TIP3   OH225586   4.620   4.295   4.842
 8548TIP3    H125587   4.542   4.240   4.831
 8548TIP3    H225588   4.610   4.334   4.929
 8549TIP3   OH225589   1.369   7.720   0.592
 8549TIP3    H125590   1.426   7.782   0.547
 8549TIP3    H225591   1.330   7.668   0.522
 8550TIP3   OH225592   7.758   7.219   6.084
 8550TIP3    H125593   7.751   7.126   6.065
 8550TIP3    H225594   7.674   7.242   6.124
 8551TIP3   OH225595   1.651   4.101   3.766
 8551TIP3    H125596   1.730   4.120   3.716
 8551TIP3    H225597   1.676   4.028   3.823
 8552TIP3   OH225598   3.686   4.744   4.194
 8552TIP3    H125599   3.611   4.688   4.178
 8552TIP3    H225600   3.756   4.708   4.140
 8553TIP3   OH225601   1.673   5.624   1.568
 8553TIP3    H125602   1.618   5.605   1.644
 8553TIP3    H225603   1.688   5.539   1.527
 8554TIP3   OH225604   1.660   6.579   2.703
 8554TIP3    H125605   1.659   6.489   2.735
 8554TIP3    H225606   1.610   6.577   2.622
 8555TIP3   OH225607   2.159   6.494   4.750
 8555TIP3    H125608   2.082   6.443   4.774
 8555TIP3    H225609   2.220   6.481   4.822
 8556TIP3   OH225610   1.479   2.937   0.956
 8556TIP3    H125611   1.507   2.915   1.044
 8556TIP3    H225612   1.523   2.873   0.900
 8557TIP3   OH225613   3.555   5.676   2.038
 8557TIP3    H125614   3.532   5.766   2.064
 8557TIP3    H225615   3.601   5.687   1.954
 8558TIP3   OH225616   2.950   2.225   4.842
 8558TIP3    H125617   2.915   2.305   4.881
 8558TIP3    H225618   2.960   2.246   4.749
 8559TIP3   OH225619   0.276   4.151   0.402
 8559TIP3    H125620   0.355   4.198   0.375
 8559TIP3    H225621   0.211   4.220   0.416
 8560TIP3   OH225622   4.458   3.014   0.765
 8560TIP3    H125623   4.465   3.068   0.844
 8560TIP3    H225624   4.440   2.926   0.798
 8561TIP3   OH225625   3.585   1.756   0.096
 8561TIP3    H125626   3.515   1.708   0.141
 8561TIP3    H225627   3.644   1.784   0.166
 8562TIP3   OH225628   0.071   1.067   2.983
 8562TIP3    H125629   0.113   1.045   2.900
 8562TIP3    H225630   0.132   1.126   3.026
 8563TIP3   OH225631   7.410   3.203   4.333
 8563TIP3    H125632   7.461   3.234   4.258
 8563TIP3    H225633   7.332   3.165   4.294
 8564TIP3   OH225634   0.496   7.403   2.487
 8564TIP3    H125635   0.554   7.329   2.505
 8564TIP3    H225636   0.482   7.445   2.572
 8565TIP3   OH225637   1.710   2.303   0.040
 8565TIP3    H125638   1.693   2.284  -0.052
 8565TIP3    H225639   1.804   2.289   0.051
 8566TIP3   OH225640   1.368   4.100   4.412
 8566TIP3    H125641   1.361   4.054   4.329
 8566TIP3    H225642   1.284   4.144   4.422
 8567TIP3   OH225643   2.464   1.194   1.598
 8567TIP3    H125644   2.535   1.195   1.662
 8567TIP3    H225645   2.385   1.177   1.649
 8568TIP3   OH225646   7.771   0.857   0.691
 8568TIP3    H125647   7.813   0.773   0.673
 8568TIP3    H225648   7.734   0.884   0.607
 8569TIP3   OH225649   1.703   0.266   6.273
 8569TIP3    H125650   1.646   0.197   6.239
 8569TIP3    H225651   1.668   0.346   6.235
 8570TIP3   OH225652   2.318   5.273   0.342
 8570TIP3    H125653   2.403   5.229   0.340
 8570TIP3    H225654   2.293   5.280   0.250
 8571TIP3   OH225655   5.518   1.805   2.230
 8571TIP3    H125656   5.536   1.768   2.316
 8571TIP3    H225657   5.514   1.729   2.171
 8572TIP3   OH225658   4.583   3.929   3.184
 8572TIP3    H125659   4.631   3.900   3.106
 8572TIP3    H225660   4.514   3.863   3.194
 8573TIP3   OH225661   3.345   4.217   5.238
 8573TIP3    H125662   3.350   4.309   5.212
 8573TIP3    H225663   3.313   4.218   5.328
 8574TIP3   OH225664   2.307   1.851   3.103
 8574TIP3    H125665   2.232   1.853   3.163
 8574TIP3    H225666   2.319   1.941   3.076
 8575TIP3   OH225667   5.974   4.894   2.338
 8575TIP3    H125668   5.892   4.890   2.388
 8575TIP3    H225669   5.960   4.835   2.264
 8576TIP3   OH225670   3.329   5.875   6.481
 8576TIP3    H125671   3.238   5.848   6.489
 8576TIP3    H225672   3.342   5.891   6.388
 8577TIP3   OH225673   1.515   4.430   6.794
 8577TIP3    H125674   1.436   4.384   6.823
 8577TIP3    H225675   1.545   4.379   6.719
 8578TIP3   OH225676   1.672   2.527   1.846
 8578TIP3    H125677   1.741   2.581   1.806
 8578TIP3    H225678   1.719   2.458   1.892
 8579TIP3   OH225679   3.513   6.931   6.145
 8579TIP3    H125680   3.566   6.869   6.094
 8579TIP3    H225681   3.464   6.980   6.079
 8580TIP3   OH225682   2.752   3.225   5.657
 8580TIP3    H125683   2.786   3.208   5.569
 8580TIP3    H225684   2.740   3.320   5.660
 8581TIP3   OH225685   7.464   4.812   0.139
 8581TIP3    H125686   7.488   4.905   0.136
 8581TIP3    H225687   7.506   4.773   0.063
 8582TIP3   OH225688   0.539   5.466   6.295
 8582TIP3    H125689   0.564   5.382   6.333
 8582TIP3    H225690   0.558   5.457   6.202
 8583TIP3   OH225691   3.072   0.736   1.266
 8583TIP3    H125692   3.004   0.670   1.251
 8583TIP3    H225693   3.029   0.820   1.252
 8584TIP3   OH225694   5.039   1.329   3.388
 8584TIP3    H125695   4.971   1.275   3.428
 8584TIP3    H225696   5.110   1.268   3.370
 8585TIP3   OH225697   1.722   7.071   4.946
 8585TIP3    H125698   1.644   7.025   4.914
 8585TIP3    H225699   1.793   7.039   4.890
 8586TIP3   OH225700   1.987   1.088   6.477
 8586TIP3    H125701   2.080   1.108   6.473
 8586TIP3    H225702   1.976   1.042   6.561
 8587TIP3   OH225703   3.371   1.569   4.362
 8587TIP3    H125704   3.415   1.649   4.392
 8587TIP3    H225705   3.284   1.574   4.400
 8588TIP3   OH225706   5.073   6.969   2.213
 8588TIP3    H125707   5.114   7.049   2.245
 8588TIP3    H225708   4.979   6.989   2.212
 8589TIP3   OH225709   6.990   0.041   3.906
 8589TIP3    H125710   7.035   0.120   3.877
 8589TIP3    H225711   6.929   0.020   3.834
 8590TIP3   OH225712   3.356   1.543   6.158
 8590TIP3    H125713   3.418   1.516   6.090
 8590TIP3    H225714   3.349   1.467   6.216
 8591TIP3   OH225715   4.090   7.614   0.446
 8591TIP3    H125716   4.173   7.574   0.421
 8591TIP3    H225717   4.070   7.575   0.532
 8592TIP3   OH225718   3.136   5.849   6.084
 8592TIP3    H125719   3.169   5.927   6.039
 8592TIP3    H225720   3.041   5.857   6.078
 8593TIP3   OH225721   5.687   5.065   3.523
 8593TIP3    H125722   5.717   5.144   3.567
 8593TIP3    H225723   5.647   5.095   3.442
 8594TIP3   OH225724   6.453   4.529   6.183
 8594TIP3    H125725   6.536   4.553   6.222
 8594TIP3    H225726   6.391   4.596   6.213
 8595TIP3   OH225727   6.720   3.972   3.584
 8595TIP3    H125728   6.782   3.915   3.538
 8595TIP3    H225729   6.775   4.040   3.622
 8596TIP3   OH225730   6.710   2.079   0.267
 8596TIP3    H125731   6.745   1.995   0.297
 8596TIP3    H225732   6.777   2.115   0.210
 8597TIP3   OH225733   3.977   5.930   2.113
 8597TIP3    H125734   3.956   6.018   2.143
 8597TIP3    H225735   3.911   5.910   2.047
 8598TIP3   OH225736   7.119   1.862   5.958
 8598TIP3    H125737   7.035   1.828   5.927
 8598TIP3    H225738   7.181   1.840   5.889
 8599TIP3   OH225739   1.940   7.738   6.293
 8599TIP3    H125740   1.882   7.784   6.354
 8599TIP3    H225741   1.904   7.649   6.289
 8600TIP3   OH225742   6.919   1.792   0.499
 8600TIP3    H125743   6.843   1.735   0.487
 8600TIP3    H225744   6.924   1.842   0.418
 8601TIP3   OH225745   7.509   5.404   3.934
 8601TIP3    H125746   7.581   5.350   3.902
 8601TIP3    H225747   7.448   5.408   3.861
 8602TIP3   OH225748   3.256   0.513   5.677
 8602TIP3    H125749   3.224   0.423   5.678
 8602TIP3    H225750   3.252   0.539   5.585
 8603TIP3   OH225751   4.745   7.407   2.566
 8603TIP3    H125752   4.692   7.403   2.487
 8603TIP3    H225753   4.684   7.438   2.634
 8604TIP3   OH225754   8.168   2.898   0.732
 8604TIP3    H125755   8.198   2.988   0.720
 8604TIP3    H225756   8.143   2.869   0.644
 8605TIP3   OH225757   1.386   4.690   2.547
 8605TIP3    H125758   1.345   4.774   2.569
 8605TIP3    H225759   1.469   4.691   2.595
 8606TIP3   OH225760   1.461   6.012   5.985
 8606TIP3    H125761   1.424   5.950   6.048
 8606TIP3    H225762   1.425   5.985   5.901
 8607TIP3   OH225763   2.047   4.142   1.029
 8607TIP3    H125764   2.004   4.116   0.947
 8607TIP3    H225765   2.072   4.059   1.070
 8608TIP3   OH225766   6.589   3.387   2.687
 8608TIP3    H125767   6.560   3.409   2.598
 8608TIP3    H225768   6.659   3.323   2.675
 8609TIP3   OH225769   2.777   6.978   0.807
 8609TIP3    H125770   2.802   6.886   0.818
 8609TIP3    H225771   2.736   7.002   0.890
 8610TIP3   OH225772   2.578   0.852   3.882
 8610TIP3    H125773   2.640   0.836   3.811
 8610TIP3    H225774   2.512   0.783   3.872
 8611TIP3   OH225775   1.782   1.769   0.352
 8611TIP3    H125776   1.736   1.832   0.408
 8611TIP3    H225777   1.737   1.686   0.368
 8612TIP3   OH225778   2.694   5.097   2.509
 8612TIP3    H125779   2.775   5.120   2.555
 8612TIP3    H225780   2.663   5.018   2.554
 8613TIP3   OH225781   6.822   4.633   3.813
 8613TIP3    H125782   6.878   4.628   3.736
 8613TIP3    H225783   6.882   4.636   3.887
 8614TIP3   OH225784   2.832   4.202   0.118
 8614TIP3    H125785   2.922   4.179   0.094
 8614TIP3    H225786   2.780   4.180   0.041
 8615TIP3   OH225787   3.417   0.627   6.194
 8615TIP3    H125788   3.402   0.609   6.101
 8615TIP3    H225789   3.405   0.721   6.202
 8616TIP3   OH225790   1.073   6.624  -0.030
 8616TIP3    H125791   1.132   6.642   0.043
 8616TIP3    H225792   0.985   6.636   0.006
 8617TIP3   OH225793   1.311   5.862   5.791
 8617TIP3    H125794   1.246   5.793   5.805
 8617TIP3    H225795   1.386   5.817   5.753
 8618TIP3   OH225796   3.242   2.285   5.509
 8618TIP3    H125797   3.240   2.194   5.538
 8618TIP3    H225798   3.155   2.301   5.473
 8619TIP3   OH225799   6.149   7.027   4.650
 8619TIP3    H125800   6.100   7.109   4.647
 8619TIP3    H225801   6.108   6.972   4.584
 8620TIP3   OH225802   7.647   3.399   5.360
 8620TIP3    H125803   7.739   3.391   5.334
 8620TIP3    H225804   7.602   3.332   5.308
 8621TIP3   OH225805   0.504   5.004   1.663
 8621TIP3    H125806   0.565   4.939   1.699
 8621TIP3    H225807   0.526   5.009   1.570
 8622TIP3   OH225808   6.836   0.254   2.837
 8622TIP3    H125809   6.837   0.315   2.910
 8622TIP3    H225810   6.743   0.235   2.823
 8623TIP3   OH225811   5.178   2.726   3.024
 8623TIP3    H125812   5.248   2.662   3.039
 8623TIP3    H225813   5.223   2.810   3.018
 8624TIP3   OH225814   2.464   6.112   1.893
 8624TIP3    H125815   2.468   6.026   1.935
 8624TIP3    H225816   2.538   6.160   1.931
 8625TIP3   OH225817   8.117   3.786   0.308
 8625TIP3    H125818   8.112   3.776   0.403
 8625TIP3    H225819   8.209   3.806   0.291
 8626TIP3   OH225820   1.254   1.228   4.018
 8626TIP3    H125821   1.327   1.278   3.981
 8626TIP3    H225822   1.263   1.141   3.980
 8627TIP3   OH225823   6.194   0.500   6.430
 8627TIP3    H125824   6.117   0.469   6.477
 8627TIP3    H225825   6.174   0.591   6.408
 8628TIP3   OH225826   4.762   6.228   6.780
 8628TIP3    H125827   4.786   6.161   6.716
 8628TIP3    H225828   4.761   6.310   6.730
 8629TIP3   OH225829   1.234   3.175   0.770
 8629TIP3    H125830   1.301   3.147   0.708
 8629TIP3    H225831   1.157   3.193   0.716
 8630TIP3   OH225832   2.771   2.912   5.349
 8630TIP3    H125833   2.735   2.924   5.261
 8630TIP3    H225834   2.761   2.819   5.367
 8631TIP3   OH225835   2.699   5.498   3.583
 8631TIP3    H125836   2.709   5.544   3.499
 8631TIP3    H225837   2.733   5.560   3.647
 8632TIP3   OH225838   3.408   5.261   3.441
 8632TIP3    H125839   3.502   5.262   3.423
 8632TIP3    H225840   3.381   5.172   3.419
 8633TIP3   OH225841   3.029   2.121   6.784
 8633TIP3    H125842   3.080   2.167   6.716
 8633TIP3    H225843   3.093   2.098   6.851
 8634TIP3   OH225844   2.724   2.046   6.153
 8634TIP3    H125845   2.773   2.012   6.228
 8634TIP3    H225846   2.642   2.079   6.191
 8635TIP3   OH225847   5.964   2.543   1.925
 8635TIP3    H125848   6.009   2.512   2.003
 8635TIP3    H225849   5.896   2.477   1.909
 8636TIP3   OH225850   7.949   6.077   0.027
 8636TIP3    H125851   7.925   6.144   0.091
 8636TIP3    H225852   8.044   6.083   0.020
 8637TIP3   OH225853   5.301   0.166   2.844
 8637TIP3    H125854   5.294   0.234   2.777
 8637TIP3    H225855   5.378   0.115   2.818
 8638TIP3   OH225856   5.163   1.838   1.691
 8638TIP3    H125857   5.160   1.756   1.642
 8638TIP3    H225858   5.126   1.903   1.632
 8639TIP3   OH225859   1.030   2.661   3.042
 8639TIP3    H125860   0.958   2.658   3.106
 8639TIP3    H225861   0.991   2.703   2.965
 8640TIP3   OH225862   3.289   3.045   0.128
 8640TIP3    H125863   3.228   3.024   0.058
 8640TIP3    H225864   3.318   2.959   0.160
 8641TIP3   OH225865   6.535   4.854   2.596
 8641TIP3    H125866   6.512   4.766   2.564
 8641TIP3    H225867   6.612   4.840   2.651
 8642TIP3   OH225868   4.240   6.532   1.264
 8642TIP3    H125869   4.268   6.570   1.347
 8642TIP3    H225870   4.313   6.551   1.204
 8643TIP3   OH225871   2.750   6.565   1.077
 8643TIP3    H125872   2.795   6.481   1.085
 8643TIP3    H225873   2.793   6.621   1.141
 8644TIP3   OH225874   6.894   5.616   0.810
 8644TIP3    H125875   6.958   5.546   0.795
 8644TIP3    H225876   6.881   5.617   0.905
 8645TIP3   OH225877   5.837   2.301   4.240
 8645TIP3    H125878   5.852   2.391   4.213
 8645TIP3    H225879   5.872   2.248   4.168
 8646TIP3   OH225880   6.049   5.582   5.405
 8646TIP3    H125881   6.112   5.520   5.440
 8646TIP3    H225882   6.101   5.659   5.379
 8647TIP3   OH225883   7.915   7.605   1.477
 8647TIP3    H125884   7.872   7.531   1.521
 8647TIP3    H225885   7.845   7.667   1.461
 8648TIP3   OH225886   8.334   3.540   6.211
 8648TIP3    H125887   8.253   3.521   6.258
 8648TIP3    H225888   8.322   3.629   6.177
 8649TIP3   OH225889   7.225   3.518   4.169
 8649TIP3    H125890   7.307   3.550   4.130
 8649TIP3    H225891   7.224   3.425   4.148
 8650TIP3   OH225892   7.237   1.889   0.548
 8650TIP3    H125893   7.253   1.866   0.640
 8650TIP3    H225894   7.203   1.808   0.509
 8651TIP3   OH225895   4.815   1.741   3.696
 8651TIP3    H125896   4.842   1.741   3.604
 8651TIP3    H225897   4.842   1.655   3.728
 8652TIP3   OH225898   7.032   4.432   5.049
 8652TIP3    H125899   7.059   4.495   5.116
 8652TIP3    H225900   6.958   4.385   5.087
 8653TIP3   OH225901   7.599   0.630   2.797
 8653TIP3    H125902   7.633   0.664   2.715
 8653TIP3    H225903   7.665   0.568   2.828
 8654TIP3   OH225904   7.916   6.741   1.473
 8654TIP3    H125905   8.007   6.714   1.480
 8654TIP3    H225906   7.879   6.685   1.404
 8655TIP3   OH225907   2.759   7.788   0.548
 8655TIP3    H125908   2.776   7.696   0.570
 8655TIP3    H225909   2.794   7.798   0.459
 8656TIP3   OH225910   3.147   0.410   6.415
 8656TIP3    H125911   3.173   0.408   6.323
 8656TIP3    H225912   3.230   0.419   6.463
 8657TIP3   OH225913   0.620   5.518   1.094
 8657TIP3    H125914   0.699   5.553   1.053
 8657TIP3    H225915   0.641   5.514   1.187
 8658TIP3   OH225916   0.765   0.413   2.567
 8658TIP3    H125917   0.692   0.368   2.610
 8658TIP3    H225918   0.838   0.352   2.572
 8659TIP3   OH225919   5.851   4.007   5.615
 8659TIP3    H125920   5.891   3.936   5.664
 8659TIP3    H225921   5.872   4.086   5.665
 8660TIP3   OH225922   0.378   0.351   6.548
 8660TIP3    H125923   0.324   0.304   6.484
 8660TIP3    H225924   0.468   0.324   6.528
 8661TIP3   OH225925   5.787   2.698   3.039
 8661TIP3    H125926   5.733   2.687   3.118
 8661TIP3    H225927   5.777   2.615   2.992
 8662TIP3   OH225928   1.076   5.911   5.138
 8662TIP3    H125929   1.039   5.836   5.185
 8662TIP3    H225930   1.153   5.936   5.189
 8663TIP3   OH225931   5.279   6.537   0.006
 8663TIP3    H125932   5.306   6.453   0.044
 8663TIP3    H225933   5.361   6.584  -0.008
 8664TIP3   OH225934   4.909   1.689   1.565
 8664TIP3    H125935   4.971   1.641   1.621
 8664TIP3    H225936   4.921   1.781   1.590
 8665TIP3   OH225937   2.987   2.220   6.000
 8665TIP3    H125938   2.914   2.179   5.953
 8665TIP3    H225939   3.007   2.159   6.071
 8666TIP3   OH225940   6.721   3.047   4.470
 8666TIP3    H125941   6.781   3.070   4.398
 8666TIP3    H225942   6.712   2.952   4.464
 8667TIP3   OH225943   4.927   0.324   4.332
 8667TIP3    H125944   4.962   0.277   4.408
 8667TIP3    H225945   4.848   0.276   4.309
 8668TIP3   OH225946   1.481   1.250   5.711
 8668TIP3    H125947   1.483   1.244   5.806
 8668TIP3    H225948   1.413   1.188   5.684
 8669TIP3   OH225949   5.099   5.505   0.166
 8669TIP3    H125950   5.017   5.545   0.139
 8669TIP3    H225951   5.078   5.463   0.250
 8670TIP3   OH225952   0.790   5.129   4.053
 8670TIP3    H125953   0.817   5.072   4.125
 8670TIP3    H225954   0.694   5.125   4.053
 8671TIP3   OH225955   7.843   0.208   3.067
 8671TIP3    H125956   7.917   0.211   3.006
 8671TIP3    H225957   7.832   0.115   3.088
 8672TIP3   OH225958   3.395   1.220   6.527
 8672TIP3    H125959   3.453   1.201   6.600
 8672TIP3    H225960   3.356   1.136   6.505
 8673TIP3   OH225961   0.530   2.480   2.310
 8673TIP3    H125962   0.441   2.478   2.277
 8673TIP3    H225963   0.531   2.414   2.379
 8674TIP3   OH225964   1.515   2.745   5.563
 8674TIP3    H125965   1.587   2.690   5.533
 8674TIP3    H225966   1.549   2.834   5.559
 8675TIP3   OH225967   7.601   0.871   3.691
 8675TIP3    H125968   7.654   0.898   3.765
 8675TIP3    H225969   7.519   0.920   3.701
 8676TIP3   OH225970   3.128   1.808   2.796
 8676TIP3    H125971   3.214   1.851   2.793
 8676TIP3    H225972   3.088   1.839   2.877
 8677TIP3   OH225973   1.618   1.082   6.199
 8677TIP3    H125974   1.593   1.064   6.290
 8677TIP3    H225975   1.700   1.035   6.187
 8678TIP3   OH225976   5.036   2.813   4.304
 8678TIP3    H125977   5.021   2.772   4.389
 8678TIP3    H225978   5.104   2.879   4.322
 8679TIP3   OH225979   6.508   6.665   1.121
 8679TIP3    H125980   6.525   6.717   1.199
 8679TIP3    H225981   6.567   6.589   1.130
 8680TIP3   OH225982   1.339   6.757   5.338
 8680TIP3    H125983   1.263   6.787   5.289
 8680TIP3    H225984   1.331   6.799   5.423
 8681TIP3   OH225985   4.293   2.152   1.899
 8681TIP3    H125986   4.198   2.144   1.905
 8681TIP3    H225987   4.323   2.064   1.876
 8682TIP3   OH225988   1.140   4.126   0.791
 8682TIP3    H125989   1.179   4.152   0.707
 8682TIP3    H225990   1.105   4.039   0.775
 8683TIP3   OH225991   7.830   0.110   1.838
 8683TIP3    H125992   7.899   0.134   1.775
 8683TIP3    H225993   7.799   0.194   1.872
 8684TIP3   OH225994  -0.016   6.865   3.964
 8684TIP3    H125995  -0.039   6.958   3.953
 8684TIP3    H225996  -0.096   6.824   3.995
 8685TIP3   OH225997   7.263   3.709   3.319
 8685TIP3    H125998   7.336   3.761   3.350
 8685TIP3    H225999   7.279   3.621   3.354
 8686TIP3   OH226000   3.272   6.134   3.982
 8686TIP3    H126001   3.201   6.082   3.945
 8686TIP3    H226002   3.348   6.076   3.980
 8687TIP3   OH226003   4.213   6.355   6.450
 8687TIP3    H126004   4.159   6.420   6.405
 8687TIP3    H226005   4.267   6.316   6.381
 8688TIP3   OH226006   3.419   6.981   1.240
 8688TIP3    H126007   3.506   7.013   1.216
 8688TIP3    H226008   3.381   7.053   1.292
 8689TIP3   OH226009   5.846   4.297   5.438
 8689TIP3    H126010   5.849   4.391   5.421
 8689TIP3    H226011   5.752   4.276   5.438
 8690TIP3   OH226012   2.945   3.736   2.554
 8690TIP3    H126013   2.975   3.662   2.607
 8690TIP3    H226014   2.939   3.701   2.465
 8691TIP3   OH226015   3.586   7.780   5.481
 8691TIP3    H126016   3.495   7.749   5.483
 8691TIP3    H226017   3.637   7.703   5.459
 8692TIP3   OH226018   2.391   4.983   5.081
 8692TIP3    H126019   2.472   5.027   5.055
 8692TIP3    H226020   2.396   4.979   5.177
 8693TIP3   OH226021   5.818   7.732   5.466
 8693TIP3    H126022   5.756   7.752   5.536
 8693TIP3    H226023   5.897   7.780   5.491
 8694TIP3   OH226024   2.483   1.347   5.686
 8694TIP3    H126025   2.420   1.399   5.635
 8694TIP3    H226026   2.494   1.396   5.767
 8695TIP3   OH226027   7.784   5.361   1.682
 8695TIP3    H126028   7.784   5.338   1.590
 8695TIP3    H226029   7.871   5.398   1.698
 8696TIP3   OH226030   5.225   0.014   5.364
 8696TIP3    H126031   5.139   0.052   5.381
 8696TIP3    H226032   5.208  -0.059   5.305
 8697TIP3   OH226033   4.489   5.662   2.951
 8697TIP3    H126034   4.408   5.708   2.973
 8697TIP3    H226035   4.544   5.728   2.910
 8698TIP3   OH226036   4.189   3.698   4.018
 8698TIP3    H126037   4.177   3.636   4.090
 8698TIP3    H226038   4.266   3.749   4.043
 8699TIP3   OH226039   6.007   2.964   0.616
 8699TIP3    H126040   5.924   2.918   0.600
 8699TIP3    H226041   6.002   3.041   0.559
 8700TIP3   OH226042   3.156   2.335   2.687
 8700TIP3    H126043   3.232   2.362   2.737
 8700TIP3    H226044   3.084   2.386   2.722
 8701TIP3   OH226045   6.268   6.346   5.697
 8701TIP3    H126046   6.335   6.319   5.759
 8701TIP3    H226047   6.221   6.265   5.675
 8702TIP3   OH226048   1.015   4.639   2.008
 8702TIP3    H126049   1.104   4.617   1.982
 8702TIP3    H226050   1.015   4.734   2.017
 8703TIP3   OH226051   6.507   1.215   6.696
 8703TIP3    H126052   6.576   1.201   6.631
 8703TIP3    H226053   6.505   1.134   6.747
 8704TIP3   OH226054   6.556   5.740   4.178
 8704TIP3    H126055   6.631   5.705   4.226
 8704TIP3    H226056   6.591   5.762   4.092
 8705TIP3   OH226057   2.333   7.824   0.496
 8705TIP3    H126058   2.263   7.783   0.445
 8705TIP3    H226059   2.341   7.912   0.459
 8706TIP3   OH226060   3.640   4.986   3.137
 8706TIP3    H126061   3.549   4.990   3.107
 8706TIP3    H226062   3.686   4.940   3.067
 8707TIP3   OH226063   6.311   5.040   0.501
 8707TIP3    H126064   6.295   5.075   0.589
 8707TIP3    H226065   6.225   5.011   0.471
 8708TIP3   OH226066   5.626   7.623   2.752
 8708TIP3    H126067   5.615   7.643   2.659
 8708TIP3    H226068   5.720   7.631   2.768
 8709TIP3   OH226069   1.605   2.905   2.046
 8709TIP3    H126070   1.610   2.910   2.142
 8709TIP3    H226071   1.684   2.949   2.015
 8710TIP3   OH226072   4.728   4.761   5.459
 8710TIP3    H126073   4.702   4.780   5.369
 8710TIP3    H226074   4.644   4.747   5.505
 8711TIP3   OH226075   1.399   7.195   3.576
 8711TIP3    H126076   1.486   7.158   3.591
 8711TIP3    H226077   1.416   7.284   3.545
 8712TIP3   OH226078   1.098   1.746   5.926
 8712TIP3    H126079   1.011   1.740   5.887
 8712TIP3    H226080   1.136   1.659   5.915
 8713TIP3   OH226081   2.113   4.332   5.064
 8713TIP3    H126082   2.103   4.371   4.977
 8713TIP3    H226083   2.207   4.314   5.071
 8714TIP3   OH226084   6.580   7.666   3.115
 8714TIP3    H126085   6.573   7.752   3.157
 8714TIP3    H226086   6.660   7.672   3.062
 8715TIP3   OH226087   5.711   3.730   5.919
 8715TIP3    H126088   5.657   3.793   5.872
 8715TIP3    H226089   5.731   3.773   6.002
 8716TIP3   OH226090   1.412   5.391   4.907
 8716TIP3    H126091   1.449   5.438   4.833
 8716TIP3    H226092   1.358   5.456   4.953
 8717TIP3   OH226093   3.879   7.484   1.238
 8717TIP3    H126094   3.931   7.417   1.193
 8717TIP3    H226095   3.910   7.480   1.329
 8718TIP3   OH226096   0.031   1.360   2.183
 8718TIP3    H126097   0.055   1.419   2.111
 8718TIP3    H226098   0.031   1.415   2.261
 8719TIP3   OH226099   4.224   2.485   3.178
 8719TIP3    H126100   4.283   2.553   3.210
 8719TIP3    H226101   4.277   2.406   3.174
 8720TIP3   OH226102   8.166   7.031   5.995
 8720TIP3    H126103   8.175   6.951   5.943
 8720TIP3    H226104   8.121   7.092   5.936
 8721TIP3   OH226105   7.374   5.288   3.210
 8721TIP3    H126106   7.354   5.364   3.154
 8721TIP3    H226107   7.439   5.239   3.160
 8722TIP3   OH226108   7.788   3.754   0.572
 8722TIP3    H126109   7.736   3.700   0.632
 8722TIP3    H226110   7.764   3.844   0.595
 8723TIP3   OH226111   4.923   1.251   2.500
 8723TIP3    H126112   4.888   1.172   2.460
 8723TIP3    H226113   4.901   1.321   2.438
 8724TIP3   OH226114   1.526   5.399   5.462
 8724TIP3    H126115   1.496   5.454   5.391
 8724TIP3    H226116   1.597   5.448   5.503
 8725TIP3   OH226117   2.518   2.185   5.841
 8725TIP3    H126118   2.479   2.128   5.907
 8725TIP3    H226119   2.606   2.151   5.828
 8726TIP3   OH226120   0.307   2.526   3.586
 8726TIP3    H126121   0.354   2.606   3.610
 8726TIP3    H226122   0.240   2.516   3.654
 8727TIP3   OH226123   5.191   4.911   5.857
 8727TIP3    H126124   5.113   4.856   5.869
 8727TIP3    H226125   5.170   4.964   5.780
 8728TIP3   OH226126   5.943   5.255   4.766
 8728TIP3    H126127   5.900   5.239   4.851
 8728TIP3    H226128   5.926   5.176   4.716
 8729TIP3   OH226129   4.349   7.506   0.464
 8729TIP3    H126130   4.440   7.482   0.485
 8729TIP3    H226131   4.300   7.425   0.478
 8730TIP3   OH226132   2.969   2.408   2.475
 8730TIP3    H126133   3.022   2.437   2.400
 8730TIP3    H226134   3.032   2.372   2.537
 8731TIP3   OH226135   2.258   2.300   3.446
 8731TIP3    H126136   2.205   2.223   3.425
 8731TIP3    H226137   2.227   2.328   3.532
 8732TIP3   OH226138   6.826   6.293   4.495
 8732TIP3    H126139   6.910   6.317   4.457
 8732TIP3    H226140   6.845   6.280   4.588
 8733TIP3   OH226141   8.290   1.924   1.190
 8733TIP3    H126142   8.288   1.988   1.261
 8733TIP3    H226143   8.353   1.960   1.127
 8734TIP3   OH226144   5.478   5.434   1.307
 8734TIP3    H126145   5.538   5.438   1.232
 8734TIP3    H226146   5.512   5.501   1.367
 8735TIP3   OH226147   2.876   0.648   3.053
 8735TIP3    H126148   2.821   0.577   3.020
 8735TIP3    H226149   2.816   0.701   3.107
 8736TIP3   OH226150   8.186   2.688   5.982
 8736TIP3    H126151   8.190   2.668   6.076
 8736TIP3    H226152   8.142   2.773   5.978
 8737TIP3   OH226153   8.241   5.205   6.193
 8737TIP3    H126154   8.282   5.120   6.209
 8737TIP3    H226155   8.201   5.196   6.107
 8738TIP3   OH226156   5.533   1.666   1.795
 8738TIP3    H126157   5.496   1.674   1.707
 8738TIP3    H226158   5.526   1.754   1.832
 8739TIP3   OH226159   7.163   1.486   4.996
 8739TIP3    H126160   7.197   1.491   5.085
 8739TIP3    H226161   7.233   1.444   4.945
 8740TIP3   OH226162   8.281   3.615   2.137
 8740TIP3    H126163   8.200   3.656   2.104
 8740TIP3    H226164   8.282   3.638   2.230
 8741TIP3   OH226165   0.983   0.097   6.047
 8741TIP3    H126166   0.892   0.078   6.067
 8741TIP3    H226167   0.981   0.182   6.003
 8742TIP3   OH226168   0.048   6.215   3.006
 8742TIP3    H126169  -0.011   6.231   3.080
 8742TIP3    H226170   0.063   6.302   2.969
 8743TIP3   OH226171   4.668   5.547   3.830
 8743TIP3    H126172   4.703   5.580   3.747
 8743TIP3    H226173   4.608   5.615   3.860
 8744TIP3   OH226174   1.319   4.665   1.435
 8744TIP3    H126175   1.362   4.655   1.520
 8744TIP3    H226176   1.389   4.689   1.375
 8745TIP3   OH226177   0.622   0.741   5.779
 8745TIP3    H126178   0.619   0.701   5.692
 8745TIP3    H226179   0.572   0.681   5.834
 8746TIP3   OH226180   5.300   1.525   4.636
 8746TIP3    H126181   5.378   1.575   4.660
 8746TIP3    H226182   5.228   1.570   4.680
 8747TIP3   OH226183   3.651   2.089   4.967
 8747TIP3    H126184   3.744   2.077   4.950
 8747TIP3    H226185   3.608   2.063   4.885
 8748TIP3   OH226186   7.867   0.413   5.418
 8748TIP3    H126187   7.870   0.388   5.510
 8748TIP3    H226188   7.775   0.402   5.393
 8749TIP3   OH226189   3.703   2.560   6.251
 8749TIP3    H126190   3.675   2.610   6.174
 8749TIP3    H226191   3.628   2.503   6.270
 8750TIP3   OH226192   5.209   2.697   0.473
 8750TIP3    H126193   5.139   2.651   0.519
 8750TIP3    H226194   5.172   2.783   0.454
 8751TIP3   OH226195   2.540   1.558   4.719
 8751TIP3    H126196   2.509   1.645   4.745
 8751TIP3    H226197   2.631   1.572   4.694
 8752TIP3   OH226198   8.256   7.645   6.435
 8752TIP3    H126199   8.321   7.645   6.505
 8752TIP3    H226200   8.221   7.556   6.435
 8753TIP3   OH226201   2.832   0.285   0.861
 8753TIP3    H126202   2.791   0.287   0.948
 8753TIP3    H226203   2.823   0.194   0.833
 8754TIP3   OH226204   3.267   0.659   0.449
 8754TIP3    H126205   3.260   0.754   0.455
 8754TIP3    H226206   3.176   0.629   0.441
 8755TIP3   OH226207   6.164   3.250   2.391
 8755TIP3    H126208   6.088   3.302   2.417
 8755TIP3    H226209   6.127   3.169   2.356
 8756TIP3   OH226210   2.811   1.029   4.042
 8756TIP3    H126211   2.788   0.969   3.972
 8756TIP3    H226212   2.814   1.115   4.000
 8757TIP3   OH226213   2.086   2.290   1.885
 8757TIP3    H126214   2.041   2.206   1.898
 8757TIP3    H226215   2.068   2.340   1.964
 8758TIP3   OH226216   1.655   3.472   5.376
 8758TIP3    H126217   1.561   3.467   5.394
 8758TIP3    H226218   1.668   3.415   5.299
 8759TIP3   OH226219   6.751   2.839   1.513
 8759TIP3    H126220   6.801   2.851   1.594
 8759TIP3    H226221   6.808   2.787   1.457
 8760TIP3   OH226222   8.242   7.812   3.954
 8760TIP3    H126223   8.278   7.724   3.956
 8760TIP3    H226224   8.254   7.842   3.864
 8761TIP3   OH226225   2.417   0.408   3.851
 8761TIP3    H126226   2.359   0.333   3.862
 8761TIP3    H226227   2.451   0.399   3.762
 8762TIP3   OH226228   8.261   0.997   5.579
 8762TIP3    H126229   8.333   1.046   5.540
 8762TIP3    H226230   8.273   1.008   5.673
 8763TIP3   OH226231   5.842   1.270   5.569
 8763TIP3    H126232   5.909   1.312   5.516
 8763TIP3    H226233   5.827   1.329   5.642
 8764TIP3   OH226234   6.886   5.596   2.437
 8764TIP3    H126235   6.974   5.614   2.472
 8764TIP3    H226236   6.862   5.677   2.392
 8765TIP3   OH226237   2.577   7.709   3.679
 8765TIP3    H126238   2.541   7.779   3.625
 8765TIP3    H226239   2.639   7.753   3.738
 8766TIP3   OH226240   6.892   6.995   5.472
 8766TIP3    H126241   6.805   6.968   5.444
 8766TIP3    H226242   6.938   6.913   5.493
 8767TIP3   OH226243   2.572   7.865   1.520
 8767TIP3    H126244   2.489   7.818   1.526
 8767TIP3    H226245   2.608   7.839   1.435
 8768TIP3   OH226246   0.874   7.245   4.686
 8768TIP3    H126247   0.869   7.340   4.689
 8768TIP3    H226248   0.967   7.225   4.690
 8769TIP3   OH226249   6.686   6.812   4.877
 8769TIP3    H126250   6.741   6.843   4.805
 8769TIP3    H226251   6.634   6.888   4.902
 8770TIP3   OH226252   8.010   6.344   3.738
 8770TIP3    H126253   7.958   6.345   3.819
 8770TIP3    H226254   8.090   6.391   3.761
 8771TIP3   OH226255   2.290   2.605   2.788
 8771TIP3    H126256   2.219   2.664   2.762
 8771TIP3    H226257   2.357   2.663   2.824
 8772TIP3   OH226258   4.807   5.898   1.802
 8772TIP3    H126259   4.867   5.850   1.745
 8772TIP3    H226260   4.727   5.906   1.750
 8773TIP3   OH226261   0.605   1.653   3.876
 8773TIP3    H126262   0.535   1.601   3.838
 8773TIP3    H226263   0.646   1.597   3.941
 8774TIP3   OH226264   7.321   0.032   4.293
 8774TIP3    H126265   7.279   0.014   4.209
 8774TIP3    H226266   7.363   0.117   4.282
 8775TIP3   OH226267   7.872   6.752   6.329
 8775TIP3    H126268   7.907   6.827   6.281
 8775TIP3    H226269   7.919   6.677   6.292
 8776TIP3   OH226270   7.509   0.407   3.374
 8776TIP3    H126271   7.592   0.363   3.353
 8776TIP3    H226272   7.532   0.500   3.377
 8777TIP3   OH226273   2.243   5.312   5.340
 8777TIP3    H126274   2.152   5.327   5.364
 8777TIP3    H226275   2.282   5.275   5.419
 8778TIP3   OH226276   8.066   2.672   6.383
 8778TIP3    H126277   8.023   2.593   6.415
 8778TIP3    H226278   8.001   2.716   6.329
 8779TIP3   OH226279   4.338   4.955   3.208
 8779TIP3    H126280   4.423   4.999   3.208
 8779TIP3    H226281   4.278   5.019   3.246
 8780TIP3   OH226282   5.761   5.309   3.619
 8780TIP3    H126283   5.706   5.349   3.686
 8780TIP3    H226284   5.850   5.315   3.654
 8781TIP3   OH226285   2.288   6.299   2.909
 8781TIP3    H126286   2.195   6.320   2.918
 8781TIP3    H226287   2.293   6.204   2.920
 8782TIP3   OH226288   1.128   3.355   0.377
 8782TIP3    H126289   1.206   3.387   0.424
 8782TIP3    H226290   1.119   3.264   0.406
 8783TIP3   OH226291   0.695   0.094   1.900
 8783TIP3    H126292   0.703   0.106   1.994
 8783TIP3    H226293   0.657   0.007   1.890
 8784TIP3   OH226294   1.094   6.743   1.500
 8784TIP3    H126295   1.096   6.732   1.595
 8784TIP3    H226296   1.160   6.682   1.468
 8785TIP3   OH226297   3.552   4.273   5.523
 8785TIP3    H126298   3.609   4.220   5.468
 8785TIP3    H226299   3.575   4.364   5.501
 8786TIP3   OH226300   7.841   7.376   0.358
 8786TIP3    H126301   7.815   7.365   0.266
 8786TIP3    H226302   7.933   7.347   0.360
 8787TIP3   OH226303   6.087   2.174   0.122
 8787TIP3    H126304   6.114   2.265   0.123
 8787TIP3    H226305   6.061   2.156   0.213
 8788TIP3   OH226306   5.475   7.839   4.344
 8788TIP3    H126307   5.508   7.810   4.429
 8788TIP3    H226308   5.430   7.762   4.309
 8789TIP3   OH226309   3.998   6.215   6.536
 8789TIP3    H126310   4.077   6.266   6.519
 8789TIP3    H226311   3.993   6.211   6.632
 8790TIP3   OH226312   2.443   2.537   6.200
 8790TIP3    H126313   2.424   2.611   6.143
 8790TIP3    H226314   2.531   2.509   6.174
 8791TIP3   OH226315   4.381   6.542   6.571
 8791TIP3    H126316   4.322   6.468   6.568
 8791TIP3    H226317   4.348   6.596   6.643
 8792TIP3   OH226318   6.432   3.833   2.275
 8792TIP3    H126319   6.355   3.862   2.226
 8792TIP3    H226320   6.409   3.846   2.367
 8793TIP3   OH226321   1.677   3.018   2.293
 8793TIP3    H126322   1.607   3.077   2.267
 8793TIP3    H226323   1.752   3.076   2.310
 8794TIP3   OH226324   7.574   7.821   1.091
 8794TIP3    H126325   7.647   7.781   1.043
 8794TIP3    H226326   7.496   7.790   1.046
 8795TIP3   OH226327   4.669   3.072   5.196
 8795TIP3    H126328   4.586   3.114   5.217
 8795TIP3    H226329   4.653   3.026   5.114
 8796TIP3   OH226330   5.415   6.464   0.296
 8796TIP3    H126331   5.351   6.413   0.245
 8796TIP3    H226332   5.499   6.446   0.254
 8797TIP3   OH226333   4.648   4.681   3.229
 8797TIP3    H126334   4.568   4.687   3.282
 8797TIP3    H226335   4.634   4.605   3.173
 8798TIP3   OH226336   0.155   0.777   4.668
 8798TIP3    H126337   0.155   0.753   4.761
 8798TIP3    H226338   0.248   0.777   4.644
 8799TIP3   OH226339   6.140   0.204   6.745
 8799TIP3    H126340   6.100   0.271   6.690
 8799TIP3    H226341   6.223   0.184   6.701
 8800TIP3   OH226342   2.290   3.448   0.318
 8800TIP3    H126343   2.331   3.476   0.399
 8800TIP3    H226344   2.298   3.353   0.317
 8801TIP3   OH226345   0.294   4.426   1.957
 8801TIP3    H126346   0.203   4.400   1.970
 8801TIP3    H226347   0.335   4.413   2.043
 8802TIP3   OH226348   1.075   3.176   5.616
 8802TIP3    H126349   1.013   3.247   5.632
 8802TIP3    H226350   1.057   3.149   5.526
 8803TIP3   OH226351   2.177   2.319   3.106
 8803TIP3    H126352   2.250   2.316   3.167
 8803TIP3    H226353   2.131   2.400   3.129
 8804TIP3   OH226354   0.284   4.485   0.519
 8804TIP3    H126355   0.362   4.435   0.495
 8804TIP3    H226356   0.212   4.423   0.507
 8805TIP3   OH226357   5.209   3.592   4.877
 8805TIP3    H126358   5.149   3.654   4.835
 8805TIP3    H226359   5.278   3.647   4.915
 8806TIP3   OH226360   7.904   0.212   2.751
 8806TIP3    H126361   7.944   0.190   2.667
 8806TIP3    H226362   7.970   0.190   2.817
 8807TIP3   OH226363   7.397   0.921   1.607
 8807TIP3    H126364   7.375   0.841   1.559
 8807TIP3    H226365   7.329   0.927   1.675
 8808TIP3   OH226366   5.721   2.177   0.562
 8808TIP3    H126367   5.738   2.249   0.623
 8808TIP3    H226368   5.806   2.132   0.554
 8809TIP3   OH226369   2.113   1.868   5.081
 8809TIP3    H126370   2.050   1.900   5.015
 8809TIP3    H226371   2.060   1.815   5.140
 8810TIP3   OH226372   7.721   6.994   4.638
 8810TIP3    H126373   7.785   7.053   4.598
 8810TIP3    H226374   7.719   6.918   4.580
 8811TIP3   OH226375   1.938   4.241   0.658
 8811TIP3    H126376   1.981   4.314   0.704
 8811TIP3    H226377   1.877   4.284   0.598
 8812TIP3   OH226378   0.708   7.207   6.115
 8812TIP3    H126379   0.688   7.300   6.108
 8812TIP3    H226380   0.642   7.173   6.176
 8813TIP3   OH226381   1.957   3.549   3.236
 8813TIP3    H126382   1.894   3.477   3.225
 8813TIP3    H226383   1.910   3.627   3.207
 8814TIP3   OH226384  -0.020   4.393   5.079
 8814TIP3    H126385   0.058   4.448   5.072
 8814TIP3    H226386   0.014   4.307   5.104
 8815TIP3   OH226387   5.649   4.942   2.881
 8815TIP3    H126388   5.736   4.978   2.864
 8815TIP3    H226389   5.589   5.015   2.864
 8816TIP3   OH226390   0.460   2.925  -0.051
 8816TIP3    H126391   0.554   2.927  -0.065
 8816TIP3    H226392   0.449   2.933   0.043
 8817TIP3   OH226393   4.468   5.691   3.914
 8817TIP3    H126394   4.490   5.783   3.926
 8817TIP3    H226395   4.374   5.690   3.898
 8818TIP3   OH226396   4.246   0.286   6.384
 8818TIP3    H126397   4.170   0.316   6.333
 8818TIP3    H226398   4.235   0.191   6.388
 8819TIP3   OH226399   4.251   1.044   5.728
 8819TIP3    H126400   4.286   1.066   5.814
 8819TIP3    H226401   4.175   1.101   5.717
 8820TIP3   OH226402   0.491   7.470   0.688
 8820TIP3    H126403   0.419   7.533   0.694
 8820TIP3    H226404   0.479   7.412   0.764
 8821TIP3   OH226405   7.109   7.057   6.627
 8821TIP3    H126406   7.136   7.143   6.659
 8821TIP3    H226407   7.146   7.051   6.539
 8822TIP3   OH226408   2.699   2.909   3.561
 8822TIP3    H126409   2.703   2.942   3.471
 8822TIP3    H226410   2.736   2.821   3.556
 8823TIP3   OH226411   7.404   1.114   2.308
 8823TIP3    H126412   7.346   1.187   2.290
 8823TIP3    H226413   7.423   1.076   2.222
 8824TIP3   OH226414   2.427   4.292   6.067
 8824TIP3    H126415   2.332   4.295   6.056
 8824TIP3    H226416   2.441   4.309   6.161
 8825TIP3   OH226417   7.865   1.720   0.118
 8825TIP3    H126418   7.915   1.785   0.068
 8825TIP3    H226419   7.925   1.694   0.188
 8826TIP3   OH226420   5.524   1.807   4.506
 8826TIP3    H126421   5.538   1.715   4.528
 8826TIP3    H226422   5.565   1.817   4.420
 8827TIP3   OH226423   4.306   1.634   3.476
 8827TIP3    H126424   4.272   1.718   3.442
 8827TIP3    H226425   4.368   1.659   3.545
 8828TIP3   OH226426   2.601   5.188   6.611
 8828TIP3    H126427   2.621   5.281   6.618
 8828TIP3    H226428   2.676   5.144   6.650
 8829TIP3   OH226429   5.930   4.497   2.064
 8829TIP3    H126430   5.926   4.422   2.123
 8829TIP3    H226431   5.859   4.483   2.002
 8830TIP3   OH226432   0.608   7.012   4.967
 8830TIP3    H126433   0.648   7.050   5.045
 8830TIP3    H226434   0.675   6.953   4.932
 8831TIP3   OH226435   7.125   2.671   4.414
 8831TIP3    H126436   7.086   2.593   4.376
 8831TIP3    H226437   7.070   2.691   4.490
 8832TIP3   OH226438   6.883   6.224   5.728
 8832TIP3    H126439   6.973   6.194   5.716
 8832TIP3    H226440   6.892   6.316   5.754
 8833TIP3   OH226441   0.246   4.336   4.310
 8833TIP3    H126442   0.189   4.330   4.386
 8833TIP3    H226443   0.200   4.289   4.241
 8834TIP3   OH226444   7.691   1.666   2.971
 8834TIP3    H126445   7.664   1.586   2.925
 8834TIP3    H226446   7.637   1.667   3.051
 8835TIP3   OH226447   8.125   1.973   3.191
 8835TIP3    H126448   8.053   1.926   3.233
 8835TIP3    H226449   8.183   1.904   3.159
 8836TIP3   OH226450   3.476   6.595   2.699
 8836TIP3    H126451   3.421   6.528   2.659
 8836TIP3    H226452   3.415   6.665   2.722
 8837TIP3   OH226453   2.282   1.907   1.317
 8837TIP3    H126454   2.283   1.977   1.252
 8837TIP3    H226455   2.367   1.914   1.361
 8838TIP3   OH226456   0.349   1.048   0.115
 8838TIP3    H126457   0.282   1.029   0.049
 8838TIP3    H226458   0.363   0.964   0.159
 8839TIP3   OH226459   5.362   2.386   3.915
 8839TIP3    H126460   5.374   2.374   4.009
 8839TIP3    H226461   5.294   2.453   3.908
 8840TIP3   OH226462   5.187   7.543   6.371
 8840TIP3    H126463   5.259   7.485   6.345
 8840TIP3    H226464   5.164   7.590   6.291
 8841TIP3   OH226465   5.162   2.134   6.069
 8841TIP3    H126466   5.257   2.143   6.061
 8841TIP3    H226467   5.137   2.070   6.003
 8842TIP3   OH226468   6.660   0.749   5.753
 8842TIP3    H126469   6.711   0.687   5.804
 8842TIP3    H226470   6.654   0.828   5.807
 8843TIP3   OH226471   7.546   1.724   3.814
 8843TIP3    H126472   7.597   1.658   3.862
 8843TIP3    H226473   7.542   1.799   3.873
 8844TIP3   OH226474   0.027   1.990   4.278
 8844TIP3    H126475  -0.009   1.943   4.353
 8844TIP3    H226476   0.023   2.083   4.304
 8845TIP3   OH226477   3.233   2.358   5.968
 8845TIP3    H126478   3.142   2.329   5.972
 8845TIP3    H226479   3.243   2.395   5.881
 8846TIP3   OH226480   4.041   3.230   6.469
 8846TIP3    H126481   4.057   3.291   6.397
 8846TIP3    H226482   4.055   3.143   6.431
 8847TIP3   OH226483   7.595   2.933   6.212
 8847TIP3    H126484   7.501   2.918   6.222
 8847TIP3    H226485   7.623   2.970   6.295
 8848TIP3   OH226486   4.470   1.323   5.558
 8848TIP3    H126487   4.430   1.377   5.626
 8848TIP3    H226488   4.445   1.366   5.476
 8849TIP3   OH226489   3.026   1.533   2.222
 8849TIP3    H126490   3.052   1.480   2.147
 8849TIP3    H226491   2.942   1.495   2.250
 8850TIP3   OH226492   1.182   3.700   0.089
 8850TIP3    H126493   1.261   3.670   0.044
 8850TIP3    H226494   1.124   3.623   0.089
 8851TIP3   OH226495   5.456   1.692   1.528
 8851TIP3    H126496   5.397   1.733   1.465
 8851TIP3    H226497   5.490   1.615   1.482
 8852TIP3   OH226498   5.217   3.432   4.658
 8852TIP3    H126499   5.303   3.398   4.633
 8852TIP3    H226500   5.232   3.472   4.744
 8853TIP3   OH226501   6.669   1.076   6.530
 8853TIP3    H126502   6.615   0.997   6.542
 8853TIP3    H226503   6.722   1.057   6.452
 8854TIP3   OH226504   3.791   1.872   4.269
 8854TIP3    H126505   3.739   1.946   4.300
 8854TIP3    H226506   3.835   1.839   4.347
 8855TIP3   OH226507   6.014   0.787   1.095
 8855TIP3    H126508   6.009   0.847   1.021
 8855TIP3    H226509   5.935   0.805   1.146
 8856TIP3   OH226510   3.773   3.812   4.158
 8856TIP3    H126511   3.736   3.896   4.185
 8856TIP3    H226512   3.854   3.835   4.111
 8857TIP3   OH226513   4.250   2.278   0.984
 8857TIP3    H126514   4.240   2.232   1.068
 8857TIP3    H226515   4.345   2.284   0.972
 8858TIP3   OH226516   5.325   3.487   1.885
 8858TIP3    H126517   5.389   3.464   1.817
 8858TIP3    H226518   5.288   3.570   1.856
 8859TIP3   OH226519   1.395   4.183   6.242
 8859TIP3    H126520   1.436   4.268   6.229
 8859TIP3    H226521   1.350   4.190   6.327
 8860TIP3   OH226522   4.696   4.764   5.175
 8860TIP3    H126523   4.704   4.850   5.134
 8860TIP3    H226524   4.755   4.708   5.126
 8861TIP3   OH226525   4.459   3.052   4.403
 8861TIP3    H126526   4.440   2.958   4.392
 8861TIP3    H226527   4.544   3.063   4.360
 8862TIP3   OH226528   6.128   0.504   3.919
 8862TIP3    H126529   6.143   0.577   3.859
 8862TIP3    H226530   6.206   0.503   3.975
 8863TIP3   OH226531   1.618   0.547   5.639
 8863TIP3    H126532   1.607   0.460   5.599
 8863TIP3    H226533   1.659   0.600   5.570
 8864TIP3   OH226534   1.909   0.991   6.743
 8864TIP3    H126535   1.976   0.925   6.726
 8864TIP3    H226536   1.933   1.029   6.827
 8865TIP3   OH226537   1.529   5.887   5.047
 8865TIP3    H126538   1.510   5.820   5.112
 8865TIP3    H226539   1.458   5.880   4.983
 8866TIP3   OH226540   0.364   5.882   2.547
 8866TIP3    H126541   0.420   5.946   2.592
 8866TIP3    H226542   0.418   5.803   2.542
 8867TIP3   OH226543   2.451   2.771   5.181
 8867TIP3    H126544   2.417   2.807   5.098
 8867TIP3    H226545   2.510   2.839   5.214
 8868TIP3   OH226546   0.075   5.295   0.975
 8868TIP3    H126547   0.060   5.236   0.900
 8868TIP3    H226548  -0.013   5.311   1.010
 8869TIP3   OH226549   1.728   3.924   5.042
 8869TIP3    H126550   1.685   3.877   5.113
 8869TIP3    H226551   1.676   3.904   4.964
 8870TIP3   OH226552   7.454   7.670   5.869
 8870TIP3    H126553   7.476   7.710   5.785
 8870TIP3    H226554   7.490   7.730   5.934
 8871TIP3   OH226555   4.746   1.815   6.061
 8871TIP3    H126556   4.797   1.896   6.062
 8871TIP3    H226557   4.795   1.756   6.004
 8872TIP3   OH226558   6.740   4.049   1.091
 8872TIP3    H126559   6.794   4.124   1.119
 8872TIP3    H226560   6.743   3.989   1.166
 8873TIP3   OH226561   3.819   4.260   0.643
 8873TIP3    H126562   3.838   4.340   0.691
 8873TIP3    H226563   3.734   4.277   0.601
 8874TIP3   OH226564   2.075   3.598   5.965
 8874TIP3    H126565   2.070   3.600   5.869
 8874TIP3    H226566   1.984   3.586   5.993
 8875TIP3   OH226567   5.968   5.109   3.683
 8875TIP3    H126568   5.972   5.051   3.607
 8875TIP3    H226569   5.887   5.083   3.728
 8876TIP3   OH226570   5.043   6.216   0.560
 8876TIP3    H126571   5.093   6.292   0.531
 8876TIP3    H226572   5.097   6.141   0.538
 8877TIP3   OH226573   1.191   3.649   3.291
 8877TIP3    H126574   1.281   3.633   3.320
 8877TIP3    H226575   1.145   3.676   3.370
 8878TIP3   OH226576   5.738   3.015   2.280
 8878TIP3    H126577   5.740   2.919   2.283
 8878TIP3    H226578   5.769   3.043   2.366
 8879TIP3   OH226579   5.106   7.588   5.107
 8879TIP3    H126580   5.117   7.631   5.192
 8879TIP3    H226581   5.036   7.525   5.122
 8880TIP3   OH226582   0.491   1.663   0.253
 8880TIP3    H126583   0.570   1.621   0.289
 8880TIP3    H226584   0.495   1.645   0.159
 8881TIP3   OH226585   3.944   7.703   2.509
 8881TIP3    H126586   3.973   7.740   2.426
 8881TIP3    H226587   3.908   7.618   2.486
 8882TIP3   OH226588   2.119   0.021   3.434
 8882TIP3    H126589   2.109   0.116   3.427
 8882TIP3    H226590   2.076  -0.013   3.356
 8883TIP3   OH226591   1.002   5.280   1.651
 8883TIP3    H126592   1.088   5.312   1.623
 8883TIP3    H226593   0.947   5.288   1.573
 8884TIP3   OH226594   4.343   1.493   5.384
 8884TIP3    H126595   4.403   1.501   5.310
 8884TIP3    H226596   4.360   1.572   5.437
 8885TIP3   OH226597   7.916   3.036   0.475
 8885TIP3    H126598   7.886   3.013   0.387
 8885TIP3    H226599   7.975   3.110   0.462
 8886TIP3   OH226600   4.355   5.769   1.528
 8886TIP3    H126601   4.317   5.719   1.600
 8886TIP3    H226602   4.323   5.858   1.542
 8887TIP3   OH226603   3.009   0.205   4.537
 8887TIP3    H126604   2.945   0.238   4.475
 8887TIP3    H226605   3.041   0.123   4.498
 8888TIP3   OH226606   1.184   0.068   0.811
 8888TIP3    H126607   1.143   0.121   0.880
 8888TIP3    H226608   1.118   0.003   0.788
 8889TIP3   OH226609   1.528   1.011  -0.032
 8889TIP3    H126610   1.491   1.097  -0.055
 8889TIP3    H226611   1.465   0.975   0.031
 8890TIP3   OH226612   0.720   2.199   5.034
 8890TIP3    H126613   0.681   2.136   5.095
 8890TIP3    H226614   0.736   2.148   4.954
 8891TIP3   OH226615   1.553   0.067   2.721
 8891TIP3    H126616   1.585   0.036   2.636
 8891TIP3    H226617   1.625   0.047   2.782
 8892TIP3   OH226618   3.663   7.175   3.766
 8892TIP3    H126619   3.721   7.211   3.699
 8892TIP3    H226620   3.718   7.168   3.844
 8893TIP3   OH226621   3.438   5.310   0.805
 8893TIP3    H126622   3.454   5.274   0.718
 8893TIP3    H226623   3.343   5.311   0.814
 8894TIP3   OH226624   7.225   0.307   3.954
 8894TIP3    H126625   7.300   0.364   3.968
 8894TIP3    H226626   7.171   0.318   4.032
 8895TIP3   OH226627   3.541   4.168   0.401
 8895TIP3    H126628   3.488   4.112   0.345
 8895TIP3    H226629   3.592   4.222   0.340
 8896TIP3   OH226630   0.395   2.381   3.359
 8896TIP3    H126631   0.336   2.436   3.307
 8896TIP3    H226632   0.376   2.405   3.450
 8897TIP3   OH226633   7.286   1.942   5.204
 8897TIP3    H126634   7.250   1.924   5.291
 8897TIP3    H226635   7.315   1.857   5.171
 8898TIP3   OH226636   4.521   2.081   0.136
 8898TIP3    H126637   4.520   2.071   0.040
 8898TIP3    H226638   4.455   2.020   0.167
 8899TIP3   OH226639   3.291   4.023   1.751
 8899TIP3    H126640   3.345   3.944   1.756
 8899TIP3    H226641   3.204   3.993   1.778
 8900TIP3   OH226642   2.143   4.447   4.807
 8900TIP3    H126643   2.193   4.395   4.744
 8900TIP3    H226644   2.152   4.537   4.774
 8901TIP3   OH226645   1.877   6.502   3.453
 8901TIP3    H126646   1.887   6.597   3.451
 8901TIP3    H226647   1.847   6.483   3.541
 8902TIP3   OH226648   1.840   2.290   4.513
 8902TIP3    H126649   1.811   2.284   4.604
 8902TIP3    H226650   1.760   2.274   4.461
 8903TIP3   OH226651   1.998   2.241   5.171
 8903TIP3    H126652   1.980   2.272   5.259
 8903TIP3    H226653   2.066   2.175   5.182
 8904TIP3   OH226654   1.416   7.026   1.987
 8904TIP3    H126655   1.372   6.953   1.944
 8904TIP3    H226656   1.389   7.103   1.937
 8905TIP3   OH226657   4.617   6.985   0.726
 8905TIP3    H126658   4.545   6.972   0.664
 8905TIP3    H226659   4.619   6.905   0.778
 8906TIP3   OH226660   2.515   5.493   0.973
 8906TIP3    H126661   2.504   5.399   0.982
 8906TIP3    H226662   2.598   5.504   0.927
 8907TIP3   OH226663   1.936   2.769   5.306
 8907TIP3    H126664   1.974   2.824   5.236
 8907TIP3    H226665   2.006   2.708   5.329
 8908TIP3   OH226666   0.267   5.737   0.724
 8908TIP3    H126667   0.252   5.820   0.768
 8908TIP3    H226668   0.241   5.670   0.788
 8909TIP3   OH226669   6.555   2.937   0.671
 8909TIP3    H126670   6.632   2.908   0.719
 8909TIP3    H226671   6.502   2.858   0.661
 8910TIP3   OH226672   3.845   5.906   6.260
 8910TIP3    H126673   3.801   5.951   6.332
 8910TIP3    H226674   3.878   5.824   6.299
 8911TIP3   OH226675   0.075   4.187   4.152
 8911TIP3    H126676   0.073   4.106   4.202
 8911TIP3    H226677  -0.016   4.214   4.146
 8912TIP3   OH226678   6.944   0.125   3.210
 8912TIP3    H126679   6.968   0.115   3.118
 8912TIP3    H226680   6.949   0.220   3.226
 8913TIP3   OH226681   7.012   1.990   5.657
 8913TIP3    H126682   6.967   2.009   5.739
 8913TIP3    H226683   7.088   2.048   5.657
 8914TIP3   OH226684   1.091   5.957   4.159
 8914TIP3    H126685   1.030   5.901   4.112
 8914TIP3    H226686   1.168   5.962   4.103
 8915TIP3   OH226687   3.097   3.214   2.337
 8915TIP3    H126688   3.173   3.156   2.326
 8915TIP3    H226689   3.131   3.301   2.318
 8916TIP3   OH226690   0.122   7.131   6.033
 8916TIP3    H126691   0.036   7.097   6.012
 8916TIP3    H226692   0.148   7.085   6.113
 8917TIP3   OH226693   7.932   6.981   5.586
 8917TIP3    H126694   7.883   6.901   5.563
 8917TIP3    H226695   7.878   7.023   5.653
 8918TIP3   OH226696   1.466   1.446   1.992
 8918TIP3    H126697   1.541   1.440   2.051
 8918TIP3    H226698   1.478   1.376   1.929
 8919TIP3   OH226699   8.284   6.867   0.531
 8919TIP3    H126700   8.287   6.948   0.480
 8919TIP3    H226701   8.201   6.870   0.577
 8920TIP3   OH226702   0.391   1.702   5.423
 8920TIP3    H126703   0.360   1.693   5.513
 8920TIP3    H226704   0.476   1.746   5.432
 8921TIP3   OH226705   5.836   4.024   5.018
 8921TIP3    H126706   5.883   4.059   5.094
 8921TIP3    H226707   5.774   4.093   4.995
 8922TIP3   OH226708   5.799   7.814   4.229
 8922TIP3    H126709   5.780   7.800   4.321
 8922TIP3    H226710   5.774   7.732   4.186
 8923TIP3   OH226711   0.873   7.127   1.064
 8923TIP3    H126712   0.781   7.153   1.071
 8923TIP3    H226713   0.883   7.056   1.127
 8924TIP3   OH226714   3.019   5.793   2.748
 8924TIP3    H126715   3.031   5.855   2.819
 8924TIP3    H226716   2.927   5.766   2.754
 8925TIP3   OH226717   2.134   2.061   3.578
 8925TIP3    H126718   2.164   1.972   3.597
 8925TIP3    H226719   2.169   2.114   3.649
 8926TIP3   OH226720   7.621   5.336   0.415
 8926TIP3    H126721   7.706   5.316   0.375
 8926TIP3    H226722   7.637   5.416   0.466
 8927TIP3   OH226723   3.689   5.820   0.934
 8927TIP3    H126724   3.729   5.741   0.970
 8927TIP3    H226725   3.760   5.883   0.930
 8928TIP3   OH226726   5.511   2.753   0.226
 8928TIP3    H126727   5.600   2.786   0.239
 8928TIP3    H226728   5.514   2.663   0.259
 8929TIP3   OH226729   3.812   2.983   0.422
 8929TIP3    H126730   3.717   2.970   0.423
 8929TIP3    H226731   3.844   2.918   0.360
 8930TIP3   OH226732   2.221   7.208   0.911
 8930TIP3    H126733   2.249   7.243   0.827
 8930TIP3    H226734   2.133   7.242   0.923
 8931TIP3   OH226735   4.404   3.260   3.097
 8931TIP3    H126736   4.309   3.265   3.080
 8931TIP3    H226737   4.444   3.273   3.011
 8932TIP3   OH226738   4.562   0.960   2.328
 8932TIP3    H126739   4.525   0.873   2.339
 8932TIP3    H226740   4.487   1.019   2.336
 8933TIP3   OH226741   7.147   4.147   0.534
 8933TIP3    H126742   7.239   4.125   0.545
 8933TIP3    H226743   7.100   4.066   0.554
 8934TIP3   OH226744   0.594   4.183   2.215
 8934TIP3    H126745   0.627   4.095   2.236
 8934TIP3    H226746   0.642   4.208   2.136
 8935TIP3   OH226747   0.127   4.588   3.414
 8935TIP3    H126748   0.217   4.600   3.385
 8935TIP3    H226749   0.075   4.589   3.334
 8936TIP3   OH226750   0.788   4.288   0.576
 8936TIP3    H126751   0.847   4.214   0.562
 8936TIP3    H226752   0.700   4.252   0.563
 8937TIP3   OH226753   7.884   5.696   6.585
 8937TIP3    H126754   7.894   5.783   6.545
 8937TIP3    H226755   7.811   5.705   6.646
 8938TIP3   OH226756   7.335   0.725   5.135
 8938TIP3    H126757   7.423   0.695   5.115
 8938TIP3    H226758   7.305   0.666   5.205
 8939TIP3   OH226759   7.098   3.457   0.595
 8939TIP3    H126760   7.189   3.484   0.607
 8939TIP3    H226761   7.096   3.416   0.508
 8940TIP3   OH226762   8.103   4.432   4.628
 8940TIP3    H126763   8.165   4.460   4.695
 8940TIP3    H226764   8.085   4.340   4.648
 8941TIP3   OH226765   3.591   0.292   6.360
 8941TIP3    H126766   3.508   0.318   6.400
 8941TIP3    H226767   3.567   0.225   6.296
 8942TIP3   OH226768   0.739   7.342   3.228
 8942TIP3    H126769   0.724   7.425   3.275
 8942TIP3    H226770   0.833   7.328   3.234
 8943TIP3   OH226771   6.028   2.177   1.274
 8943TIP3    H126772   6.011   2.105   1.334
 8943TIP3    H226773   5.972   2.159   1.198
 8944TIP3   OH226774   1.183   2.514   1.193
 8944TIP3    H126775   1.230   2.567   1.127
 8944TIP3    H226776   1.251   2.461   1.233
 8945TIP3   OH226777   8.190   6.698   6.098
 8945TIP3    H126778   8.129   6.649   6.042
 8945TIP3    H226779   8.213   6.775   6.046
 8946TIP3   OH226780   0.649   2.996   1.305
 8946TIP3    H126781   0.675   3.079   1.346
 8946TIP3    H226782   0.718   2.934   1.329
 8947TIP3   OH226783   6.807   3.276   2.404
 8947TIP3    H126784   6.856   3.352   2.371
 8947TIP3    H226785   6.715   3.297   2.385
 8948TIP3   OH226786   3.494   1.985   6.109
 8948TIP3    H126787   3.550   1.923   6.063
 8948TIP3    H226788   3.550   2.021   6.178
 8949TIP3   OH226789   3.935   1.783   2.302
 8949TIP3    H126790   3.957   1.818   2.215
 8949TIP3    H226791   3.870   1.844   2.336
 8950TIP3   OH226792   0.111   1.717   4.847
 8950TIP3    H126793   0.076   1.801   4.877
 8950TIP3    H226794   0.205   1.723   4.863
 8951TIP3   OH226795   0.611   1.182   3.117
 8951TIP3    H126796   0.684   1.135   3.156
 8951TIP3    H226797   0.644   1.210   3.032
 8952TIP3   OH226798   0.562   6.205   5.531
 8952TIP3    H126799   0.542   6.132   5.590
 8952TIP3    H226800   0.646   6.182   5.492
 8953TIP3   OH226801   1.003   2.704   2.639
 8953TIP3    H126802   1.010   2.768   2.568
 8953TIP3    H226803   0.969   2.625   2.596
 8954TIP3   OH226804   0.884   6.496   1.208
 8954TIP3    H126805   0.862   6.547   1.286
 8954TIP3    H226806   0.800   6.478   1.166
 8955TIP3   OH226807   3.556   3.518   2.928
 8955TIP3    H126808   3.555   3.551   2.838
 8955TIP3    H226809   3.497   3.443   2.926
 8956TIP3   OH226810   3.488   7.450   3.785
 8956TIP3    H126811   3.561   7.388   3.784
 8956TIP3    H226812   3.412   7.398   3.758
 8957TIP3   OH226813   3.598   4.538   5.439
 8957TIP3    H126814   3.567   4.574   5.356
 8957TIP3    H226815   3.668   4.597   5.466
 8958TIP3   OH226816   6.426   1.434   5.695
 8958TIP3    H126817   6.494   1.485   5.651
 8958TIP3    H226818   6.360   1.499   5.720
 8959TIP3   OH226819   6.270   3.921   0.742
 8959TIP3    H126820   6.365   3.927   0.737
 8959TIP3    H226821   6.240   4.012   0.747
 8960TIP3   OH226822   7.389   7.296   0.258
 8960TIP3    H126823   7.337   7.311   0.338
 8960TIP3    H226824   7.361   7.365   0.198
 8961TIP3   OH226825   3.024   6.335   1.802
 8961TIP3    H126826   3.110   6.347   1.842
 8961TIP3    H226827   3.031   6.378   1.717
 8962TIP3   OH226828   5.962   6.869   6.148
 8962TIP3    H126829   6.050   6.902   6.169
 8962TIP3    H226830   5.973   6.775   6.139
 8963TIP3   OH226831   6.444   2.930   4.341
 8963TIP3    H126832   6.391   2.971   4.273
 8963TIP3    H226833   6.486   2.856   4.298
 8964TIP3   OH226834   4.808   0.075   1.995
 8964TIP3    H126835   4.714   0.075   1.975
 8964TIP3    H226836   4.834  -0.017   1.987
 8965TIP3   OH226837   7.793   7.540   2.366
 8965TIP3    H126838   7.806   7.606   2.298
 8965TIP3    H226839   7.868   7.482   2.358
 8966TIP3   OH226840   2.166   6.150   3.211
 8966TIP3    H126841   2.185   6.088   3.282
 8966TIP3    H226842   2.145   6.095   3.136
 8967TIP3   OH226843   0.189   2.649   0.893
 8967TIP3    H126844   0.173   2.563   0.854
 8967TIP3    H226845   0.264   2.635   0.952
 8968TIP3   OH226846   2.147   1.000   5.837
 8968TIP3    H126847   2.161   0.935   5.769
 8968TIP3    H226848   2.087   1.064   5.797
 8969TIP3   OH226849   0.292   3.420   4.971
 8969TIP3    H126850   0.217   3.458   5.018
 8969TIP3    H226851   0.333   3.363   5.035
 8970TIP3   OH226852   7.046   5.880   2.798
 8970TIP3    H126853   7.042   5.828   2.718
 8970TIP3    H226854   7.089   5.962   2.770
 8971TIP3   OH226855   3.825   6.866   3.272
 8971TIP3    H126856   3.854   6.956   3.268
 8971TIP3    H226857   3.896   6.819   3.315
 8972TIP3   OH226858   1.979   0.801   4.821
 8972TIP3    H126859   1.885   0.795   4.840
 8972TIP3    H226860   2.008   0.879   4.868
 8973TIP3   OH226861   6.702   3.432   5.087
 8973TIP3    H126862   6.635   3.497   5.108
 8973TIP3    H226863   6.683   3.358   5.144
 8974TIP3   OH226864   5.340   3.142   3.821
 8974TIP3    H126865   5.254   3.164   3.785
 8974TIP3    H226866   5.385   3.097   3.749
 8975TIP3   OH226867   6.723   2.253   1.196
 8975TIP3    H126868   6.682   2.185   1.143
 8975TIP3    H226869   6.689   2.335   1.160
 8976TIP3   OH226870   3.174   2.638   1.345
 8976TIP3    H126871   3.243   2.668   1.405
 8976TIP3    H226872   3.205   2.553   1.314
 8977TIP3   OH226873   1.326   3.290   3.754
 8977TIP3    H126874   1.280   3.232   3.815
 8977TIP3    H226875   1.258   3.349   3.722
 8978TIP3   OH226876   6.528   3.487   0.724
 8978TIP3    H126877   6.446   3.441   0.707
 8978TIP3    H226878   6.596   3.420   0.714
 8979TIP3   OH226879   3.176   7.802   4.278
 8979TIP3    H126880   3.085   7.830   4.287
 8979TIP3    H226881   3.214   7.866   4.217
 8980TIP3   OH226882   0.405   4.595   1.162
 8980TIP3    H126883   0.433   4.504   1.151
 8980TIP3    H226884   0.394   4.605   1.257
 8981TIP3   OH226885   4.850   4.610   0.167
 8981TIP3    H126886   4.869   4.628   0.074
 8981TIP3    H226887   4.763   4.646   0.181
 8982TIP3   OH226888   3.454   3.022   6.440
 8982TIP3    H126889   3.455   2.951   6.504
 8982TIP3    H226890   3.541   3.062   6.448
 8983TIP3   OH226891   7.020   6.055   3.521
 8983TIP3    H126892   6.942   6.079   3.571
 8983TIP3    H226893   7.010   6.099   3.437
 8984TIP3   OH226894   1.248   4.072   2.013
 8984TIP3    H126895   1.224   4.026   1.933
 8984TIP3    H226896   1.176   4.132   2.029
 8985TIP3   OH226897   8.260   5.934   3.264
 8985TIP3    H126898   8.338   5.932   3.320
 8985TIP3    H226899   8.294   5.958   3.178
 8986TIP3   OH226900   3.637   0.711   0.648
 8986TIP3    H126901   3.714   0.731   0.594
 8986TIP3    H226902   3.620   0.619   0.631
 8987TIP3   OH226903   2.953   4.874   4.853
 8987TIP3    H126904   3.041   4.861   4.818
 8987TIP3    H226905   2.904   4.912   4.780
 8988TIP3   OH226906   0.484   4.407   6.134
 8988TIP3    H126907   0.533   4.488   6.146
 8988TIP3    H226908   0.547   4.346   6.097
 8989TIP3   OH226909   7.704  -0.009   1.221
 8989TIP3    H126910   7.668   0.073   1.255
 8989TIP3    H226911   7.776   0.018   1.164
 8990TIP3   OH226912   4.131   2.184   6.268
 8990TIP3    H126913   4.127   2.213   6.177
 8990TIP3    H226914   4.218   2.145   6.278
 8991TIP3   OH226915   6.574   3.716   2.570
 8991TIP3    H126916   6.490   3.684   2.603
 8991TIP3    H226917   6.580   3.806   2.604
 8992TIP3   OH226918   2.914   4.923   5.976
 8992TIP3    H126919   2.996   4.876   5.988
 8992TIP3    H226920   2.908   4.979   6.054
 8993TIP3   OH226921   3.142   1.695   6.180
 8993TIP3    H126922   3.151   1.731   6.268
 8993TIP3    H226923   3.210   1.627   6.175
 8994TIP3   OH226924   8.262   7.370   0.929
 8994TIP3    H126925   8.286   7.278   0.923
 8994TIP3    H226926   8.229   7.381   1.018
 8995TIP3   OH226927   6.394   5.248   4.687
 8995TIP3    H126928   6.455   5.313   4.723
 8995TIP3    H226929   6.309   5.292   4.688
 8996TIP3   OH226930   5.454   5.270   0.375
 8996TIP3    H126931   5.384   5.290   0.313
 8996TIP3    H226932   5.525   5.237   0.321
 8997TIP3   OH226933   2.829   2.431   0.807
 8997TIP3    H126934   2.898   2.478   0.760
 8997TIP3    H226935   2.756   2.492   0.811
 8998TIP3   OH226936   0.828   1.505   4.566
 8998TIP3    H126937   0.764   1.511   4.495
 8998TIP3    H226938   0.890   1.438   4.535
 8999TIP3   OH226939   0.302   3.114   3.514
 8999TIP3    H126940   0.317   3.208   3.500
 8999TIP3    H226941   0.387   3.081   3.543
 9000TIP3   OH226942   4.200   3.469   5.778
 9000TIP3    H126943   4.204   3.563   5.795
 9000TIP3    H226944   4.290   3.438   5.788
 9001TIP3   OH226945   4.635   1.007   3.744
 9001TIP3    H126946   4.691   0.937   3.775
 9001TIP3    H226947   4.682   1.045   3.670
 9002TIP3   OH226948   1.805   1.589   2.377
 9002TIP3    H126949   1.890   1.549   2.358
 9002TIP3    H226950   1.816   1.680   2.352
 9003TIP3   OH226951   0.901   6.673   6.295
 9003TIP3    H126952   0.959   6.749   6.290
 9003TIP3    H226953   0.876   6.667   6.387
 9004TIP3   OH226954   3.435   1.523   2.017
 9004TIP3    H126955   3.402   1.542   2.104
 9004TIP3    H226956   3.356   1.515   1.963
 9005TIP3   OH226957   8.323   1.160  -0.033
 9005TIP3    H126958   8.316   1.075  -0.077
 9005TIP3    H226959   8.333   1.138   0.060
 9006TIP3   OH226960   5.655   6.338   5.176
 9006TIP3    H126961   5.604   6.297   5.106
 9006TIP3    H226962   5.615   6.307   5.256
 9007TIP3   OH226963   2.478   2.463   6.542
 9007TIP3    H126964   2.498   2.497   6.629
 9007TIP3    H226965   2.404   2.515   6.512
 9008TIP3   OH226966   7.820   2.834   6.606
 9008TIP3    H126967   7.908   2.835   6.646
 9008TIP3    H226968   7.804   2.742   6.585
 9009TIP3   OH226969   5.276   3.218   2.196
 9009TIP3    H126970   5.326   3.294   2.227
 9009TIP3    H226971   5.314   3.144   2.244
 9010TIP3   OH226972   5.776   0.769   3.391
 9010TIP3    H126973   5.708   0.790   3.454
 9010TIP3    H226974   5.858   0.790   3.436
 9011TIP3   OH226975   5.821   5.211   6.172
 9011TIP3    H126976   5.836   5.178   6.083
 9011TIP3    H226977   5.743   5.163   6.202
 9012TIP3   OH226978   5.357   6.403   4.155
 9012TIP3    H126979   5.335   6.489   4.189
 9012TIP3    H226980   5.273   6.357   4.151
 9013TIP3   OH226981   4.834   6.835   1.078
 9013TIP3    H126982   4.778   6.791   1.014
 9013TIP3    H226983   4.848   6.922   1.040
 9014TIP3   OH226984   7.187   1.494   4.503
 9014TIP3    H126985   7.170   1.399   4.505
 9014TIP3    H226986   7.282   1.502   4.493
 9015TIP3   OH226987   4.073   7.568   6.543
 9015TIP3    H126988   4.051   7.623   6.468
 9015TIP3    H226989   4.115   7.626   6.605
 9016TIP3   OH226990   0.462   3.782   4.417
 9016TIP3    H126991   0.401   3.711   4.438
 9016TIP3    H226992   0.474   3.775   4.322
 9017TIP3   OH226993   6.532   5.077   3.146
 9017TIP3    H126994   6.616   5.038   3.172
 9017TIP3    H226995   6.549   5.171   3.144
 9018TIP3   OH226996   4.433   3.466   6.394
 9018TIP3    H126997   4.453   3.538   6.334
 9018TIP3    H226998   4.413   3.392   6.337
 9019TIP3   OH226999   0.196   0.548   6.353
 9019TIP3    H127000   0.222   0.585   6.437
 9019TIP3    H227001   0.124   0.603   6.324
 9020TIP3   OH227002   4.207   3.850   0.395
 9020TIP3    H127003   4.208   3.870   0.489
 9020TIP3    H227004   4.290   3.886   0.363
 9021TIP3   OH227005   8.019   5.362   4.207
 9021TIP3    H127006   8.081   5.433   4.186
 9021TIP3    H227007   7.935   5.393   4.172
 9022TIP3   OH227008   4.115   2.836   6.083
 9022TIP3    H127009   4.139   2.842   5.990
 9022TIP3    H227010   4.043   2.897   6.093
 9023TIP3   OH227011   5.906   0.650   1.597
 9023TIP3    H127012   5.897   0.716   1.666
 9023TIP3    H227013   5.981   0.598   1.624
 9024TIP3   OH227014   6.373   5.851   0.632
 9024TIP3    H127015   6.412   5.818   0.713
 9024TIP3    H227016   6.319   5.778   0.600
 9025TIP3   OH227017   1.985   4.360   5.792
 9025TIP3    H127018   1.945   4.367   5.706
 9025TIP3    H227019   2.034   4.442   5.802
 9026TIP3   OH227020   6.815   1.565   3.401
 9026TIP3    H127021   6.790   1.585   3.311
 9026TIP3    H227022   6.733   1.553   3.448
 9027TIP3   OH227023   0.174   7.357  -0.054
 9027TIP3    H127024   0.161   7.425   0.012
 9027TIP3    H227025   0.219   7.286  -0.007
 9028TIP3   OH227026   5.617   4.204   4.949
 9028TIP3    H127027   5.582   4.263   4.883
 9028TIP3    H227028   5.614   4.254   5.030
 9029TIP3   OH227029   1.196   2.739   0.564
 9029TIP3    H127030   1.234   2.819   0.529
 9029TIP3    H227031   1.132   2.712   0.498
 9030TIP3   OH227032   0.555   4.981   5.813
 9030TIP3    H127033   0.474   4.950   5.773
 9030TIP3    H227034   0.578   5.059   5.763
 9031TIP3   OH227035   3.400   4.887   6.768
 9031TIP3    H127036   3.412   4.973   6.726
 9031TIP3    H227037   3.310   4.889   6.800
 9032TIP3   OH227038   3.779   3.777   5.382
 9032TIP3    H127039   3.844   3.806   5.318
 9032TIP3    H227040   3.723   3.717   5.333
 9033TIP3   OH227041   0.065   3.925   6.836
 9033TIP3    H127042   0.018   3.997   6.794
 9033TIP3    H227043   0.152   3.927   6.798
 9034TIP3   OH227044   5.907   0.349   2.873
 9034TIP3    H127045   5.815   0.339   2.896
 9034TIP3    H227046   5.908   0.351   2.778
 9035TIP3   OH227047   1.242   0.451   5.429
 9035TIP3    H127048   1.160   0.418   5.394
 9035TIP3    H227049   1.298   0.462   5.352
 9036TIP3   OH227050   0.918   7.053   5.048
 9036TIP3    H127051   0.968   7.131   5.071
 9036TIP3    H227052   0.843   7.054   5.108
 9037TIP3   OH227053   0.859   1.915   4.115
 9037TIP3    H127054   0.867   1.979   4.043
 9037TIP3    H227055   0.765   1.899   4.121
 9038TIP3   OH227056   6.076   6.428   1.692
 9038TIP3    H127057   6.086   6.523   1.702
 9038TIP3    H227058   6.065   6.415   1.598
 9039TIP3   OH227059   4.629   2.159   3.613
 9039TIP3    H127060   4.645   2.092   3.680
 9039TIP3    H227061   4.670   2.238   3.649
 9040TIP3   OH227062   3.990   3.888   6.346
 9040TIP3    H127063   4.012   3.867   6.255
 9040TIP3    H227064   3.972   3.803   6.386
 9041TIP3   OH227065   0.700   6.353   1.895
 9041TIP3    H127066   0.687   6.419   1.963
 9041TIP3    H227067   0.706   6.402   1.814
 9042TIP3   OH227068   5.095   1.599   3.405
 9042TIP3    H127069   5.113   1.606   3.311
 9042TIP3    H227070   5.105   1.506   3.424
 9043TIP3   OH227071   5.947   4.122   4.109
 9043TIP3    H127072   6.004   4.092   4.039
 9043TIP3    H227073   6.005   4.137   4.183
 9044TIP3   OH227074   1.499   4.303   1.087
 9044TIP3    H127075   1.456   4.246   1.022
 9044TIP3    H227076   1.470   4.269   1.171
 9045TIP3   OH227077   1.188   7.025   2.740
 9045TIP3    H127078   1.254   7.004   2.805
 9045TIP3    H227079   1.203   7.118   2.720
 9046TIP3   OH227080   7.255   2.358   5.566
 9046TIP3    H127081   7.255   2.292   5.635
 9046TIP3    H227082   7.172   2.405   5.579
 9047TIP3   OH227083   2.237   3.385   1.448
 9047TIP3    H127084   2.186   3.438   1.386
 9047TIP3    H227085   2.222   3.425   1.533
 9048TIP3   OH227086   4.547   2.068   6.409
 9048TIP3    H127087   4.615   2.032   6.466
 9048TIP3    H227088   4.594   2.121   6.345
 9049TIP3   OH227089   7.969   4.132   6.812
 9049TIP3    H127090   7.886   4.170   6.841
 9049TIP3    H227091   7.945   4.050   6.769
 9050TIP3   OH227092   8.145   4.778   6.080
 9050TIP3    H127093   8.170   4.692   6.113
 9050TIP3    H227094   8.063   4.798   6.126
 9051TIP3   OH227095   2.636   6.291   5.151
 9051TIP3    H127096   2.602   6.235   5.081
 9051TIP3    H227097   2.561   6.307   5.208
 9052TIP3   OH227098   1.829   3.928   0.213
 9052TIP3    H127099   1.813   3.838   0.185
 9052TIP3    H227100   1.792   3.933   0.301
 9053TIP3   OH227101   4.599   3.638   0.686
 9053TIP3    H127102   4.568   3.651   0.596
 9053TIP3    H227103   4.533   3.582   0.727
 9054TIP3   OH227104   7.405   6.672   3.369
 9054TIP3    H127105   7.313   6.645   3.365
 9054TIP3    H227106   7.450   6.611   3.310
 9055TIP3   OH227107   5.632   1.500   1.300
 9055TIP3    H127108   5.542   1.473   1.317
 9055TIP3    H227109   5.685   1.446   1.358
 9056TIP3   OH227110   4.685   4.728   6.621
 9056TIP3    H127111   4.764   4.767   6.583
 9056TIP3    H227112   4.682   4.762   6.710
 9057TIP3   OH227113   4.331   2.782   0.101
 9057TIP3    H127114   4.310   2.699   0.057
 9057TIP3    H227115   4.246   2.817   0.127
 9058TIP3   OH227116   6.798   5.839   4.389
 9058TIP3    H127117   6.846   5.898   4.330
 9058TIP3    H227118   6.814   5.874   4.476
 9059TIP3   OH227119   1.707   2.774   0.777
 9059TIP3    H127120   1.777   2.712   0.758
 9059TIP3    H227121   1.639   2.722   0.820
 9060TIP3   OH227122   6.813   3.816   3.806
 9060TIP3    H127123   6.872   3.884   3.839
 9060TIP3    H227124   6.727   3.857   3.805
 9061TIP3   OH227125   2.745   4.515   0.687
 9061TIP3    H127126   2.814   4.469   0.639
 9061TIP3    H227127   2.790   4.587   0.731
 9062TIP3   OH227128   4.136   4.149   0.866
 9062TIP3    H127129   4.144   4.190   0.780
 9062TIP3    H227130   4.140   4.222   0.928
 9063TIP3   OH227131   3.334   2.459   3.720
 9063TIP3    H127132   3.253   2.494   3.756
 9063TIP3    H227133   3.306   2.401   3.649
 9064TIP3   OH227134   6.782   4.046   2.356
 9064TIP3    H127135   6.695   4.077   2.330
 9064TIP3    H227136   6.773   4.021   2.448
 9065TIP3   OH227137   5.827   1.491   2.365
 9065TIP3    H127138   5.896   1.426   2.373
 9065TIP3    H227139   5.745   1.443   2.379
 9066TIP3   OH227140   0.194   4.855   0.125
 9066TIP3    H127141   0.222   4.765   0.111
 9066TIP3    H227142   0.151   4.880   0.043
 9067TIP3   OH227143   2.396   4.582   5.011
 9067TIP3    H127144   2.407   4.555   4.920
 9067TIP3    H227145   2.437   4.669   5.015
 9068TIP3   OH227146   4.025   6.644   4.544
 9068TIP3    H127147   4.022   6.644   4.448
 9068TIP3    H227148   3.936   6.670   4.570
 9069TIP3   OH227149   4.586   3.768   3.474
 9069TIP3    H127150   4.638   3.731   3.402
 9069TIP3    H227151   4.582   3.861   3.455
 9070TIP3   OH227152   4.636   0.135   0.739
 9070TIP3    H127153   4.582   0.210   0.767
 9070TIP3    H227154   4.725   0.170   0.736
 9071TIP3   OH227155   6.635   2.041   3.237
 9071TIP3    H127156   6.626   2.117   3.180
 9071TIP3    H227157   6.729   2.024   3.241
 9072TIP3   OH227158   0.890   4.629   3.443
 9072TIP3    H127159   0.972   4.580   3.451
 9072TIP3    H227160   0.904   4.707   3.496
 9073TIP3   OH227161   6.935   2.042   1.476
 9073TIP3    H127162   6.886   2.099   1.536
 9073TIP3    H227163   7.023   2.038   1.512
 9074TIP3   OH227164   5.313   0.252   6.405
 9074TIP3    H127165   5.268   0.234   6.488
 9074TIP3    H227166   5.275   0.335   6.375
 9075TIP3   OH227167   0.167   0.581   4.185
 9075TIP3    H127168   0.075   0.604   4.179
 9075TIP3    H227169   0.170   0.487   4.167
 9076TIP3   OH227170   5.298   7.696   6.008
 9076TIP3    H127171   5.212   7.679   6.045
 9076TIP3    H227172   5.343   7.748   6.074
 9077TIP3   OH227173   4.096   1.192   5.270
 9077TIP3    H127174   4.039   1.135   5.218
 9077TIP3    H227175   4.065   1.181   5.360
 9078TIP3   OH227176   6.374   4.511   4.236
 9078TIP3    H127177   6.375   4.460   4.318
 9078TIP3    H227178   6.427   4.460   4.175
 9079TIP3   OH227179   7.768   6.701   4.363
 9079TIP3    H127180   7.840   6.747   4.407
 9079TIP3    H227181   7.730   6.767   4.305
 9080TIP3   OH227182   1.212   6.341   0.053
 9080TIP3    H127183   1.264   6.396   0.112
 9080TIP3    H227184   1.133   6.392   0.036
 9081TIP3   OH227185   0.154   6.088   3.819
 9081TIP3    H127186   0.094   6.079   3.746
 9081TIP3    H227187   0.109   6.046   3.892
 9082TIP3   OH227188   7.930   4.907   3.665
 9082TIP3    H127189   8.020   4.897   3.633
 9082TIP3    H227190   7.885   4.829   3.632
 9083TIP3   OH227191   6.194   5.739   2.823
 9083TIP3    H127192   6.151   5.808   2.873
 9083TIP3    H227193   6.287   5.746   2.845
 9084TIP3   OH227194   3.034   7.139   0.163
 9084TIP3    H127195   2.975   7.213   0.179
 9084TIP3    H227196   3.113   7.179   0.127
 9085TIP3   OH227197   3.019   2.002   5.355
 9085TIP3    H127198   2.939   1.958   5.382
 9085TIP3    H227199   2.990   2.084   5.315
 9086TIP3   OH227200   1.583   4.684   1.530
 9086TIP3    H127201   1.655   4.718   1.583
 9086TIP3    H227202   1.578   4.743   1.455
 9087TIP3   OH227203   0.790   6.334   4.693
 9087TIP3    H127204   0.721   6.340   4.628
 9087TIP3    H227205   0.816   6.242   4.694
 9088TIP3   OH227206   6.382   1.726   1.769
 9088TIP3    H127207   6.298   1.766   1.745
 9088TIP3    H227208   6.435   1.731   1.690
 9089TIP3   OH227209   4.060   6.573   6.276
 9089TIP3    H127210   3.992   6.640   6.284
 9089TIP3    H227211   4.138   6.620   6.246
 9090TIP3   OH227212   4.668   7.053   5.170
 9090TIP3    H127213   4.755   7.088   5.190
 9090TIP3    H227214   4.657   7.068   5.076
 9091TIP3   OH227215   0.665   5.734   2.846
 9091TIP3    H127216   0.615   5.665   2.803
 9091TIP3    H227217   0.718   5.773   2.776
 9092TIP3   OH227218   3.256   3.716   2.490
 9092TIP3    H127219   3.235   3.689   2.580
 9092TIP3    H227220   3.221   3.805   2.483
 9093TIP3   OH227221   1.730   5.243   4.998
 9093TIP3    H127222   1.651   5.200   5.032
 9093TIP3    H227223   1.700   5.290   4.920
 9094TIP3   OH227224   0.492   1.286   5.993
 9094TIP3    H127225   0.473   1.329   5.910
 9094TIP3    H227226   0.509   1.194   5.969
 9095TIP3   OH227227   5.638   5.752   2.184
 9095TIP3    H127228   5.663   5.743   2.093
 9095TIP3    H227229   5.622   5.662   2.214
 9096TIP3   OH227230   2.669   2.615   5.682
 9096TIP3    H127231   2.721   2.628   5.762
 9096TIP3    H227232   2.610   2.691   5.679
 9097TIP3   OH227233   7.490   2.641   1.208
 9097TIP3    H127234   7.464   2.571   1.148
 9097TIP3    H227235   7.417   2.648   1.270
 9098TIP3   OH227236   1.270   1.337   4.771
 9098TIP3    H127237   1.239   1.388   4.696
 9098TIP3    H227238   1.339   1.281   4.735
 9099TIP3   OH227239   4.574   4.523   0.249
 9099TIP3    H127240   4.631   4.454   0.214
 9099TIP3    H227241   4.516   4.545   0.176
 9100TIP3   OH227242   4.871   4.151   3.770
 9100TIP3    H127243   4.955   4.158   3.815
 9100TIP3    H227244   4.835   4.240   3.771
 9101TIP3   OH227245   1.420   2.436   1.345
 9101TIP3    H127246   1.446   2.465   1.433
 9101TIP3    H227247   1.462   2.351   1.335
 9102TIP3   OH227248   6.704   3.683   6.715
 9102TIP3    H127249   6.783   3.668   6.663
 9102TIP3    H227250   6.634   3.641   6.664
 9103TIP3   OH227251   7.373   6.943   0.332
 9103TIP3    H127252   7.297   6.988   0.294
 9103TIP3    H227253   7.366   6.853   0.298
 9104TIP3   OH227254   7.392   5.878   2.568
 9104TIP3    H127255   7.439   5.896   2.649
 9104TIP3    H227256   7.320   5.941   2.568
 9105TIP3   OH227257   5.965   7.387   5.527
 9105TIP3    H127258   5.981   7.298   5.496
 9105TIP3    H227259   5.872   7.402   5.508
 9106TIP3   OH227260   0.699   2.734   5.023
 9106TIP3    H127261   0.730   2.646   5.000
 9106TIP3    H227262   0.634   2.755   4.957
 9107TIP3   OH227263   3.349   3.350   2.901
 9107TIP3    H127264   3.329   3.316   2.814
 9107TIP3    H227265   3.349   3.273   2.957
 9108TIP3   OH227266   2.452   4.833   4.783
 9108TIP3    H127267   2.474   4.914   4.737
 9108TIP3    H227268   2.507   4.835   4.862
 9109TIP3   OH227269   6.551   7.134   2.648
 9109TIP3    H127270   6.490   7.203   2.675
 9109TIP3    H227271   6.543   7.068   2.717
 9110TIP3   OH227272   8.197   6.388   2.236
 9110TIP3    H127273   8.137   6.402   2.310
 9110TIP3    H227274   8.218   6.476   2.206
 9111TIP3   OH227275   1.741   6.363   6.236
 9111TIP3    H127276   1.663   6.308   6.231
 9111TIP3    H227277   1.772   6.370   6.145
 9112TIP3   OH227278   1.982   2.157   3.884
 9112TIP3    H127279   2.058   2.105   3.859
 9112TIP3    H227280   1.970   2.138   3.977
 9113TIP3   OH227281   1.223   6.621   0.212
 9113TIP3    H127282   1.307   6.574   0.212
 9113TIP3    H227283   1.246   6.712   0.226
 9114TIP3   OH227284   3.336   7.611   1.056
 9114TIP3    H127285   3.395   7.686   1.048
 9114TIP3    H227286   3.370   7.562   1.130
 9115TIP3   OH227287   4.869   0.579   4.675
 9115TIP3    H127288   4.923   0.534   4.740
 9115TIP3    H227289   4.779   0.569   4.707
 9116TIP3   OH227290   0.830   1.017   3.891
 9116TIP3    H127291   0.755   1.069   3.917
 9116TIP3    H227292   0.896   1.033   3.958
 9117TIP3   OH227293   5.988   1.654   1.658
 9117TIP3    H127294   6.015   1.728   1.603
 9117TIP3    H227295   5.972   1.692   1.744
 9118TIP3   OH227296   1.067   3.136   1.855
 9118TIP3    H127297   0.977   3.166   1.842
 9118TIP3    H227298   1.063   3.042   1.839
 9119TIP3   OH227299   5.789   5.238   0.733
 9119TIP3    H127300   5.711   5.184   0.719
 9119TIP3    H227301   5.757   5.316   0.778
 9120TIP3   OH227302   7.843   4.632   6.638
 9120TIP3    H127303   7.816   4.711   6.686
 9120TIP3    H227304   7.938   4.631   6.645
 9121TIP3   OH227305   4.910   3.870   4.504
 9121TIP3    H127306   4.959   3.864   4.585
 9121TIP3    H227307   4.893   3.779   4.479
 9122TIP3   OH227308   5.600   3.069   6.383
 9122TIP3    H127309   5.571   2.980   6.404
 9122TIP3    H227310   5.534   3.101   6.321
 9123TIP3   OH227311   0.355   2.692   0.280
 9123TIP3    H127312   0.336   2.640   0.358
 9123TIP3    H227313   0.274   2.688   0.228
 9124TIP3   OH227314   2.885   0.151   6.210
 9124TIP3    H127315   2.963   0.134   6.262
 9124TIP3    H227316   2.834   0.070   6.216
 9125TIP3   OH227317   8.217   4.721   6.447
 9125TIP3    H127318   8.209   4.813   6.421
 9125TIP3    H227319   8.146   4.677   6.401
 9126TIP3   OH227320   4.267   2.587   0.354
 9126TIP3    H127321   4.362   2.586   0.345
 9126TIP3    H227322   4.243   2.679   0.342
 9127TIP3   OH227323   2.735   0.664   5.397
 9127TIP3    H127324   2.743   0.602   5.324
 9127TIP3    H227325   2.814   0.718   5.391
 9128TIP3   OH227326   1.909   1.829   2.328
 9128TIP3    H127327   1.988   1.781   2.304
 9128TIP3    H227328   1.940   1.907   2.373
 9129TIP3   OH227329   7.353   4.040   3.812
 9129TIP3    H127330   7.420   4.015   3.749
 9129TIP3    H227331   7.365   4.134   3.825
 9130TIP3   OH227332   6.416   2.427   3.364
 9130TIP3    H127333   6.454   2.514   3.374
 9130TIP3    H227334   6.332   2.443   3.319
 9131TIP3   OH227335   4.960   7.313   5.416
 9131TIP3    H127336   4.914   7.386   5.458
 9131TIP3    H227337   4.962   7.244   5.482
 9132TIP3   OH227338   5.779   5.421   1.404
 9132TIP3    H127339   5.705   5.364   1.387
 9132TIP3    H227340   5.742   5.494   1.455
 9133TIP3   OH227341   5.620   5.833   0.834
 9133TIP3    H127342   5.693   5.895   0.837
 9133TIP3    H227343   5.604   5.820   0.740
 9134TIP3   OH227344   0.136   5.447   3.919
 9134TIP3    H127345   0.120   5.494   4.000
 9134TIP3    H227346   0.180   5.366   3.947
 9135TIP3   OH227347   2.787   4.529   6.044
 9135TIP3    H127348   2.832   4.493   5.968
 9135TIP3    H227349   2.842   4.505   6.119
 9136TIP3   OH227350   1.726   6.158   2.797
 9136TIP3    H127351   1.658   6.220   2.770
 9136TIP3    H227352   1.730   6.166   2.892
 9137TIP3   OH227353   4.911   4.409   2.217
 9137TIP3    H127354   4.872   4.392   2.132
 9137TIP3    H227355   4.921   4.505   2.221
 9138TIP3   OH227356   2.370   2.916   4.951
 9138TIP3    H127357   2.319   2.953   4.879
 9138TIP3    H227358   2.452   2.887   4.911
 9139TIP3   OH227359   2.392   6.928   5.166
 9139TIP3    H127360   2.394   7.001   5.103
 9139TIP3    H227361   2.360   6.967   5.247
 9140TIP3   OH227362   0.962   5.946   2.460
 9140TIP3    H127363   1.043   5.976   2.502
 9140TIP3    H227364   0.990   5.912   2.375
 9141TIP3   OH227365   0.947   4.812   0.808
 9141TIP3    H127366   0.859   4.830   0.841
 9141TIP3    H227367   0.962   4.878   0.740
 9142TIP3   OH227368   5.822   2.420   0.333
 9142TIP3    H127369   5.756   2.470   0.381
 9142TIP3    H227370   5.847   2.477   0.261
 9143TIP3   OH227371   0.624   2.520   3.371
 9143TIP3    H127372   0.661   2.573   3.442
 9143TIP3    H227373   0.550   2.474   3.412
 9144TIP3   OH227374   3.196   1.785   2.456
 9144TIP3    H127375   3.242   1.747   2.381
 9144TIP3    H227376   3.242   1.749   2.532
 9145TIP3   OH227377   5.204   5.851   2.814
 9145TIP3    H127378   5.167   5.912   2.750
 9145TIP3    H227379   5.294   5.837   2.784
 9146TIP3   OH227380   1.963   2.036   2.557
 9146TIP3    H127381   1.990   1.972   2.623
 9146TIP3    H227382   1.998   2.119   2.589
 9147TIP3   OH227383   3.643   1.761   4.887
 9147TIP3    H127384   3.560   1.716   4.903
 9147TIP3    H227385   3.620   1.836   4.832
 9148TIP3   OH227386   5.059   2.079   3.481
 9148TIP3    H127387   5.127   2.108   3.541
 9148TIP3    H227388   5.057   1.984   3.490
 9149TIP3   OH227389   5.803   2.379   3.578
 9149TIP3    H127390   5.807   2.284   3.584
 9149TIP3    H227391   5.741   2.405   3.647
 9150TIP3   OH227392   7.227   5.878   3.530
 9150TIP3    H127393   7.172   5.953   3.509
 9150TIP3    H227394   7.188   5.805   3.482
 9151TIP3   OH227395   5.052   0.592   6.770
 9151TIP3    H127396   5.122   0.557   6.826
 9151TIP3    H227397   4.985   0.524   6.770
 9152TIP3   OH227398   6.950   4.491   4.564
 9152TIP3    H127399   7.014   4.438   4.612
 9152TIP3    H227400   6.884   4.513   4.629
 9153TIP3   OH227401   3.603   2.877   2.092
 9153TIP3    H127402   3.508   2.869   2.084
 9153TIP3    H227403   3.617   2.966   2.124
 9154TIP3   OH227404   3.618   4.046   3.947
 9154TIP3    H127405   3.649   4.068   4.035
 9154TIP3    H227406   3.684   4.085   3.888
 9155TIP3   OH227407   1.213   1.861   2.089
 9155TIP3    H127408   1.237   1.768   2.098
 9155TIP3    H227409   1.120   1.860   2.065
 9156TIP3   OH227410   5.867   6.636   2.577
 9156TIP3    H127411   5.783   6.683   2.575
 9156TIP3    H227412   5.932   6.702   2.553
 9157TIP3   OH227413   3.829   7.057   6.424
 9157TIP3    H127414   3.763   7.080   6.358
 9157TIP3    H227415   3.802   7.105   6.502
 9158TIP3   OH227416   1.239   5.788   0.388
 9158TIP3    H127417   1.324   5.831   0.382
 9158TIP3    H227418   1.185   5.835   0.323
 9159TIP3   OH227419   3.591   7.385   6.066
 9159TIP3    H127420   3.553   7.451   6.007
 9159TIP3    H227421   3.590   7.428   6.152
 9160TIP3   OH227422   2.217   1.468   3.576
 9160TIP3    H127423   2.140   1.458   3.631
 9160TIP3    H227424   2.229   1.382   3.535
 9161TIP3   OH227425   4.924   4.522   3.640
 9161TIP3    H127426   5.007   4.554   3.604
 9161TIP3    H227427   4.946   4.491   3.728
 9162TIP3   OH227428   5.992   6.115   5.878
 9162TIP3    H127429   6.014   6.133   5.787
 9162TIP3    H227430   6.021   6.025   5.893
 9163TIP3   OH227431   7.102   5.853   6.367
 9163TIP3    H127432   7.045   5.855   6.291
 9163TIP3    H227433   7.186   5.887   6.336
 9164TIP3   OH227434   0.067   0.720   2.110
 9164TIP3    H127435  -0.010   0.684   2.153
 9164TIP3    H227436   0.124   0.748   2.181
 9165TIP3   OH227437   6.589   6.812   2.423
 9165TIP3    H127438   6.606   6.718   2.414
 9165TIP3    H227439   6.673   6.853   2.403
 9166TIP3   OH227440   1.109   4.459   2.332
 9166TIP3    H127441   1.184   4.442   2.274
 9166TIP3    H227442   1.084   4.373   2.365
 9167TIP3   OH227443   6.963   3.392   4.528
 9167TIP3    H127444   7.020   3.316   4.541
 9167TIP3    H227445   7.023   3.463   4.504
 9168TIP3   OH227446   4.135   3.366   0.618
 9168TIP3    H127447   4.091   3.282   0.607
 9168TIP3    H227448   4.227   3.344   0.636
 9169TIP3   OH227449   7.659   0.899   2.569
 9169TIP3    H127450   7.731   0.867   2.624
 9169TIP3    H227451   7.675   0.993   2.562
 9170TIP3   OH227452   3.237   0.890   4.861
 9170TIP3    H127453   3.314   0.942   4.882
 9170TIP3    H227454   3.249   0.809   4.910
 9171TIP3   OH227455   2.238   2.461   0.504
 9171TIP3    H127456   2.190   2.535   0.541
 9171TIP3    H227457   2.186   2.432   0.429
 9172TIP3   OH227458   6.547   5.235   0.027
 9172TIP3    H127459   6.576   5.167   0.088
 9172TIP3    H227460   6.589   5.212  -0.056
 9173TIP3   OH227461   6.215   1.332   1.575
 9173TIP3    H127462   6.308   1.308   1.579
 9173TIP3    H227463   6.211   1.399   1.506
 9174TIP3   OH227464   6.479   1.126   4.832
 9174TIP3    H127465   6.490   1.094   4.922
 9174TIP3    H227466   6.425   1.205   4.842
 9175TIP3   OH227467   3.070   3.347   4.754
 9175TIP3    H127468   3.160   3.380   4.748
 9175TIP3    H227469   3.025   3.413   4.806
 9176TIP3   OH227470   2.250   2.892   0.993
 9176TIP3    H127471   2.167   2.934   1.016
 9176TIP3    H227472   2.261   2.910   0.900
 9177TIP3   OH227473   6.204   3.019   0.110
 9177TIP3    H127474   6.230   3.045   0.022
 9177TIP3    H227475   6.251   3.079   0.168
 9178TIP3   OH227476   4.729   0.541   1.317
 9178TIP3    H127477   4.641   0.548   1.355
 9178TIP3    H227478   4.715   0.510   1.228
 9179TIP3   OH227479   7.428   4.861   4.090
 9179TIP3    H127480   7.508   4.910   4.072
 9179TIP3    H227481   7.428   4.849   4.185
 9180TIP3   OH227482   1.126   0.210   1.518
 9180TIP3    H127483   1.178   0.164   1.584
 9180TIP3    H227484   1.180   0.207   1.439
 9181TIP3   OH227485   7.128   0.820   3.263
 9181TIP3    H127486   7.116   0.856   3.175
 9181TIP3    H227487   7.140   0.726   3.249
 9182TIP3   OH227488   4.516   2.732   5.027
 9182TIP3    H127489   4.543   2.640   5.029
 9182TIP3    H227490   4.596   2.779   5.002
 9183TIP3   OH227491   5.846   4.204   3.259
 9183TIP3    H127492   5.883   4.195   3.346
 9183TIP3    H227493   5.913   4.167   3.201
 9184TIP3   OH227494   0.213   7.069   5.212
 9184TIP3    H127495   0.218   7.084   5.117
 9184TIP3    H227496   0.276   6.999   5.229
 9185TIP3   OH227497   4.889   0.601   4.178
 9185TIP3    H127498   4.811   0.556   4.145
 9185TIP3    H227499   4.862   0.635   4.263
 9186TIP3   OH227500   1.125   7.503   1.495
 9186TIP3    H127501   1.038   7.465   1.480
 9186TIP3    H227502   1.108   7.595   1.514
 9187TIP3   OH227503   3.845   0.470   3.912
 9187TIP3    H127504   3.841   0.403   3.980
 9187TIP3    H227505   3.935   0.503   3.916
 9188TIP3   OH227506   3.133   4.612   0.369
 9188TIP3    H127507   3.179   4.529   0.361
 9188TIP3    H227508   3.198   4.673   0.405
 9189TIP3   OH227509   4.819   2.853   6.635
 9189TIP3    H127510   4.734   2.846   6.678
 9189TIP3    H227511   4.817   2.786   6.568
 9190TIP3   OH227512   3.385   5.915   6.214
 9190TIP3    H127513   3.454   5.865   6.169
 9190TIP3    H227514   3.304   5.886   6.172
 9191TIP3   OH227515   4.898   6.781   1.524
 9191TIP3    H127516   4.937   6.757   1.440
 9191TIP3    H227517   4.933   6.716   1.585
 9192TIP3   OH227518   2.438   4.065   4.456
 9192TIP3    H127519   2.492   3.988   4.438
 9192TIP3    H227520   2.428   4.066   4.551
 9193TIP3   OH227521   5.153   3.765   2.553
 9193TIP3    H127522   5.190   3.710   2.483
 9193TIP3    H227523   5.076   3.806   2.513
 9194TIP3   OH227524   0.502   6.821   5.982
 9194TIP3    H127525   0.551   6.780   6.053
 9194TIP3    H227526   0.494   6.913   6.009
 9195TIP3   OH227527   3.438   1.880   5.688
 9195TIP3    H127528   3.513   1.924   5.728
 9195TIP3    H227529   3.386   1.951   5.650
 9196TIP3   OH227530   3.295   1.251   1.771
 9196TIP3    H127531   3.386   1.247   1.800
 9196TIP3    H227532   3.297   1.224   1.680
 9197TIP3   OH227533   4.125   5.199   1.547
 9197TIP3    H127534   4.198   5.167   1.494
 9197TIP3    H227535   4.047   5.172   1.499
 9198TIP3   OH227536   2.646   5.933   4.155
 9198TIP3    H127537   2.725   5.953   4.106
 9198TIP3    H227538   2.674   5.926   4.246
 9199TIP3   OH227539   3.294   1.639   3.234
 9199TIP3    H127540   3.322   1.689   3.310
 9199TIP3    H227541   3.339   1.555   3.243
 9200TIP3   OH227542   7.117   7.075   5.335
 9200TIP3    H127543   7.039   7.067   5.390
 9200TIP3    H227544   7.178   7.011   5.373
 9201TIP3   OH227545   3.093   6.179   1.187
 9201TIP3    H127546   3.122   6.092   1.214
 9201TIP3    H227547   3.150   6.202   1.114
 9202TIP3   OH227548   0.184   4.412   2.655
 9202TIP3    H127549   0.171   4.495   2.609
 9202TIP3    H227550   0.274   4.417   2.688
 9203TIP3   OH227551   6.365   7.212   5.723
 9203TIP3    H127552   6.441   7.224   5.781
 9203TIP3    H227553   6.311   7.147   5.769
 9204TIP3   OH227554   0.518   5.679   0.665
 9204TIP3    H127555   0.509   5.631   0.582
 9204TIP3    H227556   0.430   5.678   0.702
 9205TIP3   OH227557   2.048   0.706   6.014
 9205TIP3    H127558   2.140   0.716   6.040
 9205TIP3    H227559   2.031   0.612   6.023
 9206TIP3   OH227560   2.805   6.080   5.813
 9206TIP3    H127561   2.802   6.022   5.890
 9206TIP3    H227562   2.800   6.021   5.738
 9207TIP3   OH227563   2.379   1.173   2.517
 9207TIP3    H127564   2.347   1.250   2.566
 9207TIP3    H227565   2.474   1.183   2.517
 9208TIP3   OH227566   0.505   5.957   3.843
 9208TIP3    H127567   0.559   5.994   3.773
 9208TIP3    H227568   0.437   5.907   3.798
 9209TIP3   OH227569   4.446   6.843   6.460
 9209TIP3    H127570   4.472   6.751   6.461
 9209TIP3    H227571   4.425   6.861   6.368
 9210TIP3   OH227572   6.759   3.611   2.766
 9210TIP3    H127573   6.776   3.518   2.754
 9210TIP3    H227574   6.695   3.634   2.699
 9211TIP3   OH227575   5.869   7.152   2.476
 9211TIP3    H127576   5.963   7.166   2.479
 9211TIP3    H227577   5.833   7.236   2.449
 9212TIP3   OH227578   4.887   1.186   1.805
 9212TIP3    H127579   4.873   1.278   1.828
 9212TIP3    H227580   4.922   1.147   1.885
 9213TIP3   OH227581   6.101   3.153   1.354
 9213TIP3    H127582   6.017   3.115   1.327
 9213TIP3    H227583   6.119   3.113   1.439
 9214TIP3   OH227584   6.136   0.287   3.613
 9214TIP3    H127585   6.085   0.206   3.620
 9214TIP3    H227586   6.141   0.320   3.702
 9215TIP3   OH227587   0.454   2.195   1.329
 9215TIP3    H127588   0.505   2.122   1.293
 9215TIP3    H227589   0.448   2.257   1.257
 9216TIP3   OH227590   5.548   2.399   3.729
 9216TIP3    H127591   5.488   2.388   3.802
 9216TIP3    H227592   5.561   2.494   3.722
 9217TIP3   OH227593   7.572   0.710   4.969
 9217TIP3    H127594   7.618   0.738   4.890
 9217TIP3    H227595   7.636   0.724   5.039
 9218TIP3   OH227596   0.916   2.068   2.073
 9218TIP3    H127597   0.941   1.976   2.083
 9218TIP3    H227598   0.820   2.066   2.073
 9219TIP3   OH227599   2.692   6.661   3.359
 9219TIP3    H127600   2.679   6.618   3.443
 9219TIP3    H227601   2.611   6.646   3.311
 9220TIP3   OH227602   3.091   4.174   0.059
 9220TIP3    H127603   3.117   4.199  -0.029
 9220TIP3    H227604   3.171   4.183   0.111
 9221TIP3   OH227605   1.305   1.862   2.363
 9221TIP3    H127606   1.287   1.857   2.269
 9221TIP3    H227607   1.219   1.865   2.404
 9222TIP3   OH227608   5.590   1.378   6.631
 9222TIP3    H127609   5.593   1.315   6.559
 9222TIP3    H227610   5.616   1.461   6.592
 9223TIP3   OH227611   2.720   3.181   5.016
 9223TIP3    H127612   2.721   3.275   4.996
 9223TIP3    H227613   2.797   3.167   5.071
 9224TIP3   OH227614   0.275   3.552   2.181
 9224TIP3    H127615   0.305   3.640   2.202
 9224TIP3    H227616   0.195   3.565   2.130
 9225TIP3   OH227617   7.096   5.477   0.494
 9225TIP3    H127618   7.138   5.414   0.435
 9225TIP3    H227619   7.122   5.448   0.581
 9226TIP3   OH227620   5.288   5.658   0.047
 9226TIP3    H127621   5.299   5.734   0.105
 9226TIP3    H227622   5.229   5.600   0.095
 9227TIP3   OH227623   1.192   1.402   2.977
 9227TIP3    H127624   1.137   1.327   2.955
 9227TIP3    H227625   1.130   1.473   2.995
 9228TIP3   OH227626   3.981   4.788   3.060
 9228TIP3    H127627   3.965   4.763   3.151
 9228TIP3    H227628   3.895   4.808   3.024
 9229TIP3   OH227629   6.138   4.270   1.774
 9229TIP3    H127630   6.071   4.202   1.782
 9229TIP3    H227631   6.093   4.345   1.735
 9230TIP3   OH227632   2.829   3.538   6.119
 9230TIP3    H127633   2.879   3.616   6.142
 9230TIP3    H227634   2.859   3.471   6.181
 9231TIP3   OH227635   5.580   1.632   0.349
 9231TIP3    H127636   5.537   1.655   0.431
 9231TIP3    H227637   5.639   1.704   0.331
 9232TIP3   OH227638   1.386   6.990   5.123
 9232TIP3    H127639   1.461   6.934   5.102
 9232TIP3    H227640   1.310   6.934   5.108
 9233TIP3   OH227641   6.209   1.928   1.714
 9233TIP3    H127642   6.123   1.968   1.727
 9233TIP3    H227643   6.269   2.001   1.701
 9234TIP3   OH227644   8.011   5.420   1.060
 9234TIP3    H127645   8.036   5.349   1.120
 9234TIP3    H227646   7.934   5.460   1.101
 9235TIP3   OH227647   0.776   7.643   0.333
 9235TIP3    H127648   0.842   7.697   0.376
 9235TIP3    H227649   0.796   7.652   0.239
 9236TIP3   OH227650   6.781   6.680   1.783
 9236TIP3    H127651   6.862   6.722   1.813
 9236TIP3    H227652   6.740   6.646   1.863
 9237TIP3   OH227653   6.685   3.045  -0.015
 9237TIP3    H127654   6.638   3.073  -0.094
 9237TIP3    H227655   6.731   2.965  -0.042
 9238TIP3   OH227656   7.813   7.208   0.921
 9238TIP3    H127657   7.733   7.166   0.952
 9238TIP3    H227658   7.860   7.139   0.874
 9239TIP3   OH227659   6.782   1.809   6.134
 9239TIP3    H127660   6.707   1.766   6.094
 9239TIP3    H227661   6.839   1.833   6.061
 9240TIP3   OH227662   7.086   1.587   4.254
 9240TIP3    H127663   7.105   1.555   4.342
 9240TIP3    H227664   7.136   1.528   4.197
 9241TIP3   OH227665   0.984   0.238   2.615
 9241TIP3    H127666   0.983   0.142   2.615
 9241TIP3    H227667   1.068   0.261   2.655
 9242TIP3   OH227668   1.146   6.809   1.173
 9242TIP3    H127669   1.203   6.805   1.096
 9242TIP3    H227670   1.160   6.725   1.217
 9243TIP3   OH227671   1.939   7.422   0.977
 9243TIP3    H127672   1.851   7.420   1.013
 9243TIP3    H227673   1.931   7.382   0.890
 9244TIP3   OH227674   2.891   6.188   0.466
 9244TIP3    H127675   2.816   6.236   0.431
 9244TIP3    H227676   2.863   6.158   0.552
 9245TIP3   OH227677   7.265   4.535   5.698
 9245TIP3    H127678   7.258   4.449   5.656
 9245TIP3    H227679   7.313   4.518   5.779
 9246TIP3   OH227680   3.139   5.835   3.577
 9246TIP3    H127681   3.059   5.877   3.610
 9246TIP3    H227682   3.108   5.778   3.507
 9247TIP3   OH227683   7.702   3.461   0.453
 9247TIP3    H127684   7.777   3.429   0.502
 9247TIP3    H227685   7.741   3.510   0.380
 9248TIP3   OH227686   7.787   2.279   4.722
 9248TIP3    H127687   7.843   2.292   4.646
 9248TIP3    H227688   7.841   2.228   4.783
 9249TIP3   OH227689   7.311   1.054   4.391
 9249TIP3    H127690   7.244   1.026   4.329
 9249TIP3    H227691   7.364   0.976   4.407
 9250TIP3   OH227692   3.104   7.607   2.800
 9250TIP3    H127693   3.074   7.666   2.869
 9250TIP3    H227694   3.065   7.642   2.720
 9251TIP3   OH227695   5.778   5.070   5.628
 9251TIP3    H127696   5.749   4.989   5.586
 9251TIP3    H227697   5.786   5.047   5.721
 9252TIP3   OH227698   1.978   2.872   4.077
 9252TIP3    H127699   1.889   2.881   4.043
 9252TIP3    H227700   2.022   2.814   4.015
 9253TIP3   OH227701   5.590   5.498   4.983
 9253TIP3    H127702   5.563   5.489   4.892
 9253TIP3    H227703   5.683   5.519   4.979
 9254TIP3   OH227704   5.049   7.131   2.974
 9254TIP3    H127705   4.980   7.103   3.033
 9254TIP3    H227706   5.130   7.102   3.016
 9255TIP3   OH227707   6.905   2.654   1.362
 9255TIP3    H127708   6.920   2.560   1.377
 9255TIP3    H227709   6.947   2.670   1.277
 9256TIP3   OH227710   4.233   0.282   2.862
 9256TIP3    H127711   4.159   0.340   2.882
 9256TIP3    H227712   4.261   0.308   2.774
 9257TIP3   OH227713   7.812   5.032   1.530
 9257TIP3    H127714   7.809   5.121   1.496
 9257TIP3    H227715   7.905   5.014   1.543
 9258TIP3   OH227716   5.389   4.784   5.100
 9258TIP3    H127717   5.421   4.868   5.067
 9258TIP3    H227718   5.296   4.782   5.078
 9259TIP3   OH227719   8.054   2.045   4.527
 9259TIP3    H127720   7.981   2.086   4.480
 9259TIP3    H227721   8.022   2.033   4.616
 9260TIP3   OH227722   3.968   4.742   4.712
 9260TIP3    H127723   3.992   4.670   4.769
 9260TIP3    H227724   3.897   4.787   4.758
 9261TIP3   OH227725   1.033   6.030   3.463
 9261TIP3    H127726   0.939   6.014   3.452
 9261TIP3    H227727   1.040   6.125   3.472
 9262TIP3   OH227728   2.144   2.728   0.518
 9262TIP3    H127729   2.060   2.695   0.487
 9262TIP3    H227730   2.124   2.816   0.552
 9263TIP3   OH227731   2.286   4.117   3.683
 9263TIP3    H127732   2.375   4.117   3.649
 9263TIP3    H227733   2.240   4.053   3.630
 9264TIP3   OH227734   0.496   7.688   0.309
 9264TIP3    H127735   0.465   7.609   0.352
 9264TIP3    H227736   0.591   7.685   0.318
 9265TIP3   OH227737   0.975   7.666   4.531
 9265TIP3    H127738   0.931   7.751   4.544
 9265TIP3    H227739   0.928   7.606   4.590
 9266TIP3   OH227740   4.616   0.754   0.652
 9266TIP3    H127741   4.576   0.755   0.565
 9266TIP3    H227742   4.710   0.757   0.635
 9267TIP3   OH227743   1.492   3.696   6.176
 9267TIP3    H127744   1.480   3.791   6.171
 9267TIP3    H227745   1.530   3.682   6.263
 9268TIP3   OH227746   1.801   2.656   2.826
 9268TIP3    H127747   1.840   2.736   2.793
 9268TIP3    H227748   1.875   2.606   2.862
 9269TIP3   OH227749   1.561   6.198   0.215
 9269TIP3    H127750   1.628   6.133   0.232
 9269TIP3    H227751   1.483   6.165   0.260
 9270TIP3   OH227752   3.000   7.707   3.069
 9270TIP3    H127753   3.054   7.664   3.136
 9270TIP3    H227754   2.928   7.747   3.118
 9271TIP3   OH227755   0.254   5.648   2.328
 9271TIP3    H127756   0.237   5.669   2.419
 9271TIP3    H227757   0.254   5.553   2.324
 9272TIP3   OH227758   3.722   2.563   2.882
 9272TIP3    H127759   3.762   2.594   2.964
 9272TIP3    H227760   3.641   2.612   2.874
 9273TIP3   OH227761   6.887   3.565   1.555
 9273TIP3    H127762   6.878   3.505   1.629
 9273TIP3    H227763   6.962   3.531   1.506
 9274TIP3   OH227764   6.841   5.034   2.914
 9274TIP3    H127765   6.837   5.052   3.008
 9274TIP3    H227766   6.789   5.104   2.874
 9275TIP3   OH227767   7.442   1.233   6.051
 9275TIP3    H127768   7.529   1.271   6.045
 9275TIP3    H227769   7.409   1.261   6.137
 9276TIP3   OH227770   3.445   2.942   1.335
 9276TIP3    H127771   3.459   2.979   1.422
 9276TIP3    H227772   3.368   2.987   1.301
 9277TIP3   OH227773   1.089   2.398   5.025
 9277TIP3    H127774   1.087   2.315   5.072
 9277TIP3    H227775   0.997   2.418   5.006
 9278TIP3   OH227776   7.887   1.157   5.114
 9278TIP3    H127777   7.912   1.091   5.050
 9278TIP3    H227778   7.969   1.182   5.156
 9279TIP3   OH227779   2.706   4.958   0.968
 9279TIP3    H127780   2.657   4.944   0.887
 9279TIP3    H227781   2.664   5.034   1.008
 9280TIP3   OH227782   1.225   0.222   3.574
 9280TIP3    H127783   1.266   0.216   3.488
 9280TIP3    H227784   1.220   0.132   3.606
 9281TIP3   OH227785   2.570   5.630   4.179
 9281TIP3    H127786   2.567   5.721   4.151
 9281TIP3    H227787   2.526   5.629   4.264
 9282TIP3   OH227788   8.216   2.910   5.651
 9282TIP3    H127789   8.281   2.976   5.671
 9282TIP3    H227790   8.262   2.844   5.599
 9283TIP3   OH227791   5.649   2.320   6.506
 9283TIP3    H127792   5.675   2.393   6.563
 9283TIP3    H227793   5.662   2.242   6.560
 9284TIP3   OH227794   3.605   6.071   2.304
 9284TIP3    H127795   3.579   6.026   2.223
 9284TIP3    H227796   3.596   6.005   2.372
 9285TIP3   OH227797   2.219   6.163   0.805
 9285TIP3    H127798   2.197   6.088   0.861
 9285TIP3    H227799   2.313   6.174   0.815
 9286TIP3   OH227800   0.104   6.989   3.020
 9286TIP3    H127801   0.152   6.939   3.086
 9286TIP3    H227802   0.155   7.069   3.008
 9287TIP3   OH227803   2.926   7.153   4.519
 9287TIP3    H127804   3.007   7.137   4.470
 9287TIP3    H227805   2.867   7.083   4.490
 9288TIP3   OH227806   2.798   3.905   0.047
 9288TIP3    H127807   2.869   3.845   0.068
 9288TIP3    H227808   2.783   3.893  -0.047
 9289TIP3   OH227809   7.986   7.071   3.060
 9289TIP3    H127810   7.905   7.066   3.009
 9289TIP3    H227811   8.052   7.104   2.998
 9290TIP3   OH227812   0.756   7.465   5.737
 9290TIP3    H127813   0.737   7.383   5.692
 9290TIP3    H227814   0.733   7.533   5.673
 9291TIP3   OH227815   5.771   1.603   1.037
 9291TIP3    H127816   5.776   1.604   1.132
 9291TIP3    H227817   5.840   1.663   1.008
 9292TIP3   OH227818   7.792   1.190   3.801
 9292TIP3    H127819   7.710   1.233   3.825
 9292TIP3    H227820   7.818   1.232   3.719
 9293TIP3   OH227821   4.824   6.155   6.145
 9293TIP3    H127822   4.791   6.166   6.056
 9293TIP3    H227823   4.821   6.061   6.160
 9294TIP3   OH227824   6.140   2.226   3.461
 9294TIP3    H127825   6.080   2.198   3.393
 9294TIP3    H227826   6.203   2.283   3.416
 9295TIP3   OH227827   6.680   7.424   2.721
 9295TIP3    H127828   6.744   7.496   2.721
 9295TIP3    H227829   6.665   7.406   2.814
 9296TIP3   OH227830   6.242   5.818   1.660
 9296TIP3    H127831   6.291   5.899   1.675
 9296TIP3    H227832   6.257   5.765   1.738
 9297TIP3   OH227833   1.245   1.157   5.582
 9297TIP3    H127834   1.210   1.194   5.501
 9297TIP3    H227835   1.228   1.063   5.575
 9298TIP3   OH227836   2.903   2.394   0.531
 9298TIP3    H127837   2.813   2.422   0.543
 9298TIP3    H227838   2.897   2.315   0.478
 9299TIP3   OH227839   2.129   0.507   5.677
 9299TIP3    H127840   2.046   0.546   5.705
 9299TIP3    H227841   2.187   0.519   5.753
 9300TIP3   OH227842   2.867   6.900   5.590
 9300TIP3    H127843   2.838   6.975   5.538
 9300TIP3    H227844   2.928   6.937   5.653
 9301TIP3   OH227845   6.020   2.088   6.478
 9301TIP3    H127846   5.982   2.169   6.445
 9301TIP3    H227847   6.025   2.030   6.402
 9302TIP3   OH227848   1.605   6.149   0.858
 9302TIP3    H127849   1.668   6.144   0.930
 9302TIP3    H227850   1.534   6.090   0.883
 9303TIP3   OH227851   5.648   1.915   4.295
 9303TIP3    H127852   5.744   1.920   4.299
 9303TIP3    H227853   5.620   2.005   4.277
 9304TIP3   OH227854   5.601   1.138   5.773
 9304TIP3    H127855   5.673   1.191   5.807
 9304TIP3    H227856   5.639   1.052   5.759
 9305TIP3   OH227857   2.783   2.065   5.868
 9305TIP3    H127858   2.761   2.028   5.953
 9305TIP3    H227859   2.854   2.009   5.835
 9306TIP3   OH227860   5.348   7.050   1.923
 9306TIP3    H127861   5.262   7.011   1.910
 9306TIP3    H227862   5.368   7.034   2.015
 9307TIP3   OH227863   2.301   1.196   1.244
 9307TIP3    H127864   2.341   1.138   1.309
 9307TIP3    H227865   2.304   1.146   1.162
 9308TIP3   OH227866   0.815   7.673   3.146
 9308TIP3    H127867   0.764   7.721   3.080
 9308TIP3    H227868   0.906   7.682   3.117
 9309TIP3   OH227869   3.010   2.735   5.531
 9309TIP3    H127870   3.034   2.810   5.585
 9309TIP3    H227871   3.058   2.748   5.449
 9310TIP3   OH227872   7.508   4.006   3.004
 9310TIP3    H127873   7.426   3.957   3.000
 9310TIP3    H227874   7.483   4.093   3.036
 9311TIP3   OH227875   1.286   3.870   0.274
 9311TIP3    H127876   1.276   3.799   0.211
 9311TIP3    H227877   1.354   3.838   0.334
 9312TIP3   OH227878   2.257   1.066   4.335
 9312TIP3    H127879   2.300   1.131   4.390
 9312TIP3    H227880   2.205   1.117   4.273
 9313TIP3   OH227881   6.871   2.725   0.645
 9313TIP3    H127882   6.871   2.820   0.661
 9313TIP3    H227883   6.831   2.687   0.723
 9314TIP3   OH227884   1.515   6.199   6.182
 9314TIP3    H127885   1.494   6.127   6.122
 9314TIP3    H227886   1.429   6.236   6.205
 9315TIP3   OH227887   5.807   0.831   5.040
 9315TIP3    H127888   5.778   0.917   5.069
 9315TIP3    H227889   5.753   0.770   5.090
 9316TIP3   OH227890   1.263   3.570   6.574
 9316TIP3    H127891   1.169   3.588   6.580
 9316TIP3    H227892   1.299   3.602   6.657
 9317TIP3   OH227893   4.238   3.936   5.122
 9317TIP3    H127894   4.253   3.888   5.203
 9317TIP3    H227895   4.230   3.869   5.054
 9318TIP3   OH227896   8.167   4.512   2.962
 9318TIP3    H127897   8.210   4.454   2.899
 9318TIP3    H227898   8.120   4.452   3.020
 9319TIP3   OH227899   8.038   2.547   5.709
 9319TIP3    H127900   7.951   2.572   5.676
 9319TIP3    H227901   8.084   2.630   5.720
 9320TIP3   OH227902   1.232   0.957   4.283
 9320TIP3    H127903   1.304   0.895   4.276
 9320TIP3    H227904   1.184   0.929   4.361
 9321TIP3   OH227905   5.517   3.862   5.754
 9321TIP3    H127906   5.542   3.867   5.662
 9321TIP3    H227907   5.425   3.890   5.755
 9322TIP3   OH227908   3.122   5.844   4.694
 9322TIP3    H127909   3.216   5.826   4.700
 9322TIP3    H227910   3.114   5.936   4.717
 9323TIP3   OH227911   7.187   1.509   2.736
 9323TIP3    H127912   7.207   1.588   2.686
 9323TIP3    H227913   7.248   1.511   2.809
 9324TIP3   OH227914   6.959   2.434   4.585
 9324TIP3    H127915   6.938   2.445   4.493
 9324TIP3    H227916   7.046   2.395   4.586
 9325TIP3   OH227917   0.167   2.771   3.998
 9325TIP3    H127918   0.245   2.798   4.047
 9325TIP3    H227919   0.179   2.810   3.911
 9326TIP3   OH227920   6.705   2.647   5.670
 9326TIP3    H127921   6.669   2.610   5.751
 9326TIP3    H227922   6.754   2.724   5.699
 9327TIP3   OH227923   4.741   1.486   1.413
 9327TIP3    H127924   4.675   1.535   1.365
 9327TIP3    H227925   4.786   1.551   1.466
 9328TIP3   OH227926   4.568   1.210   3.041
 9328TIP3    H127927   4.514   1.275   2.996
 9328TIP3    H227928   4.558   1.231   3.134
 9329TIP3   OH227929   6.231   1.621   5.088
 9329TIP3    H127930   6.259   1.652   5.002
 9329TIP3    H227931   6.142   1.589   5.074
 9330TIP3   OH227932   8.262   3.085   5.952
 9330TIP3    H127933   8.312   3.151   5.905
 9330TIP3    H227934   8.213   3.038   5.884
 9331TIP3   OH227935   3.902   1.606   5.543
 9331TIP3    H127936   3.925   1.686   5.496
 9331TIP3    H227937   3.986   1.575   5.579
 9332TIP3   OH227938   1.208   5.881   2.991
 9332TIP3    H127939   1.199   5.908   3.082
 9332TIP3    H227940   1.275   5.939   2.955
 9333TIP3   OH227941   3.364   5.686   0.761
 9333TIP3    H127942   3.307   5.630   0.709
 9333TIP3    H227943   3.393   5.754   0.701
 9334TIP3   OH227944   2.287   6.715   0.651
 9334TIP3    H127945   2.365   6.718   0.706
 9334TIP3    H227946   2.235   6.790   0.678
 9335TIP3   OH227947   3.044   6.275   5.754
 9335TIP3    H127948   2.992   6.206   5.794
 9335TIP3    H227949   2.996   6.298   5.674
 9336TIP3   OH227950   4.789   5.625   6.696
 9336TIP3    H127951   4.795   5.537   6.659
 9336TIP3    H227952   4.805   5.612   6.790
 9337TIP3   OH227953   3.901   3.852   2.807
 9337TIP3    H127954   3.826   3.836   2.864
 9337TIP3    H227955   3.874   3.926   2.753
 9338TIP3   OH227956   1.913   4.044   6.152
 9338TIP3    H127957   1.940   4.121   6.203
 9338TIP3    H227958   1.841   4.076   6.097
 9339TIP3   OH227959   7.813   6.652   0.870
 9339TIP3    H127960   7.845   6.566   0.897
 9339TIP3    H227961   7.817   6.705   0.950
 9340TIP3   OH227962   4.072   7.135   6.531
 9340TIP3    H127963   4.022   7.122   6.451
 9340TIP3    H227964   4.029   7.207   6.576
 9341TIP3   OH227965   3.415   7.698   3.622
 9341TIP3    H127966   3.387   7.764   3.684
 9341TIP3    H227967   3.349   7.629   3.627
 9342TIP3   OH227968   7.657   1.854   2.028
 9342TIP3    H127969   7.566   1.874   2.004
 9342TIP3    H227970   7.680   1.923   2.091
 9343TIP3   OH227971   3.210   6.853   4.456
 9343TIP3    H127972   3.196   6.943   4.485
 9343TIP3    H227973   3.220   6.803   4.537
 9344TIP3   OH227974   7.410   2.346   5.876
 9344TIP3    H127975   7.454   2.375   5.956
 9344TIP3    H227976   7.402   2.426   5.823
 9345TIP3   OH227977   7.003   1.525   1.338
 9345TIP3    H127978   7.016   1.589   1.267
 9345TIP3    H227979   6.937   1.566   1.394
 9346TIP3   OH227980   3.558   3.638   5.675
 9346TIP3    H127981   3.526   3.604   5.591
 9346TIP3    H227982   3.588   3.560   5.721
 9347TIP3   OH227983   7.714   2.367   3.297
 9347TIP3    H127984   7.704   2.329   3.210
 9347TIP3    H227985   7.805   2.350   3.320
 9348TIP3   OH227986   8.128   7.101   3.858
 9348TIP3    H127987   8.134   7.107   3.763
 9348TIP3    H227988   8.034   7.104   3.876
 9349TIP3   OH227989   1.014   2.056   1.306
 9349TIP3    H127990   1.043   2.070   1.216
 9349TIP3    H227991   1.080   2.100   1.359
 9350TIP3   OH227992   7.687   7.244   3.190
 9350TIP3    H127993   7.608   7.196   3.165
 9350TIP3    H227994   7.693   7.315   3.125
 9351TIP3   OH227995   2.373   7.335   2.524
 9351TIP3    H127996   2.341   7.257   2.480
 9351TIP3    H227997   2.468   7.321   2.533
 9352TIP3   OH227998   2.147   4.532   6.372
 9352TIP3    H127999   2.078   4.595   6.389
 9352TIP3    H228000   2.128   4.459   6.430
 9353TIP3   OH228001   1.712   2.280   5.320
 9353TIP3    H128002   1.710   2.186   5.333
 9353TIP3    H228003   1.620   2.307   5.323
 9354TIP3   OH228004   0.333   0.620   5.951
 9354TIP3    H128005   0.335   0.572   5.868
 9354TIP3    H228006   0.274   0.568   6.007
 9355TIP3   OH228007   7.032   5.331   3.838
 9355TIP3    H128008   7.116   5.288   3.826
 9355TIP3    H228009   6.978   5.268   3.884
 9356TIP3   OH228010   0.144   5.967   2.981
 9356TIP3    H128011   0.116   6.057   2.992
 9356TIP3    H228012   0.198   5.968   2.902
 9357TIP3   OH228013   1.476   4.229   1.947
 9357TIP3    H128014   1.474   4.263   1.858
 9357TIP3    H228015   1.402   4.167   1.951
 9358TIP3   OH228016   1.421   2.443   2.385
 9358TIP3    H128017   1.435   2.377   2.453
 9358TIP3    H228018   1.327   2.462   2.390
 9359TIP3   OH228019   1.635   5.176   5.776
 9359TIP3    H128020   1.630   5.087   5.741
 9359TIP3    H228021   1.660   5.165   5.867
 9360TIP3   OH228022   3.846   1.565   2.845
 9360TIP3    H128023   3.795   1.486   2.859
 9360TIP3    H228024   3.931   1.533   2.813
 9361TIP3   OH228025   7.050   1.109   1.024
 9361TIP3    H128026   7.135   1.153   1.031
 9361TIP3    H228027   6.995   1.153   1.088
 9362TIP3   OH228028   3.997   3.626  -0.001
 9362TIP3    H128029   4.024   3.618   0.090
 9362TIP3    H228030   4.052   3.696  -0.037
 9363TIP3   OH228031   2.668   7.184   6.403
 9363TIP3    H128032   2.603   7.250   6.377
 9363TIP3    H228033   2.697   7.144   6.321
 9364TIP3   OH228034   2.017   3.701   3.822
 9364TIP3    H128035   2.091   3.645   3.848
 9364TIP3    H228036   2.058   3.782   3.791
 9365TIP3   OH228037   6.641   3.918   4.090
 9365TIP3    H128038   6.586   3.874   4.154
 9365TIP3    H228039   6.710   3.855   4.070
 9366TIP3   OH228040   4.338   3.809   3.202
 9366TIP3    H128041   4.281   3.753   3.255
 9366TIP3    H228042   4.281   3.878   3.169
 9367TIP3   OH228043   5.616   3.301   1.909
 9367TIP3    H128044   5.594   3.327   1.820
 9367TIP3    H228045   5.712   3.302   1.912
 9368TIP3   OH228046   4.187   2.219   0.050
 9368TIP3    H128047   4.136   2.181  -0.022
 9368TIP3    H228048   4.133   2.203   0.128
 9369TIP3   OH228049   7.432   1.388   0.298
 9369TIP3    H128050   7.383   1.335   0.236
 9369TIP3    H228051   7.489   1.442   0.243
 9370TIP3   OH228052   3.104   5.094   4.471
 9370TIP3    H128053   3.024   5.075   4.422
 9370TIP3    H228054   3.156   5.147   4.410
 9371TIP3   OH228055   4.656   4.512   1.284
 9371TIP3    H128056   4.683   4.581   1.223
 9371TIP3    H228057   4.722   4.515   1.353
 9372TIP3   OH228058   8.029   3.290   5.770
 9372TIP3    H128059   8.117   3.321   5.794
 9372TIP3    H228060   8.037   3.263   5.679
 9373TIP3   OH228061   2.307   6.669   4.211
 9373TIP3    H128062   2.217   6.695   4.195
 9373TIP3    H228063   2.313   6.662   4.307
 9374TIP3   OH228064   7.140   0.709   0.207
 9374TIP3    H128065   7.232   0.695   0.231
 9374TIP3    H228066   7.120   0.640   0.144
 9375TIP3   OH228067   6.441   5.989   4.270
 9375TIP3    H128068   6.511   6.040   4.310
 9375TIP3    H228069   6.474   5.899   4.270
 9376TIP3   OH228070   0.939   2.853   1.369
 9376TIP3    H128071   1.032   2.877   1.378
 9376TIP3    H228072   0.898   2.889   1.448
 9377TIP3   OH228073   4.641   6.239   0.330
 9377TIP3    H128074   4.648   6.153   0.290
 9377TIP3    H228075   4.616   6.297   0.257
 9378TIP3   OH228076   2.873   5.100   3.658
 9378TIP3    H128077   2.785   5.122   3.626
 9378TIP3    H228078   2.932   5.134   3.591
 9379TIP3   OH228079   7.605   4.658   3.021
 9379TIP3    H128080   7.691   4.673   2.982
 9379TIP3    H228081   7.552   4.730   2.987
 9380TIP3   OH228082   4.377   4.000   2.796
 9380TIP3    H128083   4.315   3.955   2.738
 9380TIP3    H228084   4.463   3.965   2.772
 9381TIP3   OH228085   5.361   1.425   0.579
 9381TIP3    H128086   5.286   1.398   0.526
 9381TIP3    H228087   5.425   1.456   0.516
 9382TIP3   OH228088   6.986   3.697   5.479
 9382TIP3    H128089   6.990   3.789   5.454
 9382TIP3    H228090   7.044   3.652   5.417
 9383TIP3   OH228091   7.634   3.197   4.961
 9383TIP3    H128092   7.673   3.264   4.905
 9383TIP3    H228093   7.541   3.198   4.938
 9384TIP3   OH228094   3.795   4.055   5.524
 9384TIP3    H128095   3.837   3.971   5.504
 9384TIP3    H228096   3.854   4.120   5.486
 9385TIP3   OH228097   4.513   7.267   3.795
 9385TIP3    H128098   4.580   7.284   3.861
 9385TIP3    H228099   4.454   7.204   3.838
 9386TIP3   OH228100   5.452   0.852   2.572
 9386TIP3    H128101   5.529   0.901   2.602
 9386TIP3    H228102   5.439   0.880   2.482
 9387TIP3   OH228103   1.656   4.377   2.762
 9387TIP3    H128104   1.651   4.284   2.780
 9387TIP3    H228105   1.592   4.392   2.692
 9388TIP3   OH228106   0.591   5.211   4.999
 9388TIP3    H128107   0.653   5.194   4.928
 9388TIP3    H228108   0.582   5.307   5.000
 9389TIP3   OH228109   0.062   0.237   0.160
 9389TIP3    H128110   0.147   0.270   0.131
 9389TIP3    H228111   0.077   0.212   0.252
 9390TIP3   OH228112   4.028   0.635   3.163
 9390TIP3    H128113   3.958   0.677   3.213
 9390TIP3    H228114   4.084   0.706   3.133
 9391TIP3   OH228115   1.796   2.517   4.949
 9391TIP3    H128116   1.856   2.498   5.022
 9391TIP3    H228117   1.711   2.484   4.978
 9392TIP3   OH228118   7.877   0.695   2.424
 9392TIP3    H128119   7.865   0.743   2.506
 9392TIP3    H228120   7.801   0.718   2.371
 9393TIP3   OH228121   6.603   2.425   1.010
 9393TIP3    H128122   6.518   2.390   0.986
 9393TIP3    H228123   6.588   2.518   1.025
 9394TIP3   OH228124   2.245   2.093   5.262
 9394TIP3    H128125   2.274   2.148   5.335
 9394TIP3    H228126   2.175   2.040   5.299
 9395TIP3   OH228127   0.288   5.212   3.963
 9395TIP3    H128128   0.366   5.247   4.006
 9395TIP3    H228129   0.254   5.148   4.025
 9396TIP3   OH228130   7.755   2.482   2.420
 9396TIP3    H128131   7.685   2.547   2.416
 9396TIP3    H228132   7.834   2.532   2.443
 9397TIP3   OH228133   4.826   7.640   3.385
 9397TIP3    H128134   4.817   7.704   3.456
 9397TIP3    H228135   4.805   7.556   3.425
 9398TIP3   OH228136   3.943   6.683   2.523
 9398TIP3    H128137   3.966   6.653   2.435
 9398TIP3    H228138   3.880   6.618   2.555
 9399TIP3   OH228139   4.926   3.583   5.385
 9399TIP3    H128140   4.859   3.622   5.330
 9399TIP3    H228141   4.925   3.636   5.465
 9400TIP3   OH228142   0.303   7.017   0.936
 9400TIP3    H128143   0.387   7.047   0.900
 9400TIP3    H228144   0.314   7.023   1.031
 9401TIP3   OH228145   2.302   7.550   2.067
 9401TIP3    H128146   2.350   7.506   1.996
 9401TIP3    H228147   2.364   7.552   2.140
 9402TIP3   OH228148   0.428   0.289   2.223
 9402TIP3    H128149   0.381   0.327   2.149
 9402TIP3    H228150   0.519   0.316   2.210
 9403TIP3   OH228151   3.120   3.948   2.501
 9403TIP3    H128152   3.094   3.997   2.579
 9403TIP3    H228153   3.058   3.875   2.496
 9404TIP3   OH228154   6.041   2.927   2.883
 9404TIP3    H128155   6.014   3.017   2.867
 9404TIP3    H228156   6.001   2.877   2.812
 9405TIP3   OH228157   6.583   3.690   1.748
 9405TIP3    H128158   6.663   3.661   1.793
 9405TIP3    H228159   6.595   3.784   1.735
 9406TIP3   OH228160   1.071   2.259   0.074
 9406TIP3    H128161   1.037   2.336   0.030
 9406TIP3    H228162   1.042   2.268   0.165
 9407TIP3   OH228163   2.306   2.644   3.262
 9407TIP3    H128164   2.217   2.666   3.235
 9407TIP3    H228165   2.359   2.718   3.234
 9408TIP3   OH228166   2.130   1.098   1.656
 9408TIP3    H128167   2.186   1.034   1.612
 9408TIP3    H228168   2.044   1.057   1.659
 9409TIP3   OH228169   6.043   4.261   4.369
 9409TIP3    H128170   6.129   4.220   4.378
 9409TIP3    H228171   6.053   4.347   4.408
 9410TIP3   OH228172   2.386   4.146   3.992
 9410TIP3    H128173   2.320   4.185   3.935
 9410TIP3    H228174   2.387   4.201   4.070
 9411TIP3   OH228175   4.140   1.378   6.685
 9411TIP3    H128176   4.133   1.459   6.633
 9411TIP3    H228177   4.078   1.318   6.644
 9412TIP3   OH228178   0.207   1.842   5.280
 9412TIP3    H128179   0.276   1.787   5.318
 9412TIP3    H228180   0.253   1.896   5.216
 9413TIP3   OH228181   0.998   2.203   2.533
 9413TIP3    H128182   1.043   2.186   2.616
 9413TIP3    H228183   0.943   2.126   2.520
 9414TIP3   OH228184   2.643   5.252   3.464
 9414TIP3    H128185   2.629   5.333   3.511
 9414TIP3    H228186   2.707   5.274   3.396
 9415TIP3   OH228187   7.211   5.920   1.717
 9415TIP3    H128188   7.229   5.840   1.669
 9415TIP3    H228189   7.285   5.930   1.777
 9416TIP3   OH228190   1.440   6.027   5.568
 9416TIP3    H128191   1.471   6.118   5.575
 9416TIP3    H228192   1.513   5.974   5.601
 9417TIP3   OH228193   1.511   6.078   2.421
 9417TIP3    H128194   1.499   6.171   2.439
 9417TIP3    H228195   1.499   6.070   2.326
 9418TIP3   OH228196   3.852   0.448   4.446
 9418TIP3    H128197   3.939   0.480   4.424
 9418TIP3    H228198   3.817   0.511   4.509
 9419TIP3   OH228199   1.371   3.438   1.756
 9419TIP3    H128200   1.356   3.395   1.841
 9419TIP3    H228201   1.286   3.435   1.712
 9420TIP3   OH228202   6.019   3.383   0.614
 9420TIP3    H128203   6.082   3.450   0.586
 9420TIP3    H228204   6.068   3.329   0.676
 9421TIP3   OH228205   0.697   0.331   2.174
 9421TIP3    H128206   0.726   0.414   2.213
 9421TIP3    H228207   0.777   0.281   2.162
 9422TIP3   OH228208   2.822   0.606   6.236
 9422TIP3    H128209   2.828   0.670   6.306
 9422TIP3    H228210   2.829   0.657   6.155
 9423TIP3   OH228211   4.166   4.488   2.252
 9423TIP3    H128212   4.239   4.518   2.306
 9423TIP3    H228213   4.184   4.395   2.237
 9424TIP3   OH228214   0.167   2.738   2.904
 9424TIP3    H128215   0.103   2.754   2.834
 9424TIP3    H228216   0.117   2.750   2.985
 9425TIP3   OH228217   0.053   7.422   1.400
 9425TIP3    H128218   0.071   7.402   1.492
 9425TIP3    H228219   0.133   7.396   1.354
 9426TIP3   OH228220   3.496   7.734   3.101
 9426TIP3    H128221   3.410   7.707   3.068
 9426TIP3    H228222   3.486   7.733   3.196
 9427TIP3   OH228223   1.462   3.889   3.108
 9427TIP3    H128224   1.445   3.968   3.160
 9427TIP3    H228225   1.377   3.866   3.071
 9428TIP3   OH228226   1.969   2.181   4.164
 9428TIP3    H128227   2.062   2.157   4.162
 9428TIP3    H228228   1.940   2.156   4.252
 9429TIP3   OH228229   0.022   2.360   6.481
 9429TIP3    H128230  -0.034   2.420   6.529
 9429TIP3    H228231   0.090   2.415   6.443
 9430TIP3   OH228232   1.617   7.388   1.906
 9430TIP3    H128233   1.661   7.423   1.983
 9430TIP3    H228234   1.671   7.315   1.878
 9431TIP3   OH228235   2.565   0.915   1.109
 9431TIP3    H128236   2.511   0.846   1.069
 9431TIP3    H228237   2.506   0.960   1.169
 9432TIP3   OH228238   7.041   7.499   1.647
 9432TIP3    H128239   7.028   7.486   1.553
 9432TIP3    H228240   7.087   7.420   1.676
 9433TIP3   OH228241   1.561   7.669   5.629
 9433TIP3    H128242   1.473   7.636   5.615
 9433TIP3    H228243   1.615   7.624   5.564
 9434TIP3   OH228244   2.485   0.837   1.649
 9434TIP3    H128245   2.422   0.804   1.586
 9434TIP3    H228246   2.432   0.883   1.714
 9435TIP3   OH228247   0.549   1.302   1.646
 9435TIP3    H128248   0.587   1.251   1.574
 9435TIP3    H228249   0.611   1.374   1.659
 9436TIP3   OH228250   7.174   2.664   6.105
 9436TIP3    H128251   7.198   2.578   6.141
 9436TIP3    H228252   7.258   2.709   6.092
 9437TIP3   OH228253   0.231   2.821   6.421
 9437TIP3    H128254   0.231   2.882   6.495
 9437TIP3    H228255   0.285   2.864   6.354
 9438TIP3   OH228256   3.645   3.023   5.170
 9438TIP3    H128257   3.566   3.020   5.116
 9438TIP3    H228258   3.708   3.071   5.118
 9439TIP3   OH228259   2.357   5.219   3.920
 9439TIP3    H128260   2.319   5.306   3.912
 9439TIP3    H228261   2.330   5.174   3.840
 9440TIP3   OH228262   2.104   4.536   0.232
 9440TIP3    H128263   2.141   4.473   0.171
 9440TIP3    H228264   2.179   4.577   0.274
 9441TIP3   OH228265   4.145   7.551   1.970
 9441TIP3    H128266   4.093   7.549   2.050
 9441TIP3    H228267   4.229   7.513   1.995
 9442TIP3   OH228268   0.153   2.725   4.963
 9442TIP3    H128269   0.205   2.797   4.999
 9442TIP3    H228270   0.209   2.688   4.894
 9443TIP3   OH228271   5.536   0.535   4.757
 9443TIP3    H128272   5.489   0.618   4.762
 9443TIP3    H228273   5.540   0.504   4.847
 9444TIP3   OH228274   4.348   1.629   6.028
 9444TIP3    H128275   4.305   1.699   6.077
 9444TIP3    H228276   4.300   1.550   6.052
 9445TIP3   OH228277   4.100   5.154   6.645
 9445TIP3    H128278   4.061   5.219   6.587
 9445TIP3    H228279   4.160   5.203   6.701
 9446TIP3   OH228280   4.710   7.103   6.740
 9446TIP3    H128281   4.681   7.107   6.649
 9446TIP3    H228282   4.630   7.087   6.790
 9447TIP3   OH228283   2.140   1.553   4.083
 9447TIP3    H128284   2.235   1.549   4.080
 9447TIP3    H228285   2.111   1.468   4.050
 9448TIP3   OH228286   6.145   2.251   5.089
 9448TIP3    H128287   6.134   2.334   5.135
 9448TIP3    H228288   6.065   2.241   5.037
 9449TIP3   OH228289   7.538   4.441   0.232
 9449TIP3    H128290   7.475   4.443   0.160
 9449TIP3    H228291   7.612   4.391   0.197
 9450TIP3   OH228292   0.640   5.207   6.345
 9450TIP3    H128293   0.614   5.149   6.273
 9450TIP3    H228294   0.733   5.191   6.355
 9451TIP3   OH228295   1.059   2.855   1.793
 9451TIP3    H128296   1.074   2.761   1.783
 9451TIP3    H228297   1.090   2.894   1.711
 9452TIP3   OH228298   1.070   4.578   0.779
 9452TIP3    H128299   1.010   4.651   0.792
 9452TIP3    H228300   1.025   4.502   0.816
 9453TIP3   OH228301   1.601   1.868   0.810
 9453TIP3    H128302   1.681   1.910   0.842
 9453TIP3    H228303   1.567   1.820   0.885
 9454TIP3   OH228304   5.481   1.447   4.336
 9454TIP3    H128305   5.507   1.503   4.263
 9454TIP3    H228306   5.396   1.481   4.364
 9455TIP3   OH228307   3.685   1.404   2.059
 9455TIP3    H128308   3.601   1.441   2.034
 9455TIP3    H228309   3.708   1.346   1.985
 9456TIP3   OH228310   6.807   4.290   5.164
 9456TIP3    H128311   6.781   4.201   5.141
 9456TIP3    H228312   6.750   4.313   5.238
 9457TIP3   OH228313   1.882   4.574   0.894
 9457TIP3    H128314   1.884   4.560   0.799
 9457TIP3    H228315   1.973   4.566   0.922
 9458TIP3   OH228316   3.243   5.519   4.850
 9458TIP3    H128317   3.147   5.522   4.845
 9458TIP3    H228318   3.270   5.610   4.836
 9459TIP3   OH228319   6.098   0.828   4.366
 9459TIP3    H128320   6.166   0.793   4.309
 9459TIP3    H228321   6.141   0.842   4.450
 9460TIP3   OH228322   7.844   3.973   1.230
 9460TIP3    H128323   7.931   3.962   1.269
 9460TIP3    H228324   7.817   3.885   1.205
 9461TIP3   OH228325   7.963   4.750   2.472
 9461TIP3    H128326   7.996   4.814   2.535
 9461TIP3    H228327   7.974   4.665   2.516
 9462TIP3   OH228328   2.748   3.173   3.651
 9462TIP3    H128329   2.703   3.089   3.645
 9462TIP3    H228330   2.819   3.167   3.587
 9463TIP3   OH228331   6.085   2.820   4.723
 9463TIP3    H128332   6.001   2.866   4.726
 9463TIP3    H228333   6.145   2.881   4.680
 9464TIP3   OH228334   6.420   5.325   2.077
 9464TIP3    H128335   6.447   5.249   2.026
 9464TIP3    H228336   6.324   5.326   2.071
 9465TIP3   OH228337   3.134   7.638   1.662
 9465TIP3    H128338   3.208   7.647   1.602
 9465TIP3    H228339   3.174   7.625   1.748
 9466TIP3   OH228340   0.713   7.736   6.599
 9466TIP3    H128341   0.690   7.664   6.541
 9466TIP3    H228342   0.657   7.808   6.572
 9467TIP3   OH228343   7.967   5.444   1.915
 9467TIP3    H128344   8.042   5.391   1.941
 9467TIP3    H228345   7.901   5.427   1.982
 9468TIP3   OH228346   0.520   0.064   5.532
 9468TIP3    H128347   0.535   0.044   5.624
 9468TIP3    H228348   0.463   0.141   5.533
 9469TIP3   OH228349   1.119   1.671   4.699
 9469TIP3    H128350   1.170   1.715   4.631
 9469TIP3    H228351   1.090   1.589   4.658
 9470TIP3   OH228352   2.529   1.329   4.617
 9470TIP3    H128353   2.619   1.302   4.594
 9470TIP3    H228354   2.540   1.413   4.661
 9471TIP3   OH228355   7.517   2.005   4.848
 9471TIP3    H128356   7.495   2.060   4.773
 9471TIP3    H228357   7.613   1.996   4.844
 9472TIP3   OH228358   2.240   6.024   2.907
 9472TIP3    H128359   2.282   5.993   2.827
 9472TIP3    H228360   2.202   5.945   2.946
 9473TIP3   OH228361   4.192   0.617   6.312
 9473TIP3    H128362   4.101   0.644   6.323
 9473TIP3    H228363   4.218   0.584   6.398
 9474TIP3   OH228364   4.767   3.292   6.102
 9474TIP3    H128365   4.812   3.211   6.079
 9474TIP3    H228366   4.717   3.314   6.023
 9475TIP3   OH228367   7.863   3.519   1.913
 9475TIP3    H128368   7.846   3.430   1.942
 9475TIP3    H228369   7.857   3.515   1.818
 9476TIP3   OH228370   7.953   7.378   6.283
 9476TIP3    H128371   7.858   7.371   6.281
 9476TIP3    H228372   7.982   7.345   6.198
 9477TIP3   OH228373   2.077   0.776   5.222
 9477TIP3    H128374   2.140   0.784   5.151
 9477TIP3    H228375   2.037   0.863   5.229
 9478TIP3   OH228376   7.911   6.333   5.251
 9478TIP3    H128377   7.909   6.413   5.198
 9478TIP3    H228378   7.839   6.280   5.216
 9479TIP3   OH228379   1.909   5.995   6.080
 9479TIP3    H128380   1.940   5.970   6.167
 9479TIP3    H228381   1.882   5.913   6.039
 9480TIP3   OH228382   7.440   4.927   2.401
 9480TIP3    H128383   7.458   4.848   2.350
 9480TIP3    H228384   7.498   4.921   2.477
 9481TIP3   OH228385   8.091   3.545   2.568
 9481TIP3    H128386   8.023   3.479   2.580
 9481TIP3    H228387   8.082   3.603   2.645
 9482TIP3   OH228388   6.191   2.820   3.353
 9482TIP3    H128389   6.227   2.905   3.379
 9482TIP3    H228390   6.138   2.839   3.275
 9483TIP3   OH228391   6.043   7.203   4.888
 9483TIP3    H128392   6.126   7.157   4.875
 9483TIP3    H228393   5.999   7.199   4.803
 9484TIP3   OH228394   5.913   0.272   0.273
 9484TIP3    H128395   5.928   0.226   0.356
 9484TIP3    H228396   5.928   0.206   0.206
 9485TIP3   OH228397   1.937   0.288   1.185
 9485TIP3    H128398   1.857   0.240   1.162
 9485TIP3    H228399   1.987   0.226   1.238
 9486TIP3   OH228400   5.626   3.886   2.944
 9486TIP3    H128401   5.611   3.968   2.991
 9486TIP3    H228402   5.622   3.910   2.852
 9487TIP3   OH228403   8.075   7.573   0.558
 9487TIP3    H128404   8.123   7.531   0.487
 9487TIP3    H228405   8.041   7.500   0.610
 9488TIP3   OH228406   2.056   4.160   3.500
 9488TIP3    H128407   2.098   4.245   3.510
 9488TIP3    H228408   2.094   4.124   3.420
 9489TIP3   OH228409   3.762   6.904   5.202
 9489TIP3    H128410   3.770   6.999   5.212
 9489TIP3    H228411   3.711   6.876   5.278
 9490TIP3   OH228412   2.556   0.577   6.206
 9490TIP3    H128413   2.539   0.484   6.189
 9490TIP3    H228414   2.649   0.588   6.187
 9491TIP3   OH228415   2.405   6.787   2.576
 9491TIP3    H128416   2.462   6.713   2.560
 9491TIP3    H228417   2.463   6.863   2.577
 9492TIP3   OH228418   7.848   5.243   0.678
 9492TIP3    H128419   7.888   5.169   0.725
 9492TIP3    H228420   7.908   5.261   0.606
 9493TIP3   OH228421   3.652   5.482   3.223
 9493TIP3    H128422   3.717   5.505   3.157
 9493TIP3    H228423   3.655   5.386   3.227
 9494TIP3   OH228424   5.005   6.544   5.196
 9494TIP3    H128425   4.939   6.550   5.266
 9494TIP3    H228426   5.008   6.451   5.175
 9495TIP3   OH228427   6.730   7.509   4.167
 9495TIP3    H128428   6.793   7.442   4.142
 9495TIP3    H228429   6.690   7.477   4.248
 9496TIP3   OH228430   0.122   2.358   5.207
 9496TIP3    H128431   0.113   2.357   5.302
 9496TIP3    H228432   0.078   2.438   5.179
 9497TIP3   OH228433   4.169   6.261   2.791
 9497TIP3    H128434   4.077   6.273   2.768
 9497TIP3    H228435   4.208   6.348   2.780
 9498TIP3   OH228436   0.693   2.648   4.688
 9498TIP3    H128437   0.730   2.561   4.699
 9498TIP3    H228438   0.769   2.705   4.677
 9499TIP3   OH228439   0.672   4.159   3.493
 9499TIP3    H128440   0.699   4.067   3.489
 9499TIP3    H228441   0.719   4.201   3.421
 9500TIP3   OH228442   7.284   2.764   2.639
 9500TIP3    H128443   7.201   2.795   2.677
 9500TIP3    H228444   7.301   2.826   2.568
 9501TIP3   OH228445   2.662   6.535   2.254
 9501TIP3    H128446   2.697   6.605   2.310
 9501TIP3    H228447   2.739   6.485   2.228
 9502TIP3   OH228448   6.254   0.956   2.501
 9502TIP3    H128449   6.166   0.937   2.470
 9502TIP3    H228450   6.312   0.924   2.431
 9503TIP3   OH228451   7.894   2.026   0.700
 9503TIP3    H128452   7.828   1.963   0.670
 9503TIP3    H228453   7.890   2.022   0.795
 9504TIP3   OH228454   7.552   3.008   5.937
 9504TIP3    H128455   7.468   3.053   5.946
 9504TIP3    H228456   7.594   3.018   6.023
 9505TIP3   OH228457   2.778   2.786   1.494
 9505TIP3    H128458   2.792   2.756   1.584
 9505TIP3    H228459   2.832   2.728   1.441
 9506TIP3   OH228460   5.847   1.737   5.951
 9506TIP3    H128461   5.755   1.738   5.976
 9506TIP3    H228462   5.856   1.810   5.889
 9507TIP3   OH228463   3.352   5.453   0.534
 9507TIP3    H128464   3.326   5.364   0.556
 9507TIP3    H228465   3.438   5.464   0.574
 9508TIP3   OH228466   5.046   4.273   6.422
 9508TIP3    H128467   5.080   4.194   6.464
 9508TIP3    H228468   5.012   4.326   6.494
 9509TIP3   OH228469   6.927   1.464   5.360
 9509TIP3    H128470   6.878   1.394   5.403
 9509TIP3    H228471   6.894   1.465   5.270
 9510TIP3   OH228472   2.242   5.674   0.044
 9510TIP3    H128473   2.322   5.722   0.063
 9510TIP3    H228474   2.259   5.584   0.073
 9511TIP3   OH228475   0.197   6.371   0.543
 9511TIP3    H128476   0.211   6.466   0.552
 9511TIP3    H228477   0.279   6.338   0.506
 9512TIP3   OH228478   1.404   5.663   4.328
 9512TIP3    H128479   1.381   5.648   4.236
 9512TIP3    H228480   1.467   5.735   4.325
 9513TIP3   OH228481   5.365   0.775   6.041
 9513TIP3    H128482   5.420   0.844   6.003
 9513TIP3    H228483   5.319   0.737   5.966
 9514TIP3   OH228484   4.554   2.294   0.993
 9514TIP3    H128485   4.559   2.209   0.951
 9514TIP3    H228486   4.596   2.354   0.931
 9515TIP3   OH228487   3.730   3.746   6.566
 9515TIP3    H128488   3.694   3.773   6.481
 9515TIP3    H228489   3.672   3.786   6.630
 9516TIP3   OH228490   0.959   1.910   4.366
 9516TIP3    H128491   1.014   1.833   4.356
 9516TIP3    H228492   0.911   1.915   4.283
 9517TIP3   OH228493   5.591   1.023   6.666
 9517TIP3    H128494   5.518   1.039   6.605
 9517TIP3    H228495   5.663   1.074   6.629
 9518TIP3   OH228496   1.240   3.162   3.362
 9518TIP3    H128497   1.236   3.192   3.271
 9518TIP3    H228498   1.201   3.075   3.360
 9519TIP3   OH228499   2.820   6.635   5.494
 9519TIP3    H128500   2.742   6.655   5.443
 9519TIP3    H228501   2.840   6.716   5.540
 9520TIP3   OH228502   0.436   0.467   6.207
 9520TIP3    H128503   0.430   0.440   6.115
 9520TIP3    H228504   0.345   0.467   6.238
 9521TIP3   OH228505   6.944   4.586   3.176
 9521TIP3    H128506   6.957   4.625   3.089
 9521TIP3    H228507   6.972   4.654   3.237
 9522TIP3   OH228508   0.096   5.841   4.382
 9522TIP3    H128509   0.119   5.922   4.338
 9522TIP3    H228510   0.148   5.841   4.462
 9523TIP3   OH228511   3.473   2.357   0.948
 9523TIP3    H128512   3.441   2.295   1.013
 9523TIP3    H228513   3.497   2.435   0.998
 9524TIP3   OH228514   7.727   2.941   0.112
 9524TIP3    H128515   7.807   2.890   0.108
 9524TIP3    H228516   7.657   2.877   0.101
 9525TIP3   OH228517   6.180   4.655   4.624
 9525TIP3    H128518   6.170   4.562   4.645
 9525TIP3    H228519   6.156   4.700   4.705
 9526TIP3   OH228520   4.066   4.425   4.105
 9526TIP3    H128521   4.072   4.332   4.125
 9526TIP3    H228522   4.042   4.466   4.188
 9527TIP3   OH228523   5.267   4.493   6.759
 9527TIP3    H128524   5.308   4.440   6.827
 9527TIP3    H228525   5.176   4.465   6.759
 9528TIP3   OH228526   5.033   6.756   0.652
 9528TIP3    H128527   5.111   6.718   0.612
 9528TIP3    H228528   5.025   6.714   0.737
 9529TIP3   OH228529   2.767   2.720   5.141
 9529TIP3    H128530   2.696   2.690   5.084
 9529TIP3    H228531   2.767   2.657   5.214
 9530TIP3   OH228532   4.568   6.056   0.717
 9530TIP3    H128533   4.632   6.118   0.680
 9530TIP3    H228534   4.555   6.087   0.807
 9531TIP3   OH228535   0.681   6.900   5.564
 9531TIP3    H128536   0.641   6.846   5.632
 9531TIP3    H228537   0.774   6.903   5.587
 9532TIP3   OH228538   0.180   0.823   4.083
 9532TIP3    H128539   0.191   0.734   4.118
 9532TIP3    H228540   0.142   0.873   4.155
 9533TIP3   OH228541   3.966   3.645   3.374
 9533TIP3    H128542   3.904   3.603   3.434
 9533TIP3    H228543   3.951   3.739   3.387
 9534TIP3   OH228544   3.426   2.044   2.340
 9534TIP3    H128545   3.420   1.954   2.310
 9534TIP3    H228546   3.411   2.039   2.435
 9535TIP3   OH228547   5.145   2.452   5.431
 9535TIP3    H128548   5.108   2.536   5.403
 9535TIP3    H228549   5.230   2.447   5.387
 9536TIP3   OH228550   0.670   3.428   3.024
 9536TIP3    H128551   0.708   3.345   2.995
 9536TIP3    H228552   0.578   3.422   2.998
 9537TIP3   OH228553   2.449   0.492   1.515
 9537TIP3    H128554   2.371   0.439   1.530
 9537TIP3    H228555   2.487   0.504   1.602
 9538TIP3   OH228556   1.792   3.797   6.609
 9538TIP3    H128557   1.765   3.882   6.644
 9538TIP3    H228558   1.770   3.801   6.516
 9539TIP3   OH228559   5.517   2.867   1.546
 9539TIP3    H128560   5.510   2.804   1.618
 9539TIP3    H228561   5.543   2.949   1.588
 9540TIP3   OH228562   8.186   6.042   1.719
 9540TIP3    H128563   8.250   5.971   1.710
 9540TIP3    H228564   8.150   6.052   1.631
 9541TIP3   OH228565   5.873   0.865   3.774
 9541TIP3    H128566   5.808   0.795   3.763
 9541TIP3    H228567   5.868   0.916   3.694
 9542TIP3   OH228568   7.658   6.710   2.221
 9542TIP3    H128569   7.705   6.639   2.179
 9542TIP3    H228570   7.590   6.667   2.272
 9543TIP3   OH228571   6.031   6.980   3.422
 9543TIP3    H128572   5.987   6.925   3.488
 9543TIP3    H228573   6.068   6.918   3.360
 9544TIP3   OH228574   3.670   6.411   0.820
 9544TIP3    H128575   3.580   6.439   0.802
 9544TIP3    H228576   3.661   6.320   0.851
 9545TIP3   OH228577   8.124   4.626   6.690
 9545TIP3    H128578   8.161   4.680   6.620
 9545TIP3    H228579   8.166   4.541   6.678
 9546TIP3   OH228580   5.071   4.946   2.450
 9546TIP3    H128581   5.106   4.885   2.515
 9546TIP3    H228582   5.114   5.029   2.470
 9547TIP3   OH228583   3.851   0.036   0.845
 9547TIP3    H128584   3.919   0.068   0.904
 9547TIP3    H228585   3.847   0.100   0.775
 9548TIP3   OH228586   1.131   5.471   4.036
 9548TIP3    H128587   1.160   5.488   3.947
 9548TIP3    H228588   1.056   5.412   4.027
 9549TIP3   OH228589   0.874   0.507   4.867
 9549TIP3    H128590   0.789   0.483   4.905
 9549TIP3    H228591   0.938   0.485   4.935
 9550TIP3   OH228592   0.664   3.392   5.231
 9550TIP3    H128593   0.588   3.338   5.250
 9550TIP3    H228594   0.735   3.352   5.282
 9551TIP3   OH228595   6.006   7.630   4.345
 9551TIP3    H128596   5.926   7.669   4.379
 9551TIP3    H228597   5.995   7.630   4.250
 9552TIP3   OH228598   8.039   2.724   0.037
 9552TIP3    H128599   8.101   2.737  -0.034
 9552TIP3    H228600   8.061   2.791   0.101
 9553TIP3   OH228601   5.260   0.585   3.807
 9553TIP3    H128602   5.236   0.674   3.833
 9553TIP3    H228603   5.305   0.595   3.723
 9554TIP3   OH228604   3.319   3.935   4.797
 9554TIP3    H128605   3.346   4.018   4.837
 9554TIP3    H228606   3.349   3.941   4.707
 9555TIP3   OH228607   5.706   4.940   1.827
 9555TIP3    H128608   5.797   4.961   1.847
 9555TIP3    H228609   5.664   4.933   1.913
 9556TIP3   OH228610   7.538   1.537   6.502
 9556TIP3    H128611   7.526   1.475   6.574
 9556TIP3    H228612   7.459   1.591   6.504
 9557TIP3   OH228613   2.835   5.406   2.844
 9557TIP3    H128614   2.788   5.475   2.798
 9557TIP3    H228615   2.774   5.375   2.911
 9558TIP3   OH228616   1.541   0.105   6.554
 9558TIP3    H128617   1.516   0.170   6.489
 9558TIP3    H228618   1.585   0.154   6.623
 9559TIP3   OH228619   3.489   5.058   0.949
 9559TIP3    H128620   3.477   5.143   0.908
 9559TIP3    H228621   3.579   5.060   0.984
 9560TIP3   OH228622   8.134   7.434   0.254
 9560TIP3    H128623   8.205   7.480   0.298
 9560TIP3    H228624   8.175   7.393   0.178
 9561TIP3   OH228625   7.226   7.008   2.423
 9561TIP3    H128626   7.316   7.031   2.447
 9561TIP3    H228627   7.234   6.929   2.370
 9562TIP3   OH228628   7.182   0.970   6.376
 9562TIP3    H128629   7.242   0.931   6.440
 9562TIP3    H228630   7.215   0.940   6.291
 9563TIP3   OH228631   5.458   1.861   5.763
 9563TIP3    H128632   5.495   1.946   5.742
 9563TIP3    H228633   5.372   1.861   5.721
 9564TIP3   OH228634   7.998   5.732   4.856
 9564TIP3    H128635   7.997   5.670   4.930
 9564TIP3    H228636   7.932   5.797   4.878
 9565TIP3   OH228637   0.908   3.367   2.060
 9565TIP3    H128638   0.995   3.377   2.020
 9565TIP3    H228639   0.847   3.393   1.992
 9566TIP3   OH228640   6.780   5.146   4.654
 9566TIP3    H128641   6.732   5.229   4.655
 9566TIP3    H228642   6.748   5.102   4.575
 9567TIP3   OH228643   5.372   3.835   2.700
 9567TIP3    H128644   5.345   3.917   2.742
 9567TIP3    H228645   5.293   3.802   2.658
 9568TIP3   OH228646   2.819   1.170   4.982
 9568TIP3    H128647   2.819   1.212   5.067
 9568TIP3    H228648   2.892   1.108   4.985
 9569TIP3   OH228649   5.626   0.640   0.270
 9569TIP3    H128650   5.532   0.658   0.274
 9569TIP3    H228651   5.632   0.545   0.257
 9570TIP3   OH228652   5.284   7.109   4.901
 9570TIP3    H128653   5.229   7.085   4.827
 9570TIP3    H228654   5.296   7.026   4.949
 9571TIP3   OH228655   0.858   4.939   0.584
 9571TIP3    H128656   0.819   5.025   0.566
 9571TIP3    H228657   0.787   4.877   0.567
 9572TIP3   OH228658   1.577   3.418   3.830
 9572TIP3    H128659   1.491   3.380   3.811
 9572TIP3    H228660   1.606   3.454   3.746
 9573TIP3   OH228661   4.206   2.792   3.098
 9573TIP3    H128662   4.181   2.839   3.177
 9573TIP3    H228663   4.299   2.773   3.109
 9574TIP3   OH228664   0.542   1.248   0.729
 9574TIP3    H128665   0.557   1.177   0.666
 9574TIP3    H228666   0.613   1.240   0.792
 9575TIP3   OH228667   0.010   6.669   1.803
 9575TIP3    H128668  -0.044   6.658   1.881
 9575TIP3    H228669  -0.014   6.595   1.747
 9576TIP3   OH228670   2.415   7.801   2.193
 9576TIP3    H128671   2.335   7.820   2.144
 9576TIP3    H228672   2.483   7.795   2.127
 9577TIP3   OH228673   7.563   1.062   1.202
 9577TIP3    H128674   7.559   1.152   1.169
 9577TIP3    H228675   7.650   1.055   1.241
 9578TIP3   OH228676   0.332   0.683   1.279
 9578TIP3    H128677   0.292   0.607   1.321
 9578TIP3    H228678   0.327   0.752   1.345
 9579TIP3   OH228679   1.926   6.811   1.310
 9579TIP3    H128680   1.877   6.745   1.261
 9579TIP3    H228681   1.934   6.884   1.248
 9580TIP3   OH228682   3.915   4.355   4.643
 9580TIP3    H128683   4.007   4.364   4.618
 9580TIP3    H228684   3.867   4.358   4.560
 9581TIP3   OH228685   7.747   5.375  -0.067
 9581TIP3    H128686   7.704   5.458  -0.045
 9581TIP3    H228687   7.831   5.379  -0.022
 9582TIP3   OH228688   1.155   6.093   2.597
 9582TIP3    H128689   1.147   6.090   2.692
 9582TIP3    H228690   1.198   6.177   2.579
 9583TIP3   OH228691   6.805   2.825   1.119
 9583TIP3    H128692   6.891   2.786   1.136
 9583TIP3    H228693   6.778   2.862   1.203
 9584TIP3   OH228694   3.925   4.086   6.499
 9584TIP3    H128695   4.006   4.134   6.515
 9584TIP3    H228696   3.950   4.014   6.441
 9585TIP3   OH228697   3.907   7.175   2.592
 9585TIP3    H128698   3.831   7.174   2.534
 9585TIP3    H228699   3.914   7.086   2.625
 9586TIP3   OH228700   3.205   1.971   1.062
 9586TIP3    H128701   3.222   1.925   0.980
 9586TIP3    H228702   3.138   1.918   1.105
 9587TIP3   OH228703   8.201   7.000   6.430
 9587TIP3    H128704   8.231   7.071   6.373
 9587TIP3    H228705   8.210   7.035   6.519
 9588TIP3   OH228706   1.788   5.669   4.317
 9588TIP3    H128707   1.827   5.643   4.401
 9588TIP3    H228708   1.787   5.764   4.319
 9589TIP3   OH228709   2.801   4.629   4.835
 9589TIP3    H128710   2.848   4.567   4.779
 9589TIP3    H228711   2.855   4.707   4.836
 9590TIP3   OH228712   1.240   3.046   5.782
 9590TIP3    H128713   1.179   3.083   5.718
 9590TIP3    H228714   1.326   3.079   5.755
 9591TIP3   OH228715   0.300   3.984   3.423
 9591TIP3    H128716   0.326   4.003   3.333
 9591TIP3    H228717   0.291   3.889   3.426
 9592TIP3   OH228718   7.571   4.750   5.879
 9592TIP3    H128719   7.504   4.812   5.908
 9592TIP3    H228720   7.573   4.760   5.783
 9593TIP3   OH228721   2.988   5.605   4.741
 9593TIP3    H128722   3.035   5.678   4.700
 9593TIP3    H228723   2.903   5.642   4.766
 9594TIP3   OH228724   2.507   2.070   6.371
 9594TIP3    H128725   2.449   2.123   6.424
 9594TIP3    H228726   2.509   1.985   6.415
 9595TIP3   OH228727   7.263   5.909   1.188
 9595TIP3    H128728   7.234   5.988   1.142
 9595TIP3    H228729   7.351   5.893   1.155
 9596TIP3   OH228730   6.233   7.167   0.895
 9596TIP3    H128731   6.264   7.257   0.898
 9596TIP3    H228732   6.252   7.139   0.805
 9597TIP3   OH228733   0.389   2.180   5.474
 9597TIP3    H128734   0.455   2.217   5.533
 9597TIP3    H228735   0.398   2.230   5.393
 9598TIP3   OH228736   0.685   7.142   4.029
 9598TIP3    H128737   0.740   7.089   3.972
 9598TIP3    H228738   0.695   7.231   3.995
 9599TIP3   OH228739   2.681   4.175   1.823
 9599TIP3    H128740   2.713   4.106   1.765
 9599TIP3    H228741   2.589   4.184   1.802
 9600TIP3   OH228742   8.099   1.702   4.104
 9600TIP3    H128743   8.145   1.630   4.149
 9600TIP3    H228744   8.167   1.745   4.052
 9601TIP3   OH228745   2.681   2.270   3.224
 9601TIP3    H128746   2.680   2.274   3.128
 9601TIP3    H228747   2.774   2.273   3.246
 9602TIP3   OH228748   0.793   0.724   0.754
 9602TIP3    H128749   0.868   0.674   0.787
 9602TIP3    H228750   0.796   0.806   0.804
 9603TIP3   OH228751   3.165   0.128   1.463
 9603TIP3    H128752   3.083   0.179   1.457
 9603TIP3    H228753   3.140   0.048   1.508
 9604TIP3   OH228754   7.182   7.779   5.555
 9604TIP3    H128755   7.162   7.797   5.647
 9604TIP3    H228756   7.100   7.797   5.508
 9605TIP3   OH228757   4.843   4.143   6.260
 9605TIP3    H128758   4.756   4.167   6.292
 9605TIP3    H228759   4.903   4.192   6.317
 9606TIP3   OH228760   0.978   1.011   2.333
 9606TIP3    H128761   1.051   0.965   2.292
 9606TIP3    H228762   0.947   1.070   2.264
 9607TIP3   OH228763   2.014   4.868   2.662
 9607TIP3    H128764   2.010   4.779   2.626
 9607TIP3    H228765   2.078   4.913   2.607
 9608TIP3   OH228766   0.880   0.877   5.604
 9608TIP3    H128767   0.828   0.869   5.524
 9608TIP3    H228768   0.870   0.792   5.648
 9609TIP3   OH228769   4.225   2.328   3.444
 9609TIP3    H128770   4.280   2.394   3.400
 9609TIP3    H228771   4.168   2.295   3.375
 9610TIP3   OH228772   6.678   2.725   4.610
 9610TIP3    H128773   6.608   2.791   4.609
 9610TIP3    H228774   6.694   2.708   4.703
 9611TIP3   OH228775   4.162   2.663   5.606
 9611TIP3    H128776   4.098   2.730   5.629
 9611TIP3    H228777   4.114   2.603   5.549
 9612TIP3   OH228778   4.196   0.908   3.618
 9612TIP3    H128779   4.217   1.001   3.621
 9612TIP3    H228780   4.106   0.903   3.649
 9613TIP3   OH228781   3.792   6.576   6.019
 9613TIP3    H128782   3.872   6.629   6.016
 9613TIP3    H228783   3.744   6.602   5.940
 9614TIP3   OH228784   8.200   0.574   0.018
 9614TIP3    H128785   8.176   0.635   0.088
 9614TIP3    H228786   8.149   0.495   0.037
 9615TIP3   OH228787   7.526   7.415   4.827
 9615TIP3    H128788   7.542   7.354   4.899
 9615TIP3    H228789   7.593   7.393   4.762
 9616TIP3   OH228790   2.865   0.770   6.013
 9616TIP3    H128791   2.807   0.755   5.938
 9616TIP3    H228792   2.953   0.767   5.975
 9617TIP3   OH228793   6.336   2.019   2.139
 9617TIP3    H128794   6.387   2.075   2.197
 9617TIP3    H228795   6.388   2.012   2.059
 9618TIP3   OH228796   7.636   3.947   3.349
 9618TIP3    H128797   7.613   3.872   3.294
 9618TIP3    H228798   7.657   4.016   3.286
 9619TIP3   OH228799   3.929   6.976   0.587
 9619TIP3    H128800   3.871   6.901   0.568
 9619TIP3    H228801   3.961   7.004   0.502
 9620TIP3   OH228802   5.700   2.427   4.504
 9620TIP3    H128803   5.782   2.443   4.458
 9620TIP3    H228804   5.677   2.512   4.543
 9621TIP3   OH228805   4.289   1.150   2.075
 9621TIP3    H128806   4.240   1.198   2.009
 9621TIP3    H228807   4.365   1.205   2.093
 9622TIP3   OH228808   5.387   4.236   2.621
 9622TIP3    H128809   5.393   4.329   2.640
 9622TIP3    H228810   5.395   4.231   2.525
 9623TIP3   OH228811   1.670   5.036   3.081
 9623TIP3    H128812   1.671   4.941   3.074
 9623TIP3    H228813   1.581   5.062   3.058
 9624TIP3   OH228814   3.431   5.473   4.234
 9624TIP3    H128815   3.399   5.561   4.251
 9624TIP3    H228816   3.525   5.477   4.255
 9625TIP3   OH228817   3.016   5.272   5.411
 9625TIP3    H128818   3.061   5.326   5.476
 9625TIP3    H228819   2.984   5.197   5.461
 9626TIP3   OH228820   6.370   2.477   1.328
 9626TIP3    H128821   6.350   2.395   1.284
 9626TIP3    H228822   6.367   2.456   1.421
 9627TIP3   OH228823   7.344   1.024   3.725
 9627TIP3    H128824   7.345   1.079   3.802
 9627TIP3    H228825   7.267   1.052   3.676
 9628TIP3   OH228826   0.917   4.528   5.083
 9628TIP3    H128827   0.879   4.446   5.115
 9628TIP3    H228828   0.867   4.597   5.126
 9629TIP3   OH228829   6.768   7.403   1.180
 9629TIP3    H128830   6.785   7.378   1.089
 9629TIP3    H228831   6.693   7.350   1.207
 9630TIP3   OH228832   3.491   0.262   1.011
 9630TIP3    H128833   3.485   0.314   1.091
 9630TIP3    H228834   3.401   0.237   0.991
 9631TIP3   OH228835   0.255   5.230   1.146
 9631TIP3    H128836   0.340   5.209   1.107
 9631TIP3    H228837   0.197   5.243   1.071
 9632TIP3   OH228838   6.192   6.979   3.163
 9632TIP3    H128839   6.121   7.034   3.196
 9632TIP3    H228840   6.151   6.928   3.093
 9633TIP3   OH228841   1.559   4.645   3.129
 9633TIP3    H128842   1.583   4.556   3.102
 9633TIP3    H228843   1.496   4.673   3.062
 9634TIP3   OH228844   0.799   0.228   0.326
 9634TIP3    H128845   0.779   0.310   0.371
 9634TIP3    H228846   0.818   0.166   0.396
 9635TIP3   OH228847   2.998   0.692   4.997
 9635TIP3    H128848   3.079   0.735   5.023
 9635TIP3    H228849   3.024   0.602   4.979
 9636TIP3   OH228850   0.154   2.209   3.486
 9636TIP3    H128851   0.246   2.183   3.490
 9636TIP3    H228852   0.106   2.127   3.479
 9637TIP3   OH228853   3.783   3.666   1.669
 9637TIP3    H128854   3.824   3.582   1.688
 9637TIP3    H228855   3.855   3.728   1.668
 9638TIP3   OH228856   7.258   3.599   6.573
 9638TIP3    H128857   7.238   3.675   6.518
 9638TIP3    H228858   7.181   3.590   6.630
 9639TIP3   OH228859   3.487   3.912   5.929
 9639TIP3    H128860   3.572   3.912   5.885
 9639TIP3    H228861   3.478   3.825   5.966
 9640TIP3   OH228862   6.579   3.944   0.855
 9640TIP3    H128863   6.542   3.864   0.893
 9640TIP3    H228864   6.641   3.975   0.922
 9641TIP3   OH228865   2.413   6.587   5.437
 9641TIP3    H128866   2.420   6.492   5.431
 9641TIP3    H228867   2.439   6.608   5.526
 9642TIP3   OH228868   3.240   3.510   6.179
 9642TIP3    H128869   3.150   3.540   6.166
 9642TIP3    H228870   3.275   3.568   6.247
 9643TIP3   OH228871   7.247   3.291   2.689
 9643TIP3    H128872   7.325   3.247   2.655
 9643TIP3    H228873   7.227   3.358   2.625
 9644TIP3   OH228874   2.035   6.591   2.540
 9644TIP3    H128875   2.112   6.538   2.518
 9644TIP3    H228876   2.009   6.560   2.626
 9645TIP3   OH228877   1.588   2.574   0.094
 9645TIP3    H128878   1.672   2.619   0.100
 9645TIP3    H228879   1.610   2.481   0.090
 9646TIP3   OH228880   2.944   7.640   5.808
 9646TIP3    H128881   2.859   7.673   5.837
 9646TIP3    H228882   2.929   7.547   5.791
 9647TIP3   OH228883   6.365   1.544   6.080
 9647TIP3    H128884   6.349   1.450   6.092
 9647TIP3    H228885   6.282   1.579   6.046
 9648TIP3   OH228886   1.532   7.765   5.936
 9648TIP3    H128887   1.479   7.722   5.869
 9648TIP3    H228888   1.611   7.793   5.889
 9649TIP3   OH228889   7.899   4.110   3.415
 9649TIP3    H128890   7.854   4.044   3.467
 9649TIP3    H228891   7.853   4.111   3.332
 9650TIP3   OH228892   1.165   2.252   3.419
 9650TIP3    H128893   1.212   2.268   3.501
 9650TIP3    H228894   1.143   2.159   3.422
 9651TIP3   OH228895   0.457   0.341   5.958
 9651TIP3    H128896   0.402   0.383   5.891
 9651TIP3    H228897   0.547   0.358   5.929
 9652TIP3   OH228898   0.626   1.492   4.368
 9652TIP3    H128899   0.563   1.433   4.408
 9652TIP3    H228900   0.636   1.460   4.278
 9653TIP3   OH228901   2.077   0.556   0.586
 9653TIP3    H128902   2.144   0.552   0.653
 9653TIP3    H228903   2.038   0.468   0.585
 9654TIP3   OH228904   0.665   3.411   2.703
 9654TIP3    H128905   0.727   3.339   2.689
 9654TIP3    H228906   0.600   3.375   2.764
 9655TIP3   OH228907   1.774   6.443   3.190
 9655TIP3    H128908   1.814   6.466   3.274
 9655TIP3    H228909   1.695   6.496   3.185
 9656TIP3   OH228910  -0.059   2.694   2.384
 9656TIP3    H128911   0.001   2.644   2.439
 9656TIP3    H228912  -0.034   2.786   2.399
 9657TIP3   OH228913   7.550   6.002   6.747
 9657TIP3    H128914   7.576   6.069   6.810
 9657TIP3    H228915   7.510   6.052   6.675
 9658TIP3   OH228916   6.560   1.668   4.243
 9658TIP3    H128917   6.470   1.642   4.223
 9658TIP3    H228918   6.612   1.635   4.169
 9659TIP3   OH228919   3.868   5.791   6.493
 9659TIP3    H128920   3.957   5.807   6.525
 9659TIP3    H228921   3.821   5.871   6.512
 9660TIP3   OH228922   1.628   1.438   1.310
 9660TIP3    H128923   1.553   1.379   1.321
 9660TIP3    H228924   1.693   1.386   1.263
 9661TIP3   OH228925   3.800   7.765   5.863
 9661TIP3    H128926   3.721   7.791   5.816
 9661TIP3    H228927   3.852   7.845   5.869
 9662TIP3   OH228928   7.939   6.144   3.370
 9662TIP3    H128929   7.996   6.216   3.397
 9662TIP3    H228930   7.895   6.117   3.451
 9663TIP3   OH228931   0.440   3.999   4.571
 9663TIP3    H128932   0.426   3.977   4.663
 9663TIP3    H228933   0.451   3.914   4.528
 9664TIP3   OH228934   2.660   1.639   0.129
 9664TIP3    H128935   2.667   1.719   0.180
 9664TIP3    H228936   2.566   1.629   0.112
 9665TIP3   OH228937   8.017   7.841   2.140
 9665TIP3    H128938   7.933   7.796   2.143
 9665TIP3    H228939   8.075   7.781   2.095
 9666TIP3   OH228940   7.084   0.602   5.665
 9666TIP3    H128941   7.061   0.663   5.735
 9666TIP3    H228942   7.033   0.633   5.589
 9667TIP3   OH228943   6.499   2.281   1.855
 9667TIP3    H128944   6.511   2.223   1.779
 9667TIP3    H228945   6.559   2.248   1.921
 9668TIP3   OH228946   6.703   7.377   6.101
 9668TIP3    H128947   6.772   7.420   6.151
 9668TIP3    H228948   6.643   7.344   6.168
 9669TIP3   OH228949   1.189   1.822   5.408
 9669TIP3    H128950   1.192   1.748   5.348
 9669TIP3    H228951   1.153   1.786   5.489
 9670TIP3   OH228952   7.695   3.022   3.894
 9670TIP3    H128953   7.778   2.992   3.855
 9670TIP3    H228954   7.656   3.076   3.826
 9671TIP3   OH228955   3.913   3.947   2.545
 9671TIP3    H128956   3.926   3.878   2.480
 9671TIP3    H228957   3.993   4.000   2.540
 9672TIP3   OH228958   1.668   2.796   2.480
 9672TIP3    H128959   1.723   2.818   2.556
 9672TIP3    H228960   1.693   2.859   2.413
 9673TIP3   OH228961   7.099   2.634   1.834
 9673TIP3    H128962   7.094   2.703   1.900
 9673TIP3    H228963   7.192   2.619   1.821
 9674TIP3   OH228964   3.279   7.014   1.661
 9674TIP3    H128965   3.204   7.073   1.676
 9674TIP3    H228966   3.274   6.951   1.733
 9675TIP3   OH228967   2.615   0.845   4.244
 9675TIP3    H128968   2.660   0.865   4.326
 9675TIP3    H228969   2.675   0.875   4.176
 9676TIP3   OH228970   1.101   1.749   4.092
 9676TIP3    H128971   1.091   1.655   4.078
 9676TIP3    H228972   1.012   1.783   4.092
 9677TIP3   OH228973   6.779   5.984   0.328
 9677TIP3    H128974   6.793   5.896   0.363
 9677TIP3    H228975   6.756   5.970   0.237
 9678TIP3   OH228976   6.137   2.062   5.293
 9678TIP3    H128977   6.060   2.082   5.346
 9678TIP3    H228978   6.121   2.108   5.210
 9679TIP3   OH228979   2.447   1.854   3.829
 9679TIP3    H128980   2.366   1.902   3.813
 9679TIP3    H228981   2.427   1.764   3.804
 9680TIP3   OH228982   1.494   7.335   4.192
 9680TIP3    H128983   1.554   7.260   4.199
 9680TIP3    H228984   1.415   7.299   4.153
 9681TIP3   OH228985   3.216   0.191   4.303
 9681TIP3    H128986   3.234   0.279   4.271
 9681TIP3    H228987   3.158   0.153   4.237
 9682TIP3   OH228988   7.325   2.380   3.330
 9682TIP3    H128989   7.404   2.388   3.277
 9682TIP3    H228990   7.255   2.413   3.274
 9683TIP3   OH228991   0.059   4.813   0.381
 9683TIP3    H128992   0.102   4.896   0.403
 9683TIP3    H228993   0.052   4.815   0.286
 9684TIP3   OH228994   6.683   3.183   5.217
 9684TIP3    H128995   6.629   3.139   5.284
 9684TIP3    H228996   6.756   3.123   5.203
 9685TIP3   OH228997   7.896   5.597   4.647
 9685TIP3    H128998   7.827   5.546   4.689
 9685TIP3    H228999   7.945   5.635   4.720
 9686TIP3   OH229000   5.528   2.179   3.535
 9686TIP3    H129001   5.465   2.123   3.581
 9686TIP3    H229002   5.540   2.254   3.593
 9687TIP3   OH229003   0.182   7.094   4.602
 9687TIP3    H129004   0.266   7.049   4.605
 9687TIP3    H229005   0.127   7.039   4.546
 9688TIP3   OH229006   0.257   0.120   1.990
 9688TIP3    H129007   0.298   0.206   1.996
 9688TIP3    H229008   0.171   0.136   1.951
 9689TIP3   OH229009   0.995   7.161   4.451
 9689TIP3    H129010   1.008   7.066   4.449
 9689TIP3    H229011   0.946   7.178   4.531
 9690TIP3   OH229012   0.485   5.428   5.140
 9690TIP3    H129013   0.400   5.434   5.182
 9690TIP3    H229014   0.545   5.472   5.201
 9691TIP3   OH229015   3.990   2.208   5.051
 9691TIP3    H129016   4.041   2.288   5.038
 9691TIP3    H229017   4.050   2.137   5.027
 9692TIP3   OH229018   4.225   5.938   4.261
 9692TIP3    H129019   4.223   5.997   4.185
 9692TIP3    H229020   4.167   5.866   4.238
 9693TIP3   OH229021   4.741   5.624   4.726
 9693TIP3    H129022   4.799   5.598   4.797
 9693TIP3    H229023   4.780   5.585   4.648
 9694TIP3   OH229024   4.880   5.746   3.254
 9694TIP3    H129025   4.963   5.761   3.300
 9694TIP3    H229026   4.899   5.766   3.163
 9695TIP3   OH229027   6.332   7.472   2.258
 9695TIP3    H129028   6.293   7.537   2.317
 9695TIP3    H229029   6.308   7.388   2.296
 9696TIP3   OH229030   2.156   6.496   5.517
 9696TIP3    H129031   2.174   6.405   5.544
 9696TIP3    H229032   2.242   6.534   5.502
 9697TIP3   OH229033   0.915   1.202   4.143
 9697TIP3    H129034   0.922   1.107   4.133
 9697TIP3    H229035   0.970   1.237   4.074
 9698TIP3   OH229036   6.894   7.407   0.084
 9698TIP3    H129037   6.839   7.471   0.039
 9698TIP3    H229038   6.864   7.410   0.175
 9699TIP3   OH229039   5.446   0.080   3.927
 9699TIP3    H129040   5.465   0.150   3.989
 9699TIP3    H229041   5.530   0.062   3.884
 9700TIP3   OH229042   0.967   4.106   0.484
 9700TIP3    H129043   1.027   4.124   0.411
 9700TIP3    H229044   1.012   4.040   0.537
 9701TIP3   OH229045   5.278   2.091   2.907
 9701TIP3    H129046   5.203   2.036   2.885
 9701TIP3    H229047   5.274   2.162   2.843
 9702TIP3   OH229048   8.008   2.253   6.183
 9702TIP3    H129049   8.014   2.304   6.102
 9702TIP3    H229050   8.040   2.166   6.159
 9703TIP3   OH229051   6.545   2.502   6.157
 9703TIP3    H129052   6.452   2.503   6.181
 9703TIP3    H229053   6.546   2.475   6.065
 9704TIP3   OH229054   3.410   4.451   5.103
 9704TIP3    H129055   3.431   4.524   5.161
 9704TIP3    H229056   3.377   4.493   5.024
 9705TIP3   OH229057   4.803   5.307   2.351
 9705TIP3    H129058   4.753   5.387   2.336
 9705TIP3    H229059   4.768   5.271   2.432
 9706TIP3   OH229060   2.493   6.493   2.935
 9706TIP3    H129061   2.445   6.567   2.899
 9706TIP3    H229062   2.425   6.437   2.974
 9707TIP3   OH229063   0.777   5.337   5.784
 9707TIP3    H129064   0.717   5.294   5.723
 9707TIP3    H229065   0.830   5.395   5.729
 9708TIP3   OH229066   3.311   4.719   0.770
 9708TIP3    H129067   3.228   4.701   0.725
 9708TIP3    H229068   3.351   4.633   0.780
 9709TIP3   OH229069   0.621   0.346   3.723
 9709TIP3    H129070   0.662   0.432   3.734
 9709TIP3    H229071   0.688   0.284   3.750
 9710TIP3   OH229072   3.134   2.217   3.967
 9710TIP3    H129073   3.095   2.246   3.884
 9710TIP3    H229074   3.119   2.122   3.969
 9711TIP3   OH229075   6.328   0.691   2.728
 9711TIP3    H129076   6.266   0.755   2.761
 9711TIP3    H229077   6.295   0.669   2.641
 9712TIP3   OH229078   5.251   4.230   6.253
 9712TIP3    H129079   5.179   4.264   6.305
 9712TIP3    H229080   5.220   4.146   6.220
 9713TIP3   OH229081   8.048   4.588   6.260
 9713TIP3    H129082   8.046   4.513   6.201
 9713TIP3    H229083   7.986   4.566   6.329
 9714TIP3   OH229084   0.101   4.650   4.131
 9714TIP3    H129085   0.120   4.576   4.074
 9714TIP3    H229086   0.041   4.615   4.197
 9715TIP3   OH229087   6.309   4.520   0.355
 9715TIP3    H129088   6.363   4.594   0.384
 9715TIP3    H229089   6.363   4.477   0.289
 9716TIP3   OH229090   5.363   0.733   0.457
 9716TIP3    H129091   5.322   0.798   0.400
 9716TIP3    H229092   5.427   0.782   0.508
 9717TIP3   OH229093   1.188   6.768   6.079
 9717TIP3    H129094   1.262   6.722   6.040
 9717TIP3    H229095   1.173   6.843   6.021
 9718TIP3   OH229096   0.627   1.212   3.862
 9718TIP3    H129097   0.558   1.212   3.796
 9718TIP3    H229098   0.705   1.243   3.816
 9719TIP3   OH229099   7.924   3.580   1.255
 9719TIP3    H129100   7.976   3.601   1.178
 9719TIP3    H229101   7.842   3.626   1.241
 9720TIP3   OH229102   6.924   2.456   4.851
 9720TIP3    H129103   6.959   2.426   4.767
 9720TIP3    H229104   6.869   2.531   4.829
 9721TIP3   OH229105   4.329   6.255   0.570
 9721TIP3    H129106   4.375   6.215   0.496
 9721TIP3    H229107   4.238   6.225   0.561
 9722TIP3   OH229108   7.404   4.556   4.067
 9722TIP3    H129109   7.400   4.582   4.159
 9722TIP3    H229110   7.401   4.461   4.069
 9723TIP3   OH229111   6.762   1.372   5.120
 9723TIP3    H129112   6.726   1.394   5.035
 9723TIP3    H229113   6.686   1.366   5.178
 9724TIP3   OH229114   2.236   5.080   3.709
 9724TIP3    H129115   2.299   5.008   3.700
 9724TIP3    H229116   2.154   5.038   3.735
 9725TIP3   OH229117   2.995  -0.003   0.849
 9725TIP3    H129118   2.927  -0.041   0.904
 9725TIP3    H229119   2.952   0.012   0.765
 9726TIP3   OH229120   2.919   6.390   2.147
 9726TIP3    H129121   3.014   6.382   2.137
 9726TIP3    H229122   2.903   6.366   2.239
 9727TIP3   OH229123   1.724   0.591   2.400
 9727TIP3    H129124   1.758   0.633   2.321
 9727TIP3    H229125   1.653   0.648   2.430
 9728TIP3   OH229126   7.828   5.452   3.513
 9728TIP3    H129127   7.753   5.479   3.566
 9728TIP3    H229128   7.830   5.357   3.520
 9729TIP3   OH229129   4.147   4.601   3.329
 9729TIP3    H129130   4.086   4.619   3.400
 9729TIP3    H229131   4.173   4.510   3.343
 9730TIP3   OH229132   1.220   3.948   1.022
 9730TIP3    H129133   1.169   4.002   0.961
 9730TIP3    H229134   1.216   3.860   0.986
 9731TIP3   OH229135   0.688   2.552   5.482
 9731TIP3    H129136   0.655   2.605   5.555
 9731TIP3    H229137   0.765   2.600   5.451
 9732TIP3   OH229138   5.142   5.645   1.243
 9732TIP3    H129139   5.214   5.666   1.185
 9732TIP3    H229140   5.169   5.564   1.287
 9733TIP3   OH229141   2.374   4.844   0.856
 9733TIP3    H129142   2.444   4.778   0.856
 9733TIP3    H229143   2.380   4.885   0.769
 9734TIP3   OH229144   7.539   2.152   1.398
 9734TIP3    H129145   7.625   2.151   1.355
 9734TIP3    H229146   7.518   2.244   1.408
 9735TIP3   OH229147   7.950   2.127   1.411
 9735TIP3    H129148   7.887   2.088   1.350
 9735TIP3    H229149   7.919   2.099   1.498
 9736TIP3   OH229150   1.284   5.176   6.610
 9736TIP3    H129151   1.200   5.201   6.571
 9736TIP3    H229152   1.260   5.135   6.693
 9737TIP3   OH229153   4.565   0.933   5.391
 9737TIP3    H129154   4.591   0.956   5.480
 9737TIP3    H229155   4.472   0.954   5.386
 9738TIP3   OH229156   6.258   0.044   5.082
 9738TIP3    H129157   6.305   0.062   5.001
 9738TIP3    H229158   6.323   0.055   5.151
 9739TIP3   OH229159   8.170   6.700   6.375
 9739TIP3    H129160   8.193   6.791   6.395
 9739TIP3    H229161   8.164   6.697   6.280
 9740TIP3   OH229162   0.064   3.575   5.354
 9740TIP3    H129163   0.047   3.514   5.426
 9740TIP3    H229164   0.127   3.638   5.390
 9741TIP3   OH229165   0.700   7.603   3.412
 9741TIP3    H129166   0.638   7.676   3.416
 9741TIP3    H229167   0.730   7.603   3.321
 9742TIP3   OH229168   7.452   5.862   3.715
 9742TIP3    H129169   7.443   5.770   3.741
 9742TIP3    H229170   7.417   5.865   3.626
 9743TIP3   OH229171   8.151   0.443   4.351
 9743TIP3    H129172   8.198   0.485   4.424
 9743TIP3    H229173   8.064   0.423   4.387
 9744TIP3   OH229174   0.871   7.152   1.962
 9744TIP3    H129175   0.911   7.127   1.879
 9744TIP3    H229176   0.800   7.088   1.975
 9745TIP3   OH229177   4.877   7.502   4.798
 9745TIP3    H129178   4.972   7.502   4.813
 9745TIP3    H229179   4.843   7.436   4.858
 9746TIP3   OH229180   0.668   1.077   4.380
 9746TIP3    H129181   0.724   1.015   4.427
 9746TIP3    H229182   0.724   1.154   4.367
 9747TIP3   OH229183   8.096   0.368   2.006
 9747TIP3    H129184   8.143   0.353   2.088
 9747TIP3    H229185   8.164   0.370   1.939
 9748TIP3   OH229186   3.634   1.920   4.610
 9748TIP3    H129187   3.576   1.962   4.673
 9748TIP3    H229188   3.583   1.847   4.575
 9749TIP3   OH229189   5.609   1.134   2.977
 9749TIP3    H129190   5.684   1.089   3.017
 9749TIP3    H229191   5.557   1.064   2.939
 9750TIP3   OH229192   0.581   3.249   4.042
 9750TIP3    H129193   0.672   3.249   4.014
 9750TIP3    H229194   0.580   3.192   4.119
 9751TIP3   OH229195   7.753   7.335   4.695
 9751TIP3    H129196   7.784   7.273   4.761
 9751TIP3    H229197   7.795   7.418   4.719
 9752TIP3   OH229198   5.245   3.725   4.468
 9752TIP3    H129199   5.243   3.655   4.534
 9752TIP3    H229200   5.213   3.802   4.515
 9753TIP3   OH229201   7.804   2.646   5.592
 9753TIP3    H129202   7.740   2.626   5.523
 9753TIP3    H229203   7.760   2.713   5.645
 9754TIP3   OH229204   7.118   2.637   0.355
 9754TIP3    H129205   7.131   2.688   0.434
 9754TIP3    H229206   7.040   2.675   0.315
 9755TIP3   OH229207   4.621   7.530   0.492
 9755TIP3    H129208   4.700   7.477   0.506
 9755TIP3    H229209   4.594   7.510   0.402
 9756TIP3   OH229210   1.394   3.492   2.710
 9756TIP3    H129211   1.338   3.484   2.787
 9756TIP3    H229212   1.338   3.464   2.637
 9757TIP3   OH229213   5.372   4.868   5.370
 9757TIP3    H129214   5.364   4.823   5.286
 9757TIP3    H229215   5.333   4.954   5.355
 9758TIP3   OH229216   5.977   1.687   4.303
 9758TIP3    H129217   5.937   1.633   4.235
 9758TIP3    H229218   5.907   1.704   4.366
 9759TIP3   OH229219   2.405   5.427   4.411
 9759TIP3    H129220   2.381   5.520   4.407
 9759TIP3    H229221   2.355   5.386   4.340
 9760TIP3   OH229222   5.920   1.255   2.855
 9760TIP3    H129223   5.897   1.238   2.946
 9760TIP3    H229224   5.950   1.170   2.822
 9761TIP3   OH229225   5.370   5.889   5.560
 9761TIP3    H129226   5.452   5.872   5.513
 9761TIP3    H229227   5.336   5.969   5.521
 9762TIP3   OH229228   0.540   0.655   2.636
 9762TIP3    H129229   0.491   0.617   2.709
 9762TIP3    H229230   0.631   0.655   2.667
 9763TIP3   OH229231   3.434   6.523   1.177
 9763TIP3    H129232   3.514   6.559   1.215
 9763TIP3    H229233   3.388   6.600   1.144
 9764TIP3   OH229234   5.151   1.869   4.910
 9764TIP3    H129235   5.117   1.841   4.825
 9764TIP3    H229236   5.171   1.788   4.956
 9765TIP3   OH229237   7.052   6.780   5.632
 9765TIP3    H129238   7.005   6.703   5.665
 9765TIP3    H229239   7.140   6.748   5.612
 9766TIP3   OH229240   7.630   2.165   2.760
 9766TIP3    H129241   7.641   2.071   2.774
 9766TIP3    H229242   7.657   2.179   2.669
 9767TIP3   OH229243   6.643   3.551   3.302
 9767TIP3    H129244   6.559   3.589   3.325
 9767TIP3    H229245   6.651   3.567   3.208
 9768TIP3   OH229246   3.078   3.533   2.652
 9768TIP3    H129247   3.016   3.463   2.675
 9768TIP3    H229248   3.157   3.487   2.625
 9769TIP3   OH229249   4.988   1.100   1.505
 9769TIP3    H129250   4.984   1.009   1.536
 9769TIP3    H229251   4.918   1.145   1.553
 9770TIP3   OH229252   5.023   3.277   5.430
 9770TIP3    H129253   4.956   3.305   5.493
 9770TIP3    H229254   4.989   3.305   5.345
 9771TIP3   OH229255   3.467   6.459   6.298
 9771TIP3    H129256   3.464   6.372   6.258
 9771TIP3    H229257   3.560   6.482   6.297
 9772TIP3   OH229258   1.095   3.365   5.353
 9772TIP3    H129259   1.074   3.446   5.401
 9772TIP3    H229260   1.012   3.318   5.349
 9773TIP3   OH229261   5.794   2.798   0.546
 9773TIP3    H129262   5.814   2.775   0.455
 9773TIP3    H229263   5.708   2.758   0.562
 9774TIP3   OH229264   6.051   5.441   0.551
 9774TIP3    H129265   5.982   5.386   0.585
 9774TIP3    H229266   6.126   5.424   0.607
 9775TIP3   OH229267   6.249   1.872   6.495
 9775TIP3    H129268   6.328   1.916   6.463
 9775TIP3    H229269   6.188   1.877   6.422
 9776TIP3   OH229270   8.246   6.673   2.355
 9776TIP3    H129271   8.309   6.745   2.364
 9776TIP3    H229272   8.218   6.655   2.445
 9777TIP3   OH229273   8.118   0.150   3.258
 9777TIP3    H129274   8.101   0.055   3.260
 9777TIP3    H229275   8.076   0.179   3.177
 9778TIP3   OH229276   0.555   1.071   4.753
 9778TIP3    H129277   0.538   1.040   4.842
 9778TIP3    H229278   0.650   1.063   4.743
 9779TIP3   OH229279   6.038   0.542   0.240
 9779TIP3    H129280   6.038   0.459   0.192
 9779TIP3    H229281   6.010   0.519   0.328
 9780TIP3   OH229282   2.731   5.251   3.043
 9780TIP3    H129283   2.711   5.179   2.983
 9780TIP3    H229284   2.667   5.242   3.114
 9781TIP3   OH229285   7.428   5.022   3.652
 9781TIP3    H129286   7.428   5.079   3.575
 9781TIP3    H229287   7.511   4.975   3.648
 9782TIP3   OH229288   1.199   6.016   4.744
 9782TIP3    H129289   1.132   6.078   4.774
 9782TIP3    H229290   1.260   6.070   4.694
 9783TIP3   OH229291   4.960   2.703   1.405
 9783TIP3    H129292   4.929   2.772   1.463
 9783TIP3    H229293   5.040   2.670   1.447
 9784TIP3   OH229294   1.152   3.706   2.028
 9784TIP3    H129295   1.084   3.694   2.095
 9784TIP3    H229296   1.142   3.631   1.970
 9785TIP3   OH229297   2.484   2.465   3.838
 9785TIP3    H129298   2.407   2.522   3.836
 9785TIP3    H229299   2.485   2.428   3.926
 9786TIP3   OH229300   1.610   6.264   5.904
 9786TIP3    H129301   1.562   6.186   5.933
 9786TIP3    H229302   1.699   6.251   5.937
 9787TIP3   OH229303   0.693   0.913   2.859
 9787TIP3    H129304   0.738   0.903   2.775
 9787TIP3    H229305   0.688   0.824   2.894
 9788TIP3   OH229306   2.427   1.353   1.856
 9788TIP3    H129307   2.480   1.433   1.847
 9788TIP3    H229308   2.489   1.286   1.882
 9789TIP3   OH229309   0.811   2.221   3.191
 9789TIP3    H129310   0.834   2.215   3.098
 9789TIP3    H229311   0.830   2.312   3.214
 9790TIP3   OH229312   2.305   0.623   5.839
 9790TIP3    H129313   2.393   0.604   5.807
 9790TIP3    H229314   2.318   0.656   5.928
 9791TIP3   OH229315   0.060   0.721   5.973
 9791TIP3    H129316   0.055   0.638   6.022
 9791TIP3    H229317   0.133   0.768   6.015
 9792TIP3   OH229318   3.356   2.361   5.212
 9792TIP3    H129319   3.433   2.306   5.197
 9792TIP3    H229320   3.313   2.321   5.287
 9793TIP3   OH229321   4.883   5.537   5.821
 9793TIP3    H129322   4.821   5.506   5.756
 9793TIP3    H229323   4.905   5.460   5.873
 9794TIP3   OH229324   4.247   5.652   4.193
 9794TIP3    H129325   4.287   5.566   4.177
 9794TIP3    H229326   4.317   5.703   4.235
 9795TIP3   OH229327   2.497   4.858   3.818
 9795TIP3    H129328   2.538   4.930   3.770
 9795TIP3    H229329   2.498   4.785   3.757
 9796TIP3   OH229330   2.462   7.070   2.579
 9796TIP3    H129331   2.531   7.076   2.645
 9796TIP3    H229332   2.504   7.098   2.498
 9797TIP3   OH229333   0.914   6.742   2.881
 9797TIP3    H129334   0.995   6.770   2.922
 9797TIP3    H229335   0.906   6.649   2.904
 9798TIP3   OH229336   0.295   4.100   2.380
 9798TIP3    H129337   0.209   4.135   2.405
 9798TIP3    H229338   0.274   4.027   2.322
 9799TIP3   OH229339   0.136   0.675   0.720
 9799TIP3    H129340   0.095   0.589   0.731
 9799TIP3    H229341   0.177   0.694   0.804
 9800TIP3   OH229342   1.208   2.908   2.769
 9800TIP3    H129343   1.229   2.868   2.853
 9800TIP3    H229344   1.249   2.851   2.704
 9801TIP3   OH229345   6.535   6.057   2.557
 9801TIP3    H129346   6.452   6.094   2.585
 9801TIP3    H229347   6.560   5.998   2.629
 9802TIP3   OH229348   1.324   4.663   6.321
 9802TIP3    H129349   1.319   4.734   6.385
 9802TIP3    H229350   1.267   4.690   6.250
 9803TIP3   OH229351   7.214   1.399   4.118
 9803TIP3    H129352   7.206   1.346   4.038
 9803TIP3    H229353   7.295   1.370   4.159
 9804TIP3   OH229354   0.058   6.145   4.356
 9804TIP3    H129355   0.136   6.117   4.308
 9804TIP3    H229356   0.037   6.230   4.319
 9805TIP3   OH229357   0.300   1.619   6.567
 9805TIP3    H129358   0.307   1.555   6.637
 9805TIP3    H229359   0.273   1.569   6.491
 9806TIP3   OH229360   6.962   6.757   2.620
 9806TIP3    H129361   7.025   6.707   2.568
 9806TIP3    H229362   7.013   6.791   2.694
 9807TIP3   OH229363   5.644   0.720   4.373
 9807TIP3    H129364   5.688   0.642   4.340
 9807TIP3    H229365   5.566   0.729   4.318
 9808TIP3   OH229366   7.846   6.604   2.997
 9808TIP3    H129367   7.793   6.526   3.016
 9808TIP3    H229368   7.792   6.678   3.023
 9809TIP3   OH229369   3.341   2.723   2.810
 9809TIP3    H129370   3.267   2.718   2.870
 9809TIP3    H229371   3.317   2.792   2.748
 9810TIP3   OH229372   1.297   0.241   3.304
 9810TIP3    H129373   1.287   0.170   3.241
 9810TIP3    H229374   1.385   0.275   3.288
 9811TIP3   OH229375   2.883   6.341   2.762
 9811TIP3    H129376   2.971   6.365   2.791
 9811TIP3    H229377   2.827   6.361   2.838
 9812TIP3   OH229378   4.936   4.996   5.107
 9812TIP3    H129379   4.985   4.931   5.056
 9812TIP3    H229380   4.871   5.030   5.046
 9813TIP3   OH229381   6.732   1.444   4.856
 9813TIP3    H129382   6.676   1.443   4.779
 9813TIP3    H229383   6.818   1.470   4.823
 9814TIP3   OH229384   1.727   1.021   3.102
 9814TIP3    H129385   1.712   1.044   3.011
 9814TIP3    H229386   1.675   1.085   3.152
 9815TIP3   OH229387   0.266   6.252   5.161
 9815TIP3    H129388   0.333   6.241   5.229
 9815TIP3    H229389   0.313   6.240   5.079
 9816TIP3   OH229390   1.970   2.247   6.718
 9816TIP3    H129391   2.050   2.282   6.758
 9816TIP3    H229392   1.934   2.320   6.667
 9817TIP3   OH229393   5.625   6.848   2.110
 9817TIP3    H129394   5.653   6.771   2.060
 9817TIP3    H229395   5.701   6.871   2.163
 9818TIP3   OH229396   2.665   2.284   4.712
 9818TIP3    H129397   2.733   2.219   4.694
 9818TIP3    H229398   2.644   2.273   4.805
 9819TIP3   OH229399   1.077   0.509   5.655
 9819TIP3    H129400   1.127   0.590   5.666
 9819TIP3    H229401   1.119   0.465   5.581
 9820TIP3   OH229402   4.746   6.825   3.363
 9820TIP3    H129403   4.754   6.763   3.291
 9820TIP3    H229404   4.674   6.883   3.338
 9821TIP3   OH229405   3.661   0.499   2.282
 9821TIP3    H129406   3.695   0.427   2.230
 9821TIP3    H229407   3.575   0.519   2.243
 9822TIP3   OH229408   7.972   5.908   4.619
 9822TIP3    H129409   8.008   5.847   4.684
 9822TIP3    H229410   8.038   5.910   4.550
 9823TIP3   OH229411   2.174   3.848   5.966
 9823TIP3    H129412   2.232   3.822   5.895
 9823TIP3    H229413   2.122   3.769   5.985
 9824TIP3   OH229414   4.399   3.280   4.518
 9824TIP3    H129415   4.420   3.209   4.456
 9824TIP3    H229416   4.363   3.350   4.463
 9825TIP3   OH229417   4.902   1.475   1.867
 9825TIP3    H129418   4.909   1.522   1.950
 9825TIP3    H229419   4.834   1.521   1.818
 9826TIP3   OH229420   2.553   6.899   6.565
 9826TIP3    H129421   2.593   6.822   6.605
 9826TIP3    H229422   2.609   6.919   6.490
 9827TIP3   OH229423   0.024   2.965   1.430
 9827TIP3    H129424  -0.044   3.029   1.452
 9827TIP3    H229425   0.062   2.997   1.349
 9828TIP3   OH229426   2.503   3.705   5.397
 9828TIP3    H129427   2.414   3.679   5.421
 9828TIP3    H229428   2.532   3.760   5.469
 9829TIP3   OH229429   2.843   1.287   0.049
 9829TIP3    H129430   2.939   1.281   0.055
 9829TIP3    H229431   2.811   1.213   0.101
 9830TIP3   OH229432   1.314   2.326   1.688
 9830TIP3    H129433   1.353   2.334   1.775
 9830TIP3    H229434   1.257   2.402   1.679
 9831TIP3   OH229435   6.292   6.357   1.185
 9831TIP3    H129436   6.379   6.318   1.192
 9831TIP3    H229437   6.247   6.332   1.266
 9832TIP3   OH229438   1.849   4.984   3.772
 9832TIP3    H129439   1.818   5.041   3.702
 9832TIP3    H229440   1.907   4.921   3.729
 9833TIP3   OH229441   4.870   1.882   5.494
 9833TIP3    H129442   4.897   1.791   5.485
 9833TIP3    H229443   4.812   1.897   5.419
 9834TIP3   OH229444   3.531   0.038   4.828
 9834TIP3    H129445   3.622   0.020   4.852
 9834TIP3    H229446   3.536   0.066   4.736
 9835TIP3   OH229447   7.935   4.792   4.564
 9835TIP3    H129448   7.848   4.770   4.596
 9835TIP3    H229449   7.924   4.877   4.521
 9836TIP3   OH229450   7.556   0.147   0.630
 9836TIP3    H129451   7.509   0.077   0.675
 9836TIP3    H229452   7.487   0.203   0.595
 9837TIP3   OH229453   1.410   0.465   5.215
 9837TIP3    H129454   1.505   0.456   5.209
 9837TIP3    H229455   1.387   0.526   5.145
 9838TIP3   OH229456   2.649   7.704   2.716
 9838TIP3    H129457   2.710   7.712   2.642
 9838TIP3    H229458   2.564   7.729   2.680
 9839TIP3   OH229459   5.834   4.226   1.524
 9839TIP3    H129460   5.879   4.141   1.521
 9839TIP3    H229461   5.873   4.277   1.454
 9840TIP3   OH229462   5.966   0.731   2.189
 9840TIP3    H129463   5.970   0.730   2.094
 9840TIP3    H229464   6.051   0.764   2.217
 9841TIP3   OH229465   7.706   2.572   1.660
 9841TIP3    H129466   7.772   2.553   1.594
 9841TIP3    H229467   7.713   2.500   1.723
 9842TIP3   OH229468   1.385   3.631   1.426
 9842TIP3    H129469   1.414   3.543   1.449
 9842TIP3    H229470   1.421   3.646   1.338
 9843TIP3   OH229471   7.355   1.501   0.024
 9843TIP3    H129472   7.314   1.554   0.092
 9843TIP3    H229473   7.317   1.414   0.035
 9844TIP3   OH229474   7.178   7.261   1.670
 9844TIP3    H129475   7.130   7.224   1.596
 9844TIP3    H229476   7.195   7.185   1.727
 9845TIP3   OH229477   5.652   1.973   6.372
 9845TIP3    H129478   5.584   2.034   6.402
 9845TIP3    H229479   5.694   1.942   6.452
 9846TIP3   OH229480   3.796   5.084   0.254
 9846TIP3    H129481   3.756   4.997   0.252
 9846TIP3    H229482   3.879   5.073   0.209
 9847TIP3   OH229483   5.122   4.755   6.277
 9847TIP3    H129484   5.123   4.661   6.260
 9847TIP3    H229485   5.039   4.771   6.321
 9848TIP3   OH229486   1.759   6.214   4.409
 9848TIP3    H129487   1.749   6.151   4.481
 9848TIP3    H229488   1.703   6.180   4.339
 9849TIP3   OH229489   4.506   4.213   0.281
 9849TIP3    H129490   4.587   4.231   0.234
 9849TIP3    H229491   4.445   4.183   0.214
 9850TIP3   OH229492   0.303   3.986   0.153
 9850TIP3    H129493   0.366   3.924   0.117
 9850TIP3    H229494   0.222   3.967   0.106
 9851TIP3   OH229495   3.765   2.812   6.387
 9851TIP3    H129496   3.816   2.738   6.421
 9851TIP3    H229497   3.766   2.799   6.292
 9852TIP3   OH229498   3.825   0.032   5.383
 9852TIP3    H129499   3.842   0.126   5.381
 9852TIP3    H229500   3.790   0.015   5.470
 9853TIP3   OH229501   0.455   6.355   2.304
 9853TIP3    H129502   0.370   6.347   2.260
 9853TIP3    H229503   0.441   6.315   2.390
 9854TIP3   OH229504   5.082   5.657   6.086
 9854TIP3    H129505   5.134   5.722   6.038
 9854TIP3    H229506   4.997   5.699   6.098
 9855TIP3   OH229507   1.747   4.834   4.005
 9855TIP3    H129508   1.824   4.861   3.955
 9855TIP3    H229509   1.686   4.907   3.999
 9856TIP3   OH229510   5.940   1.540   0.465
 9856TIP3    H129511   5.867   1.580   0.511
 9856TIP3    H229512   5.927   1.446   0.476
 9857TIP3   OH229513   6.435   1.921   0.077
 9857TIP3    H129514   6.419   2.016   0.071
 9857TIP3    H229515   6.421   1.900   0.169
 9858TIP3   OH229516   3.728   3.502   0.463
 9858TIP3    H129517   3.792   3.574   0.465
 9858TIP3    H229518   3.747   3.451   0.541
 9859TIP3   OH229519   5.490   6.918   1.244
 9859TIP3    H129520   5.557   6.916   1.175
 9859TIP3    H229521   5.478   6.827   1.269
 9860TIP3   OH229522   2.203   4.810   3.399
 9860TIP3    H129523   2.132   4.811   3.336
 9860TIP3    H229524   2.249   4.892   3.386
 9861TIP3   OH229525   4.860   2.287   3.094
 9861TIP3    H129526   4.905   2.210   3.130
 9861TIP3    H229527   4.927   2.333   3.043
 9862TIP3   OH229528   5.471   3.132   5.418
 9862TIP3    H129529   5.414   3.172   5.352
 9862TIP3    H229530   5.560   3.155   5.390
 9863TIP3   OH229531   0.517   3.129   5.557
 9863TIP3    H129532   0.575   3.056   5.575
 9863TIP3    H229533   0.496   3.165   5.643
 9864TIP3   OH229534   4.980   6.572   1.695
 9864TIP3    H129535   4.987   6.503   1.761
 9864TIP3    H229536   5.046   6.549   1.630
 9865TIP3   OH229537   8.088   1.634   2.822
 9865TIP3    H129538   8.164   1.687   2.850
 9865TIP3    H229539   8.034   1.628   2.900
 9866TIP3   OH229540   4.435   1.471   5.788
 9866TIP3    H129541   4.437   1.382   5.822
 9866TIP3    H229542   4.446   1.526   5.866
 9867TIP3   OH229543   7.237   0.906   1.830
 9867TIP3    H129544   7.193   0.986   1.802
 9867TIP3    H229545   7.282   0.931   1.911
 9868TIP3   OH229546   1.973   3.649   2.328
 9868TIP3    H129547   1.888   3.668   2.288
 9868TIP3    H229548   2.021   3.601   2.260
 9869TIP3   OH229549   4.757   6.251   0.594
 9869TIP3    H129550   4.715   6.238   0.508
 9869TIP3    H229551   4.850   6.262   0.574
 9870TIP3   OH229552   2.769   6.633   0.521
 9870TIP3    H129553   2.754   6.726   0.536
 9870TIP3    H229554   2.863   6.625   0.510
 9871TIP3   OH229555   1.124   1.444   4.526
 9871TIP3    H129556   1.168   1.365   4.495
 9871TIP3    H229557   1.098   1.489   4.445
 9872TIP3   OH229558   3.966   5.800   4.293
 9872TIP3    H129559   3.971   5.768   4.383
 9872TIP3    H229560   3.964   5.720   4.240
 9873TIP3   OH229561   7.466   1.820   4.196
 9873TIP3    H129562   7.479   1.817   4.291
 9873TIP3    H229563   7.554   1.812   4.160
 9874TIP3   OH229564   6.381   2.485   5.187
 9874TIP3    H129565   6.295   2.491   5.231
 9874TIP3    H229566   6.387   2.565   5.136
 9875TIP3   OH229567   5.217   2.156   4.830
 9875TIP3    H129568   5.241   2.064   4.826
 9875TIP3    H229569   5.297   2.203   4.804
 9876TIP3   OH229570   3.502   3.548   5.401
 9876TIP3    H129571   3.570   3.525   5.339
 9876TIP3    H229572   3.501   3.476   5.464
 9877TIP3   OH229573   6.106   3.189   2.760
 9877TIP3    H129574   6.194   3.150   2.760
 9877TIP3    H229575   6.118   3.273   2.717
 9878TIP3   OH229576   6.835   2.506   0.860
 9878TIP3    H129577   6.775   2.499   0.934
 9878TIP3    H229578   6.917   2.467   0.892
 9879TIP3   OH229579   3.743   0.819   1.473
 9879TIP3    H129580   3.705   0.811   1.385
 9879TIP3    H229581   3.739   0.730   1.509
 9880TIP3   OH229582   0.324   2.700   6.705
 9880TIP3    H129583   0.259   2.655   6.651
 9880TIP3    H229584   0.329   2.647   6.784
 9881TIP3   OH229585   6.309   3.689   1.713
 9881TIP3    H129586   6.400   3.702   1.739
 9881TIP3    H229587   6.303   3.596   1.691
 9882TIP3   OH229588   2.615   1.788   6.073
 9882TIP3    H129589   2.657   1.871   6.097
 9882TIP3    H229590   2.572   1.759   6.154
 9883TIP3   OH229591   1.039   7.698   1.256
 9883TIP3    H129592   1.047   7.697   1.351
 9883TIP3    H229593   0.956   7.742   1.239
 9884TIP3   OH229594   0.444   7.012   4.662
 9884TIP3    H129595   0.501   7.088   4.674
 9884TIP3    H229596   0.447   6.966   4.745
 9885TIP3   OH229597   4.709   6.635   6.426
 9885TIP3    H129598   4.717   6.706   6.362
 9885TIP3    H229599   4.644   6.576   6.389
 9886TIP3   OH229600   6.748   4.212   2.666
 9886TIP3    H129601   6.839   4.181   2.659
 9886TIP3    H229602   6.696   4.132   2.671
 9887TIP3   OH229603   3.149   7.492   1.308
 9887TIP3    H129604   3.187   7.412   1.273
 9887TIP3    H229605   3.130   7.546   1.231
 9888TIP3   OH229606   8.215   0.227   5.817
 9888TIP3    H129607   8.217   0.223   5.722
 9888TIP3    H229608   8.252   0.313   5.838
 9889TIP3   OH229609   2.816   7.710   2.143
 9889TIP3    H129610   2.782   7.632   2.099
 9889TIP3    H229611   2.839   7.769   2.071
 9890TIP3   OH229612   2.536   4.020   5.228
 9890TIP3    H129613   2.532   4.081   5.301
 9890TIP3    H229614   2.608   3.961   5.251
 9891TIP3   OH229615   0.671   3.057   3.128
 9891TIP3    H129616   0.676   3.079   3.035
 9891TIP3    H229617   0.590   3.006   3.136
 9892TIP3   OH229618   0.539   5.724   6.013
 9892TIP3    H129619   0.561   5.729   6.106
 9892TIP3    H229620   0.514   5.633   5.999
 9893TIP3   OH229621   4.629   6.173   4.443
 9893TIP3    H129622   4.658   6.218   4.523
 9893TIP3    H229623   4.707   6.130   4.409
 9894TIP3   OH229624   1.131   6.875   5.090
 9894TIP3    H129625   1.087   6.831   5.163
 9894TIP3    H229626   1.064   6.933   5.053
 9895TIP3   OH229627   4.606   0.715   4.752
 9895TIP3    H129628   4.592   0.636   4.803
 9895TIP3    H229629   4.521   0.735   4.713
 9896TIP3   OH229630   3.725   1.592   6.319
 9896TIP3    H129631   3.636   1.624   6.333
 9896TIP3    H229632   3.746   1.544   6.399
 9897TIP3   OH229633   2.457   4.870   2.961
 9897TIP3    H129634   2.376   4.900   2.921
 9897TIP3    H229635   2.448   4.891   3.054
 9898TIP3   OH229636   5.916   2.117   2.634
 9898TIP3    H129637   5.904   2.022   2.644
 9898TIP3    H229638   5.828   2.150   2.613
 9899TIP3   OH229639   5.868   5.157   1.330
 9899TIP3    H129640   5.882   5.241   1.285
 9899TIP3    H229641   5.794   5.173   1.388
 9900TIP3   OH229642   6.330   2.452   2.134
 9900TIP3    H129643   6.255   2.456   2.193
 9900TIP3    H229644   6.403   2.425   2.189
 9901TIP3   OH229645   4.030   2.501   0.240
 9901TIP3    H129646   4.042   2.499   0.145
 9901TIP3    H229647   4.118   2.517   0.276
 9902TIP3   OH229648   7.455   3.634   5.948
 9902TIP3    H129649   7.438   3.728   5.950
 9902TIP3    H229650   7.491   3.615   6.035
 9903TIP3   OH229651   2.946   3.874   6.443
 9903TIP3    H129652   2.932   3.929   6.366
 9903TIP3    H229653   2.859   3.839   6.462
 9904TIP3   OH229654   3.226   3.801   3.986
 9904TIP3    H129655   3.286   3.778   4.057
 9904TIP3    H229656   3.141   3.807   4.028
 9905TIP3   OH229657   8.174   6.676   0.123
 9905TIP3    H129658   8.225   6.675   0.204
 9905TIP3    H229659   8.228   6.728   0.062
 9906TIP3   OH229660   5.160   7.489   4.434
 9906TIP3    H129661   5.174   7.396   4.419
 9906TIP3    H229662   5.072   7.507   4.399
 9907TIP3   OH229663   3.427   3.916   3.289
 9907TIP3    H129664   3.430   3.844   3.225
 9907TIP3    H229665   3.436   3.872   3.374
 9908TIP3   OH229666   7.139   4.413   1.352
 9908TIP3    H129667   7.118   4.351   1.422
 9908TIP3    H229668   7.202   4.474   1.391
 9909TIP3   OH229669   7.786   2.387   6.767
 9909TIP3    H129670   7.758   2.404   6.857
 9909TIP3    H229671   7.721   2.325   6.733
 9910TIP3   OH229672   1.072   1.613   0.902
 9910TIP3    H129673   0.996   1.671   0.893
 9910TIP3    H229674   1.136   1.647   0.839
 9911TIP3   OH229675   2.705   5.271   5.462
 9911TIP3    H129676   2.775   5.256   5.399
 9911TIP3    H229677   2.698   5.367   5.467
 9912TIP3   OH229678   5.651   7.680   2.489
 9912TIP3    H129679   5.622   7.699   2.400
 9912TIP3    H229680   5.705   7.755   2.513
 9913TIP3   OH229681   6.142   4.545   1.181
 9913TIP3    H129682   6.196   4.611   1.136
 9913TIP3    H229683   6.168   4.551   1.273
 9914TIP3   OH229684   3.994   4.303   5.120
 9914TIP3    H129685   3.963   4.333   5.205
 9914TIP3    H229686   4.087   4.283   5.135
 9915TIP3   OH229687   3.486   5.947   0.303
 9915TIP3    H129688   3.499   5.904   0.219
 9915TIP3    H229689   3.416   6.010   0.288
 9916TIP3   OH229690   1.117   0.568   3.978
 9916TIP3    H129691   1.122   0.474   3.998
 9916TIP3    H229692   1.031   0.578   3.938
 9917TIP3   OH229693   1.997   4.161   0.302
 9917TIP3    H129694   1.978   4.067   0.292
 9917TIP3    H229695   1.918   4.198   0.341
 9918TIP3   OH229696   5.009   3.551   5.114
 9918TIP3    H129697   5.003   3.537   5.208
 9918TIP3    H229698   5.008   3.646   5.103
 9919TIP3   OH229699   8.290   4.223   0.168
 9919TIP3    H129700   8.222   4.276   0.209
 9919TIP3    H229701   8.241   4.158   0.116
 9920TIP3   OH229702   2.788   1.468   5.683
 9920TIP3    H129703   2.713   1.445   5.737
 9920TIP3    H229704   2.753   1.528   5.617
 9921TIP3   OH229705   4.542   5.721   6.062
 9921TIP3    H129706   4.457   5.765   6.054
 9921TIP3    H229707   4.532   5.665   6.139
 9922TIP3   OH229708   6.164   3.301   5.905
 9922TIP3    H129709   6.111   3.246   5.962
 9922TIP3    H229710   6.216   3.355   5.965
 9923TIP3   OH229711   2.235   5.405   3.340
 9923TIP3    H129712   2.219   5.440   3.428
 9923TIP3    H229713   2.150   5.374   3.310
 9924TIP3   OH229714   7.402   0.764   1.041
 9924TIP3    H129715   7.380   0.848   1.080
 9924TIP3    H229716   7.491   0.776   1.006
 9925TIP3   OH229717   1.352   2.513   3.652
 9925TIP3    H129718   1.385   2.445   3.593
 9925TIP3    H229719   1.430   2.556   3.685
 9926TIP3   OH229720   7.825   6.655   2.455
 9926TIP3    H129721   7.780   6.716   2.396
 9926TIP3    H229722   7.792   6.568   2.429
 9927TIP3   OH229723   4.973   7.433   3.797
 9927TIP3    H129724   5.037   7.487   3.843
 9927TIP3    H229725   4.917   7.495   3.750
 9928TIP3   OH229726   3.374   3.295   1.084
 9928TIP3    H129727   3.459   3.316   1.121
 9928TIP3    H229728   3.357   3.365   1.021
 9929TIP3   OH229729   2.628   7.144   2.983
 9929TIP3    H129730   2.572   7.218   2.960
 9929TIP3    H229731   2.702   7.151   2.924
 9930TIP3   OH229732   1.819   4.067   5.419
 9930TIP3    H129733   1.832   4.157   5.448
 9930TIP3    H229734   1.868   4.061   5.337
 9931TIP3   OH229735   2.165   0.235   5.117
 9931TIP3    H129736   2.233   0.180   5.156
 9931TIP3    H229737   2.200   0.324   5.122
 9932TIP3   OH229738   6.579   4.093   5.939
 9932TIP3    H129739   6.549   4.136   5.860
 9932TIP3    H229740   6.527   4.131   6.009
 9933TIP3   OH229741   7.965   1.014  -0.024
 9933TIP3    H129742   8.058   1.013  -0.001
 9933TIP3    H229743   7.960   1.075  -0.098
 9934TIP3   OH229744   4.726   5.352   1.809
 9934TIP3    H129745   4.729   5.424   1.746
 9934TIP3    H229746   4.633   5.326   1.811
 9935TIP3   OH229747   0.635   5.541   1.652
 9935TIP3    H129748   0.580   5.472   1.689
 9935TIP3    H229749   0.718   5.535   1.700
 9936TIP3   OH229750   3.957   2.153   2.615
 9936TIP3    H129751   3.878   2.202   2.637
 9936TIP3    H229752   4.026   2.219   2.615
 9937TIP3   OH229753   6.451   4.459   1.470
 9937TIP3    H129754   6.468   4.451   1.376
 9937TIP3    H229755   6.374   4.514   1.476
 9938TIP3   OH229756   5.213   0.374   2.189
 9938TIP3    H129757   5.249   0.297   2.235
 9938TIP3    H229758   5.164   0.337   2.116
 9939TIP3   OH229759   0.043   2.207   3.766
 9939TIP3    H129760   0.106   2.197   3.695
 9939TIP3    H229761   0.090   2.176   3.844
 9940TIP3   OH229762   0.561   4.121   0.561
 9940TIP3    H129763   0.606   4.050   0.606
 9940TIP3    H229764   0.496   4.152   0.624
 9941TIP3   OH229765   1.337   6.890   2.535
 9941TIP3    H129766   1.288   6.893   2.453
 9941TIP3    H229767   1.272   6.913   2.602
 9942TIP3   OH229768   4.719   0.742   2.534
 9942TIP3    H129769   4.757   0.752   2.447
 9942TIP3    H229770   4.791   0.711   2.589
 9943TIP3   OH229771   3.493   1.780   1.079
 9943TIP3    H129772   3.398   1.783   1.091
 9943TIP3    H229773   3.522   1.871   1.087
 9944TIP3   OH229774   0.233   5.188   5.158
 9944TIP3    H129775   0.306   5.136   5.193
 9944TIP3    H229776   0.254   5.278   5.183
 9945TIP3   OH229777   2.533   4.655   5.395
 9945TIP3    H129778   2.445   4.621   5.377
 9945TIP3    H229779   2.551   4.630   5.486
 9946TIP3   OH229780   1.317   3.229   2.287
 9946TIP3    H129781   1.320   3.137   2.313
 9946TIP3    H229782   1.338   3.277   2.367
 9947TIP3   OH229783   7.700   3.705   1.589
 9947TIP3    H129784   7.712   3.619   1.548
 9947TIP3    H229785   7.784   3.749   1.577
 9948TIP3   OH229786   2.489   1.688   4.302
 9948TIP3    H129787   2.475   1.594   4.288
 9948TIP3    H229788   2.573   1.706   4.260
 9949TIP3   OH229789   7.835   6.465   0.424
 9949TIP3    H129790   7.848   6.558   0.443
 9949TIP3    H229791   7.894   6.420   0.486
 9950TIP3   OH229792   2.820   4.792   1.287
 9950TIP3    H129793   2.792   4.804   1.378
 9950TIP3    H229794   2.739   4.792   1.237
 9951TIP3   OH229795   5.716   6.040   5.255
 9951TIP3    H129796   5.743   6.089   5.333
 9951TIP3    H229797   5.652   6.097   5.212
 9952TIP3   OH229798   4.950   3.161   1.458
 9952TIP3    H129799   5.036   3.120   1.444
 9952TIP3    H229800   4.970   3.239   1.510
 9953TIP3   OH229801   3.739   5.513   4.135
 9953TIP3    H129802   3.833   5.530   4.139
 9953TIP3    H229803   3.730   5.437   4.077
 9954TIP3   OH229804   8.222   6.648   2.057
 9954TIP3    H129805   8.205   6.648   2.151
 9954TIP3    H229806   8.289   6.581   2.045
 9955TIP3   OH229807   3.890   1.930   6.610
 9955TIP3    H129808   3.865   1.973   6.528
 9955TIP3    H229809   3.860   1.839   6.599
 9956TIP3   OH229810   3.056   0.657   2.762
 9956TIP3    H129811   3.088   0.577   2.804
 9956TIP3    H229812   2.971   0.674   2.803
 9957TIP3   OH229813   3.333   6.764   1.116
 9957TIP3    H129814   3.273   6.811   1.059
 9957TIP3    H229815   3.365   6.831   1.177
 9958TIP3   OH229816   7.443   7.642   4.179
 9958TIP3    H129817   7.368   7.621   4.123
 9958TIP3    H229818   7.485   7.557   4.195
 9959TIP3   OH229819   4.870   0.816   1.372
 9959TIP3    H129820   4.808   0.849   1.437
 9959TIP3    H229821   4.866   0.721   1.380
 9960TIP3   OH229822   3.100   1.481   5.351
 9960TIP3    H129823   3.045   1.546   5.395
 9960TIP3    H229824   3.184   1.526   5.338
 9961TIP3   OH229825   3.581   3.951   2.300
 9961TIP3    H129826   3.496   3.984   2.272
 9961TIP3    H229827   3.564   3.860   2.326
 9962TIP3   OH229828   4.569   6.331   1.515
 9962TIP3    H129829   4.617   6.289   1.587
 9962TIP3    H229830   4.523   6.259   1.472
 9963TIP3   OH229831   5.312   2.792   2.429
 9963TIP3    H129832   5.276   2.758   2.347
 9963TIP3    H229833   5.363   2.869   2.402
 9964TIP3   OH229834   5.947   1.500   4.105
 9964TIP3    H129835   5.928   1.508   4.012
 9964TIP3    H229836   5.907   1.417   4.131
 9965TIP3   OH229837   7.306   0.697   4.052
 9965TIP3    H129838   7.350   0.666   3.973
 9965TIP3    H229839   7.224   0.736   4.021
 9966TIP3   OH229840   3.908   4.034   0.534
 9966TIP3    H129841   3.864   4.109   0.574
 9966TIP3    H229842   3.904   4.051   0.440
 9967TIP3   OH229843   1.126   6.461   0.854
 9967TIP3    H129844   1.123   6.382   0.909
 9967TIP3    H229845   1.141   6.428   0.765
 9968TIP3   OH229846   3.047   6.488   0.919
 9968TIP3    H129847   3.122   6.430   0.929
 9968TIP3    H229848   2.986   6.462   0.988
 9969TIP3   OH229849   1.764   4.546   6.076
 9969TIP3    H129850   1.788   4.453   6.074
 9969TIP3    H229851   1.669   4.545   6.064
 9970TIP3   OH229852   3.477   7.632   1.847
 9970TIP3    H129853   3.415   7.568   1.881
 9970TIP3    H229854   3.552   7.628   1.907
 9971TIP3   OH229855   2.298   4.807   1.498
 9971TIP3    H129856   2.352   4.795   1.576
 9971TIP3    H229857   2.237   4.877   1.522
 9972TIP3   OH229858   5.581   7.048   0.535
 9972TIP3    H129859   5.675   7.054   0.514
 9972TIP3    H229860   5.543   7.127   0.497
 9973TIP3   OH229861   7.011   1.721   3.105
 9973TIP3    H129862   7.024   1.643   3.158
 9973TIP3    H229863   7.098   1.743   3.072
 9974TIP3   OH229864   6.799   4.341   5.685
 9974TIP3    H129865   6.841   4.261   5.716
 9974TIP3    H229866   6.849   4.412   5.726
 9975TIP3   OH229867   6.259   7.496   5.574
 9975TIP3    H129868   6.217   7.523   5.492
 9975TIP3    H229869   6.302   7.413   5.553
 9976TIP3   OH229870   5.874   3.268   3.142
 9976TIP3    H129871   5.827   3.318   3.075
 9976TIP3    H229872   5.830   3.183   3.144
 9977TIP3   OH229873   2.052   1.254   2.996
 9977TIP3    H129874   2.095   1.168   2.995
 9977TIP3    H229875   2.003   1.255   3.077
 9978TIP3   OH229876   8.159   7.730   0.032
 9978TIP3    H129877   8.213   7.668  -0.016
 9978TIP3    H229878   8.098   7.765  -0.033
 9979TIP3   OH229879   7.225   5.434   5.082
 9979TIP3    H129880   7.179   5.491   5.019
 9979TIP3    H229881   7.166   5.360   5.094
 9980TIP3   OH229882   6.674   4.773   4.163
 9980TIP3    H129883   6.635   4.789   4.077
 9980TIP3    H229884   6.676   4.677   4.171
 9981TIP3   OH229885   2.180   3.119   2.577
 9981TIP3    H129886   2.167   3.148   2.487
 9981TIP3    H229887   2.275   3.107   2.584
 9982TIP3   OH229888   0.497   4.694   3.956
 9982TIP3    H129889   0.496   4.744   3.874
 9982TIP3    H229890   0.473   4.605   3.930
 9983TIP3   OH229891   5.948   1.995   0.548
 9983TIP3    H129892   5.958   2.066   0.484
 9983TIP3    H229893   6.037   1.974   0.575
 9984TIP3   OH229894   7.883   2.762   4.770
 9984TIP3    H129895   7.888   2.724   4.682
 9984TIP3    H229896   7.832   2.843   4.757
 9985TIP3   OH229897   6.171   4.642   6.035
 9985TIP3    H129898   6.087   4.597   6.043
 9985TIP3    H229899   6.198   4.660   6.125
 9986TIP3   OH229900   2.742   3.747   4.266
 9986TIP3    H129901   2.647   3.760   4.266
 9986TIP3    H229902   2.755   3.660   4.228
 9987TIP3   OH229903   4.124   3.123   0.320
 9987TIP3    H129904   4.105   3.081   0.404
 9987TIP3    H229905   4.142   3.049   0.261
 9988TIP3   OH229906   4.887   6.808   0.002
 9988TIP3    H129907   4.800   6.767   0.009
 9988TIP3    H229908   4.922   6.804   0.091
 9989TIP3   OH229909   4.450   5.401   6.794
 9989TIP3    H129910   4.404   5.347   6.859
 9989TIP3    H229911   4.390   5.406   6.720
 9990TIP3   OH229912   0.784   6.405   5.167
 9990TIP3    H129913   0.799   6.499   5.180
 9990TIP3    H229914   0.864   6.374   5.124
 9991TIP3   OH229915   1.266   3.815   6.456
 9991TIP3    H129916   1.279   3.723   6.479
 9991TIP3    H229917   1.204   3.848   6.520
 9992TIP3   OH229918   5.119   2.901   5.973
 9992TIP3    H129919   5.202   2.896   6.020
 9992TIP3    H229920   5.072   2.821   5.997
 9993TIP3   OH229921   5.443   5.199   5.619
 9993TIP3    H129922   5.466   5.110   5.594
 9993TIP3    H229923   5.527   5.244   5.628
 9994TIP3   OH229924   1.695   5.103   0.976
 9994TIP3    H129925   1.736   5.170   0.920
 9994TIP3    H229926   1.700   5.023   0.924
 9995TIP3   OH229927   3.723   3.282   5.651
 9995TIP3    H129928   3.636   3.306   5.618
 9995TIP3    H229929   3.748   3.205   5.600
 9996TIP3   OH229930   1.368   5.233   2.710
 9996TIP3    H129931   1.315   5.290   2.654
 9996TIP3    H229932   1.423   5.293   2.759
 9997TIP3   OH229933   7.048   1.702   6.324
 9997TIP3    H129934   7.015   1.780   6.368
 9997TIP3    H229935   6.988   1.689   6.250
 9998TIP3   OH229936   6.561   1.636   0.279
 9998TIP3    H129937   6.559   1.541   0.282
 9998TIP3    H229938   6.498   1.660   0.210
 9999TIP3   OH229939   0.847   1.026   4.743
 9999TIP3    H129940   0.858   0.970   4.820
 9999TIP3    H229941   0.910   0.993   4.679
10000TIP3   OH229942   1.542   1.418   2.658
10000TIP3    H129943   1.595   1.427   2.736
10000TIP3    H229944   1.521   1.508   2.632
10001TIP3   OH229945   4.853   3.291   5.209
10001TIP3    H129946   4.820   3.348   5.139
10001TIP3    H229947   4.779   3.235   5.230
10002TIP3   OH229948   7.743   7.843   0.422
10002TIP3    H129949   7.827   7.885   0.444
10002TIP3    H229950   7.702   7.827   0.507
10003TIP3   OH229951   0.975   0.268   0.621
10003TIP3    H129952   0.959   0.176   0.599
10003TIP3    H229953   1.070   0.278   0.617
10004TIP3   OH229954   6.303   4.739   6.260
10004TIP3    H129955   6.326   4.828   6.232
10004TIP3    H229956   6.252   4.750   6.340
10005TIP3   OH229957   0.342   6.437   3.997
10005TIP3    H129958   0.418   6.478   4.039
10005TIP3    H229959   0.277   6.507   3.994
10006TIP3   OH229960   6.905   2.753   2.456
10006TIP3    H129961   6.953   2.709   2.525
10006TIP3    H229962   6.939   2.715   2.375
10007TIP3   OH229963   4.411   1.009   1.641
10007TIP3    H129964   4.327   1.005   1.687
10007TIP3    H229965   4.476   1.008   1.711
10008TIP3   OH229966   7.821   7.615   5.670
10008TIP3    H129967   7.841   7.627   5.763
10008TIP3    H229968   7.879   7.676   5.625
10009TIP3   OH229969   1.589   7.565   2.415
10009TIP3    H129970   1.655   7.505   2.451
10009TIP3    H229971   1.538   7.510   2.356
10010TIP3   OH229972   8.126   1.195   0.601
10010TIP3    H129973   8.107   1.156   0.686
10010TIP3    H229974   8.192   1.137   0.562
10011TIP3   OH229975   0.861   0.296   2.962
10011TIP3    H129976   0.896   0.363   2.903
10011TIP3    H229977   0.766   0.308   2.958
10012TIP3   OH229978   6.572   7.653   4.676
10012TIP3    H129979   6.523   7.581   4.716
10012TIP3    H229980   6.532   7.664   4.590
10013TIP3   OH229981   7.078   1.136   3.646
10013TIP3    H129982   7.106   1.148   3.556
10013TIP3    H229983   6.983   1.144   3.644
10014TIP3   OH229984   5.283   1.552   2.817
10014TIP3    H129985   5.195   1.584   2.797
10014TIP3    H229986   5.300   1.485   2.750
10015TIP3   OH229987   7.628   0.389   3.032
10015TIP3    H129988   7.693   0.328   3.068
10015TIP3    H229989   7.575   0.335   2.973
10016TIP3   OH229990   0.848   5.896   3.837
10016TIP3    H129991   0.863   5.869   3.928
10016TIP3    H229992   0.812   5.817   3.795
10017TIP3   OH229993   6.998   6.115   5.009
10017TIP3    H129994   6.980   6.142   5.099
10017TIP3    H229995   7.088   6.142   4.993
10018TIP3   OH229996   6.904   4.775   4.629
10018TIP3    H129997   6.965   4.794   4.558
10018TIP3    H229998   6.836   4.721   4.588
10019TIP3   OH229999   5.004   4.438   1.263
10019TIP3    H130000   4.935   4.373   1.272
10019TIP3    H230001   4.961   4.512   1.220
10020TIP3   OH230002   4.379   7.128   6.326
10020TIP3    H130003   4.424   7.193   6.380
10020TIP3    H230004   4.450   7.076   6.287
10021TIP3   OH230005   2.163   4.389   2.753
10021TIP3    H130006   2.120   4.303   2.752
10021TIP3    H230007   2.252   4.372   2.723
10022TIP3   OH230008   0.497   1.463   5.535
10022TIP3    H130009   0.552   1.414   5.474
10022TIP3    H230010   0.520   1.555   5.520
10023TIP3   OH230011   3.135   7.350   2.118
10023TIP3    H130012   3.068   7.285   2.098
10023TIP3    H230013   3.119   7.375   2.209
10024TIP3   OH230014   8.177   1.163   5.203
10024TIP3    H130015   8.255   1.152   5.147
10024TIP3    H230016   8.190   1.247   5.246
10025TIP3   OH230017   4.907   5.126   6.817
10025TIP3    H130018   4.944   5.053   6.767
10025TIP3    H230019   4.824   5.144   6.774
10026TIP3   OH230020   1.038   6.648   4.010
10026TIP3    H130021   1.103   6.670   4.076
10026TIP3    H230022   1.055   6.711   3.939
10027TIP3   OH230023   5.702   3.361   5.311
10027TIP3    H130024   5.765   3.432   5.301
10027TIP3    H230025   5.653   3.361   5.228
10028TIP3   OH230026   6.947   4.269   3.629
10028TIP3    H130027   6.913   4.348   3.586
10028TIP3    H230028   6.947   4.203   3.560
10029TIP3   OH230029   7.113   4.014   1.309
10029TIP3    H130030   7.188   3.959   1.330
10029TIP3    H230031   7.037   3.961   1.333
10030TIP3   OH230032   5.155   7.343   3.580
10030TIP3    H130033   5.114   7.321   3.496
10030TIP3    H230034   5.088   7.393   3.627
10031TIP3   OH230035   0.533   1.595   0.616
10031TIP3    H130036   0.442   1.614   0.639
10031TIP3    H230037   0.529   1.514   0.566
10032TIP3   OH230038   7.329   0.411   4.619
10032TIP3    H130039   7.266   0.460   4.671
10032TIP3    H230040   7.292   0.323   4.613
10033TIP3   OH230041   2.332   6.093   5.518
10033TIP3    H130042   2.389   6.016   5.525
10033TIP3    H230043   2.271   6.072   5.448
10034TIP3   OH230044   7.858   4.524   2.155
10034TIP3    H130045   7.817   4.450   2.200
10034TIP3    H230046   7.811   4.601   2.187
10035TIP3   OH230047   4.846   3.758   1.571
10035TIP3    H130048   4.852   3.786   1.662
10035TIP3    H230049   4.764   3.709   1.567
10036TIP3   OH230050   6.500   5.982   1.001
10036TIP3    H130051   6.552   5.910   0.967
10036TIP3    H230052   6.500   6.048   0.931
10037TIP3   OH230053   7.368   6.432   1.537
10037TIP3    H130054   7.434   6.403   1.600
10037TIP3    H230055   7.351   6.355   1.482
10038TIP3   OH230056   4.934   2.256   1.988
10038TIP3    H130057   4.970   2.244   1.900
10038TIP3    H230058   4.939   2.350   2.004
10039TIP3   OH230059   3.010   5.476   5.962
10039TIP3    H130060   3.020   5.383   5.939
10039TIP3    H230061   2.945   5.509   5.900
10040TIP3   OH230062   5.039   3.333   4.225
10040TIP3    H130063   4.958   3.337   4.276
10040TIP3    H230064   5.011   3.311   4.137
10041TIP3   OH230065   2.010   3.741   4.885
10041TIP3    H130066   1.951   3.816   4.894
10041TIP3    H230067   1.966   3.683   4.823
10042TIP3   OH230068   4.168   2.818   1.996
10042TIP3    H130069   4.095   2.798   2.055
10042TIP3    H230070   4.127   2.857   1.919
10043TIP3   OH230071   2.112   1.259   5.503
10043TIP3    H130072   2.152   1.317   5.567
10043TIP3    H230073   2.104   1.175   5.547
10044TIP3   OH230074   6.999   5.833   4.998
10044TIP3    H130075   6.998   5.928   4.988
10044TIP3    H230076   6.973   5.817   5.088
10045TIP3   OH230077   1.460   3.527   3.361
10045TIP3    H130078   1.506   3.489   3.435
10045TIP3    H230079   1.510   3.605   3.339
10046TIP3   OH230080   6.395   5.337   6.035
10046TIP3    H130081   6.482   5.309   6.063
10046TIP3    H230082   6.353   5.368   6.115
10047TIP3   OH230083   1.013   6.938   3.279
10047TIP3    H130084   1.039   6.873   3.344
10047TIP3    H230085   0.928   6.969   3.308
10048TIP3   OH230086   7.219   0.582   3.423
10048TIP3    H130087   7.252   0.662   3.463
10048TIP3    H230088   7.174   0.537   3.494
10049TIP3   OH230089   5.599   3.315   5.064
10049TIP3    H130090   5.576   3.272   4.981
10049TIP3    H230091   5.524   3.371   5.083
10050TIP3   OH230092   1.511   6.719   1.666
10050TIP3    H130093   1.602   6.747   1.678
10050TIP3    H230094   1.471   6.789   1.614
10051TIP3   OH230095   7.234   5.135   3.807
10051TIP3    H130096   7.299   5.066   3.820
10051TIP3    H230097   7.173   5.099   3.742
10052TIP3   OH230098   2.445   1.421   1.152
10052TIP3    H130099   2.412   1.337   1.185
10052TIP3    H230100   2.388   1.487   1.191
10053TIP3   OH230101   7.768   3.623   0.881
10053TIP3    H130102   7.705   3.585   0.820
10053TIP3    H230103   7.837   3.557   0.890
10054TIP3   OH230104   3.898   6.051   1.076
10054TIP3    H130105   3.847   6.027   1.153
10054TIP3    H230106   3.988   6.027   1.098
10055TIP3   OH230107   7.486   1.810   4.471
10055TIP3    H130108   7.530   1.808   4.556
10055TIP3    H230109   7.400   1.847   4.490
10056TIP3   OH230110   3.778   3.619   2.679
10056TIP3    H130111   3.814   3.546   2.728
10056TIP3    H230112   3.811   3.697   2.723
10057TIP3   OH230113   1.666   3.835   0.725
10057TIP3    H130114   1.744   3.795   0.762
10057TIP3    H230115   1.675   3.928   0.745
10058TIP3   OH230116   3.615   7.227   3.119
10058TIP3    H130117   3.584   7.266   3.201
10058TIP3    H230118   3.560   7.266   3.051
10059TIP3   OH230119   4.293   7.180   3.183
10059TIP3    H130120   4.227   7.216   3.124
10059TIP3    H230121   4.376   7.191   3.136
10060TIP3   OH230122   8.181   0.364   6.173
10060TIP3    H130123   8.156   0.379   6.265
10060TIP3    H230124   8.145   0.278   6.152
10061TIP3   OH230125   5.581   5.372   6.627
10061TIP3    H130126   5.549   5.302   6.570
10061TIP3    H230127   5.584   5.332   6.714
10062TIP3   OH230128   2.134   5.362   1.612
10062TIP3    H130129   2.158   5.324   1.697
10062TIP3    H230130   2.137   5.456   1.626
10063TIP3   OH230131   4.118   4.130   1.914
10063TIP3    H130132   4.179   4.197   1.883
10063TIP3    H230133   4.047   4.130   1.850
10064TIP3   OH230134   5.606   3.303   3.660
10064TIP3    H130135   5.655   3.380   3.632
10064TIP3    H230136   5.555   3.333   3.736
10065TIP3   OH230137   1.657   5.740   0.602
10065TIP3    H130138   1.727   5.768   0.542
10065TIP3    H230139   1.605   5.819   0.617
10066TIP3   OH230140   7.213   1.036   5.511
10066TIP3    H130141   7.194   1.128   5.495
10066TIP3    H230142   7.174   0.990   5.437
10067TIP3   OH230143   2.333   6.886   2.306
10067TIP3    H130144   2.327   6.856   2.397
10067TIP3    H230145   2.242   6.901   2.280
10068TIP3   OH230146   3.197   4.641   2.818
10068TIP3    H130147   3.256   4.587   2.764
10068TIP3    H230148   3.226   4.731   2.802
10069TIP3   OH230149   2.290   5.122   0.093
10069TIP3    H130150   2.385   5.131   0.101
10069TIP3    H230151   2.268   5.043   0.142
10070TIP3   OH230152   6.449   4.406   1.198
10070TIP3    H130153   6.455   4.483   1.142
10070TIP3    H230154   6.532   4.359   1.184
10071TIP3   OH230155   7.524   3.055   6.558
10071TIP3    H130156   7.513   3.137   6.510
10071TIP3    H230157   7.586   3.076   6.628
10072TIP3   OH230158   7.531   0.439   1.839
10072TIP3    H130159   7.516   0.413   1.930
10072TIP3    H230160   7.620   0.410   1.820
10073TIP3   OH230161   5.507   5.979   1.070
10073TIP3    H130162   5.473   5.998   0.982
10073TIP3    H230163   5.601   5.973   1.058
10074TIP3   OH230164   3.433   3.165   5.317
10074TIP3    H130165   3.506   3.161   5.255
10074TIP3    H230166   3.403   3.075   5.324
10075TIP3   OH230167   0.776   1.010   6.224
10075TIP3    H130168   0.783   0.936   6.163
10075TIP3    H230169   0.866   1.026   6.252
10076TIP3   OH230170   6.665   4.706   3.246
10076TIP3    H130171   6.744   4.741   3.289
10076TIP3    H230172   6.671   4.739   3.156
10077TIP3   OH230173   2.507   7.548   0.981
10077TIP3    H130174   2.521   7.639   0.954
10077TIP3    H230175   2.430   7.551   1.038
10078TIP3   OH230176   3.276   6.285   3.434
10078TIP3    H130177   3.219   6.362   3.435
10078TIP3    H230178   3.309   6.279   3.523
10079TIP3   OH230179   7.952   2.397   2.210
10079TIP3    H130180   7.961   2.313   2.164
10079TIP3    H230181   7.867   2.392   2.253
10080TIP3   OH230182   3.846   0.161   4.962
10080TIP3    H130183   3.844   0.169   4.866
10080TIP3    H230184   3.833   0.250   4.994
10081TIP3   OH230185   7.374   4.119   4.781
10081TIP3    H130186   7.461   4.092   4.752
10081TIP3    H230187   7.340   4.174   4.709
10082TIP3   OH230188   4.597   4.814   1.545
10082TIP3    H130189   4.545   4.803   1.465
10082TIP3    H230190   4.541   4.779   1.614
10083TIP3   OH230191   2.943   6.804   4.363
10083TIP3    H130192   2.881   6.814   4.435
10083TIP3    H230193   2.893   6.757   4.296
10084TIP3   OH230194   3.398   5.297   4.917
10084TIP3    H130195   3.353   5.379   4.897
10084TIP3    H230196   3.336   5.250   4.973
10085TIP3   OH230197   2.653   5.325   5.984
10085TIP3    H130198   2.643   5.282   5.900
10085TIP3    H230199   2.666   5.417   5.962
10086TIP3   OH230200   0.598   1.767   2.595
10086TIP3    H130201   0.674   1.779   2.652
10086TIP3    H230202   0.564   1.681   2.618
10087TIP3   OH230203   4.280   6.660   5.326
10087TIP3    H130204   4.302   6.600   5.397
10087TIP3    H230205   4.209   6.618   5.279
10088TIP3   OH230206   6.544   5.382   5.211
10088TIP3    H130207   6.458   5.356   5.178
10088TIP3    H230208   6.542   5.357   5.304
10089TIP3   OH230209   4.212   0.453   1.823
10089TIP3    H130210   4.185   0.441   1.732
10089TIP3    H230211   4.202   0.366   1.862
10090TIP3   OH230212   2.130   4.260   0.101
10090TIP3    H130213   2.081   4.190   0.145
10090TIP3    H230214   2.220   4.248   0.129
10091TIP3   OH230215   5.474   7.011   4.459
10091TIP3    H130216   5.524   7.056   4.390
10091TIP3    H230217   5.390   7.057   4.462
10092TIP3   OH230218   0.414   1.182   5.362
10092TIP3    H130219   0.457   1.266   5.379
10092TIP3    H230220   0.345   1.177   5.428
10093TIP3   OH230221   3.347   5.180   0.553
10093TIP3    H130222   3.324   5.101   0.602
10093TIP3    H230223   3.296   5.175   0.473
10094TIP3   OH230224   2.879   5.907   0.712
10094TIP3    H130225   2.964   5.939   0.682
10094TIP3    H230226   2.832   5.884   0.632
10095TIP3   OH230227   1.137   2.934   0.914
10095TIP3    H130228   1.058   2.914   0.864
10095TIP3    H230229   1.180   3.002   0.863
10096TIP3   OH230230   2.631   5.365   4.953
10096TIP3    H130231   2.562   5.372   5.019
10096TIP3    H230232   2.713   5.369   5.002
10097TIP3   OH230233   4.469   1.343   0.113
10097TIP3    H130234   4.521   1.403   0.166
10097TIP3    H230235   4.392   1.325   0.166
10098TIP3   OH230236   0.358   2.218   0.016
10098TIP3    H130237   0.294   2.277  -0.023
10098TIP3    H230238   0.436   2.272   0.027
10099TIP3   OH230239   2.853   3.586   6.588
10099TIP3    H130240   2.846   3.651   6.517
10099TIP3    H230241   2.793   3.618   6.655
10100TIP3   OH230242   2.796   1.676   4.633
10100TIP3    H130243   2.744   1.754   4.616
10100TIP3    H230244   2.799   1.670   4.729
10101TIP3   OH230245   5.084   5.745   6.681
10101TIP3    H130246   5.171   5.782   6.693
10101TIP3    H230247   5.024   5.814   6.711
10102TIP3   OH230248   2.593   7.381   2.838
10102TIP3    H130249   2.504   7.414   2.822
10102TIP3    H230250   2.633   7.447   2.895
10103TIP3   OH230251   1.366   0.646   0.551
10103TIP3    H130252   1.429   0.699   0.600
10103TIP3    H230253   1.282   0.665   0.594
10104TIP3   OH230254   1.733   7.342   4.445
10104TIP3    H130255   1.645   7.318   4.475
10104TIP3    H230256   1.718   7.407   4.376
10105TIP3   OH230257   3.219   6.495   4.579
10105TIP3    H130258   3.205   6.414   4.627
10105TIP3    H230259   3.309   6.520   4.601
10106TIP3   OH230260   6.809   6.014   2.070
10106TIP3    H130261   6.865   6.092   2.068
10106TIP3    H230262   6.838   5.961   1.996
10107TIP3   OH230263   3.430   0.615   2.460
10107TIP3    H130264   3.422   0.527   2.498
10107TIP3    H230265   3.426   0.600   2.366
10108TIP3   OH230266   2.225   3.159   5.612
10108TIP3    H130267   2.156   3.094   5.598
10108TIP3    H230268   2.268   3.168   5.526
10109TIP3   OH230269   6.189   2.038   3.726
10109TIP3    H130270   6.211   1.986   3.803
10109TIP3    H230271   6.113   1.993   3.688
10110TIP3   OH230272   6.498   2.846   3.991
10110TIP3    H130273   6.436   2.902   4.038
10110TIP3    H230274   6.453   2.761   3.984
10111TIP3   OH230275   8.088   1.037   4.906
10111TIP3    H130276   8.156   1.047   4.972
10111TIP3    H230277   8.131   1.062   4.824
10112TIP3   OH230278   0.959   1.563   1.832
10112TIP3    H130279   0.935   1.646   1.872
10112TIP3    H230280   0.964   1.501   1.905
10113TIP3   OH230281   4.289   2.284   1.471
10113TIP3    H130282   4.309   2.290   1.564
10113TIP3    H230283   4.345   2.350   1.430
10114TIP3   OH230284   6.263   6.188   6.260
10114TIP3    H130285   6.325   6.130   6.306
10114TIP3    H230286   6.199   6.128   6.222
10115TIP3   OH230287   6.846   6.505   4.793
10115TIP3    H130288   6.922   6.560   4.815
10115TIP3    H230289   6.830   6.522   4.700
10116TIP3   OH230290   6.907   2.885   5.797
10116TIP3    H130291   6.898   2.876   5.892
10116TIP3    H230292   7.002   2.884   5.782
10117TIP3   OH230293   2.457   6.645   3.207
10117TIP3    H130294   2.475   6.729   3.164
10117TIP3    H230295   2.465   6.580   3.136
10118TIP3   OH230296   3.651   1.348   5.190
10118TIP3    H130297   3.579   1.405   5.217
10118TIP3    H230298   3.730   1.392   5.221
10119TIP3   OH230299   5.353   6.870   5.614
10119TIP3    H130300   5.296   6.940   5.645
10119TIP3    H230301   5.438   6.890   5.652
10120TIP3   OH230302   4.954   7.377   1.486
10120TIP3    H130303   4.916   7.290   1.498
10120TIP3    H230304   4.895   7.421   1.425
10121TIP3   OH230305   2.643   3.902   0.799
10121TIP3    H130306   2.627   3.851   0.878
10121TIP3    H230307   2.627   3.841   0.727
10122TIP3   OH230308   3.690   2.925   4.086
10122TIP3    H130309   3.612   2.883   4.050
10122TIP3    H230310   3.703   2.884   4.171
10123TIP3   OH230311   4.525   0.713   5.185
10123TIP3    H130312   4.592   0.773   5.153
10123TIP3    H230313   4.506   0.743   5.274
10124TIP3   OH230314   7.934   3.851   0.926
10124TIP3    H130315   8.026   3.845   0.954
10124TIP3    H230316   7.911   3.761   0.901
10125TIP3   OH230317   2.870   0.050   0.627
10125TIP3    H130318   2.787   0.015   0.594
10125TIP3    H230319   2.932   0.038   0.556
10126TIP3   OH230320   8.293   3.578   5.667
10126TIP3    H130321   8.198   3.578   5.652
10126TIP3    H230322   8.316   3.670   5.670
10127TIP3   OH230323   6.737   4.060   3.205
10127TIP3    H130324   6.657   4.076   3.154
10127TIP3    H230325   6.807   4.061   3.139
10128TIP3   OH230326   1.464   2.169   2.171
10128TIP3    H130327   1.534   2.109   2.196
10128TIP3    H230328   1.401   2.163   2.243
10129TIP3   OH230329   3.815   7.611   5.429
10129TIP3    H130330   3.788   7.520   5.434
10129TIP3    H230331   3.815   7.631   5.335
10130TIP3   OH230332   6.959   0.435   6.766
10130TIP3    H130333   6.864   0.438   6.755
10130TIP3    H230334   6.981   0.519   6.808
10131TIP3   OH230335   4.289   5.777   6.199
10131TIP3    H130336   4.234   5.709   6.161
10131TIP3    H230337   4.353   5.729   6.253
10132TIP3   OH230338   7.708   4.833   1.072
10132TIP3    H130339   7.664   4.776   1.135
10132TIP3    H230340   7.740   4.907   1.125
10133TIP3   OH230341   5.644   3.706   5.474
10133TIP3    H130342   5.552   3.724   5.495
10133TIP3    H230343   5.669   3.778   5.416
10134TIP3   OH230344   5.100   1.189   0.024
10134TIP3    H130345   5.194   1.202   0.035
10134TIP3    H230346   5.063   1.277   0.024
10135TIP3   OH230347   6.490   5.786   4.742
10135TIP3    H130348   6.399   5.802   4.720
10135TIP3    H230349   6.540   5.846   4.685
10136TIP3   OH230350   3.523   1.553   3.001
10136TIP3    H130351   3.432   1.551   3.031
10136TIP3    H230352   3.522   1.503   2.919
10137TIP3   OH230353   2.743   4.273   5.723
10137TIP3    H130354   2.705   4.296   5.638
10137TIP3    H230355   2.808   4.341   5.739
10138TIP3   OH230356   0.482   2.785   4.399
10138TIP3    H130357   0.390   2.768   4.418
10138TIP3    H230358   0.514   2.830   4.477
10139TIP3   OH230359   5.333   4.977   6.647
10139TIP3    H130360   5.262   5.015   6.699
10139TIP3    H230361   5.344   4.888   6.681
10140TIP3   OH230362   1.767   0.758   3.037
10140TIP3    H130363   1.683   0.736   2.996
10140TIP3    H230364   1.761   0.852   3.053
10141TIP3   OH230365   4.161   7.859   5.138
10141TIP3    H130366   4.170   7.939   5.087
10141TIP3    H230367   4.245   7.813   5.125
10142TIP3   OH230368   6.228   5.405   1.194
10142TIP3    H130369   6.236   5.499   1.177
10142TIP3    H230370   6.317   5.377   1.217
10143TIP3   OH230371   1.597   5.791   5.375
10143TIP3    H130372   1.681   5.834   5.358
10143TIP3    H230373   1.618   5.720   5.435
10144TIP3   OH230374   0.176   4.268   3.429
10144TIP3    H130375   0.223   4.188   3.406
10144TIP3    H230376   0.087   4.239   3.450
10145TIP3   OH230377   2.686   0.155   3.132
10145TIP3    H130378   2.773   0.144   3.092
10145TIP3    H230379   2.680   0.248   3.153
10146TIP3   OH230380   4.725   3.953   0.867
10146TIP3    H130381   4.706   4.041   0.898
10146TIP3    H230382   4.651   3.931   0.810
10147TIP3   OH230383   5.766   2.990   3.108
10147TIP3    H130384   5.782   2.899   3.081
10147TIP3    H230385   5.671   2.997   3.113
10148TIP3   OH230386   1.757   4.292   0.369
10148TIP3    H130387   1.750   4.356   0.439
10148TIP3    H230388   1.671   4.248   0.369
10149TIP3   OH230389   7.796   0.942   3.894
10149TIP3    H130390   7.856   0.908   3.828
10149TIP3    H230391   7.803   1.037   3.886
10150TIP3   OH230392   4.713   3.978   4.913
10150TIP3    H130393   4.672   4.056   4.878
10150TIP3    H230394   4.732   3.924   4.836
10151TIP3   OH230395   7.128   5.695   2.579
10151TIP3    H130396   7.156   5.767   2.523
10151TIP3    H230397   7.179   5.620   2.549
10152TIP3   OH230398   2.755   5.681   2.838
10152TIP3    H130399   2.727   5.649   2.924
10152TIP3    H230400   2.695   5.754   2.820
10153TIP3   OH230401   6.917   3.399   6.352
10153TIP3    H130402   6.988   3.338   6.374
10153TIP3    H230403   6.912   3.396   6.257
10154TIP3   OH230404   1.090   4.427   1.768
10154TIP3    H130405   1.176   4.464   1.787
10154TIP3    H230406   1.081   4.434   1.673
10155TIP3   OH230407   2.452   2.540   0.653
10155TIP3    H130408   2.542   2.546   0.622
10155TIP3    H230409   2.401   2.519   0.575
10156TIP3   OH230410   3.625   1.190   6.301
10156TIP3    H130411   3.550   1.233   6.343
10156TIP3    H230412   3.610   1.201   6.208
10157TIP3   OH230413   2.875   0.978   1.251
10157TIP3    H130414   2.803   0.965   1.312
10157TIP3    H230415   2.836   1.026   1.178
10158TIP3   OH230416   3.790   7.197   1.026
10158TIP3    H130417   3.883   7.175   1.031
10158TIP3    H230418   3.768   7.189   0.934
10159TIP3   OH230419   5.081   1.846   4.016
10159TIP3    H130420   5.116   1.770   3.970
10159TIP3    H230421   5.159   1.897   4.039
10160TIP3   OH230422   5.030   6.915   3.337
10160TIP3    H130423   5.069   6.840   3.381
10160TIP3    H230424   4.936   6.906   3.352
10161TIP3   OH230425   1.686   1.064   2.825
10161TIP3    H130426   1.601   1.022   2.835
10161TIP3    H230427   1.726   1.022   2.749
10162TIP3   OH230428   0.836   6.436   0.256
10162TIP3    H130429   0.790   6.519   0.253
10162TIP3    H230430   0.894   6.443   0.332
10163TIP3   OH230431   3.594   5.507   1.149
10163TIP3    H130432   3.607   5.560   1.228
10163TIP3    H230433   3.499   5.497   1.142
10164TIP3   OH230434   5.391   4.855   0.945
10164TIP3    H130435   5.377   4.923   1.011
10164TIP3    H230436   5.384   4.773   0.993
10165TIP3   OH230437   1.451   5.169   2.421
10165TIP3    H130438   1.538   5.175   2.382
10165TIP3    H230439   1.467   5.154   2.514
10166TIP3   OH230440   2.836   2.629   2.978
10166TIP3    H130441   2.783   2.596   3.051
10166TIP3    H230442   2.806   2.579   2.902
10167TIP3   OH230443   2.126   3.465   4.813
10167TIP3    H130444   2.158   3.402   4.747
10167TIP3    H230445   2.200   3.475   4.874
10168TIP3   OH230446   2.233   6.877   6.598
10168TIP3    H130447   2.318   6.903   6.561
10168TIP3    H230448   2.246   6.883   6.693
10169TIP3   OH230449   1.027   6.327   3.451
10169TIP3    H130450   0.933   6.344   3.451
10169TIP3    H230451   1.063   6.397   3.397
10170TIP3   OH230452   8.109   3.136   3.487
10170TIP3    H130453   8.153   3.169   3.409
10170TIP3    H230454   8.022   3.110   3.457
10171TIP3   OH230455   3.228   4.850   5.845
10171TIP3    H130456   3.207   4.796   5.922
10171TIP3    H230457   3.263   4.787   5.781
10172TIP3   OH230458   1.685   1.741   1.120
10172TIP3    H130459   1.703   1.808   1.186
10172TIP3    H230460   1.591   1.747   1.104
10173TIP3   OH230461   1.971   0.236   5.324
10173TIP3    H130462   2.045   0.285   5.288
10173TIP3    H230463   1.962   0.161   5.266
10174TIP3   OH230464   6.465   7.783   1.952
10174TIP3    H130465   6.395   7.823   1.900
10174TIP3    H230466   6.436   7.692   1.964
10175TIP3   OH230467   4.081   0.783   1.936
10175TIP3    H130468   3.993   0.765   1.901
10175TIP3    H230469   4.121   0.842   1.873
10176TIP3   OH230470  -0.017   4.994   3.822
10176TIP3    H130471   0.067   4.950   3.833
10176TIP3    H230472  -0.030   5.040   3.905
10177TIP3   OH230473   6.934   2.307   2.206
10177TIP3    H130474   7.009   2.320   2.264
10177TIP3    H230475   6.864   2.274   2.263
10178TIP3   OH230476   4.523   3.978   2.476
10178TIP3    H130477   4.446   3.923   2.484
10178TIP3    H230478   4.596   3.917   2.466
10179TIP3   OH230479   1.666   0.559   3.250
10179TIP3    H130480   1.704   0.620   3.187
10179TIP3    H230481   1.740   0.530   3.304
10180TIP3   OH230482   6.347   5.081   2.949
10180TIP3    H130483   6.301   5.165   2.953
10180TIP3    H230484   6.430   5.096   2.994
10181TIP3   OH230485   4.635   1.546   3.994
10181TIP3    H130486   4.703   1.571   4.056
10181TIP3    H230487   4.563   1.515   4.048
10182TIP3   OH230488   0.367   2.817   3.576
10182TIP3    H130489   0.273   2.823   3.589
10182TIP3    H230490   0.404   2.871   3.646
10183TIP3   OH230491   6.083   1.701   5.502
10183TIP3    H130492   5.996   1.740   5.513
10183TIP3    H230493   6.124   1.751   5.432
10184TIP3   OH230494   0.229   0.901   1.507
10184TIP3    H130495   0.250   0.983   1.463
10184TIP3    H230496   0.139   0.882   1.480
10185TIP3   OH230497   4.114   0.885   3.106
10185TIP3    H130498   4.177   0.912   3.173
10185TIP3    H230499   4.152   0.917   3.023
10186TIP3   OH230500   6.306   4.861   4.475
10186TIP3    H130501   6.268   4.783   4.515
10186TIP3    H230502   6.381   4.883   4.530
10187TIP3   OH230503   0.261   7.465   2.327
10187TIP3    H130504   0.225   7.443   2.413
10187TIP3    H230505   0.353   7.437   2.332
10188TIP3   OH230506   3.089   4.214   4.752
10188TIP3    H130507   3.146   4.279   4.710
10188TIP3    H230508   3.146   4.171   4.816
10189TIP3   OH230509   3.937   2.723   0.402
10189TIP3    H130510   3.952   2.637   0.364
10189TIP3    H230511   3.845   2.723   0.426
10190TIP3   OH230512   2.334   2.104   3.022
10190TIP3    H130513   2.363   2.115   2.931
10190TIP3    H230514   2.263   2.169   3.032
10191TIP3   OH230515   6.629   2.298   1.450
10191TIP3    H130516   6.642   2.390   1.428
10191TIP3    H230517   6.637   2.251   1.367
10192TIP3   OH230518   5.103   1.734   4.677
10192TIP3    H130519   5.130   1.797   4.611
10192TIP3    H230520   5.016   1.705   4.649
10193TIP3   OH230521   7.847   3.338   4.133
10193TIP3    H130522   7.915   3.323   4.199
10193TIP3    H230523   7.783   3.269   4.148
10194TIP3   OH230524   5.601   3.113   1.625
10194TIP3    H130525   5.552   3.193   1.642
10194TIP3    H230526   5.653   3.099   1.704
10195TIP3   OH230527   5.935   1.817   0.979
10195TIP3    H130528   6.016   1.774   0.950
10195TIP3    H230529   5.928   1.894   0.922
10196TIP3   OH230530   6.219   3.130   0.388
10196TIP3    H130531   6.309   3.156   0.405
10196TIP3    H230532   6.215   3.037   0.412
10197TIP3   OH230533   6.631   6.212   6.219
10197TIP3    H130534   6.709   6.158   6.235
10197TIP3    H230535   6.639   6.238   6.128
10198TIP3   OH230536   5.675   2.966   4.534
10198TIP3    H130537   5.730   3.032   4.490
10198TIP3    H230538   5.730   2.934   4.606
10199TIP3   OH230539   0.149   2.112   4.015
10199TIP3    H130540   0.227   2.122   4.069
10199TIP3    H230541   0.077   2.106   4.079
10200TIP3   OH230542   7.919   6.230   2.725
10200TIP3    H130543   7.942   6.168   2.656
10200TIP3    H230544   7.834   6.266   2.698
10201TIP3   OH230545   6.986   6.512   5.713
10201TIP3    H130546   7.057   6.464   5.757
10201TIP3    H230547   6.983   6.474   5.625
10202TIP3   OH230548   0.945   3.551   5.940
10202TIP3    H130549   0.892   3.575   6.016
10202TIP3    H230550   1.028   3.523   5.977
10203TIP3   OH230551   7.739   4.862   2.163
10203TIP3    H130552   7.688   4.817   2.231
10203TIP3    H230553   7.688   4.848   2.083
10204TIP3   OH230554   0.402   1.761   4.918
10204TIP3    H130555   0.433   1.816   4.846
10204TIP3    H230556   0.478   1.754   4.977
10205TIP3   OH230557   1.274   5.634   5.501
10205TIP3    H130558   1.344   5.662   5.560
10205TIP3    H230559   1.303   5.662   5.415
10206TIP3   OH230560   5.542   6.817   6.214
10206TIP3    H130561   5.522   6.889   6.154
10206TIP3    H230562   5.497   6.840   6.295
10207TIP3   OH230563   7.745   7.513   3.524
10207TIP3    H130564   7.779   7.555   3.603
10207TIP3    H230565   7.799   7.546   3.453
10208TIP3   OH230566   3.834  -0.016   1.511
10208TIP3    H130567   3.912   0.026   1.474
10208TIP3    H230568   3.788   0.055   1.556
10209TIP3   OH230569   8.257   7.235   6.294
10209TIP3    H130570   8.212   7.288   6.360
10209TIP3    H230571   8.219   7.263   6.210
10210TIP3   OH230572   0.749   6.175   4.365
10210TIP3    H130573   0.804   6.098   4.352
10210TIP3    H230574   0.799   6.247   4.328
10211TIP3   OH230575   2.036   2.000   5.410
10211TIP3    H130576   2.003   1.912   5.395
10211TIP3    H230577   1.987   2.032   5.485
10212TIP3   OH230578   4.764   5.081   1.915
10212TIP3    H130579   4.755   5.176   1.914
10212TIP3    H230580   4.859   5.066   1.919
10213TIP3   OH230581   8.307   0.521   2.601
10213TIP3    H130582   8.264   0.495   2.519
10213TIP3    H230583   8.401   0.518   2.581
10214TIP3   OH230584   7.427   0.831   0.711
10214TIP3    H130585   7.429   0.735   0.715
10214TIP3    H230586   7.345   0.855   0.754
10215TIP3   OH230587   1.218   5.619   6.005
10215TIP3    H130588   1.171   5.620   5.921
10215TIP3    H230589   1.239   5.527   6.019
10216TIP3   OH230590   0.435   6.813   2.662
10216TIP3    H130591   0.462   6.730   2.624
10216TIP3    H230592   0.513   6.845   2.708
10217TIP3   OH230593   4.904   1.230   5.393
10217TIP3    H130594   4.923   1.136   5.384
10217TIP3    H230595   4.972   1.262   5.453
10218TIP3   OH230596   4.209   2.754   3.871
10218TIP3    H130597   4.114   2.759   3.882
10218TIP3    H230598   4.244   2.764   3.960
10219TIP3   OH230599   6.790   7.490   3.837
10219TIP3    H130600   6.801   7.457   3.926
10219TIP3    H230601   6.789   7.412   3.782
10220TIP3   OH230602   7.071   6.223   2.371
10220TIP3    H130603   7.050   6.221   2.278
10220TIP3    H230604   7.057   6.314   2.397
10221TIP3   OH230605   3.254   3.226   6.463
10221TIP3    H130606   3.258   3.320   6.481
10221TIP3    H230607   3.339   3.192   6.493
10222TIP3   OH230608   2.706   0.312   1.098
10222TIP3    H130609   2.619   0.350   1.086
10222TIP3    H230610   2.691   0.235   1.153
10223TIP3   OH230611   8.091   3.030   5.267
10223TIP3    H130612   8.087   3.026   5.171
10223TIP3    H230613   8.065   2.942   5.295
10224TIP3   OH230614   5.318   2.312   4.197
10224TIP3    H130615   5.352   2.233   4.239
10224TIP3    H230616   5.388   2.377   4.209
10225TIP3   OH230617   7.446   7.137   4.487
10225TIP3    H130618   7.437   7.131   4.582
10225TIP3    H230619   7.423   7.050   4.454
10226TIP3   OH230620   3.159   1.523   0.754
10226TIP3    H130621   3.144   1.429   0.770
10226TIP3    H230622   3.073   1.557   0.730
10227TIP3   OH230623   0.649   5.163   5.323
10227TIP3    H130624   0.582   5.121   5.269
10227TIP3    H230625   0.660   5.249   5.284
10228TIP3   OH230626   4.484   5.251   1.892
10228TIP3    H130627   4.429   5.300   1.953
10228TIP3    H230628   4.424   5.225   1.821
10229TIP3   OH230629   4.654   4.999   3.983
10229TIP3    H130630   4.736   5.025   3.940
10229TIP3    H230631   4.634   4.913   3.947
10230TIP3   OH230632   5.472   5.049   1.649
10230TIP3    H130633   5.391   5.012   1.683
10230TIP3    H230634   5.540   5.021   1.710
10231TIP3   OH230635   3.827   4.392   5.903
10231TIP3    H130636   3.798   4.426   5.819
10231TIP3    H230637   3.797   4.301   5.904
10232TIP3   OH230638   3.573   1.215   0.383
10232TIP3    H130639   3.650   1.217   0.440
10232TIP3    H230640   3.586   1.137   0.328
10233TIP3   OH230641   4.650   5.017   5.069
10233TIP3    H130642   4.668   5.102   5.108
10233TIP3    H230643   4.567   5.028   5.023
10234TIP3   OH230644   4.389   2.104   5.817
10234TIP3    H130645   4.396   2.103   5.721
10234TIP3    H230646   4.468   2.058   5.847
10235TIP3   OH230647   2.076   5.522   1.900
10235TIP3    H130648   2.118   5.601   1.864
10235TIP3    H230649   2.137   5.452   1.879
10236TIP3   OH230650   0.617   7.065   3.031
10236TIP3    H130651   0.574   6.996   3.081
10236TIP3    H230652   0.662   7.118   3.096
10237TIP3   OH230653   3.831   4.479  -0.044
10237TIP3    H130654   3.754   4.430  -0.073
10237TIP3    H230655   3.838   4.459   0.050
10238TIP3   OH230656   2.205   1.257   2.237
10238TIP3    H130657   2.192   1.226   2.148
10238TIP3    H230658   2.201   1.179   2.291
10239TIP3   OH230659   4.565   7.447   1.257
10239TIP3    H130660   4.592   7.418   1.170
10239TIP3    H230661   4.541   7.366   1.303
10240TIP3   OH230662   7.172   5.482   5.903
10240TIP3    H130663   7.146   5.527   5.983
10240TIP3    H230664   7.132   5.533   5.832
10241TIP3   OH230665   5.252   0.264   5.062
10241TIP3    H130666   5.168   0.271   5.107
10241TIP3    H230667   5.231   0.226   4.977
10242TIP3   OH230668   6.716   7.101   1.339
10242TIP3    H130669   6.803   7.115   1.300
10242TIP3    H230670   6.695   7.010   1.318
10243TIP3   OH230671   3.482   0.828   3.018
10243TIP3    H130672   3.535   0.759   3.059
10243TIP3    H230673   3.424   0.782   2.958
10244TIP3   OH230674   7.944   1.380   4.239
10244TIP3    H130675   7.925   1.415   4.152
10244TIP3    H230676   8.008   1.311   4.224
10245TIP3   OH230677   1.641   3.445   3.577
10245TIP3    H130678   1.703   3.518   3.580
10245TIP3    H230679   1.695   3.367   3.562
10246TIP3   OH230680   3.078   4.367   2.592
10246TIP3    H130681   3.159   4.319   2.613
10246TIP3    H230682   3.108   4.446   2.548
10247TIP3   OH230683   6.476   1.425   0.597
10247TIP3    H130684   6.544   1.371   0.557
10247TIP3    H230685   6.466   1.390   0.685
10248TIP3   OH230686   5.156   2.507   3.805
10248TIP3    H130687   5.124   2.422   3.775
10248TIP3    H230688   5.135   2.567   3.733
10249TIP3   OH230689   1.225   1.109   5.266
10249TIP3    H130690   1.318   1.088   5.251
10249TIP3    H230691   1.222   1.204   5.266
10250TIP3   OH230692   0.582   6.556   4.110
10250TIP3    H130693   0.578   6.638   4.061
10250TIP3    H230694   0.646   6.572   4.179
10251TIP3   OH230695   2.900   1.589   0.789
10251TIP3    H130696   2.822   1.645   0.801
10251TIP3    H230697   2.870   1.518   0.733
10252TIP3   OH230698   7.179   6.812   5.018
10252TIP3    H130699   7.203   6.885   4.962
10252TIP3    H230700   7.259   6.789   5.065
10253TIP3   OH230701   1.451   0.292   0.877
10253TIP3    H130702   1.438   0.314   0.969
10253TIP3    H230703   1.412   0.364   0.829
10254TIP3   OH230704   3.302   0.186   0.521
10254TIP3    H130705   3.224   0.148   0.481
10254TIP3    H230706   3.312   0.136   0.603
10255TIP3   OH230707   1.320   3.357   1.134
10255TIP3    H130708   1.355   3.386   1.218
10255TIP3    H230709   1.230   3.390   1.132
10256TIP3   OH230710   0.786   1.493   4.928
10256TIP3    H130711   0.745   1.485   4.842
10256TIP3    H230712   0.857   1.556   4.916
10257TIP3   OH230713   1.388   5.153   2.097
10257TIP3    H130714   1.372   5.104   2.017
10257TIP3    H230715   1.467   5.113   2.134
10258TIP3   OH230716   3.266   6.128   0.580
10258TIP3    H130717   3.344   6.162   0.536
10258TIP3    H230718   3.283   6.142   0.673
10259TIP3   OH230719   1.983   6.056   1.862
10259TIP3    H130720   2.065   6.103   1.846
10259TIP3    H230721   1.915   6.123   1.856
10260TIP3   OH230722   5.080   5.687   5.371
10260TIP3    H130723   5.099   5.764   5.317
10260TIP3    H230724   5.078   5.721   5.460
10261TIP3   OH230725   4.621   1.462   2.691
10261TIP3    H130726   4.615   1.372   2.658
10261TIP3    H230727   4.684   1.457   2.763
10262TIP3   OH230728   3.031   7.046   1.958
10262TIP3    H130729   2.952   7.092   1.986
10262TIP3    H230730   3.070   7.104   1.892
10263TIP3   OH230731   0.767   6.249   1.631
10263TIP3    H130732   0.863   6.254   1.630
10263TIP3    H230733   0.738   6.340   1.629
10264TIP3   OH230734   1.098   3.665   2.484
10264TIP3    H130735   1.164   3.655   2.416
10264TIP3    H230736   1.019   3.625   2.447
10265TIP3   OH230737   5.123   6.622   3.361
10265TIP3    H130738   5.050   6.579   3.405
10265TIP3    H230739   5.180   6.652   3.433
10266TIP3   OH230740   4.657   7.394   1.926
10266TIP3    H130741   4.680   7.304   1.903
10266TIP3    H230742   4.691   7.446   1.854
10267TIP3   OH230743   6.371   4.227   0.984
10267TIP3    H130744   6.451   4.235   0.932
10267TIP3    H230745   6.393   4.268   1.067
10268TIP3   OH230746   7.308   1.275   5.730
10268TIP3    H130747   7.298   1.183   5.703
10268TIP3    H230748   7.244   1.286   5.800
10269TIP3   OH230749   5.998   1.274   3.317
10269TIP3    H130750   6.078   1.232   3.349
10269TIP3    H230751   6.011   1.279   3.222
10270TIP3   OH230752   3.206   3.792   1.186
10270TIP3    H130753   3.277   3.731   1.208
10270TIP3    H230754   3.132   3.736   1.163
10271TIP3   OH230755   0.322   7.223   0.627
10271TIP3    H130756   0.415   7.244   0.614
10271TIP3    H230757   0.302   7.253   0.715
10272TIP3   OH230758   3.154   4.947   4.710
10272TIP3    H130759   3.245   4.974   4.721
10272TIP3    H230760   3.115   5.016   4.656
10273TIP3   OH230761   0.931   1.317   2.627
10273TIP3    H130762   0.860   1.291   2.569
10273TIP3    H230763   0.904   1.284   2.713
10274TIP3   OH230764   8.108   0.623   2.201
10274TIP3    H130765   8.020   0.629   2.238
10274TIP3    H230766   8.134   0.532   2.215
10275TIP3   OH230767   0.062   5.206   4.411
10275TIP3    H130768   0.035   5.161   4.491
10275TIP3    H230769   0.080   5.296   4.439
10276TIP3   OH230770   5.093   3.839   5.083
10276TIP3    H130771   5.187   3.837   5.066
10276TIP3    H230772   5.053   3.835   4.996
10277TIP3   OH230773   5.628   5.601   0.187
10277TIP3    H130774   5.616   5.680   0.134
10277TIP3    H230775   5.616   5.529   0.125
10278TIP3   OH230776   0.498   3.163   6.045
10278TIP3    H130777   0.478   3.125   6.131
10278TIP3    H230778   0.593   3.153   6.036
10279TIP3   OH230779   7.897   6.208   5.832
10279TIP3    H130780   7.875   6.120   5.862
10279TIP3    H230781   7.966   6.195   5.766
10280TIP3   OH230782   1.409   1.759   0.137
10280TIP3    H130783   1.389   1.735   0.047
10280TIP3    H230784   1.453   1.844   0.130
10281TIP3   OH230785   5.646   0.467   3.700
10281TIP3    H130786   5.671   0.461   3.792
10281TIP3    H230787   5.599   0.550   3.693
10282TIP3   OH230788   3.305   4.415   0.452
10282TIP3    H130789   3.332   4.368   0.531
10282TIP3    H230790   3.350   4.369   0.381
10283TIP3   OH230791   5.592   2.051   6.024
10283TIP3    H130792   5.523   2.006   6.072
10283TIP3    H230793   5.673   2.027   6.069
10284TIP3   OH230794   6.417   0.640   0.846
10284TIP3    H130795   6.499   0.625   0.894
10284TIP3    H230796   6.349   0.620   0.910
10285TIP3   OH230797   7.329   0.992   6.011
10285TIP3    H130798   7.364   1.081   6.001
10285TIP3    H230799   7.281   0.976   5.930
10286TIP3   OH230800   6.449   3.246   5.559
10286TIP3    H130801   6.383   3.307   5.524
10286TIP3    H230802   6.481   3.198   5.483
10287TIP3   OH230803   1.264   5.751   0.693
10287TIP3    H130804   1.289   5.750   0.600
10287TIP3    H230805   1.252   5.659   0.716
10288TIP3   OH230806   3.357   6.468   6.553
10288TIP3    H130807   3.397   6.465   6.466
10288TIP3    H230808   3.412   6.529   6.603
10289TIP3   OH230809   7.510   0.073   5.475
10289TIP3    H130810   7.529   0.064   5.568
10289TIP3    H230811   7.417   0.053   5.467
10290TIP3   OH230812   7.547   6.779   1.285
10290TIP3    H130813   7.487   6.842   1.245
10290TIP3    H230814   7.506   6.757   1.369
10291TIP3   OH230815   1.864   1.579   1.384
10291TIP3    H130816   1.899   1.636   1.316
10291TIP3    H230817   1.784   1.542   1.347
10292TIP3   OH230818   6.851   1.241   2.151
10292TIP3    H130819   6.936   1.202   2.170
10292TIP3    H230820   6.839   1.228   2.057
10293TIP3   OH230821   2.667   0.600   4.122
10293TIP3    H130822   2.644   0.520   4.169
10293TIP3    H230823   2.660   0.669   4.188
10294TIP3   OH230824   1.193   2.412   3.025
10294TIP3    H130825   1.179   2.368   2.942
10294TIP3    H230826   1.129   2.484   3.025
10295TIP3   OH230827   7.598   5.551   0.642
10295TIP3    H130828   7.675   5.554   0.699
10295TIP3    H230829   7.525   5.533   0.701
10296TIP3   OH230830   2.993   2.742   3.976
10296TIP3    H130831   2.946   2.737   4.060
10296TIP3    H230832   2.948   2.810   3.927
10297TIP3   OH230833   5.052   3.027   2.465
10297TIP3    H130834   5.030   2.935   2.479
10297TIP3    H230835   5.041   3.041   2.371
10298TIP3   OH230836   2.022   4.642   5.752
10298TIP3    H130837   2.009   4.696   5.830
10298TIP3    H230838   2.000   4.699   5.679
10299TIP3   OH230839   5.859   4.525   1.577
10299TIP3    H130840   5.918   4.521   1.653
10299TIP3    H230841   5.839   4.433   1.558
10300TIP3   OH230842   2.508   2.504   4.671
10300TIP3    H130843   2.432   2.456   4.637
10300TIP3    H230844   2.583   2.450   4.647
10301TIP3   OH230845   4.365   6.279   4.633
10301TIP3    H130846   4.367   6.186   4.656
10301TIP3    H230847   4.375   6.280   4.538
10302TIP3   OH230848   7.597   3.027   1.236
10302TIP3    H130849   7.602   2.957   1.171
10302TIP3    H230850   7.519   3.076   1.213
10303TIP3   OH230851   4.585   0.727   5.826
10303TIP3    H130852   4.506   0.677   5.845
10303TIP3    H230853   4.657   0.670   5.855
10304TIP3   OH230854   1.353   2.713   2.585
10304TIP3    H130855   1.302   2.634   2.604
10304TIP3    H230856   1.440   2.695   2.621
10305TIP3   OH230857   5.862   0.281   2.464
10305TIP3    H130858   5.935   0.298   2.404
10305TIP3    H230859   5.821   0.201   2.430
10306TIP3   OH230860   1.116   6.998   0.105
10306TIP3    H130861   1.035   6.978   0.058
10306TIP3    H230862   1.098   7.082   0.148
10307TIP3   OH230863   7.424   1.203   6.440
10307TIP3    H130864   7.507   1.204   6.487
10307TIP3    H230865   7.362   1.247   6.499
10308TIP3   OH230866   2.417   0.408   4.585
10308TIP3    H130867   2.387   0.373   4.668
10308TIP3    H230868   2.511   0.425   4.598
10309TIP3   OH230869   7.121   4.168   3.183
10309TIP3    H130870   7.214   4.192   3.180
10309TIP3    H230871   7.078   4.232   3.127
10310TIP3   OH230872   2.417   6.626   4.905
10310TIP3    H130873   2.468   6.553   4.869
10310TIP3    H230874   2.449   6.636   4.995
10311TIP3   OH230875   2.508   5.387   5.229
10311TIP3    H130876   2.412   5.392   5.229
10311TIP3    H230877   2.528   5.317   5.292
10312TIP3   OH230878   3.159   5.341   2.615
10312TIP3    H130879   3.170   5.432   2.588
10312TIP3    H230880   3.069   5.320   2.592
10313TIP3   OH230881   2.406   6.928   4.565
10313TIP3    H130882   2.445   6.908   4.650
10313TIP3    H230883   2.329   6.872   4.560
10314TIP3   OH230884   4.411   6.829   4.090
10314TIP3    H130885   4.439   6.795   4.175
10314TIP3    H230886   4.445   6.918   4.087
10315TIP3   OH230887   8.224   6.440   1.664
10315TIP3    H130888   8.131   6.460   1.653
10315TIP3    H230889   8.227   6.380   1.738
10316TIP3   OH230890   0.839   1.639   4.153
10316TIP3    H130891   0.818   1.571   4.088
10316TIP3    H230892   0.759   1.692   4.158
10317TIP3   OH230893   4.248   2.366   1.722
10317TIP3    H130894   4.233   2.308   1.797
10317TIP3    H230895   4.188   2.439   1.735
10318TIP3   OH230896   4.277   1.973   5.389
10318TIP3    H130897   4.343   2.043   5.387
10318TIP3    H230898   4.225   1.987   5.310
10319TIP3   OH230899   3.878   0.321   5.307
10319TIP3    H130900   3.800   0.370   5.280
10319TIP3    H230901   3.896   0.352   5.396
10320TIP3   OH230902   4.187   0.155   3.816
10320TIP3    H130903   4.101   0.185   3.784
10320TIP3    H230904   4.241   0.234   3.816
10321TIP3   OH230905   7.991   7.674   5.177
10321TIP3    H130906   8.068   7.631   5.212
10321TIP3    H230907   7.960   7.731   5.247
10322TIP3   OH230908   4.513   3.297   3.686
10322TIP3    H130909   4.534   3.243   3.610
10322TIP3    H230910   4.476   3.378   3.650
10323TIP3   OH230911   5.055   0.587   1.528
10323TIP3    H130912   4.962   0.588   1.550
10323TIP3    H230913   5.061   0.533   1.449
10324TIP3   OH230914   5.545   4.452   5.632
10324TIP3    H130915   5.511   4.535   5.598
10324TIP3    H230916   5.561   4.399   5.554
10325TIP3   OH230917   7.203   0.017   6.671
10325TIP3    H130918   7.267  -0.028   6.728
10325TIP3    H230919   7.215   0.110   6.691
10326TIP3   OH230920   7.981   2.444   3.858
10326TIP3    H130921   8.015   2.534   3.867
10326TIP3    H230922   7.944   2.441   3.770
10327TIP3   OH230923   5.379   0.044   0.947
10327TIP3    H130924   5.441   0.066   1.018
10327TIP3    H230925   5.295   0.078   0.978
10328TIP3   OH230926   0.292   3.826   3.741
10328TIP3    H130927   0.228   3.847   3.674
10328TIP3    H230928   0.245   3.837   3.824
10329TIP3   OH230929   6.367   2.139   4.326
10329TIP3    H130930   6.346   2.140   4.419
10329TIP3    H230931   6.422   2.061   4.315
10330TIP3   OH230932   7.165   0.818   4.604
10330TIP3    H130933   7.096   0.857   4.657
10330TIP3    H230934   7.239   0.810   4.664
10331TIP3   OH230935   1.176   0.301   6.567
10331TIP3    H130936   1.090   0.284   6.529
10331TIP3    H230937   1.159   0.315   6.660
10332TIP3   OH230938   5.540   0.966   3.868
10332TIP3    H130939   5.448   0.968   3.842
10332TIP3    H230940   5.540   1.000   3.957
10333TIP3   OH230941   5.767   5.955   1.110
10333TIP3    H130942   5.792   5.996   1.027
10333TIP3    H230943   5.844   5.964   1.166
10334TIP3   OH230944   7.950   3.170   4.750
10334TIP3    H130945   7.972   3.210   4.666
10334TIP3    H230946   7.855   3.159   4.747
10335TIP3   OH230947   7.848   0.135   6.718
10335TIP3    H130948   7.876   0.048   6.747
10335TIP3    H230949   7.878   0.193   6.788
10336TIP3   OH230950   4.081   1.738   4.814
10336TIP3    H130951   4.007   1.687   4.782
10336TIP3    H230952   4.128   1.679   4.873
10337TIP3   OH230953   7.688   1.283   1.345
10337TIP3    H130954   7.654   1.243   1.425
10337TIP3    H230955   7.777   1.310   1.368
10338TIP3   OH230956   5.229   7.596   0.880
10338TIP3    H130957   5.308   7.550   0.909
10338TIP3    H230958   5.175   7.529   0.840
10339TIP3   OH230959   6.608   4.962   5.927
10339TIP3    H130960   6.648   4.879   5.954
10339TIP3    H230961   6.628   5.023   5.997
10340TIP3   OH230962   0.351   2.399   2.688
10340TIP3    H130963   0.300   2.360   2.759
10340TIP3    H230964   0.380   2.325   2.636
10341TIP3   OH230965   6.319   3.004   4.127
10341TIP3    H130966   6.295   3.095   4.145
10341TIP3    H230967   6.237   2.963   4.098
10342TIP3   OH230968   3.757   1.733   0.901
10342TIP3    H130969   3.684   1.751   0.960
10342TIP3    H230970   3.726   1.759   0.815
10343TIP3   OH230971   1.804   3.375   6.817
10343TIP3    H130972   1.750   3.401   6.743
10343TIP3    H230973   1.853   3.299   6.785
10344TIP3   OH230974   2.662   1.504   1.772
10344TIP3    H130975   2.730   1.440   1.794
10344TIP3    H230976   2.671   1.517   1.678
10345TIP3   OH230977   2.335   2.565   4.310
10345TIP3    H130978   2.415   2.515   4.323
10345TIP3    H230979   2.296   2.571   4.398
10346TIP3   OH230980   5.128   3.600   2.784
10346TIP3    H130981   5.155   3.673   2.728
10346TIP3    H230982   5.204   3.542   2.785
10347TIP3   OH230983   3.157   3.645   3.485
10347TIP3    H130984   3.158   3.706   3.558
10347TIP3    H230985   3.174   3.700   3.408
10348TIP3   OH230986   8.264   6.381   0.391
10348TIP3    H130987   8.341   6.345   0.434
10348TIP3    H230988   8.220   6.305   0.353
10349TIP3   OH230989   2.982   3.981   3.212
10349TIP3    H130990   3.048   3.923   3.174
10349TIP3    H230991   2.907   3.974   3.153
10350TIP3   OH230992   1.416   6.997   2.960
10350TIP3    H130993   1.437   7.018   3.051
10350TIP3    H230994   1.435   6.904   2.952
10351TIP3   OH230995   3.761   0.565   3.340
10351TIP3    H130996   3.722   0.516   3.412
10351TIP3    H230997   3.805   0.639   3.382
10352TIP3   OH230998   4.713   6.079   5.126
10352TIP3    H130999   4.762   5.999   5.142
10352TIP3    H231000   4.623   6.058   5.154
10353TIP3   OH231001   2.373   4.965   6.051
10353TIP3    H131002   2.444   4.958   6.114
10353TIP3    H231003   2.295   4.983   6.104
10354TIP3   OH231004   1.104   4.055   4.630
10354TIP3    H131005   1.076   4.082   4.542
10354TIP3    H231006   1.090   4.132   4.684
10355TIP3   OH231007   7.736   2.194   6.171
10355TIP3    H131008   7.720   2.106   6.138
10355TIP3    H231009   7.830   2.197   6.187
10356TIP3   OH231010   0.150   5.396   2.364
10356TIP3    H131011   0.170   5.397   2.458
10356TIP3    H231012   0.054   5.389   2.361
10357TIP3   OH231013   1.748   0.865   5.741
10357TIP3    H131014   1.806   0.917   5.797
10357TIP3    H231015   1.702   0.930   5.688
10358TIP3   OH231016   4.097   0.516   4.312
10358TIP3    H131017   4.166   0.484   4.253
10358TIP3    H231018   4.065   0.595   4.269
10359TIP3   OH231019   3.832   7.350   5.390
10359TIP3    H131020   3.816   7.315   5.477
10359TIP3    H231021   3.815   7.277   5.331
10360TIP3   OH231022   6.672   1.211   3.184
10360TIP3    H131023   6.765   1.187   3.176
10360TIP3    H231024   6.632   1.173   3.105
10361TIP3   OH231025   1.666   4.357   3.901
10361TIP3    H131026   1.658   4.272   3.857
10361TIP3    H231027   1.709   4.413   3.836
10362TIP3   OH231028   8.015   4.793   2.206
10362TIP3    H131029   7.923   4.810   2.185
10362TIP3    H231030   8.017   4.783   2.301
10363TIP3   OH231031   5.339   3.447   5.819
10363TIP3    H131032   5.431   3.428   5.832
10363TIP3    H231033   5.327   3.536   5.852
10364TIP3   OH231034   7.857   4.600   3.798
10364TIP3    H131035   7.838   4.612   3.891
10364TIP3    H231036   7.776   4.565   3.761
10365TIP3   OH231037   0.329   3.939   5.678
10365TIP3    H131038   0.343   3.889   5.758
10365TIP3    H231039   0.316   4.029   5.708
10366TIP3   OH231040   3.696   0.023   5.144
10366TIP3    H131041   3.765   0.058   5.088
10366TIP3    H231042   3.736   0.018   5.231
10367TIP3   OH231043   8.195   0.347   4.098
10367TIP3    H131044   8.175   0.343   4.192
10367TIP3    H231045   8.237   0.263   4.079
10368TIP3   OH231046   6.490   5.586   2.074
10368TIP3    H131047   6.574   5.595   2.118
10368TIP3    H231048   6.468   5.493   2.081
10369TIP3   OH231049   4.672   0.396   0.317
10369TIP3    H131050   4.743   0.383   0.381
10369TIP3    H231051   4.716   0.396   0.232
10370TIP3   OH231052   1.124   4.894   3.160
10370TIP3    H131053   1.168   4.918   3.241
10370TIP3    H231054   1.119   4.798   3.163
10371TIP3   OH231055   5.957   6.862   5.571
10371TIP3    H131056   5.867   6.868   5.541
10371TIP3    H231057   6.006   6.915   5.508
10372TIP3   OH231058   5.577   7.738   0.701
10372TIP3    H131059   5.561   7.708   0.612
10372TIP3    H231060   5.529   7.821   0.707
10373TIP3   OH231061   3.819   5.466   0.834
10373TIP3    H131062   3.856   5.535   0.779
10373TIP3    H231063   3.818   5.388   0.779
10374TIP3   OH231064   0.684   5.401   2.193
10374TIP3    H131065   0.714   5.316   2.224
10374TIP3    H231066   0.591   5.389   2.175
10375TIP3   OH231067   1.152   3.175   4.258
10375TIP3    H131068   1.089   3.208   4.323
10375TIP3    H231069   1.230   3.154   4.309
10376TIP3   OH231070   7.137   3.453   3.190
10376TIP3    H131071   7.206   3.432   3.253
10376TIP3    H231072   7.151   3.546   3.172
10377TIP3   OH231073   3.642   1.071   5.154
10377TIP3    H131074   3.656   1.165   5.158
10377TIP3    H231075   3.731   1.034   5.151
10378TIP3   OH231076   5.422   0.534   2.092
10378TIP3    H131077   5.413   0.450   2.138
10378TIP3    H231078   5.359   0.528   2.020
10379TIP3   OH231079   4.514   6.083   1.976
10379TIP3    H131080   4.422   6.062   1.961
10379TIP3    H231081   4.529   6.063   2.068
10380TIP3   OH231082   0.702  -0.010   1.296
10380TIP3    H131083   0.784  -0.008   1.345
10380TIP3    H231084   0.696   0.076   1.255
10381TIP3   OH231085   5.393   1.015   5.916
10381TIP3    H131086   5.316   1.016   5.859
10381TIP3    H231087   5.459   1.067   5.870
10382TIP3   OH231088   4.335   4.755   4.473
10382TIP3    H131089   4.396   4.744   4.400
10382TIP3    H231090   4.345   4.676   4.525
10383TIP3   OH231091   5.846   4.305   3.899
10383TIP3    H131092   5.918   4.280   3.956
10383TIP3    H231093   5.887   4.357   3.830
10384TIP3   OH231094   5.535   5.290   2.359
10384TIP3    H131095   5.448   5.269   2.323
10384TIP3    H231096   5.519   5.309   2.451
10385TIP3   OH231097   4.678   6.286   3.472
10385TIP3    H131098   4.657   6.196   3.444
10385TIP3    H231099   4.772   6.284   3.490
10386TIP3   OH231100   2.026   3.520   0.266
10386TIP3    H131101   2.114   3.490   0.289
10386TIP3    H231102   2.035   3.616   0.259
10387TIP3   OH231103   2.667   7.061   1.059
10387TIP3    H131104   2.644   7.154   1.051
10387TIP3    H231105   2.594   7.022   1.107
10388TIP3   OH231106   2.828   2.296   1.060
10388TIP3    H131107   2.848   2.352   0.985
10388TIP3    H231108   2.912   2.256   1.083
10389TIP3   OH231109   1.678   7.790   2.534
10389TIP3    H131110   1.636   7.722   2.482
10389TIP3    H231111   1.630   7.870   2.512
10390TIP3   OH231112   6.729   0.839   3.298
10390TIP3    H131113   6.766   0.820   3.212
10390TIP3    H231114   6.795   0.895   3.341
10391TIP3   OH231115   7.058   4.201   0.818
10391TIP3    H131116   7.073   4.148   0.897
10391TIP3    H231117   7.046   4.137   0.748
10392TIP3   OH231118   6.941   2.385   1.302
10392TIP3    H131119   6.882   2.323   1.258
10392TIP3    H231120   7.024   2.377   1.255
10393TIP3   OH231121   4.229   5.700   3.316
10393TIP3    H131122   4.314   5.666   3.288
10393TIP3    H231123   4.223   5.786   3.275
10394TIP3   OH231124   0.772   2.307   0.633
10394TIP3    H131125   0.823   2.347   0.703
10394TIP3    H231126   0.704   2.257   0.678
10395TIP3   OH231127   6.212   6.434   3.749
10395TIP3    H131128   6.136   6.406   3.698
10395TIP3    H231129   6.204   6.385   3.831
10396TIP3   OH231130   4.996   2.423   1.545
10396TIP3    H131131   4.903   2.449   1.549
10396TIP3    H231132   5.010   2.397   1.454
10397TIP3   OH231133   0.359   4.237   2.963
10397TIP3    H131134   0.419   4.309   2.943
10397TIP3    H231135   0.369   4.176   2.891
10398TIP3   OH231136   1.953   5.513   2.263
10398TIP3    H131137   2.005   5.434   2.247
10398TIP3    H231138   2.017   5.582   2.278
10399TIP3   OH231139   6.650   3.010   0.248
10399TIP3    H131140   6.640   3.041   0.158
10399TIP3    H231141   6.745   3.004   0.261
10400TIP3   OH231142   4.185   4.756   1.777
10400TIP3    H131143   4.191   4.723   1.866
10400TIP3    H231144   4.115   4.821   1.779
10401TIP3   OH231145   3.246   2.403   6.231
10401TIP3    H131146   3.161   2.401   6.277
10401TIP3    H231147   3.224   2.383   6.140
10402TIP3   OH231148   3.316   6.216   2.338
10402TIP3    H131149   3.382   6.211   2.407
10402TIP3    H231150   3.285   6.126   2.327
10403TIP3   OH231151   7.612   7.724   5.420
10403TIP3    H131152   7.549   7.760   5.483
10403TIP3    H231153   7.649   7.648   5.464
10404TIP3   OH231154   4.598   4.746   6.103
10404TIP3    H131155   4.639   4.684   6.042
10404TIP3    H231156   4.510   4.711   6.116
10405TIP3   OH231157   3.554   5.541   3.486
10405TIP3    H131158   3.468   5.577   3.464
10405TIP3    H231159   3.587   5.507   3.403
10406TIP3   OH231160   2.778   1.607   6.716
10406TIP3    H131161   2.778   1.607   6.621
10406TIP3    H231162   2.711   1.671   6.740
10407TIP3   OH231163   7.651   2.649   6.717
10407TIP3    H131164   7.583   2.639   6.783
10407TIP3    H231165   7.715   2.581   6.739
10408TIP3   OH231166   6.598   0.714   2.713
10408TIP3    H131167   6.503   0.725   2.721
10408TIP3    H231168   6.623   0.666   2.792
10409TIP3   OH231169   7.081   1.122   1.521
10409TIP3    H131170   7.024   1.189   1.558
10409TIP3    H231171   7.168   1.144   1.553
10410TIP3   OH231172   6.460   0.783   2.959
10410TIP3    H131173   6.535   0.724   2.959
10410TIP3    H231174   6.397   0.743   2.899
10411TIP3   OH231175   6.518   3.445   6.296
10411TIP3    H131176   6.547   3.478   6.212
10411TIP3    H231177   6.423   3.455   6.295
10412TIP3   OH231178   2.172   6.073   3.701
10412TIP3    H131179   2.142   6.004   3.760
10412TIP3    H231180   2.114   6.147   3.718
10413TIP3   OH231181   6.298   6.714   5.108
10413TIP3    H131182   6.315   6.622   5.127
10413TIP3    H231183   6.227   6.738   5.166
10414TIP3   OH231184   3.662   0.401   0.789
10414TIP3    H131185   3.631   0.480   0.832
10414TIP3    H231186   3.616   0.330   0.834
10415TIP3   OH231187   3.416   6.095   5.667
10415TIP3    H131188   3.321   6.083   5.672
10415TIP3    H231189   3.448   6.017   5.621
10416TIP3   OH231190   3.930   3.391   1.051
10416TIP3    H131191   3.881   3.317   1.013
10416TIP3    H231192   3.985   3.351   1.118
10417TIP3   OH231193   0.288   7.325   1.287
10417TIP3    H131194   0.375   7.331   1.249
10417TIP3    H231195   0.254   7.241   1.257
10418TIP3   OH231196   5.579   3.485   6.459
10418TIP3    H131197   5.503   3.539   6.478
10418TIP3    H231198   5.623   3.476   6.544
10419TIP3   OH231199   1.264   5.363   1.380
10419TIP3    H131200   1.317   5.337   1.305
10419TIP3    H231201   1.307   5.442   1.413
10420TIP3   OH231202   6.838   4.587   0.246
10420TIP3    H131203   6.892   4.593   0.325
10420TIP3    H231204   6.762   4.535   0.273
10421TIP3   OH231205   1.661   6.497   6.581
10421TIP3    H131206   1.673   6.591   6.595
10421TIP3    H231207   1.723   6.456   6.641
10422TIP3   OH231208   0.708   7.731   5.478
10422TIP3    H131209   0.729   7.794   5.408
10422TIP3    H231210   0.766   7.657   5.461
10423TIP3   OH231211   4.710   4.836   6.329
10423TIP3    H131212   4.665   4.803   6.252
10423TIP3    H231213   4.641   4.876   6.382
10424TIP3   OH231214   5.101   0.555   2.376
10424TIP3    H131215   5.169   0.564   2.442
10424TIP3    H231216   5.142   0.506   2.305
10425TIP3   OH231217   8.051   6.970   4.296
10425TIP3    H131218   7.998   6.930   4.366
10425TIP3    H231219   8.004   7.050   4.273
10426TIP3   OH231220   6.605   1.436   2.026
10426TIP3    H131221   6.525   1.465   1.983
10426TIP3    H231222   6.591   1.455   2.118
10427TIP3   OH231223   0.985   2.389   1.597
10427TIP3    H131224   0.929   2.455   1.558
10427TIP3    H231225   1.027   2.346   1.522
10428TIP3   OH231226   6.933   3.137   1.500
10428TIP3    H131227   6.844   3.131   1.536
10428TIP3    H231228   6.973   3.053   1.521
10429TIP3   OH231229   2.327   4.577   3.457
10429TIP3    H131230   2.268   4.651   3.440
10429TIP3    H231231   2.364   4.555   3.372
10430TIP3   OH231232   1.906   4.629   2.079
10430TIP3    H131233   1.894   4.589   1.993
10430TIP3    H231234   1.995   4.665   2.076
10431TIP3   OH231235   7.909   1.560   6.168
10431TIP3    H131236   7.850   1.569   6.093
10431TIP3    H231237   7.855   1.521   6.237
10432TIP3   OH231238   1.410   3.146   2.872
10432TIP3    H131239   1.323   3.109   2.880
10432TIP3    H231240   1.452   3.096   2.802
10433TIP3   OH231241   6.428   4.523   5.867
10433TIP3    H131242   6.394   4.611   5.853
10433TIP3    H231243   6.380   4.491   5.944
10434TIP3   OH231244   1.870   4.116   2.627
10434TIP3    H131245   1.790   4.074   2.596
10434TIP3    H231246   1.858   4.121   2.722
10435TIP3   OH231247   4.529   5.945   2.475
10435TIP3    H131248   4.474   6.015   2.511
10435TIP3    H231249   4.614   5.956   2.519
10436TIP3   OH231250   1.677   5.328   6.453
10436TIP3    H131251   1.603   5.336   6.513
10436TIP3    H231252   1.712   5.417   6.445
10437TIP3   OH231253   0.005   2.776   6.255
10437TIP3    H131254  -0.075   2.815   6.290
10437TIP3    H231255   0.059   2.757   6.331
10438TIP3   OH231256   4.145   0.887   4.345
10438TIP3    H131257   4.106   0.859   4.428
10438TIP3    H231258   4.212   0.950   4.370
10439TIP3   OH231259   1.133   6.741   2.088
10439TIP3    H131260   1.128   6.701   2.175
10439TIP3    H231261   1.225   6.737   2.064
10440TIP3   OH231262   4.644   7.821   2.934
10440TIP3    H131263   4.642   7.750   2.998
10440TIP3    H231264   4.627   7.900   2.985
10441TIP3   OH231265   1.093   2.627   0.343
10441TIP3    H131266   1.094   2.538   0.377
10441TIP3    H231267   1.172   2.634   0.290
10442TIP3   OH231268   6.533   3.671   5.114
10442TIP3    H131269   6.530   3.627   5.029
10442TIP3    H231270   6.466   3.739   5.108
10443TIP3   OH231271   0.701   2.546   5.904
10443TIP3    H131272   0.616   2.511   5.933
10443TIP3    H231273   0.748   2.470   5.870
10444TIP3   OH231274   0.239   3.790   0.858
10444TIP3    H131275   0.308   3.843   0.897
10444TIP3    H231276   0.244   3.809   0.764
10445TIP3   OH231277   7.488   1.795   3.224
10445TIP3    H131278   7.515   1.704   3.241
10445TIP3    H231279   7.545   1.848   3.279
10446TIP3   OH231280   6.712   3.579   6.059
10446TIP3    H131281   6.702   3.663   6.015
10446TIP3    H231282   6.697   3.514   5.990
10447TIP3   OH231283   7.447   0.433   4.049
10447TIP3    H131284   7.540   0.453   4.041
10447TIP3    H231285   7.410   0.509   4.094
10448TIP3   OH231286   6.085   7.483   1.613
10448TIP3    H131287   6.108   7.410   1.555
10448TIP3    H231288   6.087   7.445   1.701
10449TIP3   OH231289   2.136   6.890   3.107
10449TIP3    H131290   2.181   6.857   3.029
10449TIP3    H231291   2.048   6.853   3.101
10450TIP3   OH231292   7.136   1.224   4.521
10450TIP3    H131293   7.106   1.162   4.587
10450TIP3    H231294   7.213   1.183   4.482
10451TIP3   OH231295   7.818   4.713   1.504
10451TIP3    H131296   7.882   4.752   1.445
10451TIP3    H231297   7.836   4.752   1.589
10452TIP3   OH231298   3.157   3.811   1.921
10452TIP3    H131299   3.062   3.823   1.922
10452TIP3    H231300   3.172   3.748   1.850
10453TIP3   OH231301   5.363   3.723   5.518
10453TIP3    H131302   5.326   3.642   5.483
10453TIP3    H231303   5.321   3.793   5.469
10454TIP3   OH231304   7.390   0.777   0.082
10454TIP3    H131305   7.419   0.787   0.172
10454TIP3    H231306   7.320   0.841   0.072
10455TIP3   OH231307   5.512   4.048   0.642
10455TIP3    H131308   5.547   3.959   0.652
10455TIP3    H231309   5.497   4.077   0.732
10456TIP3   OH231310   7.060   3.085   2.690
10456TIP3    H131311   7.071   3.077   2.595
10456TIP3    H231312   7.116   3.158   2.715
10457TIP3   OH231313   8.084   3.983   5.906
10457TIP3    H131314   8.168   3.938   5.905
10457TIP3    H231315   8.089   4.042   5.982
10458TIP3   OH231316   3.584   7.120   6.559
10458TIP3    H131317   3.555   7.136   6.470
10458TIP3    H231318   3.513   7.150   6.615
10459TIP3   OH231319   2.554   6.120   0.422
10459TIP3    H131320   2.588   6.149   0.507
10459TIP3    H231321   2.517   6.199   0.383
10460TIP3   OH231322   2.921   0.117   1.976
10460TIP3    H131323   2.900   0.210   1.982
10460TIP3    H231324   2.982   0.111   1.903
10461TIP3   OH231325   5.183   1.970   1.027
10461TIP3    H131326   5.201   1.992   1.118
10461TIP3    H231327   5.171   1.875   1.027
10462TIP3   OH231328   3.399   2.194   4.481
10462TIP3    H131329   3.469   2.258   4.465
10462TIP3    H231330   3.332   2.215   4.415
10463TIP3   OH231331   1.959   6.119   4.970
10463TIP3    H131332   1.939   6.201   4.925
10463TIP3    H231333   1.879   6.099   5.019
10464TIP3   OH231334   7.332   1.778   1.687
10464TIP3    H131335   7.271   1.841   1.648
10464TIP3    H231336   7.417   1.800   1.648
10465TIP3   OH231337   4.218   6.068   3.981
10465TIP3    H131338   4.191   6.098   3.894
10465TIP3    H231339   4.168   5.988   3.996
10466TIP3   OH231340   5.329   1.470   1.057
10466TIP3    H131341   5.404   1.461   1.116
10466TIP3    H231342   5.263   1.410   1.091
10467TIP3   OH231343   0.512   5.530   3.131
10467TIP3    H131344   0.569   5.598   3.165
10467TIP3    H231345   0.424   5.565   3.138
10468TIP3   OH231346   3.481   0.194   4.052
10468TIP3    H131347   3.392   0.210   4.019
10468TIP3    H231348   3.480   0.228   4.141
10469TIP3   OH231349   1.736   4.125   4.662
10469TIP3    H131350   1.806   4.187   4.683
10469TIP3    H231351   1.686   4.169   4.593
10470TIP3   OH231352   6.056   4.655   0.731
10470TIP3    H131353   6.040   4.747   0.750
10470TIP3    H231354   5.979   4.627   0.681
10471TIP3   OH231355   0.522   1.694   5.732
10471TIP3    H131356   0.545   1.776   5.688
10471TIP3    H231357   0.428   1.684   5.718
10472TIP3   OH231358   1.829   4.426   6.747
10472TIP3    H131359   1.858   4.371   6.820
10472TIP3    H231360   1.847   4.515   6.775
10473TIP3   OH231361   0.620   5.487   3.441
10473TIP3    H131362   0.658   5.427   3.377
10473TIP3    H231363   0.526   5.467   3.441
10474TIP3   OH231364   4.378   1.065   1.179
10474TIP3    H131365   4.363   1.041   1.088
10474TIP3    H231366   4.393   0.982   1.224
10475TIP3   OH231367   3.536   0.228   2.247
10475TIP3    H131368   3.624   0.232   2.209
10475TIP3    H231369   3.479   0.264   2.179
10476TIP3   OH231370   5.842   0.959   4.774
10476TIP3    H131371   5.872   1.041   4.815
10476TIP3    H231372   5.903   0.893   4.806
10477TIP3   OH231373   6.214   4.811   3.965
10477TIP3    H131374   6.288   4.827   3.906
10477TIP3    H231375   6.255   4.801   4.051
10478TIP3   OH231376   8.013   5.608   4.407
10478TIP3    H131377   7.963   5.585   4.485
10478TIP3    H231378   7.961   5.674   4.363
10479TIP3   OH231379   0.841   5.495   5.557
10479TIP3    H131380   0.921   5.492   5.504
10479TIP3    H231381   0.845   5.580   5.601
10480TIP3   OH231382   1.984   5.398   0.281
10480TIP3    H131383   1.971   5.303   0.279
10480TIP3    H231384   2.052   5.414   0.216
10481TIP3   OH231385   0.043   0.515   0.314
10481TIP3    H131386   0.096   0.588   0.346
10481TIP3    H231387   0.097   0.474   0.246
10482TIP3   OH231388   1.676   1.532   6.246
10482TIP3    H131389   1.763   1.521   6.283
10482TIP3    H231390   1.674   1.475   6.169
10483TIP3   OH231391   0.350   5.194   5.724
10483TIP3    H131392   0.295   5.191   5.802
10483TIP3    H231393   0.368   5.287   5.710
10484TIP3   OH231394   7.201   1.137   3.357
10484TIP3    H131395   7.289   1.101   3.352
10484TIP3    H231396   7.210   1.227   3.326
10485TIP3   OH231397   0.280   1.408   6.368
10485TIP3    H131398   0.330   1.463   6.308
10485TIP3    H231399   0.193   1.403   6.328
10486TIP3   OH231400   0.041   3.525   1.596
10486TIP3    H131401   0.069   3.439   1.563
10486TIP3    H231402  -0.036   3.546   1.543
10487TIP3   OH231403   7.480   3.839   4.937
10487TIP3    H131404   7.505   3.746   4.932
10487TIP3    H231405   7.386   3.839   4.922
10488TIP3   OH231406   3.471   6.700   4.536
10488TIP3    H131407   3.477   6.776   4.478
10488TIP3    H231408   3.441   6.736   4.620
10489TIP3   OH231409   0.442   3.626   0.186
10489TIP3    H131410   0.455   3.686   0.113
10489TIP3    H231411   0.516   3.643   0.245
10490TIP3   OH231412   8.200   0.546   3.809
10490TIP3    H131413   8.222   0.593   3.729
10490TIP3    H231414   8.184   0.615   3.874
10491TIP3   OH231415   6.405   6.656   0.887
10491TIP3    H131416   6.470   6.607   0.836
10491TIP3    H231417   6.438   6.655   0.977
10492TIP3   OH231418   8.124   7.729   0.779
10492TIP3    H131419   8.097   7.677   0.704
10492TIP3    H231420   8.072   7.809   0.772
10493TIP3   OH231421   2.578   6.223   3.913
10493TIP3    H131422   2.643   6.278   3.870
10493TIP3    H231423   2.550   6.273   3.989
10494TIP3   OH231424   1.619   6.370   3.743
10494TIP3    H131425   1.657   6.369   3.831
10494TIP3    H231426   1.610   6.277   3.720
10495TIP3   OH231427   7.370   4.436   6.719
10495TIP3    H131428   7.420   4.360   6.687
10495TIP3    H231429   7.282   4.402   6.734
10496TIP3   OH231430   2.680   3.425   3.666
10496TIP3    H131431   2.686   3.330   3.674
10496TIP3    H231432   2.609   3.440   3.603
10497TIP3   OH231433   5.298   4.398   1.656
10497TIP3    H131434   5.379   4.447   1.669
10497TIP3    H231435   5.232   4.465   1.640
10498TIP3   OH231436   1.137   2.404   5.374
10498TIP3    H131437   1.065   2.461   5.346
10498TIP3    H231438   1.183   2.454   5.441
10499TIP3   OH231439   0.201   7.302   2.129
10499TIP3    H131440   0.195   7.353   2.210
10499TIP3    H231441   0.267   7.346   2.077
10500TIP3   OH231442   7.211   0.445   1.765
10500TIP3    H131443   7.183   0.513   1.826
10500TIP3    H231444   7.287   0.405   1.808
10501TIP3   OH231445   6.886   4.767   0.021
10501TIP3    H131446   6.978   4.764  -0.005
10501TIP3    H231447   6.879   4.704   0.092
10502TIP3   OH231448   2.854   1.955   6.371
10502TIP3    H131449   2.849   2.030   6.429
10502TIP3    H231450   2.844   1.879   6.429
10503TIP3   OH231451   7.825   3.968   3.672
10503TIP3    H131452   7.781   3.985   3.755
10503TIP3    H231453   7.861   3.880   3.681
10504TIP3   OH231454   2.154   3.845   0.474
10504TIP3    H131455   2.115   3.908   0.535
10504TIP3    H231456   2.193   3.778   0.531
10505TIP3   OH231457   7.914   2.316   2.654
10505TIP3    H131458   7.920   2.304   2.749
10505TIP3    H231459   7.900   2.410   2.643
10506TIP3   OH231460   4.255   7.627   6.759
10506TIP3    H131461   4.316   7.698   6.740
10506TIP3    H231462   4.311   7.549   6.769
10507TIP3   OH231463   7.657   4.168   1.843
10507TIP3    H131464   7.596   4.193   1.913
10507TIP3    H231465   7.736   4.219   1.861
10508TIP3   OH231466   4.140   1.319   0.468
10508TIP3    H131467   4.067   1.261   0.449
10508TIP3    H231468   4.107   1.380   0.534
10509TIP3   OH231469   0.830   2.381   3.796
10509TIP3    H131470   0.862   2.453   3.741
10509TIP3    H231471   0.745   2.411   3.829
10510TIP3   OH231472   3.714   4.892   5.363
10510TIP3    H131473   3.754   4.970   5.402
10510TIP3    H231474   3.640   4.872   5.419
10511TIP3   OH231475   5.311   4.049   4.518
10511TIP3    H131476   5.378   4.103   4.558
10511TIP3    H231477   5.356   4.002   4.448
10512TIP3   OH231478   3.277   6.428   5.675
10512TIP3    H131479   3.279   6.394   5.764
10512TIP3    H231480   3.206   6.380   5.633
10513TIP3   OH231481   3.888   2.020   4.807
10513TIP3    H131482   3.929   1.942   4.771
10513TIP3    H231483   3.960   2.069   4.847
10514TIP3   OH231484   2.879   3.392   2.370
10514TIP3    H131485   2.822   3.361   2.440
10514TIP3    H231486   2.955   3.334   2.374
10515TIP3   OH231487   6.839   4.863   1.814
10515TIP3    H131488   6.906   4.894   1.875
10515TIP3    H231489   6.882   4.794   1.764
10516TIP3   OH231490   0.899   0.703   3.297
10516TIP3    H131491   0.849   0.762   3.354
10516TIP3    H231492   0.926   0.632   3.354
10517TIP3   OH231493   1.835   1.211   2.128
10517TIP3    H131494   1.774   1.174   2.191
10517TIP3    H231495   1.818   1.306   2.130
10518TIP3   OH231496   0.758   3.912   3.646
10518TIP3    H131497   0.686   3.890   3.706
10518TIP3    H231498   0.810   3.833   3.641
10519TIP3   OH231499   7.962   0.104   0.214
10519TIP3    H131500   7.885   0.111   0.270
10519TIP3    H231501   7.937   0.044   0.145
10520TIP3   OH231502   3.792   2.456   1.062
10520TIP3    H131503   3.759   2.536   1.021
10520TIP3    H231504   3.832   2.485   1.144
10521TIP3   OH231505   3.343   3.750   0.919
10521TIP3    H131506   3.347   3.666   0.874
10521TIP3    H231507   3.289   3.733   0.997
10522TIP3   OH231508   6.067   5.025   0.352
10522TIP3    H131509   5.993   5.049   0.409
10522TIP3    H231510   6.050   5.072   0.270
10523TIP3   OH231511   7.817   5.927   5.007
10523TIP3    H131512   7.800   5.994   4.941
10523TIP3    H231513   7.733   5.881   5.016
10524TIP3   OH231514   3.433   7.299   6.418
10524TIP3    H131515   3.494   7.364   6.383
10524TIP3    H231516   3.384   7.345   6.485
10525TIP3   OH231517   1.259   0.288   2.610
10525TIP3    H131518   1.354   0.276   2.623
10525TIP3    H231519   1.253   0.360   2.548
10526TIP3   OH231520   2.175   2.355   2.795
10526TIP3    H131521   2.184   2.449   2.810
10526TIP3    H231522   2.223   2.338   2.714
10527TIP3   OH231523   0.606   1.803   4.151
10527TIP3    H131524   0.552   1.809   4.072
10527TIP3    H231525   0.553   1.844   4.219
10528TIP3   OH231526   4.367   3.813   4.429
10528TIP3    H131527   4.420   3.787   4.354
10528TIP3    H231528   4.314   3.886   4.397
10529TIP3   OH231529   7.075   3.376   4.886
10529TIP3    H131530   7.082   3.437   4.812
10529TIP3    H231531   7.066   3.432   4.963
10530TIP3   OH231532   3.770   1.183   2.473
10530TIP3    H131533   3.837   1.229   2.422
10530TIP3    H231534   3.702   1.163   2.409
10531TIP3   OH231535   0.924   1.855   5.369
10531TIP3    H131536   0.894   1.860   5.278
10531TIP3    H231537   1.019   1.866   5.364
10532TIP3   OH231538   7.317   1.001   6.727
10532TIP3    H131539   7.403   1.032   6.697
10532TIP3    H231540   7.301   0.923   6.675
10533TIP3   OH231541   0.966   1.527   5.288
10533TIP3    H131542   1.032   1.593   5.265
10533TIP3    H231543   0.883   1.569   5.269
10534TIP3   OH231544   2.343   2.254   2.185
10534TIP3    H131545   2.255   2.219   2.176
10534TIP3    H231546   2.400   2.187   2.147
10535TIP3   OH231547   3.610   5.688   5.608
10535TIP3    H131548   3.632   5.679   5.515
10535TIP3    H231549   3.656   5.615   5.650
10536TIP3   OH231550   1.814   2.844   3.449
10536TIP3    H131551   1.775   2.758   3.433
10536TIP3    H231552   1.902   2.838   3.411
10537TIP3   OH231553   6.589   6.445   5.513
10537TIP3    H131554   6.540   6.421   5.591
10537TIP3    H231555   6.592   6.541   5.515
10538TIP3   OH231556   1.422   0.391   1.139
10538TIP3    H131557   1.338   0.425   1.171
10538TIP3    H231558   1.486   0.458   1.164
10539TIP3   OH231559   5.177   5.882   6.301
10539TIP3    H131560   5.258   5.833   6.286
10539TIP3    H231561   5.112   5.815   6.322
10540TIP3   OH231562   0.921   6.536   3.238
10540TIP3    H131563   0.845   6.502   3.284
10540TIP3    H231564   0.937   6.472   3.168
10541TIP3   OH231565   6.288   3.076   2.022
10541TIP3    H131566   6.378   3.046   2.019
10541TIP3    H231567   6.291   3.165   1.987
10542TIP3   OH231568   0.314   6.489   1.782
10542TIP3    H131569   0.230   6.448   1.763
10542TIP3    H231570   0.343   6.449   1.864
10543TIP3   OH231571   5.156   3.421   2.521
10543TIP3    H131572   5.207   3.461   2.591
10543TIP3    H231573   5.149   3.488   2.453
10544TIP3   OH231574   3.260   0.294   3.921
10544TIP3    H131575   3.289   0.355   3.854
10544TIP3    H231576   3.194   0.240   3.877
10545TIP3   OH231577   1.565   5.090   0.663
10545TIP3    H131578   1.504   5.021   0.691
10545TIP3    H231579   1.530   5.170   0.703
10546TIP3   OH231580   7.494   0.711   1.984
10546TIP3    H131581   7.507   0.619   1.960
10546TIP3    H231582   7.414   0.711   2.036
10547TIP3   OH231583   7.101   0.315   1.556
10547TIP3    H131584   7.154   0.348   1.484
10547TIP3    H231585   7.144   0.347   1.635
10548TIP3   OH231586   5.909   0.423   4.697
10548TIP3    H131587   5.945   0.334   4.692
10548TIP3    H231588   5.910   0.445   4.790
10549TIP3   OH231589   0.439   6.914   5.367
10549TIP3    H131590   0.482   6.899   5.451
10549TIP3    H231591   0.385   6.837   5.354
10550TIP3   OH231592   0.378   6.771   1.542
10550TIP3    H131593   0.460   6.818   1.556
10550TIP3    H231594   0.401   6.700   1.482
10551TIP3   OH231595   5.452   1.547   3.479
10551TIP3    H131596   5.516   1.475   3.483
10551TIP3    H231597   5.441   1.564   3.386
10552TIP3   OH231598   2.714   5.630   6.034
10552TIP3    H131599   2.775   5.573   5.987
10552TIP3    H231600   2.717   5.599   6.125
10553TIP3   OH231601   2.461   3.590   6.389
10553TIP3    H131602   2.431   3.512   6.435
10553TIP3    H231603   2.467   3.563   6.297
10554TIP3   OH231604   7.324   4.815   1.115
10554TIP3    H131605   7.354   4.772   1.034
10554TIP3    H231606   7.403   4.825   1.167
10555TIP3   OH231607   5.508   1.857   5.175
10555TIP3    H131608   5.420   1.893   5.178
10555TIP3    H231609   5.495   1.762   5.177
10556TIP3   OH231610   7.530   2.428   1.463
10556TIP3    H131611   7.447   2.423   1.510
10556TIP3    H231612   7.574   2.504   1.501
10557TIP3   OH231613   2.744   3.844   1.238
10557TIP3    H131614   2.710   3.818   1.324
10557TIP3    H231615   2.787   3.928   1.254
10558TIP3   OH231616   0.214   6.794   5.884
10558TIP3    H131617   0.211   6.877   5.836
10558TIP3    H231618   0.298   6.796   5.929
10559TIP3   OH231619   4.649   7.581   4.111
10559TIP3    H131620   4.641   7.505   4.169
10559TIP3    H231621   4.564   7.624   4.116
10560TIP3   OH231622   0.435   5.700   6.361
10560TIP3    H131623   0.448   5.699   6.456
10560TIP3    H231624   0.472   5.617   6.331
10561TIP3   OH231625   4.855   7.418   5.139
10561TIP3    H131626   4.835   7.351   5.073
10561TIP3    H231627   4.847   7.372   5.223
10562TIP3   OH231628   3.420   5.459   5.713
10562TIP3    H131629   3.365   5.508   5.652
10562TIP3    H231630   3.508   5.467   5.677
10563TIP3   OH231631   6.275   0.162   2.826
10563TIP3    H131632   6.312   0.104   2.893
10563TIP3    H231633   6.202   0.206   2.870
10564TIP3   OH231634   5.549   4.289   5.409
10564TIP3    H131635   5.465   4.242   5.407
10564TIP3    H231636   5.571   4.302   5.317
10565TIP3   OH231637   6.364   7.395   1.161
10565TIP3    H131638   6.376   7.488   1.143
10565TIP3    H231639   6.271   7.386   1.182
10566TIP3   OH231640   5.650   6.008   2.765
10566TIP3    H131641   5.736   6.001   2.805
10566TIP3    H231642   5.662   5.972   2.677
10567TIP3   OH231643   0.999   0.713   6.013
10567TIP3    H131644   1.076   0.709   5.956
10567TIP3    H231645   0.956   0.796   5.990
10568TIP3   OH231646   0.322   5.443   0.079
10568TIP3    H131647   0.274   5.459   0.161
10568TIP3    H231648   0.305   5.521   0.026
10569TIP3   OH231649   5.511   1.897   2.959
10569TIP3    H131650   5.480   1.890   2.869
10569TIP3    H231651   5.501   1.990   2.981
10570TIP3   OH231652   7.772   6.635   3.512
10570TIP3    H131653   7.834   6.586   3.458
10570TIP3    H231654   7.726   6.692   3.450
10571TIP3   OH231655   1.299   3.587   4.041
10571TIP3    H131656   1.258   3.592   4.127
10571TIP3    H231657   1.271   3.502   4.007
10572TIP3   OH231658   8.026   6.106   2.950
10572TIP3    H131659   7.993   6.173   2.890
10572TIP3    H231660   8.038   6.029   2.895
10573TIP3   OH231661   5.604   5.303   5.913
10573TIP3    H131662   5.653   5.221   5.917
10573TIP3    H231663   5.512   5.276   5.907
10574TIP3   OH231664   2.464   6.326   5.433
10574TIP3    H131665   2.557   6.302   5.439
10574TIP3    H231666   2.419   6.260   5.486
10575TIP3   OH231667   5.119   4.243   2.338
10575TIP3    H131668   5.077   4.219   2.420
10575TIP3    H231669   5.073   4.322   2.310
10576TIP3   OH231670   6.765   4.422   4.897
10576TIP3    H131671   6.856   4.411   4.924
10576TIP3    H231672   6.725   4.476   4.965
10577TIP3   OH231673   3.793   7.173   2.920
10577TIP3    H131674   3.736   7.168   2.997
10577TIP3    H231675   3.734   7.158   2.846
10578TIP3   OH231676   0.843   1.479   1.068
10578TIP3    H131677   0.920   1.495   1.013
10578TIP3    H231678   0.851   1.387   1.093
10579TIP3   OH231679   6.665   1.588   3.147
10579TIP3    H131680   6.661   1.681   3.122
10579TIP3    H231681   6.574   1.560   3.148
10580TIP3   OH231682   1.036   1.678   4.960
10580TIP3    H131683   1.084   1.661   4.880
10580TIP3    H231684   1.092   1.644   5.030
10581TIP3   OH231685   6.665   3.310   3.442
10581TIP3    H131686   6.758   3.305   3.418
10581TIP3    H231687   6.631   3.384   3.392
10582TIP3   OH231688   6.435   4.806   3.004
10582TIP3    H131689   6.525   4.830   2.982
10582TIP3    H231690   6.384   4.884   2.983
10583TIP3   OH231691   7.890   7.292   5.337
10583TIP3    H131692   7.823   7.344   5.293
10583TIP3    H231693   7.960   7.283   5.272
10584TIP3   OH231694   7.393   3.607   3.024
10584TIP3    H131695   7.308   3.650   3.014
10584TIP3    H231696   7.429   3.604   2.936
10585TIP3   OH231697   3.177   0.067   5.336
10585TIP3    H131698   3.179  -0.013   5.284
10585TIP3    H231699   3.269   0.092   5.346
10586TIP3   OH231700   5.156   0.515   0.434
10586TIP3    H131701   5.074   0.549   0.398
10586TIP3    H231702   5.213   0.591   0.440
10587TIP3   OH231703   2.125   3.782   6.639
10587TIP3    H131704   2.053   3.752   6.694
10587TIP3    H231705   2.114   3.735   6.556
10588TIP3   OH231706   0.789   3.297   0.435
10588TIP3    H131707   0.791   3.216   0.385
10588TIP3    H231708   0.696   3.322   0.437
10589TIP3   OH231709   1.516   0.114   1.263
10589TIP3    H131710   1.486   0.204   1.248
10589TIP3    H231711   1.459   0.080   1.332
10590TIP3   OH231712   1.294   0.008   2.535
10590TIP3    H131713   1.212  -0.041   2.531
10590TIP3    H231714   1.271   0.089   2.580
10591TIP3   OH231715   0.032   5.243   6.613
10591TIP3    H131716   0.096   5.263   6.544
10591TIP3    H231717   0.062   5.293   6.689
10592TIP3   OH231718   6.536   3.961   1.642
10592TIP3    H131719   6.460   3.912   1.610
10592TIP3    H231720   6.510   4.053   1.634
10593TIP3   OH231721   2.731   0.958   6.725
10593TIP3    H131722   2.806   0.924   6.677
10593TIP3    H231723   2.664   0.890   6.715
10594TIP3   OH231724   7.233   6.693   4.283
10594TIP3    H131725   7.185   6.734   4.211
10594TIP3    H231726   7.304   6.645   4.241
10595TIP3   OH231727   6.150   6.680   1.764
10595TIP3    H131728   6.228   6.624   1.764
10595TIP3    H231729   6.162   6.737   1.841
10596TIP3   OH231730   0.200   5.312   6.204
10596TIP3    H131731   0.108   5.286   6.205
10596TIP3    H231732   0.232   5.290   6.291
10597TIP3   OH231733   5.831   4.557   5.427
10597TIP3    H131734   5.755   4.570   5.369
10597TIP3    H231735   5.870   4.644   5.434
10598TIP3   OH231736   8.277   0.331   1.822
10598TIP3    H131737   8.357   0.343   1.771
10598TIP3    H231738   8.267   0.236   1.829
10599TIP3   OH231739   4.877   5.195   4.583
10599TIP3    H131740   4.918   5.168   4.665
10599TIP3    H231741   4.929   5.151   4.515
10600TIP3   OH231742   6.558   2.916   5.098
10600TIP3    H131743   6.605   2.905   5.015
10600TIP3    H231744   6.600   2.852   5.156
10601TIP3   OH231745   4.716   2.664   1.912
10601TIP3    H131746   4.795   2.667   1.858
10601TIP3    H231747   4.663   2.595   1.872
10602TIP3   OH231748   1.738   2.745   4.200
10602TIP3    H131749   1.821   2.754   4.153
10602TIP3    H231750   1.737   2.820   4.260
10603TIP3   OH231751   4.792   1.631   2.547
10603TIP3    H131752   4.703   1.598   2.538
10603TIP3    H231753   4.804   1.643   2.641
10604TIP3   OH231754   5.459   5.536   0.460
10604TIP3    H131755   5.552   5.548   0.479
10604TIP3    H231756   5.450   5.442   0.444
10605TIP3   OH231757   3.405   2.957   0.720
10605TIP3    H131758   3.323   3.007   0.716
10605TIP3    H231759   3.386   2.876   0.672
10606TIP3   OH231760   1.915   0.325   0.576
10606TIP3    H131761   1.934   0.275   0.656
10606TIP3    H231762   1.821   0.342   0.581
10607TIP3   OH231763   1.107   5.123   5.999
10607TIP3    H131764   1.202   5.111   5.992
10607TIP3    H231765   1.081   5.067   6.072
10608TIP3   OH231766   8.055   3.690   0.611
10608TIP3    H131767   7.960   3.705   0.608
10608TIP3    H231768   8.092   3.777   0.631
10609TIP3   OH231769   4.406   1.036   0.638
10609TIP3    H131770   4.333   1.014   0.581
10609TIP3    H231771   4.473   1.072   0.579
10610TIP3   OH231772   7.144   5.869   4.486
10610TIP3    H131773   7.230   5.902   4.513
10610TIP3    H231774   7.147   5.869   4.390
10611TIP3   OH231775   2.502   1.804   4.836
10611TIP3    H131776   2.572   1.843   4.888
10611TIP3    H231777   2.430   1.791   4.898
10612TIP3   OH231778   2.329   4.698   1.758
10612TIP3    H131779   2.374   4.654   1.830
10612TIP3    H231780   2.258   4.638   1.734
10613TIP3   OH231781   5.415   6.165   2.347
10613TIP3    H131782   5.382   6.244   2.388
10613TIP3    H231783   5.402   6.178   2.253
10614TIP3   OH231784   5.332   7.804   2.117
10614TIP3    H131785   5.272   7.878   2.128
10614TIP3    H231786   5.295   7.735   2.173
10615TIP3   OH231787   7.286   7.601   5.366
10615TIP3    H131788   7.272   7.662   5.438
10615TIP3    H231789   7.251   7.645   5.289
10616TIP3   OH231790   1.360   7.609   0.882
10616TIP3    H131791   1.325   7.667   0.949
10616TIP3    H231792   1.317   7.637   0.801
10617TIP3   OH231793   3.788   1.972   5.313
10617TIP3    H131794   3.848   1.965   5.387
10617TIP3    H231795   3.817   2.050   5.265
10618TIP3   OH231796   1.250   7.209   4.550
10618TIP3    H131797   1.252   7.151   4.474
10618TIP3    H231798   1.210   7.290   4.519
10619TIP3   OH231799   1.095   0.336   4.169
10619TIP3    H131800   1.054   0.249   4.164
10619TIP3    H231801   1.182   0.319   4.204
10620TIP3   OH231802   2.783   5.102   1.585
10620TIP3    H131803   2.820   5.015   1.593
10620TIP3    H231804   2.694   5.094   1.621
10621TIP3   OH231805   1.725   3.206   4.717
10621TIP3    H131806   1.767   3.209   4.631
10621TIP3    H231807   1.773   3.139   4.765
10622TIP3   OH231808   2.379   5.998   2.647
10622TIP3    H131809   2.302   5.985   2.591
10622TIP3    H231810   2.392   6.093   2.649
10623TIP3   OH231811   6.692   2.244   2.048
10623TIP3    H131812   6.746   2.321   2.063
10623TIP3    H231813   6.751   2.170   2.063
10624TIP3   OH231814   7.665   6.772   4.941
10624TIP3    H131815   7.675   6.736   4.853
10624TIP3    H231816   7.687   6.700   4.999
10625TIP3   OH231817   1.758   4.845   5.807
10625TIP3    H131818   1.714   4.770   5.767
10625TIP3    H231819   1.697   4.877   5.874
10626TIP3   OH231820   7.615   2.672   4.806
10626TIP3    H131821   7.685   2.738   4.801
10626TIP3    H231822   7.639   2.618   4.881
10627TIP3   OH231823   8.321   6.520   4.859
10627TIP3    H131824   8.307   6.608   4.825
10627TIP3    H231825   8.414   6.517   4.880
10628TIP3   OH231826   6.838   0.108   4.148
10628TIP3    H131827   6.899   0.082   4.079
10628TIP3    H231828   6.886   0.091   4.230
10629TIP3   OH231829   3.007   7.086   0.715
10629TIP3    H131830   3.001   7.130   0.630
10629TIP3    H231831   2.917   7.059   0.734
10630TIP3   OH231832   3.092   6.453   0.163
10630TIP3    H131833   3.024   6.399   0.122
10630TIP3    H231834   3.120   6.402   0.240
10631TIP3   OH231835   1.834   6.660   2.322
10631TIP3    H131836   1.896   6.617   2.382
10631TIP3    H231837   1.793   6.728   2.375
10632TIP3   OH231838   6.732   4.196   4.707
10632TIP3    H131839   6.812   4.157   4.742
10632TIP3    H231840   6.719   4.276   4.758
10633TIP3   OH231841   0.382   2.143   3.662
10633TIP3    H131842   0.441   2.089   3.610
10633TIP3    H231843   0.307   2.087   3.681
10634TIP3   OH231844   7.388   6.708   5.156
10634TIP3    H131845   7.444   6.634   5.180
10634TIP3    H231846   7.373   6.755   5.239
10635TIP3   OH231847   7.535   6.908   5.294
10635TIP3    H131848   7.484   6.930   5.216
10635TIP3    H231849   7.550   6.992   5.338
10636TIP3   OH231850   0.016   3.712   3.554
10636TIP3    H131851   0.037   3.803   3.576
10636TIP3    H231852   0.009   3.668   3.638
10637TIP3   OH231853   8.071   3.682   4.747
10637TIP3    H131854   8.078   3.603   4.695
10637TIP3    H231855   8.026   3.654   4.827
10638TIP3   OH231856   8.063   6.083   6.267
10638TIP3    H131857   8.096   6.151   6.326
10638TIP3    H231858   8.069   6.123   6.180
10639TIP3   OH231859   7.434   2.267   0.138
10639TIP3    H131860   7.354   2.314   0.114
10639TIP3    H231861   7.413   2.226   0.222
10640TIP3   OH231862   3.205   3.071   4.817
10640TIP3    H131863   3.207   3.107   4.906
10640TIP3    H231864   3.125   3.107   4.778
10641TIP3   OH231865   2.435   5.728   1.806
10641TIP3    H131866   2.460   5.635   1.812
10641TIP3    H231867   2.368   5.729   1.738
10642TIP3   OH231868   7.192   5.053   5.468
10642TIP3    H131869   7.209   4.966   5.502
10642TIP3    H231870   7.211   5.047   5.374
10643TIP3   OH231871   6.330   7.546   6.213
10643TIP3    H131872   6.333   7.451   6.200
10643TIP3    H231873   6.398   7.562   6.279
10644TIP3   OH231874   2.600   7.412   5.184
10644TIP3    H131875   2.511   7.380   5.174
10644TIP3    H231876   2.613   7.473   5.111
10645TIP3   OH231877   6.683   2.972   1.292
10645TIP3    H131878   6.654   3.063   1.305
10645TIP3    H231879   6.672   2.931   1.378
10646TIP3   OH231880   0.704   1.348   5.373
10646TIP3    H131881   0.745   1.277   5.325
10646TIP3    H231882   0.683   1.413   5.306
10647TIP3   OH231883   2.155   4.185   5.947
10647TIP3    H131884   2.085   4.240   5.910
10647TIP3    H231885   2.108   4.112   5.987
10648TIP3   OH231886   2.157   3.609   1.620
10648TIP3    H131887   2.172   3.702   1.602
10648TIP3    H231888   2.106   3.577   1.546
10649TIP3   OH231889   6.908   0.280   0.171
10649TIP3    H131890   6.819   0.286   0.206
10649TIP3    H231891   6.896   0.253   0.080
10650TIP3   OH231892   7.354   3.316   2.925
10650TIP3    H131893   7.271   3.309   2.876
10650TIP3    H231894   7.360   3.408   2.949
10651TIP3   OH231895   6.723   6.852   2.676
10651TIP3    H131896   6.665   6.819   2.607
10651TIP3    H231897   6.810   6.818   2.653
10652TIP3   OH231898   5.405   4.067   3.560
10652TIP3    H131899   5.350   4.027   3.493
10652TIP3    H231900   5.476   4.108   3.510
10653TIP3   OH231901   2.410   0.813   2.135
10653TIP3    H131902   2.355   0.872   2.188
10653TIP3    H231903   2.487   0.796   2.190
10654TIP3   OH231904   7.216   4.056   1.899
10654TIP3    H131905   7.243   3.976   1.944
10654TIP3    H231906   7.197   4.118   1.969
10655TIP3   OH231907   1.328   1.669   4.266
10655TIP3    H131908   1.242   1.708   4.248
10655TIP3    H231909   1.378   1.739   4.307
10656TIP3   OH231910   2.752   4.086   0.363
10656TIP3    H131911   2.805   4.110   0.287
10656TIP3    H231912   2.665   4.070   0.328
10657TIP3   OH231913   6.499   2.709   3.684
10657TIP3    H131914   6.507   2.651   3.608
10657TIP3    H231915   6.582   2.758   3.684
10658TIP3   OH231916   5.038   5.644   6.414
10658TIP3    H131917   5.120   5.622   6.369
10658TIP3    H231918   5.064   5.661   6.504
10659TIP3   OH231919   4.168   7.763   5.984
10659TIP3    H131920   4.252   7.718   5.983
10659TIP3    H231921   4.190   7.856   5.979
10660TIP3   OH231922   0.535   4.885   4.498
10660TIP3    H131923   0.577   4.971   4.498
10660TIP3    H231924   0.505   4.872   4.408
10661TIP3   OH231925   0.199   2.924   2.489
10661TIP3    H131926   0.262   2.880   2.432
10661TIP3    H231927   0.186   2.864   2.562
10662TIP3   OH231928   6.904   4.441   2.411
10662TIP3    H131929   6.937   4.499   2.479
10662TIP3    H231930   6.910   4.492   2.330
10663TIP3   OH231931   7.429   2.719   5.987
10663TIP3    H131932   7.454   2.808   5.963
10663TIP3    H231933   7.386   2.684   5.909
10664TIP3   OH231934   4.612   0.864   1.068
10664TIP3    H131935   4.539   0.874   1.007
10664TIP3    H231936   4.690   0.878   1.013
10665TIP3   OH231937   1.596   1.540   0.399
10665TIP3    H131938   1.574   1.482   0.472
10665TIP3    H231939   1.515   1.544   0.347
10666TIP3   OH231940   0.284   0.486   4.753
10666TIP3    H131941   0.327   0.461   4.672
10666TIP3    H231942   0.193   0.501   4.729
10667TIP3   OH231943   3.265   6.120   4.425
10667TIP3    H131944   3.171   6.115   4.409
10667TIP3    H231945   3.293   6.202   4.384
10668TIP3   OH231946   0.096   1.635   2.861
10668TIP3    H131947   0.184   1.667   2.879
10668TIP3    H231948   0.109   1.559   2.805
10669TIP3   OH231949   7.789   6.395   2.220
10669TIP3    H131950   7.852   6.324   2.205
10669TIP3    H231951   7.815   6.464   2.160
10670TIP3   OH231952   7.651   7.567   4.524
10670TIP3    H131953   7.578   7.515   4.490
10670TIP3    H231954   7.617   7.656   4.530
10671TIP3   OH231955   0.788   6.813   3.163
10671TIP3    H131956   0.723   6.781   3.100
10671TIP3    H231957   0.871   6.778   3.131
10672TIP3   OH231958   6.386   4.036   4.023
10672TIP3    H131959   6.347   4.011   3.939
10672TIP3    H231960   6.468   3.987   4.027
10673TIP3   OH231961   5.322   0.818   2.064
10673TIP3    H131962   5.371   0.736   2.065
10673TIP3    H231963   5.232   0.792   2.043
10674TIP3   OH231964   4.605   3.219   3.950
10674TIP3    H131965   4.608   3.124   3.938
10674TIP3    H231966   4.557   3.250   3.873
10675TIP3   OH231967   6.017   0.696   1.934
10675TIP3    H131968   5.958   0.758   1.891
10675TIP3    H231969   6.101   0.710   1.891
10676TIP3   OH231970   3.526   2.691   1.364
10676TIP3    H131971   3.514   2.784   1.345
10676TIP3    H231972   3.453   2.669   1.421
10677TIP3   OH231973   0.742   3.447   1.859
10677TIP3    H131974   0.701   3.495   1.787
10677TIP3    H231975   0.668   3.407   1.906
10678TIP3   OH231976   7.454   6.054   5.208
10678TIP3    H131977   7.490   5.965   5.204
10678TIP3    H231978   7.370   6.043   5.254
10679TIP3   OH231979   5.375   0.613   3.573
10679TIP3    H131980   5.424   0.657   3.503
10679TIP3    H231981   5.305   0.567   3.527
10680TIP3   OH231982   6.259   4.758   2.436
10680TIP3    H131983   6.295   4.695   2.498
10680TIP3    H231984   6.248   4.707   2.355
10681TIP3   OH231985   4.561   0.216   4.049
10681TIP3    H131986   4.505   0.268   3.992
10681TIP3    H231987   4.504   0.145   4.080
10682TIP3   OH231988   0.100   7.205   3.577
10682TIP3    H131989   0.094   7.112   3.555
10682TIP3    H231990   0.009   7.235   3.575
10683TIP3   OH231991   8.171   5.650   5.694
10683TIP3    H131992   8.107   5.589   5.729
10683TIP3    H231993   8.122   5.731   5.679
10684TIP3   OH231994   0.821   6.135   2.613
10684TIP3    H131995   0.884   6.080   2.566
10684TIP3    H231996   0.756   6.158   2.547
10685TIP3   OH231997   2.792   5.966   5.552
10685TIP3    H131998   2.730   5.894   5.545
10685TIP3    H231999   2.865   5.940   5.495
10686TIP3   OH232000   4.731   5.980   1.423
10686TIP3    H132001   4.724   5.918   1.351
10686TIP3    H232002   4.825   5.999   1.430
10687TIP3   OH232003   0.760   2.954   2.358
10687TIP3    H132004   0.709   3.003   2.422
10687TIP3    H232005   0.697   2.930   2.290
10688TIP3   OH232006   3.755   2.651   2.168
10688TIP3    H132007   3.719   2.734   2.136
10688TIP3    H232008   3.689   2.586   2.146
10689TIP3   OH232009   0.248   0.243   0.683
10689TIP3    H132010   0.264   0.221   0.775
10689TIP3    H232011   0.165   0.291   0.683
10690TIP3   OH232012   5.014   5.811   5.005
10690TIP3    H132013   4.920   5.828   5.018
10690TIP3    H232014   5.017   5.720   4.975
10691TIP3   OH232015   7.732   0.528   6.409
10691TIP3    H132016   7.795   0.556   6.476
10691TIP3    H232017   7.700   0.444   6.441
10692TIP3   OH232018   6.580   4.049   5.342
10692TIP3    H132019   6.604   4.016   5.255
10692TIP3    H232020   6.616   4.137   5.344
10693TIP3   OH232021   4.411   2.496   4.033
10693TIP3    H132022   4.331   2.527   3.991
10693TIP3    H232023   4.471   2.570   4.028
10694TIP3   OH232024   6.984   7.152   3.569
10694TIP3    H132025   6.932   7.221   3.529
10694TIP3    H232026   6.924   7.079   3.578
10695TIP3   OH232027   1.383   2.651   6.300
10695TIP3    H132028   1.408   2.721   6.239
10695TIP3    H232029   1.336   2.696   6.370
10696TIP3   OH232030   3.356   3.983   2.125
10696TIP3    H132031   3.313   3.926   2.061
10696TIP3    H232032   3.286   4.038   2.159
10697TIP3   OH232033   2.131   3.903   5.460
10697TIP3    H132034   2.168   3.968   5.519
10697TIP3    H232035   2.119   3.949   5.377
10698TIP3   OH232036   6.000   0.678   5.614
10698TIP3    H132037   6.074   0.705   5.560
10698TIP3    H232038   6.036   0.671   5.703
10699TIP3   OH232039   0.482   5.427   1.874
10699TIP3    H132040   0.547   5.359   1.853
10699TIP3    H232041   0.417   5.382   1.929
10700TIP3   OH232042   4.530   2.411   5.816
10700TIP3    H132043   4.487   2.328   5.835
10700TIP3    H232044   4.498   2.436   5.729
10701TIP3   OH232045   0.888   4.886   4.271
10701TIP3    H132046   0.807   4.847   4.240
10701TIP3    H232047   0.957   4.835   4.230
10702TIP3   OH232048   1.401   1.778   5.072
10702TIP3    H132049   1.491   1.810   5.067
10702TIP3    H232050   1.395   1.710   5.005
10703TIP3   OH232051   6.702   6.441   0.297
10703TIP3    H132052   6.755   6.491   0.358
10703TIP3    H232053   6.720   6.349   0.318
10704TIP3   OH232054   6.480   1.704   2.524
10704TIP3    H132055   6.443   1.636   2.468
10704TIP3    H232056   6.405   1.756   2.551
10705TIP3   OH232057   7.211   2.571   2.866
10705TIP3    H132058   7.247   2.566   2.777
10705TIP3    H232059   7.248   2.651   2.902
10706TIP3   OH232060   4.455   2.011   0.912
10706TIP3    H132061   4.502   2.062   0.845
10706TIP3    H232062   4.382   1.971   0.864
10707TIP3   OH232063   0.960   7.107   3.082
10707TIP3    H132064   1.005   7.168   3.140
10707TIP3    H232065   0.974   7.021   3.122
10708TIP3   OH232066   2.265   5.289   3.072
10708TIP3    H132067   2.244   5.226   3.141
10708TIP3    H232068   2.349   5.326   3.099
10709TIP3   OH232069   0.037   2.209   4.440
10709TIP3    H132070  -0.028   2.274   4.469
10709TIP3    H232071   0.097   2.201   4.513
10710TIP3   OH232072   1.325   1.525   0.267
10710TIP3    H132073   1.238   1.489   0.256
10710TIP3    H232074   1.321   1.611   0.224
10711TIP3   OH232075   8.141   7.065   4.962
10711TIP3    H132076   8.217   7.107   4.922
10711TIP3    H232077   8.122   7.119   5.039
10712TIP3   OH232078   5.806   4.289   6.563
10712TIP3    H132079   5.860   4.358   6.599
10712TIP3    H232080   5.807   4.304   6.468
10713TIP3   OH232081   3.762   5.238   4.359
10713TIP3    H132082   3.828   5.171   4.379
10713TIP3    H232083   3.783   5.310   4.419
10714TIP3   OH232084   2.480   4.818   3.280
10714TIP3    H132085   2.456   4.728   3.257
10714TIP3    H232086   2.573   4.813   3.300
10715TIP3   OH232087   8.368   1.209   6.002
10715TIP3    H132088   8.331   1.295   5.987
10715TIP3    H232089   8.352   1.192   6.095
10716TIP3   OH232090   7.835   1.616   2.430
10716TIP3    H132091   7.913   1.561   2.441
10716TIP3    H232092   7.864   1.687   2.373
10717TIP3   OH232093   5.717   4.971   3.786
10717TIP3    H132094   5.719   5.041   3.852
10717TIP3    H232095   5.644   4.994   3.728
10718TIP3   OH232096   6.304   7.114   4.005
10718TIP3    H132097   6.264   7.083   3.924
10718TIP3    H232098   6.356   7.039   4.036
10719TIP3   OH232099   5.540   4.227   6.230
10719TIP3    H132100   5.450   4.233   6.261
10719TIP3    H232101   5.535   4.176   6.150
10720TIP3   OH232102   0.672   6.219   2.400
10720TIP3    H132103   0.739   6.188   2.339
10720TIP3    H232104   0.611   6.269   2.345
10721TIP3   OH232105   7.227   2.539   3.737
10721TIP3    H132106   7.309   2.531   3.689
10721TIP3    H232107   7.164   2.568   3.672
10722TIP3   OH232108   1.628   0.943   5.141
10722TIP3    H132109   1.575   0.889   5.199
10722TIP3    H232110   1.565   1.001   5.097
10723TIP3   OH232111   2.184   1.930   3.895
10723TIP3    H132112   2.189   1.872   3.972
10723TIP3    H232113   2.122   1.886   3.837
10724TIP3   OH232114   5.960   2.708   2.692
10724TIP3    H132115   6.046   2.737   2.661
10724TIP3    H232116   5.898   2.745   2.629
10725TIP3   OH232117   4.994   2.274   1.265
10725TIP3    H132118   5.036   2.337   1.206
10725TIP3    H232119   4.910   2.255   1.224
10726TIP3   OH232120   4.030   7.180   5.591
10726TIP3    H132121   4.116   7.199   5.554
10726TIP3    H232122   4.002   7.099   5.549
10727TIP3   OH232123   4.598   4.381   5.109
10727TIP3    H132124   4.692   4.383   5.126
10727TIP3    H232125   4.560   4.339   5.186
10728TIP3   OH232126   0.214   1.974   3.771
10728TIP3    H132127   0.190   1.986   3.862
10728TIP3    H232128   0.195   1.882   3.753
10729TIP3   OH232129   6.479   3.962   3.420
10729TIP3    H132130   6.534   3.953   3.497
10729TIP3    H232131   6.539   3.991   3.351
10730TIP3   OH232132   7.910   1.449   3.773
10730TIP3    H132133   7.860   1.486   3.845
10730TIP3    H232134   7.992   1.499   3.772
10731TIP3   OH232135   6.897   0.422   0.857
10731TIP3    H132136   6.966   0.385   0.912
10731TIP3    H232137   6.942   0.459   0.782
10732TIP3   OH232138   7.087   0.314   1.008
10732TIP3    H132139   7.123   0.239   1.054
10732TIP3    H232140   7.147   0.386   1.028
10733TIP3   OH232141   3.903   1.140   2.894
10733TIP3    H132142   3.921   1.046   2.898
10733TIP3    H232143   3.972   1.175   2.838
10734TIP3   OH232144   8.139   4.125   5.192
10734TIP3    H132145   8.227   4.148   5.161
10734TIP3    H232146   8.109   4.202   5.240
10735TIP3   OH232147   0.834   5.546   2.039
10735TIP3    H132148   0.831   5.641   2.048
10735TIP3    H232149   0.774   5.513   2.106
10736TIP3   OH232150   0.308   1.164   6.227
10736TIP3    H132151   0.360   1.237   6.260
10736TIP3    H232152   0.254   1.202   6.157
10737TIP3   OH232153   1.845   7.512   2.974
10737TIP3    H132154   1.888   7.433   2.942
10737TIP3    H232155   1.817   7.558   2.895
10738TIP3   OH232156   0.667   1.374   2.033
10738TIP3    H132157   0.602   1.341   2.094
10738TIP3    H232158   0.632   1.458   2.003
10739TIP3   OH232159   7.973   6.969   2.532
10739TIP3    H132160   8.010   7.022   2.603
10739TIP3    H232161   7.899   6.924   2.573
10740TIP3   OH232162   3.378   6.823   2.388
10740TIP3    H132163   3.296   6.774   2.400
10740TIP3    H232164   3.354   6.914   2.401
10741TIP3   OH232165   0.082   1.413   5.640
10741TIP3    H132166   0.046   1.427   5.728
10741TIP3    H232167   0.060   1.493   5.592
10742TIP3   OH232168   1.032   7.316   0.925
10742TIP3    H132169   0.983   7.235   0.934
10742TIP3    H232170   1.006   7.369   1.001
10743TIP3   OH232171   0.809   2.508   0.845
10743TIP3    H132172   0.719   2.526   0.818
10743TIP3    H232173   0.800   2.467   0.931
10744TIP3   OH232174   5.325   5.382   1.032
10744TIP3    H132175   5.411   5.376   1.075
10744TIP3    H232176   5.263   5.351   1.098
10745TIP3   OH232177   4.983   4.871   2.875
10745TIP3    H132178   5.068   4.888   2.916
10745TIP3    H232179   5.005   4.827   2.793
10746TIP3   OH232180   4.556   2.297   3.951
10746TIP3    H132181   4.491   2.350   3.997
10746TIP3    H232182   4.561   2.216   4.002
10747TIP3   OH232183   0.994   2.397   6.583
10747TIP3    H132184   0.942   2.396   6.664
10747TIP3    H232185   0.930   2.409   6.513
10748TIP3   OH232186   1.305   5.951   5.299
10748TIP3    H132187   1.377   5.950   5.362
10748TIP3    H232188   1.297   6.043   5.273
10749TIP3   OH232189   5.325   6.395   1.879
10749TIP3    H132190   5.262   6.431   1.941
10749TIP3    H232191   5.407   6.441   1.899
10750TIP3   OH232192   7.164   0.851   2.173
10750TIP3    H132193   7.257   0.873   2.186
10750TIP3    H232194   7.140   0.805   2.253
10751TIP3   OH232195   2.864   7.032   5.110
10751TIP3    H132196   2.873   6.937   5.104
10751TIP3    H232197   2.917   7.066   5.037
10752TIP3   OH232198   4.595   1.225   2.576
10752TIP3    H132199   4.505   1.194   2.566
10752TIP3    H232200   4.648   1.146   2.569
10753TIP3   OH232201   6.008   6.191   2.476
10753TIP3    H132202   5.923   6.230   2.497
10753TIP3    H232203   5.987   6.105   2.440
10754TIP3   OH232204   5.661   5.881   4.668
10754TIP3    H132205   5.578   5.852   4.705
10754TIP3    H232206   5.695   5.805   4.621
10755TIP3   OH232207   7.564   2.398   4.637
10755TIP3    H132208   7.614   2.347   4.701
10755TIP3    H232209   7.630   2.444   4.585
10756TIP3   OH232210   2.132   5.863   5.685
10756TIP3    H132211   2.188   5.887   5.759
10756TIP3    H232212   2.075   5.939   5.672
10757TIP3   OH232213   7.399   6.657   0.252
10757TIP3    H132214   7.494   6.643   0.251
10757TIP3    H232215   7.376   6.673   0.160
10758TIP3   OH232216   6.909   7.526   5.184
10758TIP3    H132217   6.971   7.470   5.137
10758TIP3    H232218   6.897   7.483   5.269
10759TIP3   OH232219   0.629   7.764   0.693
10759TIP3    H132220   0.654   7.770   0.785
10759TIP3    H232221   0.582   7.680   0.686
10760TIP3   OH232222   2.001   4.192   3.068
10760TIP3    H132223   2.014   4.128   3.137
10760TIP3    H232224   1.906   4.208   3.067
10761TIP3   OH232225   5.940   0.960   3.515
10761TIP3    H132226   5.962   0.939   3.424
10761TIP3    H232227   6.016   1.008   3.548
10762TIP3   OH232228   4.363   3.999   5.560
10762TIP3    H132229   4.394   3.987   5.650
10762TIP3    H232230   4.410   3.932   5.510
10763TIP3   OH232231   3.994   6.321   1.045
10763TIP3    H132232   3.973   6.229   1.057
10763TIP3    H232233   4.075   6.334   1.094
10764TIP3   OH232234   3.620   3.821   0.109
10764TIP3    H132235   3.656   3.756   0.049
10764TIP3    H232236   3.689   3.835   0.174
10765TIP3   OH232237   3.907   2.557   1.321
10765TIP3    H132238   4.002   2.561   1.319
10765TIP3    H232239   3.879   2.649   1.324
10766TIP3   OH232240   6.500   7.314   2.093
10766TIP3    H132241   6.584   7.340   2.133
10766TIP3    H232242   6.435   7.371   2.135
10767TIP3   OH232243   5.423   5.663   2.516
10767TIP3    H132244   5.518   5.656   2.503
10767TIP3    H232245   5.407   5.757   2.526
10768TIP3   OH232246   5.401   6.185   6.754
10768TIP3    H132247   5.432   6.109   6.803
10768TIP3    H232248   5.371   6.148   6.670
10769TIP3   OH232249   0.419   2.286   5.227
10769TIP3    H132250   0.324   2.303   5.231
10769TIP3    H232251   0.447   2.326   5.145
10770TIP3   OH232252   7.832   7.055   3.894
10770TIP3    H132253   7.833   6.960   3.907
10770TIP3    H232254   7.783   7.067   3.812
10771TIP3   OH232255   5.044   3.336   4.940
10771TIP3    H132256   5.060   3.370   5.028
10771TIP3    H232257   5.055   3.413   4.883
10772TIP3   OH232258   2.364   3.618   0.536
10772TIP3    H132259   2.431   3.687   0.531
10772TIP3    H232260   2.349   3.606   0.630
10773TIP3   OH232261   0.325   3.041   1.702
10773TIP3    H132262   0.316   3.115   1.762
10773TIP3    H232263   0.413   3.008   1.718
10774TIP3   OH232264   4.033   6.530   2.307
10774TIP3    H132265   3.961   6.471   2.330
10774TIP3    H232266   4.100   6.472   2.271
10775TIP3   OH232267   7.943   0.763   5.512
10775TIP3    H132268   7.849   0.747   5.515
10775TIP3    H232269   7.974   0.740   5.600
10776TIP3   OH232270   2.431   3.033   2.661
10776TIP3    H132271   2.502   3.088   2.628
10776TIP3    H232272   2.461   2.944   2.648
10777TIP3   OH232273   3.076   4.419   1.637
10777TIP3    H132274   3.061   4.513   1.640
10777TIP3    H232275   3.007   4.381   1.692
10778TIP3   OH232276   8.072   1.239   1.745
10778TIP3    H132277   8.148   1.242   1.803
10778TIP3    H232278   8.110   1.233   1.657
10779TIP3   OH232279   4.514   3.685   4.234
10779TIP3    H132280   4.515   3.764   4.181
10779TIP3    H232281   4.600   3.646   4.221
10780TIP3   OH232282   6.029   5.126   0.037
10780TIP3    H132283   6.117   5.162   0.026
10780TIP3    H232284   5.978   5.160  -0.036
10781TIP3   OH232285   3.002   4.594   3.905
10781TIP3    H132286   2.992   4.501   3.881
10781TIP3    H232287   2.967   4.599   3.994
10782TIP3   OH232288   2.904   1.345   0.621
10782TIP3    H132289   2.951   1.371   0.542
10782TIP3    H232290   2.830   1.293   0.590
10783TIP3   OH232291   4.266   1.373   6.108
10783TIP3    H132292   4.196   1.356   6.171
10783TIP3    H232293   4.248   1.313   6.036
10784TIP3   OH232294   2.371   4.312   5.183
10784TIP3    H132295   2.398   4.244   5.121
10784TIP3    H232296   2.403   4.394   5.143
10785TIP3   OH232297   0.989   6.160   6.563
10785TIP3    H132298   0.976   6.065   6.558
10785TIP3    H232299   0.952   6.194   6.482
10786TIP3   OH232300   6.282   4.973   2.208
10786TIP3    H132301   6.279   4.898   2.267
10786TIP3    H232302   6.229   5.040   2.251
10787TIP3   OH232303   7.460   6.877   3.518
10787TIP3    H132304   7.454   6.790   3.478
10787TIP3    H232305   7.440   6.937   3.447
10788TIP3   OH232306   0.495   5.567   2.575
10788TIP3    H132307   0.484   5.556   2.480
10788TIP3    H232308   0.567   5.509   2.598
10789TIP3   OH232309   4.075   7.026   4.078
10789TIP3    H132310   4.139   7.061   4.017
10789TIP3    H232311   4.061   6.936   4.049
10790TIP3   OH232312   7.430   5.499   3.409
10790TIP3    H132313   7.454   5.570   3.349
10790TIP3    H232314   7.418   5.423   3.353
10791TIP3   OH232315   3.084   0.160   4.962
10791TIP3    H132316   3.116   0.108   5.035
10791TIP3    H232317   3.052   0.095   4.899
10792TIP3   OH232318   8.069   1.554   1.398
10792TIP3    H132319   7.989   1.524   1.440
10792TIP3    H232320   8.069   1.649   1.411
10793TIP3   OH232321   1.010   3.127   1.373
10793TIP3    H132322   1.066   3.096   1.302
10793TIP3    H232323   0.929   3.077   1.363
10794TIP3   OH232324   0.234   5.391   2.012
10794TIP3    H132325   0.162   5.327   2.017
10794TIP3    H232326   0.205   5.462   2.068
10795TIP3   OH232327   1.674   5.485   2.218
10795TIP3    H132328   1.630   5.485   2.302
10795TIP3    H232329   1.766   5.502   2.239
10796TIP3   OH232330   6.057   5.819   5.827
10796TIP3    H132331   6.091   5.733   5.851
10796TIP3    H232332   5.963   5.807   5.820
10797TIP3   OH232333   2.999   5.060   2.411
10797TIP3    H132334   2.989   5.104   2.326
10797TIP3    H232335   2.913   5.020   2.427
10798TIP3   OH232336   5.049   5.842   5.599
10798TIP3    H132337   5.115   5.900   5.637
10798TIP3    H232338   4.982   5.834   5.666
10799TIP3   OH232339   8.195   1.531   6.719
10799TIP3    H132340   8.261   1.591   6.756
10799TIP3    H232341   8.239   1.447   6.715
10800TIP3   OH232342   7.183   6.536   0.922
10800TIP3    H132343   7.171   6.602   0.854
10800TIP3    H232344   7.118   6.560   0.989
10801TIP3   OH232345   6.271   5.638   4.180
10801TIP3    H132346   6.285   5.552   4.221
10801TIP3    H232347   6.360   5.673   4.167
10802TIP3   OH232348   2.574   6.272   3.322
10802TIP3    H132349   2.511   6.336   3.357
10802TIP3    H232350   2.656   6.292   3.367
10803TIP3   OH232351   3.705   4.512   4.924
10803TIP3    H132352   3.686   4.456   4.999
10803TIP3    H232353   3.632   4.573   4.921
10804TIP3   OH232354   4.302   7.262   0.178
10804TIP3    H132355   4.259   7.256   0.264
10804TIP3    H232356   4.380   7.207   0.187
10805TIP3   OH232357   6.061   3.410   5.398
10805TIP3    H132358   6.087   3.328   5.356
10805TIP3    H232359   6.093   3.402   5.488
10806TIP3   OH232360   1.195   2.068   6.434
10806TIP3    H132361   1.146   2.132   6.383
10806TIP3    H232362   1.151   1.985   6.416
10807TIP3   OH232363   8.139   7.412   6.503
10807TIP3    H132364   8.060   7.398   6.451
10807TIP3    H232365   8.119   7.373   6.588
10808TIP3   OH232366   5.850   4.250   2.954
10808TIP3    H132367   5.930   4.213   2.917
10808TIP3    H232368   5.816   4.307   2.886
10809TIP3   OH232369   2.526   2.185   5.524
10809TIP3    H132370   2.509   2.097   5.489
10809TIP3    H232371   2.506   2.178   5.617
10810TIP3   OH232372   2.082   3.919   3.692
10810TIP3    H132373   2.008   3.970   3.659
10810TIP3    H232374   2.143   3.984   3.727
10811TIP3   OH232375   6.303   3.828   2.880
10811TIP3    H132376   6.213   3.853   2.860
10811TIP3    H232377   6.356   3.874   2.815
10812TIP3   OH232378   7.672   1.348   0.042
10812TIP3    H132379   7.677   1.392  -0.042
10812TIP3    H232380   7.604   1.282   0.031
10813TIP3   OH232381   5.190   6.489   1.564
10813TIP3    H132382   5.237   6.547   1.505
10813TIP3    H232383   5.258   6.444   1.614
10814TIP3   OH232384   3.397   5.038   4.023
10814TIP3    H132385   3.383   5.098   3.949
10814TIP3    H232386   3.466   4.979   3.993
10815TIP3   OH232387   3.313   7.726   5.423
10815TIP3    H132388   3.253   7.686   5.486
10815TIP3    H232389   3.256   7.773   5.362
10816TIP3   OH232390   6.680   5.042   6.184
10816TIP3    H132391   6.712   5.008   6.268
10816TIP3    H232392   6.742   5.111   6.160
10817TIP3   OH232393  -0.014   5.606   3.161
10817TIP3    H132394  -0.071   5.634   3.232
10817TIP3    H232395  -0.017   5.510   3.165
10818TIP3   OH232396   4.685   7.266   5.609
10818TIP3    H132397   4.661   7.351   5.572
10818TIP3    H232398   4.612   7.209   5.584
10819TIP3   OH232399   1.479   3.614   5.865
10819TIP3    H132400   1.411   3.678   5.886
10819TIP3    H232401   1.431   3.537   5.834
10820TIP3   OH232402   4.634   1.621   1.737
10820TIP3    H132403   4.714   1.670   1.716
10820TIP3    H232404   4.574   1.640   1.664
10821TIP3   OH232405   5.475   5.696   1.693
10821TIP3    H132406   5.431   5.774   1.659
10821TIP3    H232407   5.428   5.674   1.773
10822TIP3   OH232408   7.508   4.692   0.919
10822TIP3    H132409   7.589   4.743   0.929
10822TIP3    H232410   7.511   4.659   0.830
10823TIP3   OH232411   1.194   0.901   4.997
10823TIP3    H132412   1.220   0.896   5.089
10823TIP3    H232413   1.175   0.994   4.983
10824TIP3   OH232414   6.020   7.074   4.095
10824TIP3    H132415   6.013   7.039   4.184
10824TIP3    H232416   6.111   7.104   4.088
10825TIP3   OH232417   7.306   1.200   0.717
10825TIP3    H132418   7.295   1.294   0.735
10825TIP3    H232419   7.311   1.195   0.621
10826TIP3   OH232420   1.361   7.428   6.760
10826TIP3    H132421   1.456   7.437   6.767
10826TIP3    H232422   1.349   7.367   6.686
10827TIP3   OH232423   5.743   2.313   5.230
10827TIP3    H132424   5.716   2.401   5.206
10827TIP3    H232425   5.713   2.257   5.159
10828TIP3   OH232426   4.231   2.029   4.041
10828TIP3    H132427   4.211   1.949   4.090
10828TIP3    H232428   4.258   1.998   3.955
10829TIP3   OH232429   3.362   5.958   5.032
10829TIP3    H132430   3.385   5.915   4.949
10829TIP3    H232431   3.383   6.050   5.017
10830TIP3   OH232432   5.633   3.091   3.468
10830TIP3    H132433   5.568   3.031   3.505
10830TIP3    H232434   5.612   3.176   3.505
10831TIP3   OH232435   1.663   7.722   0.454
10831TIP3    H132436   1.612   7.798   0.424
10831TIP3    H232437   1.663   7.729   0.549
10832TIP3   OH232438   2.851   0.239   5.812
10832TIP3    H132439   2.817   0.164   5.861
10832TIP3    H232440   2.859   0.309   5.877
10833TIP3   OH232441   3.171   0.402   3.622
10833TIP3    H132442   3.242   0.343   3.598
10833TIP3    H232443   3.091   0.352   3.605
10834TIP3   OH232444   2.397   7.179   1.424
10834TIP3    H132445   2.423   7.151   1.336
10834TIP3    H232446   2.477   7.169   1.476
10835TIP3   OH232447   6.289   4.144   5.687
10835TIP3    H132448   6.275   4.126   5.594
10835TIP3    H232449   6.380   4.173   5.693
10836TIP3   OH232450   1.481   6.371   4.597
10836TIP3    H132451   1.444   6.284   4.579
10836TIP3    H232452   1.409   6.419   4.637
10837TIP3   OH232453   4.280   7.495   4.026
10837TIP3    H132454   4.285   7.535   3.940
10837TIP3    H232455   4.314   7.562   4.086
10838TIP3   OH232456   0.977   3.260   0.040
10838TIP3    H132457   0.932   3.256  -0.044
10838TIP3    H232458   1.068   3.239   0.020
10839TIP3   OH232459   6.058   3.728   0.705
10839TIP3    H132460   6.113   3.800   0.736
10839TIP3    H232461   6.001   3.707   0.778
10840TIP3   OH232462   3.736   7.159   0.223
10840TIP3    H132463   3.700   7.141   0.310
10840TIP3    H232464   3.756   7.253   0.224
10841TIP3   OH232465   2.062   6.440   4.288
10841TIP3    H132466   2.112   6.454   4.368
10841TIP3    H232467   2.102   6.363   4.247
10842TIP3   OH232468   6.032   2.600   5.421
10842TIP3    H132469   6.051   2.564   5.507
10842TIP3    H232470   5.956   2.657   5.434
10843TIP3   OH232471   8.294   0.807   2.549
10843TIP3    H132472   8.256   0.721   2.569
10843TIP3    H232473   8.222   0.855   2.509
10844TIP3   OH232474   7.800   7.654   3.769
10844TIP3    H132475   7.778   7.602   3.846
10844TIP3    H232476   7.717   7.694   3.741
10845TIP3   OH232477   4.161   2.410   5.035
10845TIP3    H132478   4.236   2.371   4.990
10845TIP3    H232479   4.156   2.499   4.999
10846TIP3   OH232480   5.432   3.053   0.352
10846TIP3    H132481   5.373   3.105   0.298
10846TIP3    H232482   5.424   2.964   0.317
10847TIP3   OH232483   6.981   6.315   6.473
10847TIP3    H132484   7.037   6.362   6.411
10847TIP3    H232485   6.893   6.347   6.453
10848TIP3   OH232486   4.371   5.227   3.810
10848TIP3    H132487   4.339   5.140   3.785
10848TIP3    H232488   4.292   5.281   3.813
10849TIP3   OH232489   0.335   5.005   2.045
10849TIP3    H132490   0.405   5.062   2.014
10849TIP3    H232491   0.315   5.037   2.133
10850TIP3   OH232492   6.900   2.172   2.994
10850TIP3    H132493   6.917   2.078   2.983
10850TIP3    H232494   6.987   2.211   3.002
10851TIP3   OH232495   3.829   6.891   2.658
10851TIP3    H132496   3.741   6.862   2.633
10851TIP3    H232497   3.886   6.818   2.634
10852TIP3   OH232498   0.945   4.143   3.152
10852TIP3    H132499   0.904   4.070   3.198
10852TIP3    H232500   1.033   4.149   3.188
10853TIP3   OH232501   1.311   4.564   1.869
10853TIP3    H132502   1.327   4.658   1.864
10853TIP3    H232503   1.391   4.528   1.909
10854TIP3   OH232504   6.065   4.369   0.960
10854TIP3    H132505   6.103   4.425   0.892
10854TIP3    H232506   6.087   4.414   1.042
10855TIP3   OH232507   2.149   4.664   0.914
10855TIP3    H132508   2.187   4.751   0.902
10855TIP3    H232509   2.222   4.611   0.946
10856TIP3   OH232510   6.334   5.031   2.676
10856TIP3    H132511   6.398   4.966   2.646
10856TIP3    H232512   6.342   5.030   2.771
10857TIP3   OH232513   0.840   0.922   5.261
10857TIP3    H132514   0.856   0.975   5.183
10857TIP3    H232515   0.745   0.929   5.276
10858TIP3   OH232516   8.132   0.168   6.414
10858TIP3    H132517   8.162   0.187   6.503
10858TIP3    H232518   8.037   0.184   6.417
10859TIP3   OH232519   4.440   3.843   4.020
10859TIP3    H132520   4.457   3.936   4.005
10859TIP3    H232521   4.469   3.800   3.940
10860TIP3   OH232522   3.209   2.378   1.274
10860TIP3    H132523   3.150   2.303   1.274
10860TIP3    H232524   3.288   2.347   1.319
10861TIP3   OH232525   7.153   1.237   6.010
10861TIP3    H132526   7.226   1.205   6.064
10861TIP3    H232527   7.156   1.332   6.021
10862TIP3   OH232528   4.249   4.191   3.707
10862TIP3    H132529   4.203   4.108   3.698
10862TIP3    H232530   4.183   4.257   3.688
10863TIP3   OH232531   1.790   7.426   6.174
10863TIP3    H132532   1.719   7.362   6.181
10863TIP3    H232533   1.774   7.469   6.090
10864TIP3   OH232534   8.092   7.233   3.611
10864TIP3    H132535   8.048   7.196   3.534
10864TIP3    H232536   8.056   7.321   3.619
10865TIP3   OH232537   2.441   2.781   5.740
10865TIP3    H132538   2.366   2.742   5.697
10865TIP3    H232539   2.447   2.869   5.702
10866TIP3   OH232540   2.904   4.008   6.211
10866TIP3    H132541   2.914   4.035   6.119
10866TIP3    H232542   2.811   4.019   6.229
10867TIP3   OH232543   1.890   2.886   6.469
10867TIP3    H132544   1.864   2.799   6.438
10867TIP3    H232545   1.986   2.884   6.469
10868TIP3   OH232546   0.819   0.105   1.000
10868TIP3    H132547   0.910   0.131   1.018
10868TIP3    H232548   0.766   0.171   1.045
10869TIP3   OH232549   1.483   1.763   2.795
10869TIP3    H132550   1.553   1.715   2.750
10869TIP3    H232551   1.480   1.848   2.751
10870TIP3   OH232552   7.680   0.800   5.861
10870TIP3    H132553   7.643   0.711   5.862
10870TIP3    H232554   7.751   0.796   5.797
10871TIP3   OH232555   1.110   3.431   0.859
10871TIP3    H132556   1.141   3.345   0.834
10871TIP3    H232557   1.026   3.441   0.813
10872TIP3   OH232558   1.950   0.658   4.135
10872TIP3    H132559   2.011   0.642   4.206
10872TIP3    H232560   1.936   0.753   4.136
10873TIP3   OH232561   5.987   1.359   4.711
10873TIP3    H132562   6.082   1.370   4.705
10873TIP3    H232563   5.968   1.283   4.656
10874TIP3   OH232564   3.462   7.776   4.713
10874TIP3    H132565   3.486   7.721   4.638
10874TIP3    H232566   3.420   7.717   4.775
10875TIP3   OH232567   4.142   0.376   3.299
10875TIP3    H132568   4.134   0.469   3.275
10875TIP3    H232569   4.052   0.343   3.295
10876TIP3   OH232570   6.459   6.075   6.393
10876TIP3    H132571   6.484   5.989   6.358
10876TIP3    H232572   6.514   6.137   6.345
10877TIP3   OH232573   2.065   4.918   0.156
10877TIP3    H132574   2.157   4.893   0.167
10877TIP3    H232575   2.027   4.846   0.106
10878TIP3   OH232576   7.326   5.823   5.922
10878TIP3    H132577   7.420   5.835   5.905
10878TIP3    H232578   7.291   5.789   5.840
10879TIP3   OH232579   3.660   1.884   0.319
10879TIP3    H132580   3.602   1.839   0.381
10879TIP3    H232581   3.604   1.949   0.277
10880TIP3   OH232582   5.923   5.559   0.800
10880TIP3    H132583   5.917   5.583   0.893
10880TIP3    H232584   5.947   5.640   0.756
10881TIP3   OH232585   4.742   0.603   3.496
10881TIP3    H132586   4.735   0.526   3.440
10881TIP3    H232587   4.716   0.676   3.439
10882TIP3   OH232588   3.628   7.562   1.573
10882TIP3    H132589   3.594   7.602   1.653
10882TIP3    H232590   3.673   7.633   1.528
10883TIP3   OH232591   6.529   2.514   0.474
10883TIP3    H132592   6.621   2.521   0.499
10883TIP3    H232593   6.489   2.594   0.507
10884TIP3   OH232594   0.806   3.841   4.172
10884TIP3    H132595   0.764   3.757   4.151
10884TIP3    H232596   0.737   3.906   4.157
10885TIP3   OH232597   4.295   6.735   0.793
10885TIP3    H132598   4.249   6.653   0.782
10885TIP3    H232599   4.343   6.747   0.711
10886TIP3   OH232600   3.317   5.816   5.797
10886TIP3    H132601   3.266   5.885   5.755
10886TIP3    H232602   3.253   5.766   5.847
10887TIP3   OH232603   3.251   7.234   5.059
10887TIP3    H132604   3.213   7.167   5.003
10887TIP3    H232605   3.271   7.189   5.141
10888TIP3   OH232606   0.103   4.236   6.277
10888TIP3    H132607   0.125   4.266   6.189
10888TIP3    H232608   0.012   4.265   6.290
10889TIP3   OH232609   1.755   3.569   2.645
10889TIP3    H132610   1.794   3.482   2.636
10889TIP3    H232611   1.687   3.559   2.712
10890TIP3   OH232612   1.401   4.186   0.877
10890TIP3    H132613   1.318   4.141   0.862
10890TIP3    H232614   1.434   4.205   0.789
10891TIP3   OH232615   2.951   0.584   5.685
10891TIP3    H132616   2.964   0.633   5.604
10891TIP3    H232617   3.026   0.524   5.689
10892TIP3   OH232618   3.831   6.684   0.137
10892TIP3    H132619   3.849   6.776   0.115
10892TIP3    H232620   3.735   6.679   0.140
10893TIP3   OH232621   3.687   3.086   3.850
10893TIP3    H132622   3.591   3.088   3.854
10893TIP3    H232623   3.708   2.997   3.823
10894TIP3   OH232624   2.823   3.692   5.866
10894TIP3    H132625   2.763   3.767   5.861
10894TIP3    H232626   2.783   3.633   5.930
10895TIP3   OH232627   5.654   2.051   5.024
10895TIP3    H132628   5.600   2.001   5.084
10895TIP3    H232629   5.702   1.986   4.973
10896TIP3   OH232630   4.042   7.026   0.334
10896TIP3    H132631   4.114   6.963   0.328
10896TIP3    H232632   3.998   7.019   0.249
10897TIP3   OH232633   1.510   3.486   2.337
10897TIP3    H132634   1.517   3.444   2.251
10897TIP3    H232635   1.520   3.414   2.400
10898TIP3   OH232636   4.049   0.237   6.199
10898TIP3    H132637   4.129   0.210   6.153
10898TIP3    H232638   3.978   0.202   6.146
10899TIP3   OH232639   6.578   5.358   3.090
10899TIP3    H132640   6.505   5.416   3.071
10899TIP3    H232641   6.646   5.383   3.027
10900TIP3   OH232642   0.321   7.583   1.157
10900TIP3    H132643   0.265   7.653   1.189
10900TIP3    H232644   0.287   7.504   1.201
10901TIP3   OH232645   1.653   2.194   2.689
10901TIP3    H132646   1.748   2.204   2.682
10901TIP3    H232647   1.620   2.283   2.703
10902TIP3   OH232648  -0.021   0.976   5.855
10902TIP3    H132649   0.026   1.047   5.899
10902TIP3    H232650  -0.023   0.905   5.919
10903TIP3   OH232651   5.842   5.601   4.930
10903TIP3    H132652   5.809   5.683   4.966
10903TIP3    H232653   5.902   5.568   4.997
10904TIP3   OH232654   0.006   1.460   0.644
10904TIP3    H132655  -0.060   1.393   0.628
10904TIP3    H232656   0.039   1.442   0.732
10905TIP3   OH232657   5.198   1.843   3.125
10905TIP3    H132658   5.260   1.832   3.053
10905TIP3    H232659   5.135   1.773   3.113
10906TIP3   OH232660   7.829   5.780   6.275
10906TIP3    H132661   7.754   5.839   6.282
10906TIP3    H232662   7.793   5.700   6.235
10907TIP3   OH232663   4.255   6.188   5.307
10907TIP3    H132664   4.244   6.119   5.241
10907TIP3    H232665   4.173   6.237   5.305
10908TIP3   OH232666   3.412   1.365   4.540
10908TIP3    H132667   3.352   1.294   4.518
10908TIP3    H232668   3.413   1.421   4.463
10909TIP3   OH232669   2.493   7.521   6.393
10909TIP3    H132670   2.410   7.546   6.353
10909TIP3    H232671   2.512   7.591   6.456
10910TIP3   OH232672   6.031   5.314   3.254
10910TIP3    H132673   6.077   5.231   3.249
10910TIP3    H232674   6.038   5.340   3.346
10911TIP3   OH232675   1.922   5.033   4.637
10911TIP3    H132676   1.937   4.950   4.684
10911TIP3    H232677   1.979   5.028   4.561
10912TIP3   OH232678   3.969   5.108   4.475
10912TIP3    H132679   4.014   5.079   4.554
10912TIP3    H232680   3.995   5.045   4.408
10913TIP3   OH232681   3.678   1.091   1.197
10913TIP3    H132682   3.589   1.116   1.222
10913TIP3    H232683   3.673   1.078   1.102
10914TIP3   OH232684   5.264   6.888   4.182
10914TIP3    H132685   5.267   6.955   4.250
10914TIP3    H232686   5.356   6.870   4.162
10915TIP3   OH232687   1.474   5.260   6.224
10915TIP3    H132688   1.531   5.220   6.158
10915TIP3    H232689   1.534   5.291   6.291
10916TIP3   OH232690   6.242   2.775   2.239
10916TIP3    H132691   6.295   2.714   2.290
10916TIP3    H232692   6.296   2.797   2.163
10917TIP3   OH232693   2.505   3.899   1.477
10917TIP3    H132694   2.537   3.989   1.474
10917TIP3    H232695   2.568   3.854   1.534
10918TIP3   OH232696   3.315   1.613   0.073
10918TIP3    H132697   3.301   1.707   0.062
10918TIP3    H232698   3.392   1.594   0.019
10919TIP3   OH232699   6.334   2.359   4.773
10919TIP3    H132700   6.368   2.340   4.860
10919TIP3    H232701   6.316   2.453   4.774
10920TIP3   OH232702   3.767   4.478   3.905
10920TIP3    H132703   3.754   4.428   3.985
10920TIP3    H232704   3.791   4.412   3.839
10921TIP3   OH232705   8.066   0.484   2.452
10921TIP3    H132706   8.059   0.470   2.547
10921TIP3    H232707   8.009   0.558   2.435
10922TIP3   OH232708   1.908   0.073   6.343
10922TIP3    H132709   1.878   0.032   6.424
10922TIP3    H232710   1.831   0.118   6.309
10923TIP3   OH232711   7.978   1.995   2.035
10923TIP3    H132712   7.952   1.906   2.010
10923TIP3    H232713   7.895   2.040   2.051
10924TIP3   OH232714   0.157   0.513   1.420
10924TIP3    H132715   0.087   0.532   1.358
10924TIP3    H232716   0.123   0.542   1.504
10925TIP3   OH232717   3.819   0.986   4.875
10925TIP3    H132718   3.884   0.953   4.812
10925TIP3    H232719   3.774   0.907   4.905
10926TIP3   OH232720   4.405   5.409   5.890
10926TIP3    H132721   4.458   5.336   5.859
10926TIP3    H232722   4.399   5.396   5.985
10927TIP3   OH232723   5.177   7.307   5.733
10927TIP3    H132724   5.203   7.398   5.726
10927TIP3    H232725   5.104   7.307   5.794
10928TIP3   OH232726   3.347   2.791   0.211
10928TIP3    H132727   3.339   2.756   0.122
10928TIP3    H232728   3.319   2.719   0.267
10929TIP3   OH232729   3.500   5.269   1.819
10929TIP3    H132730   3.564   5.337   1.799
10929TIP3    H232731   3.415   5.311   1.805
10930TIP3   OH232732   7.026   6.944   6.271
10930TIP3    H132733   7.054   7.028   6.233
10930TIP3    H232734   7.099   6.884   6.252
10931TIP3   OH232735   5.988   3.005   5.447
10931TIP3    H132736   6.012   3.068   5.515
10931TIP3    H232737   6.068   2.994   5.396
10932TIP3   OH232738   5.761   3.776   3.576
10932TIP3    H132739   5.850   3.800   3.549
10932TIP3    H232740   5.704   3.835   3.527
10933TIP3   OH232741   2.358   2.729   0.334
10933TIP3    H132742   2.285   2.710   0.393
10933TIP3    H232743   2.323   2.713   0.246
10934TIP3   OH232744   5.967   1.911   5.071
10934TIP3    H132745   5.921   1.913   4.987
10934TIP3    H232746   5.906   1.869   5.131
10935TIP3   OH232747   1.690   6.076   6.372
10935TIP3    H132748   1.737   6.159   6.372
10935TIP3    H232749   1.623   6.086   6.305
10936TIP3   OH232750   6.971   1.925   2.915
10936TIP3    H132751   6.938   1.849   2.962
10936TIP3    H232752   7.061   1.903   2.893
10937TIP3   OH232753   0.078   4.940   3.140
10937TIP3    H132754   0.082   4.844   3.140
10937TIP3    H232755  -0.007   4.960   3.100
10938TIP3   OH232756   0.594   5.289   0.281
10938TIP3    H132757   0.679   5.244   0.281
10938TIP3    H232758   0.531   5.221   0.258
10939TIP3   OH232759   7.513   6.109   3.485
10939TIP3    H132760   7.590   6.087   3.538
10939TIP3    H232761   7.534   6.077   3.398
10940TIP3   OH232762   4.944   4.652   3.964
10940TIP3    H132763   4.873   4.649   4.027
10940TIP3    H232764   4.932   4.573   3.911
10941TIP3   OH232765   3.562   2.109   6.506
10941TIP3    H132766   3.632   2.110   6.571
10941TIP3    H232767   3.485   2.142   6.553
10942TIP3   OH232768   2.096   0.870   3.341
10942TIP3    H132769   2.034   0.930   3.300
10942TIP3    H232770   2.044   0.793   3.362
10943TIP3   OH232771   3.535   4.583   3.806
10943TIP3    H132772   3.609   4.538   3.847
10943TIP3    H232773   3.499   4.519   3.745
10944TIP3   OH232774   4.953   6.528   4.494
10944TIP3    H132775   4.950   6.555   4.402
10944TIP3    H232776   5.035   6.565   4.527
10945TIP3   OH232777   4.137   6.022   5.123
10945TIP3    H132778   4.052   6.009   5.164
10945TIP3    H232779   4.128   5.982   5.037
10946TIP3   OH232780   6.807   0.964   4.272
10946TIP3    H132781   6.773   0.936   4.357
10946TIP3    H232782   6.815   1.059   4.278
10947TIP3   OH232783   4.163   3.755   2.775
10947TIP3    H132784   4.155   3.684   2.838
10947TIP3    H232785   4.078   3.800   2.779
10948TIP3   OH232786   7.591   3.575   0.671
10948TIP3    H132787   7.499   3.559   0.648
10948TIP3    H232788   7.641   3.531   0.602
10949TIP3   OH232789   5.775   6.864   5.399
10949TIP3    H132790   5.740   6.778   5.376
10949TIP3    H232791   5.820   6.894   5.319
10950TIP3   OH232792   3.475   5.227   0.248
10950TIP3    H132793   3.388   5.259   0.271
10950TIP3    H232794   3.474   5.221   0.153
10951TIP3   OH232795   8.043   4.290   4.083
10951TIP3    H132796   8.097   4.354   4.037
10951TIP3    H232797   7.965   4.281   4.028
10952TIP3   OH232798   3.878   6.431   0.228
10952TIP3    H132799   3.846   6.512   0.187
10952TIP3    H232800   3.828   6.362   0.184
10953TIP3   OH232801   5.962   5.604   2.537
10953TIP3    H132802   5.982   5.511   2.524
10953TIP3    H232803   5.982   5.645   2.453
10954TIP3   OH232804   1.395   0.878   6.528
10954TIP3    H132805   1.333   0.947   6.549
10954TIP3    H232806   1.347   0.819   6.469
10955TIP3   OH232807   2.355   5.483   3.919
10955TIP3    H132808   2.374   5.501   3.827
10955TIP3    H232809   2.439   5.494   3.964
10956TIP3   OH232810   5.658   6.045   0.301
10956TIP3    H132811   5.577   5.996   0.298
10956TIP3    H232812   5.677   6.065   0.209
10957TIP3   OH232813   5.400   7.255   6.527
10957TIP3    H132814   5.367   7.193   6.591
10957TIP3    H232815   5.485   7.283   6.561
10958TIP3   OH232816   2.037   6.885   2.602
10958TIP3    H132817   1.951   6.876   2.643
10958TIP3    H232818   2.071   6.796   2.597
10959TIP3   OH232819   8.276   2.445   2.185
10959TIP3    H132820   8.211   2.509   2.155
10959TIP3    H232821   8.241   2.411   2.267
10960TIP3   OH232822   2.613   2.437   4.340
10960TIP3    H132823   2.546   2.372   4.362
10960TIP3    H232824   2.655   2.459   4.423
10961TIP3   OH232825   2.694   5.807   1.756
10961TIP3    H132826   2.764   5.745   1.775
10961TIP3    H232827   2.614   5.764   1.787
10962TIP3   OH232828   6.604   2.537   1.857
10962TIP3    H132829   6.544   2.463   1.866
10962TIP3    H232830   6.645   2.546   1.944
10963TIP3   OH232831   4.165   1.446   0.237
10963TIP3    H132832   4.145   1.412   0.324
10963TIP3    H232833   4.081   1.473   0.201
10964TIP3   OH232834   5.284   0.609   1.828
10964TIP3    H132835   5.272   0.518   1.802
10964TIP3    H232836   5.203   0.652   1.803
10965TIP3   OH232837   1.898   3.567   2.939
10965TIP3    H132838   1.895   3.648   2.989
10965TIP3    H232839   1.833   3.579   2.870
10966TIP3   OH232840   1.006   0.438   1.986
10966TIP3    H132841   1.043   0.523   1.965
10966TIP3    H232842   1.000   0.393   1.902
10967TIP3   OH232843   1.878   4.470   1.840
10967TIP3    H132844   1.800   4.462   1.785
10967TIP3    H232845   1.896   4.380   1.868
10968TIP3   OH232846   1.479   3.791   4.035
10968TIP3    H132847   1.476   3.820   3.944
10968TIP3    H232848   1.411   3.724   4.041
10969TIP3   OH232849   1.668   2.936   1.540
10969TIP3    H132850   1.741   2.973   1.491
10969TIP3    H232851   1.669   2.843   1.518
10970TIP3   OH232852   5.219   5.418   5.390
10970TIP3    H132853   5.313   5.401   5.391
10970TIP3    H232854   5.210   5.507   5.424
10971TIP3   OH232855   6.978   3.297   5.494
10971TIP3    H132856   6.952   3.324   5.406
10971TIP3    H232857   6.936   3.360   5.552
10972TIP3   OH232858   6.116   5.603   3.240
10972TIP3    H132859   6.045   5.667   3.240
10972TIP3    H232860   6.108   5.557   3.157
10973TIP3   OH232861   7.550   1.742   5.885
10973TIP3    H132862   7.462   1.779   5.887
10973TIP3    H232863   7.567   1.726   5.792
10974TIP3   OH232864   3.567   0.657   0.899
10974TIP3    H132865   3.575   0.700   0.814
10974TIP3    H232866   3.473   0.660   0.919
10975TIP3   OH232867   7.719   0.310   4.546
10975TIP3    H132868   7.651   0.334   4.483
10975TIP3    H232869   7.737   0.218   4.528
10976TIP3   OH232870   4.232   7.317   2.909
10976TIP3    H132871   4.181   7.236   2.920
10976TIP3    H232872   4.304   7.292   2.852
10977TIP3   OH232873   4.485   5.365   4.658
10977TIP3    H132874   4.496   5.307   4.733
10977TIP3    H232875   4.531   5.445   4.683
10978TIP3   OH232876   5.128   3.316   6.213
10978TIP3    H132877   5.039   3.284   6.227
10978TIP3    H232878   5.141   3.310   6.118
10979TIP3   OH232879   4.961   5.264   2.122
10979TIP3    H132880   4.954   5.265   2.217
10979TIP3    H232881   4.929   5.350   2.094
10980TIP3   OH232882   1.353   7.175   5.375
10980TIP3    H132883   1.402   7.235   5.432
10980TIP3    H232884   1.414   7.154   5.305
10981TIP3   OH232885   7.766   6.809   4.002
10981TIP3    H132886   7.678   6.780   3.979
10981TIP3    H232887   7.823   6.736   3.977
10982TIP3   OH232888   2.787   2.369   1.768
10982TIP3    H132889   2.732   2.291   1.759
10982TIP3    H232890   2.866   2.339   1.812
10983TIP3   OH232891   7.328   1.359   4.783
10983TIP3    H132892   7.368   1.339   4.699
10983TIP3    H232893   7.353   1.286   4.839
10984TIP3   OH232894   7.423   1.454   1.380
10984TIP3    H132895   7.393   1.365   1.359
10984TIP3    H232896   7.452   1.449   1.471
10985TIP3   OH232897   4.032   4.367   3.812
10985TIP3    H132898   4.049   4.381   3.906
10985TIP3    H232899   4.031   4.456   3.775
10986TIP3   OH232900   0.667   7.121   1.543
10986TIP3    H132901   0.602   7.117   1.473
10986TIP3    H232902   0.619   7.154   1.619
10987TIP3   OH232903   3.584   0.605   4.655
10987TIP3    H132904   3.501   0.623   4.611
10987TIP3    H232905   3.649   0.652   4.602
10988TIP3   OH232906   4.297   4.219   4.248
10988TIP3    H132907   4.263   4.179   4.169
10988TIP3    H232908   4.391   4.230   4.231
10989TIP3   OH232909   2.677   2.556   0.512
10989TIP3    H132910   2.664   2.646   0.481
10989TIP3    H232911   2.641   2.501   0.443
10990TIP3   OH232912   3.301   0.589   0.170
10990TIP3    H132913   3.279   0.608   0.261
10990TIP3    H232914   3.231   0.530   0.141
10991TIP3   OH232915   0.445   3.051   6.280
10991TIP3    H132916   0.457   3.109   6.355
10991TIP3    H232917   0.469   2.964   6.312
10992TIP3   OH232918   8.149   6.267   4.802
10992TIP3    H132919   8.206   6.331   4.845
10992TIP3    H232920   8.207   6.219   4.742
10993TIP3   OH232921   4.654   4.516   3.581
10993TIP3    H132922   4.606   4.598   3.569
10993TIP3    H232923   4.741   4.543   3.609
10994TIP3   OH232924   7.704   3.865   6.344
10994TIP3    H132925   7.780   3.879   6.287
10994TIP3    H232926   7.727   3.788   6.396
10995TIP3   OH232927   0.364   1.845   1.737
10995TIP3    H132928   0.440   1.802   1.696
10995TIP3    H232929   0.292   1.830   1.677
10996TIP3   OH232930   4.271   0.913   6.285
10996TIP3    H132931   4.322   0.846   6.240
10996TIP3    H232932   4.230   0.867   6.359
10997TIP3   OH232933   7.107   3.805   1.710
10997TIP3    H132934   7.165   3.755   1.654
10997TIP3    H232935   7.067   3.870   1.651
10998TIP3   OH232936   5.490   4.965   4.297
10998TIP3    H132937   5.499   5.053   4.261
10998TIP3    H232938   5.398   4.943   4.284
10999TIP3   OH232939   2.708   2.303   2.375
10999TIP3    H132940   2.752   2.360   2.438
10999TIP3    H232941   2.716   2.349   2.291
11000TIP3   OH232942   3.548   2.775   6.571
11000TIP3    H132943   3.574   2.704   6.630
11000TIP3    H232944   3.629   2.804   6.530
11001TIP3   OH232945   2.319   0.996   3.203
11001TIP3    H132946   2.302   0.914   3.156
11001TIP3    H232947   2.250   1.000   3.270
11002TIP3   OH232948   8.142   4.940   2.619
11002TIP3    H132949   8.167   5.028   2.593
11002TIP3    H232950   8.181   4.928   2.705
11003TIP3   OH232951   7.158   3.532   0.077
11003TIP3    H132952   7.195   3.444   0.089
11003TIP3    H232953   7.229   3.582   0.036
11004TIP3   OH232954   0.644   1.168   1.202
11004TIP3    H132955   0.635   1.255   1.240
11004TIP3    H232956   0.716   1.176   1.139
11005TIP3   OH232957   0.834   5.802   2.140
11005TIP3    H132958   0.837   5.745   2.218
11005TIP3    H232959   0.907   5.862   2.152
11006TIP3   OH232960   3.719   3.241   6.355
11006TIP3    H132961   3.744   3.260   6.264
11006TIP3    H232962   3.703   3.328   6.393
11007TIP3   OH232963   4.962   5.883   3.637
11007TIP3    H132964   4.910   5.817   3.591
11007TIP3    H232965   5.016   5.922   3.569
11008TIP3   OH232966   5.216   6.045   6.519
11008TIP3    H132967   5.256   5.975   6.467
11008TIP3    H232968   5.172   6.100   6.455
11009TIP3   OH232969   6.306   5.464   1.476
11009TIP3    H132970   6.241   5.533   1.463
11009TIP3    H232971   6.366   5.472   1.402
11010TIP3   OH232972   8.010   5.942   5.180
11010TIP3    H132973   7.924   5.968   5.147
11010TIP3    H232974   7.995   5.924   5.273
11011TIP3   OH232975   4.116   2.604   1.775
11011TIP3    H132976   4.056   2.656   1.722
11011TIP3    H232977   4.070   2.592   1.859
11012TIP3   OH232978   4.913   1.153   0.510
11012TIP3    H132979   4.837   1.204   0.537
11012TIP3    H232980   4.968   1.214   0.461
11013TIP3   OH232981   6.041   6.355   6.370
11013TIP3    H132982   5.957   6.384   6.406
11013TIP3    H232983   6.019   6.277   6.318
11014TIP3   OH232984   3.121   3.508   1.576
11014TIP3    H132985   3.121   3.582   1.516
11014TIP3    H232986   3.213   3.496   1.598
11015TIP3   OH232987   3.498   2.046   1.356
11015TIP3    H132988   3.594   2.045   1.356
11015TIP3    H232989   3.473   1.964   1.398
11016TIP3   OH232990   4.165   5.313   3.548
11016TIP3    H132991   4.090   5.364   3.518
11016TIP3    H232992   4.131   5.260   3.621
11017TIP3   OH232993   1.613   0.469   4.787
11017TIP3    H132994   1.706   0.486   4.776
11017TIP3    H232995   1.578   0.467   4.698
11018TIP3   OH232996   1.016   7.007   6.522
11018TIP3    H132997   1.013   6.914   6.500
11018TIP3    H232998   1.041   7.051   6.441
11019TIP3   OH232999   0.531   6.315   5.015
11019TIP3    H133000   0.503   6.233   4.975
11019TIP3    H233001   0.627   6.311   5.014
11020TIP3   OH233002   0.862   4.208   1.559
11020TIP3    H133003   0.947   4.249   1.577
11020TIP3    H233004   0.878   4.154   1.482
11021TIP3   OH233005   5.134   6.590   3.896
11021TIP3    H133006   5.052   6.556   3.932
11021TIP3    H233007   5.165   6.521   3.837
11022TIP3   OH233008   5.444   6.397   4.832
11022TIP3    H133009   5.451   6.460   4.760
11022TIP3    H233010   5.460   6.312   4.791
11023TIP3   OH233011   4.859   2.796   2.538
11023TIP3    H133012   4.913   2.749   2.601
11023TIP3    H233013   4.780   2.743   2.529
11024TIP3   OH233014   5.451   4.737   0.349
11024TIP3    H133015   5.366   4.757   0.388
11024TIP3    H233016   5.437   4.653   0.304
11025TIP3   OH233017   6.226   6.616   4.048
11025TIP3    H133018   6.143   6.615   4.094
11025TIP3    H233019   6.215   6.682   3.979
11026TIP3   OH233020   3.703   1.266   4.269
11026TIP3    H133021   3.725   1.351   4.308
11026TIP3    H233022   3.770   1.206   4.303
11027TIP3   OH233023   1.934   4.409   4.529
11027TIP3    H133024   1.936   4.485   4.471
11027TIP3    H233025   1.908   4.445   4.614
11028TIP3   OH233026   2.561   0.426   3.293
11028TIP3    H133027   2.563   0.372   3.373
11028TIP3    H233028   2.488   0.486   3.307
11029TIP3   OH233029   3.919   7.582   3.087
11029TIP3    H133030   3.927   7.541   3.001
11029TIP3    H233031   3.908   7.509   3.147
11030TIP3   OH233032   0.011   4.061   6.497
11030TIP3    H133033   0.016   3.971   6.464
11030TIP3    H233034   0.043   4.114   6.424
11031TIP3   OH233035   7.676   3.639   4.874
11031TIP3    H133036   7.770   3.626   4.885
11031TIP3    H233037   7.637   3.593   4.948
11032TIP3   OH233038   7.758   4.308   0.865
11032TIP3    H133039   7.806   4.249   0.923
11032TIP3    H233040   7.671   4.268   0.857
11033TIP3   OH233041   2.476   5.907   0.662
11033TIP3    H133042   2.531   5.843   0.707
11033TIP3    H233043   2.405   5.856   0.624
11034TIP3   OH233044   6.937   2.317   3.787
11034TIP3    H133045   7.018   2.345   3.830
11034TIP3    H233046   6.965   2.283   3.702
11035TIP3   OH233047   4.739   1.457   3.349
11035TIP3    H133048   4.720   1.388   3.413
11035TIP3    H233049   4.773   1.411   3.273
11036TIP3   OH233050   0.986   7.150   1.712
11036TIP3    H133051   1.069   7.103   1.718
11036TIP3    H233052   0.961   7.142   1.620
11037TIP3   OH233053   1.672   4.772   0.900
11037TIP3    H133054   1.754   4.726   0.917
11037TIP3    H233055   1.604   4.707   0.917
11038TIP3   OH233056   3.297   0.592   5.954
11038TIP3    H133057   3.299   0.550   5.868
11038TIP3    H233058   3.248   0.674   5.939
11039TIP3   OH233059   2.377   3.348   6.534
11039TIP3    H133060   2.428   3.276   6.496
11039TIP3    H233061   2.405   3.351   6.626
11040TIP3   OH233062   4.092   5.254   2.271
11040TIP3    H133063   4.119   5.165   2.253
11040TIP3    H233064   4.086   5.259   2.366
11041TIP3   OH233065   4.257   3.746   5.808
11041TIP3    H133066   4.320   3.753   5.737
11041TIP3    H233067   4.311   3.726   5.885
11042TIP3   OH233068   4.708   4.992   4.705
11042TIP3    H133069   4.749   5.040   4.633
11042TIP3    H233070   4.756   4.910   4.711
11043TIP3   OH233071   6.683   1.926   1.673
11043TIP3    H133072   6.689   2.021   1.689
11043TIP3    H233073   6.728   1.886   1.747
11044TIP3   OH233074   3.816   7.149   0.759
11044TIP3    H133075   3.819   7.204   0.681
11044TIP3    H233076   3.839   7.062   0.728
11045TIP3   OH233077   3.255   2.773   3.160
11045TIP3    H133078   3.205   2.739   3.087
11045TIP3    H233079   3.231   2.865   3.166
11046TIP3   OH233080   1.928   0.215   0.880
11046TIP3    H133081   1.860   0.168   0.929
11046TIP3    H233082   1.944   0.294   0.932
11047TIP3   OH233083   5.095   2.461   1.080
11047TIP3    H133084   5.119   2.552   1.061
11047TIP3    H233085   5.041   2.435   1.006
11048TIP3   OH233086   8.212   3.111   0.135
11048TIP3    H133087   8.211   3.185   0.076
11048TIP3    H233088   8.304   3.085   0.141
11049TIP3   OH233089   7.421   2.141   6.079
11049TIP3    H133090   7.503   2.164   6.123
11049TIP3    H233091   7.419   2.046   6.079
11050TIP3   OH233092   1.715   6.630   4.954
11050TIP3    H133093   1.802   6.650   4.988
11050TIP3    H233094   1.730   6.609   4.862
11051TIP3   OH233095   5.031   4.381   4.982
11051TIP3    H133096   4.982   4.348   5.057
11051TIP3    H233097   4.977   4.358   4.906
11052TIP3   OH233098   6.496   4.289   0.245
11052TIP3    H133099   6.474   4.252   0.160
11052TIP3    H233100   6.528   4.214   0.296
11053TIP3   OH233101   8.007   4.332   5.343
11053TIP3    H133102   7.997   4.390   5.419
11053TIP3    H233103   7.988   4.389   5.268
11054TIP3   OH233104   0.200   2.297   0.987
11054TIP3    H133105   0.284   2.282   0.944
11054TIP3    H233106   0.149   2.346   0.923
11055TIP3   OH233107   0.842   0.708   0.467
11055TIP3    H133108   0.897   0.631   0.461
11055TIP3    H233109   0.823   0.717   0.561
11056TIP3   OH233110   6.290   1.146   5.259
11056TIP3    H133111   6.353   1.119   5.192
11056TIP3    H233112   6.219   1.188   5.210
11057TIP3   OH233113   4.883   5.659   1.059
11057TIP3    H133114   4.966   5.611   1.058
11057TIP3    H233115   4.896   5.730   0.998
11058TIP3   OH233116   6.165   7.015   5.454
11058TIP3    H133117   6.118   7.098   5.447
11058TIP3    H233118   6.257   7.040   5.458
11059TIP3   OH233119   3.926   1.188   1.542
11059TIP3    H133120   3.832   1.173   1.553
11059TIP3    H233121   3.952   1.127   1.473
11060TIP3   OH233122   8.105   1.127   4.200
11060TIP3    H133123   8.035   1.062   4.209
11060TIP3    H233124   8.091   1.166   4.114
11061TIP3   OH233125   4.176   2.454   0.600
11061TIP3    H133126   4.145   2.366   0.583
11061TIP3    H233127   4.191   2.492   0.514
11062TIP3   OH233128   0.229   0.761   5.195
11062TIP3    H133129   0.250   0.849   5.163
11062TIP3    H233130   0.224   0.770   5.290
11063TIP3   OH233131   6.036   5.358   3.674
11063TIP3    H133132   6.033   5.263   3.684
11063TIP3    H233133   6.100   5.373   3.604
11064TIP3   OH233134   2.550   5.042   5.561
11064TIP3    H133135   2.550   4.966   5.620
11064TIP3    H233136   2.639   5.078   5.568
11065TIP3   OH233137   4.316   2.761   4.152
11065TIP3    H133138   4.408   2.756   4.129
11065TIP3    H233139   4.295   2.855   4.151
11066TIP3   OH233140   6.035   4.537   1.783
11066TIP3    H133141   6.068   4.620   1.748
11066TIP3    H233142   6.018   4.555   1.875
11067TIP3   OH233143   4.442   4.987   4.674
11067TIP3    H133144   4.536   4.997   4.666
11067TIP3    H233145   4.426   4.980   4.768
11068TIP3   OH233146   2.527   1.776   1.720
11068TIP3    H133147   2.561   1.777   1.631
11068TIP3    H233148   2.562   1.696   1.758
11069TIP3   OH233149   0.747   1.236   6.750
11069TIP3    H133150   0.674   1.266   6.697
11069TIP3    H233151   0.740   1.140   6.748
11070TIP3   OH233152   2.581   0.240   5.425
11070TIP3    H133153   2.530   0.287   5.358
11070TIP3    H233154   2.616   0.309   5.481
11071TIP3   OH233155   2.330   0.273   4.078
11071TIP3    H133156   2.248   0.313   4.107
11071TIP3    H233157   2.381   0.345   4.042
11072TIP3   OH233158   5.375   5.329   0.120
11072TIP3    H133159   5.433   5.343   0.045
11072TIP3    H233160   5.293   5.372   0.095
11073TIP3   OH233161   2.945   0.192   3.024
11073TIP3    H133162   2.985   0.230   3.102
11073TIP3    H233163   2.975   0.100   3.025
11074TIP3   OH233164   5.960   3.653   0.958
11074TIP3    H133165   6.055   3.665   0.963
11074TIP3    H233166   5.927   3.689   1.040
11075TIP3   OH233167   4.576   7.325   3.228
11075TIP3    H133168   4.560   7.277   3.147
11075TIP3    H233169   4.510   7.394   3.229
11076TIP3   OH233170   5.168   6.486   6.604
11076TIP3    H133171   5.165   6.468   6.510
11076TIP3    H233172   5.085   6.452   6.638
11077TIP3   OH233173   2.348   0.186   0.183
11077TIP3    H133174   2.320   0.187   0.275
11077TIP3    H233175   2.351   0.093   0.160
11078TIP3   OH233176   3.109   5.340   2.263
11078TIP3    H133177   3.015   5.323   2.256
11078TIP3    H233178   3.149   5.253   2.269
11079TIP3   OH233179   6.274   4.735   3.547
11079TIP3    H133180   6.187   4.750   3.508
11079TIP3    H233181   6.335   4.757   3.477
11080TIP3   OH233182   6.304   0.264   3.213
11080TIP3    H133183   6.236   0.320   3.250
11080TIP3    H233184   6.261   0.220   3.140
11081TIP3   OH233185   4.169   6.429   5.804
11081TIP3    H133186   4.264   6.423   5.790
11081TIP3    H233187   4.133   6.354   5.757
11082TIP3   OH233188   0.777   7.267   2.466
11082TIP3    H133189   0.782   7.291   2.559
11082TIP3    H233190   0.832   7.331   2.422
11083TIP3   OH233191   4.928   4.738   6.467
11083TIP3    H133192   4.863   4.734   6.397
11083TIP3    H233193   4.954   4.647   6.481
11084TIP3   OH233194   2.821   0.208   4.764
11084TIP3    H133195   2.764   0.185   4.690
11084TIP3    H233196   2.910   0.193   4.732
11085TIP3   OH233197   1.815   7.533   4.245
11085TIP3    H133198   1.867   7.607   4.277
11085TIP3    H233199   1.848   7.517   4.157
11086TIP3   OH233200   6.893   0.230   6.542
11086TIP3    H133201   6.958   0.275   6.596
11086TIP3    H233202   6.839   0.182   6.605
11087TIP3   OH233203   0.583   0.596   2.362
11087TIP3    H133204   0.530   0.612   2.440
11087TIP3    H233205   0.668   0.567   2.396
11088TIP3   OH233206   3.598   6.552   5.693
11088TIP3    H133207   3.571   6.628   5.642
11088TIP3    H233208   3.654   6.502   5.633
11089TIP3   OH233209   6.811   3.119   3.602
11089TIP3    H133210   6.768   3.182   3.544
11089TIP3    H233211   6.900   3.152   3.612
11090TIP3   OH233212   1.640   7.333   4.909
11090TIP3    H133213   1.703   7.399   4.881
11090TIP3    H233214   1.693   7.257   4.933
11091TIP3   OH233215   0.988   0.481   2.817
11091TIP3    H133216   0.979   0.436   2.733
11091TIP3    H233217   1.026   0.566   2.794
11092TIP3   OH233218   5.887   0.096   4.001
11092TIP3    H133219   5.848   0.170   3.955
11092TIP3    H233220   5.815   0.035   4.014
11093TIP3   OH233221   3.701   3.321   5.300
11093TIP3    H133222   3.642   3.362   5.237
11093TIP3    H233223   3.787   3.358   5.280
11094TIP3   OH233224   2.730   7.194   6.674
11094TIP3    H133225   2.678   7.175   6.596
11094TIP3    H233226   2.821   7.189   6.644
11095TIP3   OH233227   1.606   7.651   2.820
11095TIP3    H133228   1.657   7.672   2.741
11095TIP3    H233229   1.629   7.720   2.882
11096TIP3   OH233230   2.778   3.230   0.501
11096TIP3    H133231   2.811   3.302   0.447
11096TIP3    H233232   2.813   3.249   0.589
11097TIP3   OH233233   3.453   6.771   3.715
11097TIP3    H133234   3.446   6.864   3.733
11097TIP3    H233235   3.425   6.728   3.796
11098TIP3   OH233236   1.604   0.414   1.438
11098TIP3    H133237   1.588   0.325   1.469
11098TIP3    H233238   1.616   0.466   1.518
11099TIP3   OH233239   6.246   4.789   1.048
11099TIP3    H133240   6.326   4.819   1.004
11099TIP3    H233241   6.175   4.832   1.000
11100TIP3   OH233242   6.598   6.276   4.106
11100TIP3    H133243   6.504   6.260   4.106
11100TIP3    H233244   6.611   6.346   4.170
11101TIP3   OH233245   2.928   3.321   6.334
11101TIP3    H133246   2.939   3.274   6.417
11101TIP3    H233247   3.002   3.293   6.281
11102TIP3   OH233248   7.969   1.674   1.690
11102TIP3    H133249   8.010   1.729   1.623
11102TIP3    H233250   7.885   1.716   1.707
11103TIP3   OH233251   8.077   7.394   1.730
11103TIP3    H133252   8.129   7.473   1.737
11103TIP3    H233253   8.000   7.420   1.680
11104TIP3   OH233254   1.566   3.144   3.824
11104TIP3    H133255   1.496   3.109   3.768
11104TIP3    H233256   1.563   3.239   3.810
11105TIP3   OH233257   2.841   1.342   6.534
11105TIP3    H133258   2.842   1.345   6.439
11105TIP3    H233259   2.932   1.356   6.560
11106TIP3   OH233260   6.770   5.968   3.155
11106TIP3    H133261   6.692   5.980   3.102
11106TIP3    H233262   6.766   5.878   3.185
11107TIP3   OH233263   3.473   2.328   2.358
11107TIP3    H133264   3.389   2.365   2.329
11107TIP3    H233265   3.460   2.234   2.356
11108TIP3   OH233266   5.130   1.365   1.417
11108TIP3    H133267   5.093   1.290   1.463
11108TIP3    H233268   5.115   1.347   1.324
11109TIP3   OH233269   1.956   2.608   1.848
11109TIP3    H133270   1.942   2.519   1.882
11109TIP3    H233271   2.047   2.627   1.870
11110TIP3   OH233272   3.912   5.524   2.313
11110TIP3    H133273   3.860   5.486   2.243
11110TIP3    H233274   3.968   5.588   2.269
11111TIP3   OH233275   3.794   6.725   0.401
11111TIP3    H133276   3.865   6.693   0.457
11111TIP3    H233277   3.820   6.700   0.312
11112TIP3   OH233278   6.109   1.233   4.191
11112TIP3    H133279   6.173   1.188   4.245
11112TIP3    H233280   6.043   1.167   4.171
11113TIP3   OH233281   2.196   5.662   6.013
11113TIP3    H133282   2.258   5.654   6.086
11113TIP3    H233283   2.203   5.578   5.966
11114TIP3   OH233284   0.161   4.585   5.428
11114TIP3    H133285   0.165   4.535   5.510
11114TIP3    H233286   0.071   4.577   5.399
11115TIP3   OH233287   2.519   7.740   1.950
11115TIP3    H133288   2.504   7.656   1.907
11115TIP3    H233289   2.587   7.783   1.897
11116TIP3   OH233290   1.739   2.913   3.954
11116TIP3    H133291   1.699   3.000   3.957
11116TIP3    H233292   1.695   2.869   3.881
11117TIP3   OH233293   3.842   7.359   4.293
11117TIP3    H133294   3.936   7.370   4.301
11117TIP3    H233295   3.826   7.362   4.198
11118TIP3   OH233296   0.325   4.093   4.007
11118TIP3    H133297   0.249   4.133   4.050
11118TIP3    H233298   0.288   4.021   3.956
11119TIP3   OH233299   7.562   3.461   2.481
11119TIP3    H133300   7.644   3.488   2.523
11119TIP3    H233301   7.530   3.540   2.439
11120TIP3   OH233302   5.587   1.001   3.407
11120TIP3    H133303   5.558   0.920   3.364
11120TIP3    H233304   5.561   1.070   3.346
11121TIP3   OH233305   4.564   4.277   1.433
11121TIP3    H133306   4.576   4.347   1.370
11121TIP3    H233307   4.639   4.283   1.492
11122TIP3   OH233308   5.745   3.346   4.622
11122TIP3    H133309   5.773   3.332   4.532
11122TIP3    H233310   5.784   3.429   4.647
11123TIP3   OH233311   7.054   6.884   2.228
11123TIP3    H133312   6.999   6.805   2.227
11123TIP3    H233313   6.992   6.956   2.229
11124TIP3   OH233314   5.988   7.389   5.820
11124TIP3    H133315   6.030   7.381   5.735
11124TIP3    H233316   5.958   7.300   5.840
11125TIP3   OH233317   3.607   3.172   2.943
11125TIP3    H133318   3.525   3.137   2.909
11125TIP3    H233319   3.650   3.211   2.867
11126TIP3   OH233320   3.719   7.760   6.225
11126TIP3    H133321   3.755   7.847   6.238
11126TIP3    H233322   3.624   7.773   6.229
11127TIP3   OH233323   0.869   6.441   4.394
11127TIP3    H133324   0.922   6.445   4.473
11127TIP3    H233325   0.794   6.498   4.412
11128TIP3   OH233326   1.269   0.898   2.290
11128TIP3    H133327   1.266   0.993   2.277
11128TIP3    H233328   1.314   0.865   2.213
11129TIP3   OH233329   4.964   1.169   0.968
11129TIP3    H133330   4.919   1.139   1.047
11129TIP3    H233331   4.926   1.117   0.898
11130TIP3   OH233332   6.858   6.782   3.444
11130TIP3    H133333   6.828   6.764   3.356
11130TIP3    H233334   6.948   6.750   3.446
11131TIP3   OH233335   2.212   5.760   3.040
11131TIP3    H133336   2.267   5.768   3.118
11131TIP3    H233337   2.271   5.729   2.972
11132TIP3   OH233338   2.121   4.989   1.655
11132TIP3    H133339   2.077   5.033   1.583
11132TIP3    H233340   2.108   5.046   1.731
11133TIP3   OH233341   2.492   6.601   1.159
11133TIP3    H133342   2.584   6.584   1.138
11133TIP3    H233343   2.451   6.514   1.158
11134TIP3   OH233344   6.435   1.929   5.090
11134TIP3    H133345   6.372   1.958   5.024
11134TIP3    H233346   6.484   1.859   5.046
11135TIP3   OH233347   0.256   3.517   0.731
11135TIP3    H133348   0.208   3.574   0.791
11135TIP3    H233349   0.276   3.438   0.782
11136TIP3   OH233350   7.154   6.161   5.769
11136TIP3    H133351   7.188   6.110   5.843
11136TIP3    H233352   7.198   6.246   5.776
11137TIP3   OH233353   1.946   0.936   5.518
11137TIP3    H133354   1.886   0.868   5.484
11137TIP3    H233355   1.888   1.009   5.541
11138TIP3   OH233356   3.173   5.939   1.209
11138TIP3    H133357   3.256   5.891   1.204
11138TIP3    H233358   3.138   5.935   1.119
11139TIP3   OH233359   5.455   6.204   5.986
11139TIP3    H133360   5.544   6.236   5.969
11139TIP3    H233361   5.457   6.179   6.078
11140TIP3   OH233362   5.335   4.701   6.106
11140TIP3    H133363   5.253   4.717   6.152
11140TIP3    H233364   5.396   4.766   6.140
11141TIP3   OH233365   3.261   6.686   5.200
11141TIP3    H133366   3.315   6.616   5.236
11141TIP3    H233367   3.247   6.745   5.274
11142TIP3   OH233368   7.186   3.990   2.552
11142TIP3    H133369   7.224   3.995   2.640
11142TIP3    H233370   7.122   3.920   2.557
11143TIP3   OH233371   7.654   4.017   0.243
11143TIP3    H133372   7.677   3.980   0.328
11143TIP3    H233373   7.711   3.973   0.181
11144TIP3   OH233374   6.783   5.081   0.374
11144TIP3    H133375   6.700   5.037   0.355
11144TIP3    H233376   6.847   5.010   0.378
11145TIP3   OH233377   8.071   7.198   5.789
11145TIP3    H133378   8.004   7.260   5.760
11145TIP3    H233379   8.057   7.120   5.735
11146TIP3   OH233380   0.675   5.854   0.785
11146TIP3    H133381   0.764   5.817   0.787
11146TIP3    H233382   0.627   5.794   0.728
11147TIP3   OH233383   5.204   7.480   4.710
11147TIP3    H133384   5.249   7.396   4.706
11147TIP3    H233385   5.159   7.487   4.626
11148TIP3   OH233386   1.781   2.152   5.026
11148TIP3    H133387   1.859   2.185   5.070
11148TIP3    H233388   1.722   2.227   5.023
11149TIP3   OH233389   0.349   4.038   6.137
11149TIP3    H133390   0.311   4.117   6.097
11149TIP3    H233391   0.442   4.058   6.145
11150TIP3   OH233392   7.890   4.907   5.618
11150TIP3    H133393   7.945   4.880   5.544
11150TIP3    H233394   7.801   4.887   5.589
11151TIP3   OH233395   3.660   2.142   6.261
11151TIP3    H133396   3.629   2.122   6.349
11151TIP3    H233397   3.755   2.132   6.266
11152TIP3   OH233398   6.645   0.087   0.152
11152TIP3    H133399   6.709   0.028   0.192
11152TIP3    H233400   6.583   0.107   0.222
11153TIP3   OH233401   6.428   5.318   2.784
11153TIP3    H133402   6.440   5.252   2.715
11153TIP3    H233403   6.346   5.362   2.760
11154TIP3   OH233404   3.699   0.047   5.657
11154TIP3    H133405   3.626   0.066   5.716
11154TIP3    H233406   3.758  -0.007   5.709
11155TIP3   OH233407   2.942   2.610   0.323
11155TIP3    H133408   2.907   2.575   0.405
11155TIP3    H233409   2.914   2.548   0.257
11156TIP3   OH233410   3.689   6.172   0.948
11156TIP3    H133411   3.622   6.112   0.980
11156TIP3    H233412   3.768   6.148   0.997
11157TIP3   OH233413   6.445   5.629   0.827
11157TIP3    H133414   6.379   5.652   0.892
11157TIP3    H233415   6.401   5.566   0.770
11158TIP3   OH233416   4.251   2.829   5.826
11158TIP3    H133417   4.311   2.781   5.884
11158TIP3    H233418   4.235   2.770   5.753
11159TIP3   OH233419   0.713   5.667   3.661
11159TIP3    H133420   0.635   5.717   3.637
11159TIP3    H233421   0.703   5.584   3.614
11160TIP3   OH233422   4.942   5.142   3.593
11160TIP3    H133423   4.895   5.059   3.599
11160TIP3    H233424   5.023   5.121   3.545
11161TIP3   OH233425   7.420   1.274   4.262
11161TIP3    H133426   7.505   1.297   4.299
11161TIP3    H233427   7.388   1.203   4.317
11162TIP3   OH233428   7.725   0.994   5.269
11162TIP3    H133429   7.787   1.055   5.230
11162TIP3    H233430   7.707   1.030   5.355
11163TIP3   OH233431   3.054   5.209   3.049
11163TIP3    H133432   2.962   5.201   3.023
11163TIP3    H233433   3.082   5.119   3.066
11164TIP3   OH233434   1.600   2.901   5.237
11164TIP3    H133435   1.586   2.978   5.292
11164TIP3    H233436   1.519   2.850   5.247
11165TIP3   OH233437   5.588   3.717   4.658
11165TIP3    H133438   5.543   3.693   4.577
11165TIP3    H233439   5.559   3.805   4.678
11166TIP3   OH233440   3.380   5.913   4.298
11166TIP3    H133441   3.328   5.981   4.342
11166TIP3    H233442   3.424   5.959   4.227
11167TIP3   OH233443   7.219   3.819   0.772
11167TIP3    H133444   7.192   3.773   0.851
11167TIP3    H233445   7.314   3.832   0.783
11168TIP3   OH233446   7.619   5.038   3.425
11168TIP3    H133447   7.644   5.093   3.350
11168TIP3    H233448   7.559   4.973   3.388
11169TIP3   OH233449   0.965   0.061   2.855
11169TIP3    H133450   1.001   0.092   2.938
11169TIP3    H233451   0.891   0.118   2.837
11170TIP3   OH233452   1.112   0.701   2.726
11170TIP3    H133453   1.199   0.718   2.690
11170TIP3    H233454   1.053   0.759   2.678
11171TIP3   OH233455   3.893   7.666   5.152
11171TIP3    H133456   3.895   7.760   5.133
11171TIP3    H233457   3.901   7.624   5.066
11172TIP3   OH233458   7.579   2.338   0.716
11172TIP3    H133459   7.545   2.272   0.655
11172TIP3    H233460   7.505   2.396   0.732
11173TIP3   OH233461   2.173   5.158   0.852
11173TIP3    H133462   2.132   5.149   0.938
11173TIP3    H233463   2.099   5.152   0.791
11174TIP3   OH233464   4.043   5.823   3.472
11174TIP3    H133465   4.112   5.889   3.483
11174TIP3    H233466   4.069   5.774   3.394
11175TIP3   OH233467   0.189   6.954   4.171
11175TIP3    H133468   0.278   6.985   4.153
11175TIP3    H233469   0.180   6.876   4.116
11176TIP3   OH233470   0.521   3.128   2.461
11176TIP3    H133471   0.503   3.086   2.545
11176TIP3    H233472   0.510   3.221   2.477
11177TIP3   OH233473   6.723   1.472   4.423
11177TIP3    H133474   6.710   1.435   4.510
11177TIP3    H233475   6.671   1.552   4.423
11178TIP3   OH233476   3.292   5.866   3.057
11178TIP3    H133477   3.362   5.816   3.015
11178TIP3    H233478   3.324   5.884   3.145
11179TIP3   OH233479   4.350   3.066   3.418
11179TIP3    H133480   4.344   3.162   3.414
11179TIP3    H233481   4.264   3.036   3.388
11180TIP3   OH233482   1.303   6.631   0.713
11180TIP3    H133483   1.214   6.654   0.740
11180TIP3    H233484   1.312   6.539   0.737
11181TIP3   OH233485   5.573   1.565   3.862
11181TIP3    H133486   5.588   1.527   3.949
11181TIP3    H233487   5.597   1.496   3.801
11182TIP3   OH233488   4.664   7.001   4.851
11182TIP3    H133489   4.607   7.020   4.776
11182TIP3    H233490   4.696   6.912   4.834
11183TIP3   OH233491   0.426   4.039   3.167
11183TIP3    H133492   0.501   4.007   3.117
11183TIP3    H233493   0.399   4.119   3.122
11184TIP3   OH233494   0.848   0.594   6.503
11184TIP3    H133495   0.770   0.587   6.447
11184TIP3    H233496   0.921   0.576   6.444
11185TIP3   OH233497   1.934   6.786   4.473
11185TIP3    H133498   1.924   6.878   4.450
11185TIP3    H233499   1.891   6.738   4.402
11186TIP3   OH233500   5.817   7.320   0.557
11186TIP3    H133501   5.865   7.396   0.590
11186TIP3    H233502   5.884   7.253   0.543
11187TIP3   OH233503   3.587   3.213   3.491
11187TIP3    H133504   3.512   3.203   3.431
11187TIP3    H233505   3.638   3.133   3.479
11188TIP3   OH233506   5.534   7.223   5.222
11188TIP3    H133507   5.552   7.294   5.283
11188TIP3    H233508   5.618   7.177   5.214
11189TIP3   OH233509   5.496   5.856   4.148
11189TIP3    H133510   5.508   5.763   4.163
11189TIP3    H233511   5.499   5.896   4.235
11190TIP3   OH233512   1.419   5.905   0.873
11190TIP3    H133513   1.395   5.890   0.965
11190TIP3    H233514   1.384   5.829   0.827
11191TIP3   OH233515   2.343   6.957   4.158
11191TIP3    H133516   2.344   6.861   4.161
11191TIP3    H233517   2.373   6.984   4.244
11192TIP3   OH233518   5.882   7.058   0.810
11192TIP3    H133519   5.901   7.015   0.893
11192TIP3    H233520   5.881   7.151   0.830
11193TIP3   OH233521   0.510   1.630  -0.013
11193TIP3    H133522   0.573   1.620  -0.085
11193TIP3    H233523   0.489   1.723  -0.013
11194TIP3   OH233524   3.332   6.628   4.267
11194TIP3    H133525   3.243   6.602   4.245
11194TIP3    H233526   3.331   6.643   4.361
11195TIP3   OH233527   3.289   0.584   1.233
11195TIP3    H133528   3.207   0.621   1.265
11195TIP3    H233529   3.309   0.634   1.154
11196TIP3   OH233530   5.937   3.207   1.790
11196TIP3    H133531   5.991   3.144   1.742
11196TIP3    H233532   5.905   3.158   1.866
11197TIP3   OH233533   6.257   2.530   6.172
11197TIP3    H133534   6.211   2.462   6.124
11197TIP3    H233535   6.222   2.524   6.261
11198TIP3   OH233536   5.738   2.391   5.972
11198TIP3    H133537   5.671   2.378   6.039
11198TIP3    H233538   5.699   2.455   5.912
11199TIP3   OH233539   4.190   4.082   6.251
11199TIP3    H133540   4.143   4.060   6.331
11199TIP3    H233541   4.135   4.148   6.208
11200TIP3   OH233542   5.906   5.634   1.805
11200TIP3    H133543   5.919   5.729   1.799
11200TIP3    H233544   5.939   5.600   1.722
11201TIP3   OH233545   4.592   6.543   4.338
11201TIP3    H133546   4.587   6.468   4.279
11201TIP3    H233547   4.678   6.581   4.321
11202TIP3   OH233548   0.952   1.106   1.417
11202TIP3    H133549   0.950   1.049   1.340
11202TIP3    H233550   0.969   1.048   1.491
11203TIP3   OH233551   6.320   1.509   5.345
11203TIP3    H133552   6.286   1.556   5.269
11203TIP3    H233553   6.334   1.577   5.411
11204TIP3   OH233554   1.336   7.403   0.178
11204TIP3    H133555   1.398   7.366   0.240
11204TIP3    H233556   1.291   7.472   0.226
11205TIP3   OH233557   2.987   2.270   3.280
11205TIP3    H133558   2.990   2.238   3.190
11205TIP3    H233559   3.021   2.198   3.333
11206TIP3   OH233560   3.890   6.236   3.120
11206TIP3    H133561   3.812   6.258   3.172
11206TIP3    H233562   3.866   6.261   3.031
11207TIP3   OH233563   6.034   5.339   4.182
11207TIP3    H133564   6.099   5.369   4.245
11207TIP3    H233565   6.085   5.286   4.120
11208TIP3   OH233566   0.857   5.619   1.027
11208TIP3    H133567   0.937   5.573   1.054
11208TIP3    H233568   0.879   5.657   0.943
11209TIP3   OH233569   1.699   3.136   4.308
11209TIP3    H133570   1.713   3.225   4.342
11209TIP3    H233571   1.638   3.149   4.235
11210TIP3   OH233572   6.477   6.519   6.422
11210TIP3    H133573   6.451   6.506   6.330
11210TIP3    H233574   6.395   6.515   6.471
11211TIP3   OH233575   0.326   4.491   4.768
11211TIP3    H133576   0.266   4.545   4.715
11211TIP3    H233577   0.348   4.417   4.712
11212TIP3   OH233578   2.177   5.973   3.423
11212TIP3    H133579   2.162   6.003   3.512
11212TIP3    H233580   2.191   5.878   3.431
11213TIP3   OH233581   3.626   5.201   3.641
11213TIP3    H133582   3.557   5.265   3.659
11213TIP3    H233583   3.618   5.183   3.547
11214TIP3   OH233584   4.265   0.479   6.606
11214TIP3    H133585   4.354   0.491   6.641
11214TIP3    H233586   4.260   0.386   6.585
11215TIP3   OH233587   1.204   3.321   2.555
11215TIP3    H133588   1.131   3.370   2.516
11215TIP3    H233589   1.171   3.232   2.564
11216TIP3   OH233590   6.634   1.831   3.055
11216TIP3    H133591   6.580   1.852   2.979
11216TIP3    H233592   6.630   1.909   3.110
11217TIP3   OH233593   5.641   6.981   1.488
11217TIP3    H133594   5.625   6.955   1.397
11217TIP3    H233595   5.553   6.988   1.526
11218TIP3   OH233596   6.684   6.441   1.021
11218TIP3    H133597   6.650   6.444   0.932
11218TIP3    H233598   6.644   6.364   1.061
11219TIP3   OH233599   0.635   2.751   3.530
11219TIP3    H133600   0.686   2.828   3.505
11219TIP3    H233601   0.544   2.778   3.520
11220TIP3   OH233602   4.105   1.606   2.429
11220TIP3    H133603   4.142   1.576   2.346
11220TIP3    H233604   4.049   1.679   2.405
11221TIP3   OH233605   2.711   6.817   2.420
11221TIP3    H133606   2.779   6.814   2.354
11221TIP3    H233607   2.669   6.902   2.408
11222TIP3   OH233608   1.659   0.997   3.789
11222TIP3    H133609   1.635   0.937   3.718
11222TIP3    H233610   1.744   0.965   3.819
11223TIP3   OH233611   7.695   3.966   0.898
11223TIP3    H133612   7.655   4.004   0.976
11223TIP3    H233613   7.775   3.924   0.930
11224TIP3   OH233614   7.715   7.777   1.429
11224TIP3    H133615   7.659   7.723   1.373
11224TIP3    H233616   7.669   7.780   1.512
11225TIP3   OH233617   0.506   7.305   1.124
11225TIP3    H133618   0.582   7.362   1.129
11225TIP3    H233619   0.521   7.239   1.191
11226TIP3   OH233620   7.978   3.933   3.028
11226TIP3    H133621   8.069   3.960   3.022
11226TIP3    H233622   7.943   3.947   2.940
11227TIP3   OH233623   7.690   5.023   5.845
11227TIP3    H133624   7.698   4.938   5.801
11227TIP3    H233625   7.664   5.083   5.776
11228TIP3   OH233626   3.403   3.019   1.598
11228TIP3    H133627   3.353   3.073   1.660
11228TIP3    H233628   3.446   2.954   1.654
11229TIP3   OH233629   5.478   2.346   1.275
11229TIP3    H133630   5.409   2.346   1.209
11229TIP3    H233631   5.540   2.279   1.245
11230TIP3   OH233632   3.689   7.212   2.429
11230TIP3    H133633   3.675   7.168   2.345
11230TIP3    H233634   3.604   7.248   2.452
11231TIP3   OH233635   2.907   3.220   1.216
11231TIP3    H133636   2.870   3.176   1.293
11231TIP3    H233637   3.000   3.231   1.237
11232TIP3   OH233638   5.572   3.044   3.986
11232TIP3    H133639   5.577   2.970   4.048
11232TIP3    H233640   5.530   3.007   3.908
11233TIP3   OH233641   1.634   5.027   1.597
11233TIP3    H133642   1.588   4.993   1.674
11233TIP3    H233643   1.724   5.040   1.625
11234TIP3   OH233644   7.344   6.983   5.554
11234TIP3    H133645   7.358   6.896   5.515
11234TIP3    H233646   7.338   6.966   5.648
11235TIP3   OH233647   1.171   3.579   4.854
11235TIP3    H133648   1.150   3.486   4.845
11235TIP3    H233649   1.138   3.619   4.773
11236TIP3   OH233650   6.854   5.060   3.186
11236TIP3    H133651   6.933   5.009   3.204
11236TIP3    H233652   6.825   5.090   3.272
11237TIP3   OH233653   1.252   4.471   4.186
11237TIP3    H133654   1.340   4.462   4.150
11237TIP3    H233655   1.195   4.436   4.118
11238TIP3   OH233656   7.358   2.825   4.340
11238TIP3    H133657   7.309   2.907   4.337
11238TIP3    H233658   7.296   2.761   4.375
11239TIP3   OH233659   8.096   5.068   0.312
11239TIP3    H133660   8.096   5.020   0.395
11239TIP3    H233661   8.176   5.121   0.315
11240TIP3   OH233662   0.786   4.611   6.319
11240TIP3    H133663   0.717   4.583   6.259
11240TIP3    H233664   0.787   4.707   6.312
11241TIP3   OH233665   5.833   4.678   1.347
11241TIP3    H133666   5.877   4.636   1.421
11241TIP3    H233667   5.811   4.765   1.379
11242TIP3   OH233668   1.806   6.044   0.199
11242TIP3    H133669   1.896   6.074   0.191
11242TIP3    H233670   1.778   6.028   0.109
11243TIP3   OH233671   2.895   6.726   3.155
11243TIP3    H133672   2.896   6.811   3.200
11243TIP3    H233673   2.824   6.677   3.198
11244TIP3   OH233674   1.467   4.160   1.345
11244TIP3    H133675   1.522   4.234   1.373
11244TIP3    H233676   1.528   4.087   1.338
11245TIP3   OH233677   0.132   3.466   0.500
11245TIP3    H133678   0.153   3.491   0.590
11245TIP3    H233679   0.194   3.395   0.480
11246TIP3   OH233680   5.460   6.403   4.537
11246TIP3    H133681   5.533   6.461   4.561
11246TIP3    H233682   5.493   6.353   4.462
11247TIP3   OH233683   0.151   4.192   5.157
11247TIP3    H133684   0.227   4.179   5.214
11247TIP3    H233685   0.184   4.178   5.069
11248TIP3   OH233686   1.556   3.188   1.329
11248TIP3    H133687   1.484   3.232   1.374
11248TIP3    H233688   1.537   3.094   1.338
11249TIP3   OH233689   2.591   5.911   6.514
11249TIP3    H133690   2.649   5.934   6.587
11249TIP3    H233691   2.552   5.994   6.487
11250TIP3   OH233692   1.602   5.017   2.190
11250TIP3    H133693   1.626   4.926   2.175
11250TIP3    H233694   1.667   5.050   2.252
11251TIP3   OH233695   3.251   1.914   3.408
11251TIP3    H133696   3.199   1.994   3.418
11251TIP3    H233697   3.228   1.862   3.485
11252TIP3   OH233698   6.266   6.279   2.620
11252TIP3    H133699   6.174   6.278   2.592
11252TIP3    H233700   6.303   6.354   2.574
11253TIP3   OH233701   6.329   2.529   2.449
11253TIP3    H133702   6.269   2.523   2.523
11253TIP3    H233703   6.403   2.474   2.473
11254TIP3   OH233704   4.011   1.680   3.539
11254TIP3    H133705   3.955   1.629   3.597
11254TIP3    H233706   4.099   1.645   3.554
11255TIP3   OH233707   3.075   1.320   3.006
11255TIP3    H133708   3.028   1.245   2.969
11255TIP3    H233709   3.009   1.368   3.055
11256TIP3   OH233710   0.418   2.727   6.162
11256TIP3    H133711   0.384   2.769   6.083
11256TIP3    H233712   0.385   2.637   6.159
11257TIP3   OH233713   5.114   7.040   3.575
11257TIP3    H133714   5.090   6.957   3.616
11257TIP3    H233715   5.091   7.029   3.482
11258TIP3   OH233716   4.803   5.603  -0.024
11258TIP3    H133717   4.803   5.592   0.071
11258TIP3    H233718   4.840   5.690  -0.038
11259TIP3   OH233719   5.102   0.703   6.392
11259TIP3    H133720   5.140   0.636   6.336
11259TIP3    H233721   5.008   0.689   6.387
11260TIP3   OH233722   2.937   3.124   4.394
11260TIP3    H133723   2.938   3.030   4.375
11260TIP3    H233724   2.845   3.148   4.393
11261TIP3   OH233725   7.744   3.247   1.264
11261TIP3    H133726   7.716   3.264   1.174
11261TIP3    H233727   7.748   3.151   1.270
11262TIP3   OH233728   5.689   7.021   3.463
11262TIP3    H133729   5.693   7.095   3.524
11262TIP3    H233730   5.712   6.945   3.517
11263TIP3   OH233731   3.453   6.812   5.750
11263TIP3    H133732   3.436   6.784   5.840
11263TIP3    H233733   3.367   6.829   5.713
11264TIP3   OH233734   8.235   0.687   1.731
11264TIP3    H133735   8.204   0.763   1.681
11264TIP3    H233736   8.173   0.617   1.710
11265TIP3   OH233737   6.194   0.212   4.586
11265TIP3    H133738   6.222   0.268   4.659
11265TIP3    H233739   6.171   0.129   4.628
11266TIP3   OH233740   7.339   7.449   1.429
11266TIP3    H133741   7.331   7.529   1.377
11266TIP3    H233742   7.412   7.401   1.388
11267TIP3   OH233743   2.271   2.373   4.704
11267TIP3    H133744   2.242   2.423   4.780
11267TIP3    H233745   2.246   2.283   4.723
11268TIP3   OH233746   5.278   3.678   0.620
11268TIP3    H133747   5.238   3.636   0.697
11268TIP3    H233748   5.278   3.772   0.642
11269TIP3   OH233749   0.769   3.746   0.929
11269TIP3    H133750   0.727   3.752   1.015
11269TIP3    H233751   0.760   3.654   0.904
11270TIP3   OH233752   2.421   5.932   0.967
11270TIP3    H133753   2.463   5.989   0.903
11270TIP3    H233754   2.431   5.978   1.050
11271TIP3   OH233755   2.592   1.465   0.741
11271TIP3    H133756   2.504   1.501   0.745
11271TIP3    H233757   2.644   1.533   0.697
11272TIP3   OH233758   6.538   2.736   6.450
11272TIP3    H133759   6.530   2.827   6.478
11272TIP3    H233760   6.528   2.739   6.355
11273TIP3   OH233761   3.043   6.432   4.369
11273TIP3    H133762   3.062   6.475   4.285
11273TIP3    H233763   3.115   6.459   4.427
11274TIP3   OH233764   3.808   3.724   3.720
11274TIP3    H133765   3.899   3.701   3.738
11274TIP3    H233766   3.759   3.683   3.792
11275TIP3   OH233767   1.978   5.972   6.705
11275TIP3    H133768   1.977   6.054   6.755
11275TIP3    H233769   2.070   5.947   6.701
11276TIP3   OH233770   1.378   2.008   0.681
11276TIP3    H133771   1.466   1.992   0.716
11276TIP3    H233772   1.350   1.922   0.649
11277TIP3   OH233773   0.133   1.785   0.867
11277TIP3    H133774   0.042   1.805   0.844
11277TIP3    H233775   0.157   1.853   0.929
11278TIP3   OH233776   7.025   2.035   2.234
11278TIP3    H133777   6.974   2.095   2.288
11278TIP3    H233778   6.967   2.012   2.162
11279TIP3   OH233779   6.717   7.620   5.852
11279TIP3    H133780   6.626   7.626   5.824
11279TIP3    H233781   6.718   7.550   5.917
11280TIP3   OH233782   3.706   1.758   3.001
11280TIP3    H133783   3.769   1.709   2.949
11280TIP3    H233784   3.641   1.693   3.027
11281TIP3   OH233785   5.468   6.079   0.509
11281TIP3    H133786   5.547   6.112   0.466
11281TIP3    H233787   5.498   6.004   0.560
11282TIP3   OH233788   8.021   0.787   1.014
11282TIP3    H133789   8.115   0.808   1.006
11282TIP3    H233790   8.018   0.691   1.013
11283TIP3   OH233791   1.313   7.075   4.325
11283TIP3    H133792   1.246   7.007   4.332
11283TIP3    H233793   1.292   7.121   4.243
11284TIP3   OH233794   6.097   3.021   1.646
11284TIP3    H133795   6.058   2.974   1.572
11284TIP3    H233796   6.113   2.953   1.712
11285TIP3   OH233797   1.090   1.005   3.749
11285TIP3    H133798   1.132   0.983   3.833
11285TIP3    H233799   1.011   1.052   3.773
11286TIP3   OH233800   2.375   4.944   1.854
11286TIP3    H133801   2.400   4.913   1.941
11286TIP3    H233802   2.330   4.870   1.814
11287TIP3   OH233803   3.717   2.597   5.756
11287TIP3    H133804   3.672   2.535   5.699
11287TIP3    H233805   3.672   2.680   5.742
11288TIP3   OH233806   0.989   0.358   5.374
11288TIP3    H133807   0.985   0.265   5.396
11288TIP3    H233808   0.897   0.384   5.367
11289TIP3   OH233809   1.013   0.066   4.137
11289TIP3    H133810   0.919   0.074   4.150
11289TIP3    H233811   1.025  -0.016   4.090
11290TIP3   OH233812   3.610   0.566   2.711
11290TIP3    H133813   3.530   0.519   2.737
11290TIP3    H233814   3.580   0.627   2.643
11291TIP3   OH233815   8.049   5.519   1.664
11291TIP3    H133816   8.015   5.505   1.752
11291TIP3    H233817   8.102   5.441   1.646
11292TIP3   OH233818   2.449   5.871   0.273
11292TIP3    H133819   2.453   5.949   0.328
11292TIP3    H233820   2.463   5.904   0.184
11293TIP3   OH233821   7.130   1.609   0.491
11293TIP3    H133822   7.100   1.520   0.469
11293TIP3    H233823   7.049   1.659   0.501
11294TIP3   OH233824   3.570   7.172   2.156
11294TIP3    H133825   3.546   7.178   2.063
11294TIP3    H233826   3.640   7.237   2.167
11295TIP3   OH233827   2.786   0.598   1.520
11295TIP3    H133828   2.776   0.520   1.575
11295TIP3    H233829   2.715   0.592   1.456
11296TIP3   OH233830   2.431   4.785   2.074
11296TIP3    H133831   2.492   4.712   2.082
11296TIP3    H233832   2.447   4.839   2.151
11297TIP3   OH233833   5.395   4.448   3.625
11297TIP3    H133834   5.459   4.377   3.634
11297TIP3    H233835   5.424   4.515   3.687
11298TIP3   OH233836   1.862   3.803   2.667
11298TIP3    H133837   1.831   3.716   2.640
11298TIP3    H233838   1.793   3.838   2.722
11299TIP3   OH233839   7.991   2.500   4.835
11299TIP3    H133840   7.935   2.577   4.819
11299TIP3    H233841   8.051   2.499   4.761
11300TIP3   OH233842   7.395   0.851   2.540
11300TIP3    H133843   7.376   0.817   2.628
11300TIP3    H233844   7.489   0.868   2.542
11301TIP3   OH233845   1.832   0.887   6.336
11301TIP3    H133846   1.885   0.958   6.373
11301TIP3    H233847   1.795   0.843   6.413
11302TIP3   OH233848   5.092   0.532   5.283
11302TIP3    H133849   5.178   0.499   5.309
11302TIP3    H233850   5.046   0.454   5.251
11303TIP3   OH233851   7.588   2.093   4.400
11303TIP3    H133852   7.647   2.050   4.461
11303TIP3    H233853   7.640   2.165   4.363
11304TIP3   OH233854   6.929   3.613   3.249
11304TIP3    H133855   6.998   3.547   3.249
11304TIP3    H233856   6.865   3.580   3.312
11305TIP3   OH233857   8.050   1.975   1.672
11305TIP3    H133858   7.960   2.006   1.684
11305TIP3    H233859   8.100   2.053   1.650
11306TIP3   OH233860   4.096   6.489   3.148
11306TIP3    H133861   4.075   6.430   3.077
11306TIP3    H233862   4.017   6.541   3.161
11307TIP3   OH233863   7.417   6.320   0.520
11307TIP3    H133864   7.471   6.299   0.444
11307TIP3    H233865   7.328   6.300   0.493
11308TIP3   OH233866   1.834   5.821   1.042
11308TIP3    H133867   1.883   5.859   1.115
11308TIP3    H233868   1.745   5.811   1.074
11309TIP3   OH233869   0.423   2.590   4.758
11309TIP3    H133870   0.497   2.593   4.697
11309TIP3    H233871   0.348   2.567   4.703
11310TIP3   OH233872   4.044   2.337   3.799
11310TIP3    H133873   4.123   2.287   3.780
11310TIP3    H233874   4.034   2.396   3.725
11311TIP3   OH233875   5.275   1.070   5.320
11311TIP3    H133876   5.231   1.110   5.245
11311TIP3    H233877   5.205   1.054   5.384
11312TIP3   OH233878   5.186   2.743   1.593
11312TIP3    H133879   5.269   2.748   1.547
11312TIP3    H233880   5.177   2.828   1.636
11313TIP3   OH233881   6.429   4.154   3.717
11313TIP3    H133882   6.350   4.205   3.734
11313TIP3    H233883   6.466   4.194   3.638
11314TIP3   OH233884   4.038   7.019   5.868
11314TIP3    H133885   3.953   7.044   5.831
11314TIP3    H233886   4.103   7.055   5.809
11315TIP3   OH233887   6.476   3.793   4.256
11315TIP3    H133888   6.554   3.772   4.308
11315TIP3    H233889   6.427   3.854   4.312
11316TIP3   OH233890   7.632   3.723   3.166
11316TIP3    H133891   7.673   3.663   3.104
11316TIP3    H233892   7.545   3.740   3.128
11317TIP3   OH233893   3.193   5.256   0.315
11317TIP3    H133894   3.170   5.341   0.279
11317TIP3    H233895   3.119   5.200   0.292
11318TIP3   OH233896   0.773   6.195   1.012
11318TIP3    H133897   0.725   6.273   1.040
11318TIP3    H233898   0.774   6.200   0.917
11319TIP3   OH233899   8.123   4.178   2.003
11319TIP3    H133900   8.126   4.124   1.925
11319TIP3    H233901   8.041   4.226   1.996
11320TIP3   OH233902   1.204   4.575   6.645
11320TIP3    H133903   1.153   4.551   6.568
11320TIP3    H233904   1.197   4.670   6.650
11321TIP3   OH233905   3.566   6.561   0.506
11321TIP3    H133906   3.553   6.620   0.432
11321TIP3    H233907   3.660   6.561   0.521
11322TIP3   OH233908   2.533   7.798   4.221
11322TIP3    H133909   2.518   7.881   4.175
11322TIP3    H233910   2.521   7.731   4.154
11323TIP3   OH233911   3.979   2.838   5.704
11323TIP3    H133912   3.924   2.893   5.759
11323TIP3    H233913   3.937   2.838   5.618
11324TIP3   OH233914   6.984   2.907   6.097
11324TIP3    H133915   6.992   2.824   6.144
11324TIP3    H233916   7.064   2.914   6.045
11325TIP3   OH233917   4.715   6.051   3.313
11325TIP3    H133918   4.800   6.008   3.324
11325TIP3    H233919   4.652   5.980   3.318
11326TIP3   OH233920   7.417   3.062   2.989
11326TIP3    H133921   7.405   3.149   2.952
11326TIP3    H233922   7.341   3.050   3.047
11327TIP3   OH233923   3.633   2.144   4.282
11327TIP3    H133924   3.657   2.158   4.190
11327TIP3    H233925   3.538   2.151   4.283
11328TIP3   OH233926   0.422   1.692   3.452
11328TIP3    H133927   0.489   1.650   3.398
11328TIP3    H233928   0.460   1.778   3.474
11329TIP3   OH233929   7.985   3.937   6.614
11329TIP3    H133930   7.992   3.843   6.632
11329TIP3    H233931   8.067   3.959   6.569
11330TIP3   OH233932   3.114   0.816   5.881
11330TIP3    H133933   3.086   0.907   5.887
11330TIP3    H233934   3.149   0.807   5.793
11331TIP3   OH233935   4.778   1.497   0.827
11331TIP3    H133936   4.828   1.484   0.747
11331TIP3    H233937   4.728   1.577   0.812
11332TIP3   OH233938   8.127   5.960   4.382
11332TIP3    H133939   8.195   5.894   4.393
11332TIP3    H233940   8.175   6.041   4.364
11333TIP3   OH233941   5.157   2.066   5.418
11333TIP3    H133942   5.234   2.059   5.361
11333TIP3    H233943   5.087   2.024   5.369
11334TIP3   OH233944   4.955   5.047   4.361
11334TIP3    H133945   4.910   5.088   4.287
11334TIP3    H233946   4.974   4.958   4.331
11335TIP3   OH233947   5.229   0.799   0.823
11335TIP3    H133948   5.193   0.816   0.910
11335TIP3    H233949   5.156   0.817   0.763
11336TIP3   OH233950   7.169   7.150   4.647
11336TIP3    H133951   7.176   7.244   4.664
11336TIP3    H233952   7.122   7.145   4.563
11337TIP3   OH233953   4.359   6.275   1.725
11337TIP3    H133954   4.436   6.236   1.766
11337TIP3    H233955   4.389   6.297   1.637
11338TIP3   OH233956   5.528   6.855   4.160
11338TIP3    H133957   5.518   6.787   4.093
11338TIP3    H233958   5.623   6.866   4.169
11339TIP3   OH233959   5.448   5.988   3.674
11339TIP3    H133960   5.467   5.953   3.587
11339TIP3    H233961   5.484   5.923   3.734
11340TIP3   OH233962   0.609   6.075   0.676
11340TIP3    H133963   0.648   6.002   0.724
11340TIP3    H233964   0.531   6.038   0.635
11341TIP3   OH233965   0.633   0.540   4.170
11341TIP3    H133966   0.632   0.468   4.233
11341TIP3    H233967   0.558   0.594   4.194
11342TIP3   OH233968   5.862   4.690   6.444
11342TIP3    H133969   5.925   4.645   6.388
11342TIP3    H233970   5.886   4.782   6.440
11343TIP3   OH233971   7.383   3.530   5.695
11343TIP3    H133972   7.427   3.606   5.732
11343TIP3    H233973   7.316   3.507   5.759
11344TIP3   OH233974   7.431   3.316   1.734
11344TIP3    H133975   7.430   3.291   1.641
11344TIP3    H233976   7.524   3.314   1.758
11345TIP3   OH233977   7.629   3.177   4.127
11345TIP3    H133978   7.659   3.104   4.072
11345TIP3    H233979   7.561   3.220   4.075
11346TIP3   OH233980   4.778   2.163   5.418
11346TIP3    H133981   4.755   2.248   5.380
11346TIP3    H233982   4.806   2.183   5.507
11347TIP3   OH233983   0.764   2.654   1.791
11347TIP3    H133984   0.674   2.666   1.760
11347TIP3    H233985   0.819   2.689   1.720
11348TIP3   OH233986   0.051   7.101   0.892
11348TIP3    H133987   0.040   7.071   0.982
11348TIP3    H233988   0.141   7.077   0.869
11349TIP3   OH233989   4.117   5.925   1.419
11349TIP3    H133990   4.063   5.914   1.341
11349TIP3    H233991   4.097   5.849   1.474
11350TIP3   OH233992   6.439   4.272   6.129
11350TIP3    H133993   6.372   4.272   6.060
11350TIP3    H233994   6.457   4.365   6.146
11351TIP3   OH233995   5.031   0.749   3.388
11351TIP3    H133996   4.967   0.751   3.317
11351TIP3    H233997   5.000   0.816   3.450
11352TIP3   OH233998   3.237   4.855   5.516
11352TIP3    H133999   3.251   4.762   5.499
11352TIP3    H234000   3.232   4.895   5.430
11353TIP3   OH234001   4.177   4.498   0.621
11353TIP3    H134002   4.190   4.412   0.583
11353TIP3    H234003   4.212   4.491   0.710
11354TIP3   OH234004   3.341   1.595   1.432
11354TIP3    H134005   3.262   1.609   1.381
11354TIP3    H234006   3.383   1.681   1.435
11355TIP3   OH234007   1.231   2.882   3.354
11355TIP3    H134008   1.188   2.876   3.269
11355TIP3    H234009   1.303   2.819   3.350
11356TIP3   OH234010   0.081   2.960   3.496
11356TIP3    H134011   0.150   3.026   3.490
11356TIP3    H234012   0.011   3.002   3.545
11357TIP3   OH234013   0.773   4.511   4.764
11357TIP3    H134014   0.700   4.506   4.825
11357TIP3    H234015   0.776   4.602   4.736
11358TIP3   OH234016   0.223   4.498   1.401
11358TIP3    H134017   0.135   4.530   1.420
11358TIP3    H234018   0.209   4.409   1.368
11359TIP3   OH234019   7.370   0.517   2.982
11359TIP3    H134020   7.393   0.581   3.049
11359TIP3    H234021   7.425   0.540   2.907
11360TIP3   OH234022   4.390   7.712   3.132
11360TIP3    H134023   4.331   7.744   3.064
11360TIP3    H234024   4.405   7.787   3.189
11361TIP3   OH234025   2.623   7.038   1.568
11361TIP3    H134026   2.580   6.957   1.540
11361TIP3    H234027   2.716   7.021   1.555
11362TIP3   OH234028   1.939   1.723   5.376
11362TIP3    H134029   1.904   1.642   5.415
11362TIP3    H234030   1.958   1.699   5.285
11363TIP3   OH234031   7.306   4.918   2.697
11363TIP3    H134032   7.299   4.991   2.635
11363TIP3    H234033   7.217   4.907   2.730
11364TIP3   OH234034   5.905   2.518   3.371
11364TIP3    H134035   5.860   2.455   3.427
11364TIP3    H234036   5.837   2.555   3.316
11365TIP3   OH234037   6.565   0.282   2.238
11365TIP3    H134038   6.656   0.310   2.239
11365TIP3    H234039   6.548   0.256   2.148
11366TIP3   OH234040   1.653   4.371   1.376
11366TIP3    H134041   1.631   4.411   1.292
11366TIP3    H234042   1.744   4.395   1.391
11367TIP3   OH234043   1.640   0.415   1.954
11367TIP3    H134044   1.659   0.323   1.972
11367TIP3    H234045   1.606   0.450   2.037
11368TIP3   OH234046   6.990   1.053   3.971
11368TIP3    H134047   6.959   0.966   3.947
11368TIP3    H234048   7.062   1.037   4.032
11369TIP3   OH234049   7.940   3.915   4.691
11369TIP3    H134050   8.013   3.864   4.725
11369TIP3    H234051   7.868   3.852   4.682
11370TIP3   OH234052   0.002   1.494   2.399
11370TIP3    H134053   0.057   1.547   2.457
11370TIP3    H234054  -0.082   1.487   2.445
11371TIP3   OH234055   0.900   4.022   2.110
11371TIP3    H134056   0.931   4.058   2.026
11371TIP3    H234057   0.833   3.958   2.086
11372TIP3   OH234058   5.147   6.048   2.158
11372TIP3    H134059   5.218   5.999   2.200
11372TIP3    H234060   5.142   6.012   2.069
11373TIP3   OH234061   8.264   2.578   5.115
11373TIP3    H134062   8.175   2.609   5.096
11373TIP3    H234063   8.320   2.635   5.063
11374TIP3   OH234064   4.689   7.130   3.618
11374TIP3    H134065   4.740   7.076   3.678
11374TIP3    H234066   4.619   7.166   3.673
11375TIP3   OH234067   3.773   4.659   5.230
11375TIP3    H134068   3.867   4.641   5.224
11375TIP3    H234069   3.768   4.743   5.275
11376TIP3   OH234070   6.331   3.741   6.680
11376TIP3    H134071   6.397   3.671   6.681
11376TIP3    H234072   6.366   3.807   6.621
11377TIP3   OH234073   3.864   1.550   3.744
11377TIP3    H134074   3.779   1.584   3.774
11377TIP3    H234075   3.910   1.526   3.824
11378TIP3   OH234076   7.356   2.528   1.964
11378TIP3    H134077   7.296   2.454   1.979
11378TIP3    H234078   7.410   2.499   1.891
11379TIP3   OH234079   5.868   4.028   6.587
11379TIP3    H134080   5.865   4.123   6.580
11379TIP3    H234081   5.777   4.002   6.598
11380TIP3   OH234082   3.684   4.399   1.192
11380TIP3    H134083   3.719   4.362   1.273
11380TIP3    H234084   3.593   4.370   1.190
11381TIP3   OH234085   6.143   3.419   2.620
11381TIP3    H134086   6.113   3.460   2.539
11381TIP3    H234087   6.199   3.486   2.661
11382TIP3   OH234088   5.692   5.595   4.494
11382TIP3    H134089   5.766   5.653   4.478
11382TIP3    H234090   5.690   5.537   4.418
11383TIP3   OH234091   6.672   4.864   5.582
11383TIP3    H134092   6.596   4.922   5.580
11383TIP3    H234093   6.743   4.916   5.543
11384TIP3   OH234094   0.589   3.100   4.274
11384TIP3    H134095   0.517   3.131   4.330
11384TIP3    H234096   0.614   3.016   4.313
11385TIP3   OH234097   6.308   3.693   0.071
11385TIP3    H134098   6.264   3.752   0.010
11385TIP3    H234099   6.293   3.731   0.157
11386TIP3   OH234100   6.312   0.722   1.819
11386TIP3    H134101   6.247   0.780   1.778
11386TIP3    H234102   6.395   0.769   1.807
11387TIP3   OH234103   1.581   2.083   4.640
11387TIP3    H134104   1.538   2.104   4.558
11387TIP3    H234105   1.523   2.118   4.708
11388TIP3   OH234106   3.894   0.819   3.368
11388TIP3    H134107   3.968   0.778   3.414
11388TIP3    H234108   3.901   0.912   3.390
11389TIP3   OH234109   1.630   7.245   2.878
11389TIP3    H134110   1.558   7.185   2.898
11389TIP3    H234111   1.708   7.190   2.878
11390TIP3   OH234112   7.726   4.410   5.206
11390TIP3    H134113   7.793   4.476   5.188
11390TIP3    H234114   7.691   4.434   5.292
11391TIP3   OH234115   5.215   0.245   3.817
11391TIP3    H134116   5.249   0.319   3.766
11391TIP3    H234117   5.242   0.167   3.768
11392TIP3   OH234118   7.376   3.913   1.710
11392TIP3    H134119   7.392   3.828   1.751
11392TIP3    H234120   7.337   3.966   1.779
11393TIP3   OH234121   0.914   6.716   4.652
11393TIP3    H134122   0.887   6.787   4.710
11393TIP3    H234123   0.856   6.724   4.576
11394TIP3   OH234124   3.646   6.001   3.150
11394TIP3    H134125   3.562   6.036   3.178
11394TIP3    H234126   3.666   5.932   3.214
11395TIP3   OH234127   0.938   7.580   3.572
11395TIP3    H134128   0.844   7.582   3.555
11395TIP3    H234129   0.976   7.638   3.506
11396TIP3   OH234130   0.980   6.311   2.244
11396TIP3    H134131   0.912   6.260   2.199
11396TIP3    H234132   1.063   6.274   2.212
11397TIP3   OH234133   8.123   2.282   0.715
11397TIP3    H134134   8.028   2.273   0.705
11397TIP3    H234135   8.158   2.197   0.688
11398TIP3   OH234136   7.114   4.016   3.678
11398TIP3    H134137   7.201   4.056   3.688
11398TIP3    H234138   7.074   4.063   3.605
11399TIP3   OH234139   4.469   3.392   2.844
11399TIP3    H134140   4.453   3.485   2.835
11399TIP3    H234141   4.488   3.362   2.755
11400TIP3   OH234142   2.159   4.839   2.894
11400TIP3    H134143   2.197   4.927   2.895
11400TIP3    H234144   2.081   4.847   2.839
11401TIP3   OH234145   2.656   5.655   0.236
11401TIP3    H134146   2.678   5.619   0.322
11401TIP3    H234147   2.586   5.718   0.254
11402TIP3   OH234148   0.321   4.176   1.746
11402TIP3    H134149   0.297   4.122   1.822
11402TIP3    H234150   0.237   4.210   1.714
11403TIP3   OH234151   1.499   3.230   0.940
11403TIP3    H134152   1.467   3.142   0.920
11403TIP3    H234153   1.435   3.265   1.002
11404TIP3   OH234154   3.462   5.437   3.729
11404TIP3    H134155   3.493   5.464   3.643
11404TIP3    H234156   3.411   5.512   3.760
11405TIP3   OH234157   2.104   0.122   3.864
11405TIP3    H134158   2.050   0.048   3.836
11405TIP3    H234159   2.109   0.113   3.960
11406TIP3   OH234160   6.705   4.796   2.965
11406TIP3    H134161   6.729   4.723   2.908
11406TIP3    H234162   6.754   4.870   2.930
11407TIP3   OH234163   2.374   5.513   6.533
11407TIP3    H134164   2.354   5.421   6.515
11407TIP3    H234165   2.425   5.511   6.614
11408TIP3   OH234166   0.914   4.262   5.809
11408TIP3    H134167   0.985   4.295   5.754
11408TIP3    H234168   0.887   4.180   5.767
11409TIP3   OH234169   0.962   0.723   3.030
11409TIP3    H134170   1.051   0.704   3.003
11409TIP3    H234171   0.958   0.696   3.122
11410TIP3   OH234172   5.247   6.671   5.125
11410TIP3    H134173   5.168   6.621   5.145
11410TIP3    H234174   5.295   6.672   5.208
11411TIP3   OH234175   6.617   4.241   0.829
11411TIP3    H134176   6.629   4.147   0.835
11411TIP3    H234177   6.692   4.278   0.875
11412TIP3   OH234178   2.993   4.041   0.923
11412TIP3    H134179   2.973   4.043   0.830
11412TIP3    H234180   2.909   4.056   0.966
11413TIP3   OH234181   4.559   1.652   2.026
11413TIP3    H134182   4.537   1.651   1.933
11413TIP3    H234183   4.637   1.707   2.032
11414TIP3   OH234184   1.833   5.970   4.277
11414TIP3    H134185   1.875   5.999   4.359
11414TIP3    H234186   1.857   6.038   4.213
11415TIP3   OH234187   6.949   7.728   0.863
11415TIP3    H134188   6.873   7.786   0.867
11415TIP3    H234189   6.920   7.654   0.810
11416TIP3   OH234190   2.133   0.182   6.665
11416TIP3    H134191   2.146   0.113   6.729
11416TIP3    H234192   2.038   0.190   6.658
11417TIP3   OH234193   1.627   6.251   1.542
11417TIP3    H134194   1.537   6.221   1.555
11417TIP3    H234195   1.665   6.189   1.480
11418TIP3   OH234196   7.647   1.067   2.943
11418TIP3    H134197   7.597   0.997   2.984
11418TIP3    H234198   7.593   1.095   2.869
11419TIP3   OH234199   3.907   7.648   1.836
11419TIP3    H134200   3.908   7.629   1.742
11419TIP3    H234201   3.995   7.622   1.866
11420TIP3   OH234202   0.858   7.242   0.171
11420TIP3    H134203   0.896   7.211   0.089
11420TIP3    H234204   0.932   7.245   0.232
11421TIP3   OH234205   5.171   1.356   5.459
11421TIP3    H134206   5.177   1.371   5.365
11421TIP3    H234207   5.254   1.314   5.482
11422TIP3   OH234208   7.859   2.708   3.615
11422TIP3    H134209   7.803   2.636   3.645
11422TIP3    H234210   7.823   2.732   3.529
11423TIP3   OH234211   4.233   6.304   0.240
11423TIP3    H134212   4.191   6.324   0.324
11423TIP3    H234213   4.169   6.250   0.194
11424TIP3   OH234214   6.882   7.761   5.553
11424TIP3    H134215   6.791   7.768   5.581
11424TIP3    H234216   6.878   7.719   5.467
11425TIP3   OH234217   1.014   0.513   0.491
11425TIP3    H134218   1.031   0.432   0.540
11425TIP3    H234219   1.058   0.581   0.542
11426TIP3   OH234220   6.991   3.512   0.940
11426TIP3    H134221   6.981   3.453   0.865
11426TIP3    H234222   7.032   3.459   1.007
11427TIP3   OH234223   5.003   7.147   3.804
11427TIP3    H134224   5.030   7.115   3.718
11427TIP3    H234225   5.008   7.242   3.797
11428TIP3   OH234226   8.095   2.848   3.639
11428TIP3    H134227   8.030   2.777   3.649
11428TIP3    H234228   8.044   2.928   3.646
11429TIP3   OH234229   5.904   6.303   4.257
11429TIP3    H134230   5.896   6.284   4.164
11429TIP3    H234231   5.881   6.221   4.301
11430TIP3   OH234232   4.926   6.291   3.731
11430TIP3    H134233   4.849   6.306   3.785
11430TIP3    H234234   4.984   6.238   3.787
11431TIP3   OH234235   0.976   5.082   5.048
11431TIP3    H134236   1.060   5.124   5.066
11431TIP3    H234237   0.938   5.066   5.135
11432TIP3   OH234238   4.020   3.450   4.871
11432TIP3    H134239   3.960   3.487   4.806
11432TIP3    H234240   4.057   3.373   4.828
11433TIP3   OH234241   3.220   5.777   2.093
11433TIP3    H134242   3.250   5.701   2.144
11433TIP3    H234243   3.183   5.739   2.013
11434TIP3   OH234244   4.695   4.269   0.113
11434TIP3    H134245   4.782   4.249   0.148
11434TIP3    H234246   4.711   4.298   0.023
11435TIP3   OH234247   1.321   0.333   0.248
11435TIP3    H134248   1.395   0.298   0.298
11435TIP3    H234249   1.254   0.266   0.254
11436TIP3   OH234250   6.172   2.849   2.522
11436TIP3    H134251   6.182   2.863   2.428
11436TIP3    H234252   6.244   2.790   2.545
11437TIP3   OH234253   7.868   0.265   6.484
11437TIP3    H134254   7.851   0.201   6.553
11437TIP3    H234255   7.889   0.346   6.531
11438TIP3   OH234256   3.622   4.117   1.686
11438TIP3    H134257   3.603   4.064   1.763
11438TIP3    H234258   3.576   4.200   1.701
11439TIP3   OH234259   6.606   4.902   1.357
11439TIP3    H134260   6.517   4.889   1.325
11439TIP3    H234261   6.651   4.819   1.338
11440TIP3   OH234262   5.595   7.267   2.400
11440TIP3    H134263   5.637   7.313   2.474
11440TIP3    H234264   5.509   7.309   2.392
11441TIP3   OH234265   4.509   1.775   1.056
11441TIP3    H134266   4.561   1.757   0.978
11441TIP3    H234267   4.479   1.865   1.046
11442TIP3   OH234268   4.455   5.029   2.540
11442TIP3    H134269   4.481   5.014   2.449
11442TIP3    H234270   4.364   5.057   2.535
11443TIP3   OH234271   0.711   3.009   6.552
11443TIP3    H134272   0.796   3.030   6.515
11443TIP3    H234273   0.692   2.920   6.521
11444TIP3   OH234274   7.009   7.458   6.066
11444TIP3    H134275   6.988   7.529   6.127
11444TIP3    H234276   7.045   7.502   5.989
11445TIP3   OH234277   6.080   1.277   5.060
11445TIP3    H134278   6.169   1.288   5.026
11445TIP3    H234279   6.039   1.362   5.047
11446TIP3   OH234280   2.351   4.584   4.149
11446TIP3    H134281   2.438   4.616   4.124
11446TIP3    H234282   2.363   4.550   4.238
11447TIP3   OH234283   2.772   0.916   1.932
11447TIP3    H134284   2.722   0.841   1.901
11447TIP3    H234285   2.787   0.898   2.025
11448TIP3   OH234286   1.190   2.620   3.853
11448TIP3    H134287   1.165   2.711   3.836
11448TIP3    H234288   1.254   2.600   3.784
11449TIP3   OH234289   2.772   7.521   1.743
11449TIP3    H134290   2.839   7.506   1.676
11449TIP3    H234291   2.737   7.608   1.723
11450TIP3   OH234292   2.101   0.814   6.680
11450TIP3    H134293   2.122   0.770   6.598
11450TIP3    H234294   2.140   0.901   6.671
11451TIP3   OH234295   1.390   5.335   0.732
11451TIP3    H134296   1.408   5.390   0.656
11451TIP3    H234297   1.327   5.270   0.700
11452TIP3   OH234298   4.149   3.734   4.946
11452TIP3    H134299   4.071   3.775   4.907
11452TIP3    H234300   4.123   3.644   4.963
11453TIP3   OH234301   4.217   3.103   5.888
11453TIP3    H134302   4.237   3.011   5.872
11453TIP3    H234303   4.155   3.126   5.818
11454TIP3   OH234304   5.985   6.246   1.403
11454TIP3    H134305   5.933   6.233   1.482
11454TIP3    H234306   6.011   6.158   1.376
11455TIP3   OH234307   3.890   4.456   2.017
11455TIP3    H134308   3.929   4.377   2.055
11455TIP3    H234309   3.895   4.521   2.087
11456TIP3   OH234310   3.052   7.466   6.733
11456TIP3    H134311   2.959   7.457   6.751
11456TIP3    H234312   3.094   7.452   6.818
11457TIP3   OH234313   1.177   3.601   5.149
11457TIP3    H134314   1.163   3.567   5.060
11457TIP3    H234315   1.236   3.537   5.190
11458TIP3   OH234316   0.035   7.179   5.396
11458TIP3    H134317   0.000   7.106   5.446
11458TIP3    H234318   0.100   7.140   5.337
11459TIP3   OH234319   5.285   1.540   3.706
11459TIP3    H134320   5.344   1.512   3.636
11459TIP3    H234321   5.224   1.467   3.717
11460TIP3   OH234322   5.181   0.029   2.613
11460TIP3    H134323   5.136   0.109   2.641
11460TIP3    H234324   5.140  -0.041   2.664
11461TIP3   OH234325   8.144   0.142   1.234
11461TIP3    H134326   8.091   0.192   1.295
11461TIP3    H234327   8.185   0.208   1.178
11462TIP3   OH234328   3.201   3.330   5.312
11462TIP3    H134329   3.163   3.332   5.400
11462TIP3    H234330   3.291   3.299   5.324
11463TIP3   OH234331   5.168   2.688   0.815
11463TIP3    H134332   5.249   2.738   0.829
11463TIP3    H234333   5.098   2.746   0.844
11464TIP3   OH234334   2.730   2.748   2.206
11464TIP3    H134335   2.819   2.748   2.243
11464TIP3    H234336   2.683   2.682   2.257
11465TIP3   OH234337   2.023   7.760   4.823
11465TIP3    H134338   1.985   7.711   4.750
11465TIP3    H234339   1.961   7.831   4.840
11466TIP3   OH234340   4.227   1.646   1.683
11466TIP3    H134341   4.192   1.576   1.629
11466TIP3    H234342   4.316   1.660   1.652
11467TIP3   OH234343   0.599   3.633   5.403
11467TIP3    H134344   0.603   3.700   5.334
11467TIP3    H234345   0.609   3.550   5.356
11468TIP3   OH234346   6.087   3.017   2.247
11468TIP3    H134347   6.155   3.066   2.202
11468TIP3    H234348   6.091   2.929   2.210
11469TIP3   OH234349   4.725   5.817   0.333
11469TIP3    H134350   4.680   5.895   0.299
11469TIP3    H234351   4.717   5.825   0.428
11470TIP3   OH234352   5.392   6.244   6.339
11470TIP3    H134353   5.408   6.160   6.297
11470TIP3    H234354   5.478   6.272   6.370
11471TIP3   OH234355   7.071   7.464   2.337
11471TIP3    H134356   7.005   7.499   2.278
11471TIP3    H234357   7.129   7.413   2.281
11472TIP3   OH234358   3.786   0.154   6.119
11472TIP3    H134359   3.828   0.105   6.190
11472TIP3    H234360   3.710   0.101   6.094
11473TIP3   OH234361   1.936   3.757   0.798
11473TIP3    H134362   1.966   3.840   0.762
11473TIP3    H234363   1.957   3.762   0.891
11474TIP3   OH234364   5.227   5.028   3.831
11474TIP3    H134365   5.136   5.033   3.858
11474TIP3    H234366   5.256   4.942   3.860
11475TIP3   OH234367   0.279   7.723   2.531
11475TIP3    H134368   0.264   7.659   2.600
11475TIP3    H234369   0.219   7.699   2.461
11476TIP3   OH234370   0.145   1.359   0.276
11476TIP3    H134371   0.221   1.326   0.324
11476TIP3    H234372   0.092   1.281   0.259
11477TIP3   OH234373   3.314   7.164   1.426
11477TIP3    H134374   3.337   7.244   1.473
11477TIP3    H234375   3.327   7.094   1.491
11478TIP3   OH234376   5.977   4.326   1.326
11478TIP3    H134377   6.013   4.398   1.273
11478TIP3    H234378   6.028   4.249   1.299
11479TIP3   OH234379   0.281   2.211   1.559
11479TIP3    H134380   0.351   2.196   1.495
11479TIP3    H234381   0.221   2.271   1.515
11480TIP3   OH234382   2.497   6.353   4.548
11480TIP3    H134383   2.541   6.358   4.634
11480TIP3    H234384   2.569   6.354   4.485
11481TIP3   OH234385   2.867   1.263   4.709
11481TIP3    H134386   2.805   1.239   4.777
11481TIP3    H234387   2.944   1.294   4.756
11482TIP3   OH234388   4.617   2.407   3.079
11482TIP3    H134389   4.550   2.339   3.088
11482TIP3    H234390   4.696   2.368   3.116
11483TIP3   OH234391   2.509   6.513   6.384
11483TIP3    H134392   2.468   6.561   6.457
11483TIP3    H234393   2.567   6.577   6.343
11484TIP3   OH234394   7.388   6.227   2.732
11484TIP3    H134395   7.381   6.195   2.822
11484TIP3    H234396   7.318   6.292   2.725
11485TIP3   OH234397   6.921   1.587   2.099
11485TIP3    H134398   6.837   1.558   2.133
11485TIP3    H234399   6.961   1.635   2.171
11486TIP3   OH234400   2.414   2.753   6.017
11486TIP3    H134401   2.448   2.744   5.928
11486TIP3    H234402   2.324   2.785   6.005
11487TIP3   OH234403   3.664   2.833   2.930
11487TIP3    H134404   3.625   2.818   3.017
11487TIP3    H234405   3.589   2.834   2.870
11488TIP3   OH234406   5.445   5.730   5.065
11488TIP3    H134407   5.495   5.791   5.121
11488TIP3    H234408   5.496   5.649   5.067
11489TIP3   OH234409   6.788   6.554   3.704
11489TIP3    H134410   6.878   6.524   3.713
11489TIP3    H234411   6.792   6.647   3.727
11490TIP3   OH234412   7.332   4.392   3.617
11490TIP3    H134413   7.330   4.417   3.524
11490TIP3    H234414   7.387   4.458   3.658
11491TIP3   OH234415   6.489   1.018   5.097
11491TIP3    H134416   6.583   1.001   5.104
11491TIP3    H234417   6.449   0.931   5.100
11492TIP3   OH234418   7.848   1.024   1.346
11492TIP3    H134419   7.815   1.056   1.430
11492TIP3    H234420   7.943   1.039   1.350
11493TIP3   OH234421   0.381   7.623   4.239
11493TIP3    H134422   0.367   7.531   4.214
11493TIP3    H234423   0.474   7.638   4.223
11494TIP3   OH234424   8.103   1.321   6.120
11494TIP3    H134425   8.047   1.260   6.072
11494TIP3    H234426   8.048   1.397   6.136
11495TIP3   OH234427   1.620   5.881   2.825
11495TIP3    H134428   1.643   5.789   2.839
11495TIP3    H234429   1.699   5.920   2.786
11496TIP3   OH234430   0.079   1.869   2.373
11496TIP3    H134431   0.114   1.816   2.301
11496TIP3    H234432   0.027   1.807   2.424
11497TIP3   OH234433   6.278   4.108   5.409
11497TIP3    H134434   6.359   4.097   5.359
11497TIP3    H234435   6.233   4.023   5.400
11498TIP3   OH234436   2.704   3.024   6.730
11498TIP3    H134437   2.703   3.051   6.821
11498TIP3    H234438   2.757   3.090   6.685
11499TIP3   OH234439   6.102   1.040   2.176
11499TIP3    H134440   6.040   1.113   2.167
11499TIP3    H234441   6.172   1.061   2.114
11500TIP3   OH234442   7.317   2.686   3.952
11500TIP3    H134443   7.370   2.755   3.911
11500TIP3    H234444   7.300   2.624   3.881
11501TIP3   OH234445   7.470   0.146   0.307
11501TIP3    H134446   7.469   0.075   0.371
11501TIP3    H234447   7.467   0.226   0.359
11502TIP3   OH234448   2.104   6.902   0.380
11502TIP3    H134449   2.129   6.841   0.310
11502TIP3    H234450   2.030   6.860   0.423
11503TIP3   OH234451   6.613   5.326   2.364
11503TIP3    H134452   6.687   5.353   2.418
11503TIP3    H234453   6.589   5.239   2.398
11504TIP3   OH234454   5.492   0.926   5.269
11504TIP3    H134455   5.406   0.967   5.262
11504TIP3    H234456   5.552   0.998   5.287
11505TIP3   OH234457   1.476   2.698   3.122
11505TIP3    H134458   1.466   2.757   3.197
11505TIP3    H234459   1.466   2.610   3.159
11506TIP3   OH234460   5.706   6.718   0.163
11506TIP3    H134461   5.784   6.693   0.214
11506TIP3    H234462   5.648   6.758   0.227
11507TIP3   OH234463   2.914   1.760   2.311
11507TIP3    H134464   2.977   1.690   2.296
11507TIP3    H234465   2.880   1.781   2.224
11508TIP3   OH234466   5.046   2.732   2.191
11508TIP3    H134467   5.067   2.813   2.238
11508TIP3    H234468   5.027   2.761   2.101
11509TIP3   OH234469   2.750   2.128   4.360
11509TIP3    H134470   2.654   2.131   4.356
11509TIP3    H234471   2.777   2.104   4.271
11510TIP3   OH234472   5.769   3.512   3.573
11510TIP3    H134473   5.862   3.499   3.554
11510TIP3    H234474   5.758   3.607   3.577
11511TIP3   OH234475   6.150   7.396   6.678
11511TIP3    H134476   6.117   7.318   6.723
11511TIP3    H234477   6.146   7.465   6.744
11512TIP3   OH234478   6.052   2.482   4.438
11512TIP3    H134479   6.005   2.524   4.510
11512TIP3    H234480   6.049   2.546   4.366
11513TIP3   OH234481   6.104   0.188   4.152
11513TIP3    H134482   6.173   0.239   4.111
11513TIP3    H234483   6.038   0.177   4.083
11514TIP3   OH234484   4.068   5.375   4.664
11514TIP3    H134485   4.026   5.318   4.728
11514TIP3    H234486   3.996   5.411   4.612
11515TIP3   OH234487   4.860   2.162   3.816
11515TIP3    H134488   4.843   2.162   3.911
11515TIP3    H234489   4.793   2.104   3.780
11516TIP3   OH234490   8.053   2.771   4.498
11516TIP3    H134491   8.095   2.799   4.417
11516TIP3    H234492   8.100   2.691   4.523
11517TIP3   OH234493   7.908   2.104   5.799
11517TIP3    H134494   7.957   2.160   5.739
11517TIP3    H234495   7.842   2.163   5.838
11518TIP3   OH234496   1.543   1.195   2.238
11518TIP3    H134497   1.589   1.260   2.291
11518TIP3    H234498   1.454   1.194   2.274
11519TIP3   OH234499   1.618   2.792   5.003
11519TIP3    H134500   1.682   2.843   4.954
11519TIP3    H234501   1.628   2.822   5.094
11520TIP3   OH234502   5.176   7.655   3.821
11520TIP3    H134503   5.183   7.643   3.915
11520TIP3    H234504   5.260   7.627   3.786
11521TIP3   OH234505   8.109   1.975   2.595
11521TIP3    H134506   8.031   2.011   2.552
11521TIP3    H234507   8.104   2.008   2.685
11522TIP3   OH234508   5.057   1.124   3.913
11522TIP3    H134509   4.995   1.072   3.964
11522TIP3    H234510   5.107   1.173   3.979
11523TIP3   OH234511   2.843   0.236   4.300
11523TIP3    H134512   2.780   0.275   4.240
11523TIP3    H234513   2.910   0.197   4.244
11524TIP3   OH234514   6.075   7.487   6.434
11524TIP3    H134515   6.059   7.417   6.372
11524TIP3    H234516   6.098   7.443   6.516
11525TIP3   OH234517   1.978   7.061   6.122
11525TIP3    H134518   2.055   7.037   6.070
11525TIP3    H234519   1.918   7.102   6.059
11526TIP3   OH234520   5.594   4.746   0.703
11526TIP3    H134521   5.549   4.664   0.725
11526TIP3    H234522   5.636   4.773   0.785
11527TIP3   OH234523   3.341   5.882   3.783
11527TIP3    H134524   3.278   5.854   3.717
11527TIP3    H234525   3.407   5.930   3.734
11528TIP3   OH234526   2.842   4.685   5.455
11528TIP3    H134527   2.749   4.665   5.449
11528TIP3    H234528   2.849   4.747   5.528
11529TIP3   OH234529   6.324   3.696   4.036
11529TIP3    H134530   6.381   3.630   3.996
11529TIP3    H234531   6.373   3.728   4.112
11530TIP3   OH234532   3.373   7.093   2.310
11530TIP3    H134533   3.442   7.126   2.252
11530TIP3    H234534   3.303   7.065   2.251
11531TIP3   OH234535   6.236   4.018   6.516
11531TIP3    H134536   6.319   4.064   6.530
11531TIP3    H234537   6.206   4.049   6.430
11532TIP3   OH234538   3.101   1.433   0.080
11532TIP3    H134539   3.183   1.478   0.098
11532TIP3    H234540   3.119   1.381   0.001
11533TIP3   OH234541   1.127   7.812   3.728
11533TIP3    H134542   1.069   7.830   3.802
11533TIP3    H234543   1.080   7.745   3.677
11534TIP3   OH234544   5.396   2.094   6.410
11534TIP3    H134545   5.393   2.053   6.323
11534TIP3    H234546   5.392   2.021   6.471
11535TIP3   OH234547   4.791   2.480   6.619
11535TIP3    H134548   4.810   2.386   6.620
11535TIP3    H234549   4.872   2.521   6.589
11536TIP3   OH234550   3.436   4.976   4.723
11536TIP3    H134551   3.472   5.065   4.728
11536TIP3    H234552   3.421   4.961   4.630
11537TIP3   OH234553   6.835   3.159   4.254
11537TIP3    H134554   6.848   3.251   4.231
11537TIP3    H234555   6.854   3.111   4.173
11538TIP3   OH234556   5.277   2.970   5.732
11538TIP3    H134557   5.230   3.030   5.674
11538TIP3    H234558   5.210   2.934   5.790
11539TIP3   OH234559   4.802   7.197   2.764
11539TIP3    H134560   4.897   7.202   2.768
11539TIP3    H234561   4.777   7.263   2.699
11540TIP3   OH234562   8.043   3.509   4.548
11540TIP3    H134563   8.015   3.583   4.494
11540TIP3    H234564   7.989   3.436   4.518
11541TIP3   OH234565   3.444   5.460   5.409
11541TIP3    H134566   3.414   5.370   5.404
11541TIP3    H234567   3.385   5.509   5.351
11542TIP3   OH234568   3.421   4.902   4.427
11542TIP3    H134569   3.375   4.861   4.353
11542TIP3    H234570   3.453   4.985   4.392
11543TIP3   OH234571   3.115   2.512   5.339
11543TIP3    H134572   3.080   2.488   5.425
11543TIP3    H234573   3.202   2.472   5.337
11544TIP3   OH234574   7.048   0.894   3.001
11544TIP3    H134575   6.964   0.935   2.979
11544TIP3    H234576   7.113   0.962   2.982
11545TIP3   OH234577   1.485   3.597   2.056
11545TIP3    H134578   1.467   3.690   2.039
11545TIP3    H234579   1.398   3.558   2.065
11546TIP3   OH234580   6.458   4.505   2.033
11546TIP3    H134581   6.381   4.452   2.052
11546TIP3    H234582   6.489   4.473   1.948
11547TIP3   OH234583   0.809   0.059   3.573
11547TIP3    H134584   0.727   0.015   3.596
11547TIP3    H234585   0.840   0.013   3.495
11548TIP3   OH234586   5.012   7.570   2.094
11548TIP3    H134587   5.048   7.638   2.151
11548TIP3    H234588   5.074   7.565   2.021
11549TIP3   OH234589   8.169   1.669   6.134
11549TIP3    H134590   8.084   1.626   6.143
11549TIP3    H234591   8.193   1.694   6.224
11550TIP3   OH234592   4.139   5.918   0.795
11550TIP3    H134593   4.211   5.978   0.814
11550TIP3    H234594   4.084   5.966   0.732
11551TIP3   OH234595   7.373   6.214   3.103
11551TIP3    H134596   7.468   6.219   3.112
11551TIP3    H234597   7.339   6.239   3.188
11552TIP3   OH234598   1.266   5.706   3.399
11552TIP3    H134599   1.243   5.792   3.363
11552TIP3    H234600   1.349   5.683   3.356
11553TIP3   OH234601   5.332   3.171   1.933
11553TIP3    H134602   5.413   3.212   1.902
11553TIP3    H234603   5.318   3.208   2.020
11554TIP3   OH234604   2.944   5.557   1.859
11554TIP3    H134605   3.032   5.536   1.890
11554TIP3    H234606   2.935   5.508   1.777
11555TIP3   OH234607   3.670   3.237   4.729
11555TIP3    H134608   3.750   3.256   4.680
11555TIP3    H234609   3.599   3.249   4.665
11556TIP3   OH234610   4.034   4.611   5.256
11556TIP3    H134611   4.100   4.552   5.218
11556TIP3    H234612   4.045   4.693   5.208
11557TIP3   OH234613   5.736   5.998   4.091
11557TIP3    H134614   5.721   5.904   4.091
11557TIP3    H234615   5.649   6.037   4.091
11558TIP3   OH234616   1.826   6.425   3.920
11558TIP3    H134617   1.790   6.500   3.968
11558TIP3    H234618   1.921   6.442   3.916
11559TIP3   OH234619   7.450   2.424   1.066
11559TIP3    H134620   7.419   2.336   1.044
11559TIP3    H234621   7.527   2.435   1.011
11560TIP3   OH234622   4.107   5.058   0.397
11560TIP3    H134623   4.065   5.045   0.312
11560TIP3    H234624   4.091   4.976   0.444
11561TIP3   OH234625   1.046   3.277   3.169
11561TIP3    H134626   0.981   3.217   3.203
11561TIP3    H234627   1.005   3.317   3.092
11562TIP3   OH234628   3.879   7.349   6.545
11562TIP3    H134629   3.911   7.355   6.455
11562TIP3    H234630   3.863   7.439   6.570
11563TIP3   OH234631   2.654   4.745   2.781
11563TIP3    H134632   2.590   4.776   2.845
11563TIP3    H234633   2.651   4.650   2.789
11564TIP3   OH234634   4.041   3.078   0.859
11564TIP3    H134635   4.112   3.087   0.924
11564TIP3    H234636   4.036   2.984   0.842
11565TIP3   OH234637   5.259   5.105   5.319
11565TIP3    H134638   5.257   5.192   5.358
11565TIP3    H234639   5.221   5.118   5.231
11566TIP3   OH234640   7.827   1.799   1.437
11566TIP3    H134641   7.902   1.838   1.392
11566TIP3    H234642   7.807   1.720   1.387
11567TIP3   OH234643   1.672   2.000   2.236
11567TIP3    H134644   1.713   2.071   2.286
11567TIP3    H234645   1.745   1.946   2.206
11568TIP3   OH234646   2.990   6.062   6.487
11568TIP3    H134647   3.070   6.113   6.491
11568TIP3    H234648   2.934   6.109   6.425
11569TIP3   OH234649   0.175   2.642   5.874
11569TIP3    H134650   0.155   2.722   5.922
11569TIP3    H234651   0.090   2.609   5.845
11570TIP3   OH234652   8.068   3.749   0.041
11570TIP3    H134653   8.073   3.772   0.133
11570TIP3    H234654   8.058   3.654   0.040
11571TIP3   OH234655   0.320   6.330   3.738
11571TIP3    H134656   0.258   6.263   3.765
11571TIP3    H234657   0.335   6.382   3.817
11572TIP3   OH234658   2.039   4.788   3.184
11572TIP3    H134659   2.105   4.742   3.133
11572TIP3    H234660   1.960   4.787   3.130
11573TIP3   OH234661   2.543   2.552   4.940
11573TIP3    H134662   2.462   2.561   4.991
11573TIP3    H234663   2.514   2.538   4.850
11574TIP3   OH234664   3.353   3.676   0.128
11574TIP3    H134665   3.435   3.723   0.116
11574TIP3    H234666   3.356   3.644   0.218
11575TIP3   OH234667   6.526   3.236   1.289
11575TIP3    H134668   6.569   3.321   1.299
11575TIP3    H234669   6.439   3.257   1.254
11576TIP3   OH234670   7.540   3.070   0.926
11576TIP3    H134671   7.580   2.994   0.968
11576TIP3    H234672   7.590   3.083   0.846
11577TIP3   OH234673   3.597   4.038   1.949
11577TIP3    H134674   3.518   4.033   2.002
11577TIP3    H234675   3.624   4.130   1.956
11578TIP3   OH234676   4.768   2.728   5.734
11578TIP3    H134677   4.690   2.745   5.682
11578TIP3    H234678   4.841   2.750   5.677
11579TIP3   OH234679   0.866   2.804   2.843
11579TIP3    H134680   0.928   2.780   2.774
11579TIP3    H234681   0.783   2.818   2.797
11580TIP3   OH234682   6.323   4.864   1.311
11580TIP3    H134683   6.248   4.924   1.312
11580TIP3    H234684   6.329   4.834   1.221
11581TIP3   OH234685   0.737   7.753   2.674
11581TIP3    H134686   0.662   7.803   2.643
11581TIP3    H234687   0.770   7.709   2.596
11582TIP3   OH234688   5.986   5.878   2.621
11582TIP3    H134689   5.978   5.782   2.619
11582TIP3    H234690   6.077   5.894   2.594
11583TIP3   OH234691   0.672   4.715   0.665
11583TIP3    H134692   0.655   4.643   0.726
11583TIP3    H234693   0.664   4.794   0.718
11584TIP3   OH234694   3.866   7.196   3.983
11584TIP3    H134695   3.954   7.192   4.022
11584TIP3    H234696   3.858   7.286   3.952
11585TIP3   OH234697   7.605   3.739   2.541
11585TIP3    H134698   7.652   3.822   2.550
11585TIP3    H234699   7.541   3.755   2.471
11586TIP3   OH234700   6.231   3.648   0.924
11586TIP3    H134701   6.225   3.647   0.828
11586TIP3    H234702   6.324   3.663   0.941
11587TIP3   OH234703   6.770   5.554   5.936
11587TIP3    H134704   6.852   5.603   5.939
11587TIP3    H234705   6.762   5.514   6.022
11588TIP3   OH234706   1.546   2.602   0.901
11588TIP3    H134707   1.481   2.535   0.881
11588TIP3    H234708   1.591   2.570   0.979
11589TIP3   OH234709   0.162   5.718   5.985
11589TIP3    H134710   0.222   5.653   6.023
11589TIP3    H234711   0.156   5.694   5.893
11590TIP3   OH234712   3.899   5.792   3.792
11590TIP3    H134713   3.806   5.785   3.812
11590TIP3    H234714   3.921   5.710   3.748
11591TIP3   OH234715   7.882   3.287   4.498
11591TIP3    H134716   7.790   3.310   4.509
11591TIP3    H234717   7.880   3.199   4.460
11592TIP3   OH234718   1.272   6.337   0.648
11592TIP3    H134719   1.353   6.367   0.607
11592TIP3    H234720   1.295   6.252   0.687
11593TIP3   OH234721   0.071   1.393   2.684
11593TIP3    H134722   0.116   1.332   2.626
11593TIP3    H234723   0.009   1.338   2.733
11594TIP3   OH234724   3.572   3.056   3.191
11594TIP3    H134725   3.589   3.102   3.109
11594TIP3    H234726   3.507   3.110   3.236
11595TIP3   OH234727   3.121   3.006   1.024
11595TIP3    H134728   3.150   3.088   0.984
11595TIP3    H234729   3.147   3.012   1.115
11596TIP3   OH234730   5.690   1.394   6.132
11596TIP3    H134731   5.605   1.410   6.172
11596TIP3    H234732   5.744   1.359   6.203
11597TIP3   OH234733   1.372   2.015   3.922
11597TIP3    H134734   1.423   2.080   3.874
11597TIP3    H234735   1.423   1.934   3.915
11598TIP3   OH234736   5.564   1.015   1.317
11598TIP3    H134737   5.603   0.948   1.373
11598TIP3    H234738   5.501   0.968   1.263
11599TIP3   OH234739   4.484   0.590   2.555
11599TIP3    H134740   4.421   0.612   2.486
11599TIP3    H234741   4.559   0.646   2.538
11600TIP3   OH234742   8.285   2.104   6.551
11600TIP3    H134743   8.254   2.127   6.639
11600TIP3    H234744   8.306   2.189   6.511
11601TIP3   OH234745   7.077   6.523   1.509
11601TIP3    H134746   7.171   6.543   1.516
11601TIP3    H234747   7.071   6.430   1.533
11602TIP3   OH234748   4.490   1.957   1.865
11602TIP3    H134749   4.535   2.032   1.903
11602TIP3    H234750   4.538   1.939   1.784
11603TIP3   OH234751   4.493   0.520   3.669
11603TIP3    H134752   4.449   0.599   3.702
11603TIP3    H234753   4.542   0.550   3.592
11604TIP3   OH234754   3.905   0.367   5.600
11604TIP3    H134755   3.947   0.436   5.651
11604TIP3    H234756   3.825   0.346   5.648
11605TIP3   OH234757   4.756   4.346   1.947
11605TIP3    H134758   4.688   4.281   1.965
11605TIP3    H234759   4.714   4.430   1.964
11606TIP3   OH234760   5.016   7.811   2.281
11606TIP3    H134761   5.068   7.790   2.358
11606TIP3    H234762   4.926   7.812   2.313
11607TIP3   OH234763   5.999   4.945   6.471
11607TIP3    H134764   6.040   4.965   6.387
11607TIP3    H234765   5.953   5.026   6.494
11608TIP3   OH234766   4.982   5.882   0.207
11608TIP3    H134767   4.900   5.840   0.235
11608TIP3    H234768   4.990   5.860   0.114
11609TIP3   OH234769   5.153   2.229   5.071
11609TIP3    H134770   5.185   2.316   5.095
11609TIP3    H234771   5.176   2.220   4.979
11610TIP3   OH234772   5.913   7.132   5.374
11610TIP3    H134773   5.826   7.123   5.412
11610TIP3    H234774   5.898   7.154   5.282
11611TIP3   OH234775   4.679   0.164   1.377
11611TIP3    H134776   4.616   0.229   1.409
11611TIP3    H234777   4.702   0.195   1.289
11612TIP3   OH234778   7.598   4.509   6.349
11612TIP3    H134779   7.582   4.559   6.269
11612TIP3    H234780   7.615   4.575   6.416
11613TIP3   OH234781   5.197   7.575   4.071
11613TIP3    H134782   5.201   7.480   4.060
11613TIP3    H234783   5.112   7.590   4.112
11614TIP3   OH234784   6.090   4.329   2.513
11614TIP3    H134785   6.115   4.371   2.595
11614TIP3    H234786   6.130   4.242   2.518
11615TIP3   OH234787   1.582   2.248   6.377
11615TIP3    H134788   1.636   2.276   6.303
11615TIP3    H234789   1.596   2.154   6.383
11616TIP3   OH234790   6.543   1.946   5.978
11616TIP3    H134791   6.515   1.877   5.917
11616TIP3    H234792   6.613   1.992   5.932
11617TIP3   OH234793   0.689   3.771   4.550
11617TIP3    H134794   0.730   3.794   4.467
11617TIP3    H234795   0.595   3.771   4.532
11618TIP3   OH234796   0.536   6.067   2.661
11618TIP3    H134797   0.537   6.055   2.756
11618TIP3    H234798   0.621   6.033   2.632
11619TIP3   OH234799   1.641   7.113   1.033
11619TIP3    H134800   1.556   7.076   1.057
11619TIP3    H234801   1.629   7.208   1.040
11620TIP3   OH234802   1.804   0.116   2.386
11620TIP3    H134803   1.723   0.065   2.388
11620TIP3    H234804   1.777   0.205   2.406
11621TIP3   OH234805   7.158   2.016   6.174
11621TIP3    H134806   7.218   2.083   6.143
11621TIP3    H234807   7.162   1.947   6.108
11622TIP3   OH234808   5.491   5.257   5.061
11622TIP3    H134809   5.396   5.266   5.052
11622TIP3    H234810   5.524   5.347   5.056
11623TIP3   OH234811   6.922   7.720   3.900
11623TIP3    H134812   6.862   7.792   3.913
11623TIP3    H234813   6.868   7.641   3.909
11624TIP3   OH234814   6.436   6.077   5.992
11624TIP3    H134815   6.369   6.046   6.052
11624TIP3    H234816   6.518   6.038   6.025
11625TIP3   OH234817   2.478   7.318   4.189
11625TIP3    H134818   2.461   7.261   4.264
11625TIP3    H234819   2.493   7.258   4.116
11626TIP3   OH234820   2.459   1.411   4.319
11626TIP3    H134821   2.387   1.383   4.376
11626TIP3    H234822   2.535   1.362   4.350
11627TIP3   OH234823   3.004   0.385   4.086
11627TIP3    H134824   2.977   0.439   4.011
11627TIP3    H234825   3.099   0.378   4.077
11628TIP3   OH234826   4.710   7.189   4.591
11628TIP3    H134827   4.778   7.147   4.643
11628TIP3    H234828   4.655   7.118   4.559
11629TIP3   OH234829   3.405   1.746   2.647
11629TIP3    H134830   3.394   1.660   2.687
11629TIP3    H234831   3.500   1.762   2.650
11630TIP3   OH234832   3.621   6.031   4.699
11630TIP3    H134833   3.572   5.951   4.721
11630TIP3    H234834   3.611   6.040   4.605
11631TIP3   OH234835   1.634   3.498   4.661
11631TIP3    H134836   1.570   3.569   4.659
11631TIP3    H234837   1.596   3.433   4.720
11632TIP3   OH234838   8.249   4.558   4.362
11632TIP3    H134839   8.261   4.469   4.396
11632TIP3    H234840   8.237   4.611   4.440
11633TIP3   OH234841   7.035   3.635   6.754
11633TIP3    H134842   6.993   3.625   6.669
11633TIP3    H234843   6.993   3.569   6.810
11634TIP3   OH234844   7.403   2.847   1.736
11634TIP3    H134845   7.470   2.892   1.786
11634TIP3    H234846   7.445   2.826   1.652
11635TIP3   OH234847   2.051   4.007   3.255
11635TIP3    H134848   2.103   3.946   3.308
11635TIP3    H234849   1.979   3.954   3.222
11636TIP3   OH234850   1.493   2.175   3.724
11636TIP3    H134851   1.425   2.221   3.675
11636TIP3    H234852   1.522   2.105   3.666
11637TIP3   OH234853   7.061   1.838   6.597
11637TIP3    H134854   7.063   1.878   6.683
11637TIP3    H234855   7.035   1.908   6.538
11638TIP3   OH234856   6.230   6.846   6.536
11638TIP3    H134857   6.287   6.844   6.459
11638TIP3    H234858   6.158   6.786   6.514
11639TIP3   OH234859   5.632   6.603   4.930
11639TIP3    H134860   5.560   6.546   4.958
11639TIP3    H234861   5.691   6.546   4.882
11640TIP3   OH234862   4.133   3.886   0.655
11640TIP3    H134863   4.051   3.924   0.625
11640TIP3    H234864   4.108   3.803   0.695
11641TIP3   OH234865   0.237   5.417   5.291
11641TIP3    H134866   0.267   5.362   5.364
11641TIP3    H234867   0.154   5.453   5.320
11642TIP3   OH234868   0.304   3.698   0.427
11642TIP3    H134869   0.348   3.642   0.364
11642TIP3    H234870   0.230   3.645   0.458
11643TIP3   OH234871   7.658   1.357   0.464
11643TIP3    H134872   7.586   1.310   0.423
11643TIP3    H234873   7.731   1.296   0.463
11644TIP3   OH234874   4.433   0.059   2.959
11644TIP3    H134875   4.474   0.098   3.035
11644TIP3    H234876   4.370   0.124   2.929
11645TIP3   OH234877   5.263   4.630   5.632
11645TIP3    H134878   5.244   4.546   5.590
11645TIP3    H234879   5.190   4.687   5.607
11646TIP3   OH234880   3.140   2.172   1.583
11646TIP3    H134881   3.113   2.134   1.500
11646TIP3    H234882   3.117   2.265   1.575
11647TIP3   OH234883   6.518   1.795   6.362
11647TIP3    H134884   6.448   1.804   6.296
11647TIP3    H234885   6.568   1.876   6.355
11648TIP3   OH234886   4.406   0.867   3.414
11648TIP3    H134887   4.332   0.864   3.474
11648TIP3    H234888   4.404   0.956   3.379
11649TIP3   OH234889   8.005   2.898   1.264
11649TIP3    H134890   7.979   2.941   1.183
11649TIP3    H234891   8.080   2.844   1.240
11650TIP3   OH234892   7.784   5.299   5.984
11650TIP3    H134893   7.702   5.272   6.024
11650TIP3    H234894   7.851   5.246   6.028
11651TIP3   OH234895   4.478   1.841   3.946
11651TIP3    H134896   4.390   1.818   3.976
11651TIP3    H234897   4.520   1.756   3.929
11652TIP3   OH234898   4.859   3.054   2.679
11652TIP3    H134899   4.814   2.970   2.667
11652TIP3    H234900   4.932   3.051   2.616
11653TIP3   OH234901   2.915   3.034   2.448
11653TIP3    H134902   2.980   2.986   2.499
11653TIP3    H234903   2.958   3.116   2.423
11654TIP3   OH234904   3.127   7.706   4.582
11654TIP3    H134905   3.088   7.620   4.588
11654TIP3    H234906   3.108   7.735   4.492
11655TIP3   OH234907   2.902   6.416   3.185
11655TIP3    H134908   2.846   6.393   3.110
11655TIP3    H234909   2.841   6.427   3.257
11656TIP3   OH234910   5.566   6.485   3.707
11656TIP3    H134911   5.536   6.396   3.689
11656TIP3    H234912   5.651   6.491   3.661
11657TIP3   OH234913   3.714   5.146   6.435
11657TIP3    H134914   3.784   5.168   6.373
11657TIP3    H234915   3.639   5.197   6.406
11658TIP3   OH234916   3.291   1.355   1.072
11658TIP3    H134917   3.207   1.384   1.109
11658TIP3    H234918   3.337   1.314   1.145
11659TIP3   OH234919   2.494   1.047   1.378
11659TIP3    H134920   2.496   1.091   1.463
11659TIP3    H234921   2.541   0.965   1.393
11660TIP3   OH234922   1.340   4.273   5.912
11660TIP3    H134923   1.304   4.354   5.877
11660TIP3    H234924   1.289   4.256   5.991
11661TIP3   OH234925   5.875   6.816   5.151
11661TIP3    H134926   5.956   6.810   5.202
11661TIP3    H234927   5.905   6.826   5.061
11662TIP3   OH234928   2.631   3.785   2.050
11662TIP3    H134929   2.616   3.713   2.112
11662TIP3    H234930   2.552   3.839   2.056
11663TIP3   OH234931   6.484   7.600   2.811
11663TIP3    H134932   6.562   7.558   2.777
11663TIP3    H234933   6.517   7.675   2.861
11664TIP3   OH234934   1.621   3.104   6.020
11664TIP3    H134935   1.534   3.068   6.033
11664TIP3    H234936   1.680   3.031   6.040
11665TIP3   OH234937   5.547   2.398   6.260
11665TIP3    H134938   5.636   2.390   6.295
11665TIP3    H234939   5.498   2.442   6.329
11666TIP3   OH234940   6.832   5.086   1.640
11666TIP3    H134941   6.855   5.015   1.700
11666TIP3    H234942   6.820   5.162   1.697
11667TIP3   OH234943   4.054   3.370   6.251
11667TIP3    H134944   4.146   3.368   6.227
11667TIP3    H234945   4.011   3.314   6.186
11668TIP3   OH234946   4.612   0.971   4.134
11668TIP3    H134947   4.522   0.938   4.137
11668TIP3    H234948   4.608   1.057   4.175
11669TIP3   OH234949   1.591   3.873   0.457
11669TIP3    H134950   1.532   3.800   0.438
11669TIP3    H234951   1.635   3.848   0.538
11670TIP3   OH234952   1.311   2.178   0.918
11670TIP3    H134953   1.373   2.122   0.965
11670TIP3    H234954   1.280   2.123   0.846
11671TIP3   OH234955   2.098   5.943   2.094
11671TIP3    H134956   2.067   5.981   2.012
11671TIP3    H234957   2.019   5.914   2.139
11672TIP3   OH234958   0.305   1.979   3.107
11672TIP3    H134959   0.381   2.024   3.145
11672TIP3    H234960   0.243   1.972   3.179
11673TIP3   OH234961   1.181   3.568   6.083
11673TIP3    H134962   1.247   3.608   6.028
11673TIP3    H234963   1.150   3.639   6.140
11674TIP3   OH234964   1.551   1.096   6.464
11674TIP3    H134965   1.495   1.029   6.502
11674TIP3    H234966   1.621   1.108   6.528
11675TIP3   OH234967   0.400   0.544   2.855
11675TIP3    H134968   0.355   0.622   2.823
11675TIP3    H234969   0.347   0.514   2.928
11676TIP3   OH234970   5.027   4.034   0.798
11676TIP3    H134971   5.099   4.009   0.740
11676TIP3    H234972   5.035   3.976   0.873
11677TIP3   OH234973   1.556   6.481   4.107
11677TIP3    H134974   1.598   6.407   4.152
11677TIP3    H234975   1.502   6.523   4.175
11678TIP3   OH234976   5.232   3.240   2.887
11678TIP3    H134977   5.241   3.217   2.794
11678TIP3    H234978   5.203   3.159   2.929
11679TIP3   OH234979   3.765   5.237   5.156
11679TIP3    H134980   3.850   5.196   5.140
11679TIP3    H234981   3.783   5.331   5.158
11680TIP3   OH234982   3.151   1.719   6.460
11680TIP3    H134983   3.080   1.668   6.499
11680TIP3    H234984   3.204   1.747   6.534
11681TIP3   OH234985   4.706   5.227   3.035
11681TIP3    H134986   4.643   5.294   3.009
11681TIP3    H234987   4.712   5.168   2.960
11682TIP3   OH234988   0.992   0.474   6.215
11682TIP3    H134989   1.059   0.460   6.148
11682TIP3    H234990   0.943   0.550   6.184
11683TIP3   OH234991   1.582   1.979   0.083
11683TIP3    H134992   1.650   1.914   0.065
11683TIP3    H234993   1.625   2.063   0.072
11684TIP3   OH234994   7.736   2.056   1.231
11684TIP3    H134995   7.723   2.126   1.166
11684TIP3    H234996   7.668   1.992   1.210
11685TIP3   OH234997   3.106   5.609   6.257
11685TIP3    H134998   3.107   5.658   6.175
11685TIP3    H234999   3.097   5.676   6.325
11686TIP3   OH235000   4.873   0.445   6.224
11686TIP3    H135001   4.870   0.363   6.175
11686TIP3    H235002   4.864   0.514   6.158
11687TIP3   OH235003   1.061   6.532   0.414
11687TIP3    H135004   1.024   6.612   0.452
11687TIP3    H235005   1.107   6.563   0.335
11688TIP3   OH235006   2.719   7.755   5.916
11688TIP3    H135007   2.730   7.848   5.934
11688TIP3    H235008   2.696   7.716   6.000
11689TIP3   OH235009   0.064   3.677   2.789
11689TIP3    H135010   0.140   3.628   2.758
11689TIP3    H235011   0.072   3.763   2.747
11690TIP3   OH235012   3.266   3.994   3.636
11690TIP3    H135013   3.257   4.029   3.725
11690TIP3    H235014   3.203   4.044   3.584
11691TIP3   OH235015   6.197   5.894   3.345
11691TIP3    H135016   6.209   5.987   3.366
11691TIP3    H235017   6.140   5.862   3.414
11692TIP3   OH235018   4.152   1.068   4.760
11692TIP3    H135019   4.244   1.076   4.736
11692TIP3    H235020   4.151   1.073   4.856
11693TIP3   OH235021   7.902   2.111   6.482
11693TIP3    H135022   7.854   2.062   6.415
11693TIP3    H235023   7.992   2.117   6.449
11694TIP3   OH235024   5.876   2.659   4.969
11694TIP3    H135025   5.953   2.713   4.988
11694TIP3    H235026   5.828   2.709   4.904
11695TIP3   OH235027   5.132   7.282   1.157
11695TIP3    H135028   5.173   7.342   1.219
11695TIP3    H235029   5.200   7.264   1.092
11696TIP3   OH235030   6.611   1.954   4.320
11696TIP3    H135031   6.609   1.859   4.309
11696TIP3    H235032   6.703   1.974   4.337
11697TIP3   OH235033   8.271   3.130   1.885
11697TIP3    H135034   8.320   3.112   1.965
11697TIP3    H235035   8.242   3.221   1.895
11698TIP3   OH235036   7.718   6.505   5.004
11698TIP3    H135037   7.675   6.435   4.954
11698TIP3    H235038   7.803   6.516   4.960
11699TIP3   OH235039   2.682   3.776   6.387
11699TIP3    H135040   2.611   3.713   6.403
11699TIP3    H235041   2.638   3.851   6.346
11700TIP3   OH235042   4.691   3.334   3.075
11700TIP3    H135043   4.760   3.288   3.028
11700TIP3    H235044   4.623   3.350   3.010
11701TIP3   OH235045   2.294   4.545   5.962
11701TIP3    H135046   2.261   4.620   5.914
11701TIP3    H235047   2.216   4.503   5.999
11702TIP3   OH235048   0.680   0.855   3.456
11702TIP3    H135049   0.655   0.878   3.545
11702TIP3    H235050   0.621   0.783   3.432
11703TIP3   OH235051   1.300   3.099   4.975
11703TIP3    H135052   1.268   3.131   5.059
11703TIP3    H235053   1.392   3.080   4.990
11704TIP3   OH235054   3.115   3.023   3.794
11704TIP3    H135055   3.025   3.020   3.825
11704TIP3    H235056   3.163   3.071   3.861
11705TIP3   OH235057   7.652   2.897   3.123
11705TIP3    H135058   7.571   2.865   3.163
11705TIP3    H235059   7.660   2.846   3.042
11706TIP3   OH235060   1.667   1.876   5.130
11706TIP3    H135061   1.707   1.942   5.186
11706TIP3    H235062   1.673   1.912   5.042
11707TIP3   OH235063   3.991   5.913   6.021
11707TIP3    H135064   3.935   5.930   6.097
11707TIP3    H235065   4.014   5.820   6.029
11708TIP3   OH235066   4.203   5.729   2.933
11708TIP3    H135067   4.255   5.708   2.855
11708TIP3    H235068   4.178   5.821   2.920
11709TIP3   OH235069   3.392   5.123   6.349
11709TIP3    H135070   3.416   5.212   6.374
11709TIP3    H235071   3.329   5.134   6.277
11710TIP3   OH235072   2.381   1.535   5.851
11710TIP3    H135073   2.387   1.584   5.933
11710TIP3    H235074   2.410   1.597   5.784
11711TIP3   OH235075   6.592   3.393   0.288
11711TIP3    H135076   6.674   3.417   0.243
11711TIP3    H235077   6.548   3.334   0.227
11712TIP3   OH235078   5.266   7.471   5.323
11712TIP3    H135079   5.315   7.439   5.248
11712TIP3    H235080   5.248   7.393   5.375
11713TIP3   OH235081   1.033   1.893   2.341
11713TIP3    H135082   0.953   1.943   2.358
11713TIP3    H235083   1.003   1.803   2.329
11714TIP3   OH235084   3.639   2.947   4.760
11714TIP3    H135085   3.644   3.027   4.813
11714TIP3    H235086   3.679   2.972   4.677
11715TIP3   OH235087   2.855   6.094   2.156
11715TIP3    H135088   2.922   6.161   2.160
11715TIP3    H235089   2.792   6.119   2.224
11716TIP3   OH235090   3.256   2.714   4.071
11716TIP3    H135091   3.172   2.721   4.025
11716TIP3    H235092   3.233   2.713   4.164
11717TIP3   OH235093   6.364   0.387   1.199
11717TIP3    H135094   6.370   0.471   1.244
11717TIP3    H235095   6.286   0.395   1.144
11718TIP3   OH235096   4.911   6.920   4.671
11718TIP3    H135097   4.890   6.869   4.749
11718TIP3    H235098   4.857   6.880   4.602
11719TIP3   OH235099   0.565   1.712   1.309
11719TIP3    H135100   0.570   1.689   1.216
11719TIP3    H235101   0.607   1.797   1.315
11720TIP3   OH235102   3.542   6.626   3.175
11720TIP3    H135103   3.576   6.574   3.102
11720TIP3    H235104   3.527   6.564   3.245
11721TIP3   OH235105   8.072   5.491   0.426
11721TIP3    H135106   8.146   5.522   0.477
11721TIP3    H235107   8.078   5.539   0.343
11722TIP3   OH235108   4.686   5.779   6.508
11722TIP3    H135109   4.651   5.715   6.447
11722TIP3    H235110   4.733   5.727   6.573
11723TIP3   OH235111   5.977   2.462   6.061
11723TIP3    H135112   6.013   2.416   5.985
11723TIP3    H235113   5.890   2.425   6.072
11724TIP3   OH235114   2.210   6.965   1.009
11724TIP3    H135115   2.220   7.049   0.965
11724TIP3    H235116   2.125   6.933   0.982
11725TIP3   OH235117   0.252   6.822   4.417
11725TIP3    H135118   0.347   6.828   4.415
11725TIP3    H235119   0.225   6.840   4.327
11726TIP3   OH235120   1.911   0.670   2.182
11726TIP3    H135121   1.959   0.660   2.099
11726TIP3    H235122   1.930   0.759   2.210
11727TIP3   OH235123   2.603   7.302   0.334
11727TIP3    H135124   2.628   7.236   0.269
11727TIP3    H235125   2.565   7.253   0.406
11728TIP3   OH235126   3.426   5.395   1.426
11728TIP3    H135127   3.360   5.449   1.382
11728TIP3    H235128   3.471   5.455   1.485
11729TIP3   OH235129   7.347   5.524   3.092
11729TIP3    H135130   7.267   5.571   3.066
11729TIP3    H235131   7.400   5.589   3.137
11730TIP3   OH235132   3.125   4.081   2.263
11730TIP3    H135133   3.163   4.163   2.230
11730TIP3    H235134   3.179   4.059   2.339
11731TIP3   OH235135   0.305   7.516   3.458
11731TIP3    H135136   0.351   7.506   3.374
11731TIP3    H235137   0.264   7.431   3.473
11732TIP3   OH235138   3.378   2.820   6.089
11732TIP3    H135139   3.355   2.774   6.169
11732TIP3    H235140   3.456   2.775   6.057
11733TIP3   OH235141   2.494   3.315   4.823
11733TIP3    H135142   2.584   3.334   4.850
11733TIP3    H235143   2.449   3.399   4.830
11734TIP3   OH235144   6.510   4.282   5.740
11734TIP3    H135145   6.601   4.300   5.717
11734TIP3    H235146   6.473   4.369   5.759
11735TIP3   OH235147   1.445   4.529   5.677
11735TIP3    H135148   1.485   4.555   5.594
11735TIP3    H235149   1.519   4.519   5.737
11736TIP3   OH235150   0.264   2.435   2.259
11736TIP3    H135151   0.181   2.434   2.213
11736TIP3    H235152   0.256   2.365   2.325
11737TIP3   OH235153   8.056   2.282   5.652
11737TIP3    H135154   8.096   2.264   5.567
11737TIP3    H235155   8.065   2.376   5.664
11738TIP3   OH235156   4.958   6.974   4.264
11738TIP3    H135157   4.940   6.989   4.171
11738TIP3    H235158   5.049   6.999   4.275
11739TIP3   OH235159   5.838   4.931   6.742
11739TIP3    H135160   5.751   4.909   6.710
11739TIP3    H235161   5.873   4.993   6.678
11740TIP3   OH235162   1.499   6.994   2.245
11740TIP3    H135163   1.577   7.050   2.247
11740TIP3    H235164   1.464   7.006   2.156
11741TIP3   OH235165   6.224   3.265   4.219
11741TIP3    H135166   6.231   3.240   4.311
11741TIP3    H235167   6.155   3.331   4.218
11742TIP3   OH235168   1.893   5.479   1.161
11742TIP3    H135169   1.940   5.557   1.133
11742TIP3    H235170   1.855   5.443   1.080
11743TIP3   OH235171   0.058   7.414   4.663
11743TIP3    H135172   0.033   7.352   4.732
11743TIP3    H235173  -0.013   7.409   4.599
11744TIP3   OH235174   1.641   7.545   6.433
11744TIP3    H135175   1.563   7.494   6.413
11744TIP3    H235176   1.664   7.587   6.350
11745TIP3   OH235177   6.503   0.221   1.947
11745TIP3    H135178   6.521   0.307   1.911
11745TIP3    H235179   6.470   0.170   1.874
11746TIP3   OH235180   0.567   7.496   4.839
11746TIP3    H135181   0.537   7.557   4.771
11746TIP3    H235182   0.592   7.552   4.912
11747TIP3   OH235183   6.408   1.049   5.815
11747TIP3    H135184   6.442   0.999   5.890
11747TIP3    H235185   6.392   0.983   5.748
11748TIP3   OH235186   5.462   4.580   4.255
11748TIP3    H135187   5.542   4.529   4.241
11748TIP3    H235188   5.445   4.622   4.171
11749TIP3   OH235189   4.309   7.051   6.640
11749TIP3    H135190   4.343   7.000   6.566
11749TIP3    H235191   4.231   7.094   6.605
11750TIP3   OH235192   6.584   2.515   4.434
11750TIP3    H135193   6.621   2.584   4.490
11750TIP3    H235194   6.635   2.437   4.455
11751TIP3   OH235195   0.626   1.984   1.733
11751TIP3    H135196   0.707   1.997   1.684
11751TIP3    H235197   0.581   1.913   1.687
11752TIP3   OH235198   6.100   4.435   4.134
11752TIP3    H135199   6.065   4.445   4.223
11752TIP3    H235200   6.189   4.470   4.140
11753TIP3   OH235201   3.548   4.494   6.204
11753TIP3    H135202   3.569   4.530   6.290
11753TIP3    H235203   3.613   4.425   6.191
11754TIP3   OH235204   2.144   7.407   2.330
11754TIP3    H135205   2.212   7.371   2.272
11754TIP3    H235206   2.172   7.497   2.346
11755TIP3   OH235207   3.763   0.207   3.996
11755TIP3    H135208   3.692   0.221   4.058
11755TIP3    H235209   3.806   0.127   4.026
11756TIP3   OH235210   0.411   5.724   1.134
11756TIP3    H135211   0.453   5.640   1.151
11756TIP3    H235212   0.472   5.770   1.076
11757TIP3   OH235213   4.329   5.378   2.130
11757TIP3    H135214   4.255   5.343   2.179
11757TIP3    H235215   4.375   5.434   2.192
11758TIP3   OH235216   3.800   1.347   3.573
11758TIP3    H135217   3.813   1.394   3.490
11758TIP3    H235218   3.812   1.414   3.640
11759TIP3   OH235219   3.063   5.162   1.613
11759TIP3    H135220   2.977   5.125   1.591
11759TIP3    H235221   3.097   5.194   1.529
11760TIP3   OH235222   6.788   3.775   4.885
11760TIP3    H135223   6.852   3.834   4.925
11760TIP3    H235224   6.814   3.769   4.793
11761TIP3   OH235225   6.115   0.440   6.070
11761TIP3    H135226   6.113   0.385   6.149
11761TIP3    H235227   6.145   0.382   6.001
11762TIP3   OH235228   6.409   7.788   0.059
11762TIP3    H135229   6.459   7.750   0.131
11762TIP3    H235230   6.319   7.759   0.074
11763TIP3   OH235231   4.437   4.935   5.821
11763TIP3    H135232   4.495   4.964   5.891
11763TIP3    H235233   4.473   4.851   5.792
11764TIP3   OH235234   6.026   3.024   3.687
11764TIP3    H135235   6.110   2.979   3.695
11764TIP3    H235236   5.999   3.010   3.596
11765TIP3   OH235237   6.028   1.898   0.091
11765TIP3    H135238   6.055   1.850   0.170
11765TIP3    H235239   6.046   1.989   0.112
11766TIP3   OH235240   2.173   6.991   5.831
11766TIP3    H135241   2.214   6.943   5.903
11766TIP3    H235242   2.185   6.935   5.754
11767TIP3   OH235243   6.931   6.221   4.048
11767TIP3    H135244   6.867   6.269   4.100
11767TIP3    H235245   6.884   6.194   3.970
11768TIP3   OH235246   4.014   5.505   4.153
11768TIP3    H135247   4.083   5.571   4.164
11768TIP3    H235248   4.033   5.439   4.220
11769TIP3   OH235249   2.458   7.497   1.814
11769TIP3    H135250   2.400   7.427   1.783
11769TIP3    H235251   2.546   7.466   1.794
11770TIP3   OH235252   3.512   7.498   1.291
11770TIP3    H135253   3.523   7.494   1.386
11770TIP3    H235254   3.588   7.548   1.260
11771TIP3   OH235255   1.337   6.579   5.603
11771TIP3    H135256   1.367   6.527   5.678
11771TIP3    H235257   1.290   6.517   5.547
11772TIP3   OH235258   5.650   0.599   6.243
11772TIP3    H135259   5.660   0.693   6.254
11772TIP3    H235260   5.644   0.565   6.333
11773TIP3   OH235261   4.696   4.278   5.786
11773TIP3    H135262   4.629   4.210   5.796
11773TIP3    H235263   4.757   4.242   5.721
11774TIP3   OH235264   4.131   6.899   3.618
11774TIP3    H135265   4.105   6.870   3.706
11774TIP3    H235266   4.226   6.889   3.617
11775TIP3   OH235267   0.943   2.742   6.583
11775TIP3    H135268   0.899   2.755   6.667
11775TIP3    H235269   0.892   2.674   6.539
11776TIP3   OH235270   3.303   5.405   1.091
11776TIP3    H135271   3.259   5.388   1.007
11776TIP3    H235272   3.324   5.318   1.125
11777TIP3   OH235273   8.002   0.998   0.774
11777TIP3    H135274   7.926   0.966   0.726
11777TIP3    H235275   8.007   0.942   0.852
11778TIP3   OH235276   4.109   0.725   0.120
11778TIP3    H135277   4.186   0.742   0.174
11778TIP3    H235278   4.048   0.680   0.178
11779TIP3   OH235279   2.589   3.050   5.979
11779TIP3    H135280   2.630   3.009   6.055
11779TIP3    H235281   2.595   2.985   5.909
11780TIP3   OH235282   3.198   2.785   1.846
11780TIP3    H135283   3.230   2.721   1.783
11780TIP3    H235284   3.125   2.829   1.803
11781TIP3   OH235285   6.643   7.056   5.704
11781TIP3    H135286   6.614   7.128   5.760
11781TIP3    H235287   6.623   7.085   5.615
11782TIP3   OH235288   3.645   3.899   2.933
11782TIP3    H135289   3.705   3.973   2.933
11782TIP3    H235290   3.589   3.913   2.857
11783TIP3   OH235291   4.620   6.347   2.007
11783TIP3    H135292   4.574   6.272   1.970
11783TIP3    H235293   4.643   6.319   2.096
11784TIP3   OH235294   4.545   0.255   1.989
11784TIP3    H135295   4.559   0.213   1.905
11784TIP3    H235296   4.475   0.205   2.031
11785TIP3   OH235297   4.197   2.269   5.523
11785TIP3    H135298   4.114   2.312   5.538
11785TIP3    H235299   4.210   2.272   5.429
11786TIP3   OH235300   1.112   5.676   5.732
11786TIP3    H135301   1.157   5.645   5.653
11786TIP3    H235302   1.036   5.724   5.699
11787TIP3   OH235303   5.125   5.364   0.571
11787TIP3    H135304   5.170   5.279   0.567
11787TIP3    H235305   5.128   5.388   0.664
11788TIP3   OH235306   5.525   0.449   2.414
11788TIP3    H135307   5.579   0.520   2.381
11788TIP3    H235308   5.549   0.373   2.361
11789TIP3   OH235309   7.984   3.966   3.973
11789TIP3    H135310   8.003   4.035   3.909
11789TIP3    H235311   7.901   3.993   4.012
11790TIP3   OH235312   6.753   1.511   5.740
11790TIP3    H135313   6.689   1.522   5.811
11790TIP3    H235314   6.752   1.417   5.722
11791TIP3   OH235315   1.721   4.680   0.198
11791TIP3    H135316   1.774   4.600   0.203
11791TIP3    H235317   1.637   4.655   0.236
11792TIP3   OH235318   5.966   7.608   0.161
11792TIP3    H135319   5.953   7.516   0.180
11792TIP3    H235320   5.900   7.654   0.213
11793TIP3   OH235321   2.841   6.202   6.309
11793TIP3    H135322   2.774   6.157   6.257
11793TIP3    H235323   2.905   6.232   6.245
11794TIP3   OH235324   0.363   6.692   6.336
11794TIP3    H135325   0.413   6.769   6.310
11794TIP3    H235326   0.417   6.618   6.307
11795TIP3   OH235327   7.052   5.711   0.351
11795TIP3    H135328   6.997   5.647   0.396
11795TIP3    H235329   7.135   5.709   0.399
11796TIP3   OH235330   3.435   4.643   4.064
11796TIP3    H135331   3.409   4.662   3.974
11796TIP3    H235332   3.414   4.550   4.075
11797TIP3   OH235333   6.188   5.847   4.013
11797TIP3    H135334   6.171   5.788   4.087
11797TIP3    H235335   6.277   5.826   3.986
11798TIP3   OH235336   2.174   5.056   6.204
11798TIP3    H135337   2.187   4.969   6.243
11798TIP3    H235338   2.184   5.117   6.277
11799TIP3   OH235339   5.666   2.650   4.715
11799TIP3    H135340   5.688   2.588   4.784
11799TIP3    H235341   5.586   2.692   4.745
11800TIP3   OH235342   7.311   3.361   5.125
11800TIP3    H135343   7.309   3.348   5.219
11800TIP3    H235344   7.273   3.280   5.089
11801TIP3   OH235345   2.915   3.828   5.336
11801TIP3    H135346   2.933   3.760   5.272
11801TIP3    H235347   2.948   3.794   5.419
11802TIP3   OH235348   8.105   1.033   3.058
11802TIP3    H135349   8.090   1.118   3.098
11802TIP3    H235350   8.198   1.031   3.038
11803TIP3   OH235351   7.248   1.644   5.587
11803TIP3    H135352   7.292   1.563   5.562
11803TIP3    H235353   7.164   1.616   5.622
11804TIP3   OH235354   6.161   7.002   6.247
11804TIP3    H135355   6.155   7.038   6.336
11804TIP3    H235356   6.250   7.024   6.219
11805TIP3   OH235357   0.370   3.252   2.685
11805TIP3    H135358   0.275   3.245   2.677
11805TIP3    H235359   0.395   3.317   2.620
11806TIP3   OH235360   5.878   3.372   2.497
11806TIP3    H135361   5.860   3.464   2.516
11806TIP3    H235362   5.942   3.346   2.564
11807TIP3   OH235363   6.880   2.495   3.204
11807TIP3    H135364   6.795   2.486   3.161
11807TIP3    H235365   6.896   2.410   3.246
11808TIP3   OH235366   1.341   7.822   4.955
11808TIP3    H135367   1.310   7.835   4.865
11808TIP3    H235368   1.314   7.733   4.977
11809TIP3   OH235369   2.803   2.324   1.429
11809TIP3    H135370   2.837   2.300   1.515
11809TIP3    H235371   2.800   2.242   1.380
11810TIP3   OH235372   3.628   6.179   5.247
11810TIP3    H135373   3.613   6.252   5.187
11810TIP3    H235374   3.574   6.200   5.324
11811TIP3   OH235375   5.837   2.087   6.217
11811TIP3    H135376   5.767   2.042   6.265
11811TIP3    H235377   5.846   2.172   6.260
11812TIP3   OH235378   5.986   2.935   0.301
11812TIP3    H135379   5.956   3.012   0.350
11812TIP3    H235380   6.037   2.971   0.229
11813TIP3   OH235381   4.379   4.732   3.338
11813TIP3    H135382   4.355   4.811   3.290
11813TIP3    H235383   4.311   4.669   3.316
11814TIP3   OH235384   2.912   4.362   0.516
11814TIP3    H135385   2.957   4.280   0.497
11814TIP3    H235386   2.844   4.368   0.448
11815TIP3   OH235387   1.164   5.429   3.490
11815TIP3    H135388   1.237   5.489   3.502
11815TIP3    H235389   1.096   5.462   3.547
11816TIP3   OH235390   6.284   3.935   6.199
11816TIP3    H135391   6.270   3.926   6.105
11816TIP3    H235392   6.287   4.029   6.214
11817TIP3   OH235393   6.807   0.569   2.443
11817TIP3    H135394   6.715   0.588   2.463
11817TIP3    H235395   6.829   0.495   2.500
11818TIP3   OH235396   1.867   0.535   4.843
11818TIP3    H135397   1.917   0.605   4.801
11818TIP3    H235398   1.856   0.564   4.933
11819TIP3   OH235399   8.099   1.249   2.361
11819TIP3    H135400   8.112   1.174   2.303
11819TIP3    H235401   8.175   1.305   2.344
11820TIP3   OH235402   6.694   4.187   3.984
11820TIP3    H135403   6.607   4.145   3.987
11820TIP3    H235404   6.749   4.125   3.937
11821TIP3   OH235405   6.671   4.318   5.436
11821TIP3    H135406   6.729   4.320   5.512
11821TIP3    H235407   6.598   4.376   5.460
11822TIP3   OH235408   6.453   0.972   5.407
11822TIP3    H135409   6.385   1.027   5.367
11822TIP3    H235410   6.405   0.907   5.458
11823TIP3   OH235411   4.448   1.850   0.599
11823TIP3    H135412   4.385   1.896   0.654
11823TIP3    H235413   4.394   1.800   0.537
11824TIP3   OH235414   1.314   3.671   2.318
11824TIP3    H135415   1.287   3.694   2.229
11824TIP3    H235416   1.386   3.609   2.306
11825TIP3   OH235417   7.741   2.918   2.669
11825TIP3    H135418   7.675   2.849   2.672
11825TIP3    H235419   7.822   2.875   2.698
11826TIP3   OH235420   2.004   4.046   6.623
11826TIP3    H135421   2.053   3.967   6.602
11826TIP3    H235422   1.923   4.039   6.572
11827TIP3   OH235423   7.676   0.970   4.394
11827TIP3    H135424   7.611   0.955   4.325
11827TIP3    H235425   7.629   0.954   4.475
11828TIP3   OH235426   1.519   6.939   4.770
11828TIP3    H135427   1.424   6.948   4.775
11828TIP3    H235428   1.540   6.957   4.679
11829TIP3   OH235429   7.507   3.844   0.766
11829TIP3    H135430   7.549   3.768   0.725
11829TIP3    H235431   7.575   3.882   0.821
11830TIP3   OH235432   3.327   6.303   1.839
11830TIP3    H135433   3.416   6.297   1.874
11830TIP3    H235434   3.309   6.216   1.803
11831TIP3   OH235435   6.857   1.821   5.861
11831TIP3    H135436   6.810   1.904   5.864
11831TIP3    H235437   6.793   1.758   5.828
11832TIP3   OH235438   0.899   4.155   1.272
11832TIP3    H135439   0.943   4.072   1.254
11832TIP3    H235440   0.946   4.219   1.218
11833TIP3   OH235441   2.167   2.055   0.266
11833TIP3    H135442   2.194   2.087   0.180
11833TIP3    H235443   2.243   2.069   0.322
11834TIP3   OH235444   7.195   3.821   6.430
11834TIP3    H135445   7.203   3.815   6.334
11834TIP3    H235446   7.115   3.873   6.443
11835TIP3   OH235447   2.040   2.121   2.902
11835TIP3    H135448   2.096   2.050   2.869
11835TIP3    H235449   2.092   2.200   2.888
11836TIP3   OH235450   7.840   7.072   1.885
11836TIP3    H135451   7.778   6.999   1.893
11836TIP3    H235452   7.905   7.055   1.953
11837TIP3   OH235453   0.487   1.293   0.169
11837TIP3    H135454   0.437   1.214   0.151
11837TIP3    H235455   0.472   1.349   0.093
11838TIP3   OH235456   6.187   7.246   1.502
11838TIP3    H135457   6.268   7.208   1.534
11838TIP3    H235458   6.119   7.186   1.533
11839TIP3   OH235459   3.830   4.625   3.399
11839TIP3    H135460   3.860   4.644   3.488
11839TIP3    H235461   3.775   4.700   3.376
11840TIP3   OH235462   0.173   7.304   4.311
11840TIP3    H135463   0.119   7.228   4.330
11840TIP3    H235464   0.239   7.305   4.381
11841TIP3   OH235465   4.284   3.907   6.053
11841TIP3    H135466   4.247   3.978   6.106
11841TIP3    H235467   4.244   3.828   6.088
11842TIP3   OH235468   6.650   4.464   2.767
11842TIP3    H135469   6.639   4.514   2.686
11842TIP3    H235470   6.683   4.379   2.738
11843TIP3   OH235471   3.264  -0.037   1.225
11843TIP3    H135472   3.197   0.012   1.273
11843TIP3    H235473   3.215  -0.106   1.180
11844TIP3   OH235474   2.256   4.019   5.244
11844TIP3    H135475   2.346   4.038   5.269
11844TIP3    H235476   2.263   3.949   5.179
11845TIP3   OH235477   3.010   1.958   1.415
11845TIP3    H135478   2.982   1.887   1.473
11845TIP3    H235479   2.982   1.930   1.328
11846TIP3   OH235480   2.793   3.274   4.651
11846TIP3    H135481   2.886   3.261   4.636
11846TIP3    H235482   2.788   3.343   4.717
11847TIP3   OH235483   3.937   3.669   6.706
11847TIP3    H135484   3.959   3.588   6.661
11847TIP3    H235485   3.856   3.699   6.664
11848TIP3   OH235486   6.130   3.243   3.070
11848TIP3    H135487   6.038   3.264   3.084
11848TIP3    H235488   6.138   3.232   2.975
11849TIP3   OH235489   6.433   5.116   1.900
11849TIP3    H135490   6.503   5.052   1.885
11849TIP3    H235491   6.430   5.167   1.820
11850TIP3   OH235492   0.719   0.344   5.881
11850TIP3    H135493   0.739   0.359   5.789
11850TIP3    H235494   0.793   0.291   5.913
11851TIP3   OH235495   0.573   1.720   6.458
11851TIP3    H135496   0.616   1.650   6.408
11851TIP3    H235497   0.480   1.697   6.456
11852TIP3   OH235498   3.244   1.587   3.773
11852TIP3    H135499   3.177   1.651   3.749
11852TIP3    H235500   3.283   1.561   3.690
11853TIP3   OH235501   0.019   7.285   2.772
11853TIP3    H135502   0.095   7.229   2.759
11853TIP3    H235503   0.051   7.357   2.827
11854TIP3   OH235504   2.564   4.712   4.037
11854TIP3    H135505   2.527   4.762   3.965
11854TIP3    H235506   2.649   4.682   4.005
11855TIP3   OH235507   8.263   4.566   1.936
11855TIP3    H135508   8.213   4.560   1.855
11855TIP3    H235509   8.220   4.504   1.996
11856TIP3   OH235510   0.463   5.305   0.960
11856TIP3    H135511   0.495   5.305   0.870
11856TIP3    H235512   0.518   5.369   1.005
11857TIP3   OH235513   2.561   1.151   6.281
11857TIP3    H135514   2.646   1.154   6.237
11857TIP3    H235515   2.581   1.163   6.374
11858TIP3   OH235516   1.400   6.014   2.180
11858TIP3    H135517   1.465   6.019   2.110
11858TIP3    H235518   1.333   5.953   2.146
11859TIP3   OH235519   4.402   7.738   5.653
11859TIP3    H135520   4.322   7.727   5.601
11859TIP3    H235521   4.385   7.686   5.732
11860TIP3   OH235522   1.982   7.731   0.872
11860TIP3    H135523   1.962   7.662   0.809
11860TIP3    H235524   1.940   7.809   0.836
11861TIP3   OH235525   2.755   2.663   5.428
11861TIP3    H135526   2.703   2.610   5.489
11861TIP3    H235527   2.832   2.690   5.478
11862TIP3   OH235528   3.998   4.142   4.130
11862TIP3    H135529   3.950   4.128   4.048
11862TIP3    H235530   3.951   4.089   4.195
11863TIP3   OH235531   5.651   7.374   6.591
11863TIP3    H135532   5.646   7.438   6.519
11863TIP3    H235533   5.726   7.319   6.568
11864TIP3   OH235534   6.230   7.570   0.570
11864TIP3    H135535   6.197   7.597   0.656
11864TIP3    H235536   6.192   7.484   0.555
11865TIP3   OH235537   0.047   7.414   2.517
11865TIP3    H135538   0.000   7.380   2.594
11865TIP3    H235539  -0.010   7.483   2.484
11866TIP3   OH235540   0.095   2.903   1.770
11866TIP3    H135541   0.164   2.952   1.724
11866TIP3    H235542   0.042   2.971   1.812
11867TIP3   OH235543   5.843   4.102   2.358
11867TIP3    H135544   5.804   4.144   2.434
11867TIP3    H235545   5.802   4.145   2.283
11868TIP3   OH235546   2.558   0.288   6.145
11868TIP3    H135547   2.650   0.299   6.122
11868TIP3    H235548   2.558   0.220   6.212
11869TIP3   OH235549   7.129   5.945   0.519
11869TIP3    H135550   7.191   5.998   0.570
11869TIP3    H235551   7.085   6.009   0.462
11870TIP3   OH235552   4.541   5.395   2.910
11870TIP3    H135553   4.539   5.402   2.815
11870TIP3    H235554   4.542   5.485   2.941
11871TIP3   OH235555   0.734   4.774   0.355
11871TIP3    H135556   0.656   4.822   0.382
11871TIP3    H235557   0.733   4.696   0.411
11872TIP3   OH235558   1.007   4.579   4.552
11872TIP3    H135559   1.020   4.631   4.631
11872TIP3    H235560   1.095   4.556   4.523
11873TIP3   OH235561   5.315   1.435   3.989
11873TIP3    H135562   5.223   1.461   3.984
11873TIP3    H235563   5.350   1.455   3.902
11874TIP3   OH235564   3.762   4.112   2.837
11874TIP3    H135565   3.743   4.152   2.752
11874TIP3    H235566   3.801   4.183   2.889
11875TIP3   OH235567   2.142   6.928   0.650
11875TIP3    H135568   2.142   6.919   0.554
11875TIP3    H235569   2.166   7.019   0.665
11876TIP3   OH235570   5.918   2.628   4.627
11876TIP3    H135571   5.830   2.651   4.658
11876TIP3    H235572   5.977   2.665   4.694
11877TIP3   OH235573   3.566   6.662   0.073
11877TIP3    H135574   3.535   6.732   0.131
11877TIP3    H235575   3.487   6.631   0.029
11878TIP3   OH235576   7.177   5.978   5.342
11878TIP3    H135577   7.098   6.031   5.341
11878TIP3    H235578   7.148   5.891   5.371
11879TIP3   OH235579   5.310   6.124   0.780
11879TIP3    H135580   5.263   6.059   0.831
11879TIP3    H235581   5.377   6.075   0.733
11880TIP3   OH235582   5.064   5.341   6.464
11880TIP3    H135583   5.046   5.405   6.533
11880TIP3    H235584   5.088   5.394   6.388
11881TIP3   OH235585   1.064   5.620   0.525
11881TIP3    H135586   0.984   5.659   0.491
11881TIP3    H235587   1.134   5.672   0.487
11882TIP3   OH235588   3.008   1.741   5.946
11882TIP3    H135589   3.058   1.822   5.941
11882TIP3    H235590   3.030   1.705   6.032
11883TIP3   OH235591   1.802   6.970   3.151
11883TIP3    H135592   1.834   6.881   3.158
11883TIP3    H235593   1.813   7.007   3.238
11884TIP3   OH235594   1.652   3.177   1.942
11884TIP3    H135595   1.725   3.115   1.943
11884TIP3    H235596   1.603   3.155   1.862
11885TIP3   OH235597   1.062   1.403   3.991
11885TIP3    H135598   1.128   1.340   4.020
11885TIP3    H235599   1.112   1.469   3.942
11886TIP3   OH235600   7.796   2.727   1.328
11886TIP3    H135601   7.839   2.806   1.298
11886TIP3    H235602   7.824   2.717   1.419
11887TIP3   OH235603   3.102   1.931   4.015
11887TIP3    H135604   3.188   1.891   3.997
11887TIP3    H235605   3.103   1.947   4.110
11888TIP3   OH235606   2.326   2.256   2.551
11888TIP3    H135607   2.411   2.300   2.554
11888TIP3    H235608   2.275   2.307   2.488
11889TIP3   OH235609   6.363   5.448   3.836
11889TIP3    H135610   6.442   5.422   3.883
11889TIP3    H235611   6.395   5.484   3.753
11890TIP3   OH235612   0.137   0.783   5.435
11890TIP3    H135613   0.083   0.703   5.440
11890TIP3    H235614   0.073   0.854   5.433
11891TIP3   OH235615   0.022   3.343   3.039
11891TIP3    H135616   0.093   3.401   3.067
11891TIP3    H235617  -0.055   3.401   3.033
11892TIP3   OH235618   2.271   6.300   5.706
11892TIP3    H135619   2.256   6.230   5.643
11892TIP3    H235620   2.348   6.272   5.756
11893TIP3   OH235621   3.494   4.693   4.878
11893TIP3    H135622   3.415   4.747   4.885
11893TIP3    H235623   3.502   4.674   4.784
11894TIP3   OH235624   6.094   0.078   3.801
11894TIP3    H135625   6.171   0.086   3.857
11894TIP3    H235626   6.020   0.074   3.862
11895TIP3   OH235627   2.242   0.509   5.156
11895TIP3    H135628   2.246   0.587   5.101
11895TIP3    H235629   2.212   0.541   5.241
11896TIP3   OH235630   0.977   0.065   5.451
11896TIP3    H135631   0.933   0.073   5.535
11896TIP3    H235632   1.055   0.011   5.470
11897TIP3   OH235633   4.263   5.228   4.572
11897TIP3    H135634   4.190   5.283   4.599
11897TIP3    H235635   4.338   5.260   4.623
11898TIP3   OH235636   0.962   5.613   2.711
11898TIP3    H135637   1.028   5.596   2.778
11898TIP3    H235638   0.935   5.704   2.727
11899TIP3   OH235639   5.495   3.482   2.469
11899TIP3    H135640   5.512   3.425   2.393
11899TIP3    H235641   5.516   3.570   2.437
11900TIP3   OH235642   3.374   2.189   4.178
11900TIP3    H135643   3.413   2.276   4.176
11900TIP3    H235644   3.315   2.187   4.102
11901TIP3   OH235645   6.935   1.006   3.379
11901TIP3    H135646   6.931   1.094   3.341
11901TIP3    H235647   7.015   0.967   3.343
11902TIP3   OH235648   6.778   3.978   4.526
11902TIP3    H135649   6.750   4.048   4.585
11902TIP3    H235650   6.744   3.898   4.567
11903TIP3   OH235651   7.773   3.091   5.216
11903TIP3    H135652   7.736   3.130   5.137
11903TIP3    H235653   7.851   3.145   5.234
11904TIP3   OH235654   3.725   6.571   6.284
11904TIP3    H135655   3.757   6.659   6.301
11904TIP3    H235656   3.739   6.557   6.190
11905TIP3   OH235657   3.143   0.283   5.619
11905TIP3    H135658   3.059   0.237   5.629
11905TIP3    H235659   3.208   0.213   5.621
11906TIP3   OH235660   4.252   1.926   0.779
11906TIP3    H135661   4.177   1.869   0.760
11906TIP3    H235662   4.221   2.014   0.757
11907TIP3   OH235663   1.300   1.212   4.306
11907TIP3    H135664   1.271   1.121   4.299
11907TIP3    H235665   1.253   1.258   4.236
11908TIP3   OH235666   6.808   3.365   1.737
11908TIP3    H135667   6.748   3.319   1.679
11908TIP3    H235668   6.871   3.299   1.764
11909TIP3   OH235669   1.791   1.743   6.611
11909TIP3    H135670   1.881   1.746   6.645
11909TIP3    H235671   1.764   1.652   6.622
11910TIP3   OH235672   7.453   2.868   4.658
11910TIP3    H135673   7.396   2.809   4.609
11910TIP3    H235674   7.519   2.811   4.697
11911TIP3   OH235675   5.155   6.894   5.384
11911TIP3    H135676   5.196   6.952   5.319
11911TIP3    H235677   5.227   6.842   5.419
11912TIP3   OH235678   2.202   6.759   4.523
11912TIP3    H135679   2.207   6.664   4.535
11912TIP3    H235680   2.109   6.776   4.507
11913TIP3   OH235681   6.820   2.145   2.407
11913TIP3    H135682   6.749   2.086   2.380
11913TIP3    H235683   6.826   2.132   2.502
11914TIP3   OH235684   4.362   7.461   0.789
11914TIP3    H135685   4.374   7.551   0.757
11914TIP3    H235686   4.277   7.462   0.832
11915TIP3   OH235687   2.243   1.778   4.219
11915TIP3    H135688   2.321   1.752   4.267
11915TIP3    H235689   2.210   1.697   4.180
11916TIP3   OH235690   4.846   6.442   2.975
11916TIP3    H135691   4.854   6.394   2.892
11916TIP3    H235692   4.900   6.392   3.036
11917TIP3   OH235693   7.999   2.766   5.039
11917TIP3    H135694   7.957   2.702   5.097
11917TIP3    H235695   7.943   2.767   4.961
11918TIP3   OH235696   4.051   1.145   2.663
11918TIP3    H135697   4.062   1.177   2.573
11918TIP3    H235698   4.039   1.051   2.654
11919TIP3   OH235699   4.038   5.151   5.165
11919TIP3    H135700   4.082   5.229   5.130
11919TIP3    H235701   4.092   5.124   5.239
11920TIP3   OH235702   7.464   2.394   3.692
11920TIP3    H135703   7.484   2.302   3.672
11920TIP3    H235704   7.513   2.413   3.772
11921TIP3   OH235705   2.590   3.556   3.898
11921TIP3    H135706   2.632   3.515   3.823
11921TIP3    H235707   2.583   3.486   3.963
11922TIP3   OH235708   1.567   6.750   5.552
11922TIP3    H135709   1.632   6.730   5.620
11922TIP3    H235710   1.496   6.687   5.568
11923TIP3   OH235711   8.187   4.113   2.974
11923TIP3    H135712   8.108   4.165   2.991
11923TIP3    H235713   8.247   4.174   2.932
11924TIP3   OH235714   6.208   4.443   3.469
11924TIP3    H135715   6.198   4.435   3.374
11924TIP3    H235716   6.189   4.535   3.487
11925TIP3   OH235717   0.347   1.388   2.386
11925TIP3    H135718   0.373   1.480   2.383
11925TIP3    H235719   0.365   1.355   2.298
11926TIP3   OH235720   3.641   6.369   0.055
11926TIP3    H135721   3.548   6.372   0.032
11926TIP3    H235722   3.668   6.461   0.053
11927TIP3   OH235723   7.385   6.088   0.361
11927TIP3    H135724   7.379   6.061   0.453
11927TIP3    H235725   7.479   6.093   0.344
11928TIP3   OH235726   4.058   5.496   3.023
11928TIP3    H135727   4.087   5.569   2.968
11928TIP3    H235728   4.140   5.456   3.054
11929TIP3   OH235729   7.441   6.762   3.785
11929TIP3    H135730   7.495   6.686   3.761
11929TIP3    H235731   7.463   6.828   3.719
11930TIP3   OH235732   5.603   1.001   0.937
11930TIP3    H135733   5.633   0.912   0.959
11930TIP3    H235734   5.608   1.005   0.842
11931TIP3   OH235735   2.341   6.015   2.222
11931TIP3    H135736   2.407   5.988   2.158
11931TIP3    H235737   2.257   6.000   2.179
11932TIP3   OH235738   7.333   4.584   5.957
11932TIP3    H135739   7.326   4.677   5.976
11932TIP3    H235740   7.427   4.569   5.943
11933TIP3   OH235741   1.368   5.617   4.044
11933TIP3    H135742   1.370   5.648   3.953
11933TIP3    H235743   1.278   5.586   4.057
11934TIP3   OH235744   3.019   1.534   3.385
11934TIP3    H135745   3.085   1.561   3.321
11934TIP3    H235746   2.952   1.489   3.333
11935TIP3   OH235747   2.916   1.726   1.564
11935TIP3    H135748   2.839   1.673   1.582
11935TIP3    H235749   2.987   1.663   1.553
11936TIP3   OH235750   0.816   5.025   1.943
11936TIP3    H135751   0.746   4.975   1.903
11936TIP3    H235752   0.886   5.026   1.878
11937TIP3   OH235753   1.443   0.972   2.786
11937TIP3    H135754   1.423   1.047   2.730
11937TIP3    H235755   1.358   0.947   2.823
11938TIP3   OH235756   7.010   0.506   6.448
11938TIP3    H135757   7.040   0.422   6.481
11938TIP3    H235758   7.020   0.566   6.522
11939TIP3   OH235759   4.292   0.778   0.312
11939TIP3    H135760   4.275   0.708   0.374
11939TIP3    H235761   4.303   0.857   0.366
11940TIP3   OH235762   5.868   4.536   5.080
11940TIP3    H135763   5.812   4.603   5.042
11940TIP3    H235764   5.955   4.575   5.082
11941TIP3   OH235765   2.622   6.645   3.963
11941TIP3    H135766   2.691   6.603   3.911
11941TIP3    H235767   2.651   6.736   3.972
11942TIP3   OH235768   6.949   0.329   0.497
11942TIP3    H135769   6.879   0.266   0.517
11942TIP3    H235770   6.980   0.303   0.411
11943TIP3   OH235771   7.428   1.992   3.958
11943TIP3    H135772   7.342   2.029   3.973
11943TIP3    H235773   7.452   1.952   4.042
11944TIP3   OH235774   8.112   4.026   0.057
11944TIP3    H135775   8.133   3.934   0.046
11944TIP3    H235776   8.052   4.045  -0.015
11945TIP3   OH235777   1.014   2.881   0.194
11945TIP3    H135778   1.006   2.789   0.220
11945TIP3    H235779   1.076   2.918   0.256
11946TIP3   OH235780   3.309   4.256   1.901
11946TIP3    H135781   3.397   4.291   1.911
11946TIP3    H235782   3.315   4.197   1.825
11947TIP3   OH235783   1.408   2.655   4.894
11947TIP3    H135784   1.490   2.703   4.908
11947TIP3    H235785   1.381   2.628   4.981
11948TIP3   OH235786   2.107   6.513   3.920
11948TIP3    H135787   2.082   6.600   3.949
11948TIP3    H235788   2.198   6.522   3.892
11949TIP3   OH235789   4.766   2.183   1.133
11949TIP3    H135790   4.682   2.218   1.104
11949TIP3    H235791   4.805   2.145   1.054
11950TIP3   OH235792   6.870   4.615   2.835
11950TIP3    H135793   6.949   4.566   2.811
11950TIP3    H235794   6.801   4.549   2.836
11951TIP3   OH235795   5.739   0.937   4.480
11951TIP3    H135796   5.696   0.858   4.449
11951TIP3    H235797   5.758   0.920   4.573
11952TIP3   OH235798   1.876   7.260   1.896
11952TIP3    H135799   1.965   7.239   1.923
11952TIP3    H235800   1.825   7.183   1.921
11953TIP3   OH235801   2.772   2.096   1.573
11953TIP3    H135802   2.686   2.056   1.586
11953TIP3    H235803   2.811   2.047   1.501
11954TIP3   OH235804   0.770   2.364   4.699
11954TIP3    H135805   0.848   2.311   4.679
11954TIP3    H235806   0.699   2.319   4.655
11955TIP3   OH235807   6.287   0.998   6.105
11955TIP3    H135808   6.367   0.947   6.100
11955TIP3    H235809   6.245   0.985   6.020
11956TIP3   OH235810   4.261   6.962   1.239
11956TIP3    H135811   4.177   6.916   1.237
11956TIP3    H235812   4.259   7.012   1.320
11957TIP3   OH235813   2.326   7.241   1.836
11957TIP3    H135814   2.371   7.267   1.917
11957TIP3    H235815   2.252   7.189   1.865
11958TIP3   OH235816   3.046   0.879   3.788
11958TIP3    H135817   3.097   0.914   3.861
11958TIP3    H235818   3.108   0.825   3.739
11959TIP3   OH235819   4.314   3.730   6.730
11959TIP3    H135820   4.381   3.703   6.793
11959TIP3    H235821   4.255   3.786   6.781
11960TIP3   OH235822   5.554   1.400   5.337
11960TIP3    H135823   5.497   1.345   5.391
11960TIP3    H235824   5.532   1.489   5.363
11961TIP3   OH235825   0.443   1.488   0.957
11961TIP3    H135826   0.357   1.529   0.952
11961TIP3    H235827   0.427   1.401   0.991
11962TIP3   OH235828   6.585   1.601   3.552
11962TIP3    H135829   6.555   1.664   3.486
11962TIP3    H235830   6.510   1.543   3.565
11963TIP3   OH235831   3.142   5.405   5.613
11963TIP3    H135832   3.083   5.368   5.679
11963TIP3    H235833   3.225   5.358   5.626
11964TIP3   OH235834   3.557   1.295   5.677
11964TIP3    H135835   3.583   1.226   5.615
11964TIP3    H235836   3.639   1.341   5.696
11965TIP3   OH235837   6.919   5.997   4.622
11965TIP3    H135838   6.998   5.969   4.576
11965TIP3    H235839   6.947   6.073   4.673
11966TIP3   OH235840   0.658   1.205   2.559
11966TIP3    H135841   0.571   1.242   2.573
11966TIP3    H235842   0.643   1.112   2.548
11967TIP3   OH235843   2.074   7.384   5.580
11967TIP3    H135844   2.054   7.293   5.559
11967TIP3    H235845   2.143   7.408   5.519
11968TIP3   OH235846   3.325   3.414   4.839
11968TIP3    H135847   3.297   3.459   4.919
11968TIP3    H235848   3.412   3.450   4.820
11969TIP3   OH235849   3.118   5.251   4.717
11969TIP3    H135850   3.185   5.308   4.678
11969TIP3    H235851   3.061   5.228   4.644
11970TIP3   OH235852   2.814   6.317   3.452
11970TIP3    H135853   2.849   6.371   3.522
11970TIP3    H235854   2.890   6.267   3.421
11971TIP3   OH235855   1.595   6.953   0.129
11971TIP3    H135856   1.508   6.951   0.170
11971TIP3    H235857   1.656   6.950   0.203
11972TIP3   OH235858   4.787   1.315   4.663
11972TIP3    H135859   4.747   1.295   4.748
11972TIP3    H235860   4.734   1.265   4.600
11973TIP3   OH235861   1.530   4.430   4.144
11973TIP3    H135862   1.553   4.384   4.062
11973TIP3    H235863   1.596   4.400   4.207
11974TIP3   OH235864   4.681   5.458   5.648
11974TIP3    H135865   4.641   5.371   5.655
11974TIP3    H235866   4.701   5.467   5.555
11975TIP3   OH235867   3.978   5.657   4.545
11975TIP3    H135868   3.957   5.743   4.581
11975TIP3    H235869   4.058   5.630   4.589
11976TIP3   OH235870   0.676   5.148   3.513
11976TIP3    H135871   0.662   5.201   3.435
11976TIP3    H235872   0.596   5.160   3.565
11977TIP3   OH235873   3.566   4.386   3.313
11977TIP3    H135874   3.556   4.479   3.292
11977TIP3    H235875   3.647   4.381   3.363
11978TIP3   OH235876   0.824   2.668   0.520
11978TIP3    H135877   0.879   2.633   0.450
11978TIP3    H235878   0.813   2.595   0.581
11979TIP3   OH235879   0.975   1.228   2.905
11979TIP3    H135880   0.947   1.139   2.927
11979TIP3    H235881   0.905   1.284   2.939
11980TIP3   OH235882   1.684   4.232   5.068
11980TIP3    H135883   1.609   4.219   5.010
11980TIP3    H235884   1.703   4.144   5.102
11981TIP3   OH235885   2.349   3.348   2.676
11981TIP3    H135886   2.310   3.313   2.596
11981TIP3    H235887   2.275   3.388   2.723
11982TIP3   OH235888   6.909   0.802   1.989
11982TIP3    H135889   6.828   0.770   2.031
11982TIP3    H235890   6.970   0.814   2.062
11983TIP3   OH235891   3.855   2.230   5.466
11983TIP3    H135892   3.912   2.156   5.446
11983TIP3    H235893   3.779   2.218   5.410
11984TIP3   OH235894   8.143   5.808   1.224
11984TIP3    H135895   8.233   5.830   1.248
11984TIP3    H235896   8.104   5.773   1.305
11985TIP3   OH235897   3.342   4.190   3.217
11985TIP3    H135898   3.391   4.108   3.217
11985TIP3    H235899   3.400   4.252   3.262
11986TIP3   OH235900   7.131   6.489   4.460
11986TIP3    H135901   7.061   6.538   4.504
11986TIP3    H235902   7.180   6.556   4.412
11987TIP3   OH235903   0.830   2.065   5.606
11987TIP3    H135904   0.829   2.012   5.526
11987TIP3    H235905   0.923   2.079   5.624
11988TIP3   OH235906   3.100   0.300   3.215
11988TIP3    H135907   3.100   0.374   3.276
11988TIP3    H235908   3.121   0.224   3.270
11989TIP3   OH235909   0.485   4.298   2.458
11989TIP3    H135910   0.571   4.285   2.419
11989TIP3    H235911   0.436   4.218   2.437
11990TIP3   OH235912   3.954   0.742   6.225
11990TIP3    H135913   3.949   0.648   6.240
11990TIP3    H235914   3.985   0.778   6.309
11991TIP3   OH235915   3.325   7.370   3.393
11991TIP3    H135916   3.300   7.280   3.374
11991TIP3    H235917   3.418   7.365   3.415
11992TIP3   OH235918   3.602   0.839   3.407
11992TIP3    H135919   3.585   0.932   3.416
11992TIP3    H235920   3.683   0.834   3.357
11993TIP3   OH235921   0.346   3.581   1.707
11993TIP3    H135922   0.312   3.638   1.637
11993TIP3    H235923   0.273   3.524   1.729
11994TIP3   OH235924   8.154   3.431   0.697
11994TIP3    H135925   8.161   3.381   0.616
11994TIP3    H235926   8.119   3.516   0.671
11995TIP3   OH235927   3.868   0.249   1.870
11995TIP3    H135928   3.885   0.157   1.852
11995TIP3    H235929   3.851   0.287   1.784
11996TIP3   OH235930   7.310   2.173   6.420
11996TIP3    H135931   7.249   2.220   6.363
11996TIP3    H235932   7.384   2.232   6.429
11997TIP3   OH235933   5.480   7.760   6.231
11997TIP3    H135934   5.506   7.693   6.294
11997TIP3    H235935   5.440   7.829   6.284
11998TIP3   OH235936   1.997   7.155   5.477
11998TIP3    H135937   1.985   7.145   5.383
11998TIP3    H235938   1.928   7.101   5.516
11999TIP3   OH235939   1.116   1.256   0.044
11999TIP3    H135940   1.165   1.194  -0.010
11999TIP3    H235941   1.125   1.340  -0.001
12000TIP3   OH235942   6.479   1.020   3.267
12000TIP3    H135943   6.557   0.964   3.265
12000TIP3    H235944   6.514   1.109   3.273
12001TIP3   OH235945   0.096   4.412   3.987
12001TIP3    H135946   0.013   4.398   3.941
12001TIP3    H235947   0.094   4.349   4.059
12002TIP3   OH235948   1.278   0.945   0.365
12002TIP3    H135949   1.220   0.935   0.440
12002TIP3    H235950   1.279   1.040   0.348
12003TIP3   OH235951   7.966   6.637   5.277
12003TIP3    H135952   7.887   6.675   5.317
12003TIP3    H235953   8.011   6.712   5.238
12004TIP3   OH235954   7.467   0.363   4.860
12004TIP3    H135955   7.445   0.403   4.776
12004TIP3    H235956   7.562   0.368   4.865
12005TIP3   OH235957   5.432   7.669  -0.037
12005TIP3    H135958   5.440   7.610   0.038
12005TIP3    H235959   5.337   7.675  -0.052
12006TIP3   OH235960  -0.002   5.099   1.535
12006TIP3    H135961   0.093   5.115   1.531
12006TIP3    H235962  -0.021   5.096   1.629
12007TIP3   OH235963   2.140   1.422   5.754
12007TIP3    H135964   2.151   1.508   5.712
12007TIP3    H235965   2.209   1.418   5.820
12008TIP3   OH235966   6.053   3.043   4.570
12008TIP3    H135967   6.084   3.130   4.544
12008TIP3    H235968   5.967   3.059   4.609
12009TIP3   OH235969   6.602   1.165   3.878
12009TIP3    H135970   6.611   1.213   3.795
12009TIP3    H235971   6.665   1.207   3.937
12010TIP3   OH235972   2.455   4.255   0.586
12010TIP3    H135973   2.538   4.242   0.541
12010TIP3    H235974   2.442   4.174   0.636
12011TIP3   OH235975   6.386   4.021   4.434
12011TIP3    H135976   6.336   4.034   4.514
12011TIP3    H235977   6.465   4.073   4.446
12012TIP3   OH235978   2.872   5.903   3.680
12012TIP3    H135979   2.904   5.850   3.754
12012TIP3    H235980   2.779   5.914   3.697
12013TIP3   OH235981   6.890   6.142   6.253
12013TIP3    H135982   6.911   6.084   6.180
12013TIP3    H235983   6.901   6.230   6.217
12014TIP3   OH235984   1.604   1.796   3.065
12014TIP3    H135985   1.523   1.773   3.110
12014TIP3    H235986   1.575   1.824   2.978
12015TIP3   OH235987   4.307   7.525   6.090
12015TIP3    H135988   4.340   7.528   6.179
12015TIP3    H235989   4.268   7.438   6.081
12016TIP3   OH235990   0.349   3.540   3.715
12016TIP3    H135991   0.271   3.485   3.704
12016TIP3    H235992   0.313   3.625   3.740
12017TIP3   OH235993   8.155   0.777   4.701
12017TIP3    H135994   8.192   0.837   4.764
12017TIP3    H235995   8.220   0.773   4.630
12018TIP3   OH235996   0.990   6.837   3.734
12018TIP3    H135997   1.013   6.878   3.651
12018TIP3    H235998   1.004   6.743   3.720
12019TIP3   OH235999   6.282   7.661   6.488
12019TIP3    H136000   6.355   7.599   6.481
12019TIP3    H236001   6.205   7.605   6.494
12020TIP3   OH236002   4.008   4.760   1.150
12020TIP3    H136003   3.950   4.744   1.225
12020TIP3    H236004   4.028   4.672   1.117
12021TIP3   OH236005   6.836   4.987   1.094
12021TIP3    H136006   6.854   5.070   1.137
12021TIP3    H236007   6.911   4.932   1.116
12022TIP3   OH236008   0.642   0.614   6.309
12022TIP3    H136009   0.683   0.625   6.223
12022TIP3    H236010   0.570   0.553   6.294
12023TIP3   OH236011   7.870   0.525   6.643
12023TIP3    H136012   7.893   0.616   6.661
12023TIP3    H236013   7.848   0.489   6.729
12024TIP3   OH236014   5.701   6.625   6.102
12024TIP3    H136015   5.710   6.545   6.154
12024TIP3    H236016   5.641   6.680   6.152
12025TIP3   OH236017   0.690   5.881   5.837
12025TIP3    H136018   0.663   5.822   5.908
12025TIP3    H236019   0.608   5.916   5.803
12026TIP3   OH236020   3.263   6.565   3.145
12026TIP3    H136021   3.221   6.564   3.231
12026TIP3    H236022   3.299   6.653   3.136
12027TIP3   OH236023   4.978   5.780   2.986
12027TIP3    H136024   4.935   5.727   2.919
12027TIP3    H236025   5.071   5.767   2.971
12028TIP3   OH236026   7.403   0.382   1.125
12028TIP3    H136027   7.494   0.405   1.104
12028TIP3    H236028   7.351   0.449   1.081
12029TIP3   OH236029   4.912   4.054   4.077
12029TIP3    H136030   4.917   3.970   4.032
12029TIP3    H236031   5.003   4.079   4.091
12030TIP3   OH236032   3.815   6.459   1.909
12030TIP3    H136033   3.796   6.527   1.973
12030TIP3    H236034   3.906   6.436   1.924
12031TIP3   OH236035   3.931   3.740   2.384
12031TIP3    H136036   3.984   3.677   2.432
12031TIP3    H236037   3.863   3.686   2.342
12032TIP3   OH236038   1.748   4.171   2.087
12032TIP3    H136039   1.750   4.117   2.167
12032TIP3    H236040   1.654   4.184   2.070
12033TIP3   OH236041   8.127   6.509   5.454
12033TIP3    H136042   8.065   6.439   5.435
12033TIP3    H236043   8.100   6.582   5.399
12034TIP3   OH236044   7.089   2.753   1.176
12034TIP3    H136045   7.129   2.777   1.092
12034TIP3    H236046   7.164   2.741   1.235
12035TIP3   OH236047   2.774   1.681   6.454
12035TIP3    H136048   2.767   1.604   6.398
12035TIP3    H236049   2.690   1.725   6.445
12036TIP3   OH236050   5.475   7.319   3.410
12036TIP3    H136051   5.421   7.303   3.487
12036TIP3    H236052   5.546   7.374   3.442
12037TIP3   OH236053   6.418   3.356   0.978
12037TIP3    H136054   6.498   3.309   0.952
12037TIP3    H236055   6.402   3.417   0.907
12038TIP3   OH236056   6.578   1.540   6.472
12038TIP3    H136057   6.601   1.473   6.408
12038TIP3    H236058   6.551   1.615   6.420
12039TIP3   OH236059   6.319   0.376   1.489
12039TIP3    H136060   6.315   0.375   1.394
12039TIP3    H236061   6.413   0.383   1.509
12040TIP3   OH236062   1.907   1.205   6.175
12040TIP3    H136063   1.957   1.155   6.240
12040TIP3    H236064   1.935   1.295   6.187
12041TIP3   OH236065   1.517   5.708   3.274
12041TIP3    H136066   1.584   5.641   3.263
12041TIP3    H236067   1.539   5.775   3.209
12042TIP3   OH236068   0.151   1.538   1.968
12042TIP3    H136069   0.222   1.534   1.904
12042TIP3    H236070   0.073   1.555   1.915
12043TIP3   OH236071   7.117   0.146   5.906
12043TIP3    H136072   7.123   0.203   5.829
12043TIP3    H236073   7.205   0.109   5.915
12044TIP3   OH236074   0.443   2.945   0.229
12044TIP3    H136075   0.423   2.857   0.263
12044TIP3    H236076   0.503   2.982   0.293
12045TIP3   OH236077   7.611   7.556   1.278
12045TIP3    H136078   7.592   7.562   1.184
12045TIP3    H236079   7.589   7.465   1.301
12046TIP3   OH236080   8.181   0.867   4.437
12046TIP3    H136081   8.118   0.903   4.375
12046TIP3    H236082   8.266   0.877   4.395
12047TIP3   OH236083   0.428   1.068   3.271
12047TIP3    H136084   0.432   0.988   3.218
12047TIP3    H236085   0.492   1.127   3.232
12048TIP3   OH236086   6.593   0.197   6.287
12048TIP3    H136087   6.677   0.194   6.333
12048TIP3    H236088   6.607   0.260   6.215
12049TIP3   OH236089   7.064   6.249   4.374
12049TIP3    H136090   7.099   6.335   4.396
12049TIP3    H236091   7.140   6.193   4.364
12050TIP3   OH236092   2.210   7.153   4.393
12050TIP3    H136093   2.212   7.150   4.489
12050TIP3    H236094   2.155   7.228   4.373
12051TIP3   OH236095   1.540   0.429   6.740
12051TIP3    H136096   1.478   0.491   6.702
12051TIP3    H236097   1.621   0.479   6.752
12052TIP3   OH236098   4.650   5.230   0.692
12052TIP3    H136099   4.557   5.207   0.689
12052TIP3    H236100   4.671   5.233   0.785
12053TIP3   OH236101   5.407   4.919   4.545
12053TIP3    H136102   5.383   4.969   4.467
12053TIP3    H236103   5.383   4.975   4.618
12054TIP3   OH236104   0.993   5.253   6.619
12054TIP3    H136105   0.954   5.207   6.694
12054TIP3    H236106   0.955   5.210   6.542
12055TIP3   OH236107   0.312   1.269   4.199
12055TIP3    H136108   0.288   1.222   4.278
12055TIP3    H236109   0.402   1.242   4.182
12056TIP3   OH236110   6.605   5.039   2.429
12056TIP3    H136111   6.572   5.012   2.343
12056TIP3    H236112   6.564   4.979   2.491
12057TIP3   OH236113   0.345   7.154   5.526
12057TIP3    H136114   0.300   7.131   5.608
12057TIP3    H236115   0.342   7.073   5.474
12058TIP3   OH236116   6.232   3.494   3.109
12058TIP3    H136117   6.306   3.469   3.054
12058TIP3    H236118   6.188   3.412   3.130
12059TIP3   OH236119   0.922   4.922   6.117
12059TIP3    H136120   0.829   4.939   6.104
12059TIP3    H236121   0.953   4.891   6.032
12060TIP3   OH236122   0.034   6.962   2.308
12060TIP3    H136123   0.004   6.990   2.221
12060TIP3    H236124   0.119   7.004   2.318
12061TIP3   OH236125   5.379   3.645   3.300
12061TIP3    H136126   5.339   3.594   3.229
12061TIP3    H236127   5.447   3.697   3.256
12062TIP3   OH236128   7.512   0.824   2.979
12062TIP3    H136129   7.488   0.784   3.063
12062TIP3    H236130   7.573   0.761   2.939
12063TIP3   OH236131   4.771   2.346   0.392
12063TIP3    H136132   4.783   2.438   0.413
12063TIP3    H236133   4.755   2.344   0.298
12064TIP3   OH236134   8.148   4.786   1.249
12064TIP3    H136135   8.066   4.738   1.238
12064TIP3    H236136   8.206   4.725   1.295
12065TIP3   OH236137   7.223   2.553   4.693
12065TIP3    H136138   7.140   2.598   4.712
12065TIP3    H236139   7.225   2.547   4.597
12066TIP3   OH236140   0.657   0.715   5.107
12066TIP3    H136141   0.655   0.703   5.202
12066TIP3    H236142   0.635   0.629   5.072
12067TIP3   OH236143   5.406   6.743   2.258
12067TIP3    H136144   5.355   6.673   2.217
12067TIP3    H236145   5.455   6.783   2.186
12068TIP3   OH236146   0.668   5.800   3.109
12068TIP3    H136147   0.745   5.782   3.164
12068TIP3    H236148   0.693   5.765   3.023
12069TIP3   OH236149   7.792   1.562   5.920
12069TIP3    H136150   7.749   1.645   5.939
12069TIP3    H236151   7.791   1.556   5.824
12070TIP3   OH236152   2.006   1.022   0.765
12070TIP3    H136153   2.063   0.945   0.768
12070TIP3    H236154   2.007   1.049   0.673
12071TIP3   OH236155   0.381   5.328   2.226
12071TIP3    H136156   0.354   5.346   2.136
12071TIP3    H236157   0.299   5.314   2.273
12072TIP3   OH236158   6.677   3.430   5.826
12072TIP3    H136159   6.749   3.461   5.770
12072TIP3    H236160   6.668   3.337   5.805
12073TIP3   OH236161   4.962   2.828   0.954
12073TIP3    H136162   5.023   2.827   1.027
12073TIP3    H236163   4.889   2.882   0.985
12074TIP3   OH236164   4.554   0.290   2.639
12074TIP3    H136165   4.591   0.260   2.556
12074TIP3    H236166   4.501   0.366   2.615
12075TIP3   OH236167   2.471   5.053   4.645
12075TIP3    H136168   2.564   5.069   4.656
12075TIP3    H236169   2.456   5.063   4.551
12076TIP3   OH236170   4.872   1.834   0.689
12076TIP3    H136171   4.905   1.913   0.646
12076TIP3    H236172   4.910   1.838   0.777
12077TIP3   OH236173   3.912   2.242   1.367
12077TIP3    H136174   3.909   2.336   1.346
12077TIP3    H236175   3.871   2.236   1.453
12078TIP3   OH236176   5.547   1.527   0.087
12078TIP3    H136177   5.599   1.577   0.025
12078TIP3    H236178   5.552   1.577   0.169
12079TIP3   OH236179   1.596   4.012   2.620
12079TIP3    H136180   1.571   4.018   2.712
12079TIP3    H236181   1.586   3.919   2.599
12080TIP3   OH236182   3.048   6.137   3.357
12080TIP3    H136183   3.070   6.170   3.270
12080TIP3    H236184   3.119   6.169   3.413
12081TIP3   OH236185   5.825   7.712   2.147
12081TIP3    H136186   5.814   7.749   2.060
12081TIP3    H236187   5.879   7.633   2.134
12082TIP3   OH236188   3.080   5.519   3.692
12082TIP3    H136189   3.064   5.443   3.748
12082TIP3    H236190   3.119   5.482   3.612
12083TIP3   OH236191   4.358   5.359   5.542
12083TIP3    H136192   4.451   5.354   5.520
12083TIP3    H236193   4.343   5.288   5.604
12084TIP3   OH236194   1.332   7.078   5.732
12084TIP3    H136195   1.295   7.033   5.656
12084TIP3    H236196   1.427   7.076   5.716
12085TIP3   OH236197   7.365   0.729   4.779
12085TIP3    H136198   7.334   0.638   4.771
12085TIP3    H236199   7.458   0.721   4.798
12086TIP3   OH236200   2.281   0.541   3.310
12086TIP3    H136201   2.263   0.602   3.380
12086TIP3    H236202   2.269   0.592   3.230
12087TIP3   OH236203   3.064   2.467   4.158
12087TIP3    H136204   2.982   2.419   4.163
12087TIP3    H236205   3.101   2.444   4.073
12088TIP3   OH236206   2.085   3.301   4.014
12088TIP3    H136207   2.139   3.230   3.979
12088TIP3    H236208   2.101   3.298   4.108
12089TIP3   OH236209   2.922   1.855   2.621
12089TIP3    H136210   2.888   1.935   2.662
12089TIP3    H236211   2.992   1.826   2.679
12090TIP3   OH236212   5.662   3.382   2.989
12090TIP3    H136213   5.679   3.469   2.952
12090TIP3    H236214   5.646   3.398   3.082
12091TIP3   OH236215   6.756   7.328   2.978
12091TIP3    H136216   6.849   7.304   2.981
12091TIP3    H236217   6.710   7.245   2.971
12092TIP3   OH236218   1.761   1.148   5.914
12092TIP3    H136219   1.670   1.118   5.904
12092TIP3    H236220   1.782   1.130   6.005
12093TIP3   OH236221   5.363   2.952   2.990
12093TIP3    H136222   5.408   3.015   3.046
12093TIP3    H236223   5.406   2.961   2.905
12094TIP3   OH236224   6.117   0.446   1.658
12094TIP3    H136225   6.161   0.420   1.738
12094TIP3    H236226   6.185   0.443   1.591
12095TIP3   OH236227   2.221   6.074   6.319
12095TIP3    H136228   2.216   6.168   6.333
12095TIP3    H236229   2.314   6.053   6.330
12096TIP3   OH236230   8.076   0.653   5.305
12096TIP3    H136231   8.127   0.732   5.289
12096TIP3    H236232   8.028   0.671   5.385
12097TIP3   OH236233   2.734   4.555   3.755
12097TIP3    H136234   2.649   4.589   3.725
12097TIP3    H236235   2.711   4.482   3.812
12098TIP3   OH236236   5.677   0.544   1.755
12098TIP3    H136237   5.688   0.585   1.841
12098TIP3    H236238   5.760   0.557   1.711
12099TIP3   OH236239   0.243   5.692   3.101
12099TIP3    H136240   0.147   5.690   3.109
12099TIP3    H236241   0.271   5.756   3.166
12100TIP3   OH236242   1.174   4.623   3.068
12100TIP3    H136243   1.224   4.671   3.002
12100TIP3    H236244   1.201   4.532   3.055
12101TIP3   OH236245   1.335   1.471   5.986
12101TIP3    H136246   1.244   1.474   6.016
12101TIP3    H236247   1.367   1.560   6.002
12102TIP3   OH236248   4.845   3.304   4.405
12102TIP3    H136249   4.783   3.233   4.423
12102TIP3    H236250   4.900   3.309   4.483
12103TIP3   OH236251   7.908   1.152   6.061
12103TIP3    H136252   7.857   1.208   6.003
12103TIP3    H236253   7.894   1.064   6.027
12104TIP3   OH236254   1.652   4.828   1.881
12104TIP3    H136255   1.705   4.892   1.930
12104TIP3    H236256   1.706   4.806   1.805
12105TIP3   OH236257   5.756   1.866   4.862
12105TIP3    H136258   5.757   1.772   4.879
12105TIP3    H236259   5.788   1.875   4.773
12106TIP3   OH236260   4.683   2.743   3.726
12106TIP3    H136261   4.710   2.669   3.780
12106TIP3    H236262   4.672   2.705   3.638
12107TIP3   OH236263   2.582   3.397   5.347
12107TIP3    H136264   2.673   3.407   5.320
12107TIP3    H236265   2.560   3.481   5.388
12108TIP3   OH236266   8.158   5.235   1.180
12108TIP3    H136267   8.143   5.146   1.213
12108TIP3    H236268   8.200   5.281   1.252
12109TIP3   OH236269   4.962   3.812   3.158
12109TIP3    H136270   5.026   3.880   3.139
12109TIP3    H236271   4.995   3.734   3.113
12110TIP3   OH236272   3.527   5.148   2.197
12110TIP3    H136273   3.446   5.122   2.241
12110TIP3    H236274   3.564   5.216   2.254
12111TIP3   OH236275   3.543   5.590   1.598
12111TIP3    H136276   3.512   5.658   1.657
12111TIP3    H236277   3.603   5.537   1.651
12112TIP3   OH236278   7.085   2.468   0.960
12112TIP3    H136279   7.090   2.373   0.945
12112TIP3    H236280   7.129   2.482   1.044
12113TIP3   OH236281   3.168   1.294   3.796
12113TIP3    H136282   3.235   1.231   3.772
12113TIP3    H236283   3.218   1.373   3.819
12114TIP3   OH236284   3.475   0.366   4.754
12114TIP3    H136285   3.506   0.450   4.720
12114TIP3    H236286   3.523   0.300   4.704
12115TIP3   OH236287   0.868   3.992   5.707
12115TIP3    H136288   0.843   3.903   5.732
12115TIP3    H236289   0.964   3.992   5.710
12116TIP3   OH236290   0.541   2.135   3.195
12116TIP3    H136291   0.508   2.203   3.254
12116TIP3    H236292   0.634   2.153   3.186
12117TIP3   OH236293   1.347   2.207   0.059
12117TIP3    H136294   1.363   2.126   0.011
12117TIP3    H236295   1.255   2.201   0.084
12118TIP3   OH236296   7.164   4.458   0.841
12118TIP3    H136297   7.145   4.366   0.822
12118TIP3    H236298   7.185   4.496   0.756
12119TIP3   OH236299   1.443   2.339   3.479
12119TIP3    H136300   1.393   2.337   3.398
12119TIP3    H236301   1.534   2.327   3.450
12120TIP3   OH236302   1.624   7.764   5.293
12120TIP3    H136303   1.640   7.691   5.352
12120TIP3    H236304   1.648   7.731   5.206
12121TIP3   OH236305   7.894   5.000   3.922
12121TIP3    H136306   7.942   4.964   3.847
12121TIP3    H236307   7.959   5.007   3.992
12122TIP3   OH236308   6.806   4.512   2.151
12122TIP3    H136309   6.740   4.553   2.206
12122TIP3    H236310   6.873   4.580   2.138
12123TIP3   OH236311   6.529   3.909   0.113
12123TIP3    H136312   6.619   3.886   0.091
12123TIP3    H236313   6.480   3.828   0.103
12124TIP3   OH236314   6.508   6.175   0.802
12124TIP3    H136315   6.417   6.201   0.818
12124TIP3    H236316   6.510   6.150   0.710
12125TIP3   OH236317   1.691   7.684   3.612
12125TIP3    H136318   1.599   7.660   3.628
12125TIP3    H236319   1.704   7.764   3.662
12126TIP3   OH236320   0.135   6.789   4.921
12126TIP3    H136321   0.115   6.713   4.977
12126TIP3    H236322   0.202   6.837   4.969
12127TIP3   OH236323   4.084   6.542   5.177
12127TIP3    H136324   4.056   6.627   5.143
12127TIP3    H236325   4.080   6.484   5.101
12128TIP3   OH236326   5.666   0.806   3.122
12128TIP3    H136327   5.698   0.726   3.080
12128TIP3    H236328   5.719   0.814   3.202
12129TIP3   OH236329   5.475   5.746   3.820
12129TIP3    H136330   5.551   5.763   3.876
12129TIP3    H236331   5.493   5.661   3.780
12130TIP3   OH236332   3.388   2.692   0.658
12130TIP3    H136333   3.465   2.647   0.693
12130TIP3    H236334   3.314   2.646   0.697
12131TIP3   OH236335   3.858   4.537   0.228
12131TIP3    H136336   3.953   4.520   0.233
12131TIP3    H236337   3.835   4.570   0.315
12132TIP3   OH236338   6.110   4.760   1.647
12132TIP3    H136339   6.043   4.794   1.587
12132TIP3    H236340   6.141   4.836   1.695
12133TIP3   OH236341   2.388   0.858   4.452
12133TIP3    H136342   2.334   0.861   4.530
12133TIP3    H236343   2.340   0.910   4.387
12134TIP3   OH236344   7.292   2.242   2.694
12134TIP3    H136345   7.312   2.335   2.688
12134TIP3    H236346   7.315   2.207   2.607
12135TIP3   OH236347   7.672   3.134   0.694
12135TIP3    H136348   7.696   3.064   0.633
12135TIP3    H236349   7.587   3.165   0.664
12136TIP3   OH236350   5.217   0.494   6.248
12136TIP3    H136351   5.303   0.473   6.212
12136TIP3    H236352   5.159   0.428   6.211
12137TIP3   OH236353   5.313   5.170   2.120
12137TIP3    H136354   5.281   5.217   2.197
12137TIP3    H236355   5.373   5.232   2.078
12138TIP3   OH236356   7.932   6.313   3.155
12138TIP3    H136357   7.930   6.259   3.233
12138TIP3    H236358   7.970   6.257   3.087
12139TIP3   OH236359   3.410   3.589   3.740
12139TIP3    H136360   3.488   3.539   3.713
12139TIP3    H236361   3.439   3.639   3.816
12140TIP3   OH236362   1.469   2.734   1.888
12140TIP3    H136363   1.529   2.781   1.946
12140TIP3    H236364   1.519   2.657   1.860
12141TIP3   OH236365   5.702   3.875   4.354
12141TIP3    H136366   5.643   3.800   4.352
12141TIP3    H236367   5.717   3.897   4.262
12142TIP3   OH236368   2.392   0.229   5.947
12142TIP3    H136369   2.471   0.270   5.981
12142TIP3    H236370   2.395   0.140   5.981
12143TIP3   OH236371   0.325   5.553   3.389
12143TIP3    H136372   0.289   5.487   3.330
12143TIP3    H236373   0.250   5.581   3.442
12144TIP3   OH236374   3.935   1.707   3.267
12144TIP3    H136375   4.000   1.675   3.204
12144TIP3    H236376   3.968   1.679   3.352
12145TIP3   OH236377   5.648   0.084   1.967
12145TIP3    H136378   5.580   0.075   1.899
12145TIP3    H236379   5.725   0.115   1.919
12146TIP3   OH236380   0.657   3.765   4.860
12146TIP3    H136381   0.662   3.773   4.765
12146TIP3    H236382   0.663   3.671   4.876
12147TIP3   OH236383   8.300   3.831   4.698
12147TIP3    H136384   8.233   3.763   4.695
12147TIP3    H236385   8.317   3.844   4.792
12148TIP3   OH236386   7.199   2.610   6.443
12148TIP3    H136387   7.265   2.587   6.378
12148TIP3    H236388   7.248   2.631   6.522
12149TIP3   OH236389   6.544   0.895   1.824
12149TIP3    H136390   6.595   0.947   1.762
12149TIP3    H236391   6.596   0.816   1.838
12150TIP3   OH236392   5.861   7.155   5.108
12150TIP3    H136393   5.933   7.154   5.044
12150TIP3    H236394   5.782   7.159   5.054
12151TIP3   OH236395   4.743   3.641   3.291
12151TIP3    H136396   4.689   3.627   3.213
12151TIP3    H236397   4.823   3.681   3.258
12152TIP3   OH236398   7.299   2.036   4.276
12152TIP3    H136399   7.325   2.098   4.207
12152TIP3    H236400   7.378   2.024   4.328
12153TIP3   OH236401   5.409   5.391   6.308
12153TIP3    H136402   5.315   5.392   6.288
12153TIP3    H236403   5.423   5.308   6.353
12154TIP3   OH236404   7.273   1.820   3.020
12154TIP3    H136405   7.357   1.787   3.052
12154TIP3    H236406   7.278   1.915   3.030
12155TIP3   OH236407   6.017   3.723   2.943
12155TIP3    H136408   5.982   3.803   2.982
12155TIP3    H236409   6.035   3.666   3.018
12156TIP3   OH236410   3.480   6.823   6.600
12156TIP3    H136411   3.438   6.824   6.514
12156TIP3    H236412   3.543   6.895   6.597
12157TIP3   OH236413   0.362   0.541   5.092
12157TIP3    H136414   0.329   0.626   5.122
12157TIP3    H236415   0.287   0.501   5.049
12158TIP3   OH236416   0.088   2.163   2.600
12158TIP3    H136417   0.123   2.129   2.682
12158TIP3    H236418   0.065   2.254   2.619
12159TIP3   OH236419   6.816   6.396   6.718
12159TIP3    H136420   6.745   6.458   6.702
12159TIP3    H236421   6.841   6.364   6.632
12160TIP3   OH236422   0.819   2.362   4.152
12160TIP3    H136423   0.761   2.360   4.076
12160TIP3    H236424   0.902   2.395   4.118
12161TIP3   OH236425   4.567   1.509   0.330
12161TIP3    H136426   4.610   1.555   0.403
12161TIP3    H236427   4.506   1.448   0.373
12162TIP3   OH236428   4.174   7.253   0.423
12162TIP3    H136429   4.117   7.296   0.486
12162TIP3    H236430   4.129   7.171   0.401
12163TIP3   OH236431   7.246   7.021   4.135
12163TIP3    H136432   7.247   7.011   4.230
12163TIP3    H236433   7.247   6.931   4.102
12164TIP3   OH236434   6.069   3.286   3.774
12164TIP3    H136435   6.049   3.199   3.739
12164TIP3    H236436   5.991   3.311   3.823
12165TIP3   OH236437   6.834   6.957   3.658
12165TIP3    H136438   6.740   6.960   3.673
12165TIP3    H236439   6.846   6.894   3.586
12166TIP3   OH236440   7.797   5.794   1.290
12166TIP3    H136441   7.800   5.728   1.222
12166TIP3    H236442   7.859   5.764   1.356
12167TIP3   OH236443   2.865   7.253   1.745
12167TIP3    H136444   2.873   7.172   1.694
12167TIP3    H236445   2.777   7.286   1.726
12168TIP3   OH236446   7.600   5.465   5.592
12168TIP3    H136447   7.626   5.373   5.589
12168TIP3    H236448   7.504   5.462   5.597
12169TIP3   OH236449   6.759   0.652   1.293
12169TIP3    H136450   6.803   0.593   1.354
12169TIP3    H236451   6.823   0.720   1.275
12170TIP3   OH236452   0.487   0.662   4.822
12170TIP3    H136453   0.564   0.608   4.805
12170TIP3    H236454   0.413   0.603   4.815
12171TIP3   OH236455   4.102   5.937   2.722
12171TIP3    H136456   4.019   5.958   2.765
12171TIP3    H236457   4.077   5.887   2.645
12172TIP3   OH236458   2.701   4.222   5.997
12172TIP3    H136459   2.706   4.227   5.901
12172TIP3    H236460   2.608   4.236   6.016
12173TIP3   OH236461   2.863   1.044   3.512
12173TIP3    H136462   2.935   1.100   3.542
12173TIP3    H236463   2.791   1.064   3.571
12174TIP3   OH236464   7.361   1.326   3.193
12174TIP3    H136465   7.434   1.385   3.210
12174TIP3    H236466   7.398   1.238   3.199
12175TIP3   OH236467   5.872   6.852   3.602
12175TIP3    H136468   5.858   6.758   3.606
12175TIP3    H236469   5.874   6.881   3.693
12176TIP3   OH236470   4.374   5.925   1.177
12176TIP3    H136471   4.281   5.950   1.184
12176TIP3    H236472   4.376   5.833   1.202
12177TIP3   OH236473   0.142   3.212   4.001
12177TIP3    H136474   0.170   3.165   3.923
12177TIP3    H236475   0.114   3.297   3.969
12178TIP3   OH236476   3.836   0.233   6.449
12178TIP3    H136477   3.750   0.254   6.413
12178TIP3    H236478   3.852   0.143   6.422
12179TIP3   OH236479   4.823   1.658   4.200
12179TIP3    H136480   4.746   1.640   4.254
12179TIP3    H236481   4.818   1.751   4.180
12180TIP3   OH236482   7.553   4.928   1.649
12180TIP3    H136483   7.628   4.986   1.635
12180TIP3    H236484   7.478   4.986   1.653
12181TIP3   OH236485   0.495   1.002   5.939
12181TIP3    H136486   0.506   0.926   5.996
12181TIP3    H236487   0.431   0.973   5.874
12182TIP3   OH236488   7.619   3.297   2.893
12182TIP3    H136489   7.656   3.377   2.855
12182TIP3    H236490   7.528   3.296   2.864
12183TIP3   OH236491   4.586   4.136   1.987
12183TIP3    H136492   4.639   4.062   1.956
12183TIP3    H236493   4.500   4.098   2.004
12184TIP3   OH236494   4.766   2.599   2.911
12184TIP3    H136495   4.755   2.678   2.963
12184TIP3    H236496   4.703   2.537   2.947
12185TIP3   OH236497   7.259   6.218   0.863
12185TIP3    H136498   7.188   6.243   0.804
12185TIP3    H236499   7.245   6.270   0.942
12186TIP3   OH236500   4.394   7.388   6.767
12186TIP3    H136501   4.342   7.378   6.687
12186TIP3    H236502   4.399   7.300   6.804
12187TIP3   OH236503   3.398   7.045   3.009
12187TIP3    H136504   3.467   7.053   3.076
12187TIP3    H236505   3.356   6.961   3.028
12188TIP3   OH236506   7.126   6.818   2.850
12188TIP3    H136507   7.070   6.869   2.908
12188TIP3    H236508   7.210   6.864   2.852
12189TIP3   OH236509   6.815   2.967   3.344
12189TIP3    H136510   6.822   2.995   3.435
12189TIP3    H236511   6.760   2.889   3.348
12190TIP3   OH236512   0.796   0.983   0.876
12190TIP3    H136513   0.752   1.009   0.795
12190TIP3    H236514   0.726   0.982   0.941
12191TIP3   OH236515   0.550   2.375   2.991
12191TIP3    H136516   0.515   2.303   2.939
12191TIP3    H236517   0.474   2.429   3.010
12192TIP3   OH236518   7.137   6.369   3.639
12192TIP3    H136519   7.074   6.385   3.568
12192TIP3    H236520   7.108   6.427   3.709
12193TIP3   OH236521   4.828   3.545   6.364
12193TIP3    H136522   4.907   3.592   6.339
12193TIP3    H236523   4.822   3.472   6.301
12194TIP3   OH236524   2.303   2.864   3.612
12194TIP3    H136525   2.306   2.769   3.616
12194TIP3    H236526   2.390   2.893   3.638
12195TIP3   OH236527   4.318   1.052   3.221
12195TIP3    H136528   4.259   1.113   3.178
12195TIP3    H236529   4.401   1.099   3.228
12196TIP3   OH236530   2.149   2.988   1.496
12196TIP3    H136531   2.182   3.011   1.583
12196TIP3    H236532   2.215   3.023   1.436
12197TIP3   OH236533   7.395   3.951   6.783
12197TIP3    H136534   7.401   3.943   6.687
12197TIP3    H236535   7.301   3.938   6.801
12198TIP3   OH236536   4.733   4.107   5.297
12198TIP3    H136537   4.755   4.031   5.244
12198TIP3    H236538   4.637   4.111   5.295
12199TIP3   OH236539   5.089   1.438   6.468
12199TIP3    H136540   5.135   1.363   6.503
12199TIP3    H236541   5.029   1.466   6.538
12200TIP3   OH236542   3.945   0.605   5.798
12200TIP3    H136543   4.019   0.570   5.847
12200TIP3    H236544   3.871   0.600   5.859
12201TIP3   OH236545   5.271   3.248   1.568
12201TIP3    H136546   5.357   3.284   1.587
12201TIP3    H236547   5.209   3.314   1.599
12202TIP3   OH236548   7.507   6.850   2.755
12202TIP3    H136549   7.447   6.892   2.817
12202TIP3    H236550   7.487   6.756   2.762
12203TIP3   OH236551   5.338   4.782   3.922
12203TIP3    H136552   5.416   4.782   3.978
12203TIP3    H236553   5.278   4.722   3.966
12204TIP3   OH236554   6.654   3.467   1.433
12204TIP3    H136555   6.619   3.539   1.380
12204TIP3    H236556   6.736   3.501   1.468
12205TIP3   OH236557   5.978   2.488   3.781
12205TIP3    H136558   5.901   2.533   3.816
12205TIP3    H236559   6.002   2.540   3.704
12206TIP3   OH236560   5.084   2.708   4.773
12206TIP3    H136561   5.128   2.652   4.709
12206TIP3    H236562   5.137   2.788   4.775
12207TIP3   OH236563   0.450   0.718   0.546
12207TIP3    H136564   0.402   0.654   0.599
12207TIP3    H236565   0.535   0.678   0.530
12208TIP3   OH236566   5.917   0.131   4.792
12208TIP3    H136567   5.829   0.159   4.816
12208TIP3    H236568   5.907   0.086   4.708
12209TIP3   OH236569   0.813   3.652   2.674
12209TIP3    H136570   0.901   3.614   2.669
12209TIP3    H236571   0.755   3.576   2.675
12210TIP3   OH236572   4.896   3.423   6.613
12210TIP3    H136573   4.894   3.327   6.609
12210TIP3    H236574   4.889   3.451   6.522
12211TIP3   OH236575   1.189   2.817   4.103
12211TIP3    H136576   1.227   2.902   4.079
12211TIP3    H236577   1.265   2.760   4.117
12212TIP3   OH236578   2.582   4.510   0.468
12212TIP3    H136579   2.632   4.506   0.549
12212TIP3    H236580   2.647   4.497   0.399
12213TIP3   OH236581   4.967   2.445   5.780
12213TIP3    H136582   4.933   2.377   5.838
12213TIP3    H236583   5.016   2.396   5.713
12214TIP3   OH236584   2.281   2.138   4.071
12214TIP3    H136585   2.252   2.091   3.992
12214TIP3    H236586   2.300   2.227   4.040
12215TIP3   OH236587   0.498   6.394   3.309
12215TIP3    H136588   0.523   6.484   3.289
12215TIP3    H236589   0.405   6.399   3.330
12216TIP3   OH236590   7.581   7.541   0.370
12216TIP3    H136591   7.582   7.480   0.296
12216TIP3    H236592   7.573   7.627   0.329
12217TIP3   OH236593   5.980   6.031   3.956
12217TIP3    H136594   5.904   6.010   4.011
12217TIP3    H236595   6.032   5.951   3.955
12218TIP3   OH236596   4.170   3.198   2.250
12218TIP3    H136597   4.238   3.202   2.317
12218TIP3    H236598   4.214   3.227   2.170
12219TIP3   OH236599   1.308   2.749   2.147
12219TIP3    H136600   1.227   2.801   2.139
12219TIP3    H236601   1.332   2.729   2.056
12220TIP3   OH236602   5.982   5.188   0.921
12220TIP3    H136603   5.982   5.250   0.995
12220TIP3    H236604   5.901   5.207   0.875
12221TIP3   OH236605   3.133   0.098   2.140
12221TIP3    H136606   3.062   0.089   2.075
12221TIP3    H236607   3.131   0.016   2.189
12222TIP3   OH236608   0.675   2.975   2.682
12222TIP3    H136609   0.603   3.012   2.732
12222TIP3    H236610   0.634   2.910   2.626
12223TIP3   OH236611   4.871   2.173   0.556
12223TIP3    H136612   4.840   2.251   0.511
12223TIP3    H236613   4.799   2.110   0.549
12224TIP3   OH236614   0.290   1.689   4.093
12224TIP3    H136615   0.242   1.612   4.123
12224TIP3    H236616   0.353   1.706   4.163
12225TIP3   OH236617   3.921   1.208   5.485
12225TIP3    H136618   3.933   1.302   5.500
12225TIP3    H236619   3.827   1.195   5.487
12226TIP3   OH236620   0.720   3.386   6.467
12226TIP3    H136621   0.789   3.439   6.506
12226TIP3    H236622   0.762   3.345   6.391
12227TIP3   OH236623   0.625   6.082   4.842
12227TIP3    H136624   0.566   6.007   4.842
12227TIP3    H236625   0.679   6.070   4.763
12228TIP3   OH236626   2.958   4.090   5.954
12228TIP3    H136627   2.878   4.126   5.916
12228TIP3    H236628   3.028   4.125   5.899
12229TIP3   OH236629   5.840   5.418   5.183
12229TIP3    H136630   5.812   5.339   5.137
12229TIP3    H236631   5.929   5.433   5.153
12230TIP3   OH236632   4.885   1.137   5.729
12230TIP3    H136633   4.868   1.227   5.705
12230TIP3    H236634   4.800   1.093   5.723
12231TIP3   OH236635   5.287   1.957   0.468
12231TIP3    H136636   5.294   1.942   0.374
12231TIP3    H236637   5.335   2.039   0.483
12232TIP3   OH236638   0.296   7.508   4.721
12232TIP3    H136639   0.347   7.457   4.658
12232TIP3    H236640   0.205   7.487   4.699
12233TIP3   OH236641   4.630   2.704   1.478
12233TIP3    H136642   4.650   2.616   1.511
12233TIP3    H236643   4.686   2.762   1.529
12234TIP3   OH236644   4.207   7.067   5.275
12234TIP3    H136645   4.157   6.997   5.316
12234TIP3    H236646   4.194   7.142   5.334
12235TIP3   OH236647   5.435   2.500   2.761
12235TIP3    H136648   5.405   2.589   2.745
12235TIP3    H236649   5.419   2.485   2.855
12236TIP3   OH236650   6.249   5.228   3.922
12236TIP3    H136651   6.251   5.321   3.898
12236TIP3    H236652   6.342   5.202   3.925
12237TIP3   OH236653   3.249   0.356   4.577
12237TIP3    H136654   3.271   0.354   4.669
12237TIP3    H236655   3.204   0.273   4.561
12238TIP3   OH236656   8.034   6.550   5.714
12238TIP3    H136657   7.953   6.589   5.682
12238TIP3    H236658   8.093   6.551   5.639
12239TIP3   OH236659   6.147   1.089   0.288
12239TIP3    H136660   6.111   1.090   0.377
12239TIP3    H236661   6.223   1.032   0.294
12240TIP3   OH236662   4.394   7.020   3.430
12240TIP3    H136663   4.384   7.099   3.484
12240TIP3    H236664   4.357   7.045   3.345
12241TIP3   OH236665   0.042   1.092   0.311
12241TIP3    H136666   0.021   1.013   0.361
12241TIP3    H236667   0.101   1.141   0.369
12242TIP3   OH236668   0.723   2.310   5.331
12242TIP3    H136669   0.746   2.393   5.290
12242TIP3    H236670   0.662   2.334   5.401
12243TIP3   OH236671   4.732   7.665   4.640
12243TIP3    H136672   4.709   7.727   4.709
12243TIP3    H236673   4.778   7.595   4.686
12244TIP3   OH236674   0.081   4.945   6.168
12244TIP3    H136675   0.002   4.891   6.165
12244TIP3    H236676   0.124   4.931   6.084
12245TIP3   OH236677   6.787   3.345   1.137
12245TIP3    H136678   6.798   3.257   1.100
12245TIP3    H236679   6.828   3.340   1.224
12246TIP3   OH236680   0.042   0.014   2.254
12246TIP3    H136681   0.113  -0.019   2.199
12246TIP3    H236682  -0.038  -0.008   2.206
12247TIP3   OH236683   0.883   1.460   5.623
12247TIP3    H136684   0.788   1.464   5.611
12247TIP3    H236685   0.912   1.391   5.563
12248TIP3   OH236686   6.237   4.333   3.800
12248TIP3    H136687   6.210   4.401   3.738
12248TIP3    H236688   6.262   4.381   3.879
12249TIP3   OH236689   0.149   1.443   1.303
12249TIP3    H136690   0.108   1.397   1.229
12249TIP3    H236691   0.166   1.531   1.269
12250TIP3   OH236692   3.711   7.829   2.573
12250TIP3    H136693   3.783   7.769   2.554
12250TIP3    H236694   3.642   7.773   2.608
12251TIP3   OH236695   8.227   6.382   4.205
12251TIP3    H136696   8.146   6.432   4.204
12251TIP3    H236697   8.287   6.432   4.260
12252TIP3   OH236698   7.438   3.569   5.422
12252TIP3    H136699   7.446   3.571   5.517
12252TIP3    H236700   7.503   3.505   5.393
12253TIP3   OH236701   0.085   0.865   3.622
12253TIP3    H136702   0.153   0.873   3.556
12253TIP3    H236703   0.042   0.951   3.623
12254TIP3   OH236704   0.845   3.028   4.864
12254TIP3    H136705   0.792   3.107   4.852
12254TIP3    H236706   0.819   2.995   4.950
12255TIP3   OH236707   2.554   5.869   2.827
12255TIP3    H136708   2.487   5.801   2.834
12255TIP3    H236709   2.518   5.933   2.765
12256TIP3   OH236710   6.107   6.943   2.231
12256TIP3    H136711   6.048   6.886   2.280
12256TIP3    H236712   6.137   7.008   2.295
12257TIP3   OH236713   2.154   1.968   1.580
12257TIP3    H136714   2.137   1.881   1.616
12257TIP3    H236715   2.184   1.952   1.490
12258TIP3   OH236716   6.159   7.128   6.490
12258TIP3    H136717   6.192   7.041   6.512
12258TIP3    H236718   6.231   7.187   6.510
12259TIP3   OH236719   4.359   4.211   2.556
12259TIP3    H136720   4.401   4.294   2.534
12259TIP3    H236721   4.420   4.144   2.524
12260TIP3   OH236722   2.887   7.715   4.417
12260TIP3    H136723   2.850   7.628   4.401
12260TIP3    H236724   2.841   7.746   4.495
12261TIP3   OH236725   8.114   1.291   3.402
12261TIP3    H136726   8.172   1.363   3.428
12261TIP3    H236727   8.168   1.212   3.411
12262TIP3   OH236728   2.189   0.812   0.693
12262TIP3    H136729   2.267   0.848   0.735
12262TIP3    H236730   2.175   0.727   0.735
12263TIP3   OH236731   4.912   1.384   3.139
12263TIP3    H136732   4.970   1.346   3.073
12263TIP3    H236733   4.960   1.375   3.221
12264TIP3   OH236734   0.563   2.924   2.192
12264TIP3    H136735   0.498   2.950   2.258
12264TIP3    H236736   0.517   2.861   2.137
12265TIP3   OH236737   5.266   4.084   5.977
12265TIP3    H136738   5.256   4.164   5.926
12265TIP3    H236739   5.361   4.071   5.981
12266TIP3   OH236740   3.070   1.121   0.560
12266TIP3    H136741   3.146   1.178   0.546
12266TIP3    H236742   2.997   1.181   0.572
12267TIP3   OH236743   0.257   0.612   6.602
12267TIP3    H136744   0.318   0.679   6.634
12267TIP3    H236745   0.301   0.529   6.618
12268TIP3   OH236746   3.439   1.506   3.944
12268TIP3    H136747   3.363   1.539   3.897
12268TIP3    H236748   3.411   1.500   4.035
12269TIP3   OH236749   4.510   0.255   6.077
12269TIP3    H136750   4.525   0.340   6.118
12269TIP3    H236751   4.570   0.252   6.003
12270TIP3   OH236752   7.309   1.341   6.256
12270TIP3    H136753   7.363   1.305   6.326
12270TIP3    H236754   7.235   1.382   6.300
12271TIP3   OH236755   1.677   3.877   4.752
12271TIP3    H136756   1.673   3.970   4.728
12271TIP3    H236757   1.595   3.841   4.718
12272TIP3   OH236758   3.973   1.378   5.065
12272TIP3    H136759   4.014   1.313   5.122
12272TIP3    H236760   3.917   1.430   5.123
12273TIP3   OH236761   4.425   4.583   1.639
12273TIP3    H136762   4.353   4.568   1.578
12273TIP3    H236763   4.383   4.592   1.725
12274TIP3   OH236764   7.979   5.292   6.566
12274TIP3    H136765   7.997   5.347   6.642
12274TIP3    H236766   8.047   5.224   6.568
12275TIP3   OH236767   5.810   2.648   3.926
12275TIP3    H136768   5.721   2.660   3.961
12275TIP3    H236769   5.828   2.730   3.880
12276TIP3   OH236770   3.513   6.313   3.829
12276TIP3    H136771   3.545   6.310   3.919
12276TIP3    H236772   3.579   6.266   3.779
12277TIP3   OH236773   4.419   7.503   6.330
12277TIP3    H136774   4.365   7.477   6.405
12277TIP3    H236775   4.486   7.560   6.368
12278TIP3   OH236776   6.591   2.496   3.093
12278TIP3    H136777   6.522   2.538   3.043
12278TIP3    H236778   6.587   2.404   3.068
12279TIP3   OH236779   2.669   6.837   5.399
12279TIP3    H136780   2.579   6.852   5.427
12279TIP3    H236781   2.722   6.864   5.474
12280TIP3   OH236782   1.378   7.647   1.974
12280TIP3    H136783   1.455   7.622   1.924
12280TIP3    H236784   1.346   7.566   2.013
12281TIP3   OH236785   1.017   1.938   4.834
12281TIP3    H136786   1.083   1.986   4.883
12281TIP3    H236787   1.034   1.846   4.854
12282TIP3   OH236788   4.834   1.673   4.783
12282TIP3    H136789   4.765   1.638   4.727
12282TIP3    H236790   4.806   1.762   4.804
12283TIP3   OH236791   7.184   4.544   1.731
12283TIP3    H136792   7.201   4.454   1.761
12283TIP3    H236793   7.239   4.555   1.654
12284TIP3   OH236794   1.777   2.803  -0.011
12284TIP3    H136795   1.817   2.775  -0.093
12284TIP3    H236796   1.687   2.825  -0.035
12285TIP3   OH236797   4.342   1.979   6.263
12285TIP3    H136798   4.315   1.946   6.349
12285TIP3    H236799   4.430   2.013   6.277
12286TIP3   OH236800   0.104   4.603   3.707
12286TIP3    H136801   0.108   4.585   3.613
12286TIP3    H236802   0.064   4.524   3.745
12287TIP3   OH236803   5.333   0.594   2.543
12287TIP3    H136804   5.405   0.542   2.506
12287TIP3    H236805   5.369   0.682   2.552
12288TIP3   OH236806   3.467   1.327   4.970
12288TIP3    H136807   3.434   1.328   5.060
12288TIP3    H236808   3.561   1.311   4.979
12289TIP3   OH236809   8.080   4.143   6.135
12289TIP3    H136810   8.079   4.185   6.222
12289TIP3    H236811   8.066   4.216   6.074
12290TIP3   OH236812   1.171   7.516   2.810
12290TIP3    H136813   1.145   7.602   2.776
12290TIP3    H236814   1.164   7.525   2.905
12291TIP3   OH236815   1.573   0.857   5.983
12291TIP3    H136816   1.553   0.766   5.964
12291TIP3    H236817   1.667   0.858   6.001
12292TIP3   OH236818   2.640   0.987   4.497
12292TIP3    H136819   2.557   0.942   4.482
12292TIP3    H236820   2.688   0.929   4.556
12293TIP3   OH236821   2.567   2.413   3.553
12293TIP3    H136822   2.654   2.435   3.522
12293TIP3    H236823   2.559   2.457   3.637
12294TIP3   OH236824   8.069   4.104   3.751
12294TIP3    H136825   8.014   4.043   3.701
12294TIP3    H236826   8.073   4.182   3.695
12295TIP3   OH236827   4.936   6.480   0.886
12295TIP3    H136828   4.913   6.434   0.967
12295TIP3    H236829   5.002   6.424   0.845
12296TIP3   OH236830   1.755   6.791   6.580
12296TIP3    H136831   1.709   6.841   6.514
12296TIP3    H236832   1.773   6.853   6.650
12297TIP3   OH236833   7.452   6.556   1.011
12297TIP3    H136834   7.363   6.561   0.975
12297TIP3    H236835   7.501   6.508   0.944
12298TIP3   OH236836   1.604   3.841   1.803
12298TIP3    H136837   1.557   3.846   1.886
12298TIP3    H236838   1.697   3.839   1.828
12299TIP3   OH236839   2.708   4.458   5.106
12299TIP3    H136840   2.667   4.412   5.033
12299TIP3    H236841   2.651   4.533   5.123
12300TIP3   OH236842   1.358   4.250   5.567
12300TIP3    H136843   1.370   4.337   5.605
12300TIP3    H236844   1.445   4.212   5.567
12301TIP3   OH236845   5.276   5.895   0.163
12301TIP3    H136846   5.290   5.958   0.093
12301TIP3    H236847   5.183   5.902   0.184
12302TIP3   OH236848   7.557   5.100   4.808
12302TIP3    H136849   7.538   5.163   4.739
12302TIP3    H236850   7.647   5.073   4.793
12303TIP3   OH236851   3.750   6.435   2.345
12303TIP3    H136852   3.758   6.374   2.418
12303TIP3    H236853   3.688   6.501   2.376
12304TIP3   OH236854   3.080   3.271   0.940
12304TIP3    H136855   3.017   3.268   1.013
12304TIP3    H236856   3.105   3.363   0.934
12305TIP3   OH236857   1.267   4.573   5.221
12305TIP3    H136858   1.282   4.517   5.145
12305TIP3    H236859   1.252   4.660   5.184
12306TIP3   OH236860   8.257   2.203   1.681
12306TIP3    H136861   8.276   2.276   1.740
12306TIP3    H236862   8.330   2.202   1.619
12307TIP3   OH236863   6.230   6.307   4.653
12307TIP3    H136864   6.286   6.253   4.709
12307TIP3    H236865   6.157   6.333   4.710
12308TIP3   OH236866   3.962   0.397   0.377
12308TIP3    H136867   3.990   0.318   0.332
12308TIP3    H236868   3.880   0.372   0.420
12309TIP3   OH236869   1.997   2.866   4.462
12309TIP3    H136870   1.979   2.868   4.368
12309TIP3    H236871   1.911   2.864   4.503
12310TIP3   OH236872   3.194   4.067   3.912
12310TIP3    H136873   3.185   3.973   3.925
12310TIP3    H236874   3.264   4.092   3.973
12311TIP3   OH236875   4.006   0.173   1.040
12311TIP3    H136876   4.076   0.238   1.027
12311TIP3    H236877   3.929   0.225   1.063
12312TIP3   OH236878   4.339   7.613   5.345
12312TIP3    H136879   4.249   7.580   5.348
12312TIP3    H236880   4.356   7.626   5.252
12313TIP3   OH236881   1.073   2.552   6.249
12313TIP3    H136882   1.069   2.559   6.345
12313TIP3    H236883   1.075   2.643   6.219
12314TIP3   OH236884   0.051   4.207   2.538
12314TIP3    H136885   0.113   4.259   2.589
12314TIP3    H236886   0.044   4.254   2.455
12315TIP3   OH236887   1.751   7.479   5.876
12315TIP3    H136888   1.784   7.439   5.796
12315TIP3    H236889   1.656   7.476   5.867
12316TIP3   OH236890   7.547   7.737   3.681
12316TIP3    H136891   7.453   7.717   3.684
12316TIP3    H236892   7.559   7.778   3.595
12317TIP3   OH236893   6.997   4.460   6.245
12317TIP3    H136894   7.090   4.459   6.222
12317TIP3    H236895   6.995   4.502   6.331
12318TIP3   OH236896   5.764   6.062   4.833
12318TIP3    H136897   5.739   6.006   4.760
12318TIP3    H236898   5.856   6.085   4.816
12319TIP3   OH236899   1.315   4.455   2.639
12319TIP3    H136900   1.334   4.547   2.621
12319TIP3    H236901   1.352   4.408   2.564
12320TIP3   OH236902   1.070   5.398   5.015
12320TIP3    H136903   1.119   5.351   5.083
12320TIP3    H236904   1.094   5.354   4.934
12321TIP3   OH236905   6.354   3.689   3.688
12321TIP3    H136906   6.354   3.717   3.597
12321TIP3    H236907   6.439   3.646   3.700
12322TIP3   OH236908   0.356   2.688   1.463
12322TIP3    H136909   0.360   2.767   1.410
12322TIP3    H236910   0.265   2.659   1.458
12323TIP3   OH236911   2.128   0.249   1.786
12323TIP3    H136912   2.183   0.172   1.801
12323TIP3    H236913   2.073   0.255   1.865
12324TIP3   OH236914   3.710   3.487   2.437
12324TIP3    H136915   3.793   3.439   2.442
12324TIP3    H236916   3.694   3.516   2.527
12325TIP3   OH236917   0.527   4.793   2.975
12325TIP3    H136918   0.618   4.811   2.999
12325TIP3    H236919   0.493   4.878   2.947
12326TIP3   OH236920   5.637   7.790   1.186
12326TIP3    H136921   5.557   7.814   1.139
12326TIP3    H236922   5.700   7.859   1.164
12327TIP3   OH236923   0.145   7.429   5.519
12327TIP3    H136924   0.106   7.369   5.455
12327TIP3    H236925   0.148   7.379   5.600
12328TIP3   OH236926   2.989   3.013   2.774
12328TIP3    H136927   2.998   2.985   2.865
12328TIP3    H236928   3.068   2.980   2.731
12329TIP3   OH236929   5.213   3.532   6.334
12329TIP3    H136930   5.202   3.494   6.421
12329TIP3    H236931   5.167   3.471   6.275
12330TIP3   OH236932   0.997   4.277   4.734
12330TIP3    H136933   0.922   4.310   4.684
12330TIP3    H236934   1.032   4.355   4.779
12331TIP3   OH236935   0.676   1.364   3.534
12331TIP3    H136936   0.655   1.452   3.567
12331TIP3    H236937   0.720   1.380   3.450
12332TIP3   OH236938   4.798   7.358   6.392
12332TIP3    H136939   4.759   7.419   6.455
12332TIP3    H236940   4.886   7.343   6.426
12333TIP3   OH236941   2.584   1.496   3.302
12333TIP3    H136942   2.638   1.513   3.224
12333TIP3    H236943   2.511   1.557   3.294
12334TIP3   OH236944   1.048   3.097   4.497
12334TIP3    H136945   1.069   3.012   4.458
12334TIP3    H236946   1.089   3.095   4.583
12335TIP3   OH236947   3.626   6.519   1.686
12335TIP3    H136948   3.608   6.569   1.765
12335TIP3    H236949   3.706   6.471   1.706
12336TIP3   OH236950   8.125   5.198   5.943
12336TIP3    H136951   8.151   5.116   5.901
12336TIP3    H236952   8.056   5.172   6.004
12337TIP3   OH236953   5.577   3.884   5.156
12337TIP3    H136954   5.627   3.893   5.075
12337TIP3    H236955   5.642   3.891   5.226
12338TIP3   OH236956   0.416   7.402   5.720
12338TIP3    H136957   0.351   7.358   5.665
12338TIP3    H236958   0.478   7.333   5.743
12339TIP3   OH236959   3.325   6.841   4.741
12339TIP3    H136960   3.243   6.808   4.777
12339TIP3    H236961   3.310   6.935   4.728
12340TIP3   OH236962   7.203   5.214   0.624
12340TIP3    H136963   7.115   5.175   0.632
12340TIP3    H236964   7.243   5.169   0.550
12341TIP3   OH236965   0.306   7.751   4.482
12341TIP3    H136966   0.358   7.701   4.545
12341TIP3    H236967   0.298   7.693   4.406
12342TIP3   OH236968   1.987   7.663   1.667
12342TIP3    H136969   1.947   7.608   1.735
12342TIP3    H236970   2.078   7.672   1.694
12343TIP3   OH236971   3.328   0.703   2.839
12343TIP3    H136972   3.241   0.715   2.800
12343TIP3    H236973   3.347   0.610   2.829
12344TIP3   OH236974   5.781   6.412   4.816
12344TIP3    H136975   5.751   6.322   4.802
12344TIP3    H236976   5.869   6.403   4.851
12345TIP3   OH236977   2.647   7.140   4.679
12345TIP3    H136978   2.710   7.198   4.722
12345TIP3    H236979   2.698   7.062   4.657
12346TIP3   OH236980   3.926   7.168   1.746
12346TIP3    H136981   3.920   7.080   1.708
12346TIP3    H236982   3.887   7.226   1.681
12347TIP3   OH236983   6.083   5.558   0.071
12347TIP3    H136984   6.174   5.571   0.096
12347TIP3    H236985   6.045   5.506   0.142
12348TIP3   OH236986   1.553   5.014   3.994
12348TIP3    H136987   1.461   5.035   4.009
12348TIP3    H236988   1.597   5.099   3.994
12349TIP3   OH236989   0.952   7.733   4.266
12349TIP3    H136990   0.965   7.686   4.348
12349TIP3    H236991   0.970   7.824   4.288
12350TIP3   OH236992   2.402   2.330   5.167
12350TIP3    H136993   2.370   2.413   5.132
12350TIP3    H236994   2.355   2.318   5.249
12351TIP3   OH236995   4.599   1.248   4.203
12351TIP3    H136996   4.550   1.330   4.202
12351TIP3    H236997   4.600   1.219   4.112
12352TIP3   OH236998   2.101   5.101   4.120
12352TIP3    H136999   2.186   5.071   4.089
12352TIP3    H237000   2.041   5.029   4.098
12353TIP3   OH237001   2.465   0.726   5.350
12353TIP3    H137002   2.519   0.691   5.279
12353TIP3    H237003   2.525   0.731   5.425
12354TIP3   OH237004   2.523   0.722   0.589
12354TIP3    H137005   2.615   0.698   0.593
12354TIP3    H237006   2.477   0.640   0.570
12355TIP3   OH237007   0.707   6.909   2.772
12355TIP3    H137008   0.780   6.850   2.788
12355TIP3    H237009   0.683   6.942   2.859
12356TIP3   OH237010   3.708   0.949   4.415
12356TIP3    H137011   3.732   1.040   4.397
12356TIP3    H237012   3.708   0.907   4.329
12357TIP3   OH237013   7.144   4.585   2.803
12357TIP3    H137014   7.202   4.613   2.733
12357TIP3    H237015   7.171   4.496   2.823
12358TIP3   OH237016   2.973   6.161   5.224
12358TIP3    H137017   3.010   6.249   5.224
12358TIP3    H237018   2.977   6.132   5.133
12359TIP3   OH237019   4.509   3.155   6.194
12359TIP3    H137020   4.581   3.202   6.153
12359TIP3    H237021   4.532   3.063   6.185
12360TIP3   OH237022   7.281   4.938   4.525
12360TIP3    H137023   7.250   4.994   4.596
12360TIP3    H237024   7.365   4.976   4.500
12361TIP3   OH237025   1.823   0.510   6.156
12361TIP3    H137026   1.870   0.443   6.106
12361TIP3    H237027   1.886   0.582   6.164
12362TIP3   OH237028   8.196   1.484   3.078
12362TIP3    H137029   8.166   1.569   3.111
12362TIP3    H237030   8.249   1.506   3.001
12363TIP3   OH237031   6.545   0.069   0.666
12363TIP3    H137032   6.532   0.160   0.640
12363TIP3    H237033   6.476   0.052   0.731
12364TIP3   OH237034   2.243   0.259   6.212
12364TIP3    H137035   2.203   0.202   6.278
12364TIP3    H237036   2.271   0.200   6.142
12365TIP3   OH237037   0.367   2.381   6.560
12365TIP3    H137038   0.402   2.330   6.487
12365TIP3    H237039   0.308   2.444   6.518
12366TIP3   OH237040   5.748   5.392   5.465
12366TIP3    H137041   5.787   5.409   5.379
12366TIP3    H237042   5.823   5.385   5.524
12367TIP3   OH237043   6.499   5.354   1.289
12367TIP3    H137044   6.547   5.343   1.207
12367TIP3    H237045   6.566   5.352   1.356
12368TIP3   OH237046   1.776   0.764   0.394
12368TIP3    H137047   1.695   0.815   0.386
12368TIP3    H237048   1.764   0.690   0.334
12369TIP3   OH237049   4.080   0.072   5.688
12369TIP3    H137050   4.026   0.151   5.691
12369TIP3    H237051   4.118   0.072   5.600
12370TIP3   OH237052   4.547   1.187   3.303
12370TIP3    H137053   4.620   1.173   3.364
12370TIP3    H237054   4.487   1.244   3.351
12371TIP3   OH237055   0.683   1.714   5.470
12371TIP3    H137056   0.648   1.801   5.487
12371TIP3    H237057   0.772   1.729   5.439
12372TIP3   OH237058   3.466   0.991   2.342
12372TIP3    H137059   3.449   0.935   2.267
12372TIP3    H237060   3.541   1.044   2.316
12373TIP3   OH237061   3.158   7.736   2.127
12373TIP3    H137062   3.133   7.688   2.048
12373TIP3    H237063   3.158   7.828   2.101
12374TIP3   OH237064   4.804   7.026   1.390
12374TIP3    H137065   4.792   6.946   1.442
12374TIP3    H237066   4.795   7.097   1.453
12375TIP3   OH237067   7.133   2.825   0.532
12375TIP3    H137068   7.197   2.870   0.587
12375TIP3    H237069   7.048   2.849   0.569
12376TIP3   OH237070   0.867   6.664   5.799
12376TIP3    H137071   0.929   6.591   5.797
12376TIP3    H237072   0.873   6.703   5.712
12377TIP3   OH237073   2.246   4.745   0.448
12377TIP3    H137074   2.164   4.793   0.461
12377TIP3    H237075   2.226   4.656   0.476
12378TIP3   OH237076   1.485   3.999   5.384
12378TIP3    H137077   1.529   3.983   5.467
12378TIP3    H237078   1.531   3.943   5.321
12379TIP3   OH237079   1.819   2.648   6.361
12379TIP3    H137080   1.871   2.571   6.384
12379TIP3    H237081   1.789   2.631   6.272
12380TIP3   OH237082   2.156   4.733   2.169
12380TIP3    H137083   2.153   4.667   2.238
12380TIP3    H237084   2.249   4.754   2.159
12381TIP3   OH237085   3.693   3.917   6.347
12381TIP3    H137086   3.783   3.948   6.333
12381TIP3    H237087   3.644   3.996   6.371
12382TIP3   OH237088   5.420   0.238   1.304
12382TIP3    H137089   5.342   0.276   1.344
12382TIP3    H237090   5.420   0.271   1.215
12383TIP3   OH237091   5.680   0.636   2.030
12383TIP3    H137092   5.592   0.597   2.030
12383TIP3    H237093   5.665   0.730   2.038
12384TIP3   OH237094   1.167   2.251   1.427
12384TIP3    H137095   1.213   2.231   1.509
12384TIP3    H237096   1.235   2.286   1.369
12385TIP3   OH237097   5.898   5.941   2.872
12385TIP3    H137098   5.973   5.932   2.930
12385TIP3    H237099   5.932   5.925   2.784
12386TIP3   OH237100   4.052   5.661   0.876
12386TIP3    H137101   3.997   5.645   0.799
12386TIP3    H237102   4.093   5.746   0.859
12387TIP3   OH237103   1.348   0.556   6.351
12387TIP3    H137104   1.362   0.553   6.446
12387TIP3    H237105   1.269   0.609   6.340
12388TIP3   OH237106   7.222   0.555   0.557
12388TIP3    H137107   7.193   0.605   0.633
12388TIP3    H237108   7.141   0.536   0.509
12389TIP3   OH237109   2.811   6.934   4.775
12389TIP3    H137110   2.886   6.993   4.789
12389TIP3    H237111   2.846   6.864   4.721
12390TIP3   OH237112   2.567   3.889   3.866
12390TIP3    H137113   2.579   3.980   3.894
12390TIP3    H237114   2.634   3.875   3.799
12391TIP3   OH237115   2.744   0.536   3.507
12391TIP3    H137116   2.746   0.485   3.426
12391TIP3    H237117   2.668   0.593   3.497
12392TIP3   OH237118   2.452   4.115   6.551
12392TIP3    H137119   2.428   4.023   6.563
12392TIP3    H237120   2.535   4.125   6.598
12393TIP3   OH237121   7.889   0.838   6.721
12393TIP3    H137122   7.962   0.798   6.770
12393TIP3    H237123   7.923   0.923   6.695
12394TIP3   OH237124   5.174   5.972   2.580
12394TIP3    H137125   5.259   5.948   2.545
12394TIP3    H237126   5.176   6.067   2.589
12395TIP3   OH237127   0.179   2.543   3.224
12395TIP3    H137128   0.259   2.563   3.175
12395TIP3    H237129   0.158   2.625   3.268
12396TIP3   OH237130   1.584   0.353   3.699
12396TIP3    H137131   1.599   0.386   3.788
12396TIP3    H237132   1.496   0.315   3.703
12397TIP3   OH237133   5.913   7.652   2.764
12397TIP3    H137134   6.006   7.635   2.751
12397TIP3    H237135   5.892   7.720   2.700
12398TIP3   OH237136   0.656   0.748   2.031
12398TIP3    H137137   0.572   0.794   2.029
12398TIP3    H237138   0.717   0.807   1.989
12399TIP3   OH237139   6.585   0.868   0.762
12399TIP3    H137140   6.554   0.894   0.675
12399TIP3    H237141   6.541   0.785   0.780
12400TIP3   OH237142   7.127   3.714   0.295
12400TIP3    H137143   7.098   3.663   0.219
12400TIP3    H237144   7.048   3.723   0.349
12401TIP3   OH237145   1.837   2.910   6.050
12401TIP3    H137146   1.909   2.871   5.999
12401TIP3    H237147   1.880   2.950   6.125
12402TIP3   OH237148   4.364   6.874   5.455
12402TIP3    H137149   4.456   6.864   5.430
12402TIP3    H237150   4.319   6.803   5.409
12403TIP3   OH237151   5.759   6.239   3.114
12403TIP3    H137152   5.753   6.193   3.030
12403TIP3    H237153   5.713   6.322   3.100
12404TIP3   OH237154   1.329   4.653   0.791
12404TIP3    H137155   1.247   4.612   0.820
12404TIP3    H237156   1.325   4.649   0.695
12405TIP3   OH237157   1.718   3.185   3.571
12405TIP3    H137158   1.666   3.138   3.637
12405TIP3    H237159   1.673   3.169   3.489
12406TIP3   OH237160   8.040   1.968   6.180
12406TIP3    H137161   8.109   1.965   6.246
12406TIP3    H237162   7.965   1.924   6.221
12407TIP3   OH237163   6.503   7.053   2.044
12407TIP3    H137164   6.481   7.028   2.134
12407TIP3    H237165   6.469   7.142   2.035
12408TIP3   OH237166   5.523   0.261   4.153
12408TIP3    H137167   5.604   0.309   4.173
12408TIP3    H237168   5.530   0.180   4.204
12409TIP3   OH237169   1.044   7.755   4.009
12409TIP3    H137170   1.139   7.744   4.009
12409TIP3    H237171   1.016   7.730   4.097
12410TIP3   OH237172   5.981   7.627   1.401
12410TIP3    H137173   5.939   7.705   1.436
12410TIP3    H237174   6.013   7.580   1.478
12411TIP3   OH237175   0.980   3.529   4.047
12411TIP3    H137176   0.898   3.549   4.093
12411TIP3    H237177   1.002   3.610   4.001
12412TIP3   OH237178   7.829   7.416   5.902
12412TIP3    H137179   7.806   7.354   5.971
12412TIP3    H237180   7.751   7.419   5.846
12413TIP3   OH237181   6.474   5.734   2.932
12413TIP3    H137182   6.535   5.660   2.921
12413TIP3    H237183   6.441   5.725   3.021
12414TIP3   OH237184   5.262   3.515   0.156
12414TIP3    H137185   5.247   3.596   0.107
12414TIP3    H237186   5.356   3.498   0.146
12415TIP3   OH237187   4.720   5.922   4.874
12415TIP3    H137188   4.705   5.877   4.957
12415TIP3    H237189   4.634   5.956   4.849
12416TIP3   OH237190   8.034   0.738   3.286
12416TIP3    H137191   7.987   0.812   3.246
12416TIP3    H237192   7.978   0.712   3.360
12417TIP3   OH237193   5.153   5.422   6.214
12417TIP3    H137194   5.113   5.362   6.152
12417TIP3    H237195   5.131   5.509   6.181
12418TIP3   OH237196   5.235   3.253   1.237
12418TIP3    H137197   5.296   3.317   1.200
12418TIP3    H237198   5.162   3.252   1.176
12419TIP3   OH237199   4.915   5.111   6.418
12419TIP3    H137200   4.918   5.066   6.502
12419TIP3    H237201   4.986   5.175   6.421
12420TIP3   OH237202   7.943   0.228   2.247
12420TIP3    H137203   7.858   0.184   2.247
12420TIP3    H237204   7.933   0.297   2.181
12421TIP3   OH237205   0.065   1.234   1.864
12421TIP3    H137206   0.122   1.239   1.787
12421TIP3    H237207   0.102   1.162   1.916
12422TIP3   OH237208   0.632   0.140   6.523
12422TIP3    H137209   0.641   0.161   6.430
12422TIP3    H237210   0.652   0.046   6.527
12423TIP3   OH237211   1.838   3.666   3.622
12423TIP3    H137212   1.901   3.647   3.692
12423TIP3    H237213   1.829   3.761   3.624
12424TIP3   OH237214   0.234   5.972   0.886
12424TIP3    H137215   0.308   6.015   0.929
12424TIP3    H237216   0.200   5.911   0.951
12425TIP3   OH237217   5.733   1.222   2.402
12425TIP3    H137218   5.815   1.173   2.405
12425TIP3    H237219   5.665   1.155   2.392
12426TIP3   OH237220   1.536   1.111   1.339
12426TIP3    H137221   1.607   1.099   1.402
12426TIP3    H237222   1.569   1.070   1.259
12427TIP3   OH237223   8.092   7.346   0.717
12427TIP3    H137224   8.145   7.366   0.794
12427TIP3    H237225   8.085   7.251   0.717
12428TIP3   OH237226   0.689   0.843   6.442
12428TIP3    H137227   0.670   0.758   6.403
12428TIP3    H237228   0.699   0.903   6.368
12429TIP3   OH237229   3.512   6.552   2.410
12429TIP3    H137230   3.477   6.618   2.351
12429TIP3    H237231   3.436   6.516   2.454
12430TIP3   OH237232   7.539   6.373   0.757
12430TIP3    H137233   7.469   6.338   0.813
12430TIP3    H237234   7.507   6.360   0.668
12431TIP3   OH237235   6.176   5.195   6.606
12431TIP3    H137236   6.185   5.106   6.575
12431TIP3    H237237   6.162   5.247   6.527
12432TIP3   OH237238   6.279   3.633   2.025
12432TIP3    H137239   6.354   3.606   1.972
12432TIP3    H237240   6.280   3.574   2.100
12433TIP3   OH237241   4.563   7.115   2.150
12433TIP3    H137242   4.653   7.113   2.182
12433TIP3    H237243   4.511   7.078   2.222
12434TIP3   OH237244   2.259   2.628   1.008
12434TIP3    H137245   2.234   2.582   0.928
12434TIP3    H237246   2.280   2.717   0.979
12435TIP3   OH237247   6.109   3.742   4.396
12435TIP3    H137248   6.203   3.744   4.414
12435TIP3    H237249   6.100   3.788   4.312
12436TIP3   OH237250   6.070   4.922   0.903
12436TIP3    H137251   6.149   4.966   0.871
12436TIP3    H237252   6.009   4.993   0.922
12437TIP3   OH237253   1.276   5.203   3.821
12437TIP3    H137254   1.192   5.216   3.866
12437TIP3    H237255   1.337   5.261   3.867
12438TIP3   OH237256   2.103   3.611   1.121
12438TIP3    H137257   2.062   3.534   1.082
12438TIP3    H237258   2.196   3.601   1.101
12439TIP3   OH237259   3.676   2.493   1.436
12439TIP3    H137260   3.624   2.570   1.412
12439TIP3    H237261   3.767   2.518   1.416
12440TIP3   OH237262   7.252   1.623   5.263
12440TIP3    H137263   7.345   1.631   5.241
12440TIP3    H237264   7.243   1.674   5.344
12441TIP3   OH237265   0.901   6.463   2.465
12441TIP3    H137266   0.934   6.404   2.397
12441TIP3    H237267   0.821   6.500   2.427
12442TIP3   OH237268   2.579   7.256   1.725
12442TIP3    H137269   2.597   7.173   1.681
12442TIP3    H237270   2.487   7.250   1.750
12443TIP3   OH237271   4.725   1.038   5.194
12443TIP3    H137272   4.685   1.000   5.273
12443TIP3    H237273   4.727   0.966   5.131
12444TIP3   OH237274   7.433   3.047   5.262
12444TIP3    H137275   7.515   3.049   5.312
12444TIP3    H237276   7.376   2.989   5.312
12445TIP3   OH237277   6.663   4.585   4.603
12445TIP3    H137278   6.667   4.563   4.510
12445TIP3    H237279   6.608   4.664   4.606
12446TIP3   OH237280   6.982   3.929   6.141
12446TIP3    H137281   6.911   3.888   6.093
12446TIP3    H237282   6.960   4.022   6.144
12447TIP3   OH237283   6.001   4.161   3.489
12447TIP3    H137284   6.064   4.233   3.490
12447TIP3    H237285   6.055   4.082   3.491
12448TIP3   OH237286   6.043   0.540   1.349
12448TIP3    H137287   5.979   0.604   1.317
12448TIP3    H237288   6.030   0.540   1.444
12449TIP3   OH237289   0.832   3.875   0.080
12449TIP3    H137290   0.744   3.893   0.112
12449TIP3    H237291   0.877   3.835   0.154
12450TIP3   OH237292   8.033   3.439   3.376
12450TIP3    H137293   7.986   3.375   3.323
12450TIP3    H237294   8.033   3.402   3.464
12451TIP3   OH237295   3.031   5.175   1.016
12451TIP3    H137296   2.984   5.205   1.094
12451TIP3    H237297   3.120   5.159   1.047
12452TIP3   OH237298   3.746   4.904   3.383
12452TIP3    H137299   3.693   4.914   3.304
12452TIP3    H237300   3.683   4.906   3.455
12453TIP3   OH237301   7.705   5.949   0.551
12453TIP3    H137302   7.739   5.951   0.640
12453TIP3    H237303   7.637   5.881   0.552
12454TIP3   OH237304   4.834   2.825   4.107
12454TIP3    H137305   4.893   2.815   4.181
12454TIP3    H237306   4.851   2.748   4.052
12455TIP3   OH237307   3.920   5.413   6.710
12455TIP3    H137308   3.841   5.468   6.711
12455TIP3    H237309   3.989   5.471   6.679
12456TIP3   OH237310   3.434   2.599   4.932
12456TIP3    H137311   3.342   2.627   4.926
12456TIP3    H237312   3.435   2.513   4.892
12457TIP3   OH237313   5.260   7.355   0.524
12457TIP3    H137314   5.281   7.334   0.616
12457TIP3    H237315   5.245   7.450   0.524
12458TIP3   OH237316   2.811   1.997   3.771
12458TIP3    H137317   2.802   1.933   3.842
12458TIP3    H237318   2.722   2.027   3.754
12459TIP3   OH237319   2.239   2.614   6.715
12459TIP3    H137320   2.202   2.688   6.668
12459TIP3    H237321   2.322   2.648   6.751
12460TIP3   OH237322   0.549   1.968   5.536
12460TIP3    H137323   0.552   1.965   5.631
12460TIP3    H237324   0.504   2.050   5.516
12461TIP3   OH237325   4.493   2.218   6.093
12461TIP3    H137326   4.576   2.249   6.056
12461TIP3    H237327   4.498   2.123   6.088
12462TIP3   OH237328   3.929   3.875   4.885
12462TIP3    H137329   3.935   3.970   4.872
12462TIP3    H237330   3.836   3.859   4.900
12463TIP3   OH237331   1.497   1.256   3.810
12463TIP3    H137332   1.532   1.170   3.786
12463TIP3    H237333   1.459   1.290   3.729
12464TIP3   OH237334   8.087   1.666   2.295
12464TIP3    H137335   8.051   1.754   2.306
12464TIP3    H237336   8.153   1.659   2.364
12465TIP3   OH237337   7.393   4.206   0.374
12465TIP3    H137338   7.440   4.166   0.447
12465TIP3    H237339   7.386   4.299   0.398
12466TIP3   OH237340   4.078   4.517   0.977
12466TIP3    H137341   4.173   4.516   0.970
12466TIP3    H237342   4.055   4.432   1.014
12467TIP3   OH237343   5.144   5.182   5.081
12467TIP3    H137344   5.165   5.265   5.038
12467TIP3    H237345   5.051   5.190   5.104
12468TIP3   OH237346   2.507   7.362   4.497
12468TIP3    H137347   2.474   7.293   4.555
12468TIP3    H237348   2.451   7.437   4.515
12469TIP3   OH237349   0.075   5.845   1.412
12469TIP3    H137350   0.167   5.842   1.385
12469TIP3    H237351   0.074   5.806   1.499
12470TIP3   OH237352   0.994   3.032   2.902
12470TIP3    H137353   1.073   3.023   2.848
12470TIP3    H237354   0.957   2.944   2.904
12471TIP3   OH237355   4.672   1.730   0.517
12471TIP3    H137356   4.761   1.747   0.549
12471TIP3    H237357   4.623   1.809   0.539
12472TIP3   OH237358   6.919   2.092   5.417
12472TIP3    H137359   6.949   2.020   5.473
12472TIP3    H237360   6.963   2.077   5.334
12473TIP3   OH237361   3.157   4.095   1.499
12473TIP3    H137362   3.233   4.139   1.459
12473TIP3    H237363   3.164   4.115   1.592
12474TIP3   OH237364   5.369   7.018   3.000
12474TIP3    H137365   5.362   6.951   3.068
12474TIP3    H237366   5.363   6.969   2.917
12475TIP3   OH237367   0.783   6.226   5.367
12475TIP3    H137368   0.790   6.281   5.289
12475TIP3    H237369   0.867   6.181   5.371
12476TIP3   OH237370  -0.018   3.267   5.065
12476TIP3    H137371   0.005   3.354   5.099
12476TIP3    H237372   0.008   3.206   5.134
12477TIP3   OH237373   5.253   1.092   4.367
12477TIP3    H137374   5.251   1.112   4.460
12477TIP3    H237375   5.183   1.029   4.353
12478TIP3   OH237376   0.470   6.654   5.142
12478TIP3    H137377   0.422   6.603   5.077
12478TIP3    H237378   0.546   6.688   5.095
12479TIP3   OH237379   6.771   7.732   4.369
12479TIP3    H137380   6.712   7.738   4.294
12479TIP3    H237381   6.837   7.667   4.342
12480TIP3   OH237382   5.333   1.962   4.139
12480TIP3    H137383   5.311   1.993   4.227
12480TIP3    H237384   5.347   1.868   4.150
12481TIP3   OH237385   3.909   3.012   6.141
12481TIP3    H137386   3.900   3.107   6.131
12481TIP3    H237387   3.843   2.975   6.083
12482TIP3   OH237388   0.789   1.730   4.716
12482TIP3    H137389   0.797   1.649   4.666
12482TIP3    H237390   0.861   1.785   4.685
12483TIP3   OH237391   7.885   2.244   0.064
12483TIP3    H137392   7.830   2.173   0.030
12483TIP3    H237393   7.865   2.319   0.008
12484TIP3   OH237394   7.839   3.469   3.065
12484TIP3    H137395   7.794   3.481   2.981
12484TIP3    H237396   7.774   3.425   3.121
12485TIP3   OH237397   0.190   2.931   0.813
12485TIP3    H137398   0.207   2.846   0.853
12485TIP3    H237399   0.139   2.910   0.734
12486TIP3   OH237400   7.852   7.841   2.731
12486TIP3    H137401   7.828   7.759   2.772
12486TIP3    H237402   7.779   7.862   2.673
12487TIP3   OH237403   6.056   4.458   3.005
12487TIP3    H137404   5.972   4.413   3.016
12487TIP3    H237405   6.032   4.551   3.000
12488TIP3   OH237406   1.119   1.968   3.417
12488TIP3    H137407   1.094   1.945   3.328
12488TIP3    H237408   1.047   1.936   3.471
12489TIP3   OH237409   7.685   1.555   3.513
12489TIP3    H137410   7.779   1.541   3.528
12489TIP3    H237411   7.643   1.479   3.554
12490TIP3   OH237412   4.406   2.667   2.541
12490TIP3    H137413   4.350   2.706   2.473
12490TIP3    H237414   4.383   2.714   2.621
12491TIP3   OH237415   2.552   6.507   0.590
12491TIP3    H137416   2.539   6.527   0.683
12491TIP3    H237417   2.635   6.550   0.568
12492TIP3   OH237418   1.569   4.284   4.489
12492TIP3    H137419   1.496   4.250   4.437
12492TIP3    H237420   1.544   4.374   4.509
12493TIP3   OH237421   0.570   7.444   1.385
12493TIP3    H137422   0.583   7.536   1.362
12493TIP3    H237423   0.654   7.403   1.367
12494TIP3   OH237424   1.669   1.334   5.452
12494TIP3    H137425   1.582   1.327   5.492
12494TIP3    H237426   1.675   1.257   5.395
12495TIP3   OH237427   6.151   5.783   4.396
12495TIP3    H137428   6.160   5.873   4.366
12495TIP3    H237429   6.200   5.732   4.331
12496TIP3   OH237430   0.022   7.831   5.970
12496TIP3    H137431   0.040   7.774   6.045
12496TIP3    H237432  -0.021   7.773   5.907
12497TIP3   OH237433   6.178   3.409   1.475
12497TIP3    H137434   6.097   3.357   1.470
12497TIP3    H237435   6.222   3.393   1.391
12498TIP3   OH237436   6.712   5.550   4.349
12498TIP3    H137437   6.779   5.619   4.345
12498TIP3    H237438   6.683   5.551   4.440
12499TIP3   OH237439   7.493   6.977   1.601
12499TIP3    H137440   7.513   6.894   1.558
12499TIP3    H237441   7.527   6.967   1.690
12500TIP3   OH237442   6.628   7.396   4.400
12500TIP3    H137443   6.649   7.311   4.437
12500TIP3    H237444   6.564   7.433   4.461
12501TIP3   OH237445   0.362   1.388   2.023
12501TIP3    H137446   0.289   1.450   2.025
12501TIP3    H237447   0.417   1.416   1.950
12502TIP3   OH237448   2.731   7.605   2.935
12502TIP3    H137449   2.693   7.647   2.858
12502TIP3    H237450   2.799   7.665   2.965
12503TIP3   OH237451   2.978   0.972   1.638
12503TIP3    H137452   3.010   0.888   1.605
12503TIP3    H237453   2.886   0.974   1.611
12504TIP3   OH237454   2.925   3.566   1.770
12504TIP3    H137455   2.840   3.526   1.757
12504TIP3    H237456   2.978   3.536   1.696
12505TIP3   OH237457   8.063   2.464   1.135
12505TIP3    H137458   8.049   2.446   1.042
12505TIP3    H237459   7.975   2.465   1.173
12506TIP3   OH237460   1.610   0.225   5.975
12506TIP3    H137461   1.700   0.248   5.996
12506TIP3    H237462   1.599   0.253   5.884
12507TIP3   OH237463   7.224   2.175   5.372
12507TIP3    H137464   7.222   2.259   5.418
12507TIP3    H237465   7.307   2.135   5.398
12508TIP3   OH237466   0.864   6.540   4.874
12508TIP3    H137467   0.821   6.472   4.822
12508TIP3    H237468   0.901   6.600   4.810
12509TIP3   OH237469   1.257   4.124   2.954
12509TIP3    H137470   1.267   4.097   3.045
12509TIP3    H237471   1.283   4.047   2.903
12510TIP3   OH237472   7.964   6.461   6.261
12510TIP3    H137473   8.058   6.460   6.246
12510TIP3    H237474   7.928   6.400   6.196
12511TIP3   OH237475   4.080   6.645   2.783
12511TIP3    H137476   4.026   6.566   2.791
12511TIP3    H237477   4.063   6.677   2.694
12512TIP3   OH237478   0.639   6.785  -0.026
12512TIP3    H137479   0.691   6.773   0.053
12512TIP3    H237480   0.549   6.795   0.006
12513TIP3   OH237481   4.644   2.005   0.491
12513TIP3    H137482   4.549   2.002   0.486
12513TIP3    H237483   4.674   1.964   0.410
12514TIP3   OH237484   0.809   0.574   2.161
12514TIP3    H137485   0.876   0.565   2.093
12514TIP3    H237486   0.750   0.641   2.126
12515TIP3   OH237487   1.932   1.595   3.167
12515TIP3    H137488   1.940   1.580   3.072
12515TIP3    H237489   2.012   1.556   3.203
12516TIP3   OH237490   7.760   0.311   3.317
12516TIP3    H137491   7.810   0.254   3.375
12516TIP3    H237492   7.776   0.276   3.229
12517TIP3   OH237493   0.645   4.784   4.799
12517TIP3    H137494   0.581   4.814   4.734
12517TIP3    H237495   0.688   4.865   4.829
12518TIP3   OH237496   0.336   2.757   2.302
12518TIP3    H137497   0.400   2.691   2.275
12518TIP3    H237498   0.313   2.803   2.221
12519TIP3   OH237499   4.422   2.634   5.982
12519TIP3    H137500   4.457   2.561   5.931
12519TIP3    H237501   4.407   2.597   6.069
12520TIP3   OH237502   4.829   1.484   5.986
12520TIP3    H137503   4.780   1.403   5.997
12520TIP3    H237504   4.911   1.469   6.033
12521TIP3   OH237505   1.158   4.969   4.513
12521TIP3    H137506   1.189   4.895   4.460
12521TIP3    H237507   1.212   5.043   4.485
12522TIP3   OH237508   2.756   1.071   0.183
12522TIP3    H137509   2.670   1.112   0.189
12522TIP3    H237510   2.739   0.983   0.149
12523TIP3   OH237511   5.563   6.116   5.019
12523TIP3    H137512   5.638   6.102   4.962
12523TIP3    H237513   5.492   6.065   4.979
12524TIP3   OH237514   1.346   4.439   4.862
12524TIP3    H137515   1.253   4.462   4.867
12524TIP3    H237516   1.391   4.523   4.865
12525TIP3   OH237517   5.567   6.222   3.629
12525TIP3    H137518   5.641   6.201   3.572
12525TIP3    H237519   5.540   6.137   3.664
12526TIP3   OH237520   7.368   0.673   5.655
12526TIP3    H137521   7.386   0.637   5.742
12526TIP3    H237522   7.273   0.682   5.651
12527TIP3   OH237523   6.196   2.146   0.630
12527TIP3    H137524   6.249   2.177   0.556
12527TIP3    H237525   6.220   2.203   0.702
12528TIP3   OH237526   0.360   1.055   0.878
12528TIP3    H137527   0.441   1.015   0.908
12528TIP3    H237528   0.347   1.019   0.790
12529TIP3   OH237529   2.782   5.901   3.161
12529TIP3    H137530   2.806   5.900   3.253
12529TIP3    H237531   2.791   5.810   3.133
12530TIP3   OH237532   1.598   5.619   6.342
12530TIP3    H137533   1.520   5.646   6.292
12530TIP3    H237534   1.661   5.689   6.329
12531TIP3   OH237535   2.618   4.484   2.821
12531TIP3    H137536   2.712   4.481   2.806
12531TIP3    H237537   2.605   4.445   2.907
12532TIP3   OH237538   1.344   2.779   5.242
12532TIP3    H137539   1.339   2.683   5.246
12532TIP3    H237540   1.266   2.805   5.195
12533TIP3   OH237541   2.279   4.826   4.270
12533TIP3    H137542   2.315   4.759   4.212
12533TIP3    H237543   2.184   4.821   4.256
12534TIP3   OH237544   7.689   7.323   0.138
12534TIP3    H137545   7.779   7.295   0.120
12534TIP3    H237546   7.661   7.368   0.058
12535TIP3   OH237547   4.409   0.717   4.365
12535TIP3    H137548   4.326   0.680   4.333
12535TIP3    H237549   4.407   0.809   4.338
12536TIP3   OH237550   1.335   7.753   4.006
12536TIP3    H137551   1.356   7.826   3.947
12536TIP3    H237552   1.410   7.694   3.999
12537TIP3   OH237553   5.158   3.291   5.938
12537TIP3    H137554   5.132   3.225   5.874
12537TIP3    H237555   5.233   3.335   5.898
12538TIP3   OH237556   0.630   6.796   3.976
12538TIP3    H137557   0.680   6.760   3.903
12538TIP3    H237558   0.573   6.862   3.936
12539TIP3   OH237559   3.016   5.209   3.459
12539TIP3    H137560   2.943   5.239   3.404
12539TIP3    H237561   3.074   5.285   3.465
12540TIP3   OH237562   4.677   0.454   6.603
12540TIP3    H137563   4.638   0.508   6.672
12540TIP3    H237564   4.603   0.410   6.562
12541TIP3   OH237565   1.795   3.865   2.007
12541TIP3    H137566   1.806   3.943   2.061
12541TIP3    H237567   1.752   3.801   2.065
12542TIP3   OH237568   5.063   5.037   0.420
12542TIP3    H137569   5.134   5.038   0.485
12542TIP3    H237570   5.107   5.054   0.337
12543TIP3   OH237571   2.591   6.565   4.236
12543TIP3    H137572   2.622   6.586   4.147
12543TIP3    H237573   2.517   6.624   4.250
12544TIP3   OH237574   5.718   2.372   0.765
12544TIP3    H137575   5.742   2.461   0.792
12544TIP3    H237576   5.682   2.332   0.844
12545TIP3   OH237577   1.831   7.733   2.276
12545TIP3    H137578   1.902   7.707   2.217
12545TIP3    H237579   1.836   7.671   2.348
12546TIP3   OH237580   6.130   2.173   4.766
12546TIP3    H137581   6.195   2.241   4.777
12546TIP3    H237582   6.082   2.172   4.849
12547TIP3   OH237583   3.133   7.384   5.999
12547TIP3    H137584   3.206   7.441   5.973
12547TIP3    H237585   3.075   7.440   6.049
12548TIP3   OH237586   4.136   4.767   0.552
12548TIP3    H137587   4.046   4.770   0.519
12548TIP3    H237588   4.148   4.676   0.580
12549TIP3   OH237589   2.509   2.067   2.091
12549TIP3    H137590   2.562   2.064   2.171
12549TIP3    H237591   2.557   2.012   2.029
12550TIP3   OH237592   0.132   6.620   3.920
12550TIP3    H137593   0.083   6.702   3.919
12550TIP3    H237594   0.212   6.639   3.871
12551TIP3   OH237595   4.527   1.654   3.681
12551TIP3    H137596   4.595   1.627   3.743
12551TIP3    H237597   4.576   1.692   3.608
12552TIP3   OH237598   0.165   1.821   3.306
12552TIP3    H137599   0.254   1.837   3.337
12552TIP3    H237600   0.110   1.872   3.365
12553TIP3   OH237601   1.858   3.091   0.299
12553TIP3    H137602   1.902   3.171   0.270
12553TIP3    H237603   1.892   3.022   0.241
12554TIP3   OH237604   0.154   0.381   3.857
12554TIP3    H137605   0.092   0.452   3.870
12554TIP3    H237606   0.175   0.351   3.945
12555TIP3   OH237607   4.904   1.982   6.633
12555TIP3    H137608   4.860   2.016   6.711
12555TIP3    H237609   4.968   2.049   6.611
12556TIP3   OH237610   8.100   0.203   2.940
12556TIP3    H137611   8.154   0.272   2.900
12556TIP3    H237612   8.158   0.127   2.944
12557TIP3   OH237613   3.208   2.231   2.239
12557TIP3    H137614   3.133   2.199   2.290
12557TIP3    H237615   3.276   2.165   2.252
12558TIP3   OH237616   2.482   5.448   2.665
12558TIP3    H137617   2.530   5.468   2.584
12558TIP3    H237618   2.477   5.352   2.667
12559TIP3   OH237619   2.567   2.274   1.208
12559TIP3    H137620   2.532   2.230   1.130
12559TIP3    H237621   2.659   2.287   1.189
12560TIP3   OH237622   1.541   5.440   0.950
12560TIP3    H137623   1.493   5.455   0.869
12560TIP3    H237624   1.624   5.401   0.922
12561TIP3   OH237625   5.809   7.453   2.531
12561TIP3    H137626   5.891   7.475   2.487
12561TIP3    H237627   5.752   7.529   2.515
12562TIP3   OH237628   5.010   2.065   5.793
12562TIP3    H137629   5.022   2.119   5.714
12562TIP3    H237630   4.916   2.054   5.801
12563TIP3   OH237631   2.147   5.368   3.605
12563TIP3    H137632   2.053   5.353   3.596
12563TIP3    H237633   2.170   5.331   3.690
12564TIP3   OH237634   5.075   5.697   2.152
12564TIP3    H137635   5.058   5.615   2.106
12564TIP3    H237636   5.132   5.673   2.225
12565TIP3   OH237637   7.330   1.610   3.521
12565TIP3    H137638   7.389   1.539   3.495
12565TIP3    H237639   7.259   1.566   3.568
12566TIP3   OH237640   4.035   5.122   5.856
12566TIP3    H137641   3.945   5.132   5.887
12566TIP3    H237642   4.027   5.066   5.778
12567TIP3   OH237643   1.239   4.846   3.706
12567TIP3    H137644   1.218   4.820   3.796
12567TIP3    H237645   1.310   4.909   3.715
12568TIP3   OH237646   5.008   6.046   1.097
12568TIP3    H137647   4.997   6.054   1.002
12568TIP3    H237648   5.088   6.095   1.116
12569TIP3   OH237649   5.042   6.194   3.964
12569TIP3    H137650   5.132   6.221   3.981
12569TIP3    H237651   5.035   6.107   4.004
12570TIP3   OH237652   4.501   2.881   6.798
12570TIP3    H137653   4.438   2.813   6.775
12570TIP3    H237654   4.465   2.961   6.760
12571TIP3   OH237655   6.063   1.560   2.956
12571TIP3    H137656   6.124   1.615   2.908
12571TIP3    H237657   5.983   1.613   2.962
12572TIP3   OH237658   5.639   4.131   3.070
12572TIP3    H137659   5.701   4.177   3.014
12572TIP3    H237660   5.681   4.129   3.156
12573TIP3   OH237661   0.883   3.843   2.917
12573TIP3    H137662   0.909   3.840   2.825
12573TIP3    H237663   0.894   3.753   2.948
12574TIP3   OH237664   0.957   2.177   0.320
12574TIP3    H137665   1.005   2.104   0.358
12574TIP3    H237666   0.866   2.160   0.341
12575TIP3   OH237667   2.731   1.180   5.883
12575TIP3    H137668   2.731   1.272   5.909
12575TIP3    H237669   2.746   1.132   5.964
12576TIP3   OH237670   0.569   2.960   1.728
12576TIP3    H137671   0.628   2.955   1.803
12576TIP3    H237672   0.546   2.868   1.710
12577TIP3   OH237673   2.857   0.089   2.644
12577TIP3    H137674   2.927   0.042   2.596
12577TIP3    H237675   2.836   0.031   2.717
12578TIP3   OH237676   6.367   0.643   6.004
12578TIP3    H137677   6.373   0.613   6.095
12578TIP3    H237678   6.432   0.712   5.997
12579TIP3   OH237679   3.595   3.981   5.245
12579TIP3    H137680   3.532   3.984   5.317
12579TIP3    H237681   3.660   3.916   5.272
12580TIP3   OH237682   1.698   2.006   6.500
12580TIP3    H137683   1.699   2.056   6.581
12580TIP3    H237684   1.721   1.917   6.526
12581TIP3   OH237685   3.172   2.307   1.976
12581TIP3    H137686   3.165   2.401   1.958
12581TIP3    H237687   3.221   2.303   2.058
12582TIP3   OH237688   6.848   5.237   5.844
12582TIP3    H137689   6.818   5.211   5.757
12582TIP3    H237690   6.835   5.332   5.847
12583TIP3   OH237691   1.404   6.725   5.889
12583TIP3    H137692   1.421   6.641   5.845
12583TIP3    H237693   1.479   6.737   5.947
12584TIP3   OH237694   4.103   2.151   0.808
12584TIP3    H137695   4.167   2.200   0.861
12584TIP3    H237696   4.053   2.100   0.872
12585TIP3   OH237697   1.555   2.337   5.874
12585TIP3    H137698   1.460   2.333   5.863
12585TIP3    H237699   1.568   2.333   5.969
12586TIP3   OH237700   6.696   5.717   0.363
12586TIP3    H137701   6.711   5.630   0.402
12586TIP3    H237702   6.714   5.705   0.270
12587TIP3   OH237703   5.948   4.996   2.892
12587TIP3    H137704   6.013   4.956   2.834
12587TIP3    H237705   5.933   5.083   2.855
12588TIP3   OH237706   4.938   6.747   6.077
12588TIP3    H137707   5.023   6.785   6.101
12588TIP3    H237708   4.960   6.664   6.036
12589TIP3   OH237709   6.054   7.013   1.609
12589TIP3    H137710   5.964   7.035   1.633
12589TIP3    H237711   6.104   7.023   1.690
12590TIP3   OH237712   6.054   1.245   0.932
12590TIP3    H137713   6.129   1.274   0.984
12590TIP3    H237714   6.039   1.317   0.870
12591TIP3   OH237715   4.619   6.327   4.137
12591TIP3    H137716   4.700   6.280   4.160
12591TIP3    H237717   4.622   6.333   4.042
12592TIP3   OH237718   7.968   3.742   4.385
12592TIP3    H137719   7.928   3.828   4.396
12592TIP3    H237720   7.920   3.702   4.313
12593TIP3   OH237721   6.250   4.332   2.067
12593TIP3    H137722   6.171   4.320   2.120
12593TIP3    H237723   6.218   4.338   1.977
12594TIP3   OH237724   1.932   2.848   1.074
12594TIP3    H137725   1.939   2.767   1.124
12594TIP3    H237726   1.931   2.917   1.141
12595TIP3   OH237727   6.501   4.842   0.542
12595TIP3    H137728   6.446   4.921   0.538
12595TIP3    H237729   6.527   4.827   0.451
12596TIP3   OH237730   7.751   7.809   1.838
12596TIP3    H137731   7.845   7.792   1.833
12596TIP3    H237732   7.718   7.742   1.898
12597TIP3   OH237733   4.748   5.233   1.146
12597TIP3    H137734   4.801   5.239   1.067
12597TIP3    H237735   4.787   5.161   1.196
12598TIP3   OH237736   5.720   7.442   3.433
12598TIP3    H137737   5.713   7.522   3.484
12598TIP3    H237738   5.733   7.373   3.497
12599TIP3   OH237739   8.288   5.518   5.412
12599TIP3    H137740   8.234   5.442   5.395
12599TIP3    H237741   8.270   5.540   5.504
12600TIP3   OH237742   0.457   6.132   5.296
12600TIP3    H137743   0.476   6.190   5.369
12600TIP3    H237744   0.400   6.064   5.333
12601TIP3   OH237745   0.428   2.796   5.691
12601TIP3    H137746   0.377   2.736   5.637
12601TIP3    H237747   0.518   2.766   5.682
12602TIP3   OH237748   7.428   0.763   2.281
12602TIP3    H137749   7.406   0.824   2.352
12602TIP3    H237750   7.387   0.681   2.307
12603TIP3   OH237751   1.467   3.829   3.473
12603TIP3    H137752   1.542   3.783   3.435
12603TIP3    H237753   1.475   3.816   3.567
12604TIP3   OH237754   6.415   3.221   0.111
12604TIP3    H137755   6.439   3.267   0.031
12604TIP3    H237756   6.448   3.132   0.098
12605TIP3   OH237757   1.426   5.552   2.432
12605TIP3    H137758   1.469   5.636   2.416
12605TIP3    H237759   1.446   5.532   2.523
12606TIP3   OH237760   5.655   4.710   1.619
12606TIP3    H137761   5.698   4.794   1.633
12606TIP3    H237762   5.726   4.650   1.597
12607TIP3   OH237763   7.366   6.642   1.937
12607TIP3    H137764   7.428   6.588   1.985
12607TIP3    H237765   7.293   6.584   1.917
12608TIP3   OH237766   6.843   5.633   1.098
12608TIP3    H137767   6.882   5.611   1.182
12608TIP3    H237768   6.750   5.644   1.116
12609TIP3   OH237769   5.666   0.372   2.652
12609TIP3    H137770   5.596   0.418   2.605
12609TIP3    H237771   5.735   0.360   2.587
12610TIP3   OH237772   5.692   0.074   6.646
12610TIP3    H137773   5.643  -0.003   6.616
12610TIP3    H237774   5.672   0.142   6.582
12611TIP3   OH237775   4.793   6.543   2.397
12611TIP3    H137776   4.804   6.627   2.354
12611TIP3    H237777   4.882   6.513   2.414
12612TIP3   OH237778   4.776   5.017   0.509
12612TIP3    H137779   4.757   5.102   0.548
12612TIP3    H237780   4.865   5.025   0.474
12613TIP3   OH237781   5.714   6.830   4.810
12613TIP3    H137782   5.681   6.750   4.851
12613TIP3    H237783   5.809   6.819   4.809
12614TIP3   OH237784   2.718   0.070   1.736
12614TIP3    H137785   2.690  -0.020   1.719
12614TIP3    H237786   2.744   0.069   1.828
12615TIP3   OH237787   2.022   1.967   1.106
12615TIP3    H137788   2.018   2.007   1.193
12615TIP3    H237789   2.023   1.872   1.123
12616TIP3   OH237790   5.609   4.232   3.426
12616TIP3    H137791   5.659   4.290   3.483
12616TIP3    H237792   5.673   4.201   3.362
12617TIP3   OH237793   1.534   1.797   5.621
12617TIP3    H137794   1.478   1.869   5.649
12617TIP3    H237795   1.537   1.804   5.526
12618TIP3   OH237796   3.741   5.478   1.781
12618TIP3    H137797   3.821   5.528   1.799
12618TIP3    H237798   3.769   5.413   1.716
12619TIP3   OH237799   3.268   4.337   2.259
12619TIP3    H137800   3.233   4.419   2.293
12619TIP3    H237801   3.326   4.362   2.188
12620TIP3   OH237802   8.065   0.041   1.656
12620TIP3    H137803   8.099  -0.034   1.704
12620TIP3    H237804   8.076   0.017   1.564
12621TIP3   OH237805   8.222   3.262   4.796
12621TIP3    H137806   8.143   3.208   4.793
12621TIP3    H237807   8.263   3.239   4.879
12622TIP3   OH237808   6.902   1.171   0.467
12622TIP3    H137809   6.943   1.154   0.552
12622TIP3    H237810   6.908   1.088   0.420
12623TIP3   OH237811   6.595   1.792   1.278
12623TIP3    H137812   6.675   1.782   1.329
12623TIP3    H237813   6.564   1.880   1.298
12624TIP3   OH237814   3.753   5.874   3.519
12624TIP3    H137815   3.726   5.826   3.441
12624TIP3    H237816   3.842   5.843   3.537
12625TIP3   OH237817   3.900   3.152   4.262
12625TIP3    H137818   3.964   3.223   4.257
12625TIP3    H237819   3.936   3.092   4.328
12626TIP3   OH237820   4.391   5.339   6.154
12626TIP3    H137821   4.424   5.421   6.189
12626TIP3    H237822   4.443   5.271   6.198
12627TIP3   OH237823   1.348   3.730   5.557
12627TIP3    H137824   1.323   3.802   5.499
12627TIP3    H237825   1.406   3.770   5.622
12628TIP3   OH237826   5.663   5.191   1.507
12628TIP3    H137827   5.680   5.226   1.594
12628TIP3    H237828   5.581   5.143   1.516
12629TIP3   OH237829   7.207   5.635   4.892
12629TIP3    H137830   7.290   5.632   4.938
12629TIP3    H237831   7.165   5.716   4.921
12630TIP3   OH237832   1.873   1.250   1.400
12630TIP3    H137833   1.836   1.283   1.318
12630TIP3    H237834   1.935   1.182   1.373
12631TIP3   OH237835   1.726   3.121   1.065
12631TIP3    H137836   1.686   3.114   1.151
12631TIP3    H237837   1.662   3.170   1.013
12632TIP3   OH237838   6.359   7.463   0.136
12632TIP3    H137839   6.439   7.423   0.103
12632TIP3    H237840   6.310   7.489   0.058
12633TIP3   OH237841   7.317   2.121   6.675
12633TIP3    H137842   7.302   2.132   6.581
12633TIP3    H237843   7.401   2.075   6.682
12634TIP3   OH237844   4.297   6.006   0.383
12634TIP3    H137845   4.356   5.940   0.417
12634TIP3    H237846   4.286   5.983   0.290
12635TIP3   OH237847   4.776   5.585   5.356
12635TIP3    H137848   4.698   5.627   5.392
12635TIP3    H237849   4.837   5.657   5.341
12636TIP3   OH237850   0.896   6.880   1.226
12636TIP3    H137851   0.987   6.851   1.216
12636TIP3    H237852   0.852   6.808   1.270
12637TIP3   OH237853   6.660   6.314   2.735
12637TIP3    H137854   6.709   6.311   2.817
12637TIP3    H237855   6.568   6.314   2.762
12638TIP3   OH237856   4.381   7.369   2.561
12638TIP3    H137857   4.292   7.364   2.526
12638TIP3    H237858   4.436   7.377   2.483
12639TIP3   OH237859   0.486   6.070   3.243
12639TIP3    H137860   0.476   6.163   3.222
12639TIP3    H237861   0.416   6.052   3.306
12640TIP3   OH237862   5.008   0.887   5.149
12640TIP3    H137863   4.932   0.918   5.198
12640TIP3    H237864   5.058   0.966   5.130
12641TIP3   OH237865   0.212   0.731   0.331
12641TIP3    H137866   0.221   0.714   0.237
12641TIP3    H237867   0.302   0.751   0.359
12642TIP3   OH237868   7.220   6.272   5.446
12642TIP3    H137869   7.235   6.289   5.353
12642TIP3    H237870   7.126   6.285   5.459
12643TIP3   OH237871   5.737   6.065   6.509
12643TIP3    H137872   5.826   6.031   6.520
12643TIP3    H237873   5.692   5.997   6.459
12644TIP3   OH237874   6.584   6.672   4.598
12644TIP3    H137875   6.494   6.641   4.593
12644TIP3    H237876   6.604   6.678   4.691
12645TIP3   OH237877   6.853   2.010   4.444
12645TIP3    H137878   6.904   1.936   4.411
12645TIP3    H237879   6.892   2.031   4.529
12646TIP3   OH237880   8.219   1.316   0.907
12646TIP3    H137881   8.186   1.345   0.992
12646TIP3    H237882   8.148   1.338   0.846
12647TIP3   OH237883   3.782   6.263   5.565
12647TIP3    H137884   3.760   6.272   5.658
12647TIP3    H237885   3.817   6.175   5.557
12648TIP3   OH237886   3.514   1.080   0.140
12648TIP3    H137887   3.429   1.124   0.147
12648TIP3    H237888   3.517   1.048   0.049
12649TIP3   OH237889   7.319   4.665   2.596
12649TIP3    H137890   7.318   4.756   2.626
12649TIP3    H237891   7.412   4.641   2.598
12650TIP3   OH237892   3.446   2.113   1.090
12650TIP3    H137893   3.463   2.102   1.184
12650TIP3    H237894   3.361   2.071   1.076
12651TIP3   OH237895   5.210   6.597   4.558
12651TIP3    H137896   5.301   6.568   4.562
12651TIP3    H237897   5.191   6.629   4.646
12652TIP3   OH237898   0.436   7.033   4.105
12652TIP3    H137899   0.493   7.104   4.076
12652TIP3    H237900   0.458   7.020   4.197
12653TIP3   OH237901   6.522   5.790   3.387
12653TIP3    H137902   6.458   5.775   3.317
12653TIP3    H237903   6.606   5.790   3.343
12654TIP3   OH237904   3.747   4.674   1.297
12654TIP3    H137905   3.675   4.718   1.253
12654TIP3    H237906   3.722   4.581   1.297
12655TIP3   OH237907   7.973   4.283   3.002
12655TIP3    H137908   7.956   4.329   3.084
12655TIP3    H237909   7.889   4.283   2.956
12656TIP3   OH237910   7.786   4.777   2.829
12656TIP3    H137911   7.882   4.773   2.835
12656TIP3    H237912   7.767   4.864   2.795
12657TIP3   OH237913   4.872   7.687   1.587
12657TIP3    H137914   4.844   7.666   1.498
12657TIP3    H237915   4.967   7.701   1.579
12658TIP3   OH237916   0.531   6.535   2.533
12658TIP3    H137917   0.544   6.448   2.495
12658TIP3    H237918   0.479   6.520   2.612
12659TIP3   OH237919   7.397   2.162   0.969
12659TIP3    H137920   7.349   2.116   1.038
12659TIP3    H237921   7.387   2.107   0.892
12660TIP3   OH237922   4.642   1.260   6.552
12660TIP3    H137923   4.581   1.232   6.484
12660TIP3    H237924   4.685   1.337   6.515
12661TIP3   OH237925   6.852   3.913   1.448
12661TIP3    H137926   6.828   3.826   1.415
12661TIP3    H237927   6.794   3.928   1.522
12662TIP3   OH237928   2.180   7.234   0.513
12662TIP3    H137929   2.107   7.277   0.468
12662TIP3    H237930   2.222   7.305   0.563
12663TIP3   OH237931   3.716   5.024   4.034
12663TIP3    H137932   3.660   5.087   3.987
12663TIP3    H237933   3.705   4.942   3.986
12664TIP3   OH237934   7.291   1.323   3.634
12664TIP3    H137935   7.213   1.332   3.579
12664TIP3    H237936   7.303   1.410   3.673
12665TIP3   OH237937   3.703   2.471   5.331
12665TIP3    H137938   3.716   2.397   5.272
12665TIP3    H237939   3.754   2.542   5.292
12666TIP3   OH237940   1.370   3.076   0.533
12666TIP3    H137941   1.431   3.040   0.597
12666TIP3    H237942   1.426   3.115   0.466
12667TIP3   OH237943   5.600   5.143   3.295
12667TIP3    H137944   5.552   5.082   3.239
12667TIP3    H237945   5.671   5.176   3.239
12668TIP3   OH237946   5.285   5.414   4.214
12668TIP3    H137947   5.359   5.451   4.165
12668TIP3    H237948   5.217   5.401   4.148
12669TIP3   OH237949   6.569   6.201   2.313
12669TIP3    H137950   6.513   6.272   2.344
12669TIP3    H237951   6.559   6.132   2.378
12670TIP3   OH237952   4.317   6.869   2.514
12670TIP3    H137953   4.323   6.875   2.609
12670TIP3    H237954   4.225   6.886   2.495
12671TIP3   OH237955   6.254   6.478   5.450
12671TIP3    H137956   6.277   6.439   5.534
12671TIP3    H237957   6.167   6.443   5.429
12672TIP3   OH237958   6.915   7.351   4.052
12672TIP3    H137959   6.902   7.298   3.974
12672TIP3    H237960   6.995   7.317   4.092
12673TIP3   OH237961   2.831   1.286   5.212
12673TIP3    H137962   2.797   1.369   5.246
12673TIP3    H237963   2.872   1.245   5.288
12674TIP3   OH237964   3.520   4.350   2.423
12674TIP3    H137965   3.438   4.385   2.388
12674TIP3    H237966   3.562   4.308   2.349
12675TIP3   OH237967   5.824   6.494   0.579
12675TIP3    H137968   5.740   6.538   0.596
12675TIP3    H237969   5.836   6.437   0.655
12676TIP3   OH237970   7.139   2.833   4.885
12676TIP3    H137971   7.134   2.918   4.929
12676TIP3    H237972   7.233   2.815   4.880
12677TIP3   OH237973   4.722   7.300   3.980
12677TIP3    H137974   4.809   7.285   3.945
12677TIP3    H237975   4.726   7.386   4.021
12678TIP3   OH237976   0.677   0.091   3.160
12678TIP3    H137977   0.678   0.100   3.065
12678TIP3    H237978   0.586   0.068   3.181
12679TIP3   OH237979   2.669   5.600   5.172
12679TIP3    H137980   2.593   5.543   5.165
12679TIP3    H237981   2.742   5.540   5.188
12680TIP3   OH237982   1.237   1.737   0.733
12680TIP3    H137983   1.289   1.679   0.677
12680TIP3    H237984   1.156   1.751   0.683
12681TIP3   OH237985   3.994   1.873   2.056
12681TIP3    H137986   4.047   1.891   1.979
12681TIP3    H237987   3.918   1.932   2.047
12682TIP3   OH237988   6.402   5.175   4.428
12682TIP3    H137989   6.414   5.083   4.452
12682TIP3    H237990   6.395   5.221   4.512
12683TIP3   OH237991   3.069   2.159   0.169
12683TIP3    H137992   3.137   2.225   0.155
12683TIP3    H237993   3.113   2.086   0.212
12684TIP3   OH237994   3.875   4.896   0.493
12684TIP3    H137995   3.862   4.925   0.584
12684TIP3    H237996   3.815   4.951   0.442
12685TIP3   OH237997   0.277   1.653   0.690
12685TIP3    H137998   0.245   1.701   0.766
12685TIP3    H237999   0.208   1.662   0.625
12686TIP3   OH238000   4.842   0.481   0.117
12686TIP3    H138001   4.861   0.387   0.111
12686TIP3    H238002   4.841   0.511   0.026
12687TIP3   OH238003   7.938   0.701   0.190
12687TIP3    H138004   7.873   0.755   0.145
12687TIP3    H238005   7.913   0.611   0.170
12688TIP3   OH238006   5.346   5.700   3.481
12688TIP3    H138007   5.428   5.708   3.530
12688TIP3    H238008   5.279   5.696   3.549
12689TIP3   OH238009   3.400   1.392   3.318
12689TIP3    H138010   3.485   1.394   3.273
12689TIP3    H238011   3.346   1.334   3.264
12690TIP3   OH238012   3.838   5.519   6.359
12690TIP3    H138013   3.873   5.599   6.400
12690TIP3    H238014   3.812   5.548   6.271
12691TIP3   OH238015   4.150   7.378   3.317
12691TIP3    H138016   4.185   7.290   3.330
12691TIP3    H238017   4.072   7.365   3.262
12692TIP3   OH238018   7.785   2.746   4.442
12692TIP3    H138019   7.867   2.793   4.424
12692TIP3    H238020   7.717   2.807   4.413
12693TIP3   OH238021   5.472   1.815   4.806
12693TIP3    H138022   5.548   1.834   4.860
12693TIP3    H238023   5.503   1.822   4.716
12694TIP3   OH238024   2.428   1.485   6.573
12694TIP3    H138025   2.477   1.561   6.540
12694TIP3    H238026   2.345   1.522   6.602
12695TIP3   OH238027   3.369   6.179   4.703
12695TIP3    H138028   3.355   6.128   4.624
12695TIP3    H238029   3.465   6.181   4.714
12696TIP3   OH238030   7.783   2.483   1.219
12696TIP3    H138031   7.774   2.577   1.232
12696TIP3    H238032   7.694   2.449   1.222
12697TIP3   OH238033   7.714   7.144   2.454
12697TIP3    H138034   7.759   7.104   2.380
12697TIP3    H238035   7.685   7.229   2.421
12698TIP3   OH238036   3.555   1.751   5.466
12698TIP3    H138037   3.487   1.751   5.533
12698TIP3    H238038   3.591   1.839   5.468
12699TIP3   OH238039   3.475   1.457   2.698
12699TIP3    H138040   3.397   1.473   2.750
12699TIP3    H238041   3.477   1.362   2.686
12700TIP3   OH238042   5.760   4.351   0.350
12700TIP3    H138043   5.800   4.435   0.328
12700TIP3    H238044   5.679   4.348   0.298
12701TIP3   OH238045   5.590   6.607   0.631
12701TIP3    H138046   5.517   6.546   0.626
12701TIP3    H238047   5.610   6.613   0.725
12702TIP3   OH238048   7.501   3.366   2.089
12702TIP3    H138049   7.557   3.316   2.149
12702TIP3    H238050   7.419   3.378   2.137
12703TIP3   OH238051   1.580   6.363   2.425
12703TIP3    H138052   1.616   6.332   2.342
12703TIP3    H238053   1.544   6.449   2.405
12704TIP3   OH238054   1.287   6.181   1.040
12704TIP3    H138055   1.263   6.239   1.113
12704TIP3    H238056   1.310   6.098   1.082
12705TIP3   OH238057   0.382   5.687   1.877
12705TIP3    H138058   0.340   5.678   1.792
12705TIP3    H238059   0.418   5.600   1.895
12706TIP3   OH238060   4.478   4.965   6.423
12706TIP3    H138061   4.507   5.052   6.397
12706TIP3    H238062   4.383   4.967   6.414
12707TIP3   OH238063   4.484   2.893   2.870
12707TIP3    H138064   4.475   2.939   2.953
12707TIP3    H238065   4.453   2.805   2.888
12708TIP3   OH238066   7.065   0.652   5.064
12708TIP3    H138067   7.159   0.659   5.079
12708TIP3    H238068   7.057   0.625   4.972
12709TIP3   OH238069   3.928   1.469   1.525
12709TIP3    H138070   4.019   1.453   1.550
12709TIP3    H238071   3.886   1.383   1.530
12710TIP3   OH238072   0.111   6.827   3.616
12710TIP3    H138073   0.037   6.787   3.661
12710TIP3    H238074   0.156   6.878   3.684
12711TIP3   OH238075   3.319   3.302   2.130
12711TIP3    H138076   3.360   3.289   2.215
12711TIP3    H238077   3.387   3.278   2.067
12712TIP3   OH238078   7.446   5.978   1.891
12712TIP3    H138079   7.482   5.913   1.951
12712TIP3    H238080   7.522   6.011   1.843
12713TIP3   OH238081   4.719   6.635   0.408
12713TIP3    H138082   4.785   6.572   0.378
12713TIP3    H238083   4.685   6.598   0.489
12714TIP3   OH238084   1.525   3.728   2.564
12714TIP3    H138085   1.468   3.660   2.528
12714TIP3    H238086   1.600   3.681   2.600
12715TIP3   OH238087   7.245   3.841   6.152
12715TIP3    H138088   7.160   3.880   6.128
12715TIP3    H238089   7.309   3.900   6.112
12716TIP3   OH238090   3.172   3.077   0.639
12716TIP3    H138091   3.203   3.087   0.548
12716TIP3    H238092   3.092   3.129   0.643
12717TIP3   OH238093   4.549   0.605   1.555
12717TIP3    H138094   4.538   0.652   1.473
12717TIP3    H238095   4.481   0.641   1.612
12718TIP3   OH238096   5.924   5.732   2.290
12718TIP3    H138097   5.961   5.692   2.211
12718TIP3    H238098   5.830   5.729   2.276
12719TIP3   OH238099   5.665   2.983   5.048
12719TIP3    H138100   5.647   3.066   5.003
12719TIP3    H238101   5.671   3.006   5.140
12720TIP3   OH238102   1.003   3.898   0.784
12720TIP3    H138103   0.918   3.912   0.827
12720TIP3    H238104   1.032   3.812   0.815
12721TIP3   OH238105   4.850   1.681   3.443
12721TIP3    H138106   4.938   1.645   3.435
12721TIP3    H238107   4.793   1.608   3.421
12722TIP3   OH238108   7.920   5.045   0.862
12722TIP3    H138109   7.994   5.028   0.920
12722TIP3    H238110   7.855   5.087   0.918
12723TIP3   OH238111   3.245   2.656   4.590
12723TIP3    H138112   3.234   2.562   4.609
12723TIP3    H238113   3.213   2.666   4.501
12724TIP3   OH238114   2.458   4.125   4.989
12724TIP3    H138115   2.382   4.085   4.947
12724TIP3    H238116   2.471   4.073   5.068
12725TIP3   OH238117   2.644   1.975   5.020
12725TIP3    H138118   2.583   2.043   4.993
12725TIP3    H238119   2.609   1.944   5.104
12726TIP3   OH238120   5.530   4.984   4.937
12726TIP3    H138121   5.447   4.991   4.890
12726TIP3    H238122   5.595   5.017   4.875
12727TIP3   OH238123   1.736   5.814   4.855
12727TIP3    H138124   1.685   5.893   4.835
12727TIP3    H238125   1.826   5.839   4.834
12728TIP3   OH238126   8.003   6.722   2.788
12728TIP3    H138127   7.931   6.751   2.731
12728TIP3    H238128   7.961   6.668   2.854
12729TIP3   OH238129   8.045   5.260   3.739
12729TIP3    H138130   8.065   5.171   3.709
12729TIP3    H238131   8.101   5.272   3.816
12730TIP3   OH238132   5.000   3.212   3.356
12730TIP3    H138133   5.045   3.155   3.294
12730TIP3    H238134   4.936   3.155   3.398
12731TIP3   OH238135   4.944   2.354   3.492
12731TIP3    H138136   4.957   2.259   3.490
12731TIP3    H238137   4.960   2.378   3.583
12732TIP3   OH238138   1.690   3.211   0.090
12732TIP3    H138139   1.632   3.200   0.166
12732TIP3    H238140   1.636   3.186   0.015
12733TIP3   OH238141   6.263   2.731   4.143
12733TIP3    H138142   6.343   2.709   4.191
12733TIP3    H238143   6.205   2.768   4.209
12734TIP3   OH238144   2.350   1.652   2.936
12734TIP3    H138145   2.390   1.681   2.854
12734TIP3    H238146   2.346   1.731   2.990
12735TIP3   OH238147   2.054   5.858   6.301
12735TIP3    H138148   2.120   5.927   6.293
12735TIP3    H238149   2.102   5.776   6.295
12736TIP3   OH238150   4.785   4.356   1.564
12736TIP3    H138151   4.775   4.426   1.628
12736TIP3    H238152   4.821   4.282   1.614
12737TIP3   OH238153   5.664   0.128   1.360
12737TIP3    H138154   5.575   0.154   1.337
12737TIP3    H238155   5.661   0.107   1.453
12738TIP3   OH238156   1.595   6.378   1.187
12738TIP3    H138157   1.575   6.417   1.102
12738TIP3    H238158   1.509   6.364   1.227
12739TIP3   OH238159   7.296   2.778   3.287
12739TIP3    H138160   7.205   2.785   3.317
12739TIP3    H238161   7.289   2.768   3.192
12740TIP3   OH238162   8.240   3.474   0.304
12740TIP3    H138163   8.308   3.466   0.371
12740TIP3    H238164   8.282   3.524   0.234
12741TIP3   OH238165   2.329   6.582   1.564
12741TIP3    H138166   2.266   6.605   1.632
12741TIP3    H238167   2.387   6.518   1.605
12742TIP3   OH238168   4.488   7.135   5.441
12742TIP3    H138169   4.393   7.135   5.447
12742TIP3    H238170   4.509   7.052   5.398
12743TIP3   OH238171   4.115   4.753   2.362
12743TIP3    H138172   4.023   4.777   2.364
12743TIP3    H238173   4.116   4.663   2.329
12744TIP3   OH238174   3.741   4.297   6.261
12744TIP3    H138175   3.826   4.278   6.221
12744TIP3    H238176   3.708   4.211   6.289
12745TIP3   OH238177   4.370   5.104   0.701
12745TIP3    H138178   4.285   5.146   0.710
12745TIP3    H238179   4.388   5.066   0.787
12746TIP3   OH238180   0.574   3.187   4.908
12746TIP3    H138181   0.520   3.186   4.829
12746TIP3    H238182   0.561   3.275   4.945
12747TIP3   OH238183   6.114   7.753   5.790
12747TIP3    H138184   6.064   7.675   5.769
12747TIP3    H238185   6.106   7.761   5.885
12748TIP3   OH238186   4.872   4.761   3.351
12748TIP3    H138187   4.924   4.713   3.286
12748TIP3    H238188   4.782   4.744   3.326
12749TIP3   OH238189   6.824   0.154   2.070
12749TIP3    H138190   6.842   0.220   2.137
12749TIP3    H238191   6.882   0.176   1.998
12750TIP3   OH238192   4.632   6.435   1.274
12750TIP3    H138193   4.575   6.413   1.200
12750TIP3    H238194   4.611   6.371   1.341
12751TIP3   OH238195   4.261   1.123   0.181
12751TIP3    H138196   4.263   1.102   0.087
12751TIP3    H238197   4.169   1.140   0.200
12752TIP3   OH238198   0.773   4.381   4.520
12752TIP3    H138199   0.785   4.433   4.599
12752TIP3    H238200   0.774   4.290   4.550
12753TIP3   OH238201   6.803   2.320   0.616
12753TIP3    H138202   6.808   2.378   0.692
12753TIP3    H238203   6.792   2.379   0.542
12754TIP3   OH238204   5.284   5.739   0.556
12754TIP3    H138205   5.290   5.685   0.635
12754TIP3    H238206   5.337   5.692   0.491
12755TIP3   OH238207   8.203   2.045   2.205
12755TIP3    H138208   8.112   2.056   2.175
12755TIP3    H238209   8.254   2.034   2.125
12756TIP3   OH238210   0.302   6.723   5.625
12756TIP3    H138211   0.368   6.738   5.692
12756TIP3    H238212   0.351   6.695   5.548
12757TIP3   OH238213   6.524   7.051   4.917
12757TIP3    H138214   6.460   7.054   4.846
12757TIP3    H238215   6.514   7.135   4.962
12758TIP3   OH238216   4.700   4.552   1.765
12758TIP3    H138217   4.684   4.580   1.855
12758TIP3    H238218   4.614   4.529   1.732
12759TIP3   OH238219   5.711   0.551   3.041
12759TIP3    H138220   5.697   0.479   3.103
12759TIP3    H238221   5.644   0.538   2.974
12760TIP3   OH238222   6.874   2.648   6.594
12760TIP3    H138223   6.865   2.572   6.652
12760TIP3    H238224   6.785   2.684   6.588
12761TIP3   OH238225   5.147   0.849   6.688
12761TIP3    H138226   5.159   0.898   6.770
12761TIP3    H238227   5.114   0.763   6.716
12762TIP3   OH238228   5.826   1.484   1.509
12762TIP3    H138229   5.771   1.475   1.586
12762TIP3    H238230   5.894   1.546   1.535
12763TIP3   OH238231   5.625   2.695   4.382
12763TIP3    H138232   5.598   2.752   4.310
12763TIP3    H238233   5.639   2.754   4.455
12764TIP3   OH238234   2.346   1.740   5.092
12764TIP3    H138235   2.320   1.671   5.153
12764TIP3    H238236   2.270   1.797   5.086
12765TIP3   OH238237   4.445   6.827   2.015
12765TIP3    H138238   4.529   6.865   2.040
12765TIP3    H238239   4.448   6.822   1.920
12766TIP3   OH238240   3.043   5.001   2.131
12766TIP3    H138241   3.110   4.997   2.063
12766TIP3    H238242   3.068   4.932   2.193
12767TIP3   OH238243   2.133   1.072   6.103
12767TIP3    H138244   2.055   1.122   6.081
12767TIP3    H238245   2.156   1.027   6.022
12768TIP3   OH238246   1.761   5.558   5.529
12768TIP3    H138247   1.762   5.552   5.433
12768TIP3    H238248   1.851   5.578   5.553
12769TIP3   OH238249   5.348   1.305   2.245
12769TIP3    H138250   5.284   1.277   2.180
12769TIP3    H238251   5.304   1.377   2.291
12770TIP3   OH238252   5.106   0.105   4.050
12770TIP3    H138253   5.172   0.130   3.985
12770TIP3    H238254   5.043   0.178   4.050
12771TIP3   OH238255   3.293   4.853   4.173
12771TIP3    H138256   3.329   4.918   4.113
12771TIP3    H238257   3.325   4.769   4.139
12772TIP3   OH238258   6.057   2.801   5.739
12772TIP3    H138259   6.105   2.859   5.680
12772TIP3    H238260   6.101   2.716   5.730
12773TIP3   OH238261   6.577   2.420   5.878
12773TIP3    H138262   6.534   2.374   5.805
12773TIP3    H238263   6.630   2.354   5.922
12774TIP3   OH238264   5.709   6.242   0.727
12774TIP3    H138265   5.629   6.259   0.676
12774TIP3    H238266   5.701   6.299   0.803
12775TIP3   OH238267   6.147   1.441   4.378
12775TIP3    H138268   6.092   1.519   4.373
12775TIP3    H238269   6.116   1.385   4.307
12776TIP3   OH238270   1.973   0.737   1.857
12776TIP3    H138271   1.955   0.651   1.817
12776TIP3    H238272   2.044   0.720   1.919
12777TIP3   OH238273   2.311   4.530   1.485
12777TIP3    H138274   2.294   4.618   1.517
12777TIP3    H238275   2.300   4.536   1.390
12778TIP3   OH238276   4.659   6.812   2.703
12778TIP3    H138277   4.669   6.895   2.656
12778TIP3    H238278   4.717   6.821   2.778
12779TIP3   OH238279   2.733   6.666   6.636
12779TIP3    H138280   2.773   6.625   6.559
12779TIP3    H238281   2.803   6.718   6.675
12780TIP3   OH238282   6.216   4.043   3.325
12780TIP3    H138283   6.190   3.969   3.380
12780TIP3    H238284   6.300   4.018   3.287
12781TIP3   OH238285   3.888   4.232   6.729
12781TIP3    H138286   3.834   4.173   6.783
12781TIP3    H238287   3.890   4.190   6.643
12782TIP3   OH238288   7.179   6.033   6.059
12782TIP3    H138289   7.087   6.014   6.041
12782TIP3    H238290   7.227   5.956   6.028
12783TIP3   OH238291   7.375   0.421   6.046
12783TIP3    H138292   7.360   0.503   6.000
12783TIP3    H238293   7.387   0.356   5.977
12784TIP3   OH238294   5.594   2.276   5.442
12784TIP3    H138295   5.565   2.193   5.404
12784TIP3    H238296   5.665   2.305   5.385
12785TIP3   OH238297   3.196   5.955   2.645
12785TIP3    H138298   3.152   5.870   2.640
12785TIP3    H238299   3.148   6.003   2.713
12786TIP3   OH238300   0.650   0.944   2.564
12786TIP3    H138301   0.738   0.912   2.543
12786TIP3    H238302   0.599   0.865   2.581
12787TIP3   OH238303   4.880   6.898   2.901
12787TIP3    H138304   4.939   6.899   2.975
12787TIP3    H238305   4.809   6.958   2.926
12788TIP3   OH238306   5.391   6.698   1.828
12788TIP3    H138307   5.426   6.652   1.904
12788TIP3    H238308   5.321   6.753   1.864
12789TIP3   OH238309   6.215   4.225   6.312
12789TIP3    H138310   6.202   4.270   6.395
12789TIP3    H238311   6.304   4.247   6.286
12790TIP3   OH238312   5.466   0.718   3.343
12790TIP3    H138313   5.519   0.704   3.265
12790TIP3    H238314   5.385   0.758   3.310
12791TIP3   OH238315   4.015   5.607   0.096
12791TIP3    H138316   4.086   5.649   0.145
12791TIP3    H238317   4.059   5.570   0.018
12792TIP3   OH238318   7.624   0.883   6.665
12792TIP3    H138319   7.707   0.862   6.709
12792TIP3    H238320   7.650   0.922   6.581
12793TIP3   OH238321   3.694   0.154   3.392
12793TIP3    H138322   3.665   0.168   3.482
12793TIP3    H238323   3.749   0.075   3.397
12794TIP3   OH238324   3.683   3.942   3.665
12794TIP3    H138325   3.701   3.860   3.711
12794TIP3    H238326   3.611   3.920   3.605
12795TIP3   OH238327   5.492   6.871   3.682
12795TIP3    H138328   5.498   6.883   3.777
12795TIP3    H238329   5.539   6.946   3.646
12796TIP3   OH238330   2.632   5.463   2.222
12796TIP3    H138331   2.550   5.472   2.174
12796TIP3    H238332   2.696   5.436   2.156
12797TIP3   OH238333   7.084   2.690   1.566
12797TIP3    H138334   7.016   2.687   1.499
12797TIP3    H238335   7.038   2.666   1.647
12798TIP3   OH238336   2.519   3.243   2.073
12798TIP3    H138337   2.500   3.177   2.006
12798TIP3    H238338   2.614   3.237   2.084
12799TIP3   OH238339   7.063   1.687   3.656
12799TIP3    H138340   6.974   1.719   3.647
12799TIP3    H238341   7.118   1.765   3.645
12800TIP3   OH238342   1.222   0.752   5.835
12800TIP3    H138343   1.278   0.728   5.761
12800TIP3    H238344   1.243   0.843   5.853
12801TIP3   OH238345   2.580   7.400   1.464
12801TIP3    H138346   2.674   7.405   1.449
12801TIP3    H238347   2.571   7.352   1.546
12802TIP3   OH238348   5.693   6.155   2.321
12802TIP3    H138349   5.709   6.142   2.228
12802TIP3    H238350   5.605   6.122   2.336
12803TIP3   OH238351   6.965   3.906   5.063
12803TIP3    H138352   7.045   3.919   5.114
12803TIP3    H238353   6.901   3.877   5.128
12804TIP3   OH238354   5.278   2.946   3.439
12804TIP3    H138355   5.267   3.033   3.477
12804TIP3    H238356   5.204   2.937   3.379
12805TIP3   OH238357   4.599   1.811   2.981
12805TIP3    H138358   4.544   1.752   2.929
12805TIP3    H238359   4.636   1.871   2.918
12806TIP3   OH238360   4.106   2.892   3.595
12806TIP3    H138361   4.120   2.823   3.531
12806TIP3    H238362   4.188   2.897   3.644
12807TIP3   OH238363   3.776   7.093   5.805
12807TIP3    H138364   3.739   7.111   5.719
12807TIP3    H238365   3.789   7.180   5.845
12808TIP3   OH238366   6.192   1.868   0.769
12808TIP3    H138367   6.251   1.809   0.722
12808TIP3    H238368   6.181   1.943   0.711
12809TIP3   OH238369   3.910   7.637   4.651
12809TIP3    H138370   3.920   7.726   4.618
12809TIP3    H238371   3.997   7.614   4.685
12810TIP3   OH238372   1.612   3.765   5.281
12810TIP3    H138373   1.649   3.678   5.269
12810TIP3    H238374   1.529   3.763   5.235
12811TIP3   OH238375   4.900   4.696   2.054
12811TIP3    H138376   4.805   4.694   2.063
12811TIP3    H238377   4.928   4.774   2.102
12812TIP3   OH238378   4.511   2.412   5.237
12812TIP3    H138379   4.560   2.493   5.249
12812TIP3    H238380   4.490   2.410   5.144
12813TIP3   OH238381   4.553   4.789   3.560
12813TIP3    H138382   4.574   4.883   3.562
12813TIP3    H238383   4.507   4.776   3.477
12814TIP3   OH238384   8.222   4.983   2.195
12814TIP3    H138385   8.271   4.944   2.122
12814TIP3    H238386   8.163   4.913   2.224
12815TIP3   OH238387   4.544   4.777   2.660
12815TIP3    H138388   4.551   4.853   2.602
12815TIP3    H238389   4.450   4.768   2.677
12816TIP3   OH238390   8.255   6.246   0.049
12816TIP3    H138391   8.325   6.288   0.000
12816TIP3    H238392   8.232   6.308   0.118
12817TIP3   OH238393   5.861   1.354   6.332
12817TIP3    H138394   5.935   1.391   6.282
12817TIP3    H238395   5.887   1.366   6.424
12818TIP3   OH238396   7.848   6.726   0.408
12818TIP3    H138397   7.844   6.821   0.413
12818TIP3    H238398   7.855   6.706   0.315
12819TIP3   OH238399   7.073   1.107   2.250
12819TIP3    H138400   7.071   1.084   2.343
12819TIP3    H238401   7.111   1.030   2.207
12820TIP3   OH238402   1.711   6.144   1.106
12820TIP3    H138403   1.704   6.231   1.146
12820TIP3    H238404   1.716   6.084   1.180
12821TIP3   OH238405   4.951   0.329   6.489
12821TIP3    H138406   4.887   0.260   6.507
12821TIP3    H238407   4.938   0.350   6.396
12822TIP3   OH238408   6.221   4.332   0.541
12822TIP3    H138409   6.222   4.394   0.468
12822TIP3    H238410   6.309   4.294   0.541
12823TIP3   OH238411   6.115   5.986   0.783
12823TIP3    H138412   6.171   6.001   0.859
12823TIP3    H238413   6.173   5.951   0.716
12824TIP3   OH238414   7.019   1.600   3.918
12824TIP3    H138415   7.051   1.620   3.830
12824TIP3    H238416   7.073   1.654   3.975
12825TIP3   OH238417   7.776   7.692   2.153
12825TIP3    H138418   7.713   7.749   2.198
12825TIP3    H238419   7.727   7.652   2.082
12826TIP3   OH238420   8.275   1.332   3.822
12826TIP3    H138421   8.235   1.261   3.773
12826TIP3    H238422   8.337   1.288   3.881
12827TIP3   OH238423   4.560   4.381   4.279
12827TIP3    H138424   4.546   4.313   4.344
12827TIP3    H238425   4.580   4.334   4.198
12828TIP3   OH238426   6.208   2.820   5.372
12828TIP3    H138427   6.148   2.747   5.385
12828TIP3    H238428   6.236   2.844   5.460
12829TIP3   OH238429   1.670   5.743   2.081
12829TIP3    H138430   1.638   5.658   2.112
12829TIP3    H238431   1.700   5.727   1.992
12830TIP3   OH238432   1.414   7.366   0.529
12830TIP3    H138433   1.372   7.281   0.524
12830TIP3    H238434   1.356   7.425   0.481
12831TIP3   OH238435   8.025   7.840   0.486
12831TIP3    H138436   8.023   7.745   0.502
12831TIP3    H238437   8.079   7.850   0.408
12832TIP3   OH238438   6.864   6.366   1.918
12832TIP3    H138439   6.827   6.313   1.847
12832TIP3    H238440   6.795   6.429   1.938
12833TIP3   OH238441   6.722   2.199   5.172
12833TIP3    H138442   6.659   2.161   5.111
12833TIP3    H238443   6.786   2.130   5.187
12834TIP3   OH238444   7.342   4.048   4.325
12834TIP3    H138445   7.360   3.955   4.341
12834TIP3    H238446   7.326   4.085   4.412
12835TIP3   OH238447   0.793   3.143   1.827
12835TIP3    H138448   0.792   3.059   1.872
12835TIP3    H238449   0.720   3.192   1.865
12836TIP3   OH238450   2.473   1.125   0.153
12836TIP3    H138451   2.410   1.125   0.225
12836TIP3    H238452   2.461   1.210   0.111
12837TIP3   OH238453   3.359   0.420   2.743
12837TIP3    H138454   3.353   0.367   2.664
12837TIP3    H238455   3.335   0.360   2.814
12838TIP3   OH238456   7.204   7.564   5.814
12838TIP3    H138457   7.187   7.658   5.822
12838TIP3    H238458   7.289   7.551   5.854
12839TIP3   OH238459   7.593   6.530   3.209
12839TIP3    H138460   7.669   6.530   3.268
12839TIP3    H238461   7.623   6.483   3.131
12840TIP3   OH238462   0.112   0.255   4.369
12840TIP3    H138463   0.049   0.188   4.344
12840TIP3    H238464   0.059   0.329   4.399
12841TIP3   OH238465   5.035   1.953   2.824
12841TIP3    H138466   4.960   1.932   2.880
12841TIP3    H238467   5.021   2.045   2.799
12842TIP3   OH238468   0.162   4.268   1.241
12842TIP3    H138469   0.220   4.319   1.184
12842TIP3    H238470   0.085   4.251   1.187
12843TIP3   OH238471   5.888   6.713   1.334
12843TIP3    H138472   5.841   6.679   1.410
12843TIP3    H238473   5.976   6.734   1.367
12844TIP3   OH238474   3.743   1.200   4.620
12844TIP3    H138475   3.838   1.193   4.615
12844TIP3    H238476   3.720   1.154   4.701
12845TIP3   OH238477   7.227   1.084   2.542
12845TIP3    H138478   7.265   0.997   2.552
12845TIP3    H238479   7.289   1.131   2.485
12846TIP3   OH238480   6.427   6.759   3.498
12846TIP3    H138481   6.485   6.835   3.500
12846TIP3    H238482   6.482   6.686   3.526
12847TIP3   OH238483   0.700   7.573   6.391
12847TIP3    H138484   0.706   7.638   6.322
12847TIP3    H238485   0.744   7.495   6.356
12848TIP3   OH238486   0.979   7.439   6.031
12848TIP3    H138487   0.995   7.524   5.991
12848TIP3    H238488   0.896   7.449   6.077
12849TIP3   OH238489   7.945   6.827   4.538
12849TIP3    H138490   7.982   6.779   4.612
12849TIP3    H238491   7.927   6.915   4.573
12850TIP3   OH238492   6.344   0.766   3.992
12850TIP3    H138493   6.375   0.765   3.902
12850TIP3    H238494   6.253   0.794   3.986
12851TIP3   OH238495   7.192   6.407   2.681
12851TIP3    H138496   7.135   6.404   2.605
12851TIP3    H238497   7.152   6.472   2.739
12852TIP3   OH238498   6.182   6.071   4.266
12852TIP3    H138499   6.207   6.161   4.285
12852TIP3    H238500   6.265   6.026   4.251
12853TIP3   OH238501   5.975   0.951   0.896
12853TIP3    H138502   5.931   0.905   0.825
12853TIP3    H238503   6.058   0.980   0.857
12854TIP3   OH238504   6.744   6.092   3.618
12854TIP3    H138505   6.652   6.077   3.595
12854TIP3    H238506   6.743   6.173   3.668
12855TIP3   OH238507   0.251   1.265   1.676
12855TIP3    H138508   0.241   1.264   1.581
12855TIP3    H238509   0.344   1.246   1.691
12856TIP3   OH238510   0.761   5.146   0.865
12856TIP3    H138511   0.856   5.158   0.871
12856TIP3    H238512   0.735   5.196   0.788
12857TIP3   OH238513   5.465   3.295   4.076
12857TIP3    H138514   5.552   3.287   4.117
12857TIP3    H238515   5.461   3.223   4.013
12858TIP3   OH238516   3.510   2.780   3.928
12858TIP3    H138517   3.424   2.760   3.965
12858TIP3    H238518   3.537   2.700   3.883
12859TIP3   OH238519   0.053   7.616   6.174
12859TIP3    H138520   0.114   7.542   6.167
12859TIP3    H238521   0.035   7.623   6.268
12860TIP3   OH238522   5.889   0.448   1.969
12860TIP3    H138523   5.821   0.488   2.024
12860TIP3    H238524   5.946   0.522   1.946
12861TIP3   OH238525   0.520   4.394   1.800
12861TIP3    H138526   0.488   4.334   1.734
12861TIP3    H238527   0.443   4.417   1.852
12862TIP3   OH238528   6.719   1.252   0.689
12862TIP3    H138529   6.723   1.292   0.776
12862TIP3    H238530   6.795   1.194   0.686
12863TIP3   OH238531   5.667   1.017   2.652
12863TIP3    H138532   5.657   0.970   2.735
12863TIP3    H238533   5.750   1.064   2.661
12864TIP3   OH238534   2.860   6.359   5.566
12864TIP3    H138535   2.845   6.441   5.520
12864TIP3    H238536   2.792   6.300   5.534
12865TIP3   OH238537   0.526   5.104   1.223
12865TIP3    H138538   0.544   5.040   1.292
12865TIP3    H238539   0.476   5.055   1.158
12866TIP3   OH238540   4.358   7.271   3.569
12866TIP3    H138541   4.292   7.339   3.575
12866TIP3    H238542   4.409   7.281   3.650
12867TIP3   OH238543   5.446   0.493   6.097
12867TIP3    H138544   5.418   0.582   6.077
12867TIP3    H238545   5.524   0.503   6.151
12868TIP3   OH238546   7.376   5.641   4.099
12868TIP3    H138547   7.404   5.725   4.060
12868TIP3    H238548   7.322   5.601   4.031
12869TIP3   OH238549   5.846   3.600   5.324
12869TIP3    H138550   5.787   3.639   5.388
12869TIP3    H238551   5.906   3.547   5.376
12870TIP3   OH238552   3.049   0.713   1.536
12870TIP3    H138553   2.960   0.680   1.542
12870TIP3    H238554   3.072   0.703   1.443
12871TIP3   OH238555   8.270   1.391   1.543
12871TIP3    H138556   8.215   1.422   1.471
12871TIP3    H238557   8.360   1.409   1.515
12872TIP3   OH238558   7.935   5.515   3.755
12872TIP3    H138559   7.944   5.422   3.733
12872TIP3    H238560   7.920   5.559   3.672
12873TIP3   OH238561   3.322   1.340   5.850
12873TIP3    H138562   3.243   1.374   5.810
12873TIP3    H238563   3.375   1.309   5.777
12874TIP3   OH238564   6.029   4.253   2.223
12874TIP3    H138565   5.989   4.173   2.258
12874TIP3    H238566   6.062   4.299   2.300
12875TIP3   OH238567   2.742   2.650   2.522
12875TIP3    H138568   2.822   2.600   2.507
12875TIP3    H238569   2.696   2.601   2.590
12876TIP3   OH238570   8.279   3.123   0.657
12876TIP3    H138571   8.271   3.120   0.561
12876TIP3    H238572   8.284   3.217   0.677
12877TIP3   OH238573   6.902   6.064   6.532
12877TIP3    H138574   6.924   6.155   6.515
12877TIP3    H238575   6.908   6.021   6.446
12878TIP3   OH238576   6.605   4.570   5.136
12878TIP3    H138577   6.530   4.515   5.158
12878TIP3    H238578   6.568   4.648   5.096
12879TIP3   OH238579   4.172   6.312   4.363
12879TIP3    H138580   4.233   6.282   4.295
12879TIP3    H238581   4.091   6.332   4.315
12880TIP3   OH238582   1.793   3.305   5.659
12880TIP3    H138583   1.776   3.261   5.576
12880TIP3    H238584   1.784   3.398   5.640
12881TIP3   OH238585   6.847   1.789   3.566
12881TIP3    H138586   6.822   1.723   3.501
12881TIP3    H238587   6.831   1.873   3.523
12882TIP3   OH238588   0.498   2.889   0.942
12882TIP3    H138589   0.466   2.799   0.931
12882TIP3    H238590   0.486   2.907   1.035
12883TIP3   OH238591   0.584   4.143   5.788
12883TIP3    H138592   0.583   4.047   5.783
12883TIP3    H238593   0.663   4.163   5.837
12884TIP3   OH238594   6.757   3.863   0.621
12884TIP3    H138595   6.690   3.894   0.681
12884TIP3    H238596   6.727   3.776   0.593
12885TIP3   OH238597   5.704   2.112   6.672
12885TIP3    H138598   5.728   2.020   6.661
12885TIP3    H238599   5.784   2.154   6.703
12886TIP3   OH238600   6.668   5.583   4.628
12886TIP3    H138601   6.611   5.658   4.647
12886TIP3    H238602   6.749   5.603   4.675
12887TIP3   OH238603   1.712   1.021   1.545
12887TIP3    H138604   1.804   1.016   1.570
12887TIP3    H238605   1.664   1.009   1.627
12888TIP3   OH238606   7.772   7.491   5.184
12888TIP3    H138607   7.838   7.556   5.209
12888TIP3    H238608   7.689   7.539   5.183
12889TIP3   OH238609   2.417   2.114   2.758
12889TIP3    H138610   2.457   2.028   2.744
12889TIP3    H238611   2.370   2.132   2.676
12890TIP3   OH238612   6.003   6.369   6.057
12890TIP3    H138613   6.006   6.273   6.060
12890TIP3    H238614   6.010   6.390   5.964
12891TIP3   OH238615   6.918   6.873   5.883
12891TIP3    H138616   6.964   6.896   5.802
12891TIP3    H238617   6.980   6.895   5.952
12892TIP3   OH238618   0.633   3.584   1.261
12892TIP3    H138619   0.543   3.589   1.293
12892TIP3    H238620   0.651   3.671   1.227
12893TIP3   OH238621   6.660   0.206   4.696
12893TIP3    H138622   6.613   0.283   4.665
12893TIP3    H238623   6.726   0.241   4.756
12894TIP3   OH238624   2.660   2.821   1.950
12894TIP3    H138625   2.629   2.732   1.936
12894TIP3    H238626   2.703   2.819   2.035
12895TIP3   OH238627   6.550   5.377   6.572
12895TIP3    H138628   6.573   5.319   6.645
12895TIP3    H238629   6.459   5.400   6.588
12896TIP3   OH238630   3.945   1.079   3.425
12896TIP3    H138631   4.008   1.090   3.354
12896TIP3    H238632   3.873   1.137   3.403
12897TIP3   OH238633   4.559   1.004   6.150
12897TIP3    H138634   4.485   0.952   6.179
12897TIP3    H238635   4.610   0.946   6.094
12898TIP3   OH238636   1.366   0.223   1.909
12898TIP3    H138637   1.323   0.223   1.994
12898TIP3    H238638   1.306   0.174   1.852
12899TIP3   OH238639   5.912   2.587   6.303
12899TIP3    H138640   5.952   2.565   6.219
12899TIP3    H238641   5.976   2.643   6.347
12900TIP3   OH238642   5.849   1.860   2.593
12900TIP3    H138643   5.772   1.824   2.550
12900TIP3    H238644   5.920   1.799   2.570
12901TIP3   OH238645   2.225   7.443   5.347
12901TIP3    H138646   2.273   7.509   5.396
12901TIP3    H238647   2.148   7.489   5.313
12902TIP3   OH238648   5.372   1.283   6.095
12902TIP3    H138649   5.337   1.294   6.006
12902TIP3    H238650   5.402   1.193   6.098
12903TIP3   OH238651   4.722   0.314   1.708
12903TIP3    H138652   4.797   0.313   1.649
12903TIP3    H238653   4.737   0.389   1.765
12904TIP3   OH238654   4.284   1.640   3.810
12904TIP3    H138655   4.241   1.586   3.743
12904TIP3    H238656   4.368   1.665   3.770
12905TIP3   OH238657   3.517   3.637   2.668
12905TIP3    H138658   3.480   3.565   2.617
12905TIP3    H238659   3.611   3.635   2.648
12906TIP3   OH238660   0.106   7.572   0.120
12906TIP3    H138661   0.136   7.653   0.079
12906TIP3    H238662   0.049   7.601   0.191
12907TIP3   OH238663   0.956   5.903   1.802
12907TIP3    H138664   0.868   5.936   1.822
12907TIP3    H238665   0.944   5.809   1.788
12908TIP3   OH238666   0.102   7.196   4.877
12908TIP3    H138667   0.130   7.140   4.804
12908TIP3    H238668   0.180   7.247   4.899
12909TIP3   OH238669   3.741   3.314   0.679
12909TIP3    H138670   3.817   3.292   0.625
12909TIP3    H238671   3.716   3.231   0.720
12910TIP3   OH238672   2.507   3.153   0.918
12910TIP3    H138673   2.459   3.131   0.998
12910TIP3    H238674   2.441   3.183   0.856
12911TIP3   OH238675   0.087   1.722   4.547
12911TIP3    H138676   0.097   1.679   4.632
12911TIP3    H238677   0.054   1.809   4.568
12912TIP3   OH238678   7.693   2.677   3.336
12912TIP3    H138679   7.773   2.625   3.346
12912TIP3    H238680   7.698   2.710   3.246
12913TIP3   OH238681   4.532   5.694   5.408
12913TIP3    H138682   4.590   5.766   5.436
12913TIP3    H238683   4.473   5.681   5.482
12914TIP3   OH238684   6.501   2.767   0.303
12914TIP3    H138685   6.556   2.840   0.276
12914TIP3    H238686   6.483   2.783   0.396
12915TIP3   OH238687   6.927   4.326   5.972
12915TIP3    H138688   6.854   4.378   6.007
12915TIP3    H238689   6.972   4.386   5.913
12916TIP3   OH238690   5.854   1.711   2.852
12916TIP3    H138691   5.811   1.638   2.807
12916TIP3    H238692   5.847   1.784   2.791
12917TIP3   OH238693   7.207   4.264   1.745
12917TIP3    H138694   7.251   4.188   1.785
12917TIP3    H238695   7.155   4.227   1.675
12918TIP3   OH238696   1.119   6.436   5.171
12918TIP3    H138697   1.109   6.523   5.208
12918TIP3    H238698   1.108   6.448   5.077
12919TIP3   OH238699   0.464   3.718   2.839
12919TIP3    H138700   0.405   3.761   2.900
12919TIP3    H238701   0.547   3.710   2.887
12920TIP3   OH238702   2.468   3.113   6.412
12920TIP3    H138703   2.436   3.075   6.330
12920TIP3    H238704   2.478   3.038   6.471
12921TIP3   OH238705   6.218   7.680   5.380
12921TIP3    H138706   6.156   7.674   5.452
12921TIP3    H238707   6.236   7.774   5.372
12922TIP3   OH238708   0.408   5.132   0.504
12922TIP3    H138709   0.481   5.174   0.548
12922TIP3    H238710   0.447   5.065   0.449
12923TIP3   OH238711   0.882   1.382   1.466
12923TIP3    H138712   0.889   1.288   1.480
12923TIP3    H238713   0.958   1.419   1.510
12924TIP3   OH238714   4.866   1.232   2.795
12924TIP3    H138715   4.882   1.217   2.702
12924TIP3    H238716   4.819   1.154   2.824
12925TIP3   OH238717   1.826   6.290   1.758
12925TIP3    H138718   1.905   6.339   1.739
12925TIP3    H238719   1.776   6.291   1.676
12926TIP3   OH238720   5.620   5.047   0.864
12926TIP3    H138721   5.598   5.063   0.772
12926TIP3    H238722   5.556   4.983   0.893
12927TIP3   OH238723   1.962   2.336   5.421
12927TIP3    H138724   1.871   2.313   5.400
12927TIP3    H238725   1.959   2.361   5.514
12928TIP3   OH238726   3.931   2.972   4.763
12928TIP3    H138727   3.940   2.920   4.683
12928TIP3    H238728   4.020   2.998   4.785
12929TIP3   OH238729   1.134   5.760   1.033
12929TIP3    H138730   1.084   5.819   1.088
12929TIP3    H238731   1.201   5.724   1.092
12930TIP3   OH238732   6.516   1.333   5.254
12930TIP3    H138733   6.452   1.395   5.291
12930TIP3    H238734   6.470   1.250   5.252
12931TIP3   OH238735   0.056   2.926   3.159
12931TIP3    H138736  -0.028   2.885   3.138
12931TIP3    H238737   0.043   2.965   3.245
12932TIP3   OH238738   3.921   3.215   0.488
12932TIP3    H138739   3.954   3.252   0.406
12932TIP3    H238740   3.888   3.128   0.463
12933TIP3   OH238741   5.206   7.419   1.869
12933TIP3    H138742   5.171   7.506   1.855
12933TIP3    H238743   5.180   7.369   1.792
12934TIP3   OH238744   8.059   4.746   2.877
12934TIP3    H138745   8.115   4.675   2.909
12934TIP3    H238746   8.100   4.825   2.913
12935TIP3   OH238747   4.391   6.907   2.779
12935TIP3    H138748   4.477   6.865   2.777
12935TIP3    H238749   4.363   6.900   2.870
12936TIP3   OH238750   4.992   4.917   2.199
12936TIP3    H138751   5.006   4.923   2.294
12936TIP3    H238752   4.917   4.973   2.182
12937TIP3   OH238753   4.070   0.839   4.621
12937TIP3    H138754   4.111   0.767   4.670
12937TIP3    H238755   4.101   0.918   4.664
12938TIP3   OH238756   6.880   5.045   5.629
12938TIP3    H138757   6.922   5.016   5.710
12938TIP3    H238758   6.944   5.102   5.587
12939TIP3   OH238759   5.782   6.825   5.905
12939TIP3    H138760   5.806   6.900   5.960
12939TIP3    H238761   5.764   6.754   5.967
12940TIP3   OH238762   5.708   2.889   1.806
12940TIP3    H138763   5.790   2.865   1.849
12940TIP3    H238764   5.659   2.937   1.872
12941TIP3   OH238765   1.460   4.202   4.926
12941TIP3    H138766   1.447   4.145   4.850
12941TIP3    H238767   1.429   4.288   4.895
12942TIP3   OH238768   7.660   6.327   1.340
12942TIP3    H138769   7.705   6.245   1.318
12942TIP3    H238770   7.578   6.299   1.380
12943TIP3   OH238771   6.610   5.027   3.502
12943TIP3    H138772   6.530   5.019   3.450
12943TIP3    H238773   6.640   5.116   3.486
12944TIP3   OH238774   7.121   2.002   4.911
12944TIP3    H138775   7.196   1.942   4.920
12944TIP3    H238776   7.125   2.031   4.820
12945TIP3   OH238777   0.619   5.873   1.051
12945TIP3    H138778   0.635   5.861   0.957
12945TIP3    H238779   0.706   5.872   1.091
12946TIP3   OH238780   3.430   6.143   2.605
12946TIP3    H138781   3.394   6.057   2.585
12946TIP3    H238782   3.363   6.186   2.659
12947TIP3   OH238783   4.718   6.605   2.005
12947TIP3    H138784   4.710   6.509   2.008
12947TIP3    H238785   4.721   6.625   1.912
12948TIP3   OH238786   3.383   4.354   1.199
12948TIP3    H138787   3.378   4.312   1.113
12948TIP3    H238788   3.343   4.440   1.185
12949TIP3   OH238789   0.537   6.758   3.043
12949TIP3    H138790   0.554   6.704   3.120
12949TIP3    H238791   0.441   6.764   3.038
12950TIP3   OH238792   4.088   5.700   2.190
12950TIP3    H138793   4.173   5.730   2.222
12950TIP3    H238794   4.047   5.778   2.152
12951TIP3   OH238795   2.230   0.353   4.797
12951TIP3    H138796   2.261   0.441   4.819
12951TIP3    H238797   2.178   0.327   4.873
12952TIP3   OH238798   0.898   4.012   2.418
12952TIP3    H138799   0.836   3.949   2.381
12952TIP3    H238800   0.928   3.972   2.499
12953TIP3   OH238801   3.626   5.657   0.362
12953TIP3    H138802   3.642   5.749   0.385
12953TIP3    H238803   3.666   5.607   0.434
12954TIP3   OH238804   0.694   6.628   4.491
12954TIP3    H138805   0.710   6.719   4.467
12954TIP3    H238806   0.599   6.619   4.490
12955TIP3   OH238807   7.881   4.347   1.928
12955TIP3    H138808   7.862   4.417   1.991
12955TIP3    H238809   7.899   4.392   1.846
12956TIP3   OH238810   2.219   6.255   1.538
12956TIP3    H138811   2.306   6.235   1.503
12956TIP3    H238812   2.228   6.243   1.633
12957TIP3   OH238813   5.734   2.204   4.667
12957TIP3    H138814   5.726   2.252   4.584
12957TIP3    H238815   5.717   2.113   4.643
12958TIP3   OH238816   1.188   5.895   6.069
12958TIP3    H138817   1.131   5.945   6.011
12958TIP3    H238818   1.177   5.804   6.042
12959TIP3   OH238819   6.024   1.394   1.749
12959TIP3    H138820   6.006   1.486   1.730
12959TIP3    H238821   6.091   1.369   1.685
12960TIP3   OH238822   6.274   6.801   4.239
12960TIP3    H138823   6.360   6.791   4.280
12960TIP3    H238824   6.260   6.718   4.193
12961TIP3   OH238825   2.286   4.042   5.674
12961TIP3    H138826   2.268   4.049   5.768
12961TIP3    H238827   2.320   4.128   5.650
12962TIP3   OH238828   4.997   3.010   2.201
12962TIP3    H138829   5.016   2.984   2.111
12962TIP3    H238830   4.903   2.999   2.210
12963TIP3   OH238831   3.337   7.564   5.979
12963TIP3    H138832   3.396   7.561   5.904
12963TIP3    H238833   3.348   7.652   6.014
12964TIP3   OH238834   6.213   2.205   5.952
12964TIP3    H138835   6.198   2.234   5.862
12964TIP3    H238836   6.141   2.143   5.969
12965TIP3   OH238837   3.264   6.298   3.718
12965TIP3    H138838   3.355   6.315   3.743
12965TIP3    H238839   3.232   6.236   3.784
12966TIP3   OH238840   0.267   3.727   5.473
12966TIP3    H138841   0.295   3.755   5.386
12966TIP3    H238842   0.319   3.779   5.533
12967TIP3   OH238843   7.558   1.637   0.452
12967TIP3    H138844   7.503   1.559   0.465
12967TIP3    H238845   7.565   1.647   0.358
12968TIP3   OH238846   0.372   1.493   5.231
12968TIP3    H138847   0.461   1.479   5.198
12968TIP3    H238848   0.379   1.573   5.284
12969TIP3   OH238849   1.977   2.284   0.986
12969TIP3    H138850   2.032   2.219   0.942
12969TIP3    H238851   2.035   2.327   1.048
12970TIP3   OH238852   3.486   5.991   1.490
12970TIP3    H138853   3.391   6.002   1.495
12970TIP3    H238854   3.521   6.077   1.509
12971TIP3   OH238855   2.182   7.719   3.418
12971TIP3    H138856   2.086   7.718   3.427
12971TIP3    H238857   2.214   7.672   3.495
12972TIP3   OH238858   1.779   4.248   6.003
12972TIP3    H138859   1.837   4.262   5.928
12972TIP3    H238860   1.695   4.224   5.964
12973TIP3   OH238861   5.031   4.072   1.521
12973TIP3    H138862   5.083   4.138   1.475
12973TIP3    H238863   5.067   4.072   1.610
12974TIP3   OH238864   4.480   2.197   1.685
12974TIP3    H138865   4.553   2.181   1.746
12974TIP3    H238866   4.402   2.195   1.740
12975TIP3   OH238867   2.195   0.564   0.069
12975TIP3    H138868   2.192   0.615   0.150
12975TIP3    H238869   2.158   0.478   0.093
12976TIP3   OH238870   1.931   0.005   5.615
12976TIP3    H138871   1.835   0.003   5.608
12976TIP3    H238872   1.952   0.098   5.617
12977TIP3   OH238873   8.204   5.648   3.418
12977TIP3    H138874   8.265   5.606   3.478
12977TIP3    H238875   8.204   5.740   3.445
12978TIP3   OH238876   3.936   1.056   0.805
12978TIP3    H138877   3.899   1.106   0.878
12978TIP3    H238878   3.920   0.964   0.829
12979TIP3   OH238879   2.998   1.595   2.598
12979TIP3    H138880   2.977   1.684   2.571
12979TIP3    H238881   3.057   1.562   2.530
12980TIP3   OH238882   7.444   7.077   5.908
12980TIP3    H138883   7.524   7.105   5.864
12980TIP3    H238884   7.388   7.155   5.909
12981TIP3   OH238885   2.131   3.671   3.492
12981TIP3    H138886   2.091   3.738   3.548
12981TIP3    H238887   2.056   3.625   3.454
12982TIP3   OH238888   4.367   4.869   4.085
12982TIP3    H138889   4.301   4.802   4.067
12982TIP3    H238890   4.391   4.904   3.999
12983TIP3   OH238891   8.173   4.535   0.990
12983TIP3    H138892   8.255   4.584   0.988
12983TIP3    H238893   8.164   4.499   0.901
12984TIP3   OH238894   0.788   5.556   3.955
12984TIP3    H138895   0.817   5.466   3.943
12984TIP3    H238896   0.740   5.577   3.875
12985TIP3   OH238897   6.626   4.702   0.003
12985TIP3    H138898   6.720   4.718  -0.003
12985TIP3    H238899   6.618   4.608   0.015
12986TIP3   OH238900   1.571   7.496   0.720
12986TIP3    H138901   1.507   7.481   0.651
12986TIP3    H238902   1.561   7.589   0.742
12987TIP3   OH238903   6.762   4.918   5.056
12987TIP3    H138904   6.772   4.831   5.019
12987TIP3    H238905   6.670   4.923   5.082
12988TIP3   OH238906   2.716   4.179   2.899
12988TIP3    H138907   2.805   4.200   2.924
12988TIP3    H238908   2.713   4.083   2.898
12989TIP3   OH238909   7.048   0.112   1.350
12989TIP3    H138910   7.141   0.092   1.338
12989TIP3    H238911   7.047   0.178   1.420
12990TIP3   OH238912   2.971   5.065   0.325
12990TIP3    H138913   2.940   4.981   0.289
12990TIP3    H238914   2.992   5.045   0.416
12991TIP3   OH238915   8.169   7.586   5.366
12991TIP3    H138916   8.247   7.632   5.334
12991TIP3    H238917   8.205   7.513   5.417
12992TIP3   OH238918   2.621   6.907   0.552
12992TIP3    H138919   2.683   6.942   0.617
12992TIP3    H238920   2.555   6.976   0.543
12993TIP3   OH238921   4.047   4.304   5.509
12993TIP3    H138922   3.966   4.289   5.460
12993TIP3    H238923   4.040   4.394   5.540
12994TIP3   OH238924   6.208   7.185   2.970
12994TIP3    H138925   6.180   7.110   3.022
12994TIP3    H238926   6.286   7.155   2.924
12995TIP3   OH238927   8.240   2.752   5.398
12995TIP3    H138928   8.148   2.763   5.373
12995TIP3    H238929   8.289   2.781   5.321
12996TIP3   OH238930   2.792   7.313   0.693
12996TIP3    H138931   2.851   7.269   0.632
12996TIP3    H238932   2.817   7.281   0.779
12997TIP3   OH238933   1.541   6.229   4.221
12997TIP3    H138934   1.480   6.209   4.293
12997TIP3    H238935   1.495   6.200   4.142
12998TIP3   OH238936   3.497   0.875   2.714
12998TIP3    H138937   3.418   0.925   2.737
12998TIP3    H238938   3.487   0.792   2.761
12999TIP3   OH238939   7.701   6.167   5.232
12999TIP3    H138940   7.609   6.140   5.227
12999TIP3    H238941   7.742   6.099   5.285
13000TIP3   OH238942   8.262   5.576   0.602
13000TIP3    H138943   8.219   5.532   0.674
13000TIP3    H238944   8.348   5.533   0.595
13001TIP3   OH238945   4.904   2.539   3.298
13001TIP3    H138946   4.879   2.496   3.216
13001TIP3    H238947   4.911   2.468   3.362
13002TIP3   OH238948   6.475   3.463   1.639
13002TIP3    H138949   6.512   3.538   1.685
13002TIP3    H238950   6.536   3.445   1.567
13003TIP3   OH238951   0.038   3.929   4.229
13003TIP3    H138952  -0.027   3.959   4.293
13003TIP3    H238953   0.060   3.840   4.257
13004TIP3   OH238954   5.790   6.911   4.249
13004TIP3    H138955   5.788   7.004   4.273
13004TIP3    H238956   5.762   6.865   4.328
13005TIP3   OH238957   2.168   7.518   4.152
13005TIP3    H138958   2.126   7.590   4.105
13005TIP3    H238959   2.262   7.540   4.151
13006TIP3   OH238960   1.949   5.535   4.512
13006TIP3    H138961   1.952   5.450   4.556
13006TIP3    H238962   2.028   5.581   4.542
13007TIP3   OH238963   2.180   2.893   6.332
13007TIP3    H138964   2.148   2.819   6.279
13007TIP3    H238965   2.256   2.925   6.284
13008TIP3   OH238966   8.194   6.814   6.769
13008TIP3    H138967   8.222   6.762   6.845
13008TIP3    H238968   8.144   6.752   6.715
13009TIP3   OH238969   2.379   1.073   3.717
13009TIP3    H138970   2.301   1.069   3.773
13009TIP3    H238971   2.444   1.118   3.769
13010TIP3   OH238972   5.472   5.340   3.096
13010TIP3    H138973   5.486   5.352   3.190
13010TIP3    H238974   5.378   5.346   3.085
13011TIP3   OH238975   2.769   7.000   6.193
13011TIP3    H138976   2.757   7.010   6.098
13011TIP3    H238977   2.853   7.042   6.210
13012TIP3   OH238978   6.819   1.741   1.862
13012TIP3    H138979   6.885   1.678   1.889
13012TIP3    H238980   6.744   1.724   1.920
13013TIP3   OH238981   3.523   4.692   0.203
13013TIP3    H138982   3.601   4.734   0.166
13013TIP3    H238983   3.466   4.677   0.127
13014TIP3   OH238984   2.378   2.981   6.186
13014TIP3    H138985   2.353   3.056   6.132
13014TIP3    H238986   2.414   2.918   6.123
13015TIP3   OH238987   4.708   1.228   1.428
13015TIP3    H138988   4.619   1.247   1.458
13015TIP3    H238989   4.746   1.313   1.409
13016TIP3   OH238990   7.462   2.117   3.693
13016TIP3    H138991   7.458   2.062   3.771
13016TIP3    H238992   7.486   2.057   3.622
13017TIP3   OH238993   6.325   4.839   5.913
13017TIP3    H138994   6.269   4.777   5.958
13017TIP3    H238995   6.282   4.854   5.828
13018TIP3   OH238996   2.802   7.460   5.629
13018TIP3    H138997   2.817   7.381   5.578
13018TIP3    H238998   2.768   7.429   5.713
13019TIP3   OH238999   0.433   4.137   5.230
13019TIP3    H139000   0.520   4.171   5.208
13019TIP3    H239001   0.436   4.123   5.325
13020TIP3   OH239002   0.968   5.539   3.666
13020TIP3    H139003   0.891   5.595   3.664
13020TIP3    H239004   0.934   5.450   3.672
13021TIP3   OH239005   0.752   3.400   1.103
13021TIP3    H139006   0.707   3.427   1.023
13021TIP3    H239007   0.724   3.463   1.170
13022TIP3   OH239008   3.440   3.155   0.452
13022TIP3    H139009   3.448   3.061   0.432
13022TIP3    H239010   3.465   3.162   0.544
13023TIP3   OH239011   0.868   3.142   3.499
13023TIP3    H139012   0.857   3.223   3.450
13023TIP3    H239013   0.873   3.074   3.431
13024TIP3   OH239014   6.490   5.120   0.282
13024TIP3    H139015   6.453   5.040   0.244
13024TIP3    H239016   6.415   5.180   0.288
13025TIP3   OH239017   0.700   3.317   5.777
13025TIP3    H139018   0.775   3.370   5.750
13025TIP3    H239019   0.735   3.228   5.786
13026TIP3   OH239020   8.196   0.781   0.198
13026TIP3    H139021   8.230   0.830   0.273
13026TIP3    H239022   8.104   0.766   0.220
13027TIP3   OH239023   0.868   4.106   5.240
13027TIP3    H139024   0.841   4.140   5.325
13027TIP3    H239025   0.816   4.157   5.177
13028TIP3   OH239026   1.758   1.503   4.315
13028TIP3    H139027   1.711   1.552   4.247
13028TIP3    H239028   1.690   1.472   4.374
13029TIP3   OH239029   3.159   1.524   1.900
13029TIP3    H139030   3.172   1.430   1.914
13029TIP3    H239031   3.143   1.533   1.806
13030TIP3   OH239032   3.397   3.861   4.305
13030TIP3    H139033   3.422   3.777   4.265
13030TIP3    H239034   3.479   3.911   4.309
13031TIP3   OH239035   7.224   7.674   5.099
13031TIP3    H139036   7.161   7.619   5.053
13031TIP3    H239037   7.288   7.698   5.031
13032TIP3   OH239038   7.948   2.282   5.007
13032TIP3    H139039   8.024   2.274   5.064
13032TIP3    H239040   7.955   2.369   4.969
13033TIP3   OH239041   4.887   6.480   6.626
13033TIP3    H139042   4.837   6.557   6.599
13033TIP3    H239043   4.866   6.413   6.561
13034TIP3   OH239044   5.425   2.662   1.073
13034TIP3    H139045   5.434   2.570   1.051
13034TIP3    H239046   5.443   2.708   0.991
13035TIP3   OH239047   1.447   0.415   4.008
13035TIP3    H139048   1.384   0.353   3.972
13035TIP3    H239049   1.410   0.441   4.092
13036TIP3   OH239050   0.832   0.070   5.727
13036TIP3    H139051   0.872  -0.004   5.773
13036TIP3    H239052   0.741   0.069   5.756
13037TIP3   OH239053   2.179   0.559   2.589
13037TIP3    H139054   2.107   0.496   2.583
13037TIP3    H239055   2.257   0.505   2.604
13038TIP3   OH239056   5.135   0.011   0.792
13038TIP3    H139057   5.133  -0.001   0.697
13038TIP3    H239058   5.229   0.016   0.813
13039TIP3   OH239059   4.715   1.332   3.713
13039TIP3    H139060   4.797   1.381   3.705
13039TIP3    H239061   4.733   1.248   3.671
13040TIP3   OH239062   6.228   5.989   1.035
13040TIP3    H139063   6.173   5.970   1.110
13040TIP3    H239064   6.318   5.980   1.068
13041TIP3   OH239065   3.341   1.503   4.781
13041TIP3    H139066   3.370   1.445   4.851
13041TIP3    H239067   3.374   1.462   4.701
13042TIP3   OH239068   6.957   6.163   5.276
13042TIP3    H139069   6.866   6.151   5.301
13042TIP3    H239070   6.977   6.255   5.297
13043TIP3   OH239071   5.467   1.150   2.421
13043TIP3    H139072   5.442   1.211   2.352
13043TIP3    H239073   5.432   1.065   2.392
13044TIP3   OH239074   2.652   2.664   0.841
13044TIP3    H139075   2.573   2.617   0.814
13044TIP3    H239076   2.626   2.756   0.841
13045TIP3   OH239077   1.904   0.116   1.439
13045TIP3    H139078   1.950   0.066   1.506
13045TIP3    H239079   1.884   0.200   1.480
13046TIP3   OH239080   2.008   4.820   4.092
13046TIP3    H139081   1.916   4.795   4.084
13046TIP3    H239082   2.056   4.738   4.086
13047TIP3   OH239083   5.570   3.168   6.639
13047TIP3    H139084   5.582   3.147   6.547
13047TIP3    H239085   5.658   3.193   6.670
13048TIP3   OH239086   7.519   5.692   1.220
13048TIP3    H139087   7.475   5.682   1.136
13048TIP3    H239088   7.605   5.729   1.198
13049TIP3   OH239089   6.873   3.137   6.741
13049TIP3    H139090   6.804   3.117   6.804
13049TIP3    H239091   6.837   3.209   6.688
13050TIP3   OH239092   1.167   4.357   0.600
13050TIP3    H139093   1.142   4.446   0.627
13050TIP3    H239094   1.084   4.314   0.579
13051TIP3   OH239095   6.768   3.743   0.200
13051TIP3    H139096   6.796   3.828   0.232
13051TIP3    H239097   6.814   3.680   0.256
13052TIP3   OH239098   0.913   1.663   1.252
13052TIP3    H139099   0.991   1.650   1.197
13052TIP3    H239100   0.849   1.600   1.218
13053TIP3   OH239101   7.283   2.091   2.169
13053TIP3    H139102   7.316   2.009   2.131
13053TIP3    H239103   7.192   2.072   2.190
13054TIP3   OH239104   7.747   6.988   1.188
13054TIP3    H139105   7.702   7.064   1.154
13054TIP3    H239106   7.682   6.919   1.189
13055TIP3   OH239107   2.173   3.227   6.303
13055TIP3    H139108   2.220   3.211   6.385
13055TIP3    H239109   2.119   3.150   6.291
13056TIP3   OH239110   1.632   5.435   3.547
13056TIP3    H139111   1.661   5.454   3.458
13056TIP3    H239112   1.573   5.361   3.538
13057TIP3   OH239113   5.691   4.991   4.472
13057TIP3    H139114   5.732   5.051   4.410
13057TIP3    H239115   5.601   4.983   4.440
13058TIP3   OH239116   0.754   2.039   3.393
13058TIP3    H139117   0.767   2.091   3.313
13058TIP3    H239118   0.780   2.098   3.464
13059TIP3   OH239119   5.390   6.680   5.344
13059TIP3    H139120   5.466   6.641   5.300
13059TIP3    H239121   5.422   6.766   5.375
13060TIP3   OH239122   7.635   2.100   3.123
13060TIP3    H139123   7.724   2.092   3.089
13060TIP3    H239124   7.619   2.018   3.169
13061TIP3   OH239125   1.690   6.561   0.906
13061TIP3    H139126   1.768   6.508   0.923
13061TIP3    H239127   1.629   6.502   0.862
13062TIP3   OH239128   0.578   1.322   4.116
13062TIP3    H139129   0.556   1.255   4.051
13062TIP3    H239130   0.645   1.376   4.073
13063TIP3   OH239131   0.031   7.584   3.772
13063TIP3    H139132   0.123   7.605   3.789
13063TIP3    H239133   0.024   7.491   3.790
13064TIP3   OH239134   6.329   5.389   0.676
13064TIP3    H139135   6.417   5.372   0.642
13064TIP3    H239136   6.309   5.311   0.728
13065TIP3   OH239137   2.860   4.675   3.184
13065TIP3    H139138   2.807   4.595   3.183
13065TIP3    H239139   2.901   4.678   3.098
13066TIP3   OH239140   5.360   2.867   6.113
13066TIP3    H139141   5.391   2.920   6.187
13066TIP3    H239142   5.306   2.799   6.153
13067TIP3   OH239143   6.193   2.447   0.578
13067TIP3    H139144   6.126   2.497   0.626
13067TIP3    H239145   6.253   2.418   0.646
13068TIP3   OH239146   0.282   3.006   5.467
13068TIP3    H139147   0.299   2.919   5.502
13068TIP3    H239148   0.369   3.046   5.460
13069TIP3   OH239149   2.919   1.498   4.004
13069TIP3    H139150   2.995   1.453   3.967
13069TIP3    H239151   2.939   1.506   4.098
13070TIP3   OH239152   5.749   6.352   6.181
13070TIP3    H139153   5.711   6.324   6.098
13070TIP3    H239154   5.843   6.360   6.163
13071TIP3   OH239155   0.210   3.491   3.138
13071TIP3    H139156   0.255   3.573   3.117
13071TIP3    H239157   0.152   3.514   3.210
13072TIP3   OH239158   0.776   0.701   4.714
13072TIP3    H139159   0.742   0.745   4.792
13072TIP3    H239160   0.842   0.640   4.748
13073TIP3   OH239161   1.490   4.598   4.472
13073TIP3    H139162   1.497   4.676   4.526
13073TIP3    H239163   1.554   4.613   4.401
13074TIP3   OH239164   0.988   7.172   5.672
13074TIP3    H139165   0.973   7.148   5.764
13074TIP3    H239166   0.900   7.174   5.634
13075TIP3   OH239167   2.064   7.251   3.841
13075TIP3    H139168   2.156   7.237   3.862
13075TIP3    H239169   2.063   7.269   3.747
13076TIP3   OH239170   1.857   6.992   5.663
13076TIP3    H139171   1.902   6.926   5.610
13076TIP3    H239172   1.839   6.948   5.746
13077TIP3   OH239173   7.507   4.883   2.895
13077TIP3    H139174   7.453   4.925   2.961
13077TIP3    H239175   7.452   4.879   2.817
13078TIP3   OH239176   5.651   0.256   3.050
13078TIP3    H139177   5.664   0.206   2.970
13078TIP3    H239178   5.604   0.196   3.109
13079TIP3   OH239179   7.462   5.094   0.137
13079TIP3    H139180   7.389   5.108   0.076
13079TIP3    H239181   7.475   5.180   0.178
13080TIP3   OH239182   7.140   5.487   1.887
13080TIP3    H139183   7.185   5.439   1.817
13080TIP3    H239184   7.203   5.488   1.959
13081TIP3   OH239185   7.481   2.855   1.471
13081TIP3    H139186   7.538   2.913   1.521
13081TIP3    H239187   7.531   2.835   1.391
13082TIP3   OH239188   7.051   4.221   1.509
13082TIP3    H139189   7.044   4.145   1.452
13082TIP3    H239190   6.972   4.218   1.563
13083TIP3   OH239191   2.610   2.548   1.943
13083TIP3    H139192   2.637   2.507   2.025
13083TIP3    H239193   2.630   2.483   1.876
13084TIP3   OH239194   7.313   2.495   2.626
13084TIP3    H139195   7.308   2.590   2.621
13084TIP3    H239196   7.320   2.467   2.534
13085TIP3   OH239197   3.888   6.146   2.257
13085TIP3    H139198   3.795   6.142   2.280
13085TIP3    H239199   3.929   6.191   2.330
13086TIP3   OH239200   6.231   6.446   6.521
13086TIP3    H139201   6.264   6.379   6.580
13086TIP3    H239202   6.163   6.402   6.470
13087TIP3   OH239203   4.764   6.300   1.057
13087TIP3    H139204   4.791   6.317   1.148
13087TIP3    H239205   4.694   6.364   1.041
13088TIP3   OH239206   0.133   0.976   2.341
13088TIP3    H139207   0.074   1.009   2.272
13088TIP3    H239208   0.076   0.929   2.401
13089TIP3   OH239209   3.540   2.616   5.982
13089TIP3    H139210   3.508   2.528   5.964
13089TIP3    H239211   3.509   2.669   5.908
13090TIP3   OH239212   2.330   5.261   6.405
13090TIP3    H139213   2.385   5.270   6.328
13090TIP3    H239214   2.363   5.183   6.449
13091TIP3   OH239215   5.954   3.856   2.424
13091TIP3    H139216   5.921   3.946   2.423
13091TIP3    H239217   5.945   3.827   2.333
13092TIP3   OH239218   2.773   0.086   3.695
13092TIP3    H139219   2.756   0.042   3.612
13092TIP3    H239220   2.759   0.179   3.677
13093TIP3   OH239221   0.488   2.670   1.706
13093TIP3    H139222   0.455   2.594   1.755
13093TIP3    H239223   0.440   2.667   1.623
13094TIP3   OH239224   6.054   6.011   2.068
13094TIP3    H139225   5.996   6.067   2.017
13094TIP3    H239226   6.087   5.947   2.005
13095TIP3   OH239227   3.186   6.686   5.705
13095TIP3    H139228   3.255   6.620   5.703
13095TIP3    H239229   3.118   6.648   5.759
13096TIP3   OH239230   3.927   3.021   2.345
13096TIP3    H139231   3.992   3.089   2.331
13096TIP3    H239232   3.893   3.039   2.433
13097TIP3   OH239233   2.982   0.943   4.311
13097TIP3    H139234   2.954   1.000   4.239
13097TIP3    H239235   3.076   0.936   4.301
13098TIP3   OH239236   3.723   6.950   1.957
13098TIP3    H139237   3.800   7.006   1.945
13098TIP3    H239238   3.669   6.966   1.880
13099TIP3   OH239239   5.073   4.311   3.412
13099TIP3    H139240   5.054   4.390   3.462
13099TIP3    H239241   5.151   4.333   3.361
13100TIP3   OH239242   3.893   0.645   0.288
13100TIP3    H139243   3.906   0.554   0.316
13100TIP3    H239244   3.802   0.648   0.258
13101TIP3   OH239245   7.146   6.587   0.644
13101TIP3    H139246   7.149   6.500   0.605
13101TIP3    H239247   7.230   6.627   0.622
13102TIP3   OH239248   2.289   2.665   3.872
13102TIP3    H139249   2.270   2.692   3.962
13102TIP3    H239250   2.226   2.714   3.818
13103TIP3   OH239251   6.102   1.427   2.375
13103TIP3    H139252   6.121   1.424   2.469
13103TIP3    H239253   6.137   1.344   2.341
13104TIP3   OH239254   5.239   7.688   4.890
13104TIP3    H139255   5.237   7.628   4.815
13104TIP3    H239256   5.177   7.651   4.952
13105TIP3   OH239257   2.951   3.655   2.270
13105TIP3    H139258   3.020   3.616   2.217
13105TIP3    H239259   2.886   3.586   2.279
13106TIP3   OH239260   4.148   2.589   2.862
13106TIP3    H139261   4.158   2.631   2.947
13106TIP3    H239262   4.237   2.590   2.825
13107TIP3   OH239263   2.186   6.093   4.348
13107TIP3    H139264   2.169   5.999   4.351
13107TIP3    H239265   2.255   6.103   4.283
13108TIP3   OH239266   4.986   2.217   2.784
13108TIP3    H139267   4.899   2.244   2.814
13108TIP3    H239268   4.993   2.253   2.696
13109TIP3   OH239269   2.883   2.262   4.577
13109TIP3    H139270   2.851   2.218   4.498
13109TIP3    H239271   2.870   2.355   4.560
13110TIP3   OH239272   3.964   2.575   6.327
13110TIP3    H139273   3.872   2.548   6.322
13110TIP3    H239274   3.995   2.568   6.236
13111TIP3   OH239275   1.328   2.440   0.827
13111TIP3    H139276   1.254   2.498   0.847
13111TIP3    H239277   1.302   2.355   0.862
13112TIP3   OH239278   8.077   7.351   4.742
13112TIP3    H139279   8.091   7.427   4.686
13112TIP3    H239280   8.047   7.388   4.826
13113TIP3   OH239281   2.527   7.092   2.319
13113TIP3    H139282   2.440   7.052   2.322
13113TIP3    H239283   2.570   7.050   2.244
13114TIP3   OH239284   6.998   3.561   2.076
13114TIP3    H139285   6.927   3.554   2.013
13114TIP3    H239286   7.070   3.513   2.037
13115TIP3   OH239287   3.619   5.105   0.504
13115TIP3    H139288   3.564   5.077   0.577
13115TIP3    H239289   3.558   5.147   0.442
13116TIP3   OH239290   5.963   3.750   2.169
13116TIP3    H139291   5.979   3.730   2.077
13116TIP3    H239292   5.867   3.746   2.178
13117TIP3   OH239293   3.728   2.775   5.234
13117TIP3    H139294   3.656   2.727   5.194
13117TIP3    H239295   3.710   2.867   5.213
13118TIP3   OH239296   2.900   7.501   6.134
13118TIP3    H139297   2.923   7.473   6.222
13118TIP3    H239298   2.814   7.542   6.143
13119TIP3   OH239299   7.502   7.079   4.812
13119TIP3    H139300   7.578   7.051   4.761
13119TIP3    H239301   7.516   7.040   4.899
13120TIP3   OH239302   8.007   0.392   3.610
13120TIP3    H139303   7.950   0.435   3.674
13120TIP3    H239304   8.089   0.379   3.657
13121TIP3   OH239305   2.215   1.323   4.933
13121TIP3    H139306   2.300   1.281   4.919
13121TIP3    H239307   2.236   1.406   4.975
13122TIP3   OH239308   2.533   4.773   0.533
13122TIP3    H139309   2.444   4.742   0.515
13122TIP3    H239310   2.584   4.693   0.545
13123TIP3   OH239311   5.379   2.506   0.711
13123TIP3    H139312   5.305   2.531   0.767
13123TIP3    H239313   5.338   2.483   0.627
13124TIP3   OH239314   0.262   7.219   3.000
13124TIP3    H139315   0.230   7.308   2.988
13124TIP3    H239316   0.326   7.207   2.931
13125TIP3   OH239317   0.576   0.937   1.022
13125TIP3    H139318   0.536   0.988   1.093
13125TIP3    H239319   0.570   0.846   1.051
13126TIP3   OH239320   5.968   3.696   6.244
13126TIP3    H139321   5.968   3.771   6.185
13126TIP3    H239322   5.963   3.734   6.332
13127TIP3   OH239323   5.796   1.092   6.460
13127TIP3    H139324   5.769   1.184   6.454
13127TIP3    H239325   5.889   1.096   6.482
13128TIP3   OH239326   4.583   2.923   1.661
13128TIP3    H139327   4.492   2.896   1.672
13128TIP3    H239328   4.610   2.955   1.747
13129TIP3   OH239329   3.464   0.492   0.524
13129TIP3    H139330   3.405   0.566   0.512
13129TIP3    H239331   3.412   0.416   0.498
13130TIP3   OH239332   4.567   6.554   5.357
13130TIP3    H139333   4.555   6.459   5.359
13130TIP3    H239334   4.659   6.566   5.334
13131TIP3   OH239335   4.733   6.092   5.724
13131TIP3    H139336   4.660   6.136   5.769
13131TIP3    H239337   4.757   6.152   5.654
13132TIP3   OH239338   0.394   5.402   4.718
13132TIP3    H139339   0.323   5.437   4.664
13132TIP3    H239340   0.462   5.469   4.716
13133TIP3   OH239341   4.250   3.155   3.834
13133TIP3    H139342   4.191   3.223   3.801
13133TIP3    H239343   4.323   3.154   3.772
13134TIP3   OH239344   7.123   4.454   2.029
13134TIP3    H139345   7.179   4.525   1.997
13134TIP3    H239346   7.172   4.415   2.101
13135TIP3   OH239347   7.533   2.775   6.482
13135TIP3    H139348   7.532   2.868   6.504
13135TIP3    H239349   7.562   2.732   6.562
13136TIP3   OH239350   7.419   6.189   1.076
13136TIP3    H139351   7.423   6.155   0.987
13136TIP3    H239352   7.499   6.241   1.086
13137TIP3   OH239353   6.919   4.512   6.646
13137TIP3    H139354   6.919   4.581   6.580
13137TIP3    H239355   6.927   4.558   6.729
13138TIP3   OH239356   7.912   0.016   0.994
13138TIP3    H139357   7.996   0.038   1.034
13138TIP3    H239358   7.927  -0.069   0.951
13139TIP3   OH239359   4.825   5.457   4.531
13139TIP3    H139360   4.771   5.473   4.454
13139TIP3    H239361   4.819   5.363   4.546
13140TIP3   OH239362   0.774   5.087   2.878
13140TIP3    H139363   0.766   5.178   2.908
13140TIP3    H239364   0.688   5.048   2.896
13141TIP3   OH239365   1.592   3.608   4.321
13141TIP3    H139366   1.683   3.603   4.292
13141TIP3    H239367   1.579   3.701   4.342
13142TIP3   OH239368   8.224   4.251   5.814
13142TIP3    H139369   8.265   4.316   5.756
13142TIP3    H239370   8.296   4.222   5.871
13143TIP3   OH239371   1.312   1.497   0.587
13143TIP3    H139372   1.367   1.430   0.626
13143TIP3    H239373   1.293   1.463   0.499
13144TIP3   OH239374   6.922   2.461   5.429
13144TIP3    H139375   6.846   2.496   5.383
13144TIP3    H239376   6.885   2.414   5.504
13145TIP3   OH239377   8.198   5.885   6.042
13145TIP3    H139378   8.246   5.804   6.020
13145TIP3    H239379   8.211   5.942   5.967
13146TIP3   OH239380   8.094   6.276   1.324
13146TIP3    H139381   8.035   6.241   1.391
13146TIP3    H239382   8.166   6.213   1.320
13147TIP3   OH239383   0.557   7.432   3.006
13147TIP3    H139384   0.539   7.380   2.928
13147TIP3    H239385   0.608   7.373   3.062
13148TIP3   OH239386   2.756   4.140   3.483
13148TIP3    H139387   2.777   4.110   3.394
13148TIP3    H239388   2.766   4.235   3.479
13149TIP3   OH239389   4.129   1.972   4.983
13149TIP3    H139390   4.111   1.905   4.917
13149TIP3    H239391   4.223   1.989   4.975
13150TIP3   OH239392   5.681   5.490   2.233
13150TIP3    H139393   5.616   5.420   2.243
13150TIP3    H239394   5.708   5.486   2.142
13151TIP3   OH239395   1.258   5.343   5.504
13151TIP3    H139396   1.353   5.351   5.514
13151TIP3    H239397   1.225   5.432   5.514
13152TIP3   OH239398   7.631   7.159   5.388
13152TIP3    H139399   7.589   7.190   5.469
13152TIP3    H239400   7.719   7.194   5.393
13153TIP3   OH239401   4.953   6.095   0.817
13153TIP3    H139402   4.975   6.124   0.728
13153TIP3    H239403   4.897   6.165   0.852
13154TIP3   OH239404   3.928   1.015   1.285
13154TIP3    H139405   3.956   0.948   1.223
13154TIP3    H239406   3.834   1.026   1.268
13155TIP3   OH239407   3.103   7.613   5.558
13155TIP3    H139408   3.057   7.588   5.478
13155TIP3    H239409   3.033   7.625   5.622
13156TIP3   OH239410   5.428   5.030   6.205
13156TIP3    H139411   5.397   5.072   6.125
13156TIP3    H239412   5.349   5.005   6.251
13157TIP3   OH239413   6.074   2.893   4.011
13157TIP3    H139414   6.045   2.921   3.924
13157TIP3    H239415   6.124   2.813   3.995
13158TIP3   OH239416   6.873   5.629   4.823
13158TIP3    H139417   6.904   5.553   4.872
13158TIP3    H239418   6.889   5.703   4.883
13159TIP3   OH239419   1.015   3.492   0.167
13159TIP3    H139420   1.052   3.463   0.250
13159TIP3    H239421   1.024   3.417   0.108
13160TIP3   OH239422   4.477   7.032   4.665
13160TIP3    H139423   4.427   6.992   4.594
13160TIP3    H239424   4.416   7.094   4.705
13161TIP3   OH239425   0.155   3.825   6.143
13161TIP3    H139426   0.111   3.858   6.222
13161TIP3    H239427   0.239   3.871   6.141
13162TIP3   OH239428   3.758   1.687   1.454
13162TIP3    H139429   3.804   1.708   1.373
13162TIP3    H239430   3.819   1.632   1.503
13163TIP3   OH239431   1.029   1.735   1.492
13163TIP3    H139432   0.977   1.729   1.412
13163TIP3    H239433   1.080   1.654   1.494
13164TIP3   OH239434   2.120   4.026   4.492
13164TIP3    H139435   2.094   3.941   4.528
13164TIP3    H239436   2.037   4.068   4.468
13165TIP3   OH239437   1.422   3.812   3.760
13165TIP3    H139438   1.344   3.760   3.740
13165TIP3    H239439   1.392   3.903   3.756
13166TIP3   OH239440   0.438   1.965   0.993
13166TIP3    H139441   0.513   1.998   1.041
13166TIP3    H239442   0.473   1.895   0.938
13167TIP3   OH239443   5.835   1.135   5.069
13167TIP3    H139444   5.918   1.178   5.092
13167TIP3    H239445   5.785   1.135   5.151
13168TIP3   OH239446   2.467   2.887   1.633
13168TIP3    H139447   2.516   2.824   1.581
13168TIP3    H239448   2.388   2.840   1.660
13169TIP3   OH239449   7.046   5.068   3.603
13169TIP3    H139450   7.043   4.989   3.657
13169TIP3    H239451   7.077   5.039   3.518
13170TIP3   OH239452   7.206   0.451   1.317
13170TIP3    H139453   7.267   0.436   1.246
13170TIP3    H239454   7.173   0.540   1.303
13171TIP3   OH239455   3.480   4.414   3.606
13171TIP3    H139456   3.493   4.321   3.626
13171TIP3    H239457   3.506   4.423   3.514
13172TIP3   OH239458   3.935   5.459   1.342
13172TIP3    H139459   3.939   5.368   1.312
13172TIP3    H239460   3.929   5.511   1.262
13173TIP3   OH239461   2.358   5.333   0.754
13173TIP3    H139462   2.294   5.278   0.798
13173TIP3    H239463   2.368   5.410   0.811
13174TIP3   OH239464   4.749   5.666   0.611
13174TIP3    H139465   4.753   5.571   0.621
13174TIP3    H239466   4.839   5.695   0.620
13175TIP3   OH239467   4.674   1.836   5.278
13175TIP3    H139468   4.634   1.793   5.354
13175TIP3    H239469   4.739   1.773   5.247
13176TIP3   OH239470   2.855   1.495   2.834
13176TIP3    H139471   2.773   1.448   2.819
13176TIP3    H239472   2.899   1.493   2.749
13177TIP3   OH239473   1.061   5.980   2.182
13177TIP3    H139474   1.101   6.066   2.172
13177TIP3    H239475   1.128   5.918   2.153
13178TIP3   OH239476   6.841   2.320   2.753
13178TIP3    H139477   6.830   2.227   2.736
13178TIP3    H239478   6.912   2.325   2.817
13179TIP3   OH239479   0.218   5.384   1.533
13179TIP3    H139480   0.310   5.374   1.508
13179TIP3    H239481   0.172   5.401   1.451
13180TIP3   OH239482   4.305   5.050   5.186
13180TIP3    H139483   4.364   5.083   5.254
13180TIP3    H239484   4.269   5.128   5.145
13181TIP3   OH239485   8.094   2.323   5.373
13181TIP3    H139486   8.128   2.299   5.287
13181TIP3    H239487   8.000   2.305   5.367
13182TIP3   OH239488   2.966   4.441   2.194
13182TIP3    H139489   3.022   4.426   2.118
13182TIP3    H239490   3.010   4.508   2.245
13183TIP3   OH239491   6.366   1.958   0.970
13183TIP3    H139492   6.329   2.015   0.903
13183TIP3    H239493   6.313   1.878   0.964
13184TIP3   OH239494   2.123   3.527   6.484
13184TIP3    H139495   2.153   3.512   6.395
13184TIP3    H239496   2.193   3.493   6.540
13185TIP3   OH239497   4.845   0.800   3.678
13185TIP3    H139498   4.846   0.767   3.768
13185TIP3    H239499   4.803   0.730   3.627
13186TIP3   OH239500   6.732   4.194   6.444
13186TIP3    H139501   6.722   4.278   6.490
13186TIP3    H239502   6.781   4.139   6.506
13187TIP3   OH239503   3.235   1.543   2.873
13187TIP3    H139504   3.171   1.607   2.844
13187TIP3    H239505   3.184   1.480   2.924
13188TIP3   OH239506   8.000   5.714   1.478
13188TIP3    H139507   8.034   5.636   1.522
13188TIP3    H239508   7.916   5.731   1.522
13189TIP3   OH239509   1.427   6.370   6.517
13189TIP3    H139510   1.454   6.279   6.524
13189TIP3    H239511   1.505   6.420   6.541
13190TIP3   OH239512   5.651   0.907   2.120
13190TIP3    H139513   5.731   0.959   2.114
13190TIP3    H239514   5.587   0.955   2.067
13191TIP3   OH239515   0.814   7.315   1.419
13191TIP3    H139516   0.864   7.237   1.395
13191TIP3    H239517   0.755   7.285   1.488
13192TIP3   OH239518   6.014   6.167   5.285
13192TIP3    H139519   6.109   6.157   5.279
13192TIP3    H239520   5.999   6.207   5.370
13193TIP3   OH239521   5.380   7.042   1.637
13193TIP3    H139522   5.354   7.048   1.728
13193TIP3    H239523   5.314   6.984   1.597
13194TIP3   OH239524   3.306   2.100   0.373
13194TIP3    H139525   3.357   2.171   0.410
13194TIP3    H239526   3.223   2.102   0.421
13195TIP3   OH239527   3.720   1.235   4.918
13195TIP3    H139528   3.755   1.147   4.933
13195TIP3    H239529   3.775   1.270   4.849
13196TIP3   OH239530   4.978   2.650   2.728
13196TIP3    H139531   4.916   2.626   2.798
13196TIP3    H239532   4.989   2.569   2.677
13197TIP3   OH239533   3.844   3.277   6.068
13197TIP3    H139534   3.749   3.264   6.066
13197TIP3    H239535   3.866   3.305   5.979
13198TIP3   OH239536   2.712   0.720   4.649
13198TIP3    H139537   2.777   0.723   4.579
13198TIP3    H239538   2.658   0.643   4.628
13199TIP3   OH239539   4.936   7.546   5.725
13199TIP3    H139540   5.015   7.580   5.766
13199TIP3    H239541   4.880   7.520   5.798
13200TIP3   OH239542   1.036   3.895   2.629
13200TIP3    H139543   1.107   3.943   2.673
13200TIP3    H239544   1.074   3.810   2.607
13201TIP3   OH239545   1.035   3.966   1.475
13201TIP3    H139546   1.007   3.936   1.389
13201TIP3    H239547   1.089   3.894   1.509
13202TIP3   OH239548   7.048   2.171   0.894
13202TIP3    H139549   7.020   2.143   0.807
13202TIP3    H239550   6.991   2.123   0.954
13203TIP3   OH239551   2.455   3.426   3.510
13203TIP3    H139552   2.435   3.340   3.545
13203TIP3    H239553   2.379   3.448   3.456
13204TIP3   OH239554   5.313   3.140   5.171
13204TIP3    H139555   5.220   3.116   5.166
13204TIP3    H239556   5.317   3.226   5.130
13205TIP3   OH239557   4.078   5.701   5.676
13205TIP3    H139558   3.985   5.701   5.653
13205TIP3    H239559   4.085   5.639   5.748
13206TIP3   OH239560   3.261   1.669   0.342
13206TIP3    H139561   3.262   1.614   0.264
13206TIP3    H239562   3.351   1.666   0.375
13207TIP3   OH239563   7.084   0.654   1.632
13207TIP3    H139564   7.116   0.717   1.567
13207TIP3    H239565   7.162   0.607   1.660
13208TIP3   OH239566   2.723   1.913   5.384
13208TIP3    H139567   2.644   1.924   5.330
13208TIP3    H239568   2.704   1.837   5.439
13209TIP3   OH239569   0.593   6.921   0.683
13209TIP3    H139570   0.498   6.930   0.676
13209TIP3    H239571   0.618   6.975   0.758
13210TIP3   OH239572   4.659   6.741   0.841
13210TIP3    H139573   4.615   6.693   0.911
13210TIP3    H239574   4.691   6.672   0.782
13211TIP3   OH239575   0.204   4.357   6.049
13211TIP3    H139576   0.198   4.407   5.967
13211TIP3    H239577   0.279   4.395   6.095
13212TIP3   OH239578   1.524   7.329   4.607
13212TIP3    H139579   1.547   7.386   4.681
13212TIP3    H239580   1.430   7.315   4.615
13213TIP3   OH239581   0.580   5.525   0.039
13213TIP3    H139582   0.493   5.502   0.072
13213TIP3    H239583   0.637   5.454   0.069
13214TIP3   OH239584   7.270   7.111   3.799
13214TIP3    H139585   7.316   7.063   3.730
13214TIP3    H239586   7.191   7.058   3.815
13215TIP3   OH239587   0.775   1.889   1.317
13215TIP3    H139588   0.835   1.819   1.293
13215TIP3    H239589   0.831   1.960   1.348
13216TIP3   OH239590   1.968   6.293   1.299
13216TIP3    H139591   1.948   6.244   1.379
13216TIP3    H239592   2.010   6.373   1.329
13217TIP3   OH239593   2.554   4.566   6.418
13217TIP3    H139594   2.501   4.601   6.491
13217TIP3    H239595   2.506   4.592   6.340
13218TIP3   OH239596   7.550   1.336   3.863
13218TIP3    H139597   7.477   1.356   3.804
13218TIP3    H239598   7.544   1.402   3.932
13219TIP3   OH239599   4.593   7.664   3.839
13219TIP3    H139600   4.660   7.708   3.787
13219TIP3    H239601   4.641   7.622   3.910
13220TIP3   OH239602   7.170   2.242   4.438
13220TIP3    H139603   7.240   2.306   4.425
13220TIP3    H239604   7.182   2.179   4.366
13221TIP3   OH239605   1.838   6.722   4.022
13221TIP3    H139606   1.904   6.789   4.039
13221TIP3    H239607   1.845   6.661   4.095
13222TIP3   OH239608   4.106   0.655   3.459
13222TIP3    H139609   4.148   0.720   3.515
13222TIP3    H239610   4.071   0.590   3.520
13223TIP3   OH239611   6.979   3.645   1.236
13223TIP3    H139612   6.967   3.558   1.274
13223TIP3    H239613   6.890   3.678   1.223
13224TIP3   OH239614   1.229   5.474   1.659
13224TIP3    H139615   1.270   5.561   1.658
13224TIP3    H239616   1.277   5.426   1.726
13225TIP3   OH239617   2.184   3.157   5.888
13225TIP3    H139618   2.094   3.187   5.896
13225TIP3    H239619   2.201   3.153   5.794
13226TIP3   OH239620   2.453   0.344   5.221
13226TIP3    H139621   2.474   0.315   5.133
13226TIP3    H239622   2.390   0.415   5.209
13227TIP3   OH239623   0.659   6.032   5.114
13227TIP3    H139624   0.600   6.093   5.156
13227TIP3    H239625   0.654   6.053   5.021
13228TIP3   OH239626   4.378   1.623   2.570
13228TIP3    H139627   4.284   1.628   2.552
13228TIP3    H239628   4.390   1.680   2.647
13229TIP3   OH239629   0.510   3.657   0.673
13229TIP3    H139630   0.517   3.677   0.580
13229TIP3    H239631   0.425   3.614   0.682
13230TIP3   OH239632   7.017   3.938   0.624
13230TIP3    H139633   6.924   3.915   0.627
13230TIP3    H239634   7.060   3.872   0.679
13231TIP3   OH239635   5.198   5.619   5.101
13231TIP3    H139636   5.172   5.614   5.193
13231TIP3    H239637   5.286   5.656   5.103
13232TIP3   OH239638   3.872   3.062   5.818
13232TIP3    H139639   3.889   3.096   5.905
13232TIP3    H239640   3.803   3.118   5.783
13233TIP3   OH239641   7.706   2.486   4.398
13233TIP3    H139642   7.675   2.462   4.311
13233TIP3    H239643   7.713   2.581   4.397
13234TIP3   OH239644   5.626   5.170   4.737
13234TIP3    H139645   5.634   5.264   4.726
13234TIP3    H239646   5.687   5.132   4.674
13235TIP3   OH239647   0.841   3.192   2.642
13235TIP3    H139648   0.931   3.170   2.617
13235TIP3    H239649   0.798   3.107   2.650
13236TIP3   OH239650   2.368   1.782   1.049
13236TIP3    H139651   2.462   1.798   1.064
13236TIP3    H239652   2.329   1.869   1.049
13237TIP3   OH239653   0.348   3.802   2.274
13237TIP3    H139654   0.356   3.794   2.369
13237TIP3    H239655   0.257   3.830   2.260
13238TIP3   OH239656   1.751   3.488   5.091
13238TIP3    H139657   1.802   3.479   5.010
13238TIP3    H239658   1.688   3.558   5.072
13239TIP3   OH239659   5.803   1.699   6.255
13239TIP3    H139660   5.798   1.791   6.229
13239TIP3    H239661   5.822   1.652   6.174
13240TIP3   OH239662   4.739   1.362   5.554
13240TIP3    H139663   4.659   1.313   5.534
13240TIP3    H239664   4.803   1.332   5.490
13241TIP3   OH239665   1.849   1.266   0.243
13241TIP3    H139666   1.849   1.229   0.155
13241TIP3    H239667   1.910   1.340   0.239
13242TIP3   OH239668   8.138   1.270   4.427
13242TIP3    H139669   8.057   1.322   4.422
13242TIP3    H239670   8.138   1.218   4.347
13243TIP3   OH239671   7.256   6.377   4.674
13243TIP3    H139672   7.195   6.416   4.612
13243TIP3    H239673   7.292   6.452   4.722
13244TIP3   OH239674   5.459   0.856   0.683
13244TIP3    H139675   5.426   0.945   0.678
13244TIP3    H239676   5.390   0.806   0.727
13245TIP3   OH239677   1.268   1.439   5.663
13245TIP3    H139678   1.206   1.366   5.658
13245TIP3    H239679   1.346   1.402   5.704
13246TIP3   OH239680   1.242   6.145   6.488
13246TIP3    H139681   1.292   6.102   6.558
13246TIP3    H239682   1.151   6.137   6.516
13247TIP3   OH239683   2.737   5.844   2.158
13247TIP3    H139684   2.754   5.825   2.250
13247TIP3    H239685   2.765   5.936   2.147
13248TIP3   OH239686   4.914   6.080   1.971
13248TIP3    H139687   4.859   6.044   2.042
13248TIP3    H239688   4.911   6.014   1.903
13249TIP3   OH239689   2.235   3.244   1.113
13249TIP3    H139690   2.190   3.217   1.033
13249TIP3    H239691   2.220   3.172   1.174
13250TIP3   OH239692   2.243   0.898   0.132
13250TIP3    H139693   2.311   0.927   0.193
13250TIP3    H239694   2.166   0.883   0.187
13251TIP3   OH239695   2.920   4.789   0.308
13251TIP3    H139696   2.995   4.730   0.319
13251TIP3    H239697   2.867   4.748   0.240
13252TIP3   OH239698   2.517   0.436   4.913
13252TIP3    H139699   2.471   0.353   4.930
13252TIP3    H239700   2.578   0.416   4.843
13253TIP3   OH239701   4.408   2.426   6.567
13253TIP3    H139702   4.333   2.484   6.551
13253TIP3    H239703   4.378   2.339   6.540
13254TIP3   OH239704   2.344   5.693   4.417
13254TIP3    H139705   2.373   5.768   4.469
13254TIP3    H239706   2.254   5.714   4.393
13255TIP3   OH239707   6.693   5.215   2.783
13255TIP3    H139708   6.729   5.261   2.708
13255TIP3    H239709   6.615   5.265   2.806
13256TIP3   OH239710   6.101   3.808   0.207
13256TIP3    H139711   6.164   3.879   0.220
13256TIP3    H239712   6.100   3.761   0.290
13257TIP3   OH239713   0.539   7.257   6.663
13257TIP3    H139714   0.534   7.332   6.721
13257TIP3    H239715   0.479   7.193   6.702
13258TIP3   OH239716   2.335   5.742   0.489
13258TIP3    H139717   2.357   5.651   0.507
13258TIP3    H239718   2.378   5.761   0.405
13259TIP3   OH239719   2.216   0.786   4.686
13259TIP3    H139720   2.202   0.719   4.619
13259TIP3    H239721   2.131   0.796   4.729
13260TIP3   OH239722   7.364   5.306   2.166
13260TIP3    H139723   7.346   5.365   2.093
13260TIP3    H239724   7.451   5.270   2.148
13261TIP3   OH239725   7.568   1.316   1.091
13261TIP3    H139726   7.602   1.345   1.176
13261TIP3    H239727   7.646   1.306   1.036
13262TIP3   OH239728   5.744   1.618   2.118
13262TIP3    H139729   5.758   1.588   2.208
13262TIP3    H239730   5.727   1.538   2.068
13263TIP3   OH239731   5.841   0.542   4.946
13263TIP3    H139732   5.876   0.494   5.021
13263TIP3    H239733   5.870   0.632   4.959
13264TIP3   OH239734   7.964   3.901   6.206
13264TIP3    H139735   7.986   3.991   6.182
13264TIP3    H239736   8.015   3.846   6.147
13265TIP3   OH239737   1.345   6.336   1.303
13265TIP3    H139738   1.367   6.321   1.395
13265TIP3    H239739   1.270   6.395   1.306
13266TIP3   OH239740   4.706   3.457   0.271
13266TIP3    H139741   4.665   3.424   0.191
13266TIP3    H239742   4.790   3.491   0.243
13267TIP3   OH239743   6.461   3.009   6.427
13267TIP3    H139744   6.380   3.059   6.430
13267TIP3    H239745   6.522   3.064   6.378
13268TIP3   OH239746   1.862   1.527   4.881
13268TIP3    H139747   1.772   1.512   4.911
13268TIP3    H239748   1.853   1.559   4.791
13269TIP3   OH239749   2.184   3.264   1.767
13269TIP3    H139750   2.209   3.277   1.858
13269TIP3    H239751   2.156   3.172   1.762
13270TIP3   OH239752   7.973   0.818   6.237
13270TIP3    H139753   7.908   0.861   6.293
13270TIP3    H239754   7.941   0.833   6.148
13271TIP3   OH239755   6.677   6.853   5.351
13271TIP3    H139756   6.623   6.820   5.424
13271TIP3    H239757   6.618   6.851   5.276
13272TIP3   OH239758   1.430   7.449   1.541
13272TIP3    H139759   1.373   7.518   1.507
13272TIP3    H239760   1.518   7.487   1.538
13273TIP3   OH239761   7.201   0.330   6.546
13273TIP3    H139762   7.289   0.307   6.516
13273TIP3    H239763   7.207   0.327   6.642
13274TIP3   OH239764   2.393   3.462   1.085
13274TIP3    H139765   2.480   3.423   1.074
13274TIP3    H239766   2.333   3.388   1.084
13275TIP3   OH239767   3.292   5.422   4.592
13275TIP3    H139768   3.323   5.484   4.526
13275TIP3    H239769   3.309   5.465   4.676
13276TIP3   OH239770   4.986   1.843   5.111
13276TIP3    H139771   4.972   1.911   5.177
13276TIP3    H239772   5.010   1.892   5.032
13277TIP3   OH239773   3.934   6.348   4.230
13277TIP3    H139774   3.893   6.334   4.315
13277TIP3    H239775   3.932   6.262   4.188
13278TIP3   OH239776   1.469   4.097   4.058
13278TIP3    H139777   1.379   4.111   4.028
13278TIP3    H239778   1.472   4.004   4.081
13279TIP3   OH239779   4.739   6.290   2.257
13279TIP3    H139780   4.742   6.361   2.321
13279TIP3    H239781   4.822   6.243   2.270
13280TIP3   OH239782   4.623   6.210   2.805
13280TIP3    H139783   4.544   6.156   2.799
13280TIP3    H239784   4.653   6.197   2.895
13281TIP3   OH239785   7.018   4.723   5.551
13281TIP3    H139786   7.001   4.801   5.604
13281TIP3    H239787   7.113   4.721   5.540
13282TIP3   OH239788   4.429   6.130   6.546
13282TIP3    H139789   4.360   6.085   6.497
13282TIP3    H239790   4.476   6.181   6.481
13283TIP3   OH239791   4.442   5.715   1.960
13283TIP3    H139792   4.417   5.637   1.911
13283TIP3    H239793   4.449   5.784   1.893
13284TIP3   OH239794   6.819   6.285   2.994
13284TIP3    H139795   6.838   6.214   2.932
13284TIP3    H239796   6.876   6.268   3.069
13285TIP3   OH239797   6.040   4.519   4.405
13285TIP3    H139798   5.965   4.578   4.398
13285TIP3    H239799   6.109   4.572   4.445
13286TIP3   OH239800   0.743   2.539   3.125
13286TIP3    H139801   0.682   2.490   3.070
13286TIP3    H239802   0.704   2.537   3.212
13287TIP3   OH239803   1.844   3.159   5.396
13287TIP3    H139804   1.935   3.185   5.379
13287TIP3    H239805   1.793   3.203   5.328
13288TIP3   OH239806   4.031   2.534   2.366
13288TIP3    H139807   4.016   2.622   2.331
13288TIP3    H239808   3.950   2.513   2.413
13289TIP3   OH239809   4.372   3.024   2.378
13289TIP3    H139810   4.304   3.065   2.432
13289TIP3    H239811   4.341   2.934   2.366
13290TIP3   OH239812   7.368   6.627   4.808
13290TIP3    H139813   7.450   6.617   4.858
13290TIP3    H239814   7.353   6.721   4.806
13291TIP3   OH239815   4.428   0.320   4.511
13291TIP3    H139816   4.443   0.373   4.433
13291TIP3    H239817   4.339   0.286   4.500
13292TIP3   OH239818   0.806   5.729   6.605
13292TIP3    H139819   0.844   5.757   6.689
13292TIP3    H239820   0.878   5.739   6.542
13293TIP3   OH239821   5.039   5.670   0.649
13293TIP3    H139822   5.115   5.704   0.603
13293TIP3    H239823   5.047   5.575   0.641
13294TIP3   OH239824   5.489   4.954   3.149
13294TIP3    H139825   5.501   4.886   3.215
13294TIP3    H239826   5.547   4.929   3.077
13295TIP3   OH239827   5.639   0.077   6.191
13295TIP3    H139828   5.647   0.151   6.252
13295TIP3    H239829   5.704   0.094   6.124
13296TIP3   OH239830   7.799   5.951   3.901
13296TIP3    H139831   7.754   5.894   3.964
13296TIP3    H239832   7.865   5.997   3.953
13297TIP3   OH239833  -0.005   3.748   1.795
13297TIP3    H139834   0.053   3.744   1.871
13297TIP3    H239835  -0.024   3.657   1.774
13298TIP3   OH239836   0.978   1.266   0.510
13298TIP3    H139837   0.949   1.343   0.559
13298TIP3    H239838   0.899   1.230   0.472
13299TIP3   OH239839   4.518   6.955   3.202
13299TIP3    H139840   4.440   6.919   3.159
13299TIP3    H239841   4.492   6.966   3.294
13300TIP3   OH239842   8.162   3.532   4.072
13300TIP3    H139843   8.186   3.532   3.980
13300TIP3    H239844   8.134   3.622   4.090
13301TIP3   OH239845   4.116   4.987   4.674
13301TIP3    H139846   4.163   5.019   4.751
13301TIP3    H239847   4.075   4.906   4.703
13302TIP3   OH239848   5.619   7.685   3.204
13302TIP3    H139849   5.526   7.675   3.223
13302TIP3    H239850   5.660   7.608   3.243
13303TIP3   OH239851   4.738   1.869   3.260
13303TIP3    H139852   4.777   1.803   3.318
13303TIP3    H239853   4.793   1.868   3.182
13304TIP3   OH239854   3.216   6.228   6.449
13304TIP3    H139855   3.251   6.301   6.500
13304TIP3    H239856   3.277   6.216   6.377
13305TIP3   OH239857   0.409   6.063   1.055
13305TIP3    H139858   0.422   6.108   1.138
13305TIP3    H239859   0.485   6.005   1.048
13306TIP3   OH239860   5.629   1.867   1.974
13306TIP3    H139861   5.675   1.795   2.017
13306TIP3    H239862   5.675   1.946   2.001
13307TIP3   OH239863   0.872   3.241   4.068
13307TIP3    H139864   0.937   3.288   4.120
13307TIP3    H239865   0.900   3.149   4.071
13308TIP3   OH239866   0.746   4.679   1.388
13308TIP3    H139867   0.707   4.594   1.405
13308TIP3    H239868   0.776   4.674   1.297
13309TIP3   OH239869   1.123   7.785   2.670
13309TIP3    H139870   1.082   7.867   2.642
13309TIP3    H239871   1.215   7.808   2.683
13310TIP3   OH239872   4.015   0.806   6.476
13310TIP3    H139873   4.028   0.748   6.551
13310TIP3    H239874   3.936   0.855   6.497
13311TIP3   OH239875   7.283   7.559   0.144
13311TIP3    H139876   7.230   7.600   0.213
13311TIP3    H239877   7.373   7.584   0.164
13312TIP3   OH239878   2.764   5.895   5.122
13312TIP3    H139879   2.754   5.804   5.096
13312TIP3    H239880   2.849   5.921   5.087
13313TIP3   OH239881   0.234   1.768  -0.041
13313TIP3    H139882   0.282   1.690  -0.014
13313TIP3    H239883   0.172   1.784   0.029
13314TIP3   OH239884   3.244   2.898   5.836
13314TIP3    H139885   3.208   2.922   5.921
13314TIP3    H239886   3.305   2.826   5.855
13315TIP3   OH239887   2.020   5.957   3.880
13315TIP3    H139888   1.968   6.018   3.933
13315TIP3    H239889   2.091   5.931   3.938
13316TIP3   OH239890   5.988   3.563   0.051
13316TIP3    H139891   6.066   3.617   0.062
13316TIP3    H239892   5.962   3.540   0.140
13317TIP3   OH239893   3.363   0.483   3.133
13317TIP3    H139894   3.282   0.450   3.172
13317TIP3    H239895   3.381   0.564   3.181
13318TIP3   OH239896   7.264   2.148   5.772
13318TIP3    H139897   7.176   2.177   5.795
13318TIP3    H239898   7.321   2.192   5.835
13319TIP3   OH239899   5.590   3.775   3.191
13319TIP3    H139900   5.668   3.815   3.229
13319TIP3    H239901   5.591   3.800   3.099
13320TIP3   OH239902   3.164   1.172   4.951
13320TIP3    H139903   3.233   1.107   4.954
13320TIP3    H239904   3.162   1.210   5.039
13321TIP3   OH239905   5.801   7.760   4.936
13321TIP3    H139906   5.871   7.697   4.920
13321TIP3    H239907   5.802   7.773   5.031
13322TIP3   OH239908   2.153   4.451   2.305
13322TIP3    H139909   2.182   4.412   2.388
13322TIP3    H239910   2.063   4.420   2.295
13323TIP3   OH239911   3.519   7.808   6.583
13323TIP3    H139912   3.603   7.825   6.539
13323TIP3    H239913   3.543   7.781   6.671
13324TIP3   OH239914   1.533   3.154   3.372
13324TIP3    H139915   1.562   3.150   3.281
13324TIP3    H239916   1.440   3.176   3.366
13325TIP3   OH239917   0.030   4.294   1.687
13325TIP3    H139918  -0.051   4.334   1.656
13325TIP3    H239919   0.040   4.329   1.776
13326TIP3   OH239920   0.162   3.380   3.520
13326TIP3    H139921   0.103   3.414   3.453
13326TIP3    H239922   0.106   3.364   3.596
13327TIP3   OH239923   0.803   0.607   5.532
13327TIP3    H139924   0.728   0.551   5.517
13327TIP3    H239925   0.860   0.556   5.591
13328TIP3   OH239926   1.220   2.103   5.316
13328TIP3    H139927   1.187   2.016   5.340
13328TIP3    H239928   1.144   2.148   5.277
13329TIP3   OH239929   4.617   1.628   5.530
13329TIP3    H139930   4.630   1.545   5.574
13329TIP3    H239931   4.538   1.664   5.569
13330TIP3   OH239932   2.192   5.382   0.088
13330TIP3    H139933   2.157   5.319   0.025
13330TIP3    H239934   2.284   5.389   0.065
13331TIP3   OH239935   5.659   3.489   3.291
13331TIP3    H139936   5.683   3.464   3.381
13331TIP3    H239937   5.584   3.547   3.302
13332TIP3   OH239938   4.858   1.317   4.104
13332TIP3    H139939   4.872   1.231   4.065
13332TIP3    H239940   4.780   1.305   4.158
13333TIP3   OH239941   2.400   6.407   3.484
13333TIP3    H139942   2.311   6.414   3.450
13333TIP3    H239943   2.390   6.365   3.569
13334TIP3   OH239944   6.793   1.979   2.088
13334TIP3    H139945   6.739   1.987   2.009
13334TIP3    H239946   6.797   1.885   2.105
13335TIP3   OH239947   2.383   2.105   4.991
13335TIP3    H139948   2.340   2.065   5.067
13335TIP3    H239949   2.411   2.191   5.022
13336TIP3   OH239950   0.685   6.639   0.639
13336TIP3    H139951   0.651   6.726   0.617
13336TIP3    H239952   0.615   6.579   0.614
13337TIP3   OH239953   7.127   3.078   1.100
13337TIP3    H139954   7.161   3.008   1.044
13337TIP3    H239955   7.180   3.073   1.179
13338TIP3   OH239956   5.386   2.540   5.677
13338TIP3    H139957   5.302   2.575   5.709
13338TIP3    H239958   5.374   2.535   5.582
13339TIP3   OH239959   7.834   0.190   0.768
13339TIP3    H139960   7.824   0.121   0.834
13339TIP3    H239961   7.750   0.192   0.722
13340TIP3   OH239962   0.058   4.320   2.863
13340TIP3    H139963   0.131   4.305   2.923
13340TIP3    H239964   0.101   4.342   2.780
13341TIP3   OH239965   8.289   3.902   3.293
13341TIP3    H139966   8.269   3.895   3.199
13341TIP3    H239967   8.317   3.814   3.318
13342TIP3   OH239968   4.591   4.230   2.828
13342TIP3    H139969   4.533   4.208   2.901
13342TIP3    H239970   4.605   4.147   2.782
13343TIP3   OH239971   3.300   6.907   3.300
13343TIP3    H139972   3.310   6.839   3.368
13343TIP3    H239973   3.389   6.926   3.272
13344TIP3   OH239974   1.171   6.052   5.643
13344TIP3    H139975   1.144   5.993   5.713
13344TIP3    H239976   1.267   6.043   5.640
13345TIP3   OH239977   7.747   2.258   3.734
13345TIP3    H139978   7.727   2.348   3.759
13345TIP3    H239979   7.820   2.266   3.672
13346TIP3   OH239980   3.586   7.726   0.234
13346TIP3    H139981   3.642   7.667   0.283
13346TIP3    H239982   3.559   7.792   0.298
13347TIP3   OH239983   3.306   5.258   2.983
13347TIP3    H139984   3.334   5.218   3.065
13347TIP3    H239985   3.211   5.251   2.984
13348TIP3   OH239986   7.658   2.160   6.619
13348TIP3    H139987   7.747   2.136   6.592
13348TIP3    H239988   7.626   2.084   6.667
13349TIP3   OH239989   1.208   2.356   4.775
13349TIP3    H139990   1.167   2.383   4.857
13349TIP3    H239991   1.142   2.304   4.730
13350TIP3   OH239992   7.622   1.528   2.560
13350TIP3    H139993   7.699   1.538   2.505
13350TIP3    H239994   7.549   1.560   2.506
13351TIP3   OH239995   2.751   1.773   4.222
13351TIP3    H139996   2.817   1.792   4.289
13351TIP3    H239997   2.802   1.763   4.141
13352TIP3   OH239998   3.174   6.844   0.670
13352TIP3    H139999   3.212   6.876   0.752
13352TIP3    H240000   3.099   6.901   0.654
13353TIP3   OH240001   1.616   2.635   5.896
13353TIP3    H140002   1.642   2.686   5.819
13353TIP3    H240003   1.584   2.552   5.860
13354TIP3   OH240004   7.206   5.452   4.645
13354TIP3    H140005   7.129   5.398   4.666
13354TIP3    H240006   7.212   5.513   4.718
13355TIP3   OH240007   6.845   7.170   4.842
13355TIP3    H140008   6.868   7.142   4.930
13355TIP3    H240009   6.796   7.252   4.854
13356TIP3   OH240010   2.080   3.032   2.032
13356TIP3    H140011   2.142   2.982   2.084
13356TIP3    H240012   2.093   3.123   2.059
13357TIP3   OH240013   8.304   7.403   1.942
13357TIP3    H140014   8.343   7.354   2.014
13357TIP3    H240015   8.210   7.390   1.951
13358TIP3   OH240016   4.373   6.576   0.507
13358TIP3    H140017   4.286   6.575   0.548
13358TIP3    H240018   4.377   6.493   0.459
13359TIP3   OH240019   4.665   0.355   5.639
13359TIP3    H140020   4.664   0.358   5.734
13359TIP3    H240021   4.624   0.271   5.618
13360TIP3   OH240022   6.105   5.320   2.049
13360TIP3    H140023   6.151   5.321   1.965
13360TIP3    H240024   6.032   5.259   2.036
13361TIP3   OH240025   6.366   3.107   2.750
13361TIP3    H140026   6.456   3.073   2.752
13361TIP3    H240027   6.376   3.201   2.737
13362TIP3   OH240028   2.131   0.858   2.902
13362TIP3    H140029   2.209   0.880   2.852
13362TIP3    H240030   2.060   0.859   2.838
13363TIP3   OH240031   4.295   2.292   4.598
13363TIP3    H140032   4.319   2.366   4.543
13363TIP3    H240033   4.316   2.215   4.545
13364TIP3   OH240034   0.026   1.980   4.619
13364TIP3    H140035   0.081   2.047   4.659
13364TIP3    H240036  -0.041   2.028   4.572
13365TIP3   OH240037   4.863   4.760   1.504
13365TIP3    H140038   4.767   4.761   1.499
13365TIP3    H240039   4.885   4.844   1.544
13366TIP3   OH240040   6.493   4.596   1.014
13366TIP3    H140041   6.530   4.679   1.043
13366TIP3    H240042   6.484   4.606   0.919
13367TIP3   OH240043   6.761   4.383   3.153
13367TIP3    H140044   6.783   4.349   3.240
13367TIP3    H240045   6.813   4.463   3.145
13368TIP3   OH240046   4.441   3.668   5.979
13368TIP3    H140047   4.514   3.729   5.984
13368TIP3    H240048   4.481   3.581   5.984
13369TIP3   OH240049   4.777   7.235   4.340
13369TIP3    H140050   4.828   7.156   4.320
13369TIP3    H240051   4.740   7.218   4.426
13370TIP3   OH240052   6.161   1.603   1.176
13370TIP3    H140053   6.137   1.696   1.183
13370TIP3    H240054   6.103   1.558   1.237
13371TIP3   OH240055   6.143   7.102   5.837
13371TIP3    H140056   6.055   7.132   5.812
13371TIP3    H240057   6.139   7.007   5.831
13372TIP3   OH240058   0.160   1.318   5.201
13372TIP3    H140059   0.238   1.363   5.233
13372TIP3    H240060   0.131   1.370   5.126
13373TIP3   OH240061   5.158   1.364   2.596
13373TIP3    H140062   5.066   1.345   2.580
13373TIP3    H240063   5.196   1.281   2.624
13374TIP3   OH240064   0.939   4.888   1.488
13374TIP3    H140065   0.951   4.912   1.396
13374TIP3    H240066   0.889   4.806   1.485
13375TIP3   OH240067   0.690   2.746   0.263
13375TIP3    H140068   0.644   2.829   0.258
13375TIP3    H240069   0.742   2.752   0.344
13376TIP3   OH240070   1.629   0.098   0.772
13376TIP3    H140071   1.575   0.027   0.807
13376TIP3    H240072   1.601   0.175   0.820
13377TIP3   OH240073   1.296   0.759   2.545
13377TIP3    H140074   1.293   0.806   2.461
13377TIP3    H240075   1.380   0.785   2.583
13378TIP3   OH240076   7.906   2.301   4.475
13378TIP3    H140077   7.981   2.348   4.512
13378TIP3    H240078   7.843   2.370   4.453
13379TIP3   OH240079   1.589   3.453   3.112
13379TIP3    H140080   1.529   3.472   3.185
13379TIP3    H240081   1.589   3.358   3.106
13380TIP3   OH240082   0.859   3.898   3.229
13380TIP3    H140083   0.847   3.822   3.287
13380TIP3    H240084   0.871   3.860   3.142
13381TIP3   OH240085   6.870   0.785   5.220
13381TIP3    H140086   6.845   0.866   5.175
13381TIP3    H240087   6.934   0.744   5.162
13382TIP3   OH240088   6.429   7.439   3.681
13382TIP3    H140089   6.404   7.406   3.767
13382TIP3    H240090   6.424   7.534   3.689
13383TIP3   OH240091   2.141   7.050   4.653
13383TIP3    H140092   2.110   6.982   4.712
13383TIP3    H240093   2.064   7.072   4.600
13384TIP3   OH240094   0.508   2.378   1.986
13384TIP3    H140095   0.470   2.318   1.922
13384TIP3    H240096   0.441   2.386   2.054
13385TIP3   OH240097   5.356   5.226   3.984
13385TIP3    H140098   5.313   5.144   3.961
13385TIP3    H240099   5.370   5.220   4.079
13386TIP3   OH240100   6.722   5.984   4.919
13386TIP3    H140101   6.724   5.992   4.824
13386TIP3    H240102   6.808   6.015   4.947
13387TIP3   OH240103   1.903   0.268   4.323
13387TIP3    H140104   1.821   0.317   4.321
13387TIP3    H240105   1.945   0.294   4.406
13388TIP3   OH240106   6.608   7.669   2.499
13388TIP3    H140107   6.546   7.681   2.427
13388TIP3    H240108   6.623   7.575   2.502
13389TIP3   OH240109   7.734   1.805   4.077
13389TIP3    H140110   7.777   1.843   4.154
13389TIP3    H240111   7.784   1.839   4.002
13390TIP3   OH240112   2.213   3.287   0.038
13390TIP3    H140113   2.252   3.236  -0.033
13390TIP3    H240114   2.118   3.279   0.024
13391TIP3   OH240115   3.383   3.069   3.926
13391TIP3    H140116   3.395   2.975   3.910
13391TIP3    H240117   3.315   3.073   3.993
13392TIP3   OH240118   6.422   1.467   2.395
13392TIP3    H140119   6.457   1.414   2.467
13392TIP3    H240120   6.428   1.409   2.319
13393TIP3   OH240121   3.404   3.112   6.190
13393TIP3    H140122   3.413   3.084   6.281
13393TIP3    H240123   3.363   3.038   6.146
13394TIP3   OH240124   6.498   7.316   6.318
13394TIP3    H140125   6.444   7.308   6.396
13394TIP3    H240126   6.549   7.235   6.316
13395TIP3   OH240127   7.334   1.882   5.784
13395TIP3    H140128   7.306   1.974   5.791
13395TIP3    H240129   7.368   1.874   5.695
13396TIP3   OH240130   1.685   1.962   5.983
13396TIP3    H140131   1.720   1.879   5.950
13396TIP3    H240132   1.657   1.943   6.072
13397TIP3   OH240133   5.464   2.087   1.020
13397TIP3    H140134   5.372   2.090   0.992
13397TIP3    H240135   5.473   2.001   1.061
13398TIP3   OH240136   7.971   1.044   5.531
13398TIP3    H140137   8.064   1.062   5.547
13398TIP3    H240138   7.967   0.949   5.519
13399TIP3   OH240139   2.128   6.790   4.010
13399TIP3    H140140   2.196   6.823   3.951
13399TIP3    H240141   2.101   6.867   4.060
13400TIP3   OH240142   1.719   2.490   3.266
13400TIP3    H140143   1.720   2.402   3.305
13400TIP3    H240144   1.686   2.476   3.178
13401TIP3   OH240145   7.318   5.419   5.531
13401TIP3    H140146   7.258   5.356   5.571
13401TIP3    H240147   7.263   5.495   5.513
13402TIP3   OH240148   1.805   5.820   2.518
13402TIP3    H140149   1.822   5.901   2.564
13402TIP3    H240150   1.866   5.757   2.556
13403TIP3   OH240151   4.821   3.924   6.670
13403TIP3    H140152   4.772   3.855   6.624
13403TIP3    H240153   4.906   3.925   6.627
13404TIP3   OH240154   0.506   3.558   5.652
13404TIP3    H140155   0.434   3.505   5.619
13404TIP3    H240156   0.539   3.604   5.575
13405TIP3   OH240157   6.991   5.012   0.153
13405TIP3    H140158   6.994   4.965   0.236
13405TIP3    H240159   6.940   4.955   0.096
13406TIP3   OH240160   4.476   7.481   1.677
13406TIP3    H140161   4.481   7.403   1.732
13406TIP3    H240162   4.457   7.447   1.590
13407TIP3   OH240163   6.700   3.768   5.702
13407TIP3    H140164   6.720   3.858   5.675
13407TIP3    H240165   6.667   3.727   5.622
13408TIP3   OH240166   2.668   5.727   0.750
13408TIP3    H140167   2.756   5.755   0.776
13408TIP3    H240168   2.661   5.637   0.780
13409TIP3   OH240169   1.897   4.318   5.532
13409TIP3    H140170   1.983   4.312   5.491
13409TIP3    H240171   1.849   4.380   5.477
13410TIP3   OH240172   3.765   4.019   1.200
13410TIP3    H140173   3.779   3.958   1.273
13410TIP3    H240174   3.683   3.989   1.160
13411TIP3   OH240175   7.945   6.960   5.288
13411TIP3    H140176   7.930   7.017   5.363
13411TIP3    H240177   7.875   6.981   5.227
13412TIP3   OH240178   2.944   2.260   5.279
13412TIP3    H140179   2.861   2.293   5.315
13412TIP3    H240180   2.937   2.276   5.185
13413TIP3   OH240181   2.917   4.349   3.894
13413TIP3    H140182   2.872   4.265   3.883
13413TIP3    H240183   2.884   4.383   3.977
13414TIP3   OH240184   3.342   6.710   3.478
13414TIP3    H140185   3.374   6.622   3.461
13414TIP3    H240186   3.375   6.732   3.565
13415TIP3   OH240187   4.811   0.604   1.651
13415TIP3    H140188   4.732   0.628   1.602
13415TIP3    H240189   4.792   0.628   1.741
13416TIP3   OH240190   2.200   5.644   1.660
13416TIP3    H140191   2.288   5.622   1.629
13416TIP3    H240192   2.159   5.690   1.587
13417TIP3   OH240193   4.204   4.849   3.532
13417TIP3    H140194   4.265   4.805   3.473
13417TIP3    H240195   4.136   4.885   3.474
13418TIP3   OH240196   7.700   0.917   0.426
13418TIP3    H140197   7.708   0.976   0.351
13418TIP3    H240198   7.694   0.830   0.388
13419TIP3   OH240199   4.875  -0.002   1.439
13419TIP3    H140200   4.842  -0.001   1.529
13419TIP3    H240201   4.800   0.026   1.386
13420TIP3   OH240202   7.840   1.858   5.780
13420TIP3    H140203   7.868   1.947   5.804
13420TIP3    H240204   7.921   1.812   5.758
13421TIP3   OH240205   5.684   6.790   3.013
13421TIP3    H140206   5.608   6.794   3.070
13421TIP3    H240207   5.685   6.875   2.968
13422TIP3   OH240208   4.314   1.664   0.123
13422TIP3    H140209   4.324   1.636   0.032
13422TIP3    H240210   4.261   1.595   0.163
13423TIP3   OH240211   0.204   2.484   1.726
13423TIP3    H140212   0.134   2.448   1.781
13423TIP3    H240213   0.188   2.446   1.640
13424TIP3   OH240214   2.633   0.495   2.803
13424TIP3    H140215   2.619   0.508   2.897
13424TIP3    H240216   2.715   0.446   2.797
13425TIP3   OH240217   2.124   1.202   1.950
13425TIP3    H140218   2.043   1.253   1.944
13425TIP3    H240219   2.171   1.225   1.869
13426TIP3   OH240220   5.124   1.055   2.160
13426TIP3    H140221   5.140   1.149   2.159
13426TIP3    H240222   5.192   1.019   2.104
13427TIP3   OH240223   1.904   1.737   6.296
13427TIP3    H140224   1.979   1.731   6.355
13427TIP3    H240225   1.934   1.791   6.224
13428TIP3   OH240226   2.912   1.166   3.812
13428TIP3    H140227   2.944   1.077   3.800
13428TIP3    H240228   2.991   1.221   3.808
13429TIP3   OH240229   6.487   3.519   6.622
13429TIP3    H140230   6.402   3.477   6.629
13429TIP3    H240231   6.517   3.498   6.533
13430TIP3   OH240232   3.299   6.096   0.866
13430TIP3    H140233   3.373   6.036   0.873
13430TIP3    H240234   3.224   6.043   0.894
13431TIP3   OH240235   0.661   4.842   1.818
13431TIP3    H140236   0.714   4.765   1.799
13431TIP3    H240237   0.583   4.807   1.861
13432TIP3   OH240238   4.204   1.127   0.945
13432TIP3    H140239   4.265   1.159   0.879
13432TIP3    H240240   4.125   1.104   0.896
13433TIP3   OH240241   6.651   4.565   2.507
13433TIP3    H140242   6.735   4.520   2.494
13433TIP3    H240243   6.625   4.593   2.419
13434TIP3   OH240244   1.238   2.932   0.347
13434TIP3    H140245   1.278   2.996   0.407
13434TIP3    H240246   1.309   2.908   0.288
13435TIP3   OH240247   7.591   3.312   4.496
13435TIP3    H140248   7.619   3.240   4.553
13435TIP3    H240249   7.513   3.278   4.452
13436TIP3   OH240250   4.158   1.941   2.515
13436TIP3    H140251   4.164   1.945   2.420
13436TIP3    H240252   4.118   2.024   2.540
13437TIP3   OH240253   0.427   2.135   6.406
13437TIP3    H140254   0.409   2.113   6.315
13437TIP3    H240255   0.366   2.081   6.457
13438TIP3   OH240256   5.794   5.748   5.832
13438TIP3    H140257   5.731   5.818   5.844
13438TIP3    H240258   5.748   5.683   5.779
13439TIP3   OH240259   7.629   2.251   2.481
13439TIP3    H140260   7.687   2.328   2.478
13439TIP3    H240261   7.625   2.222   2.390
13440TIP3   OH240262   2.629   5.636   3.062
13440TIP3    H140263   2.574   5.561   3.084
13440TIP3    H240264   2.577   5.712   3.086
13441TIP3   OH240265   1.317   6.916   1.628
13441TIP3    H140266   1.316   7.005   1.592
13441TIP3    H240267   1.260   6.920   1.705
13442TIP3   OH240268   2.887   2.732   3.363
13442TIP3    H140269   2.926   2.655   3.321
13442TIP3    H240270   2.905   2.719   3.456
13443TIP3   OH240271   4.467   3.339   1.815
13443TIP3    H140272   4.490   3.336   1.722
13443TIP3    H240273   4.508   3.419   1.847
13444TIP3   OH240274   5.867   1.125   3.107
13444TIP3    H140275   5.900   1.043   3.145
13444TIP3    H240276   5.864   1.186   3.181
13445TIP3   OH240277   4.587   1.152   0.876
13445TIP3    H140278   4.608   1.212   0.948
13445TIP3    H240279   4.493   1.161   0.865
13446TIP3   OH240280   6.896   5.096   2.458
13446TIP3    H140281   6.928   5.005   2.457
13446TIP3    H240282   6.801   5.088   2.451
13447TIP3   OH240283   4.478   0.808   1.316
13447TIP3    H140284   4.545   0.872   1.341
13447TIP3    H240285   4.500   0.783   1.226
13448TIP3   OH240286   7.959   2.079   4.043
13448TIP3    H140287   7.999   2.036   4.118
13448TIP3    H240288   7.866   2.054   4.047
13449TIP3   OH240289   4.696   5.584   1.650
13449TIP3    H140290   4.704   5.586   1.555
13449TIP3    H240291   4.697   5.677   1.676
13450TIP3   OH240292   0.987   6.150   2.829
13450TIP3    H140293   0.920   6.189   2.773
13450TIP3    H240294   1.049   6.222   2.846
13451TIP3   OH240295   2.113   7.625   0.321
13451TIP3    H140296   2.099   7.612   0.415
13451TIP3    H240297   2.027   7.646   0.286
13452TIP3   OH240298   4.965   5.191   3.106
13452TIP3    H140299   4.873   5.192   3.079
13452TIP3    H240300   4.988   5.283   3.117
13453TIP3   OH240301   3.301   2.426   1.734
13453TIP3    H140302   3.319   2.363   1.803
13453TIP3    H240303   3.328   2.382   1.653
13454TIP3   OH240304   0.188   6.696   2.725
13454TIP3    H140305   0.119   6.755   2.754
13454TIP3    H240306   0.261   6.753   2.701
13455TIP3   OH240307   3.799   1.440   1.778
13455TIP3    H140308   3.803   1.457   1.684
13455TIP3    H240309   3.865   1.499   1.816
13456TIP3   OH240310   5.372   5.870   2.192
13456TIP3    H140311   5.461   5.837   2.197
13456TIP3    H240312   5.320   5.796   2.161
13457TIP3   OH240313   0.436   6.444   5.621
13457TIP3    H140314   0.467   6.373   5.564
13457TIP3    H240315   0.475   6.424   5.707
13458TIP3   OH240316   2.322   2.479   1.800
13458TIP3    H140317   2.265   2.402   1.808
13458TIP3    H240318   2.404   2.452   1.841
13459TIP3   OH240319   4.955   2.834   4.997
13459TIP3    H140320   4.994   2.919   5.016
13459TIP3    H240321   5.009   2.798   4.927
13460TIP3   OH240322   6.108   6.991   4.343
13460TIP3    H140323   6.054   6.932   4.397
13460TIP3    H240324   6.172   6.933   4.302
13461TIP3   OH240325   3.154   3.897   6.714
13461TIP3    H140326   3.099   3.842   6.658
13461TIP3    H240327   3.171   3.843   6.792
13462TIP3   OH240328   4.926   1.741   2.330
13462TIP3    H140329   5.002   1.794   2.354
13462TIP3    H240330   4.888   1.714   2.414
13463TIP3   OH240331   5.429   2.927   3.644
13463TIP3    H140332   5.417   2.859   3.711
13463TIP3    H240333   5.378   2.896   3.569
13464TIP3   OH240334   6.495   5.135   4.981
13464TIP3    H140335   6.411   5.143   4.937
13464TIP3    H240336   6.473   5.107   5.070
13465TIP3   OH240337   4.345   0.361   3.859
13465TIP3    H140338   4.383   0.381   3.774
13465TIP3    H240339   4.368   0.436   3.914
13466TIP3   OH240340   6.382   5.910   2.117
13466TIP3    H140341   6.414   5.893   2.206
13466TIP3    H240342   6.450   5.963   2.077
13467TIP3   OH240343   5.640   2.219   2.840
13467TIP3    H140344   5.708   2.153   2.854
13467TIP3    H240345   5.579   2.206   2.913
13468TIP3   OH240346   7.375   4.243   3.096
13468TIP3    H140347   7.423   4.253   3.178
13468TIP3    H240348   7.400   4.318   3.043
13469TIP3   OH240349   4.329   3.346   0.201
13469TIP3    H140350   4.318   3.403   0.277
13469TIP3    H240351   4.247   3.296   0.197
13470TIP3   OH240352   6.666   0.944   1.211
13470TIP3    H140353   6.600   0.897   1.262
13470TIP3    H240354   6.739   0.956   1.271
13471TIP3   OH240355   6.378   3.777   6.386
13471TIP3    H140356   6.347   3.838   6.318
13471TIP3    H240357   6.470   3.800   6.399
13472TIP3   OH240358   3.612   4.390   4.678
13472TIP3    H140359   3.604   4.480   4.648
13472TIP3    H240360   3.688   4.391   4.736
13473TIP3   OH240361   1.597   4.083   5.650
13473TIP3    H140362   1.561   4.072   5.738
13473TIP3    H240363   1.691   4.066   5.661
13474TIP3   OH240364   1.109   5.151   3.542
13474TIP3    H140365   1.174   5.141   3.611
13474TIP3    H240366   1.158   5.189   3.469
13475TIP3   OH240367   5.084   7.113   6.100
13475TIP3    H140368   5.145   7.041   6.117
13475TIP3    H240369   5.022   7.076   6.037
13476TIP3   OH240370   7.167   6.675   3.185
13476TIP3    H140371   7.082   6.630   3.184
13476TIP3    H240372   7.144   6.768   3.193
13477TIP3   OH240373   4.063   3.853   2.138
13477TIP3    H140374   3.989   3.868   2.197
13477TIP3    H240375   4.033   3.883   2.052
13478TIP3   OH240376   5.437   2.261   6.038
13478TIP3    H140377   5.467   2.310   6.114
13478TIP3    H240378   5.493   2.183   6.035
13479TIP3   OH240379   1.882   4.364   5.212
13479TIP3    H140380   1.811   4.319   5.166
13479TIP3    H240381   1.958   4.354   5.156
13480TIP3   OH240382   2.635   5.587   0.511
13480TIP3    H140383   2.548   5.549   0.520
13480TIP3    H240384   2.638   5.656   0.578
13481TIP3   OH240385   5.448   6.859   6.471
13481TIP3    H140386   5.451   6.901   6.557
13481TIP3    H240387   5.396   6.780   6.485
13482TIP3   OH240388   7.788   3.862   0.069
13482TIP3    H140389   7.749   3.895  -0.011
13482TIP3    H240390   7.881   3.851   0.047
13483TIP3   OH240391   7.939   5.620   0.666
13483TIP3    H140392   7.978   5.704   0.642
13483TIP3    H240393   8.014   5.566   0.692
13484TIP3   OH240394   6.040   5.435   6.396
13484TIP3    H140395   5.960   5.412   6.347
13484TIP3    H240396   6.016   5.514   6.446
13485TIP3   OH240397   2.967   4.976   5.484
13485TIP3    H140398   3.040   4.938   5.533
13485TIP3    H240399   2.929   4.903   5.435
13486TIP3   OH240400   3.893   2.120   3.837
13486TIP3    H140401   3.955   2.189   3.816
13486TIP3    H240402   3.896   2.060   3.762
13487TIP3   OH240403   7.890   7.001   0.473
13487TIP3    H140404   7.943   7.007   0.553
13487TIP3    H240405   7.934   7.060   0.411
13488TIP3   OH240406   7.929   3.397   0.904
13488TIP3    H140407   7.842   3.375   0.938
13488TIP3    H240408   7.984   3.323   0.930
13489TIP3   OH240409   5.377   1.941   6.165
13489TIP3    H140410   5.399   1.849   6.183
13489TIP3    H240411   5.293   1.937   6.119
13490TIP3   OH240412   6.295   3.935   3.757
13490TIP3    H140413   6.335   3.848   3.750
13490TIP3    H240414   6.367   3.996   3.745
13491TIP3   OH240415   4.205   1.037   5.031
13491TIP3    H140416   4.240   1.116   5.073
13491TIP3    H240417   4.220   0.967   5.095
13492TIP3   OH240418   7.293   3.070   1.311
13492TIP3    H140419   7.325   3.153   1.346
13492TIP3    H240420   7.290   3.012   1.387
13493TIP3   OH240421   2.239   3.777   4.729
13493TIP3    H140422   2.154   3.764   4.772
13493TIP3    H240423   2.240   3.712   4.659
13494TIP3   OH240424   1.316   4.924   4.745
13494TIP3    H140425   1.234   4.921   4.696
13494TIP3    H240426   1.362   5.000   4.710
13495TIP3   OH240427   0.218   5.438   0.585
13495TIP3    H140428   0.302   5.452   0.543
13495TIP3    H240429   0.235   5.454   0.678
13496TIP3   OH240430   7.691   6.528   6.278
13496TIP3    H140431   7.776   6.500   6.244
13496TIP3    H240432   7.696   6.623   6.282
13497TIP3   OH240433   2.854   5.157   6.126
13497TIP3    H140434   2.867   5.187   6.216
13497TIP3    H240435   2.793   5.221   6.088
13498TIP3   OH240436   7.381   3.415   4.803
13498TIP3    H140437   7.322   3.458   4.866
13498TIP3    H240438   7.355   3.323   4.805
13499TIP3   OH240439   2.105   4.117   1.437
13499TIP3    H140440   2.142   4.100   1.524
13499TIP3    H240441   2.011   4.107   1.448
13500TIP3   OH240442   5.767   2.426   4.847
13500TIP3    H140443   5.851   2.467   4.869
13500TIP3    H240444   5.789   2.334   4.831
13501TIP3   OH240445   3.687   4.152   5.777
13501TIP3    H140446   3.692   4.058   5.792
13501TIP3    H240447   3.710   4.163   5.685
13502TIP3   OH240448   4.176   5.612   4.722
13502TIP3    H140449   4.268   5.596   4.743
13502TIP3    H240450   4.140   5.526   4.704
13503TIP3   OH240451   4.973   6.143   2.340
13503TIP3    H140452   4.994   6.127   2.248
13503TIP3    H240453   5.058   6.143   2.384
13504TIP3   OH240454   6.393   7.503   4.809
13504TIP3    H140455   6.304   7.487   4.839
13504TIP3    H240456   6.429   7.416   4.793
13505TIP3   OH240457   0.426   5.039   0.967
13505TIP3    H140458   0.447   5.131   0.952
13505TIP3    H240459   0.388   5.010   0.885
13506TIP3   OH240460   2.250   4.815   5.861
13506TIP3    H140461   2.165   4.858   5.848
13506TIP3    H240462   2.296   4.870   5.924
13507TIP3   OH240463   6.401   4.974   6.159
13507TIP3    H140464   6.497   4.977   6.165
13507TIP3    H240465   6.384   4.938   6.072
13508TIP3   OH240466   7.926   3.064   3.736
13508TIP3    H140467   7.993   3.048   3.803
13508TIP3    H240468   7.894   3.153   3.755
13509TIP3   OH240469   7.112   6.222   3.030
13509TIP3    H140470   7.106   6.239   2.936
13509TIP3    H240471   7.202   6.245   3.052
13510TIP3   OH240472   1.241   0.677   0.308
13510TIP3    H140473   1.244   0.773   0.304
13510TIP3    H240474   1.313   0.654   0.366
13511TIP3   OH240475   2.500   1.888   5.253
13511TIP3    H140476   2.491   1.813   5.195
13511TIP3    H240477   2.426   1.944   5.231
13512TIP3   OH240478   3.807   4.385   4.366
13512TIP3    H140479   3.739   4.424   4.311
13512TIP3    H240480   3.845   4.460   4.413
13513TIP3   OH240481   1.793   7.426   3.629
13513TIP3    H140482   1.886   7.415   3.652
13513TIP3    H240483   1.778   7.520   3.637
13514TIP3   OH240484   7.768   7.399   1.600
13514TIP3    H140485   7.767   7.306   1.582
13514TIP3    H240486   7.749   7.405   1.694
13515TIP3   OH240487   4.650   5.793   4.454
13515TIP3    H140488   4.578   5.761   4.400
13515TIP3    H240489   4.729   5.767   4.406
13516TIP3   OH240490   2.185   2.630   0.127
13516TIP3    H140491   2.174   2.593   0.039
13516TIP3    H240492   2.168   2.558   0.186
13517TIP3   OH240493   7.391   4.856   3.367
13517TIP3    H140494   7.309   4.885   3.327
13517TIP3    H240495   7.368   4.838   3.458
13518TIP3   OH240496   6.004   5.800   0.158
13518TIP3    H140497   6.015   5.713   0.119
13518TIP3    H240498   6.063   5.856   0.107
13519TIP3   OH240499   3.027   2.361   6.551
13519TIP3    H140500   2.995   2.384   6.463
13519TIP3    H240501   3.085   2.433   6.575
13520TIP3   OH240502   4.723   6.159   4.741
13520TIP3    H140503   4.748   6.237   4.791
13520TIP3    H240504   4.751   6.086   4.796
13521TIP3   OH240505   2.420   4.249   0.100
13521TIP3    H140506   2.412   4.283   0.189
13521TIP3    H240507   2.510   4.215   0.095
13522TIP3   OH240508   0.798   5.111   1.135
13522TIP3    H140509   0.789   5.129   1.041
13522TIP3    H240510   0.708   5.102   1.166
13523TIP3   OH240511   7.061   6.672   4.817
13523TIP3    H140512   7.083   6.705   4.904
13523TIP3    H240513   7.143   6.677   4.768
13524TIP3   OH240514   4.904   7.203   2.473
13524TIP3    H140515   4.876   7.293   2.489
13524TIP3    H240516   4.995   7.201   2.503
13525TIP3   OH240517   2.735   0.944   5.320
13525TIP3    H140518   2.823   0.907   5.323
13525TIP3    H240519   2.700   0.918   5.235
13526TIP3   OH240520   5.006   0.861   1.638
13526TIP3    H140521   4.937   0.863   1.704
13526TIP3    H240522   4.993   0.779   1.591
13527TIP3   OH240523   2.627   2.734   4.333
13527TIP3    H140524   2.618   2.655   4.386
13527TIP3    H240525   2.653   2.702   4.246
13528TIP3   OH240526   5.959   6.414   5.784
13528TIP3    H140527   6.045   6.433   5.745
13528TIP3    H240528   5.900   6.477   5.744
13529TIP3   OH240529   0.514   0.111   0.892
13529TIP3    H140530   0.487   0.076   0.977
13529TIP3    H240531   0.440   0.094   0.834
13530TIP3   OH240532   8.129   6.811   5.839
13530TIP3    H140533   8.179   6.732   5.817
13530TIP3    H240534   8.050   6.805   5.786
13531TIP3   OH240535   3.893   6.605   4.110
13531TIP3    H140536   3.862   6.524   4.152
13531TIP3    H240537   3.877   6.591   4.017
13532TIP3   OH240538   7.759   0.601   3.368
13532TIP3    H140539   7.768   0.507   3.381
13532TIP3    H240540   7.752   0.611   3.273
13533TIP3   OH240541   6.960   4.683   4.063
13533TIP3    H140542   6.985   4.600   4.021
13533TIP3    H240543   6.952   4.661   4.156
13534TIP3   OH240544   6.301   4.840   5.312
13534TIP3    H140545   6.280   4.842   5.219
13534TIP3    H240546   6.218   4.821   5.356
13535TIP3   OH240547   8.220   6.973   5.560
13535TIP3    H140548   8.126   6.975   5.574
13535TIP3    H240549   8.242   6.880   5.557
13536TIP3   OH240550   2.236   1.044   1.023
13536TIP3    H140551   2.300   1.003   0.964
13536TIP3    H240552   2.190   1.107   0.967
13537TIP3   OH240553   4.735   7.345   5.886
13537TIP3    H140554   4.694   7.301   5.811
13537TIP3    H240555   4.677   7.326   5.959
13538TIP3   OH240556   4.535   5.948   3.952
13538TIP3    H140557   4.507   5.986   4.036
13538TIP3    H240558   4.547   6.024   3.895
13539TIP3   OH240559   0.532   3.885   3.800
13539TIP3    H140560   0.449   3.843   3.775
13539TIP3    H240561   0.515   3.979   3.792
13540TIP3   OH240562   0.337   7.309   4.988
13540TIP3    H140563   0.406   7.292   5.053
13540TIP3    H240564   0.382   7.354   4.917
13541TIP3   OH240565   7.914   3.714   3.714
13541TIP3    H140566   7.898   3.623   3.689
13541TIP3    H240567   7.952   3.755   3.636
13542TIP3   OH240568   7.005   2.971   6.438
13542TIP3    H140569   7.073   3.020   6.391
13542TIP3    H240570   6.973   2.907   6.374
13543TIP3   OH240571   3.609   1.618   5.946
13543TIP3    H140572   3.514   1.611   5.952
13543TIP3    H240573   3.627   1.711   5.963
13544TIP3   OH240574   7.388   3.297   6.472
13544TIP3    H140575   7.365   3.357   6.544
13544TIP3    H240576   7.309   3.244   6.460
13545TIP3   OH240577   7.675   2.602   5.304
13545TIP3    H140578   7.612   2.641   5.365
13545TIP3    H240579   7.633   2.520   5.276
13546TIP3   OH240580   7.537   1.226   4.585
13546TIP3    H140581   7.612   1.241   4.528
13546TIP3    H240582   7.575   1.219   4.673
13547TIP3   OH240583   0.197   7.173   6.841
13547TIP3    H140584   0.226   7.223   6.765
13547TIP3    H240585   0.277   7.130   6.873
13548TIP3   OH240586   1.025   4.214   6.346
13548TIP3    H140587   1.040   4.250   6.258
13548TIP3    H240588   1.112   4.191   6.378
13549TIP3   OH240589   3.991   2.775   2.232
13549TIP3    H140590   3.974   2.861   2.271
13549TIP3    H240591   3.904   2.739   2.217
13550TIP3   OH240592   3.812   0.868   2.290
13550TIP3    H140593   3.870   0.798   2.261
13550TIP3    H240594   3.775   0.836   2.372
13551TIP3   OH240595   1.834   5.622   1.855
13551TIP3    H140596   1.904   5.610   1.919
13551TIP3    H240597   1.854   5.560   1.786
13552TIP3   OH240598   4.913   3.617   0.097
13552TIP3    H140599   5.004   3.587   0.093
13552TIP3    H240600   4.918   3.710   0.076
13553TIP3   OH240601   7.412   2.579   5.726
13553TIP3    H140602   7.358   2.524   5.669
13553TIP3    H240603   7.476   2.619   5.668
13554TIP3   OH240604   7.308   4.542   6.441
13554TIP3    H140605   7.385   4.598   6.430
13554TIP3    H240606   7.327   4.490   6.519
13555TIP3   OH240607   8.126   5.253   0.576
13555TIP3    H140608   8.182   5.178   0.596
13555TIP3    H240609   8.176   5.305   0.513
13556TIP3   OH240610   1.424   5.314   1.162
13556TIP3    H140611   1.461   5.356   1.084
13556TIP3    H240612   1.499   5.280   1.210
13557TIP3   OH240613   2.328   0.416   3.580
13557TIP3    H140614   2.250   0.380   3.622
13557TIP3    H240615   2.312   0.405   3.487
13558TIP3   OH240616   4.241   0.389   1.556
13558TIP3    H140617   4.207   0.431   1.477
13558TIP3    H240618   4.328   0.357   1.531
13559TIP3   OH240619   1.951   2.572   0.403
13559TIP3    H140620   1.942   2.476   0.400
13559TIP3    H240621   1.866   2.605   0.376
13560TIP3   OH240622   4.747   3.627   4.110
13560TIP3    H140623   4.721   3.575   4.034
13560TIP3    H240624   4.800   3.698   4.074
13561TIP3   OH240625   0.686   6.441   5.988
13561TIP3    H140626   0.663   6.354   6.021
13561TIP3    H240627   0.680   6.432   5.893
13562TIP3   OH240628   3.514   7.469   5.362
13562TIP3    H140629   3.566   7.458   5.282
13562TIP3    H240630   3.451   7.538   5.340
13563TIP3   OH240631   7.919   7.148   3.329
13563TIP3    H140632   7.947   7.101   3.251
13563TIP3    H240633   7.858   7.214   3.297
13564TIP3   OH240634   5.634   4.123   2.734
13564TIP3    H140635   5.557   4.172   2.708
13564TIP3    H240636   5.708   4.178   2.706
13565TIP3   OH240637   4.244   1.595   1.011
13565TIP3    H140638   4.310   1.663   1.017
13565TIP3    H240639   4.165   1.640   0.980
13566TIP3   OH240640   1.097   1.630   5.579
13566TIP3    H140641   1.017   1.578   5.568
13566TIP3    H240642   1.164   1.565   5.599
13567TIP3   OH240643   0.604   2.811   6.356
13567TIP3    H140644   0.543   2.765   6.298
13567TIP3    H240645   0.684   2.758   6.355
13568TIP3   OH240646   4.389   6.250   4.990
13568TIP3    H140647   4.449   6.297   4.931
13568TIP3    H240648   4.433   6.252   5.075
13569TIP3   OH240649   1.911   5.299   5.623
13569TIP3    H140650   1.893   5.369   5.560
13569TIP3    H240651   1.825   5.263   5.645
13570TIP3   OH240652   4.972   6.693   2.119
13570TIP3    H140653   4.898   6.635   2.103
13570TIP3    H240654   4.937   6.762   2.176
13571TIP3   OH240655   3.282   2.262   3.501
13571TIP3    H140656   3.300   2.253   3.408
13571TIP3    H240657   3.203   2.209   3.516
13572TIP3   OH240658   0.822   7.310   6.447
13572TIP3    H140659   0.851   7.291   6.536
13572TIP3    H240660   0.750   7.248   6.432
13573TIP3   OH240661   0.208   5.946   6.136
13573TIP3    H140662   0.219   5.881   6.067
13573TIP3    H240663   0.115   5.966   6.135
13574TIP3   OH240664   4.938   4.387   3.029
13574TIP3    H140665   5.016   4.356   2.982
13574TIP3    H240666   4.941   4.343   3.113
13575TIP3   OH240667   5.451   7.244   1.467
13575TIP3    H140668   5.433   7.166   1.519
13575TIP3    H240669   5.527   7.221   1.415
13576TIP3   OH240670   2.139   5.650   2.464
13576TIP3    H140671   2.191   5.572   2.485
13576TIP3    H240672   2.167   5.674   2.375
13577TIP3   OH240673   4.036   1.836   1.540
13577TIP3    H140674   4.075   1.790   1.613
13577TIP3    H240675   4.073   1.924   1.543
13578TIP3   OH240676   1.161   3.732   1.558
13578TIP3    H140677   1.239   3.719   1.503
13578TIP3    H240678   1.147   3.648   1.600
13579TIP3   OH240679   1.418   3.176   6.736
13579TIP3    H140680   1.490   3.205   6.793
13579TIP3    H240681   1.449   3.093   6.699
13580TIP3   OH240682   3.328   6.500   4.871
13580TIP3    H140683   3.309   6.497   4.964
13580TIP3    H240684   3.253   6.544   4.832
13581TIP3   OH240685   4.266   7.612   4.325
13581TIP3    H140686   4.309   7.591   4.408
13581TIP3    H240687   4.215   7.533   4.304
13582TIP3   OH240688   1.846   4.136   1.585
13582TIP3    H140689   1.760   4.099   1.606
13582TIP3    H240690   1.872   4.183   1.664
13583TIP3   OH240691   3.694   6.519   1.304
13583TIP3    H140692   3.741   6.548   1.226
13583TIP3    H240693   3.732   6.433   1.323
13584TIP3   OH240694   1.902   4.167   4.389
13584TIP3    H140695   1.831   4.139   4.331
13584TIP3    H240696   1.864   4.239   4.440
13585TIP3   OH240697   6.246   5.929   2.524
13585TIP3    H140698   6.179   5.964   2.465
13585TIP3    H240699   6.316   5.898   2.466
13586TIP3   OH240700   4.679   1.956   3.784
13586TIP3    H140701   4.736   1.883   3.759
13586TIP3    H240702   4.624   1.921   3.854
13587TIP3   OH240703   4.213   2.735   6.718
13587TIP3    H140704   4.184   2.823   6.693
13587TIP3    H240705   4.215   2.686   6.636
13588TIP3   OH240706   6.158   2.488   3.244
13588TIP3    H140707   6.137   2.508   3.153
13588TIP3    H240708   6.074   2.495   3.290
13589TIP3   OH240709   4.549   3.804   5.476
13589TIP3    H140710   4.570   3.711   5.463
13589TIP3    H240711   4.617   3.836   5.534
13590TIP3   OH240712   2.982   4.163   6.565
13590TIP3    H140713   2.912   4.098   6.577
13590TIP3    H240714   3.057   4.112   6.536
13591TIP3   OH240715   2.543   1.002   3.507
13591TIP3    H140716   2.504   0.915   3.496
13591TIP3    H240717   2.500   1.037   3.585
13592TIP3   OH240718   2.861   4.768   3.656
13592TIP3    H140719   2.835   4.688   3.703
13592TIP3    H240720   2.849   4.838   3.720
13593TIP3   OH240721   6.183   5.471   3.477
13593TIP3    H140722   6.156   5.513   3.396
13593TIP3    H240723   6.216   5.542   3.531
13594TIP3   OH240724   1.559   3.241   2.195
13594TIP3    H140725   1.463   3.241   2.203
13594TIP3    H240726   1.575   3.211   2.105
13595TIP3   OH240727   1.339   7.335   0.955
13595TIP3    H140728   1.364   7.426   0.938
13595TIP3    H240729   1.245   7.339   0.972
13596TIP3   OH240730   5.172   0.174   6.627
13596TIP3    H140731   5.185   0.267   6.647
13596TIP3    H240732   5.088   0.171   6.581
13597TIP3   OH240733   7.638   4.749   6.486
13597TIP3    H140734   7.670   4.807   6.417
13597TIP3    H240735   7.711   4.744   6.549
13598TIP3   OH240736   6.171   0.065   0.711
13598TIP3    H140737   6.167  -0.022   0.750
13598TIP3    H240738   6.164   0.125   0.785
13599TIP3   OH240739   3.027   6.569   6.551
13599TIP3    H140740   3.087   6.626   6.502
13599TIP3    H240741   2.961   6.544   6.487
13600TIP3   OH240742   3.187   4.622   6.290
13600TIP3    H140743   3.238   4.543   6.274
13600TIP3    H240744   3.248   4.681   6.334
13601TIP3   OH240745   1.362   5.527   2.100
13601TIP3    H140746   1.357   5.469   2.024
13601TIP3    H240747   1.446   5.506   2.141
13602TIP3   OH240748   6.535   5.067   1.574
13602TIP3    H140749   6.542   5.012   1.496
13602TIP3    H240750   6.612   5.046   1.626
13603TIP3   OH240751   8.017   1.842   0.379
13603TIP3    H140752   8.076   1.906   0.340
13603TIP3    H240753   7.929   1.869   0.351
13604TIP3   OH240754   8.222   3.199   6.202
13604TIP3    H140755   8.208   3.153   6.119
13604TIP3    H240756   8.317   3.195   6.216
13605TIP3   OH240757   4.810   4.541   0.485
13605TIP3    H140758   4.735   4.499   0.528
13605TIP3    H240759   4.784   4.546   0.393
13606TIP3   OH240760   1.815   1.278   6.603
13606TIP3    H140761   1.834   1.190   6.569
13606TIP3    H240762   1.859   1.337   6.541
13607TIP3   OH240763   1.552   4.563   5.426
13607TIP3    H140764   1.505   4.519   5.355
13607TIP3    H240765   1.642   4.571   5.393
13608TIP3   OH240766   0.465   3.063   2.853
13608TIP3    H140767   0.418   3.055   2.936
13608TIP3    H240768   0.410   3.120   2.800
13609TIP3   OH240769   2.346   1.631   3.283
13609TIP3    H140770   2.277   1.569   3.261
13609TIP3    H240771   2.340   1.699   3.216
13610TIP3   OH240772   5.749   7.524   1.256
13610TIP3    H140773   5.688   7.596   1.238
13610TIP3    H240774   5.818   7.565   1.309
13611TIP3   OH240775   4.388   0.500   5.110
13611TIP3    H140776   4.307   0.532   5.149
13611TIP3    H240777   4.452   0.568   5.127
13612TIP3   OH240778   4.013   7.536   1.504
13612TIP3    H140779   4.089   7.514   1.557
13612TIP3    H240780   4.017   7.631   1.494
13613TIP3   OH240781   7.876   3.323   0.617
13613TIP3    H140782   7.806   3.264   0.645
13613TIP3    H240783   7.924   3.345   0.697
13614TIP3   OH240784   4.359   7.535   3.459
13614TIP3    H140785   4.425   7.475   3.492
13614TIP3    H240786   4.322   7.491   3.382
13615TIP3   OH240787   4.306   6.422   2.537
13615TIP3    H140788   4.386   6.459   2.500
13615TIP3    H240789   4.236   6.463   2.486
13616TIP3   OH240790   4.348   1.745   5.519
13616TIP3    H140791   4.318   1.749   5.610
13616TIP3    H240792   4.300   1.815   5.474
13617TIP3   OH240793   4.613   1.657   4.402
13617TIP3    H140794   4.566   1.740   4.409
13617TIP3    H240795   4.593   1.612   4.484
13618TIP3   OH240796   6.890   1.120   6.684
13618TIP3    H140797   6.855   1.168   6.759
13618TIP3    H240798   6.817   1.066   6.654
13619TIP3   OH240799   6.233   2.219   6.563
13619TIP3    H140800   6.151   2.174   6.546
13619TIP3    H240801   6.299   2.167   6.517
13620TIP3   OH240802   1.884   6.775   0.113
13620TIP3    H140803   1.881   6.870   0.103
13620TIP3    H240804   1.976   6.756   0.136
13621TIP3   OH240805   7.280   4.242   5.604
13621TIP3    H140806   7.240   4.177   5.662
13621TIP3    H240807   7.369   4.210   5.590
13622TIP3   OH240808   1.255   6.301   6.260
13622TIP3    H140809   1.214   6.386   6.280
13622TIP3    H240810   1.261   6.257   6.344
13623TIP3   OH240811   8.272   3.413   1.245
13623TIP3    H140812   8.193   3.383   1.291
13623TIP3    H240813   8.239   3.469   1.175
13624TIP3   OH240814   5.556   5.204   2.878
13624TIP3    H140815   5.465   5.190   2.849
13624TIP3    H240816   5.548   5.258   2.956
13625TIP3   OH240817   2.958   7.283   5.824
13625TIP3    H140818   2.998   7.274   5.737
13625TIP3    H240819   3.031   7.304   5.882
13626TIP3   OH240820   3.800   5.881   1.905
13626TIP3    H140821   3.709   5.910   1.907
13626TIP3    H240822   3.842   5.941   1.843
13627TIP3   OH240823   5.443   5.633   4.389
13627TIP3    H140824   5.456   5.587   4.306
13627TIP3    H240825   5.524   5.619   4.438
13628TIP3   OH240826   6.234   0.321   5.815
13628TIP3    H140827   6.262   0.294   5.728
13628TIP3    H240828   6.163   0.383   5.799
13629TIP3   OH240829   5.634   4.486   3.031
13629TIP3    H140830   5.696   4.440   3.088
13629TIP3    H240831   5.559   4.504   3.088
13630TIP3   OH240832   5.844   7.202   0.025
13630TIP3    H140833   5.914   7.138   0.025
13630TIP3    H240834   5.822   7.213   0.118
13631TIP3   OH240835   3.839   1.534   5.252
13631TIP3    H140836   3.826   1.625   5.224
13631TIP3    H240837   3.887   1.541   5.334
13632TIP3   OH240838   4.647   2.339   3.416
13632TIP3    H140839   4.741   2.334   3.428
13632TIP3    H240840   4.613   2.264   3.465
13633TIP3   OH240841   0.148   0.224   1.348
13633TIP3    H140842   0.159   0.317   1.330
13633TIP3    H240843   0.064   0.202   1.308
13634TIP3   OH240844   7.928   6.024   6.806
13634TIP3    H140845   7.999   5.998   6.747
13634TIP3    H240846   7.871   6.080   6.753
13635TIP3   OH240847   2.452   2.424   3.233
13635TIP3    H140848   2.540   2.461   3.224
13635TIP3    H240849   2.396   2.498   3.255
13636TIP3   OH240850   2.422   3.954   2.023
13636TIP3    H140851   2.425   4.025   2.087
13636TIP3    H240852   2.339   3.966   1.977
13637TIP3   OH240853   7.783   1.545   1.908
13637TIP3    H140854   7.861   1.541   1.963
13637TIP3    H240855   7.788   1.631   1.866
13638TIP3   OH240856   2.504   2.262   1.854
13638TIP3    H140857   2.486   2.227   1.942
13638TIP3    H240858   2.472   2.194   1.794
13639TIP3   OH240859   7.841   4.717   5.383
13639TIP3    H140860   7.756   4.734   5.423
13639TIP3    H240861   7.821   4.697   5.291
13640TIP3   OH240862   2.669   1.268   3.042
13640TIP3    H140863   2.654   1.184   3.085
13640TIP3    H240864   2.624   1.260   2.958
13641TIP3   OH240865   2.217   6.541   5.174
13641TIP3    H140866   2.311   6.554   5.167
13641TIP3    H240867   2.191   6.594   5.249
13642TIP3   OH240868   2.695   2.179   0.761
13642TIP3    H140869   2.674   2.171   0.668
13642TIP3    H240870   2.737   2.264   0.769
13643TIP3   OH240871   3.985   2.318   3.002
13643TIP3    H140872   4.048   2.253   3.033
13643TIP3    H240873   4.035   2.400   2.997
13644TIP3   OH240874   6.028   3.807   6.516
13644TIP3    H140875   5.971   3.880   6.540
13644TIP3    H240876   6.114   3.848   6.501
13645TIP3   OH240877   5.568   3.994   6.065
13645TIP3    H140878   5.632   4.063   6.048
13645TIP3    H240879   5.617   3.927   6.114
13646TIP3   OH240880   4.773   7.791   6.378
13646TIP3    H140881   4.838   7.740   6.328
13646TIP3    H240882   4.742   7.731   6.445
13647TIP3   OH240883   3.416   3.850   6.554
13647TIP3    H140884   3.453   3.913   6.492
13647TIP3    H240885   3.328   3.882   6.572
13648TIP3   OH240886   2.405   6.355   0.400
13648TIP3    H140887   2.413   6.404   0.318
13648TIP3    H240888   2.432   6.418   0.468
13649TIP3   OH240889   4.810   7.352   0.540
13649TIP3    H140890   4.788   7.272   0.492
13649TIP3    H240891   4.884   7.390   0.492
13650TIP3   OH240892   1.413   5.027   2.961
13650TIP3    H140893   1.449   5.063   2.880
13650TIP3    H240894   1.366   5.099   3.002
13651TIP3   OH240895   4.082   1.775   3.935
13651TIP3    H140896   4.159   1.737   3.893
13651TIP3    H240897   4.038   1.824   3.866
13652TIP3   OH240898   5.345   1.911   0.210
13652TIP3    H140899   5.318   1.977   0.146
13652TIP3    H240900   5.440   1.909   0.204
13653TIP3   OH240901   5.686   6.366   0.245
13653TIP3    H140902   5.668   6.386   0.336
13653TIP3    H240903   5.780   6.380   0.235
13654TIP3   OH240904   7.706   6.336   1.065
13654TIP3    H140905   7.787   6.380   1.038
13654TIP3    H240906   7.690   6.369   1.154
13655TIP3   OH240907   0.413   7.598   5.488
13655TIP3    H140908   0.465   7.531   5.532
13655TIP3    H240909   0.340   7.550   5.450
13656TIP3   OH240910   3.090   0.805   3.472
13656TIP3    H140911   3.015   0.859   3.498
13656TIP3    H240912   3.139   0.860   3.411
13657TIP3   OH240913   5.703   7.206   0.263
13657TIP3    H140914   5.645   7.135   0.236
13657TIP3    H240915   5.648   7.263   0.317
13658TIP3   OH240916   8.032   6.474  -0.032
13658TIP3    H140917   7.980   6.435   0.039
13658TIP3    H240918   8.076   6.548   0.009
13659TIP3   OH240919   5.646   6.773   2.669
13659TIP3    H140920   5.653   6.867   2.650
13659TIP3    H240921   5.654   6.767   2.764
13660TIP3   OH240922   7.968   2.540   3.304
13660TIP3    H140923   8.045   2.574   3.350
13660TIP3    H240924   8.003   2.472   3.247
13661TIP3   OH240925   0.862   0.261   3.255
13661TIP3    H140926   0.885   0.283   3.165
13661TIP3    H240927   0.782   0.209   3.248
13662TIP3   OH240928   6.602   0.203   5.048
13662TIP3    H140929   6.557   0.176   5.128
13662TIP3    H240930   6.539   0.184   4.978
13663TIP3   OH240931   4.664   4.168   4.143
13663TIP3    H140932   4.745   4.120   4.159
13663TIP3    H240933   4.658   4.171   4.047
13664TIP3   OH240934   3.726   2.246   2.390
13664TIP3    H140935   3.772   2.325   2.418
13664TIP3    H240936   3.638   2.275   2.368
13665TIP3   OH240937   1.963   3.085   4.829
13665TIP3    H140938   2.035   3.073   4.767
13665TIP3    H240939   2.003   3.129   4.904
13666TIP3   OH240940   1.175   3.711   0.903
13666TIP3    H140941   1.267   3.698   0.876
13666TIP3    H240942   1.133   3.627   0.885
13667TIP3   OH240943   5.318   0.825   6.296
13667TIP3    H140944   5.298   0.791   6.209
13667TIP3    H240945   5.254   0.784   6.354
13668TIP3   OH240946   7.961   1.497   6.601
13668TIP3    H140947   7.937   1.587   6.579
13668TIP3    H240948   8.046   1.505   6.644
13669TIP3   OH240949   0.485   4.720   5.071
13669TIP3    H140950   0.509   4.809   5.047
13669TIP3    H240951   0.517   4.665   5.000
13670TIP3   OH240952   6.979   7.279   1.972
13670TIP3    H140953   7.011   7.215   1.908
13670TIP3    H240954   6.884   7.265   1.973
13671TIP3   OH240955   0.596   4.366   5.319
13671TIP3    H140956   0.523   4.424   5.300
13671TIP3    H240957   0.600   4.363   5.415
13672TIP3   OH240958   0.740   4.364   1.098
13672TIP3    H140959   0.763   4.357   1.191
13672TIP3    H240960   0.823   4.353   1.052
13673TIP3   OH240961   1.303   6.368   4.042
13673TIP3    H140962   1.393   6.396   4.057
13673TIP3    H240963   1.255   6.401   4.118
13674TIP3   OH240964   8.112   3.612   1.474
13674TIP3    H140965   8.055   3.643   1.545
13674TIP3    H240966   8.053   3.598   1.400
13675TIP3   OH240967   2.156   6.336   0.580
13675TIP3    H140968   2.062   6.319   0.575
13675TIP3    H240969   2.187   6.279   0.651
13676TIP3   OH240970   5.512   0.361   0.402
13676TIP3    H140971   5.592   0.328   0.360
13676TIP3    H240972   5.460   0.398   0.330
13677TIP3   OH240973   6.987   2.223   3.537
13677TIP3    H140974   7.082   2.228   3.527
13677TIP3    H240975   6.952   2.239   3.450
13678TIP3   OH240976   7.454   4.234   6.556
13678TIP3    H140977   7.549   4.244   6.552
13678TIP3    H240978   7.440   4.140   6.545
13679TIP3   OH240979   1.170   0.899   5.571
13679TIP3    H140980   1.222   0.822   5.595
13679TIP3    H240981   1.083   0.882   5.608
13680TIP3   OH240982   3.871   7.448   0.158
13680TIP3    H140983   3.930   7.375   0.140
13680TIP3    H240984   3.922   7.526   0.138
13681TIP3   OH240985   1.469   2.930   6.650
13681TIP3    H140986   1.502   2.928   6.561
13681TIP3    H240987   1.403   2.860   6.653
13682TIP3   OH240988   0.239   1.741   5.645
13682TIP3    H140989   0.224   1.824   5.691
13682TIP3    H240990   0.160   1.728   5.593
13683TIP3   OH240991   6.237   5.911   6.187
13683TIP3    H140992   6.248   5.861   6.268
13683TIP3    H240993   6.248   5.847   6.117
13684TIP3   OH240994   5.240   1.007   2.917
13684TIP3    H140995   5.260   1.016   2.824
13684TIP3    H240996   5.272   0.920   2.941
13685TIP3   OH240997   2.130   2.785   2.677
13685TIP3    H140998   2.135   2.850   2.606
13685TIP3    H240999   2.060   2.817   2.734
13686TIP3   OH241000   2.301   3.870   3.990
13686TIP3    H141001   2.258   3.886   4.074
13686TIP3    H241002   2.344   3.953   3.969
13687TIP3   OH241003   6.950   6.557   1.081
13687TIP3    H141004   6.861   6.566   1.047
13687TIP3    H241005   6.945   6.480   1.138
13688TIP3   OH241006   5.048   0.958   3.614
13688TIP3    H141007   5.004   1.040   3.589
13688TIP3    H241008   4.978   0.903   3.649
13689TIP3   OH241009   1.175   2.713   5.490
13689TIP3    H141010   1.159   2.784   5.429
13689TIP3    H241011   1.270   2.714   5.504
13690TIP3   OH241012   0.155   4.044   4.551
13690TIP3    H141013   0.245   4.014   4.535
13690TIP3    H241014   0.121   3.984   4.618
13691TIP3   OH241015   4.488   1.709   4.922
13691TIP3    H141016   4.555   1.646   4.896
13691TIP3    H241017   4.421   1.701   4.854
13692TIP3   OH241018   7.787   3.952   4.426
13692TIP3    H141019   7.706   3.944   4.477
13692TIP3    H241020   7.813   4.043   4.437
13693TIP3   OH241021   3.539   4.297   5.965
13693TIP3    H141022   3.570   4.229   5.906
13693TIP3    H241023   3.540   4.256   6.052
13694TIP3   OH241024   2.719   7.637   3.432
13694TIP3    H141025   2.648   7.600   3.380
13694TIP3    H241026   2.695   7.617   3.523
13695TIP3   OH241027   1.094   1.474   1.618
13695TIP3    H141028   1.037   1.513   1.685
13695TIP3    H241029   1.181   1.507   1.639
13696TIP3   OH241030   7.407   1.428   5.483
13696TIP3    H141031   7.395   1.354   5.543
13696TIP3    H241032   7.459   1.393   5.411
13697TIP3   OH241033   3.913   1.973   0.369
13697TIP3    H141034   3.825   1.950   0.340
13697TIP3    H241035   3.932   2.056   0.326
13698TIP3   OH241036   1.817   5.598   5.263
13698TIP3    H141037   1.773   5.594   5.178
13698TIP3    H241038   1.882   5.668   5.253
13699TIP3   OH241039   4.468   3.068   6.491
13699TIP3    H141040   4.460   2.975   6.467
13699TIP3    H241041   4.461   3.114   6.407
13700TIP3   OH241042   3.315   4.398   4.117
13700TIP3    H141043   3.259   4.334   4.161
13700TIP3    H241044   3.308   4.376   4.024
13701TIP3   OH241045   0.507   5.653   6.612
13701TIP3    H141046   0.490   5.691   6.698
13701TIP3    H241047   0.602   5.654   6.604
13702TIP3   OH241048   8.130   3.757   5.444
13702TIP3    H141049   8.134   3.831   5.504
13702TIP3    H241050   8.222   3.734   5.429
13703TIP3   OH241051   3.791   1.055   1.915
13703TIP3    H141052   3.797   0.974   1.864
13703TIP3    H241053   3.874   1.059   1.963
13704TIP3   OH241054   0.937   1.975   0.002
13704TIP3    H141055   0.865   2.026  -0.036
13704TIP3    H241056   0.991   2.040   0.046
13705TIP3   OH241057   4.938   2.054   0.925
13705TIP3    H141058   5.011   2.013   0.972
13705TIP3    H241059   4.961   2.045   0.833
13706TIP3   OH241060   0.094   3.927   2.244
13706TIP3    H141061   0.029   3.857   2.255
13706TIP3    H241062   0.067   3.994   2.307
13707TIP3   OH241063   5.360   7.258   4.667
13707TIP3    H141064   5.339   7.197   4.738
13707TIP3    H241065   5.355   7.204   4.587
13708TIP3   OH241066   0.780   6.029   3.337
13708TIP3    H141067   0.697   6.002   3.299
13708TIP3    H241068   0.838   6.043   3.262
13709TIP3   OH241069   7.158   1.488   6.421
13709TIP3    H141070   7.221   1.541   6.469
13709TIP3    H241071   7.109   1.552   6.368
13710TIP3   OH241072   5.299   4.957   1.219
13710TIP3    H141073   5.323   5.039   1.262
13710TIP3    H241074   5.298   4.892   1.289
13711TIP3   OH241075   5.646   0.596   0.764
13711TIP3    H141076   5.650   0.627   0.855
13711TIP3    H241077   5.563   0.549   0.758
13712TIP3   OH241078   6.892   1.264   4.331
13712TIP3    H141079   6.966   1.250   4.391
13712TIP3    H241080   6.832   1.321   4.380
13713TIP3   OH241081   7.440   0.971   2.052
13713TIP3    H141082   7.501   1.013   1.991
13713TIP3    H241083   7.465   0.878   2.049
13714TIP3   OH241084   6.963   3.958   5.388
13714TIP3    H141085   6.954   4.040   5.437
13714TIP3    H241086   7.051   3.962   5.350
13715TIP3   OH241087   6.330   0.624   1.328
13715TIP3    H141088   6.246   0.642   1.369
13715TIP3    H241089   6.328   0.674   1.246
13716TIP3   OH241090   5.955   1.060   5.739
13716TIP3    H141091   5.918   1.126   5.681
13716TIP3    H241092   6.040   1.039   5.701
13717TIP3   OH241093   4.638   7.353   6.157
13717TIP3    H141094   4.555   7.396   6.176
13717TIP3    H241095   4.699   7.389   6.222
13718TIP3   OH241096   5.836   1.543   0.215
13718TIP3    H141097   5.862   1.528   0.306
13718TIP3    H241098   5.880   1.625   0.191
13719TIP3   OH241099   7.382   7.375   1.857
13719TIP3    H141100   7.302   7.364   1.807
13719TIP3    H241101   7.420   7.287   1.862
13720TIP3   OH241102   6.933   6.922   4.415
13720TIP3    H141103   6.982   7.004   4.419
13720TIP3    H241104   6.899   6.909   4.504
13721TIP3   OH241105   3.418   3.971   4.555
13721TIP3    H141106   3.413   3.924   4.472
13721TIP3    H241107   3.446   4.059   4.531
13722TIP3   OH241108   2.685   6.127   0.686
13722TIP3    H141109   2.689   6.043   0.732
13722TIP3    H241110   2.619   6.177   0.734
13723TIP3   OH241111   5.901   5.242   2.787
13723TIP3    H141112   5.897   5.228   2.693
13723TIP3    H241113   5.855   5.325   2.801
13724TIP3   OH241114   7.423   5.274   5.836
13724TIP3    H141115   7.372   5.194   5.821
13724TIP3    H241116   7.460   5.295   5.750
13725TIP3   OH241117   5.176   4.769   4.642
13725TIP3    H141118   5.242   4.782   4.573
13725TIP3    H241119   5.093   4.767   4.595
13726TIP3   OH241120   5.025   7.360   0.376
13726TIP3    H141121   5.100   7.340   0.431
13726TIP3    H241122   5.018   7.287   0.316
13727TIP3   OH241123   7.924   3.604   2.287
13727TIP3    H141124   7.956   3.520   2.255
13727TIP3    H241125   7.990   3.631   2.352
13728TIP3   OH241126   4.233   1.192   2.951
13728TIP3    H141127   4.266   1.114   2.907
13728TIP3    H241128   4.280   1.265   2.912
13729TIP3   OH241129   7.772   0.079   5.250
13729TIP3    H141130   7.792   0.009   5.312
13729TIP3    H241131   7.857   0.111   5.220
13730TIP3   OH241132   2.495   6.758   0.036
13730TIP3    H141133   2.501   6.769   0.131
13730TIP3    H241134   2.585   6.762   0.005
13731TIP3   OH241135   7.146   3.270   4.018
13731TIP3    H141136   7.129   3.194   3.962
13731TIP3    H241137   7.060   3.305   4.037
13732TIP3   OH241138   3.651   5.518   2.903
13732TIP3    H141139   3.591   5.466   2.850
13732TIP3    H241140   3.703   5.454   2.951
13733TIP3   OH241141   1.306   6.507   2.346
13733TIP3    H141142   1.223   6.555   2.341
13733TIP3    H241143   1.337   6.503   2.256
13734TIP3   OH241144   1.500   0.411   0.469
13734TIP3    H141145   1.555   0.441   0.542
13734TIP3    H241146   1.445   0.486   0.448
13735TIP3   OH241147   1.564   6.612   3.161
13735TIP3    H141148   1.553   6.671   3.087
13735TIP3    H241149   1.563   6.669   3.238
13736TIP3   OH241150   0.815   6.649   1.428
13736TIP3    H141151   0.907   6.655   1.454
13736TIP3    H241152   0.777   6.586   1.488
13737TIP3   OH241153   1.098   3.424   3.649
13737TIP3    H141154   1.034   3.425   3.577
13737TIP3    H241155   1.056   3.370   3.717
13738TIP3   OH241156   4.221   5.957   3.246
13738TIP3    H141157   4.197   6.037   3.293
13738TIP3    H241158   4.278   5.987   3.175
13739TIP3   OH241159   6.551   1.250   1.204
13739TIP3    H141160   6.589   1.162   1.199
13739TIP3    H241161   6.562   1.276   1.296
13740TIP3   OH241162   7.784   2.100   1.668
13740TIP3    H141163   7.698   2.090   1.708
13740TIP3    H241164   7.818   2.182   1.705
13741TIP3   OH241165   4.951   1.048   1.255
13741TIP3    H141166   4.910   0.963   1.269
13741TIP3    H241167   4.945   1.092   1.339
13742TIP3   OH241168   3.260   6.722   0.220
13742TIP3    H141169   3.248   6.628   0.237
13742TIP3    H241170   3.175   6.752   0.190
13743TIP3   OH241171   3.357   2.640   1.583
13743TIP3    H141172   3.342   2.556   1.627
13743TIP3    H241173   3.403   2.693   1.649
13744TIP3   OH241174   2.824   0.366   2.022
13744TIP3    H141175   2.759   0.424   2.059
13744TIP3    H241176   2.905   0.417   2.023
13745TIP3   OH241177   8.036   2.291   6.712
13745TIP3    H141178   8.108   2.338   6.754
13745TIP3    H241179   7.958   2.342   6.735
13746TIP3   OH241180   8.145   3.962   1.427
13746TIP3    H141181   8.200   3.989   1.501
13746TIP3    H241182   8.196   3.895   1.382
13747TIP3   OH241183   1.128   6.398   4.244
13747TIP3    H141184   1.059   6.423   4.306
13747TIP3    H241185   1.088   6.330   4.189
13748TIP3   OH241186   3.420   3.408   0.321
13748TIP3    H141187   3.432   3.470   0.393
13748TIP3    H241188   3.416   3.322   0.365
13749TIP3   OH241189   6.122   3.672   0.458
13749TIP3    H141190   6.200   3.619   0.472
13749TIP3    H241191   6.100   3.706   0.545
13750TIP3   OH241192   0.019   5.289   0.343
13750TIP3    H141193   0.089   5.355   0.350
13750TIP3    H241194   0.021   5.261   0.252
13751TIP3   OH241195   7.004   0.369   6.096
13751TIP3    H141196   7.065   0.299   6.071
13751TIP3    H241197   6.917   0.329   6.089
13752TIP3   OH241198   1.458   5.382   6.590
13752TIP3    H141199   1.391   5.314   6.597
13752TIP3    H241200   1.410   5.461   6.566
13753TIP3   OH241201   1.406   2.439   3.199
13753TIP3    H141202   1.327   2.439   3.145
13753TIP3    H241203   1.475   2.406   3.142
13754TIP3   OH241204   1.849   3.790   5.443
13754TIP3    H141205   1.768   3.808   5.394
13754TIP3    H241206   1.891   3.876   5.452
13755TIP3   OH241207   2.084   3.323   5.317
13755TIP3    H141208   2.176   3.312   5.340
13755TIP3    H241209   2.070   3.418   5.317
13756TIP3   OH241210   3.965   3.586   6.361
13756TIP3    H141211   4.043   3.606   6.412
13756TIP3    H241212   3.988   3.509   6.310
13757TIP3   OH241213   0.380   2.197   4.141
13757TIP3    H141214   0.359   2.265   4.205
13757TIP3    H241215   0.366   2.239   4.056
13758TIP3   OH241216   4.956   2.473   4.128
13758TIP3    H141217   5.040   2.518   4.122
13758TIP3    H241218   4.976   2.382   4.106
13759TIP3   OH241219   2.957   3.775   1.051
13759TIP3    H141220   2.986   3.854   1.004
13759TIP3    H241221   2.891   3.806   1.112
13760TIP3   OH241222   5.081   2.388   4.470
13760TIP3    H141223   5.050   2.332   4.399
13760TIP3    H241224   5.064   2.477   4.439
13761TIP3   OH241225   6.161   5.294   2.961
13761TIP3    H141226   6.106   5.341   3.023
13761TIP3    H241227   6.106   5.283   2.884
13762TIP3   OH241228   7.402   3.961   6.508
13762TIP3    H141229   7.476   3.914   6.472
13762TIP3    H241230   7.325   3.918   6.470
13763TIP3   OH241231   4.882   3.331   2.625
13763TIP3    H141232   4.970   3.327   2.588
13763TIP3    H241233   4.883   3.266   2.695
13764TIP3   OH241234   5.020   1.933   2.560
13764TIP3    H141235   5.046   1.897   2.645
13764TIP3    H241236   4.929   1.959   2.572
13765TIP3   OH241237   0.760   5.800   0.173
13765TIP3    H141238   0.747   5.882   0.126
13765TIP3    H241239   0.844   5.811   0.219
13766TIP3   OH241240   5.772   4.934   1.165
13766TIP3    H141241   5.701   4.895   1.216
13766TIP3    H241242   5.790   5.017   1.209
13767TIP3   OH241243   5.061   4.401   0.489
13767TIP3    H141244   4.988   4.462   0.498
13767TIP3    H241245   5.126   4.431   0.553
13768TIP3   OH241246   6.903   1.637   1.612
13768TIP3    H141247   6.911   1.699   1.684
13768TIP3    H241248   6.909   1.690   1.533
13769TIP3   OH241249   7.161   5.696   1.021
13769TIP3    H141250   7.136   5.709   1.112
13769TIP3    H241251   7.112   5.619   0.993
13770TIP3   OH241252   3.572   2.951   0.024
13770TIP3    H141253   3.494   2.973   0.076
13770TIP3    H241254   3.540   2.943  -0.065
13771TIP3   OH241255   7.711   0.684   0.016
13771TIP3    H141256   7.650   0.682   0.089
13771TIP3    H241257   7.764   0.605   0.027
13772TIP3   OH241258   2.859   5.226   0.734
13772TIP3    H141259   2.932   5.165   0.739
13772TIP3    H241260   2.781   5.171   0.730
13773TIP3   OH241261   2.424   3.511  -0.009
13773TIP3    H141262   2.511   3.477   0.013
13773TIP3    H241263   2.363   3.451   0.034
13774TIP3   OH241264   6.776   6.972   2.285
13774TIP3    H141265   6.821   7.025   2.350
13774TIP3    H241266   6.692   7.015   2.271
13775TIP3   OH241267   5.914   3.419   1.621
13775TIP3    H141268   5.829   3.444   1.657
13775TIP3    H241269   5.941   3.343   1.673
13776TIP3   OH241270   7.815   0.373   1.235
13776TIP3    H141271   7.860   0.341   1.313
13776TIP3    H241272   7.722   0.363   1.255
13777TIP3   OH241273   0.718   0.783   4.054
13777TIP3    H141274   0.690   0.701   4.094
13777TIP3    H241275   0.647   0.845   4.073
13778TIP3   OH241276   0.942   7.455   4.043
13778TIP3    H141277   0.931   7.439   4.137
13778TIP3    H241278   1.036   7.463   4.031
13779TIP3   OH241279   4.462   1.371   2.082
13779TIP3    H141280   4.487   1.461   2.061
13779TIP3    H241281   4.512   1.351   2.162
13780TIP3   OH241282   2.233   5.250   4.592
13780TIP3    H141283   2.252   5.323   4.533
13780TIP3    H241284   2.317   5.229   4.632
13781TIP3   OH241285   1.380   0.088   0.621
13781TIP3    H141286   1.320   0.094   0.696
13781TIP3    H241287   1.465   0.111   0.656
13782TIP3   OH241288   3.677   1.916   3.639
13782TIP3    H141289   3.664   1.839   3.695
13782TIP3    H241290   3.615   1.981   3.673
13783TIP3   OH241291   4.667   2.421   1.598
13783TIP3    H141292   4.624   2.350   1.550
13783TIP3    H241293   4.610   2.436   1.674
13784TIP3   OH241294   4.820   3.629   4.429
13784TIP3    H141295   4.780   3.547   4.455
13784TIP3    H241296   4.828   3.623   4.334
13785TIP3   OH241297   3.788   1.680   6.657
13785TIP3    H141298   3.765   1.658   6.748
13785TIP3    H241299   3.818   1.597   6.619
13786TIP3   OH241300   6.243   4.322   5.936
13786TIP3    H141301   6.175   4.388   5.944
13786TIP3    H241302   6.258   4.314   5.842
13787TIP3   OH241303   5.470   6.138   4.709
13787TIP3    H141304   5.383   6.108   4.684
13787TIP3    H241305   5.526   6.111   4.637
13788TIP3   OH241306   3.507   1.346   1.374
13788TIP3    H141307   3.460   1.420   1.413
13788TIP3    H241308   3.593   1.381   1.352
13789TIP3   OH241309   4.980   0.402   2.739
13789TIP3    H141310   4.964   0.483   2.689
13789TIP3    H241311   4.977   0.429   2.830
13790TIP3   OH241312   2.932   1.868   0.557
13790TIP3    H141313   2.925   1.777   0.528
13790TIP3    H241314   2.968   1.862   0.646
13791TIP3   OH241315   7.861   4.788   3.326
13791TIP3    H141316   7.883   4.871   3.285
13791TIP3    H241317   7.767   4.777   3.310
13792TIP3   OH241318   7.849   6.575   2.008
13792TIP3    H141319   7.819   6.534   1.927
13792TIP3    H241320   7.879   6.662   1.981
13793TIP3   OH241321   5.849   7.154   5.838
13793TIP3    H141322   5.784   7.193   5.781
13793TIP3    H241323   5.803   7.138   5.920
13794TIP3   OH241324   6.576   2.346   5.379
13794TIP3    H141325   6.644   2.289   5.344
13794TIP3    H241326   6.557   2.408   5.308
13795TIP3   OH241327   2.712   1.669   0.586
13795TIP3    H141328   2.750   1.639   0.504
13795TIP3    H241329   2.639   1.725   0.561
13796TIP3   OH241330   2.895   0.444   6.510
13796TIP3    H141331   2.844   0.363   6.506
13796TIP3    H241332   2.979   0.422   6.470
13797TIP3   OH241333   1.358   3.401   5.064
13797TIP3    H141334   1.348   3.318   5.111
13797TIP3    H241335   1.359   3.377   4.971
13798TIP3   OH241336   1.683   2.150   0.631
13798TIP3    H141337   1.661   2.237   0.598
13798TIP3    H241338   1.694   2.163   0.725
13799TIP3   OH241339   4.318   4.479   4.416
13799TIP3    H141340   4.397   4.448   4.372
13799TIP3    H241341   4.262   4.402   4.425
13800TIP3   OH241342   6.693   6.454   4.300
13800TIP3    H141343   6.746   6.532   4.283
13800TIP3    H241344   6.741   6.407   4.368
13801TIP3   OH241345   4.237   6.045   6.381
13801TIP3    H141346   4.196   6.097   6.312
13801TIP3    H241347   4.268   5.966   6.336
13802TIP3   OH241348   7.994   7.644   6.775
13802TIP3    H141349   7.994   7.681   6.687
13802TIP3    H241350   8.056   7.697   6.823
13803TIP3   OH241351   0.498   6.652   3.304
13803TIP3    H141352   0.423   6.705   3.327
13803TIP3    H241353   0.562   6.670   3.373
13804TIP3   OH241354   3.330   2.151   3.258
13804TIP3    H141355   3.331   2.063   3.295
13804TIP3    H241356   3.421   2.168   3.233
13805TIP3   OH241357   4.651   0.242   3.492
13805TIP3    H141358   4.724   0.226   3.433
13805TIP3    H241359   4.578   0.268   3.436
13806TIP3   OH241360   0.379   6.497   0.978
13806TIP3    H141361   0.395   6.465   0.889
13806TIP3    H241362   0.285   6.483   0.992
13807TIP3   OH241363   8.205   5.053   1.851
13807TIP3    H141364   8.269   4.988   1.880
13807TIP3    H241365   8.120   5.011   1.865
13808TIP3   OH241366   7.522   2.730   5.501
13808TIP3    H141367   7.461   2.792   5.462
13808TIP3    H241368   7.581   2.784   5.554
13809TIP3   OH241369   4.304   7.048   1.784
13809TIP3    H141370   4.220   7.014   1.816
13809TIP3    H241371   4.352   6.970   1.756
13810TIP3   OH241372   4.490   3.949   0.719
13810TIP3    H141373   4.417   3.941   0.780
13810TIP3    H241374   4.509   3.858   0.694
13811TIP3   OH241375   2.171   5.357   5.985
13811TIP3    H141376   2.086   5.384   5.950
13811TIP3    H241377   2.156   5.346   6.079
13812TIP3   OH241378   0.580   1.392   0.408
13812TIP3    H141379   0.657   1.336   0.415
13812TIP3    H241380   0.550   1.380   0.318
13813TIP3   OH241381   2.669   1.576   3.052
13813TIP3    H141382   2.601   1.545   2.992
13813TIP3    H241383   2.740   1.605   2.995
13814TIP3   OH241384   7.288   7.539   6.431
13814TIP3    H141385   7.254   7.556   6.519
13814TIP3    H241386   7.361   7.600   6.422
13815TIP3   OH241387   7.324   5.282   1.321
13815TIP3    H141388   7.269   5.359   1.318
13815TIP3    H241389   7.266   5.209   1.301
13816TIP3   OH241390   4.688   3.194   5.829
13816TIP3    H141391   4.633   3.127   5.868
13816TIP3    H241392   4.739   3.148   5.762
13817TIP3   OH241393   1.440   5.216   3.558
13817TIP3    H141394   1.504   5.146   3.553
13817TIP3    H241395   1.392   5.199   3.639
13818TIP3   OH241396   6.876   4.981   4.146
13818TIP3    H141397   6.849   4.893   4.170
13818TIP3    H241398   6.968   4.972   4.122
13819TIP3   OH241399   5.921   2.048   0.819
13819TIP3    H141400   5.845   2.098   0.847
13819TIP3    H241401   5.896   2.011   0.735
13820TIP3   OH241402   6.379   2.377   3.657
13820TIP3    H141403   6.403   2.368   3.565
13820TIP3    H241404   6.458   2.352   3.705
13821TIP3   OH241405   6.194   6.205   3.167
13821TIP3    H141406   6.223   6.292   3.140
13821TIP3    H241407   6.267   6.169   3.216
13822TIP3   OH241408   0.334   1.789   2.000
13822TIP3    H141409   0.249   1.824   2.028
13822TIP3    H241410   0.356   1.839   1.921
13823TIP3   OH241411   7.677   3.044   4.624
13823TIP3    H141412   7.668   3.000   4.539
13823TIP3    H241413   7.605   3.009   4.676
13824TIP3   OH241414   0.281   1.300   3.915
13824TIP3    H141415   0.315   1.222   3.869
13824TIP3    H241416   0.299   1.283   4.007
13825TIP3   OH241417   6.065   4.139   2.839
13825TIP3    H141418   6.157   4.142   2.866
13825TIP3    H241419   6.066   4.091   2.756
13826TIP3   OH241420   1.902   6.049   2.621
13826TIP3    H141421   1.860   6.096   2.693
13826TIP3    H241422   1.914   6.115   2.553
13827TIP3   OH241423   6.341   6.571   4.617
13827TIP3    H141424   6.272   6.635   4.633
13827TIP3    H241425   6.300   6.486   4.634
13828TIP3   OH241426   3.222   0.126   0.921
13828TIP3    H141427   3.245   0.046   0.968
13828TIP3    H241428   3.137   0.107   0.881
13829TIP3   OH241429   4.031   4.825   6.410
13829TIP3    H141430   4.099   4.891   6.414
13829TIP3    H241431   3.970   4.849   6.480
13830TIP3   OH241432   7.925   7.461   4.293
13830TIP3    H141433   8.014   7.495   4.301
13830TIP3    H241434   7.871   7.527   4.337
13831TIP3   OH241435   0.125   4.209   3.767
13831TIP3    H141436   0.213   4.177   3.786
13831TIP3    H241437   0.073   4.130   3.752
13832TIP3   OH241438   7.449   5.233   2.471
13832TIP3    H141439   7.403   5.290   2.410
13832TIP3    H241440   7.443   5.146   2.432
13833TIP3   OH241441   5.295   6.521   3.171
13833TIP3    H141442   5.318   6.434   3.205
13833TIP3    H241443   5.210   6.541   3.211
13834TIP3   OH241444   4.745   5.415   0.498
13834TIP3    H141445   4.830   5.388   0.464
13834TIP3    H241446   4.720   5.347   0.560
13835TIP3   OH241447   7.113   7.414   5.038
13835TIP3    H141448   7.130   7.377   4.951
13835TIP3    H241449   7.180   7.376   5.094
13836TIP3   OH241450   2.161   6.285   1.056
13836TIP3    H141451   2.136   6.313   0.968
13836TIP3    H241452   2.087   6.310   1.112
13837TIP3   OH241453   3.331   1.313   6.270
13837TIP3    H141454   3.347   1.302   6.364
13837TIP3    H241455   3.326   1.224   6.236
13838TIP3   OH241456   4.363   6.122   2.633
13838TIP3    H141457   4.384   6.215   2.625
13838TIP3    H241458   4.289   6.120   2.693
13839TIP3   OH241459   1.286   0.573   4.201
13839TIP3    H141460   1.213   0.553   4.260
13839TIP3    H241461   1.244   0.600   4.119
13840TIP3   OH241462   0.451   5.967   6.262
13840TIP3    H141463   0.441   5.877   6.293
13840TIP3    H241464   0.385   5.976   6.193
13841TIP3   OH241465   2.634   2.878   4.858
13841TIP3    H141466   2.709   2.938   4.863
13841TIP3    H241467   2.673   2.794   4.834
13842TIP3   OH241468   2.958   0.648   0.561
13842TIP3    H141469   2.899   0.586   0.605
13842TIP3    H241470   2.904   0.726   0.548
13843TIP3   OH241471   2.000   1.385   3.693
13843TIP3    H141472   2.016   1.293   3.675
13843TIP3    H241473   2.010   1.392   3.788
13844TIP3   OH241474   4.258   7.371   6.522
13844TIP3    H141475   4.193   7.442   6.522
13844TIP3    H241476   4.208   7.293   6.498
13845TIP3   OH241477   2.795   5.977   6.689
13845TIP3    H141478   2.867   6.012   6.637
13845TIP3    H241479   2.832   5.967   6.777
13846TIP3   OH241480   5.585   5.191   4.173
13846TIP3    H141481   5.604   5.206   4.080
13846TIP3    H241482   5.647   5.247   4.219
13847TIP3   OH241483   6.038   6.290   1.905
13847TIP3    H141484   6.080   6.334   1.980
13847TIP3    H241485   6.050   6.351   1.832
13848TIP3   OH241486   4.050   1.475   0.706
13848TIP3    H141487   4.138   1.506   0.688
13848TIP3    H241488   4.006   1.549   0.748
13849TIP3   OH241489   6.527   4.513   3.841
13849TIP3    H141490   6.606   4.478   3.801
13849TIP3    H241491   6.462   4.510   3.771
13850TIP3   OH241492   5.183   4.430   4.672
13850TIP3    H141493   5.206   4.417   4.580
13850TIP3    H241494   5.100   4.384   4.683
13851TIP3   OH241495   5.330   6.035   4.396
13851TIP3    H141496   5.407   6.079   4.360
13851TIP3    H241497   5.274   6.107   4.428
13852TIP3   OH241498   4.178   0.241   4.146
13852TIP3    H141499   4.214   0.327   4.125
13852TIP3    H241500   4.136   0.212   4.065
13853TIP3   OH241501   6.655   3.533   4.148
13853TIP3    H141502   6.623   3.541   4.058
13853TIP3    H241503   6.609   3.456   4.182
13854TIP3   OH241504   3.215   6.970   6.025
13854TIP3    H141505   3.290   7.018   5.989
13854TIP3    H241506   3.166   7.035   6.075
13855TIP3   OH241507   2.693   0.435   4.619
13855TIP3    H141508   2.716   0.342   4.619
13855TIP3    H241509   2.777   0.480   4.630
13856TIP3   OH241510   7.183   1.932   3.599
13856TIP3    H141511   7.255   1.994   3.586
13856TIP3    H241512   7.142   1.925   3.513
13857TIP3   OH241513   4.931   6.038   5.420
13857TIP3    H141514   4.976   5.966   5.465
13857TIP3    H241515   5.001   6.084   5.373
13858TIP3   OH241516   2.077   6.981   3.521
13858TIP3    H141517   2.023   7.037   3.466
13858TIP3    H241518   2.163   6.981   3.479
13859TIP3   OH241519   3.491   6.002   6.655
13859TIP3    H141520   3.421   5.960   6.604
13859TIP3    H241521   3.448   6.077   6.698
13860TIP3   OH241522   6.659   4.498   4.343
13860TIP3    H141523   6.752   4.502   4.322
13860TIP3    H241524   6.617   4.468   4.262
13861TIP3   OH241525   4.405   1.380   2.838
13861TIP3    H141526   4.410   1.476   2.839
13861TIP3    H241527   4.407   1.357   2.745
13862TIP3   OH241528   3.828   3.552   3.043
13862TIP3    H141529   3.738   3.526   3.062
13862TIP3    H241530   3.839   3.635   3.089
13863TIP3   OH241531   1.517   3.377   0.527
13863TIP3    H141532   1.540   3.311   0.592
13863TIP3    H241533   1.600   3.421   0.506
13864TIP3   OH241534   5.815   1.523   3.565
13864TIP3    H141535   5.850   1.445   3.609
13864TIP3    H241536   5.820   1.592   3.631
13865TIP3   OH241537   5.366   6.647   3.606
13865TIP3    H141538   5.429   6.586   3.643
13865TIP3    H241539   5.394   6.733   3.638
13866TIP3   OH241540   5.586   0.996   4.879
13866TIP3    H141541   5.666   0.944   4.877
13866TIP3    H241542   5.605   1.071   4.822
13867TIP3   OH241543   7.097   6.535   0.170
13867TIP3    H141544   7.176   6.519   0.119
13867TIP3    H241545   7.026   6.537   0.105
13868TIP3   OH241546   5.570   0.843   1.522
13868TIP3    H141547   5.483   0.813   1.550
13868TIP3    H241548   5.597   0.905   1.591
13869TIP3   OH241549   6.372   2.780   5.814
13869TIP3    H141550   6.344   2.691   5.794
13869TIP3    H241551   6.433   2.770   5.887
13870TIP3   OH241552   1.221   1.729   1.168
13870TIP3    H141553   1.292   1.696   1.224
13870TIP3    H241554   1.192   1.809   1.212
13871TIP3   OH241555   7.899   7.723   6.524
13871TIP3    H141556   7.815   7.765   6.503
13871TIP3    H241557   7.933   7.695   6.439
13872TIP3   OH241558   7.278   4.792   0.409
13872TIP3    H141559   7.372   4.789   0.392
13872TIP3    H241560   7.266   4.746   0.492
13873TIP3   OH241561   4.517   3.860   0.324
13873TIP3    H141562   4.587   3.913   0.362
13873TIP3    H241563   4.510   3.891   0.234
13874TIP3   OH241564   3.307   7.629   0.426
13874TIP3    H141565   3.353   7.546   0.415
13874TIP3    H241566   3.367   7.684   0.475
13875TIP3   OH241567   7.765   1.827   1.760
13875TIP3    H141568   7.726   1.851   1.844
13875TIP3    H241569   7.767   1.909   1.710
13876TIP3   OH241570   0.417   1.242   2.708
13876TIP3    H141571   0.406   1.260   2.801
13876TIP3    H241572   0.370   1.160   2.694
13877TIP3   OH241573   6.842   0.531   5.363
13877TIP3    H141574   6.918   0.477   5.337
13877TIP3    H241575   6.851   0.611   5.311
13878TIP3   OH241576   4.098   7.285   5.903
13878TIP3    H141577   4.087   7.199   5.944
13878TIP3    H241578   4.013   7.327   5.910
13879TIP3   OH241579   5.108   0.712   5.517
13879TIP3    H141580   5.080   0.655   5.445
13879TIP3    H241581   5.202   0.726   5.502
13880TIP3   OH241582   3.845   1.492   6.035
13880TIP3    H141583   3.777   1.560   6.035
13880TIP3    H241584   3.803   1.418   5.990
13881TIP3   OH241585   4.636   1.225   4.463
13881TIP3    H141586   4.610   1.234   4.371
13881TIP3    H241587   4.560   1.185   4.506
13882TIP3   OH241588   0.902   5.336   2.461
13882TIP3    H141589   0.902   5.258   2.516
13882TIP3    H241590   0.949   5.310   2.382
13883TIP3   OH241591   4.105   4.308   1.348
13883TIP3    H141592   4.040   4.283   1.283
13883TIP3    H241593   4.055   4.334   1.425
13884TIP3   OH241594   1.394   1.990   1.644
13884TIP3    H141595   1.427   2.031   1.724
13884TIP3    H241596   1.305   1.962   1.667
13885TIP3   OH241597   2.563   6.395   4.838
13885TIP3    H141598   2.550   6.309   4.879
13885TIP3    H241599   2.655   6.415   4.852
13886TIP3   OH241600   5.205   4.684   0.479
13886TIP3    H141601   5.240   4.747   0.541
13886TIP3    H241602   5.111   4.700   0.477
13887TIP3   OH241603   6.287   4.180   5.038
13887TIP3    H141604   6.212   4.221   4.995
13887TIP3    H241605   6.345   4.156   4.965
13888TIP3   OH241606   4.506   4.548   3.974
13888TIP3    H141607   4.420   4.583   3.951
13888TIP3    H241608   4.514   4.564   4.068
13889TIP3   OH241609   0.199   5.078   2.276
13889TIP3    H141610   0.120   5.126   2.249
13889TIP3    H241611   0.205   5.094   2.370
13890TIP3   OH241612   1.819   4.559   5.411
13890TIP3    H141613   1.833   4.515   5.327
13890TIP3    H241614   1.893   4.618   5.420
13891TIP3   OH241615   5.980   1.538   5.014
13891TIP3    H141616   5.903   1.550   4.959
13891TIP3    H241617   5.956   1.576   5.098
13892TIP3   OH241618   0.182   2.037   1.026
13892TIP3    H141619   0.275   2.014   1.035
13892TIP3    H241620   0.182   2.122   0.983
13893TIP3   OH241621   1.880   5.136   6.381
13893TIP3    H141622   1.846   5.048   6.365
13893TIP3    H241623   1.803   5.190   6.397
13894TIP3   OH241624   4.980   4.395   4.355
13894TIP3    H141625   4.910   4.445   4.396
13894TIP3    H241626   4.969   4.306   4.389
13895TIP3   OH241627   5.983   3.577   5.056
13895TIP3    H141628   5.942   3.659   5.029
13895TIP3    H241629   5.973   3.575   5.151
13896TIP3   OH241630   3.531   7.792   5.785
13896TIP3    H141631   3.484   7.820   5.863
13896TIP3    H241632   3.461   7.766   5.724
13897TIP3   OH241633   3.014   1.412   1.085
13897TIP3    H141634   2.965   1.434   1.164
13897TIP3    H241635   2.974   1.467   1.017
13898TIP3   OH241636   6.914   0.834   5.936
13898TIP3    H141637   6.843   0.809   5.995
13898TIP3    H241638   6.899   0.926   5.917
13899TIP3   OH241639   3.823   7.331   5.903
13899TIP3    H141640   3.740   7.346   5.947
13899TIP3    H241641   3.831   7.404   5.841
13900TIP3   OH241642   8.012   7.213   6.713
13900TIP3    H141643   8.107   7.202   6.713
13900TIP3    H241644   7.992   7.249   6.800
13901TIP3   OH241645   6.846   5.496   3.432
13901TIP3    H141646   6.835   5.538   3.517
13901TIP3    H241647   6.918   5.434   3.445
13902TIP3   OH241648   3.641   4.241   5.149
13902TIP3    H141649   3.553   4.279   5.142
13902TIP3    H241650   3.625   4.151   5.180
13903TIP3   OH241651   2.621   0.667   1.869
13903TIP3    H141652   2.558   0.733   1.840
13903TIP3    H241653   2.588   0.585   1.833
13904TIP3   OH241654   5.114   1.099   4.700
13904TIP3    H141655   5.058   1.113   4.776
13904TIP3    H241656   5.103   1.006   4.678
13905TIP3   OH241657   7.894   1.404   1.608
13905TIP3    H141658   7.892   1.490   1.649
13905TIP3    H241659   7.944   1.350   1.668
13906TIP3   OH241660   1.680   0.888   3.504
13906TIP3    H141661   1.710   0.801   3.476
13906TIP3    H241662   1.602   0.871   3.557
13907TIP3   OH241663   0.263   6.498   4.978
13907TIP3    H141664   0.278   6.485   5.071
13907TIP3    H241665   0.338   6.457   4.936
13908TIP3   OH241666   3.056   1.296   3.554
13908TIP3    H141667   3.106   1.323   3.631
13908TIP3    H241668   3.040   1.378   3.506
13909TIP3   OH241669   6.959   3.840   2.819
13909TIP3    H141670   6.931   3.834   2.910
13909TIP3    H241671   6.922   3.762   2.778
13910TIP3   OH241672   2.472   6.014   4.562
13910TIP3    H141673   2.453   6.082   4.496
13910TIP3    H241674   2.537   5.958   4.520
13911TIP3   OH241675   7.541   3.713   3.751
13911TIP3    H141676   7.627   3.735   3.786
13911TIP3    H241677   7.502   3.797   3.729
13912TIP3   OH241678   8.076   2.925   2.107
13912TIP3    H141679   8.107   2.840   2.138
13912TIP3    H241680   8.150   2.984   2.122
13913TIP3   OH241681   2.530   6.789   0.313
13913TIP3    H141682   2.485   6.710   0.341
13913TIP3    H241683   2.566   6.827   0.394
13914TIP3   OH241684   3.578   1.872   4.010
13914TIP3    H141685   3.563   1.966   4.000
13914TIP3    H241686   3.629   1.865   4.091
13915TIP3   OH241687   3.217   2.925   6.320
13915TIP3    H141688   3.290   2.943   6.378
13915TIP3    H241689   3.212   2.829   6.317
13916TIP3   OH241690   1.088   5.437   0.112
13916TIP3    H141691   1.089   5.497   0.187
13916TIP3    H241692   1.145   5.478   0.047
13917TIP3   OH241693   5.165   5.579   5.808
13917TIP3    H141694   5.163   5.582   5.904
13917TIP3    H241695   5.076   5.600   5.781
13918TIP3   OH241696   2.062   3.211   5.056
13918TIP3    H141697   2.157   3.215   5.048
13918TIP3    H241698   2.045   3.219   5.150
13919TIP3   OH241699   2.855   3.077   1.457
13919TIP3    H141700   2.947   3.102   1.466
13919TIP3    H241701   2.855   2.982   1.464
13920TIP3   OH241702   4.302   4.371   3.095
13920TIP3    H141703   4.373   4.308   3.106
13920TIP3    H241704   4.255   4.369   3.179
13921TIP3   OH241705   0.663   4.247   2.995
13921TIP3    H141706   0.634   4.264   2.906
13921TIP3    H241707   0.641   4.156   3.011
13922TIP3   OH241708   4.184   7.145   2.446
13922TIP3    H141709   4.175   7.064   2.395
13922TIP3    H241710   4.094   7.172   2.464
13923TIP3   OH241711   3.788   1.778   5.121
13923TIP3    H141712   3.756   1.844   5.182
13923TIP3    H241713   3.731   1.785   5.045
13924TIP3   OH241714   2.362   3.659   3.673
13924TIP3    H141715   2.416   3.591   3.633
13924TIP3    H241716   2.300   3.683   3.604
13925TIP3   OH241717   3.151   7.122   3.346
13925TIP3    H141718   3.205   7.047   3.321
13925TIP3    H241719   3.079   7.122   3.283
13926TIP3   OH241720   0.400   3.140   3.831
13926TIP3    H141721   0.435   3.173   3.914
13926TIP3    H241722   0.474   3.096   3.789
13927TIP3   OH241723   2.917   5.407   1.620
13927TIP3    H141724   2.987   5.464   1.586
13927TIP3    H241725   2.928   5.325   1.571
13928TIP3   OH241726   5.541   4.464   3.913
13928TIP3    H141727   5.580   4.551   3.910
13928TIP3    H241728   5.596   4.410   3.857
13929TIP3   OH241729   0.862   6.182   1.279
13929TIP3    H141730   0.831   6.199   1.190
13929TIP3    H241731   0.903   6.265   1.306
13930TIP3   OH241732   5.469   7.647   1.807
13930TIP3    H141733   5.438   7.560   1.783
13930TIP3    H241734   5.548   7.660   1.755
13931TIP3   OH241735   0.245   7.883   4.136
13931TIP3    H141736   0.218   7.898   4.045
13931TIP3    H241737   0.289   7.798   4.134
13932TIP3   OH241738   1.688   6.857   2.448
13932TIP3    H141739   1.642   6.778   2.477
13932TIP3    H241740   1.628   6.928   2.469
13933TIP3   OH241741   7.709   4.932   0.605
13933TIP3    H141742   7.795   4.949   0.566
13933TIP3    H241743   7.668   5.018   0.609
13934TIP3   OH241744   3.013   5.549   4.058
13934TIP3    H141745   2.994   5.480   4.121
13934TIP3    H241746   3.095   5.587   4.089
13935TIP3   OH241747   6.975   4.729   2.092
13935TIP3    H141748   7.055   4.705   2.046
13935TIP3    H241749   6.972   4.824   2.086
13936TIP3   OH241750   5.680   5.564   3.179
13936TIP3    H141751   5.724   5.490   3.139
13936TIP3    H241752   5.748   5.631   3.189
13937TIP3   OH241753   3.359   0.686   3.885
13937TIP3    H141754   3.288   0.650   3.831
13937TIP3    H241755   3.394   0.759   3.833
13938TIP3   OH241756   3.769   1.908   3.237
13938TIP3    H141757   3.843   1.856   3.268
13938TIP3    H241758   3.764   1.891   3.143
13939TIP3   OH241759   3.153   4.083   6.316
13939TIP3    H141760   3.202   4.018   6.266
13939TIP3    H241761   3.062   4.069   6.292
13940TIP3   OH241762   1.426   6.026   2.689
13940TIP3    H141763   1.456   6.027   2.598
13940TIP3    H241764   1.495   5.980   2.737
13941TIP3   OH241765   3.676   4.629   0.722
13941TIP3    H141766   3.665   4.719   0.753
13941TIP3    H241767   3.643   4.575   0.794
13942TIP3   OH241768   4.881   4.193   1.751
13942TIP3    H141769   4.858   4.245   1.829
13942TIP3    H241770   4.973   4.170   1.764
13943TIP3   OH241771   1.667   2.050   3.995
13943TIP3    H141772   1.748   2.096   4.018
13943TIP3    H241773   1.694   1.985   3.930
13944TIP3   OH241774   5.663   5.558   5.719
13944TIP3    H141775   5.640   5.486   5.777
13944TIP3    H241776   5.582   5.578   5.671
13945TIP3   OH241777   5.036   3.702   6.252
13945TIP3    H141778   5.131   3.687   6.243
13945TIP3    H241779   5.020   3.783   6.203
13946TIP3   OH241780   0.919   7.430   1.717
13946TIP3    H141781   0.828   7.417   1.690
13946TIP3    H241782   0.959   7.343   1.707
13947TIP3   OH241783   0.761   1.955   6.395
13947TIP3    H141784   0.673   1.923   6.416
13947TIP3    H241785   0.819   1.886   6.425
13948TIP3   OH241786   3.023   7.002   2.360
13948TIP3    H141787   3.079   6.976   2.287
13948TIP3    H241788   2.945   7.038   2.319
13949TIP3   OH241789   5.265   7.252   3.227
13949TIP3    H141790   5.333   7.271   3.292
13949TIP3    H241791   5.185   7.240   3.279
13950TIP3   OH241792   1.282   1.568   2.678
13950TIP3    H141793   1.304   1.635   2.743
13950TIP3    H241794   1.295   1.485   2.724
13951TIP3   OH241795   1.052   5.169   2.177
13951TIP3    H141796   1.039   5.232   2.106
13951TIP3    H241797   0.963   5.148   2.206
13952TIP3   OH241798   4.599   0.878   6.451
13952TIP3    H141799   4.577   0.818   6.380
13952TIP3    H241800   4.693   0.889   6.446
13953TIP3   OH241801   5.738   0.124   0.711
13953TIP3    H141802   5.782   0.041   0.728
13953TIP3    H241803   5.671   0.102   0.647
13954TIP3   OH241804   5.389   6.137   5.701
13954TIP3    H141805   5.400   6.135   5.796
13954TIP3    H241806   5.385   6.045   5.675
13955TIP3   OH241807   4.336   1.082   2.363
13955TIP3    H141808   4.309   1.169   2.332
13955TIP3    H241809   4.260   1.026   2.344
13956TIP3   OH241810   7.206   7.289   2.578
13956TIP3    H141811   7.164   7.205   2.563
13956TIP3    H241812   7.209   7.330   2.491
13957TIP3   OH241813   0.119   0.494   5.339
13957TIP3    H141814   0.130   0.407   5.299
13957TIP3    H241815   0.148   0.555   5.271
13958TIP3   OH241816   0.679   3.080   5.130
13958TIP3    H141817   0.642   3.120   5.051
13958TIP3    H241818   0.605   3.040   5.175
13959TIP3   OH241819   7.758   6.939   2.150
13959TIP3    H141820   7.845   6.907   2.174
13959TIP3    H241821   7.703   6.861   2.150
13960TIP3   OH241822   5.599   5.293   1.058
13960TIP3    H141823   5.627   5.203   1.042
13960TIP3    H241824   5.618   5.339   0.976
13961TIP3   OH241825   0.638   3.752   5.129
13961TIP3    H141826   0.635   3.793   5.043
13961TIP3    H241827   0.727   3.766   5.160
13962TIP3   OH241828   7.175   3.054   0.360
13962TIP3    H141829   7.265   3.023   0.350
13962TIP3    H241830   7.138   2.999   0.428
13963TIP3   OH241831   2.364   7.245  -0.001
13963TIP3    H141832   2.286   7.192   0.016
13963TIP3    H241833   2.333   7.335   0.000
13964TIP3   OH241834   4.789   1.572   5.312
13964TIP3    H141835   4.725   1.570   5.384
13964TIP3    H241836   4.874   1.563   5.356
13965TIP3   OH241837   2.231   3.503   3.958
13965TIP3    H141838   2.303   3.461   4.006
13965TIP3    H241839   2.154   3.452   3.982
13966TIP3   OH241840   0.140   5.061   0.462
13966TIP3    H141841   0.106   5.134   0.410
13966TIP3    H241842   0.222   5.095   0.499
13967TIP3   OH241843   2.115   1.431   0.228
13967TIP3    H141844   2.193   1.445   0.281
13967TIP3    H241845   2.129   1.346   0.186
13968TIP3   OH241846   1.497   0.854   0.697
13968TIP3    H141847   1.449   0.931   0.729
13968TIP3    H241848   1.559   0.834   0.767
13969TIP3   OH241849   4.584   3.624   1.623
13969TIP3    H141850   4.523   3.637   1.695
13969TIP3    H241851   4.562   3.692   1.560
13970TIP3   OH241852   8.056   3.861   5.167
13970TIP3    H141853   8.111   3.923   5.214
13970TIP3    H241854   7.979   3.848   5.223
13971TIP3   OH241855   3.771   4.634   0.462
13971TIP3    H141856   3.726   4.626   0.546
13971TIP3    H241857   3.810   4.721   0.463
13972TIP3   OH241858   5.973   3.465   6.669
13972TIP3    H141859   5.878   3.473   6.675
13972TIP3    H241860   5.991   3.375   6.694
13973TIP3   OH241861   1.335   7.276   6.553
13973TIP3    H141862   1.395   7.299   6.482
13973TIP3    H241863   1.249   7.301   6.522
13974TIP3   OH241864   7.463   5.491   5.985
13974TIP3    H141865   7.400   5.561   5.969
13974TIP3    H241866   7.446   5.428   5.915
13975TIP3   OH241867   6.579   6.753   4.248
13975TIP3    H141868   6.547   6.663   4.241
13975TIP3    H241869   6.672   6.744   4.267
13976TIP3   OH241870   6.202   5.155   6.041
13976TIP3    H141871   6.266   5.102   6.089
13976TIP3    H241872   6.253   5.228   6.005
13977TIP3   OH241873   0.380   6.265   2.569
13977TIP3    H141874   0.361   6.329   2.637
13977TIP3    H241875   0.439   6.202   2.610
13978TIP3   OH241876   7.152   7.358   1.228
13978TIP3    H141877   7.109   7.443   1.217
13978TIP3    H241878   7.192   7.363   1.315
13979TIP3   OH241879   3.469   4.845   1.297
13979TIP3    H141880   3.519   4.826   1.217
13979TIP3    H241881   3.489   4.936   1.316
13980TIP3   OH241882   5.625   0.618   5.837
13980TIP3    H141883   5.700   0.606   5.895
13980TIP3    H241884   5.558   0.560   5.871
13981TIP3   OH241885   1.603   1.248   4.845
13981TIP3    H141886   1.580   1.330   4.890
13981TIP3    H241887   1.647   1.277   4.765
13982TIP3   OH241888   6.857   1.401   6.581
13982TIP3    H141889   6.853   1.320   6.632
13982TIP3    H241890   6.891   1.374   6.496
13983TIP3   OH241891   7.793   1.864   3.598
13983TIP3    H141892   7.777   1.770   3.588
13983TIP3    H241893   7.809   1.876   3.691
13984TIP3   OH241894   3.091   1.721   3.571
13984TIP3    H141895   3.020   1.785   3.563
13984TIP3    H241896   3.066   1.650   3.511
13985TIP3   OH241897   5.221   7.131   5.255
13985TIP3    H141898   5.245   7.163   5.342
13985TIP3    H241899   5.303   7.098   5.218
13986TIP3   OH241900   6.374   7.328   4.504
13986TIP3    H141901   6.378   7.273   4.426
13986TIP3    H241902   6.280   7.336   4.523
13987TIP3   OH241903   1.864   1.224   4.184
13987TIP3    H141904   1.861   1.285   4.258
13987TIP3    H241905   1.781   1.176   4.190
13988TIP3   OH241906   4.347   1.026   4.471
13988TIP3    H141907   4.343   1.112   4.429
13988TIP3    H241908   4.373   1.046   4.562
13989TIP3   OH241909   1.873   0.010   2.010
13989TIP3    H141910   1.795  -0.033   2.045
13989TIP3    H241911   1.847   0.039   1.923
13990TIP3   OH241912   7.105   7.038   5.705
13990TIP3    H141913   7.164   7.083   5.644
13990TIP3    H241914   7.088   6.953   5.665
13991TIP3   OH241915   4.555   2.476   6.776
13991TIP3    H141916   4.495   2.468   6.701
13991TIP3    H241917   4.638   2.501   6.736
13992TIP3   OH241918   6.618   0.693   6.451
13992TIP3    H141919   6.621   0.771   6.396
13992TIP3    H241920   6.663   0.720   6.532
13993TIP3   OH241921   6.863   6.953   0.151
13993TIP3    H141922   6.878   7.024   0.089
13993TIP3    H241923   6.790   6.904   0.113
13994TIP3   OH241924   3.392   0.329   1.265
13994TIP3    H141925   3.350   0.413   1.244
13994TIP3    H241926   3.319   0.266   1.268
13995TIP3   OH241927   1.741   7.146   5.973
13995TIP3    H141928   1.663   7.170   6.023
13995TIP3    H241929   1.772   7.229   5.937
13996TIP3   OH241930   0.166   6.797   0.833
13996TIP3    H141931   0.088   6.782   0.885
13996TIP3    H241932   0.221   6.853   0.888
13997TIP3   OH241933   4.113   6.608   0.056
13997TIP3    H141934   4.098   6.514   0.055
13997TIP3    H241935   4.043   6.643   0.111
13998TIP3   OH241936   8.342   2.748   3.735
13998TIP3    H141937   8.256   2.754   3.692
13998TIP3    H241938   8.383   2.833   3.719
13999TIP3   OH241939   6.990   2.731   4.651
13999TIP3    H141940   7.028   2.778   4.725
13999TIP3    H241941   6.895   2.741   4.663
14000TIP3   OH241942   3.631   5.409   4.956
14000TIP3    H141943   3.566   5.339   4.954
14000TIP3    H241944   3.584   5.483   4.996
14001TIP3   OH241945   3.172   7.220   2.553
14001TIP3    H141946   3.227   7.184   2.484
14001TIP3    H241947   3.219   7.200   2.634
14002TIP3   OH241948   1.059   5.254   2.870
14002TIP3    H141949   1.147   5.221   2.884
14002TIP3    H241950   1.065   5.305   2.789
14003TIP3   OH241951   6.457   5.558   2.402
14003TIP3    H141952   6.496   5.479   2.362
14003TIP3    H241953   6.371   5.564   2.361
14004TIP3   OH241954   1.857   0.465   3.938
14004TIP3    H141955   1.913   0.497   3.866
14004TIP3    H241956   1.844   0.542   3.993
14005TIP3   OH241957   6.650   5.967   4.617
14005TIP3    H141958   6.633   6.008   4.532
14005TIP3    H241959   6.745   5.972   4.627
14006TIP3   OH241960   7.746   7.644   2.881
14006TIP3    H141961   7.658   7.609   2.899
14006TIP3    H241962   7.804   7.591   2.935
14007TIP3   OH241963   3.183   6.489   0.644
14007TIP3    H141964   3.123   6.532   0.584
14007TIP3    H241965   3.127   6.449   0.710
14008TIP3   OH241966   1.849   7.497   6.637
14008TIP3    H141967   1.766   7.498   6.589
14008TIP3    H241968   1.897   7.423   6.601
14009TIP3   OH241969   5.116   4.118   1.232
14009TIP3    H141970   5.163   4.172   1.296
14009TIP3    H241971   5.025   4.122   1.259
14010TIP3   OH241972   2.139   7.716   3.952
14010TIP3    H141973   2.202   7.780   3.985
14010TIP3    H241974   2.068   7.769   3.914
14011TIP3   OH241975   3.731   1.534   4.267
14011TIP3    H141976   3.720   1.538   4.362
14011TIP3    H241977   3.791   1.606   4.246
14012TIP3   OH241978   3.297   3.303   0.097
14012TIP3    H141979   3.300   3.207   0.103
14012TIP3    H241980   3.318   3.333   0.186
14013TIP3   OH241981   4.608   0.619   0.954
14013TIP3    H141982   4.593   0.677   1.029
14013TIP3    H241983   4.684   0.567   0.979
14014TIP3   OH241984   1.219   2.743   6.562
14014TIP3    H141985   1.246   2.682   6.631
14014TIP3    H241986   1.123   2.743   6.567
14015TIP3   OH241987   2.404   5.518   1.538
14015TIP3    H141988   2.390   5.429   1.508
14015TIP3    H241989   2.485   5.514   1.589
14016TIP3   OH241990   7.877   1.025   2.316
14016TIP3    H141991   7.810   0.964   2.347
14016TIP3    H241992   7.848   1.110   2.350
14017TIP3   OH241993   5.645   6.088   2.041
14017TIP3    H141994   5.641   5.993   2.033
14017TIP3    H241995   5.556   6.118   2.026
14018TIP3   OH241996   5.081   5.939   4.784
14018TIP3    H141997   5.039   5.900   4.861
14018TIP3    H241998   5.047   5.889   4.710
14019TIP3   OH241999   7.729   4.918   6.280
14019TIP3    H142000   7.677   4.938   6.202
14019TIP3    H242001   7.713   4.991   6.339
14020TIP3   OH242002   6.513   1.084   4.514
14020TIP3    H142003   6.598   1.057   4.550
14020TIP3    H242004   6.455   1.088   4.590
14021TIP3   OH242005   6.165   3.615   5.786
14021TIP3    H142006   6.166   3.533   5.835
14021TIP3    H242007   6.257   3.636   5.772
14022TIP3   OH242008   2.046   6.983   4.185
14022TIP3    H142009   1.979   7.047   4.209
14022TIP3    H242010   2.127   7.016   4.222
14023TIP3   OH242011   5.335   2.876   1.855
14023TIP3    H142012   5.364   2.954   1.903
14023TIP3    H242013   5.254   2.903   1.812
14024TIP3   OH242014   4.298   7.205   5.043
14024TIP3    H142015   4.265   7.144   4.978
14024TIP3    H242016   4.251   7.182   5.124
14025TIP3   OH242017   4.431   7.245   1.516
14025TIP3    H142018   4.348   7.241   1.469
14025TIP3    H242019   4.414   7.199   1.599
14026TIP3   OH242020   6.693   2.901   2.300
14026TIP3    H142021   6.759   2.845   2.342
14026TIP3    H242022   6.646   2.943   2.373
14027TIP3   OH242023   0.738   1.991   4.498
14027TIP3    H142024   0.823   1.963   4.465
14027TIP3    H242025   0.737   2.086   4.485
14028TIP3   OH242026   5.863   5.338   2.384
14028TIP3    H142027   5.801   5.395   2.338
14028TIP3    H242028   5.914   5.298   2.314
14029TIP3   OH242029   6.089   0.274   0.881
14029TIP3    H142030   6.033   0.216   0.933
14029TIP3    H242031   6.089   0.357   0.929
14030TIP3   OH242032   5.330   5.089   4.759
14030TIP3    H142033   5.341   5.173   4.805
14030TIP3    H242034   5.279   5.111   4.681
14031TIP3   OH242035   5.017   6.757   1.270
14031TIP3    H142036   5.089   6.814   1.243
14031TIP3    H242037   4.947   6.776   1.208
14032TIP3   OH242038   6.869   5.261   1.122
14032TIP3    H142039   6.845   5.244   1.213
14032TIP3    H242040   6.801   5.321   1.090
14033TIP3   OH242041   5.029   3.503   3.759
14033TIP3    H142042   5.059   3.556   3.832
14033TIP3    H242043   4.956   3.552   3.721
14034TIP3   OH242044   5.853   6.991   1.967
14034TIP3    H142045   5.777   6.957   1.920
14034TIP3    H242046   5.816   7.038   2.042
14035TIP3   OH242047   1.756   4.165   0.025
14035TIP3    H142048   1.837   4.115   0.028
14035TIP3    H242049   1.776   4.247   0.071
14036TIP3   OH242050   4.025   1.535   6.245
14036TIP3    H142051   4.029   1.439   6.252
14036TIP3    H242052   3.949   1.551   6.188
14037TIP3   OH242053   1.569   1.815   2.419
14037TIP3    H142054   1.478   1.845   2.422
14037TIP3    H242055   1.607   1.862   2.344
14038TIP3   OH242056   4.095   2.120   1.596
14038TIP3    H142057   4.035   2.188   1.627
14038TIP3    H242058   4.159   2.167   1.543
14039TIP3   OH242059   3.969   7.549   2.172
14039TIP3    H142060   3.921   7.632   2.170
14039TIP3    H242061   3.934   7.503   2.248
14040TIP3   OH242062   2.240   2.332   5.405
14040TIP3    H142063   2.144   2.336   5.402
14040TIP3    H242064   2.262   2.346   5.497
14041TIP3   OH242065   0.098   6.469   3.623
14041TIP3    H142066   0.166   6.407   3.650
14041TIP3    H242067   0.074   6.515   3.703
14042TIP3   OH242068   4.524   4.970   1.994
14042TIP3    H142069   4.469   5.045   1.972
14042TIP3    H242070   4.611   4.993   1.960
14043TIP3   OH242071   1.906   4.291   4.794
14043TIP3    H142072   1.839   4.357   4.804
14043TIP3    H242073   1.989   4.338   4.803
14044TIP3   OH242074   4.408   4.092   4.791
14044TIP3    H142075   4.378   4.009   4.828
14044TIP3    H242076   4.449   4.067   4.708
14045TIP3   OH242077   5.285   6.601   0.664
14045TIP3    H142078   5.341   6.666   0.706
14045TIP3    H242079   5.287   6.526   0.723
14046TIP3   OH242080   2.665   3.246   4.407
14046TIP3    H142081   2.610   3.169   4.414
14046TIP3    H242082   2.696   3.262   4.496
14047TIP3   OH242083   1.588   3.108   4.968
14047TIP3    H142084   1.646   3.051   5.018
14047TIP3    H242085   1.647   3.171   4.926
14048TIP3   OH242086   7.586   7.716   0.164
14048TIP3    H142087   7.572   7.727   0.070
14048TIP3    H242088   7.647   7.786   0.187
14049TIP3   OH242089   0.599   3.694   0.408
14049TIP3    H142090   0.577   3.785   0.386
14049TIP3    H242091   0.695   3.692   0.410
14050TIP3   OH242092   6.018   7.280   4.312
14050TIP3    H142093   6.051   7.198   4.348
14050TIP3    H242094   6.000   7.335   4.388
14051TIP3   OH242095   6.790   2.054   3.522
14051TIP3    H142096   6.715   2.113   3.515
14051TIP3    H242097   6.861   2.110   3.554
14052TIP3   OH242098   0.430   7.722   0.037
14052TIP3    H142099   0.353   7.778   0.045
14052TIP3    H242100   0.460   7.709   0.127
14053TIP3   OH242101   4.770   0.938   4.504
14053TIP3    H142102   4.742   1.028   4.486
14053TIP3    H242103   4.743   0.922   4.594
14054TIP3   OH242104   5.983   4.121   5.251
14054TIP3    H142105   5.968   4.186   5.319
14054TIP3    H242106   6.076   4.129   5.229
14055TIP3   OH242107   2.647   5.555   4.707
14055TIP3    H142108   2.676   5.474   4.750
14055TIP3    H242109   2.669   5.542   4.615
14056TIP3   OH242110   0.980   6.297   0.526
14056TIP3    H142111   1.023   6.380   0.505
14056TIP3    H242112   1.052   6.236   0.542
14057TIP3   OH242113   4.880   4.459   6.555
14057TIP3    H142114   4.795   4.416   6.557
14057TIP3    H242115   4.903   4.469   6.648
14058TIP3   OH242116   3.846   6.542   1.056
14058TIP3    H142117   3.901   6.465   1.044
14058TIP3    H242118   3.770   6.526   1.000
14059TIP3   OH242119   7.585   7.773   3.160
14059TIP3    H142120   7.550   7.702   3.105
14059TIP3    H242121   7.571   7.852   3.108
14060TIP3   OH242122   6.502   0.276   2.513
14060TIP3    H142123   6.536   0.288   2.425
14060TIP3    H242124   6.500   0.182   2.526
14061TIP3   OH242125   1.997   0.392   2.315
14061TIP3    H142126   1.988   0.340   2.395
14061TIP3    H242127   1.946   0.471   2.332
14062TIP3   OH242128   0.790   7.407   0.492
14062TIP3    H142129   0.885   7.407   0.502
14062TIP3    H242130   0.772   7.482   0.435
14063TIP3   OH242131   8.238   4.391   3.623
14063TIP3    H142132   8.147   4.372   3.647
14063TIP3    H242133   8.289   4.323   3.666
14064TIP3   OH242134   1.534   0.313   5.526
14064TIP3    H142135   1.484   0.276   5.453
14064TIP3    H242136   1.479   0.298   5.603
14065TIP3   OH242137   1.754   2.635   6.112
14065TIP3    H142138   1.822   2.703   6.115
14065TIP3    H242139   1.704   2.654   6.033
14066TIP3   OH242140   5.994   7.321   1.850
14066TIP3    H142141   6.048   7.265   1.906
14066TIP3    H242142   5.932   7.262   1.808
14067TIP3   OH242143   3.084   2.499   3.825
14067TIP3    H142144   3.046   2.583   3.850
14067TIP3    H242145   3.011   2.450   3.788
14068TIP3   OH242146   5.079   7.065   0.276
14068TIP3    H142147   5.098   7.050   0.184
14068TIP3    H242148   5.029   6.988   0.303
14069TIP3   OH242149   3.190   1.367   4.066
14069TIP3    H142150   3.275   1.339   4.100
14069TIP3    H242151   3.167   1.300   4.001
14070TIP3   OH242152   7.568   4.157   4.169
14070TIP3    H142153   7.532   4.245   4.178
14070TIP3    H242154   7.492   4.100   4.169
14071TIP3   OH242155   4.820   4.181   6.747
14071TIP3    H142156   4.810   4.089   6.722
14071TIP3    H242157   4.734   4.206   6.780
14072TIP3   OH242158   3.671   4.322   0.209
14072TIP3    H142159   3.740   4.386   0.226
14072TIP3    H242160   3.613   4.364   0.146
14073TIP3   OH242161   5.120   1.730   6.668
14073TIP3    H142162   5.195   1.673   6.683
14073TIP3    H242163   5.136   1.807   6.723
14074TIP3   OH242164   8.151   4.316   1.147
14074TIP3    H142165   8.144   4.404   1.110
14074TIP3    H242166   8.069   4.273   1.123
14075TIP3   OH242167   1.612   6.760   2.116
14075TIP3    H142168   1.683   6.705   2.148
14075TIP3    H242169   1.607   6.832   2.179
14076TIP3   OH242170   6.251   7.769   1.607
14076TIP3    H142171   6.182   7.820   1.565
14076TIP3    H242172   6.267   7.814   1.690
14077TIP3   OH242173   2.163   4.917   6.499
14077TIP3    H142174   2.240   4.973   6.513
14077TIP3    H242175   2.187   4.860   6.427
14078TIP3   OH242176   3.664   1.498   3.222
14078TIP3    H142177   3.633   1.547   3.298
14078TIP3    H242178   3.639   1.551   3.146
14079TIP3   OH242179   7.392   6.925   0.612
14079TIP3    H142180   7.402   6.919   0.517
14079TIP3    H242181   7.448   6.855   0.646
14080TIP3   OH242182   3.039   6.579   4.095
14080TIP3    H142183   3.001   6.667   4.090
14080TIP3    H242184   3.094   6.572   4.018
14081TIP3   OH242185   0.250   0.097   2.596
14081TIP3    H142186   0.234   0.130   2.684
14081TIP3    H242187   0.309   0.161   2.556
14082TIP3   OH242188   2.385   6.518   3.884
14082TIP3    H142189   2.461   6.562   3.922
14082TIP3    H242190   2.402   6.517   3.790
14083TIP3   OH242191   7.933   4.481   3.221
14083TIP3    H142192   7.912   4.572   3.244
14083TIP3    H242193   8.006   4.458   3.279
14084TIP3   OH242194   5.446   5.729   4.764
14084TIP3    H142195   5.404   5.645   4.749
14084TIP3    H242196   5.458   5.733   4.859
14085TIP3   OH242197   3.941   0.340   1.615
14085TIP3    H142198   4.017   0.305   1.567
14085TIP3    H242199   3.868   0.285   1.588
14086TIP3   OH242200   7.274   5.526   2.346
14086TIP3    H142201   7.301   5.458   2.284
14086TIP3    H242202   7.355   5.573   2.367
14087TIP3   OH242203   1.930   6.432   6.420
14087TIP3    H142204   1.844   6.420   6.381
14087TIP3    H242205   1.972   6.346   6.413
14088TIP3   OH242206   8.019   1.751   4.679
14088TIP3    H142207   8.108   1.784   4.681
14088TIP3    H242208   8.022   1.676   4.619
14089TIP3   OH242209   7.947   6.191   2.176
14089TIP3    H142210   8.036   6.191   2.139
14089TIP3    H242211   7.916   6.102   2.161
14090TIP3   OH242212   2.199   2.968   1.771
14090TIP3    H142213   2.162   2.893   1.724
14090TIP3    H242214   2.189   2.946   1.863
14091TIP3   OH242215   7.776   7.519   0.573
14091TIP3    H142216   7.714   7.566   0.519
14091TIP3    H242217   7.811   7.450   0.516
14092TIP3   OH242218   7.898   4.777   0.806
14092TIP3    H142219   7.908   4.867   0.776
14092TIP3    H242220   7.868   4.785   0.896
14093TIP3   OH242221   6.241   3.659   5.412
14093TIP3    H142222   6.153   3.664   5.448
14093TIP3    H242223   6.250   3.737   5.358
14094TIP3   OH242224   4.233   6.386   2.189
14094TIP3    H142225   4.285   6.323   2.240
14094TIP3    H242226   4.290   6.410   2.116
14095TIP3   OH242227   6.268   5.416   4.327
14095TIP3    H142228   6.202   5.419   4.396
14095TIP3    H242229   6.316   5.335   4.344
14096TIP3   OH242230   6.085   0.824   4.792
14096TIP3    H142231   6.048   0.781   4.715
14096TIP3    H242232   6.179   0.805   4.787
14097TIP3   OH242233   0.666   1.795   1.922
14097TIP3    H142234   0.618   1.725   1.878
14097TIP3    H242235   0.625   1.876   1.890
14098TIP3   OH242236   7.240   2.285   1.966
14098TIP3    H142237   7.148   2.270   1.946
14098TIP3    H242238   7.256   2.230   2.044
14099TIP3   OH242239   2.268   2.549   5.038
14099TIP3    H142240   2.209   2.478   5.015
14099TIP3    H242241   2.238   2.623   4.986
14100TIP3   OH242242   2.812   2.183   6.515
14100TIP3    H142243   2.878   2.217   6.575
14100TIP3    H242244   2.773   2.261   6.475
14101TIP3   OH242245   5.553   3.929   0.362
14101TIP3    H142246   5.648   3.918   0.362
14101TIP3    H242247   5.534   3.971   0.446
14102TIP3   OH242248   7.894   2.394   0.303
14102TIP3    H142249   7.883   2.379   0.209
14102TIP3    H242250   7.879   2.308   0.343
14103TIP3   OH242251   6.834   5.729   6.780
14103TIP3    H142252   6.868   5.704   6.694
14103TIP3    H242253   6.775   5.802   6.762
14104TIP3   OH242254   0.042   0.536   4.553
14104TIP3    H142255   0.018   0.505   4.640
14104TIP3    H242256   0.069   0.627   4.567
14105TIP3   OH242257   2.722   7.798   1.761
14105TIP3    H142258   2.658   7.822   1.694
14105TIP3    H242259   2.806   7.826   1.724
14106TIP3   OH242260   2.906   3.656   3.935
14106TIP3    H142261   2.914   3.736   3.987
14106TIP3    H242262   2.943   3.678   3.850
14107TIP3   OH242263   6.772   3.675   4.621
14107TIP3    H142264   6.780   3.708   4.532
14107TIP3    H242265   6.698   3.615   4.618
14108TIP3   OH242266   2.282   4.480   0.512
14108TIP3    H142267   2.237   4.445   0.589
14108TIP3    H242268   2.375   4.468   0.531
14109TIP3   OH242269   2.545   0.257   3.515
14109TIP3    H142270   2.485   0.313   3.563
14109TIP3    H242271   2.505   0.170   3.518
14110TIP3   OH242272   4.425   5.368   0.908
14110TIP3    H142273   4.430   5.445   0.852
14110TIP3    H242274   4.484   5.387   0.981
14111TIP3   OH242275   4.581   2.459   1.204
14111TIP3    H142276   4.581   2.388   1.140
14111TIP3    H242277   4.672   2.487   1.208
14112TIP3   OH242278   3.014   3.710   6.236
14112TIP3    H142279   3.023   3.778   6.170
14112TIP3    H242280   2.998   3.757   6.318
14113TIP3   OH242281   3.150   7.791   0.218
14113TIP3    H142282   3.185   7.804   0.130
14113TIP3    H242283   3.205   7.723   0.256
14114TIP3   OH242284   1.182   7.411   1.953
14114TIP3    H142285   1.148   7.369   2.032
14114TIP3    H242286   1.104   7.441   1.906
14115TIP3   OH242287   0.269   0.164   4.778
14115TIP3    H142288   0.267   0.077   4.820
14115TIP3    H242289   0.348   0.205   4.813
14116TIP3   OH242290   1.512   5.566   2.710
14116TIP3    H142291   1.434   5.597   2.756
14116TIP3    H242292   1.584   5.581   2.772
14117TIP3   OH242293   6.955   6.246   4.760
14117TIP3    H142294   6.977   6.216   4.848
14117TIP3    H242295   6.920   6.334   4.773
14118TIP3   OH242296   8.178   6.675   1.389
14118TIP3    H142297   8.253   6.678   1.449
14118TIP3    H242298   8.175   6.762   1.349
14119TIP3   OH242299   2.718   6.340   3.003
14119TIP3    H142300   2.630   6.377   3.000
14119TIP3    H242301   2.707   6.251   2.969
14120TIP3   OH242302   0.458   2.132   4.639
14120TIP3    H142303   0.481   2.042   4.663
14120TIP3    H242304   0.466   2.134   4.543
14121TIP3   OH242305   3.749   1.853   6.009
14121TIP3    H142306   3.795   1.867   6.092
14121TIP3    H242307   3.797   1.907   5.946
14122TIP3   OH242308   4.911   3.235   0.309
14122TIP3    H142309   4.844   3.240   0.242
14122TIP3    H242310   4.874   3.177   0.376
14123TIP3   OH242311   7.688   0.021   5.967
14123TIP3    H142312   7.655   0.007   5.878
14123TIP3    H242313   7.619   0.069   6.011
14124TIP3   OH242314   5.813   1.737   5.231
14124TIP3    H142315   5.817   1.643   5.250
14124TIP3    H242316   5.819   1.779   5.317
14125TIP3   OH242317   6.541   5.870   5.727
14125TIP3    H142318   6.576   5.950   5.689
14125TIP3    H242319   6.577   5.868   5.816
14126TIP3   OH242320   4.020   6.701   6.583
14126TIP3    H142321   3.998   6.727   6.494
14126TIP3    H242322   3.937   6.670   6.620
14127TIP3   OH242323   0.967   7.583   6.550
14127TIP3    H142324   0.879   7.614   6.573
14127TIP3    H242325   1.026   7.649   6.586
14128TIP3   OH242326   0.618   7.114   6.363
14128TIP3    H142327   0.524   7.106   6.379
14128TIP3    H242328   0.647   7.024   6.344
14129TIP3   OH242329   4.398   4.262   2.240
14129TIP3    H142330   4.487   4.298   2.234
14129TIP3    H242331   4.406   4.174   2.202
14130TIP3   OH242332   4.881   6.254   4.210
14130TIP3    H142333   4.901   6.194   4.282
14130TIP3    H242334   4.926   6.216   4.135
14131TIP3   OH242335   1.941   3.072   6.273
14131TIP3    H142336   1.950   3.022   6.354
14131TIP3    H242337   1.922   3.162   6.303
14132TIP3   OH242338   4.377   0.346   0.317
14132TIP3    H142339   4.341   0.426   0.355
14132TIP3    H242340   4.471   0.360   0.314
14133TIP3   OH242341   5.599   7.437   4.631
14133TIP3    H142342   5.527   7.374   4.640
14133TIP3    H242343   5.568   7.515   4.676
14134TIP3   OH242344   1.962   7.125   1.656
14134TIP3    H142345   2.043   7.083   1.628
14134TIP3    H242346   1.974   7.140   1.750
14135TIP3   OH242347   5.136   6.605   2.870
14135TIP3    H142348   5.130   6.682   2.927
14135TIP3    H242349   5.099   6.634   2.787
14136TIP3   OH242350   0.516   5.329   6.559
14136TIP3    H142351   0.572   5.401   6.589
14136TIP3    H242352   0.574   5.274   6.507
14137TIP3   OH242353   5.304   1.645   4.978
14137TIP3    H142354   5.357   1.694   4.915
14137TIP3    H242355   5.333   1.554   4.968
14138TIP3   OH242356   7.715   4.266   0.122
14138TIP3    H142357   7.733   4.208   0.196
14138TIP3    H242358   7.685   4.207   0.053
14139TIP3   OH242359   7.106   5.139   6.324
14139TIP3    H142360   7.140   5.199   6.258
14139TIP3    H242361   7.014   5.165   6.335
14140TIP3   OH242362   0.354   0.062   6.042
14140TIP3    H142363   0.260   0.044   6.039
14140TIP3    H242364   0.368   0.130   5.976
14141TIP3   OH242365   7.528   7.275   1.362
14141TIP3    H142366   7.592   7.250   1.429
14141TIP3    H242367   7.540   7.210   1.292
14142TIP3   OH242368   5.784   0.697   1.306
14142TIP3    H142369   5.802   0.778   1.353
14142TIP3    H242370   5.750   0.637   1.373
14143TIP3   OH242371   8.239   7.100   3.219
14143TIP3    H142372   8.273   7.064   3.136
14143TIP3    H242373   8.183   7.172   3.192
14144TIP3   OH242374   6.549   2.527   0.125
14144TIP3    H142375   6.487   2.459   0.154
14144TIP3    H242376   6.580   2.567   0.206
14145TIP3   OH242377   0.774   0.253   4.513
14145TIP3    H142378   0.708   0.200   4.467
14145TIP3    H242379   0.857   0.220   4.481
14146TIP3   OH242380   1.075   7.404   0.565
14146TIP3    H142381   1.062   7.470   0.632
14146TIP3    H242382   1.112   7.329   0.612
14147TIP3   OH242383   0.334   6.186   0.042
14147TIP3    H142384   0.267   6.166   0.108
14147TIP3    H242385   0.417   6.171   0.086
14148TIP3   OH242386   3.858   6.043   4.244
14148TIP3    H142387   3.846   6.092   4.325
14148TIP3    H242388   3.898   5.961   4.270
14149TIP3   OH242389   3.100   2.774   3.625
14149TIP3    H142390   3.116   2.863   3.656
14149TIP3    H242391   3.187   2.742   3.600
14150TIP3   OH242392   6.287   2.883   3.730
14150TIP3    H142393   6.357   2.829   3.694
14150TIP3    H242394   6.332   2.956   3.773
14151TIP3   OH242395   2.378   0.961   6.218
14151TIP3    H142396   2.445   1.027   6.239
14151TIP3    H242397   2.305   1.012   6.182
14152TIP3   OH242398   2.368   4.687   6.588
14152TIP3    H142399   2.390   4.754   6.653
14152TIP3    H242400   2.280   4.658   6.612
14153TIP3   OH242401   5.435   6.961   5.285
14153TIP3    H142402   5.487   6.906   5.227
14153TIP3    H242403   5.498   7.021   5.326
14154TIP3   OH242404   6.709   0.468   5.126
14154TIP3    H142405   6.701   0.377   5.098
14154TIP3    H242406   6.744   0.462   5.215
14155TIP3   OH242407   7.203   3.746   4.889
14155TIP3    H142408   7.146   3.703   4.825
14155TIP3    H242409   7.174   3.712   4.973
14156TIP3   OH242410   2.778   4.003   4.126
14156TIP3    H142411   2.768   4.076   4.188
14156TIP3    H242412   2.732   3.930   4.167
14157TIP3   OH242413   1.535   0.321   2.617
14157TIP3    H142414   1.562   0.243   2.666
14157TIP3    H242415   1.589   0.391   2.652
14158TIP3   OH242416   1.421   0.003   2.286
14158TIP3    H142417   1.380   0.019   2.371
14158TIP3    H242418   1.368   0.055   2.224
14159TIP3   OH242419   2.640   1.886   0.263
14159TIP3    H142420   2.715   1.937   0.291
14159TIP3    H242421   2.589   1.872   0.343
14160TIP3   OH242422   4.884   5.391   3.476
14160TIP3    H142423   4.862   5.298   3.475
14160TIP3    H242424   4.977   5.393   3.454
14161TIP3   OH242425   6.958   1.032   2.505
14161TIP3    H142426   6.941   0.947   2.547
14161TIP3    H242427   7.049   1.051   2.529
14162TIP3   OH242428   7.491   4.414   4.319
14162TIP3    H142429   7.545   4.442   4.393
14162TIP3    H242430   7.401   4.434   4.346
14163TIP3   OH242431   5.498   6.650   4.659
14163TIP3    H142432   5.462   6.710   4.725
14163TIP3    H242433   5.574   6.697   4.624
14164TIP3   OH242434   4.217   3.940   1.220
14164TIP3    H142435   4.151   3.923   1.153
14164TIP3    H242436   4.287   3.986   1.175
14165TIP3   OH242437   0.038   5.631   4.222
14165TIP3    H142438   0.054   5.708   4.277
14165TIP3    H242439  -0.005   5.569   4.281
14166TIP3   OH242440   3.695   4.985   5.109
14166TIP3    H142441   3.695   4.953   5.199
14166TIP3    H242442   3.713   5.078   5.116
14167TIP3   OH242443   1.877   4.950   1.993
14167TIP3    H142444   1.944   4.891   1.959
14167TIP3    H242445   1.885   4.943   2.088
14168TIP3   OH242446   2.685   3.453   1.810
14168TIP3    H142447   2.610   3.395   1.801
14168TIP3    H242448   2.706   3.452   1.903
14169TIP3   OH242449   4.616   5.129   1.660
14169TIP3    H142450   4.658   5.173   1.735
14169TIP3    H242451   4.689   5.097   1.608
14170TIP3   OH242452   6.318   2.060   4.602
14170TIP3    H142453   6.248   1.997   4.586
14170TIP3    H242454   6.277   2.129   4.653
14171TIP3   OH242455   1.672   2.373   6.160
14171TIP3    H142456   1.748   2.335   6.117
14171TIP3    H242457   1.679   2.467   6.143
14172TIP3   OH242458   2.251   5.945   6.666
14172TIP3    H142459   2.288   6.008   6.604
14172TIP3    H242460   2.232   5.867   6.613
14173TIP3   OH242461   6.648   2.291   3.519
14173TIP3    H142462   6.607   2.347   3.452
14173TIP3    H242463   6.716   2.347   3.558
14174TIP3   OH242464   3.955   0.260   3.732
14174TIP3    H142465   3.938   0.177   3.686
14174TIP3    H242466   3.884   0.266   3.797
14175TIP3   OH242467   4.949   1.619   4.451
14175TIP3    H142468   4.896   1.607   4.372
14175TIP3    H242469   4.963   1.530   4.484
14176TIP3   OH242470   4.095   2.242   6.629
14176TIP3    H142471   4.051   2.203   6.554
14176TIP3    H242472   4.188   2.239   6.606
14177TIP3   OH242473   7.777   6.749   6.605
14177TIP3    H142474   7.814   6.806   6.538
14177TIP3    H242475   7.684   6.773   6.609
14178TIP3   OH242476   5.171   7.655   6.599
14178TIP3    H142477   5.180   7.575   6.650
14178TIP3    H242478   5.174   7.627   6.508
14179TIP3   OH242479   1.886   2.797   6.730
14179TIP3    H142480   1.886   2.841   6.645
14179TIP3    H242481   1.797   2.762   6.739
14180TIP3   OH242482   5.110   3.346   2.020
14180TIP3    H142483   5.172   3.311   2.084
14180TIP3    H242484   5.162   3.402   1.963
14181TIP3   OH242485   7.934   3.841   1.556
14181TIP3    H142486   8.017   3.866   1.515
14181TIP3    H242487   7.894   3.924   1.582
14182TIP3   OH242488   0.170   4.588   6.253
14182TIP3    H142489   0.201   4.634   6.331
14182TIP3    H242490   0.104   4.526   6.286
14183TIP3   OH242491   6.497   4.382   1.772
14183TIP3    H142492   6.514   4.310   1.833
14183TIP3    H242493   6.468   4.339   1.692
14184TIP3   OH242494   1.692   4.043   6.638
14184TIP3    H142495   1.735   4.069   6.720
14184TIP3    H242496   1.658   4.125   6.603
14185TIP3   OH242497   1.528   0.782   1.460
14185TIP3    H142498   1.553   0.849   1.523
14185TIP3    H242499   1.438   0.804   1.436
14186TIP3   OH242500   0.084   2.295   3.187
14186TIP3    H142501   0.065   2.270   3.277
14186TIP3    H242502   0.096   2.390   3.191
14187TIP3   OH242503   7.634   7.575   1.934
14187TIP3    H142504   7.671   7.488   1.925
14187TIP3    H242505   7.540   7.562   1.925
14188TIP3   OH242506   1.746   1.401   6.027
14188TIP3    H142507   1.827   1.443   5.999
14188TIP3    H242508   1.745   1.317   5.982
14189TIP3   OH242509   0.039   5.453   1.744
14189TIP3    H142510   0.110   5.425   1.686
14189TIP3    H242511   0.017   5.374   1.794
14190TIP3   OH242512   3.008   2.744   6.180
14190TIP3    H142513   3.050   2.795   6.111
14190TIP3    H242514   2.932   2.796   6.205
14191TIP3   OH242515   5.538   7.349   1.711
14191TIP3    H142516   5.477   7.306   1.652
14191TIP3    H242517   5.598   7.396   1.654
14192TIP3   OH242518   7.126   7.375   3.323
14192TIP3    H142519   7.201   7.409   3.274
14192TIP3    H242520   7.161   7.302   3.374
14193TIP3   OH242521   5.343   0.982   6.520
14193TIP3    H142522   5.354   0.928   6.441
14193TIP3    H242523   5.276   0.936   6.571
14194TIP3   OH242524   7.772   4.076   6.489
14194TIP3    H142525   7.747   4.020   6.416
14194TIP3    H242526   7.834   4.024   6.540
14195TIP3   OH242527   1.896   7.041   0.104
14195TIP3    H142528   1.822   7.091   0.071
14195TIP3    H242529   1.973   7.090   0.074
14196TIP3   OH242530   6.950   4.692   1.625
14196TIP3    H142531   7.022   4.629   1.634
14196TIP3    H242532   6.873   4.638   1.606
14197TIP3   OH242533   3.960   2.545   5.860
14197TIP3    H142534   3.869   2.557   5.833
14197TIP3    H242535   4.008   2.613   5.812
14198TIP3   OH242536   4.232   0.767   5.680
14198TIP3    H142537   4.137   0.751   5.688
14198TIP3    H242538   4.241   0.861   5.693
14199TIP3   OH242539   1.356   5.769   1.839
14199TIP3    H142540   1.412   5.839   1.806
14199TIP3    H242541   1.375   5.694   1.784
14200TIP3   OH242542   2.264   2.461   2.351
14200TIP3    H142543   2.300   2.413   2.276
14200TIP3    H242544   2.315   2.542   2.354
14201TIP3   OH242545   5.982   7.287   6.264
14201TIP3    H142546   6.059   7.246   6.225
14201TIP3    H242547   5.910   7.227   6.245
14202TIP3   OH242548   3.926   3.338   3.902
14202TIP3    H142549   3.912   3.361   3.810
14202TIP3    H242550   3.907   3.418   3.950
14203TIP3   OH242551   7.494   0.478   5.166
14203TIP3    H142552   7.489   0.440   5.079
14203TIP3    H242553   7.544   0.415   5.217
14204TIP3   OH242554   2.312   4.421   3.797
14204TIP3    H142555   2.244   4.386   3.855
14204TIP3    H242556   2.303   4.372   3.716
14205TIP3   OH242557   1.060   6.462   5.788
14205TIP3    H142558   1.023   6.375   5.772
14205TIP3    H242559   1.139   6.445   5.840
14206TIP3   OH242560   1.744   1.384   3.858
14206TIP3    H142561   1.660   1.338   3.864
14206TIP3    H242562   1.749   1.413   3.767
14207TIP3   OH242563   6.085   4.821   5.725
14207TIP3    H142564   6.039   4.842   5.644
14207TIP3    H242565   6.080   4.726   5.732
14208TIP3   OH242566   2.909   1.739   5.193
14208TIP3    H142567   2.918   1.827   5.155
14208TIP3    H242568   2.974   1.686   5.148
14209TIP3   OH242569   3.205   0.381   6.143
14209TIP3    H142570   3.260   0.438   6.089
14209TIP3    H242571   3.199   0.300   6.094
14210TIP3   OH242572   1.754   5.454   1.379
14210TIP3    H142573   1.711   5.379   1.339
14210TIP3    H242574   1.819   5.483   1.314
14211TIP3   OH242575  -0.068   3.806   0.857
14211TIP3    H142576  -0.014   3.845   0.925
14211TIP3    H242577  -0.036   3.845   0.776
14212TIP3   OH242578   3.738   0.756   1.074
14212TIP3    H142579   3.675   0.697   1.034
14212TIP3    H242580   3.714   0.843   1.040
14213TIP3   OH242581   1.520   7.010   3.226
14213TIP3    H142582   1.497   6.924   3.262
14213TIP3    H242583   1.615   7.007   3.214
14214TIP3   OH242584   5.754   4.914   5.163
14214TIP3    H142585   5.716   4.986   5.213
14214TIP3    H242586   5.802   4.862   5.227
14215TIP3   OH242587   6.233   4.954   1.920
14215TIP3    H142588   6.318   4.998   1.925
14215TIP3    H242589   6.182   4.991   1.993
14216TIP3   OH242590   4.852   3.807   3.935
14216TIP3    H142591   4.864   3.775   3.845
14216TIP3    H242592   4.768   3.853   3.933
14217TIP3   OH242593   3.149   1.530   1.609
14217TIP3    H142594   3.087   1.490   1.547
14217TIP3    H242595   3.230   1.541   1.559
14218TIP3   OH242596   5.689   2.628   6.446
14218TIP3    H142597   5.717   2.593   6.531
14218TIP3    H242598   5.764   2.617   6.389
14219TIP3   OH242599   0.316   5.498   2.867
14219TIP3    H142600   0.300   5.558   2.940
14219TIP3    H242601   0.408   5.474   2.876
14220TIP3   OH242602   3.502   4.157   3.671
14220TIP3    H142603   3.433   4.096   3.645
14220TIP3    H242604   3.577   4.101   3.693
14221TIP3   OH242605   2.468   0.457   0.886
14221TIP3    H142606   2.454   0.368   0.917
14221TIP3    H242607   2.501   0.447   0.797
14222TIP3   OH242608   4.780   3.823   2.961
14222TIP3    H142609   4.852   3.842   3.020
14222TIP3    H242610   4.809   3.748   2.910
14223TIP3   OH242611   1.970   3.578   5.265
14223TIP3    H142612   1.903   3.534   5.211
14223TIP3    H242613   1.919   3.630   5.328
14224TIP3   OH242614   3.437   1.667   1.770
14224TIP3    H142615   3.359   1.614   1.751
14224TIP3    H242616   3.496   1.607   1.815
14225TIP3   OH242617   2.106   1.421   6.188
14225TIP3    H142618   2.156   1.496   6.154
14225TIP3    H242619   2.167   1.347   6.181
14226TIP3   OH242620   4.144   0.184   1.855
14226TIP3    H142621   4.082   0.238   1.904
14226TIP3    H242622   4.126   0.095   1.884
14227TIP3   OH242623   6.659   5.809   0.863
14227TIP3    H142624   6.743   5.766   0.847
14227TIP3    H242625   6.594   5.742   0.844
14228TIP3   OH242626   5.179   6.182   6.001
14228TIP3    H142627   5.274   6.191   6.014
14228TIP3    H242628   5.169   6.177   5.906
14229TIP3   OH242629   8.105   5.755   4.069
14229TIP3    H142630   8.063   5.773   4.153
14229TIP3    H242631   8.159   5.677   4.086
14230TIP3   OH242632   4.884   2.553   0.880
14230TIP3    H142633   4.790   2.537   0.872
14230TIP3    H242634   4.890   2.644   0.908
14231TIP3   OH242635   1.601   4.556   2.053
14231TIP3    H142636   1.683   4.605   2.056
14231TIP3    H242637   1.621   4.479   2.001
14232TIP3   OH242638   2.762   2.876   2.888
14232TIP3    H142639   2.829   2.902   2.824
14232TIP3    H242640   2.780   2.784   2.904
14233TIP3   OH242641   3.878   0.918   5.839
14233TIP3    H142642   3.866   0.865   5.760
14233TIP3    H242643   3.967   0.897   5.868
14234TIP3   OH242644   0.765   7.727   1.268
14234TIP3    H142645   0.740   7.692   1.354
14234TIP3    H242646   0.683   7.757   1.229
14235TIP3   OH242647   4.278   6.640   3.254
14235TIP3    H142648   4.208   6.585   3.220
14235TIP3    H242649   4.343   6.578   3.289
14236TIP3   OH242650   3.244   1.164   4.477
14236TIP3    H142651   3.271   1.075   4.457
14236TIP3    H242652   3.159   1.155   4.520
14237TIP3   OH242653   4.550   5.593   0.354
14237TIP3    H142654   4.586   5.681   0.361
14237TIP3    H242655   4.592   5.545   0.425
14238TIP3   OH242656   6.252   3.093   3.430
14238TIP3    H142657   6.171   3.122   3.471
14238TIP3    H242658   6.320   3.116   3.494
14239TIP3   OH242659   1.973   0.927   0.265
14239TIP3    H142660   1.919   0.965   0.196
14239TIP3    H242661   1.913   0.875   0.318
14240TIP3   OH242662   7.313   0.147   4.629
14240TIP3    H142663   7.358   0.125   4.711
14240TIP3    H242664   7.349   0.087   4.564
14241TIP3   OH242665   1.522   4.568   1.009
14241TIP3    H142666   1.505   4.478   1.039
14241TIP3    H242667   1.470   4.577   0.930
14242TIP3   OH242668   3.018   7.491   4.149
14242TIP3    H142669   2.975   7.570   4.116
14242TIP3    H242670   2.946   7.428   4.160
14243TIP3   OH242671   5.513   3.834   2.390
14243TIP3    H142672   5.540   3.878   2.470
14243TIP3    H242673   5.476   3.904   2.335
14244TIP3   OH242674   4.297   5.314   5.071
14244TIP3    H142675   4.255   5.380   5.016
14244TIP3    H242676   4.372   5.358   5.109
14245TIP3   OH242677   1.818   5.375   0.875
14245TIP3    H142678   1.828   5.469   0.858
14245TIP3    H242679   1.859   5.333   0.799
14246TIP3   OH242680   6.514   6.743   5.540
14246TIP3    H142681   6.428   6.706   5.521
14246TIP3    H242682   6.501   6.792   5.622
14247TIP3   OH242683   1.169   4.860   1.013
14247TIP3    H142684   1.252   4.895   0.980
14247TIP3    H242685   1.115   4.851   0.935
14248TIP3   OH242686   2.224   6.832   1.269
14248TIP3    H142687   2.129   6.817   1.260
14248TIP3    H242688   2.246   6.887   1.194
14249TIP3   OH242689   7.980   6.610   1.705
14249TIP3    H142690   7.962   6.669   1.778
14249TIP3    H242691   7.933   6.649   1.631
14250TIP3   OH242692   3.641   1.849   0.663
14250TIP3    H142693   3.569   1.804   0.620
14250TIP3    H242694   3.675   1.909   0.597
14251TIP3   OH242695   1.725   3.447   2.001
14251TIP3    H142696   1.687   3.361   1.981
14251TIP3    H242697   1.651   3.508   1.995
14252TIP3   OH242698   5.486   7.010   0.800
14252TIP3    H142699   5.406   6.966   0.773
14252TIP3    H242700   5.530   7.034   0.718
14253TIP3   OH242701   5.821   5.676   0.359
14253TIP3    H142702   5.740   5.642   0.322
14253TIP3    H242703   5.871   5.709   0.285
14254TIP3   OH242704   8.016   5.928   0.993
14254TIP3    H142705   8.092   5.987   0.989
14254TIP3    H242706   8.034   5.872   1.069
14255TIP3   OH242707   0.431   3.407   3.469
14255TIP3    H142708   0.469   3.452   3.544
14255TIP3    H242709   0.338   3.427   3.474
14256TIP3   OH242710   6.817   0.401   2.217
14256TIP3    H142711   6.906   0.413   2.185
14256TIP3    H242712   6.807   0.466   2.286
14257TIP3   OH242713   6.569   2.667   1.104
14257TIP3    H142714   6.501   2.728   1.075
14257TIP3    H242715   6.651   2.707   1.076
14258TIP3   OH242716   4.697   3.082   4.284
14258TIP3    H142717   4.726   3.039   4.204
14258TIP3    H242718   4.732   3.027   4.355
14259TIP3   OH242719   4.016   1.907   3.705
14259TIP3    H142720   4.111   1.915   3.708
14259TIP3    H242721   4.000   1.839   3.639
14260TIP3   OH242722   2.615   4.738   5.051
14260TIP3    H142723   2.692   4.695   5.013
14260TIP3    H242724   2.646   4.775   5.133
14261TIP3   OH242725   5.241   3.768   1.801
14261TIP3    H142726   5.203   3.788   1.715
14261TIP3    H242727   5.213   3.841   1.857
14262TIP3   OH242728   3.627   6.408   5.019
14262TIP3    H142729   3.714   6.369   5.018
14262TIP3    H242730   3.629   6.473   4.949
14263TIP3   OH242731   2.576   2.541   0.037
14263TIP3    H142732   2.586   2.447   0.017
14263TIP3    H242733   2.528   2.576  -0.038
14264TIP3   OH242734   1.885   0.723   0.703
14264TIP3    H142735   1.890   0.790   0.635
14264TIP3    H242736   1.952   0.659   0.680
14265TIP3   OH242737   1.018   1.504   4.289
14265TIP3    H142738   1.020   1.423   4.239
14265TIP3    H242739   0.947   1.555   4.250
14266TIP3   OH242740   6.716   3.710   6.307
14266TIP3    H142741   6.718   3.789   6.253
14266TIP3    H242742   6.720   3.638   6.244
14267TIP3   OH242743   4.322   7.159   4.275
14267TIP3    H142744   4.325   7.094   4.345
14267TIP3    H242745   4.397   7.215   4.291
14268TIP3   OH242746   2.886   7.229   2.124
14268TIP3    H142747   2.832   7.291   2.074
14268TIP3    H242748   2.852   7.235   2.213
14269TIP3   OH242749   7.503   7.133   1.908
14269TIP3    H142750   7.531   7.042   1.899
14269TIP3    H242751   7.484   7.142   2.002
14270TIP3   OH242752   2.614   4.030   6.214
14270TIP3    H142753   2.600   4.116   6.254
14270TIP3    H242754   2.529   4.007   6.177
14271TIP3   OH242755   7.433   5.417   6.326
14271TIP3    H142756   7.423   5.367   6.407
14271TIP3    H242757   7.470   5.501   6.355
14272TIP3   OH242758   3.884   6.257   5.030
14272TIP3    H142759   3.889   6.240   5.124
14272TIP3    H242760   3.976   6.261   5.001
14273TIP3   OH242761   6.415   2.106   3.577
14273TIP3    H142762   6.362   2.097   3.498
14273TIP3    H242763   6.367   2.056   3.643
14274TIP3   OH242764   4.465   3.419   4.829
14274TIP3    H142765   4.407   3.461   4.765
14274TIP3    H242766   4.551   3.422   4.788
14275TIP3   OH242767   2.032   4.160   2.419
14275TIP3    H142768   2.083   4.080   2.433
14275TIP3    H242769   1.971   4.163   2.493
14276TIP3   OH242770   3.734   4.548   3.070
14276TIP3    H142771   3.679   4.574   3.144
14276TIP3    H242772   3.813   4.601   3.080
14277TIP3   OH242773   3.562   5.976   2.851
14277TIP3    H142774   3.485   6.015   2.893
14277TIP3    H242775   3.539   5.970   2.758
14278TIP3   OH242776   6.581   3.261   4.471
14278TIP3    H142777   6.647   3.201   4.436
14278TIP3    H242778   6.531   3.209   4.534
14279TIP3   OH242779   7.314   5.196   3.458
14279TIP3    H142780   7.270   5.115   3.432
14279TIP3    H242781   7.325   5.244   3.377
14280TIP3   OH242782   0.716   6.999   5.230
14280TIP3    H142783   0.653   6.940   5.271
14280TIP3    H242784   0.764   7.038   5.303
14281TIP3   OH242785   2.332   7.325   1.161
14281TIP3    H142786   2.294   7.289   1.081
14281TIP3    H242787   2.426   7.329   1.144
14282TIP3   OH242788   0.212   2.493   0.454
14282TIP3    H142789   0.245   2.430   0.518
14282TIP3    H242790   0.173   2.439   0.385
14283TIP3   OH242791   1.029   4.950   2.903
14283TIP3    H142792   1.052   4.971   2.993
14283TIP3    H242793   0.950   5.001   2.885
14284TIP3   OH242794   0.815   2.253   3.569
14284TIP3    H142795   0.811   2.307   3.648
14284TIP3    H242796   0.831   2.315   3.498
14285TIP3   OH242797   0.537   2.973   0.496
14285TIP3    H142798   0.495   2.894   0.529
14285TIP3    H242799   0.590   3.005   0.569
14286TIP3   OH242800   2.460   3.757   4.259
14286TIP3    H142801   2.394   3.818   4.227
14286TIP3    H242802   2.411   3.700   4.319
14287TIP3   OH242803   6.049   2.926   6.122
14287TIP3    H142804   5.991   2.964   6.189
14287TIP3    H242805   6.132   2.914   6.167
14288TIP3   OH242806   7.871   6.098   3.630
14288TIP3    H142807   7.802   6.147   3.675
14288TIP3    H242808   7.949   6.114   3.682
14289TIP3   OH242809   2.881   6.818   4.047
14289TIP3    H142810   2.876   6.842   3.955
14289TIP3    H242811   2.924   6.892   4.089
14290TIP3   OH242812   1.972   0.299   2.021
14290TIP3    H142813   1.932   0.213   2.038
14290TIP3    H242814   1.963   0.346   2.104
14291TIP3   OH242815   5.429   3.599   3.599
14291TIP3    H142816   5.366   3.527   3.600
14291TIP3    H242817   5.450   3.611   3.506
14292TIP3   OH242818   7.075   6.273   0.661
14292TIP3    H142819   6.991   6.239   0.691
14292TIP3    H242820   7.073   6.260   0.566
14293TIP3   OH242821   2.636   5.261   4.294
14293TIP3    H142822   2.611   5.211   4.216
14293TIP3    H242823   2.555   5.304   4.322
14294TIP3   OH242824   2.904   7.446   3.247
14294TIP3    H142825   2.808   7.449   3.252
14294TIP3    H242826   2.932   7.534   3.271
14295TIP3   OH242827   0.124   2.147   5.525
14295TIP3    H142828   0.095   2.165   5.615
14295TIP3    H242829   0.219   2.141   5.531
14296TIP3   OH242830   1.129   1.872   3.133
14296TIP3    H142831   1.154   1.963   3.119
14296TIP3    H242832   1.193   1.821   3.083
14297TIP3   OH242833   6.610   0.767   5.267
14297TIP3    H142834   6.584   0.849   5.308
14297TIP3    H242835   6.703   0.778   5.247
14298TIP3   OH242836   4.400   3.133   6.745
14298TIP3    H142837   4.401   3.112   6.652
14298TIP3    H242838   4.318   3.182   6.758
14299TIP3   OH242839   4.012   3.047   3.989
14299TIP3    H142840   4.101   3.056   4.023
14299TIP3    H242841   4.021   3.047   3.894
14300TIP3   OH242842   4.199   0.513   0.466
14300TIP3    H142843   4.176   0.528   0.558
14300TIP3    H242844   4.127   0.462   0.431
14301TIP3   OH242845   1.496   6.654   2.472
14301TIP3    H142846   1.449   6.734   2.494
14301TIP3    H242847   1.429   6.596   2.436
14302TIP3   OH242848   1.589   3.506   0.973
14302TIP3    H142849   1.562   3.415   0.965
14302TIP3    H242850   1.670   3.511   0.923
14303TIP3   OH242851   6.469   6.129   4.768
14303TIP3    H142852   6.527   6.069   4.720
14303TIP3    H242853   6.527   6.199   4.798
14304TIP3   OH242854   6.925   3.388   5.247
14304TIP3    H142855   6.957   3.310   5.201
14304TIP3    H242856   6.853   3.420   5.193
14305TIP3   OH242857   2.839   0.318   2.804
14305TIP3    H142858   2.856   0.242   2.749
14305TIP3    H242859   2.849   0.285   2.894
14306TIP3   OH242860   2.177   3.483   4.351
14306TIP3    H142861   2.177   3.387   4.350
14306TIP3    H242862   2.085   3.508   4.350
14307TIP3   OH242863   5.963   6.748   0.607
14307TIP3    H142864   6.044   6.719   0.565
14307TIP3    H242865   5.898   6.682   0.583
14308TIP3   OH242866   3.470   7.079   0.938
14308TIP3    H142867   3.482   7.113   0.849
14308TIP3    H242868   3.496   7.151   0.995
14309TIP3   OH242869   0.465   3.475   6.580
14309TIP3    H142870   0.548   3.431   6.561
14309TIP3    H242871   0.398   3.409   6.563
14310TIP3   OH242872   0.697   0.659   2.936
14310TIP3    H142873   0.684   0.568   2.961
14310TIP3    H242874   0.787   0.679   2.962
14311TIP3   OH242875   4.717   5.617   2.378
14311TIP3    H142876   4.780   5.657   2.439
14311TIP3    H242877   4.708   5.681   2.308
14312TIP3   OH242878   1.489   5.931   1.673
14312TIP3    H142879   1.583   5.915   1.675
14312TIP3    H242880   1.478   5.997   1.603
14313TIP3   OH242881   2.220   3.909   4.271
14313TIP3    H142882   2.197   3.973   4.338
14313TIP3    H242883   2.159   3.837   4.284
14314TIP3   OH242884   6.047   0.317   4.385
14314TIP3    H142885   6.086   0.272   4.459
14314TIP3    H242886   6.049   0.253   4.314
14315TIP3   OH242887   1.054   5.446   4.733
14315TIP3    H142888   1.127   5.507   4.745
14315TIP3    H242889   1.096   5.363   4.712
14316TIP3   OH242890   6.111   3.299   4.512
14316TIP3    H142891   6.181   3.364   4.523
14316TIP3    H242892   6.041   3.346   4.468
14317TIP3   OH242893   0.114   7.309   1.654
14317TIP3    H142894   0.086   7.340   1.739
14317TIP3    H242895   0.169   7.232   1.673
14318TIP3   OH242896   7.605   1.844   1.142
14318TIP3    H142897   7.566   1.816   1.059
14318TIP3    H242898   7.694   1.811   1.139
14319TIP3   OH242899   2.063   7.501   5.915
14319TIP3    H142900   2.038   7.513   5.824
14319TIP3    H242901   2.138   7.441   5.912
14320TIP3   OH242902   2.117   4.800   3.679
14320TIP3    H142903   2.183   4.743   3.716
14320TIP3    H242904   2.115   4.778   3.586
14321TIP3   OH242905   4.039   4.963   2.717
14321TIP3    H142906   3.978   5.016   2.767
14321TIP3    H242907   3.986   4.922   2.649
14322TIP3   OH242908   3.710   7.791   4.349
14322TIP3    H142909   3.800   7.781   4.381
14322TIP3    H242910   3.719   7.787   4.253
14323TIP3   OH242911   1.913   5.842   2.258
14323TIP3    H142912   1.878   5.841   2.347
14323TIP3    H242913   1.844   5.806   2.204
14324TIP3   OH242914   0.541   5.364   4.020
14324TIP3    H142915   0.565   5.301   3.951
14324TIP3    H242916   0.538   5.448   3.976
14325TIP3   OH242917   2.706   5.889   4.430
14325TIP3    H142918   2.707   5.793   4.427
14325TIP3    H242919   2.770   5.911   4.498
14326TIP3   OH242920   1.481   2.919   6.350
14326TIP3    H142921   1.533   2.875   6.283
14326TIP3    H242922   1.402   2.948   6.304
14327TIP3   OH242923   1.310   3.395   3.169
14327TIP3    H142924   1.224   3.364   3.198
14327TIP3    H242925   1.320   3.479   3.214
14328TIP3   OH242926   8.058   6.757   4.116
14328TIP3    H142927   8.047   6.816   4.190
14328TIP3    H242928   7.973   6.714   4.107
14329TIP3   OH242929   7.513   5.764   0.516
14329TIP3    H142930   7.513   5.677   0.555
14329TIP3    H242931   7.420   5.784   0.503
14330TIP3   OH242932   5.146   2.518   2.357
14330TIP3    H142933   5.139   2.446   2.294
14330TIP3    H242934   5.110   2.594   2.310
14331TIP3   OH242935   5.620   5.370   1.736
14331TIP3    H142936   5.533   5.360   1.775
14331TIP3    H242937   5.614   5.453   1.687
14332TIP3   OH242938   1.707   6.136   5.063
14332TIP3    H142939   1.661   6.219   5.065
14332TIP3    H242940   1.640   6.071   5.044
14333TIP3   OH242941   7.375   3.326   0.097
14333TIP3    H142942   7.440   3.395   0.086
14333TIP3    H242943   7.387   3.296   0.187
14334TIP3   OH242944   5.131   5.330   2.878
14334TIP3    H142945   5.190   5.392   2.836
14334TIP3    H242946   5.136   5.351   2.971
14335TIP3   OH242947   2.312   1.198   2.836
14335TIP3    H142948   2.267   1.268   2.790
14335TIP3    H242949   2.324   1.232   2.925
14336TIP3   OH242950   5.074   1.457   0.645
14336TIP3    H142951   5.095   1.407   0.724
14336TIP3    H242952   5.137   1.529   0.644
14337TIP3   OH242953   4.025   1.754   0.953
14337TIP3    H142954   4.032   1.845   0.983
14337TIP3    H242955   3.931   1.737   0.949
14338TIP3   OH242956   5.976   6.266   0.486
14338TIP3    H142957   5.945   6.356   0.493
14338TIP3    H242958   6.030   6.253   0.565
14339TIP3   OH242959   7.367   2.918   2.162
14339TIP3    H142960   7.441   2.884   2.112
14339TIP3    H242961   7.350   3.005   2.125
14340TIP3   OH242962   1.978   7.628   4.609
14340TIP3    H142963   2.010   7.540   4.590
14340TIP3    H242964   1.976   7.671   4.523
14341TIP3   OH242965   4.856   0.766   3.957
14341TIP3    H142966   4.770   0.745   3.993
14341TIP3    H242967   4.917   0.713   4.008
14342TIP3   OH242968   6.006   5.522   4.396
14342TIP3    H142969   5.981   5.515   4.488
14342TIP3    H242970   6.033   5.613   4.386
14343TIP3   OH242971   5.744   4.441   4.245
14343TIP3    H142972   5.822   4.388   4.227
14343TIP3    H242973   5.769   4.529   4.218
14344TIP3   OH242974   5.775   5.085   5.937
14344TIP3    H142975   5.869   5.068   5.934
14344TIP3    H242976   5.735   4.998   5.931
14345TIP3   OH242977   0.592   5.946   4.450
14345TIP3    H142978   0.635   6.031   4.443
14345TIP3    H242979   0.615   5.902   4.368
14346TIP3   OH242980   5.296   4.528   0.247
14346TIP3    H142981   5.256   4.564   0.168
14346TIP3    H242982   5.242   4.563   0.319
14347TIP3   OH242983   6.873   6.487   2.667
14347TIP3    H142984   6.815   6.416   2.694
14347TIP3    H242985   6.907   6.523   2.749
14348TIP3   OH242986   0.037   1.072   0.784
14348TIP3    H142987   0.118   1.086   0.735
14348TIP3    H242988   0.015   1.158   0.819
14349TIP3   OH242989   5.986   0.655   6.704
14349TIP3    H142990   5.940   0.696   6.631
14349TIP3    H242991   6.047   0.723   6.735
14350TIP3   OH242992   8.020   1.220   2.638
14350TIP3    H142993   8.089   1.166   2.676
14350TIP3    H242994   8.027   1.206   2.544
14351TIP3   OH242995   0.475   7.410   0.336
14351TIP3    H142996   0.455   7.396   0.428
14351TIP3    H242997   0.434   7.336   0.290
14352TIP3   OH242998   4.553   2.588   0.336
14352TIP3    H142999   4.648   2.591   0.324
14352TIP3    H243000   4.540   2.603   0.429
14353TIP3   OH243001   1.916   6.552   0.399
14353TIP3    H143002   1.929   6.457   0.401
14353TIP3    H243003   2.002   6.588   0.378
14354TIP3   OH243004   2.882   2.279   2.810
14354TIP3    H143005   2.843   2.358   2.771
14354TIP3    H243006   2.835   2.207   2.769
14355TIP3   OH243007   3.495   2.499   3.100
14355TIP3    H143008   3.568   2.443   3.129
14355TIP3    H243009   3.522   2.588   3.125
14356TIP3   OH243010   7.552   1.938   0.799
14356TIP3    H143011   7.465   1.899   0.791
14356TIP3    H243012   7.612   1.863   0.806
14357TIP3   OH243013   2.514   7.135   5.722
14357TIP3    H143014   2.525   7.192   5.646
14357TIP3    H243015   2.493   7.049   5.685
14358TIP3   OH243016   0.089   2.072   6.187
14358TIP3    H143017   0.102   1.995   6.132
14358TIP3    H243018   0.080   2.038   6.276
14359TIP3   OH243019   5.047   6.227   4.792
14359TIP3    H143020   4.955   6.236   4.814
14359TIP3    H243021   5.062   6.132   4.789
14360TIP3   OH243022   0.372   6.159   4.040
14360TIP3    H143023   0.391   6.149   3.947
14360TIP3    H243024   0.331   6.245   4.047
14361TIP3   OH243025   1.327   6.009   4.325
14361TIP3    H143026   1.393   5.959   4.278
14361TIP3    H243027   1.246   5.994   4.277
14362TIP3   OH243028   5.727   3.691   1.807
14362TIP3    H143029   5.822   3.683   1.815
14362TIP3    H243030   5.701   3.618   1.751
14363TIP3   OH243031   6.613   1.159   0.414
14363TIP3    H143032   6.680   1.194   0.473
14363TIP3    H243033   6.612   1.065   0.434
14364TIP3   OH243034   2.327   3.170   5.039
14364TIP3    H143035   2.407   3.195   4.994
14364TIP3    H243036   2.335   3.076   5.053
14365TIP3   OH243037   5.094   4.160   6.684
14365TIP3    H143038   4.999   4.175   6.681
14365TIP3    H243039   5.110   4.129   6.774
14366TIP3   OH243040   4.218   1.089   4.164
14366TIP3    H143041   4.202   1.115   4.074
14366TIP3    H243042   4.245   0.997   4.158
14367TIP3   OH243043   0.233   3.107   0.176
14367TIP3    H143044   0.258   3.161   0.101
14367TIP3    H243045   0.296   3.036   0.177
14368TIP3   OH243046   6.360   7.561   1.479
14368TIP3    H143047   6.323   7.624   1.541
14368TIP3    H243048   6.288   7.541   1.420
14369TIP3   OH243049   5.108   0.528   1.207
14369TIP3    H143050   5.185   0.493   1.164
14369TIP3    H243051   5.038   0.467   1.184
14370TIP3   OH243052   1.807   1.302   1.140
14370TIP3    H143053   1.894   1.338   1.125
14370TIP3    H243054   1.794   1.240   1.068
14371TIP3   OH243055   1.997   7.690   3.160
14371TIP3    H143056   2.046   7.734   3.090
14371TIP3    H243057   1.931   7.638   3.114
14372TIP3   OH243058   3.666   0.447   5.692
14372TIP3    H143059   3.691   0.516   5.754
14372TIP3    H243060   3.606   0.392   5.742
14373TIP3   OH243061   1.949   1.323   2.523
14373TIP3    H143062   1.910   1.322   2.611
14373TIP3    H243063   1.874   1.325   2.464
14374TIP3   OH243064   4.185   3.417   3.617
14374TIP3    H143065   4.253   3.485   3.626
14374TIP3    H243066   4.200   3.379   3.530
14375TIP3   OH243067   2.898   1.880   1.795
14375TIP3    H143068   2.941   1.965   1.797
14375TIP3    H243069   2.926   1.841   1.712
14376TIP3   OH243070   6.671   0.574   2.928
14376TIP3    H143071   6.630   0.506   2.982
14376TIP3    H243072   6.765   0.558   2.937
14377TIP3   OH243073   6.799   5.359   2.550
14377TIP3    H143074   6.843   5.435   2.513
14377TIP3    H243075   6.867   5.292   2.554
14378TIP3   OH243076   4.299   2.273   4.183
14378TIP3    H143077   4.318   2.350   4.130
14378TIP3    H243078   4.277   2.205   4.119
14379TIP3   OH243079   6.675   1.610   2.702
14379TIP3    H143080   6.612   1.658   2.649
14379TIP3    H243081   6.664   1.518   2.677
14380TIP3   OH243082   7.612   3.082   1.497
14380TIP3    H143083   7.561   3.161   1.483
14380TIP3    H243084   7.625   3.046   1.409
14381TIP3   OH243085   6.411   2.849   4.604
14381TIP3    H143086   6.434   2.935   4.567
14381TIP3    H243087   6.380   2.869   4.692
14382TIP3   OH243088   7.688   6.478   6.666
14382TIP3    H143089   7.736   6.556   6.637
14382TIP3    H243090   7.622   6.464   6.598
14383TIP3   OH243091   0.778   1.506   3.062
14383TIP3    H143092   0.801   1.467   3.147
14383TIP3    H243093   0.825   1.589   3.060
14384TIP3   OH243094   1.617   5.463   0.593
14384TIP3    H143095   1.704   5.435   0.563
14384TIP3    H243096   1.626   5.558   0.607
14385TIP3   OH243097   2.147   5.973   2.495
14385TIP3    H143098   2.066   5.977   2.546
14385TIP3    H243099   2.121   5.935   2.411
14386TIP3   OH243100   7.459   4.378   1.660
14386TIP3    H143101   7.384   4.349   1.712
14386TIP3    H243102   7.507   4.437   1.718
14387TIP3   OH243103   1.916   4.585   1.239
14387TIP3    H143104   1.946   4.501   1.206
14387TIP3    H243105   1.995   4.628   1.272
14388TIP3   OH243106   0.885   0.445   4.308
14388TIP3    H143107   0.871   0.398   4.389
14388TIP3    H243108   0.963   0.404   4.269
14389TIP3   OH243109   7.721   5.555   6.094
14389TIP3    H143110   7.631   5.524   6.098
14389TIP3    H243111   7.765   5.493   6.035
14390TIP3   OH243112   1.636   0.474   2.879
14390TIP3    H143113   1.599   0.561   2.870
14390TIP3    H243114   1.567   0.423   2.922
14391TIP3   OH243115   1.217   7.357   5.958
14391TIP3    H143116   1.139   7.376   6.010
14391TIP3    H243117   1.221   7.261   5.955
14392TIP3   OH243118   6.907   0.134   2.426
14392TIP3    H143119   6.929   0.219   2.464
14392TIP3    H243120   6.815   0.121   2.447
14393TIP3   OH243121   3.974   3.497   2.068
14393TIP3    H143122   4.049   3.536   2.112
14393TIP3    H243123   3.898   3.545   2.102
14394TIP3   OH243124   4.119   0.249   5.179
14394TIP3    H143125   4.105   0.217   5.090
14394TIP3    H243126   4.036   0.290   5.203
14395TIP3   OH243127   2.237   2.325   6.267
14395TIP3    H143128   2.196   2.375   6.337
14395TIP3    H243129   2.277   2.391   6.211
14396TIP3   OH243130   2.171   1.571   4.764
14396TIP3    H143131   2.122   1.510   4.820
14396TIP3    H243132   2.126   1.567   4.679
14397TIP3   OH243133   3.159   3.772   1.473
14397TIP3    H143134   3.170   3.856   1.518
14397TIP3    H243135   3.224   3.775   1.402
14398TIP3   OH243136   1.892   7.531   1.873
14398TIP3    H143137   1.904   7.436   1.883
14398TIP3    H243138   1.821   7.552   1.934
14399TIP3   OH243139   3.527   5.748   1.354
14399TIP3    H143140   3.496   5.838   1.368
14399TIP3    H243141   3.539   5.713   1.442
14400TIP3   OH243142   5.177   3.040   6.286
14400TIP3    H143143   5.237   3.083   6.225
14400TIP3    H243144   5.202   3.076   6.372
14401TIP3   OH243145   5.794   4.177   5.991
14401TIP3    H143146   5.887   4.180   6.014
14401TIP3    H243147   5.790   4.219   5.905
14402TIP3   OH243148   7.689   1.331   5.024
14402TIP3    H143149   7.677   1.280   4.945
14402TIP3    H243150   7.757   1.286   5.073
14403TIP3   OH243151   7.597   5.133   5.420
14403TIP3    H143152   7.591   5.042   5.448
14403TIP3    H243153   7.608   5.183   5.501
14404TIP3   OH243154   4.188   5.892   0.151
14404TIP3    H143155   4.272   5.861   0.117
14404TIP3    H243156   4.145   5.932   0.076
14405TIP3   OH243157   7.064   6.775   0.314
14405TIP3    H143158   7.092   6.701   0.261
14405TIP3    H243159   7.025   6.836   0.251
14406TIP3   OH243160   0.631   1.824   2.927
14406TIP3    H143161   0.726   1.828   2.924
14406TIP3    H243162   0.611   1.732   2.944
14407TIP3   OH243163   5.957   3.819   4.861
14407TIP3    H143164   5.955   3.878   4.786
14407TIP3    H243165   5.906   3.864   4.929
14408TIP3   OH243166   4.137   4.218   0.603
14408TIP3    H143167   4.041   4.219   0.605
14408TIP3    H243168   4.159   4.164   0.527
14409TIP3   OH243169   5.997   5.772   5.179
14409TIP3    H143170   6.035   5.834   5.241
14409TIP3    H243171   5.998   5.688   5.225
14410TIP3   OH243172   7.291   2.441   1.621
14410TIP3    H143173   7.265   2.533   1.630
14410TIP3    H243174   7.208   2.393   1.619
14411TIP3   OH243175   1.915   4.822   4.439
14411TIP3    H143176   1.973   4.897   4.427
14411TIP3    H243177   1.974   4.746   4.435
14412TIP3   OH243178   5.104   2.827   3.914
14412TIP3    H143179   5.121   2.871   3.997
14412TIP3    H243180   5.034   2.879   3.873
14413TIP3   OH243181   2.989   5.478   4.490
14413TIP3    H143182   3.078   5.507   4.470
14413TIP3    H243183   2.976   5.500   4.582
14414TIP3   OH243184   5.361   4.123   6.584
14414TIP3    H143185   5.429   4.187   6.607
14414TIP3    H243186   5.279   4.167   6.602
14415TIP3   OH243187   1.488   0.761   3.667
14415TIP3    H143188   1.477   0.728   3.578
14415TIP3    H243189   1.424   0.713   3.719
14416TIP3   OH243190   1.917   5.357   2.847
14416TIP3    H143191   1.873   5.320   2.923
14416TIP3    H243192   1.908   5.289   2.779
14417TIP3   OH243193   0.353   5.514   6.047
14417TIP3    H143194   0.291   5.453   6.088
14417TIP3    H243195   0.436   5.467   6.046
14418TIP3   OH243196   5.291   6.033   4.077
14418TIP3    H143197   5.272   5.989   3.994
14418TIP3    H243198   5.360   5.980   4.117
14419TIP3   OH243199   1.914   0.933   1.693
14419TIP3    H143200   1.850   0.978   1.748
14419TIP3    H243201   1.926   0.848   1.734
14420TIP3   OH243202   6.450   3.015   1.526
14420TIP3    H143203   6.358   3.021   1.552
14420TIP3    H243204   6.454   2.937   1.470
14421TIP3   OH243205   4.840   2.539   1.218
14421TIP3    H143206   4.867   2.600   1.287
14421TIP3    H243207   4.920   2.522   1.168
14422TIP3   OH243208   7.441   0.037   4.838
14422TIP3    H143209   7.529   0.062   4.863
14422TIP3    H243210   7.385   0.065   4.911
14423TIP3   OH243211   7.102   0.941   0.574
14423TIP3    H143212   7.057   0.882   0.513
14423TIP3    H243213   7.192   0.943   0.543
14424TIP3   OH243214   5.891   0.044   3.512
14424TIP3    H143215   5.866  -0.036   3.559
14424TIP3    H243216   5.845   0.114   3.559
14425TIP3   OH243217   3.140   1.920   2.178
14425TIP3    H143218   3.116   1.864   2.104
14425TIP3    H243219   3.217   1.969   2.147
14426TIP3   OH243220   0.787   0.875   5.951
14426TIP3    H143221   0.749   0.836   5.873
14426TIP3    H243222   0.726   0.946   5.973
14427TIP3   OH243223   5.406   0.882   1.809
14427TIP3    H143224   5.376   0.791   1.798
14427TIP3    H243225   5.375   0.907   1.896
14428TIP3   OH243226   6.818   4.845   3.457
14428TIP3    H143227   6.741   4.893   3.486
14428TIP3    H243228   6.885   4.912   3.446
14429TIP3   OH243229   7.046   2.025   1.889
14429TIP3    H143230   6.983   2.087   1.925
14429TIP3    H243231   7.038   1.948   1.946
14430TIP3   OH243232   2.922   7.289   4.743
14430TIP3    H143233   2.934   7.225   4.673
14430TIP3    H243234   2.959   7.246   4.821
14431TIP3   OH243235   2.586   5.764   3.513
14431TIP3    H143236   2.559   5.855   3.526
14431TIP3    H243237   2.581   5.724   3.600
14432TIP3   OH243238   3.788   4.612   0.977
14432TIP3    H143239   3.849   4.587   0.908
14432TIP3    H243240   3.779   4.533   1.030
14433TIP3   OH243241   1.832   1.525   5.548
14433TIP3    H143242   1.779   1.454   5.512
14433TIP3    H243243   1.782   1.557   5.623
14434TIP3   OH243244   0.738   1.856   0.149
14434TIP3    H143245   0.799   1.909   0.097
14434TIP3    H243246   0.651   1.886   0.122
14435TIP3   OH243247   3.959   6.921   4.312
14435TIP3    H143248   3.937   6.996   4.368
14435TIP3    H243249   3.998   6.959   4.234
14436TIP3   OH243250   3.775   2.761   6.025
14436TIP3    H143251   3.702   2.730   5.971
14436TIP3    H243252   3.851   2.758   5.967
14437TIP3   OH243253   1.134   0.079   1.794
14437TIP3    H143254   1.137   0.004   1.735
14437TIP3    H243255   1.068   0.056   1.859
14438TIP3   OH243256   2.543   2.096   3.728
14438TIP3    H143257   2.509   2.007   3.732
14438TIP3    H243258   2.571   2.115   3.818
14439TIP3   OH243259   3.956   5.947   3.104
14439TIP3    H143260   3.904   6.023   3.129
14439TIP3    H243261   4.045   5.969   3.131
14440TIP3   OH243262   4.489   2.771   0.947
14440TIP3    H143263   4.435   2.701   0.983
14440TIP3    H243264   4.561   2.780   1.009
14441TIP3   OH243265   6.000   2.368   2.948
14441TIP3    H143266   5.910   2.387   2.922
14441TIP3    H243267   6.034   2.452   2.979
14442TIP3   OH243268   2.779   0.500   0.702
14442TIP3    H143269   2.765   0.584   0.746
14442TIP3    H243270   2.792   0.437   0.773
14443TIP3   OH243271   2.511   4.136   0.861
14443TIP3    H143272   2.576   4.067   0.848
14443TIP3    H243273   2.502   4.144   0.956
14444TIP3   OH243274   5.347   4.308   3.298
14444TIP3    H143275   5.342   4.230   3.241
14444TIP3    H243276   5.429   4.296   3.346
14445TIP3   OH243277   3.695   0.893   3.797
14445TIP3    H143278   3.694   0.973   3.745
14445TIP3    H243279   3.761   0.910   3.865
14446TIP3   OH243280   2.467   3.598   2.848
14446TIP3    H143281   2.420   3.665   2.897
14446TIP3    H243282   2.409   3.576   2.776
14447TIP3   OH243283   8.106   1.592   0.235
14447TIP3    H143284   8.061   1.522   0.186
14447TIP3    H243285   8.117   1.556   0.323
14448TIP3   OH243286   7.887   5.708   1.875
14448TIP3    H143287   7.979   5.731   1.863
14448TIP3    H243288   7.890   5.623   1.919
14449TIP3   OH243289   5.079   7.521   3.003
14449TIP3    H143290   5.015   7.489   3.066
14449TIP3    H243291   5.163   7.491   3.036
14450TIP3   OH243292   5.298   7.570   2.240
14450TIP3    H143293   5.320   7.485   2.201
14450TIP3    H243294   5.273   7.549   2.330
14451TIP3   OH243295   7.711   1.903   2.816
14451TIP3    H143296   7.720   1.816   2.855
14451TIP3    H243297   7.674   1.887   2.729
14452TIP3   OH243298   0.785   6.675   6.554
14452TIP3    H143299   0.822   6.684   6.642
14452TIP3    H243300   0.713   6.613   6.565
14453TIP3   OH243301   1.189   7.495   4.451
14453TIP3    H143302   1.252   7.543   4.397
14453TIP3    H243303   1.145   7.563   4.502
14454TIP3   OH243304   7.401   4.289   1.227
14454TIP3    H143305   7.379   4.349   1.156
14454TIP3    H243306   7.319   4.245   1.248
14455TIP3   OH243307   0.533   1.943   3.535
14455TIP3    H143308   0.609   1.963   3.481
14455TIP3    H243309   0.569   1.928   3.623
14456TIP3   OH243310   4.856   6.605   3.936
14456TIP3    H143311   4.828   6.672   3.874
14456TIP3    H243312   4.811   6.525   3.907
14457TIP3   OH243313   6.745   2.183   1.701
14457TIP3    H143314   6.792   2.252   1.748
14457TIP3    H243315   6.707   2.228   1.625
14458TIP3   OH243316   6.139   0.246   4.868
14458TIP3    H143317   6.161   0.202   4.950
14458TIP3    H243318   6.067   0.195   4.831
14459TIP3   OH243319   7.288   3.463   3.695
14459TIP3    H143320   7.236   3.525   3.746
14459TIP3    H243321   7.369   3.510   3.675
14460TIP3   OH243322   4.946   4.246   6.000
14460TIP3    H143323   4.897   4.219   6.078
14460TIP3    H243324   4.953   4.166   5.947
14461TIP3   OH243325   7.143   7.293   0.453
14461TIP3    H143326   7.155   7.223   0.390
14461TIP3    H243327   7.050   7.290   0.476
14462TIP3   OH243328   2.821   2.645   6.466
14462TIP3    H143329   2.892   2.652   6.531
14462TIP3    H243330   2.754   2.705   6.498
14463TIP3   OH243331   6.359   6.059   3.795
14463TIP3    H143332   6.379   6.079   3.704
14463TIP3    H243333   6.301   6.130   3.823
14464TIP3   OH243334   0.562   3.514   5.921
14464TIP3    H143335   0.530   3.493   5.833
14464TIP3    H243336   0.633   3.452   5.937
14465TIP3   OH243337   7.900   6.555   3.975
14465TIP3    H143338   7.855   6.475   3.950
14465TIP3    H243339   7.989   6.543   3.941
14466TIP3   OH243340   5.620   5.130   5.289
14466TIP3    H143341   5.575   5.193   5.347
14466TIP3    H243342   5.580   5.144   5.204
14467TIP3   OH243343   1.281   7.726   1.117
14467TIP3    H143344   1.292   7.817   1.090
14467TIP3    H243345   1.197   7.725   1.164
14468TIP3   OH243346   0.411   3.377   0.964
14468TIP3    H143347   0.360   3.442   1.012
14468TIP3    H243348   0.356   3.299   0.961
14469TIP3   OH243349   7.503   6.720   6.619
14469TIP3    H143350   7.425   6.771   6.645
14469TIP3    H243351   7.476   6.629   6.631
14470TIP3   OH243352   2.403   7.652   5.161
14470TIP3    H143353   2.467   7.688   5.099
14470TIP3    H243354   2.330   7.624   5.106
14471TIP3   OH243355   7.118   6.947   3.318
14471TIP3    H143356   7.046   7.008   3.301
14471TIP3    H243357   7.196   6.996   3.291
14472TIP3   OH243358   4.372   3.511   2.498
14472TIP3    H143359   4.278   3.530   2.498
14472TIP3    H243360   4.381   3.431   2.550
14473TIP3   OH243361   0.390   5.127   4.606
14473TIP3    H143362   0.374   5.207   4.655
14473TIP3    H243363   0.468   5.146   4.554
14474TIP3   OH243364   3.690   0.435   4.224
14474TIP3    H143365   3.612   0.406   4.272
14474TIP3    H243366   3.756   0.447   4.292
14475TIP3   OH243367   1.728   1.182   5.243
14475TIP3    H143368   1.702   1.093   5.222
14475TIP3    H243369   1.805   1.198   5.188
14476TIP3   OH243370   4.165   1.582   2.153
14476TIP3    H143371   4.203   1.494   2.146
14476TIP3    H243372   4.124   1.597   2.067
14477TIP3   OH243373   2.646   3.773   4.898
14477TIP3    H143374   2.713   3.840   4.906
14477TIP3    H243375   2.597   3.778   4.980
14478TIP3   OH243376   1.224   6.841   3.868
14478TIP3    H143377   1.276   6.920   3.856
14478TIP3    H243378   1.138   6.863   3.832
14479TIP3   OH243379   1.612   2.387   3.020
14479TIP3    H143380   1.542   2.393   2.954
14479TIP3    H243381   1.662   2.310   2.993
14480TIP3   OH243382   0.283   7.068   2.275
14480TIP3    H143383   0.301   7.158   2.251
14480TIP3    H243384   0.364   7.021   2.254
14481TIP3   OH243385   7.271   2.667   6.715
14481TIP3    H143386   7.351   2.705   6.751
14481TIP3    H243387   7.272   2.576   6.743
14482TIP3   OH243388   6.976   4.872   0.390
14482TIP3    H143389   7.070   4.855   0.398
14482TIP3    H243390   6.935   4.798   0.435
14483TIP3   OH243391   5.256   1.994   5.144
14483TIP3    H143392   5.212   2.079   5.143
14483TIP3    H243393   5.243   1.959   5.056
14484TIP3   OH243394   3.446   7.067   2.580
14484TIP3    H143395   3.428   7.088   2.488
14484TIP3    H243396   3.501   6.988   2.576
14485TIP3   OH243397   4.877   6.828   5.303
14485TIP3    H143398   4.911   6.903   5.254
14485TIP3    H243399   4.954   6.784   5.338
14486TIP3   OH243400   0.109   3.725   1.223
14486TIP3    H143401   0.163   3.692   1.295
14486TIP3    H243402   0.111   3.820   1.233
14487TIP3   OH243403   4.409   1.698   6.481
14487TIP3    H143404   4.477   1.685   6.548
14487TIP3    H243405   4.458   1.719   6.402
14488TIP3   OH243406   7.898   1.807   3.312
14488TIP3    H143407   7.906   1.742   3.382
14488TIP3    H243408   7.828   1.865   3.342
14489TIP3   OH243409   0.117   0.746   4.944
14489TIP3    H143410   0.040   0.689   4.949
14489TIP3    H243411   0.153   0.744   5.033
14490TIP3   OH243412   2.994   1.426   4.248
14490TIP3    H143413   3.078   1.391   4.219
14490TIP3    H243414   3.001   1.426   4.344
14491TIP3   OH243415   2.823   2.533   4.518
14491TIP3    H143416   2.869   2.598   4.465
14491TIP3    H243417   2.828   2.568   4.607
14492TIP3   OH243418   7.044   7.460   4.440
14492TIP3    H143419   6.959   7.463   4.483
14492TIP3    H243420   7.107   7.485   4.508
14493TIP3   OH243421   4.935   4.305   0.257
14493TIP3    H143422   4.953   4.392   0.220
14493TIP3    H243423   4.958   4.314   0.350
14494TIP3   OH243424   3.912   2.730   3.329
14494TIP3    H143425   3.916   2.634   3.327
14494TIP3    H243426   3.881   2.754   3.242
14495TIP3   OH243427   6.895   3.949   0.335
14495TIP3    H143428   6.896   4.033   0.290
14495TIP3    H243429   6.944   3.964   0.416
14496TIP3   OH243430   4.704   4.514   5.931
14496TIP3    H143431   4.694   4.421   5.913
14496TIP3    H243432   4.739   4.551   5.850
14497TIP3   OH243433   4.994   2.675   6.052
14497TIP3    H143434   5.013   2.585   6.026
14497TIP3    H243435   4.900   2.676   6.069
14498TIP3   OH243436   0.813   6.868   4.425
14498TIP3    H143437   0.802   6.817   4.345
14498TIP3    H243438   0.805   6.959   4.398
14499TIP3   OH243439   5.169   2.886   6.622
14499TIP3    H143440   5.229   2.954   6.592
14499TIP3    H243441   5.113   2.867   6.546
14500TIP3   OH243442   5.616   1.931   0.286
14500TIP3    H143443   5.589   1.909   0.375
14500TIP3    H243444   5.652   2.019   0.293
14501TIP3   OH243445   2.229   7.000   5.395
14501TIP3    H143446   2.176   7.069   5.435
14501TIP3    H243447   2.168   6.927   5.382
14502TIP3   OH243448   6.039   7.023   0.022
14502TIP3    H143449   6.131   7.035  -0.002
14502TIP3    H243450   6.019   6.934  -0.006
14503TIP3   OH243451   0.888   1.310   3.261
14503TIP3    H143452   0.876   1.220   3.292
14503TIP3    H243453   0.983   1.323   3.260
14504TIP3   OH243454   0.026   2.484   2.626
14504TIP3    H143455   0.117   2.511   2.634
14504TIP3    H243456  -0.018   2.521   2.703
14505TIP3   OH243457   7.463   4.453   2.452
14505TIP3    H143458   7.553   4.466   2.483
14505TIP3    H243459   7.427   4.387   2.512
14506TIP3   OH243460   0.124   3.865   3.960
14506TIP3    H143461   0.115   3.894   4.051
14506TIP3    H243462   0.035   3.850   3.930
14507TIP3   OH243463   0.920   4.360   0.200
14507TIP3    H143464   0.869   4.300   0.254
14507TIP3    H243465   0.940   4.310   0.121
14508TIP3   OH243466   1.867   3.150   6.663
14508TIP3    H143467   1.957   3.137   6.632
14508TIP3    H243468   1.817   3.164   6.582
14509TIP3   OH243469   1.323   1.581   3.499
14509TIP3    H143470   1.239   1.611   3.464
14509TIP3    H243471   1.379   1.659   3.499
14510TIP3   OH243472   7.957   4.514   2.707
14510TIP3    H143473   7.980   4.597   2.748
14510TIP3    H243474   7.920   4.462   2.778
14511TIP3   OH243475   2.630   3.869   2.520
14511TIP3    H143476   2.674   3.860   2.435
14511TIP3    H243477   2.627   3.780   2.555
14512TIP3   OH243478   3.261   4.051   0.813
14512TIP3    H143479   3.173   4.057   0.850
14512TIP3    H243480   3.278   3.957   0.805
14513TIP3   OH243481   6.999   2.766   3.336
14513TIP3    H143482   6.983   2.716   3.255
14513TIP3    H243483   6.926   2.828   3.339
14514TIP3   OH243484   1.479   6.719   2.916
14514TIP3    H143485   1.526   6.704   2.834
14514TIP3    H243486   1.399   6.668   2.908
14515TIP3   OH243487   1.306   6.474   2.043
14515TIP3    H143488   1.382   6.422   2.017
14515TIP3    H243489   1.294   6.536   1.972
14516TIP3   OH243490   4.610   3.870   2.164
14516TIP3    H143491   4.622   3.836   2.075
14516TIP3    H243492   4.518   3.850   2.184
14517TIP3   OH243493   4.463   2.755   0.561
14517TIP3    H143494   4.372   2.730   0.577
14517TIP3    H243495   4.458   2.822   0.493
14518TIP3   OH243496   5.755   7.271   3.222
14518TIP3    H143497   5.708   7.321   3.289
14518TIP3    H243498   5.695   7.201   3.198
14519TIP3   OH243499   8.069   4.948   5.397
14519TIP3    H143500   8.043   4.889   5.327
14519TIP3    H243501   8.020   5.029   5.381
14520TIP3   OH243502   6.596   3.837   2.998
14520TIP3    H143503   6.575   3.847   2.905
14520TIP3    H243504   6.535   3.896   3.042
14521TIP3   OH243505   5.328   0.721   1.546
14521TIP3    H143506   5.376   0.640   1.564
14521TIP3    H243507   5.238   0.692   1.528
14522TIP3   OH243508   6.776   5.260   1.831
14522TIP3    H143509   6.767   5.356   1.826
14522TIP3    H243510   6.723   5.235   1.907
14523TIP3   OH243511   3.324   7.519   2.950
14523TIP3    H143512   3.271   7.456   2.999
14523TIP3    H243513   3.261   7.573   2.903
14524TIP3   OH243514   3.681   4.738   2.379
14524TIP3    H143515   3.747   4.690   2.428
14524TIP3    H243516   3.731   4.794   2.320
14525TIP3   OH243517   2.377   6.258   3.705
14525TIP3    H143518   2.429   6.227   3.779
14525TIP3    H243519   2.300   6.201   3.704
14526TIP3   OH243520   6.342   6.901   1.127
14526TIP3    H143521   6.302   6.818   1.100
14526TIP3    H243522   6.337   6.899   1.223
14527TIP3   OH243523   4.778   5.151   4.187
14527TIP3    H143524   4.721   5.182   4.257
14527TIP3    H243525   4.720   5.101   4.129
14528TIP3   OH243526   1.387   4.417   2.187
14528TIP3    H143527   1.435   4.498   2.169
14528TIP3    H243528   1.416   4.357   2.119
14529TIP3   OH243529   5.636   1.027   1.738
14529TIP3    H143530   5.555   0.984   1.766
14529TIP3    H243531   5.607   1.108   1.696
14530TIP3   OH243532   3.232   5.117   5.707
14530TIP3    H143533   3.212   5.027   5.735
14530TIP3    H243534   3.327   5.124   5.712
14531TIP3   OH243535   5.830   4.707   4.245
14531TIP3    H143536   5.795   4.754   4.320
14531TIP3    H243537   5.876   4.774   4.193
14532TIP3   OH243538   7.204   6.311   4.051
14532TIP3    H143539   7.117   6.295   4.013
14532TIP3    H243540   7.258   6.339   3.978
14533TIP3   OH243541   5.011   0.373   4.006
14533TIP3    H143542   4.921   0.398   4.023
14533TIP3    H243543   5.018   0.372   3.910
14534TIP3   OH243544   2.855   3.769   3.349
14534TIP3    H143545   2.908   3.837   3.308
14534TIP3    H243546   2.917   3.718   3.400
14535TIP3   OH243547   7.780   2.015   4.575
14535TIP3    H143548   7.789   1.938   4.631
14535TIP3    H243549   7.836   2.081   4.615
14536TIP3   OH243550   7.652   0.762   5.550
14536TIP3    H143551   7.587   0.763   5.480
14536TIP3    H243552   7.602   0.773   5.631
14537TIP3   OH243553   0.262   7.102   1.778
14537TIP3    H143554   0.353   7.116   1.803
14537TIP3    H243555   0.225   7.051   1.850
14538TIP3   OH243556   6.783   6.720   2.924
14538TIP3    H143557   6.853   6.782   2.946
14538TIP3    H243558   6.764   6.738   2.831
14539TIP3   OH243559   2.268   1.927   2.110
14539TIP3    H143560   2.260   1.963   2.199
14539TIP3    H243561   2.338   1.978   2.069
14540TIP3   OH243562   2.296   4.521   1.228
14540TIP3    H143563   2.241   4.443   1.222
14540TIP3    H243564   2.383   4.491   1.201
14541TIP3   OH243565   2.711   3.995   5.447
14541TIP3    H143566   2.787   3.948   5.412
14541TIP3    H243567   2.722   4.085   5.416
14542TIP3   OH243568   5.082   3.482   3.312
14542TIP3    H143569   5.104   3.389   3.303
14542TIP3    H243570   5.096   3.518   3.225
14543TIP3   OH243571   1.699   4.998   5.564
14543TIP3    H143572   1.743   4.944   5.629
14543TIP3    H243573   1.743   4.976   5.482
14544TIP3   OH243574   0.613   5.164   4.438
14544TIP3    H143575   0.635   5.245   4.485
14544TIP3    H243576   0.554   5.192   4.368
14545TIP3   OH243577   3.088   5.312   1.372
14545TIP3    H143578   3.020   5.292   1.307
14545TIP3    H243579   3.089   5.407   1.378
14546TIP3   OH243580   3.214   2.085   4.929
14546TIP3    H143581   3.135   2.139   4.922
14546TIP3    H243582   3.198   2.029   5.005
14547TIP3   OH243583   0.780   4.932   5.310
14547TIP3    H143584   0.753   4.918   5.401
14547TIP3    H243585   0.762   5.025   5.293
14548TIP3   OH243586   2.832   4.965   4.629
14548TIP3    H143587   2.825   4.957   4.534
14548TIP3    H243588   2.755   5.015   4.655
14549TIP3   OH243589   7.058   3.577   4.713
14549TIP3    H143590   7.122   3.566   4.644
14549TIP3    H243591   6.976   3.597   4.668
14550TIP3   OH243592   3.092   1.868   0.253
14550TIP3    H143593   3.155   1.820   0.307
14550TIP3    H243594   3.035   1.800   0.216
14551TIP3   OH243595   5.036   4.817   5.510
14551TIP3    H143596   5.109   4.839   5.453
14551TIP3    H243597   4.983   4.896   5.513
14552TIP3   OH243598   0.437   4.757   1.992
14552TIP3    H143599   0.369   4.716   1.939
14552TIP3    H243600   0.397   4.839   2.023
14553TIP3   OH243601   5.973   0.390   5.689
14553TIP3    H143602   5.968   0.485   5.678
14553TIP3    H243603   6.016   0.359   5.609
14554TIP3   OH243604   2.017   3.982   0.676
14554TIP3    H143605   1.960   4.059   0.669
14554TIP3    H243606   2.090   4.012   0.730
14555TIP3   OH243607   1.980   6.284   3.667
14555TIP3    H143608   1.912   6.217   3.654
14555TIP3    H243609   1.965   6.315   3.756
14556TIP3   OH243610   5.021   1.501   4.916
14556TIP3    H143611   4.978   1.565   4.859
14556TIP3    H243612   5.108   1.538   4.933
14557TIP3   OH243613   1.060   2.539   2.064
14557TIP3    H143614   1.019   2.605   2.121
14557TIP3    H243615   1.110   2.484   2.124
14558TIP3   OH243616   0.812   6.164   3.745
14558TIP3    H143617   0.762   6.141   3.667
14558TIP3    H243618   0.825   6.081   3.790
14559TIP3   OH243619   4.942   3.326   2.260
14559TIP3    H143620   4.975   3.255   2.316
14559TIP3    H243621   4.968   3.300   2.172
14560TIP3   OH243622   1.508   1.300   0.588
14560TIP3    H143623   1.588   1.296   0.641
14560TIP3    H243624   1.530   1.252   0.508
14561TIP3   OH243625   3.521   5.120   4.281
14561TIP3    H143626   3.528   5.109   4.186
14561TIP3    H243627   3.609   5.147   4.309
14562TIP3   OH243628   0.846   6.090   0.333
14562TIP3    H143629   0.885   6.169   0.372
14562TIP3    H243630   0.764   6.119   0.296
14563TIP3   OH243631   3.207   3.807   2.771
14563TIP3    H143632   3.277   3.873   2.772
14563TIP3    H243633   3.249   3.727   2.803
14564TIP3   OH243634   7.561   6.716   0.749
14564TIP3    H143635   7.521   6.662   0.681
14564TIP3    H243636   7.638   6.666   0.777
14565TIP3   OH243637   7.051   5.765   5.823
14565TIP3    H143638   6.991   5.772   5.897
14565TIP3    H243639   7.020   5.689   5.774
14566TIP3   OH243640   7.591   6.482   2.382
14566TIP3    H143641   7.665   6.440   2.338
14566TIP3    H243642   7.514   6.450   2.334
14567TIP3   OH243643   6.428   2.280   5.005
14567TIP3    H143644   6.443   2.359   5.058
14567TIP3    H243645   6.372   2.225   5.060
14568TIP3   OH243646   4.611   3.268   3.357
14568TIP3    H143647   4.686   3.319   3.386
14568TIP3    H243648   4.586   3.307   3.273
14569TIP3   OH243649   0.957   2.031   6.227
14569TIP3    H143650   0.895   1.988   6.286
14569TIP3    H243651   0.958   2.123   6.256
14570TIP3   OH243652   3.084   4.364   1.337
14570TIP3    H143653   3.089   4.372   1.432
14570TIP3    H243654   3.133   4.439   1.304
14571TIP3   OH243655   1.815   1.533   0.925
14571TIP3    H143656   1.894   1.509   0.974
14571TIP3    H243657   1.757   1.572   0.990
14572TIP3   OH243658   5.352   1.575   6.599
14572TIP3    H143659   5.383   1.498   6.647
14572TIP3    H243660   5.372   1.555   6.507
14573TIP3   OH243661   7.775   7.049   2.882
14573TIP3    H143662   7.837   7.009   2.821
14573TIP3    H243663   7.719   7.104   2.827
14574TIP3   OH243664   7.436   5.466   2.817
14574TIP3    H143665   7.343   5.447   2.831
14574TIP3    H243666   7.462   5.516   2.893
14575TIP3   OH243667   3.089   2.097   0.509
14575TIP3    H143668   3.043   2.015   0.526
14575TIP3    H243669   3.075   2.149   0.588
14576TIP3   OH243670   2.748   0.586   6.683
14576TIP3    H143671   2.794   0.545   6.610
14576TIP3    H243672   2.766   0.528   6.758
14577TIP3   OH243673   2.677   4.385   2.102
14577TIP3    H143674   2.595   4.433   2.116
14577TIP3    H243675   2.700   4.404   2.011
14578TIP3   OH243676   5.492   3.386   0.170
14578TIP3    H143677   5.569   3.329   0.164
14578TIP3    H243678   5.520   3.469   0.130
14579TIP3   OH243679   3.723   6.049   6.457
14579TIP3    H143680   3.776   6.129   6.457
14579TIP3    H243681   3.643   6.074   6.503
14580TIP3   OH243682   5.790   6.593   1.550
14580TIP3    H143683   5.810   6.502   1.571
14580TIP3    H243684   5.700   6.605   1.580
14581TIP3   OH243685   5.250   1.251   1.997
14581TIP3    H143686   5.228   1.195   1.922
14581TIP3    H243687   5.259   1.339   1.961
14582TIP3   OH243688   5.445   7.514   5.514
14582TIP3    H143689   5.416   7.596   5.554
14582TIP3    H243690   5.394   7.508   5.433
14583TIP3   OH243691   4.385   1.357   1.265
14583TIP3    H143692   4.425   1.297   1.328
14583TIP3    H243693   4.297   1.323   1.251
14584TIP3   OH243694   0.341   7.294   4.539
14584TIP3    H143695   0.431   7.261   4.544
14584TIP3    H243696   0.286   7.218   4.559
14585TIP3   OH243697   2.879   3.030   0.842
14585TIP3    H143698   2.816   2.964   0.815
14585TIP3    H243699   2.852   3.109   0.795
14586TIP3   OH243700   7.538   2.725   0.082
14586TIP3    H143701   7.528   2.719  -0.013
14586TIP3    H243702   7.450   2.715   0.117
14587TIP3   OH243703   6.986   1.216   5.130
14587TIP3    H143704   6.897   1.238   5.155
14587TIP3    H243705   7.004   1.268   5.052
14588TIP3   OH243706   6.842   7.291   5.533
14588TIP3    H143707   6.870   7.199   5.532
14588TIP3    H243708   6.894   7.330   5.603
14589TIP3   OH243709   2.208   4.720   4.747
14589TIP3    H143710   2.184   4.796   4.800
14589TIP3    H243711   2.304   4.719   4.747
14590TIP3   OH243712   5.391   0.499   0.705
14590TIP3    H143713   5.360   0.418   0.665
14590TIP3    H243714   5.367   0.567   0.642
14591TIP3   OH243715   2.210   4.578   2.991
14591TIP3    H143716   2.215   4.653   2.931
14591TIP3    H243717   2.196   4.503   2.933
14592TIP3   OH243718   3.242   0.426   0.766
14592TIP3    H143719   3.205   0.361   0.707
14592TIP3    H243720   3.239   0.386   0.852
14593TIP3   OH243721   1.498   4.102   0.379
14593TIP3    H143722   1.472   4.102   0.287
14593TIP3    H243723   1.535   4.015   0.395
14594TIP3   OH243724   3.723   5.123   1.914
14594TIP3    H143725   3.731   5.065   1.839
14594TIP3    H243726   3.657   5.187   1.887
14595TIP3   OH243727   3.875   6.063   1.725
14595TIP3    H143728   3.954   6.093   1.679
14595TIP3    H243729   3.803   6.105   1.680
14596TIP3   OH243730   3.463   4.972   0.707
14596TIP3    H143731   3.471   4.984   0.802
14596TIP3    H243732   3.405   4.896   0.697
14597TIP3   OH243733   7.061   0.310   5.697
14597TIP3    H143734   6.967   0.317   5.680
14597TIP3    H243735   7.090   0.400   5.711
14598TIP3   OH243736   0.131   1.073   1.205
14598TIP3    H143737   0.067   1.020   1.157
14598TIP3    H243738   0.176   1.124   1.138
14599TIP3   OH243739   7.645   2.849   5.726
14599TIP3    H143740   7.578   2.893   5.778
14599TIP3    H243741   7.728   2.881   5.760
14600TIP3   OH243742   6.028   1.112   6.266
14600TIP3    H143743   5.968   1.181   6.293
14600TIP3    H243744   5.973   1.049   6.219
14601TIP3   OH243745   5.871   6.980   3.852
14601TIP3    H143746   5.866   7.051   3.788
14601TIP3    H243747   5.912   7.020   3.929
14602TIP3   OH243748   2.516   7.286   5.481
14602TIP3    H143749   2.479   7.266   5.395
14602TIP3    H243750   2.485   7.375   5.500
14603TIP3   OH243751   7.881   5.663   5.102
14603TIP3    H143752   7.936   5.648   5.179
14603TIP3    H243753   7.878   5.758   5.092
14604TIP3   OH243754   0.217   3.747   4.914
14604TIP3    H143755   0.208   3.705   4.999
14604TIP3    H243756   0.238   3.676   4.854
14605TIP3   OH243757   6.301   5.412   6.291
14605TIP3    H143758   6.330   5.502   6.307
14605TIP3    H243759   6.210   5.411   6.320
14606TIP3   OH243760   2.787   3.507   4.113
14606TIP3    H143761   2.790   3.530   4.020
14606TIP3    H243762   2.877   3.518   4.144
14607TIP3   OH243763   5.013  -0.019   4.346
14607TIP3    H143764   5.076   0.026   4.289
14607TIP3    H243765   5.068  -0.068   4.408
14608TIP3   OH243766   3.576   2.839   5.810
14608TIP3    H143767   3.521   2.893   5.753
14608TIP3    H243768   3.593   2.895   5.886
14609TIP3   OH243769   5.825   1.195   0.227
14609TIP3    H143770   5.729   1.195   0.220
14609TIP3    H243771   5.853   1.259   0.162
14610TIP3   OH243772   3.435   4.263   0.653
14610TIP3    H143773   3.465   4.228   0.736
14610TIP3    H243774   3.483   4.214   0.586
14611TIP3   OH243775   3.679   6.507   4.477
14611TIP3    H143776   3.741   6.571   4.440
14611TIP3    H243777   3.606   6.561   4.509
14612TIP3   OH243778   7.335   5.190   0.950
14612TIP3    H143779   7.352   5.119   0.888
14612TIP3    H243780   7.245   5.175   0.979
14613TIP3   OH243781   1.299   7.191   3.319
14613TIP3    H143782   1.316   7.185   3.413
14613TIP3    H243783   1.354   7.123   3.280
14614TIP3   OH243784   7.144   5.141   2.133
14614TIP3    H143785   7.218   5.200   2.146
14614TIP3    H243786   7.158   5.070   2.195
14615TIP3   OH243787   2.610   3.871   3.226
14615TIP3    H143788   2.542   3.803   3.219
14615TIP3    H243789   2.675   3.833   3.284
14616TIP3   OH243790   5.705   7.282   1.384
14616TIP3    H143791   5.745   7.350   1.330
14616TIP3    H243792   5.749   7.201   1.357
14617TIP3   OH243793   3.620   7.457   2.186
14617TIP3    H143794   3.639   7.531   2.128
14617TIP3    H243795   3.525   7.457   2.195
14618TIP3   OH243796   2.322   0.789   1.235
14618TIP3    H143797   2.236   0.767   1.199
14618TIP3    H243798   2.378   0.716   1.208
14619TIP3   OH243799   4.800   0.851   1.804
14619TIP3    H143800   4.838   0.918   1.862
14619TIP3    H243801   4.714   0.833   1.842
14620TIP3   OH243802   1.132   1.202   2.026
14620TIP3    H143803   1.044   1.199   2.062
14620TIP3    H243804   1.136   1.286   1.981
14621TIP3   OH243805   1.940   0.905   3.847
14621TIP3    H143806   1.926   0.814   3.821
14621TIP3    H243807   1.968   0.900   3.938
14622TIP3   OH243808   5.844   4.316   4.692
14622TIP3    H143809   5.800   4.371   4.628
14622TIP3    H243810   5.819   4.226   4.667
14623TIP3   OH243811   6.483   3.485   3.924
14623TIP3    H143812   6.411   3.422   3.934
14623TIP3    H243813   6.511   3.473   3.833
14624TIP3   OH243814   2.873   0.743   2.238
14624TIP3    H143815   2.903   0.753   2.328
14624TIP3    H243816   2.901   0.655   2.213
14625TIP3   OH243817   0.738   5.830   2.576
14625TIP3    H143818   0.808   5.885   2.539
14625TIP3    H243819   0.718   5.767   2.506
14626TIP3   OH243820   8.191   0.902   5.325
14626TIP3    H143821   8.187   0.927   5.417
14626TIP3    H243822   8.179   0.985   5.277
14627TIP3   OH243823   6.805   4.704   4.887
14627TIP3    H143824   6.758   4.632   4.846
14627TIP3    H243825   6.869   4.732   4.821
14628TIP3   OH243826   2.192   3.688   2.628
14628TIP3    H143827   2.235   3.646   2.554
14628TIP3    H243828   2.167   3.775   2.596
14629TIP3   OH243829   2.049   4.341   6.568
14629TIP3    H143830   1.981   4.391   6.613
14629TIP3    H243831   2.054   4.258   6.616
14630TIP3   OH243832   6.595   3.614   5.488
14630TIP3    H143833   6.621   3.570   5.407
14630TIP3    H243834   6.500   3.602   5.492
14631TIP3   OH243835   6.669   6.790   2.106
14631TIP3    H143836   6.697   6.867   2.154
14631TIP3    H243837   6.573   6.792   2.111
14632TIP3   OH243838   2.164   5.694   6.590
14632TIP3    H143839   2.244   5.644   6.607
14632TIP3    H243840   2.110   5.636   6.536
14633TIP3   OH243841   5.932   1.958   1.776
14633TIP3    H143842   5.858   1.997   1.730
14633TIP3    H243843   5.926   1.993   1.865
14634TIP3   OH243844   1.152   4.220   2.655
14634TIP3    H143845   1.164   4.313   2.675
14634TIP3    H243846   1.232   4.178   2.685
14635TIP3   OH243847   3.745   3.698   4.418
14635TIP3    H143848   3.782   3.758   4.353
14635TIP3    H243849   3.725   3.753   4.493
14636TIP3   OH243850   6.281   2.951   5.152
14636TIP3    H143851   6.366   2.912   5.131
14636TIP3    H243852   6.259   2.917   5.238
14637TIP3   OH243853   6.406   7.730   4.469
14637TIP3    H143854   6.314   7.756   4.470
14637TIP3    H243855   6.415   7.675   4.391
14638TIP3   OH243856   3.545   4.657   3.251
14638TIP3    H143857   3.478   4.677   3.317
14638TIP3    H243858   3.502   4.678   3.168
14639TIP3   OH243859   7.593   7.227   3.460
14639TIP3    H143860   7.528   7.173   3.414
14639TIP3    H243861   7.652   7.257   3.391
14640TIP3   OH243862   7.403   3.599   4.561
14640TIP3    H143863   7.320   3.569   4.526
14640TIP3    H243864   7.403   3.570   4.652
14641TIP3   OH243865   3.743   1.325   0.885
14641TIP3    H143866   3.828   1.349   0.924
14641TIP3    H243867   3.685   1.397   0.909
14642TIP3   OH243868   3.575   4.095   6.485
14642TIP3    H143869   3.581   4.101   6.580
14642TIP3    H243870   3.515   4.165   6.460
14643TIP3   OH243871   3.583   1.261   1.756
14643TIP3    H143872   3.652   1.327   1.763
14643TIP3    H243873   3.619   1.194   1.697
14644TIP3   OH243874   2.636   1.818   1.094
14644TIP3    H143875   2.649   1.749   1.029
14644TIP3    H243876   2.724   1.839   1.124
14645TIP3   OH243877   4.525   3.128   0.193
14645TIP3    H143878   4.493   3.218   0.185
14645TIP3    H243879   4.601   3.124   0.135
14646TIP3   OH243880   5.239   1.154   3.286
14646TIP3    H143881   5.331   1.166   3.310
14646TIP3    H243882   5.237   1.168   3.192
14647TIP3   OH243883   2.643   0.466   2.400
14647TIP3    H143884   2.605   0.379   2.384
14647TIP3    H243885   2.615   0.518   2.325
14648TIP3   OH243886   5.770   2.634   0.854
14648TIP3    H143887   5.707   2.704   0.839
14648TIP3    H243888   5.803   2.649   0.942
14649TIP3   OH243889   2.297   6.720   0.954
14649TIP3    H143890   2.290   6.681   1.041
14649TIP3    H243891   2.278   6.813   0.969
14650TIP3   OH243892   1.104   0.445   1.023
14650TIP3    H143893   1.090   0.534   1.057
14650TIP3    H243894   1.155   0.458   0.944
14651TIP3   OH243895  -0.003   4.733   2.469
14651TIP3    H143896   0.080   4.722   2.513
14651TIP3    H243897  -0.042   4.811   2.509
14652TIP3   OH243898   5.880   4.690   2.678
14652TIP3    H143899   5.951   4.751   2.700
14652TIP3    H243900   5.902   4.658   2.591
14653TIP3   OH243901   3.764   6.337   6.441
14653TIP3    H143902   3.849   6.295   6.449
14653TIP3    H243903   3.783   6.425   6.410
14654TIP3   OH243904   6.043   3.887   4.608
14654TIP3    H143905   5.996   3.946   4.548
14654TIP3    H243906   6.077   3.817   4.552
14655TIP3   OH243907   2.730   7.418   2.019
14655TIP3    H143908   2.634   7.418   2.014
14655TIP3    H243909   2.758   7.430   1.928
14656TIP3   OH243910   1.869   7.527   3.982
14656TIP3    H143911   1.904   7.613   3.960
14656TIP3    H243912   1.921   7.466   3.930
14657TIP3   OH243913   7.704   0.732   5.194
14657TIP3    H143914   7.719   0.814   5.242
14657TIP3    H243915   7.672   0.671   5.260
14658TIP3   OH243916   5.858   5.685   5.559
14658TIP3    H143917   5.834   5.620   5.625
14658TIP3    H243918   5.921   5.640   5.502
14659TIP3   OH243919   2.325   5.036   3.208
14659TIP3    H143920   2.266   5.056   3.281
14659TIP3    H243921   2.365   4.953   3.233
14660TIP3   OH243922   0.232   7.340   6.629
14660TIP3    H143923   0.288   7.398   6.681
14660TIP3    H243924   0.158   7.394   6.605
14661TIP3   OH243925   3.196   4.547   2.416
14661TIP3    H143926   3.277   4.598   2.422
14661TIP3    H243927   3.128   4.613   2.403
14662TIP3   OH243928   3.696   2.946   3.458
14662TIP3    H143929   3.667   2.900   3.536
14662TIP3    H243930   3.755   2.884   3.414
14663TIP3   OH243931   4.636   5.297   5.423
14663TIP3    H143932   4.670   5.217   5.383
14663TIP3    H243933   4.620   5.356   5.349
14664TIP3   OH243934   4.114   4.937   4.318
14664TIP3    H143935   4.023   4.913   4.301
14664TIP3    H243936   4.151   4.955   4.232
14665TIP3   OH243937   6.329   6.635   3.268
14665TIP3    H143938   6.379   6.670   3.342
14665TIP3    H243939   6.238   6.646   3.294
14666TIP3   OH243940   1.580   4.657   2.768
14666TIP3    H143941   1.637   4.652   2.691
14666TIP3    H243942   1.610   4.585   2.824
14667TIP3   OH243943   6.928   3.044   5.176
14667TIP3    H143944   6.888   2.977   5.120
14667TIP3    H243945   6.938   3.001   5.261
14668TIP3   OH243946   6.341   5.179   3.533
14668TIP3    H143947   6.363   5.258   3.583
14668TIP3    H243948   6.317   5.114   3.599
14669TIP3   OH243949   2.069   6.921   5.160
14669TIP3    H143950   2.062   6.830   5.132
14669TIP3    H243951   2.135   6.959   5.102
14670TIP3   OH243952   4.487   2.362   2.729
14670TIP3    H143953   4.428   2.312   2.785
14670TIP3    H243954   4.451   2.351   2.641
14671TIP3   OH243955   0.816   2.037   2.384
14671TIP3    H143956   0.783   2.084   2.308
14671TIP3    H243957   0.738   1.999   2.425
14672TIP3   OH243958   7.209   6.153   0.162
14672TIP3    H143959   7.253   6.232   0.130
14672TIP3    H243960   7.270   6.117   0.228
14673TIP3   OH243961   0.924   7.020   6.241
14673TIP3    H143962   0.866   7.094   6.228
14673TIP3    H243963   0.909   6.963   6.166
14674TIP3   OH243964   2.390   4.507   2.660
14674TIP3    H143965   2.467   4.498   2.717
14674TIP3    H243966   2.394   4.597   2.629
14675TIP3   OH243967   5.584   4.605   2.109
14675TIP3    H143968   5.502   4.563   2.136
14675TIP3    H243969   5.621   4.545   2.045
14676TIP3   OH243970   4.826   6.726   3.618
14676TIP3    H143971   4.738   6.717   3.656
14676TIP3    H243972   4.811   6.770   3.535
14677TIP3   OH243973   0.648   6.518   1.658
14677TIP3    H143974   0.608   6.598   1.691
14677TIP3    H243975   0.581   6.478   1.602
14678TIP3   OH243976   3.205   5.947   2.308
14678TIP3    H143977   3.215   5.875   2.370
14678TIP3    H243978   3.193   5.904   2.223
14679TIP3   OH243979   8.179   2.204   5.143
14679TIP3    H143980   8.272   2.227   5.154
14679TIP3    H243981   8.171   2.117   5.180
14680TIP3   OH243982   2.162   6.633   3.317
14680TIP3    H143983   2.246   6.655   3.277
14680TIP3    H243984   2.176   6.545   3.354
14681TIP3   OH243985   1.173   4.221   1.471
14681TIP3    H143986   1.126   4.138   1.472
14681TIP3    H243987   1.251   4.205   1.419
14682TIP3   OH243988   7.686   1.319   5.986
14682TIP3    H143989   7.629   1.292   5.914
14682TIP3    H243990   7.708   1.410   5.966
14683TIP3   OH243991   1.563   1.560   5.250
14683TIP3    H143992   1.618   1.637   5.245
14683TIP3    H243993   1.559   1.539   5.343
14684TIP3   OH243994   5.014   0.285   5.200
14684TIP3    H143995   4.952   0.291   5.273
14684TIP3    H243996   4.989   0.205   5.154
14685TIP3   OH243997   4.808   2.072   2.166
14685TIP3    H143998   4.833   2.116   2.084
14685TIP3    H243999   4.750   2.134   2.210
14686TIP3   OH244000   7.712   5.230   3.871
14686TIP3    H144001   7.712   5.222   3.776
14686TIP3    H244002   7.780   5.169   3.901
14687TIP3   OH244003   1.542   5.995   3.920
14687TIP3    H144004   1.568   5.926   3.859
14687TIP3    H244005   1.558   6.076   3.871
14688TIP3   OH244006   8.261   1.604   3.344
14688TIP3    H144007   8.310   1.535   3.388
14688TIP3    H244008   8.304   1.686   3.372
14689TIP3   OH244009   0.246   0.464   3.621
14689TIP3    H144010   0.202   0.427   3.697
14689TIP3    H244011   0.290   0.543   3.655
14690TIP3   OH244012   1.415   3.659   0.461
14690TIP3    H144013   1.437   3.579   0.412
14690TIP3    H244014   1.359   3.628   0.532
14691TIP3   OH244015   0.992   3.624   5.348
14691TIP3    H144016   1.059   3.609   5.281
14691TIP3    H244017   0.951   3.707   5.323
14692TIP3   OH244018   4.237   6.048   1.940
14692TIP3    H144019   4.159   6.099   1.916
14692TIP3    H244020   4.206   5.989   2.009
14693TIP3   OH244021   4.122   5.479   5.835
14693TIP3    H144022   4.217   5.478   5.851
14693TIP3    H244023   4.113   5.445   5.746
14694TIP3   OH244024   0.986   1.592   2.591
14694TIP3    H144025   1.074   1.577   2.626
14694TIP3    H244026   0.942   1.508   2.599
14695TIP3   OH244027   2.302   7.424   0.292
14695TIP3    H144028   2.373   7.488   0.292
14695TIP3    H244029   2.223   7.477   0.285
14696TIP3   OH244030   2.035   5.733   3.698
14696TIP3    H144031   2.028   5.804   3.762
14696TIP3    H244032   1.945   5.707   3.680
14697TIP3   OH244033   4.582   0.097   4.581
14697TIP3    H144034   4.524   0.164   4.544
14697TIP3    H244035   4.629   0.061   4.506
14698TIP3   OH244036   5.648   5.121   2.182
14698TIP3    H144037   5.606   5.036   2.168
14698TIP3    H244038   5.598   5.161   2.253
14699TIP3   OH244039   0.257   5.123   1.393
14699TIP3    H144040   0.256   5.153   1.303
14699TIP3    H244041   0.282   5.200   1.444
14700TIP3   OH244042   7.245   5.189   2.627
14700TIP3    H144043   7.180   5.207   2.559
14700TIP3    H244044   7.328   5.214   2.588
14701TIP3   OH244045   6.315   4.342   4.440
14701TIP3    H144046   6.277   4.323   4.526
14701TIP3    H244047   6.400   4.297   4.441
14702TIP3   OH244048   0.443   5.208   6.122
14702TIP3    H144049   0.351   5.235   6.113
14702TIP3    H244050   0.452   5.184   6.214
14703TIP3   OH244051   1.133   2.297   4.373
14703TIP3    H144052   1.153   2.383   4.336
14703TIP3    H244053   1.101   2.246   4.298
14704TIP3   OH244054   1.126   3.100   3.620
14704TIP3    H144055   1.036   3.134   3.616
14704TIP3    H244056   1.172   3.144   3.548
14705TIP3   OH244057   6.018   5.493   1.574
14705TIP3    H144058   5.954   5.459   1.511
14705TIP3    H244059   6.063   5.563   1.526
14706TIP3   OH244060   6.445   5.403   5.766
14706TIP3    H144061   6.486   5.321   5.740
14706TIP3    H244062   6.422   5.391   5.858
14707TIP3   OH244063   7.419   4.366   2.713
14707TIP3    H144064   7.430   4.274   2.690
14707TIP3    H244065   7.325   4.376   2.728
14708TIP3   OH244066   1.029   5.908   6.546
14708TIP3    H144067   1.098   5.918   6.611
14708TIP3    H244068   1.066   5.847   6.481
14709TIP3   OH244069   5.261   5.304   2.361
14709TIP3    H144070   5.247   5.260   2.444
14709TIP3    H244071   5.189   5.366   2.354
14710TIP3   OH244072   5.743   5.949   2.511
14710TIP3    H144073   5.833   5.929   2.537
14710TIP3    H244074   5.752   6.021   2.449
14711TIP3   OH244075   5.369   2.277   5.776
14711TIP3    H144076   5.381   2.281   5.871
14711TIP3    H244077   5.383   2.367   5.747
14712TIP3   OH244078   1.161   2.969   1.587
14712TIP3    H144079   1.237   2.943   1.535
14712TIP3    H244080   1.115   3.032   1.532
14713TIP3   OH244081   4.362  -0.028   0.065
14713TIP3    H144082   4.278   0.016   0.073
14713TIP3    H244083   4.341  -0.115   0.031
14714TIP3   OH244084   5.063   0.992   5.491
14714TIP3    H144085   5.022   0.905   5.495
14714TIP3    H244086   5.110   1.000   5.575
14715TIP3   OH244087   3.563   4.337   1.960
14715TIP3    H144088   3.580   4.389   2.039
14715TIP3    H244089   3.621   4.373   1.894
14716TIP3   OH244090   3.197   7.539   3.651
14716TIP3    H144091   3.186   7.519   3.744
14716TIP3    H244092   3.110   7.566   3.622
14717TIP3   OH244093   2.454   7.324   4.935
14717TIP3    H144094   2.514   7.264   4.980
14717TIP3    H244095   2.486   7.326   4.845
14718TIP3   OH244096   0.749   6.906   0.463
14718TIP3    H144097   0.720   6.967   0.395
14718TIP3    H244098   0.693   6.925   0.539
14719TIP3   OH244099   6.773   2.821   3.643
14719TIP3    H144100   6.824   2.791   3.719
14719TIP3    H244101   6.774   2.916   3.650
14720TIP3   OH244102   8.067   1.523   5.673
14720TIP3    H144103   8.107   1.518   5.759
14720TIP3    H244104   7.976   1.497   5.686
14721TIP3   OH244105   7.657   6.046   1.733
14721TIP3    H144106   7.749   6.072   1.741
14721TIP3    H244107   7.659   5.975   1.668
14722TIP3   OH244108   7.500   2.121   0.596
14722TIP3    H144109   7.525   2.061   0.667
14722TIP3    H244110   7.500   2.066   0.518
14723TIP3   OH244111   4.428   4.136   1.195
14723TIP3    H144112   4.458   4.047   1.175
14723TIP3    H244113   4.474   4.159   1.276
14724TIP3   OH244114   1.286   4.836   3.443
14724TIP3    H144115   1.270   4.858   3.535
14724TIP3    H244116   1.382   4.829   3.437
14725TIP3   OH244117   1.959   0.512   6.628
14725TIP3    H144118   1.964   0.461   6.547
14725TIP3    H244119   2.035   0.569   6.625
14726TIP3   OH244120   5.343   6.250   5.144
14726TIP3    H144121   5.281   6.265   5.073
14726TIP3    H244122   5.409   6.191   5.106
14727TIP3   OH244123   6.399   4.943   5.569
14727TIP3    H144124   6.319   4.988   5.595
14727TIP3    H244125   6.373   4.891   5.492
14728TIP3   OH244126   2.349   1.041   5.551
14728TIP3    H144127   2.318   0.957   5.584
14728TIP3    H244128   2.353   1.028   5.456
14729TIP3   OH244129  -0.015   7.510   4.295
14729TIP3    H144130  -0.007   7.503   4.200
14729TIP3    H244131   0.036   7.436   4.329
14730TIP3   OH244132   3.638   2.628   0.090
14730TIP3    H144133   3.564   2.619   0.029
14730TIP3    H244134   3.603   2.680   0.162
14731TIP3   OH244135   6.662   3.705   2.192
14731TIP3    H144136   6.704   3.772   2.138
14731TIP3    H244137   6.577   3.742   2.214
14732TIP3   OH244138   7.735   0.415   2.434
14732TIP3    H144139   7.646   0.393   2.463
14732TIP3    H244140   7.771   0.466   2.506
14733TIP3   OH244141   5.329   1.346   0.153
14733TIP3    H144142   5.387   1.272   0.174
14733TIP3    H244143   5.383   1.403   0.098
14734TIP3   OH244144   1.759   4.626   2.560
14734TIP3    H144145   1.801   4.540   2.564
14734TIP3    H244146   1.750   4.644   2.467
14735TIP3   OH244147   4.139   2.511   6.535
14735TIP3    H144148   4.103   2.425   6.557
14735TIP3    H244149   4.081   2.545   6.466
14736TIP3   OH244150   1.095   4.711   4.194
14736TIP3    H144151   1.081   4.751   4.109
14736TIP3    H244152   1.176   4.661   4.184
14737TIP3   OH244153   3.139   1.822   3.081
14737TIP3    H144154   3.196   1.772   3.140
14737TIP3    H244155   3.185   1.905   3.069
14738TIP3   OH244156   7.117   3.347   0.302
14738TIP3    H144157   7.207   3.379   0.310
14738TIP3    H244158   7.126   3.253   0.287
14739TIP3   OH244159   4.459   6.397   5.751
14739TIP3    H144160   4.491   6.487   5.758
14739TIP3    H244161   4.434   6.388   5.659
14740TIP3   OH244162   5.481   3.100   3.199
14740TIP3    H144163   5.429   3.179   3.184
14740TIP3    H244164   5.496   3.097   3.293
14741TIP3   OH244165   2.039   5.566   6.369
14741TIP3    H144166   2.061   5.483   6.410
14741TIP3    H244167   1.952   5.588   6.404
14742TIP3   OH244168   4.388   3.226   0.623
14742TIP3    H144169   4.409   3.143   0.665
14742TIP3    H244170   4.440   3.227   0.543
14743TIP3   OH244171   1.500   3.048   1.722
14743TIP3    H144172   1.468   2.967   1.761
14743TIP3    H244173   1.543   3.021   1.641
14744TIP3   OH244174   6.397   7.007   6.108
14744TIP3    H144175   6.491   7.002   6.129
14744TIP3    H244176   6.373   6.917   6.086
14745TIP3   OH244177   1.888   0.058   0.324
14745TIP3    H144178   1.931   0.032   0.243
14745TIP3    H244179   1.918   0.148   0.340
14746TIP3   OH244180   7.037   2.811   6.752
14746TIP3    H144181   7.089   2.764   6.817
14746TIP3    H244182   6.996   2.743   6.699
14747TIP3   OH244183   7.605   0.204   1.351
14747TIP3    H144184   7.600   0.200   1.447
14747TIP3    H244185   7.516   0.185   1.322
14748TIP3   OH244186   3.592   0.388   3.827
14748TIP3    H144187   3.552   0.332   3.893
14748TIP3    H244188   3.679   0.408   3.862
14749TIP3   OH244189   0.243   1.174   0.514
14749TIP3    H144190   0.279   1.096   0.555
14749TIP3    H244191   0.273   1.247   0.569
14750TIP3   OH244192   1.789   2.207   1.181
14750TIP3    H144193   1.866   2.218   1.125
14750TIP3    H244194   1.743   2.291   1.175
14751TIP3   OH244195   6.175   2.190   0.905
14751TIP3    H144196   6.126   2.270   0.887
14751TIP3    H244197   6.110   2.120   0.896
14752TIP3   OH244198   7.418   5.508   1.993
14752TIP3    H144199   7.483   5.467   1.936
14752TIP3    H244200   7.446   5.599   2.001
14753TIP3   OH244201   7.996   0.507   1.082
14753TIP3    H144202   7.919   0.470   1.125
14753TIP3    H244203   7.990   0.477   0.991
14754TIP3   OH244204   4.157   1.247   1.680
14754TIP3    H144205   4.186   1.313   1.618
14754TIP3    H244206   4.076   1.213   1.643
14755TIP3   OH244207   2.665   4.232   2.632
14755TIP3    H144208   2.690   4.234   2.724
14755TIP3    H244209   2.572   4.253   2.631
14756TIP3   OH244210   5.795   2.753   0.277
14756TIP3    H144211   5.860   2.823   0.284
14756TIP3    H244212   5.831   2.693   0.212
14757TIP3   OH244213   0.909   1.946   0.576
14757TIP3    H144214   0.823   1.924   0.540
14757TIP3    H244215   0.968   1.880   0.539
14758TIP3   OH244216   2.210   1.065   6.703
14758TIP3    H144217   2.291   1.108   6.673
14758TIP3    H244218   2.172   1.126   6.766
14759TIP3   OH244219   7.476   0.995   6.257
14759TIP3    H144220   7.438   1.068   6.306
14759TIP3    H244221   7.427   0.992   6.175
14760TIP3   OH244222   0.261   0.746   0.989
14760TIP3    H144223   0.271   0.781   1.078
14760TIP3    H244224   0.349   0.752   0.951
14761TIP3   OH244225   4.483   1.545   5.143
14761TIP3    H144226   4.456   1.629   5.106
14761TIP3    H244227   4.574   1.534   5.113
14762TIP3   OH244228   1.244   2.464   6.688
14762TIP3    H144229   1.315   2.447   6.625
14762TIP3    H244230   1.164   2.450   6.638
14763TIP3   OH244231   4.572   2.427   6.344
14763TIP3    H144232   4.538   2.442   6.433
14763TIP3    H244233   4.495   2.429   6.288
14764TIP3   OH244234   2.500   2.090   4.235
14764TIP3    H144235   2.472   2.009   4.276
14764TIP3    H244236   2.422   2.125   4.192
14765TIP3   OH244237   3.698   1.333   2.889
14765TIP3    H144238   3.759   1.261   2.903
14765TIP3    H244239   3.641   1.302   2.818
14766TIP3   OH244240   2.465   6.342   1.706
14766TIP3    H144241   2.441   6.280   1.775
14766TIP3    H244242   2.470   6.290   1.626
14767TIP3   OH244243   0.632   0.689   6.701
14767TIP3    H144244   0.598   0.766   6.654
14767TIP3    H244245   0.714   0.668   6.657
14768TIP3   OH244246   7.768   5.179   3.593
14768TIP3    H144247   7.840   5.120   3.615
14768TIP3    H244248   7.719   5.132   3.525
14769TIP3   OH244249   7.677   1.934   5.568
14769TIP3    H144250   7.639   1.849   5.545
14769TIP3    H244251   7.740   1.915   5.637
14770TIP3   OH244252   2.168   6.360   3.405
14770TIP3    H144253   2.091   6.346   3.461
14770TIP3    H244254   2.161   6.293   3.337
14771TIP3   OH244255   4.085   4.642   3.718
14771TIP3    H144256   4.163   4.685   3.683
14771TIP3    H244257   4.017   4.710   3.717
14772TIP3   OH244258   5.995   3.388   4.129
14772TIP3    H144259   5.957   3.466   4.170
14772TIP3    H244260   5.921   3.342   4.091
14773TIP3   OH244261   2.147   7.327   4.805
14773TIP3    H144262   2.097   7.329   4.723
14773TIP3    H244263   2.236   7.354   4.779
14774TIP3   OH244264   6.883   0.819   1.696
14774TIP3    H144265   6.882   0.803   1.791
14774TIP3    H244266   6.953   0.763   1.664
14775TIP3   OH244267   4.713   4.803   2.996
14775TIP3    H144268   4.714   4.898   3.003
14775TIP3    H244269   4.692   4.773   3.085
14776TIP3   OH244270   6.447   5.823   0.315
14776TIP3    H144271   6.412   5.862   0.395
14776TIP3    H244272   6.535   5.793   0.338
14777TIP3   OH244273   6.086   1.735   0.309
14777TIP3    H144274   6.105   1.802   0.376
14777TIP3    H244275   6.062   1.658   0.360
14778TIP3   OH244276   4.850   0.162   6.207
14778TIP3    H144277   4.800   0.101   6.260
14778TIP3    H244278   4.801   0.168   6.125
14779TIP3   OH244279   2.531   4.805   5.727
14779TIP3    H144280   2.517   4.712   5.711
14779TIP3    H244281   2.483   4.823   5.808
14780TIP3   OH244282   6.761   0.589   6.140
14780TIP3    H144283   6.718   0.529   6.201
14780TIP3    H244284   6.701   0.664   6.134
14781TIP3   OH244285   5.281   6.639   5.737
14781TIP3    H144286   5.318   6.723   5.710
14781TIP3    H244287   5.336   6.574   5.693
14782TIP3   OH244288   7.062   5.320   3.476
14782TIP3    H144289   7.016   5.284   3.552
14782TIP3    H244290   7.153   5.294   3.489
14783TIP3   OH244291   5.866   3.751   3.869
14783TIP3    H144292   5.842   3.762   3.777
14783TIP3    H244293   5.953   3.711   3.866
14784TIP3   OH244294   6.620   5.886   6.279
14784TIP3    H144295   6.691   5.904   6.218
14784TIP3    H244296   6.655   5.819   6.338
14785TIP3   OH244297   2.221   3.608   5.417
14785TIP3    H144298   2.171   3.630   5.338
14785TIP3    H244299   2.189   3.669   5.483
14786TIP3   OH244300   2.362   1.627   0.078
14786TIP3    H144301   2.337   1.695   0.015
14786TIP3    H244302   2.341   1.665   0.164
14787TIP3   OH244303   3.935   7.098   3.440
14787TIP3    H144304   3.928   7.165   3.508
14787TIP3    H244305   4.000   7.036   3.473
14788TIP3   OH244306   0.290   6.937   0.549
14788TIP3    H144307   0.277   7.030   0.564
14788TIP3    H244308   0.202   6.899   0.554
14789TIP3   OH244309   4.265   3.946   1.524
14789TIP3    H144310   4.277   3.938   1.429
14789TIP3    H244311   4.272   4.039   1.541
14790TIP3   OH244312   0.581   7.432   5.199
14790TIP3    H144313   0.558   7.518   5.233
14790TIP3    H244314   0.512   7.374   5.232
14791TIP3   OH244315   2.222   0.813   3.971
14791TIP3    H144316   2.252   0.807   4.062
14791TIP3    H244317   2.197   0.904   3.959
14792TIP3   OH244318   4.553   3.985   4.589
14792TIP3    H144319   4.616   3.923   4.627
14792TIP3    H244320   4.501   3.932   4.529
14793TIP3   OH244321   5.277   4.903   2.093
14793TIP3    H144322   5.285   4.997   2.079
14793TIP3    H244323   5.218   4.894   2.168
14794TIP3   OH244324   7.542   3.300   5.606
14794TIP3    H144325   7.573   3.303   5.515
14794TIP3    H244326   7.465   3.356   5.607
14795TIP3   OH244327   8.213   6.397   5.118
14795TIP3    H144328   8.285   6.385   5.056
14795TIP3    H244329   8.198   6.310   5.154
14796TIP3   OH244330   6.626   5.374   1.038
14796TIP3    H144331   6.597   5.350   0.950
14796TIP3    H244332   6.590   5.461   1.053
14797TIP3   OH244333   2.714   1.371   0.291
14797TIP3    H144334   2.764   1.441   0.333
14797TIP3    H244335   2.702   1.401   0.201
14798TIP3   OH244336   4.216   7.573   2.845
14798TIP3    H144337   4.121   7.585   2.840
14798TIP3    H244338   4.227   7.492   2.894
14799TIP3   OH244339   1.796   0.485   0.920
14799TIP3    H144340   1.887   0.514   0.933
14799TIP3    H244341   1.770   0.449   1.005
14800TIP3   OH244342   3.222   5.716   4.132
14800TIP3    H144343   3.182   5.799   4.107
14800TIP3    H244344   3.253   5.730   4.221
14801TIP3   OH244345   6.856   2.722   0.211
14801TIP3    H144346   6.778   2.748   0.161
14801TIP3    H244347   6.930   2.755   0.159
14802TIP3   OH244348   1.742   6.051   1.380
14802TIP3    H144349   1.819   6.094   1.417
14802TIP3    H244350   1.758   5.957   1.394
14803TIP3   OH244351   3.938   2.519   1.970
14803TIP3    H144352   3.853   2.535   2.010
14803TIP3    H244353   3.973   2.444   2.019
14804TIP3   OH244354   7.444   1.803   0.127
14804TIP3    H144355   7.474   1.829   0.040
14804TIP3    H244356   7.496   1.725   0.147
14805TIP3   OH244357   4.829   7.735   0.982
14805TIP3    H144358   4.870   7.744   1.068
14805TIP3    H244359   4.869   7.804   0.928
14806TIP3   OH244360   7.711   4.614   4.062
14806TIP3    H144361   7.618   4.636   4.052
14806TIP3    H244362   7.733   4.642   4.150
14807TIP3   OH244363   6.380   7.584   4.233
14807TIP3    H144364   6.430   7.585   4.152
14807TIP3    H244365   6.294   7.549   4.208
14808TIP3   OH244366   6.454   3.715   0.495
14808TIP3    H144367   6.536   3.680   0.531
14808TIP3    H244368   6.424   3.648   0.434
14809TIP3   OH244369   5.215   5.120   4.501
14809TIP3    H144370   5.164   5.068   4.439
14809TIP3    H244371   5.160   5.196   4.519
14810TIP3   OH244372   2.767   3.939   1.674
14810TIP3    H144373   2.726   3.861   1.635
14810TIP3    H244374   2.814   3.905   1.750
14811TIP3   OH244375   6.020   4.662   3.436
14811TIP3    H144376   5.938   4.708   3.419
14811TIP3    H244377   6.048   4.629   3.350
14812TIP3   OH244378   1.510   3.922   2.327
14812TIP3    H144379   1.471   4.009   2.332
14812TIP3    H244380   1.456   3.867   2.383
14813TIP3   OH244381   6.599   2.431   2.290
14813TIP3    H144382   6.612   2.338   2.274
14813TIP3    H244383   6.647   2.449   2.372
14814TIP3   OH244384   5.590   5.438   4.694
14814TIP3    H144385   5.650   5.499   4.651
14814TIP3    H244386   5.536   5.403   4.623
14815TIP3   OH244387   7.226   3.445   6.113
14815TIP3    H144388   7.158   3.494   6.158
14815TIP3    H244389   7.308   3.485   6.140
   8.28406   7.81029   6.76390   0.00000   0.00000  -2.76135   0.00000  -2.76135  -3.90514
