Title t= 479.00000 step= 239500
29212
    1ASP      N    1   2.410   1.228   2.758
    1ASP    HT1    2   2.342   1.163   2.715
    1ASP    HT2    3   2.503   1.189   2.731
    1ASP    HT3    4   2.409   1.323   2.717
    1ASP     CA    5   2.395   1.259   2.904
    1ASP     HA    6   2.341   1.176   2.948
    1ASP     CB    7   2.539   1.278   2.964
    1ASP    HB1    8   2.528   1.314   3.069
    1ASP    HB2    9   2.587   1.349   2.893
    1ASP     CG   10   2.612   1.148   2.969
    1ASP    OD1   11   2.553   1.041   2.941
    1ASP    OD2   12   2.729   1.143   3.016
    1ASP      C   13   2.309   1.372   2.927
    1ASP      O   14   2.262   1.440   2.834
    2GLY      N   15   2.282   1.395   3.057
    2GLY     HN   16   2.316   1.337   3.130
    2GLY     CA   17   2.185   1.491   3.111
    2GLY    HA1   18   2.235   1.587   3.101
    2GLY    HA2   19   2.178   1.469   3.217
    2GLY      C   20   2.046   1.492   3.049
    2GLY      O   21   1.995   1.391   2.999
    3ASP      N   22   1.989   1.606   3.052
    3ASP     HN   23   2.026   1.685   3.100
    3ASP     CA   24   1.866   1.637   2.974
    3ASP     HA   25   1.813   1.542   2.978
    3ASP     CB   26   1.795   1.757   3.026
    3ASP    HB1   27   1.711   1.794   2.963
    3ASP    HB2   28   1.863   1.843   3.043
    3ASP     CG   29   1.732   1.719   3.158
    3ASP    OD1   30   1.739   1.810   3.244
    3ASP    OD2   31   1.673   1.613   3.185
    3ASP      C   32   1.892   1.660   2.826
    3ASP      O   33   2.006   1.691   2.787
    4GLY      N   34   1.785   1.652   2.742
    4GLY     HN   35   1.694   1.626   2.774
    4GLY     CA   36   1.803   1.678   2.606
    4GLY    HA1   37   1.717   1.642   2.553
    4GLY    HA2   38   1.900   1.637   2.580
    4GLY      C   39   1.793   1.821   2.573
    4GLY      O   40   1.827   1.911   2.650
    5PRO      N   41   1.767   1.858   2.445
    5PRO     CD   42   1.782   1.769   2.331
    5PRO    HD1   43   1.686   1.713   2.319
    5PRO    HD2   44   1.875   1.708   2.334
    5PRO     CA   45   1.772   2.000   2.406
    5PRO     HA   46   1.820   2.071   2.470
    5PRO     CB   47   1.837   1.998   2.263
    5PRO    HB1   48   1.946   2.014   2.282
    5PRO    HB2   49   1.804   2.083   2.199
    5PRO     CG   50   1.805   1.861   2.213
    5PRO    HG1   51   1.720   1.864   2.141
    5PRO    HG2   52   1.897   1.830   2.159
    5PRO      C   53   1.639   2.059   2.397
    5PRO      O   54   1.623   2.176   2.393
    6GLY      N   55   1.542   1.966   2.389
    6GLY     HN   56   1.577   1.873   2.380
    6GLY     CA   57   1.401   1.990   2.405
    6GLY    HA1   58   1.341   1.901   2.418
    6GLY    HA2   59   1.378   2.056   2.322
    6GLY      C   60   1.364   2.073   2.525
    6GLY      O   61   1.426   2.060   2.633
    7ASP      N   62   1.257   2.147   2.512
    7ASP     HN   63   1.206   2.145   2.426
    7ASP     CA   64   1.195   2.214   2.620
    7ASP     HA   65   1.276   2.276   2.656
    7ASP     CB   66   1.074   2.296   2.574
    7ASP    HB1   67   1.038   2.360   2.657
    7ASP    HB2   68   0.997   2.222   2.544
    7ASP     CG   69   1.111   2.393   2.460
    7ASP    OD1   70   1.223   2.441   2.442
    7ASP    OD2   71   1.012   2.437   2.397
    7ASP      C   72   1.148   2.123   2.739
    7ASP      O   73   1.098   2.013   2.711
    8PRO      N   74   1.159   2.174   2.863
    8PRO     CD   75   1.256   2.270   2.909
    8PRO    HD1   76   1.223   2.372   2.880
    8PRO    HD2   77   1.360   2.248   2.874
    8PRO     CA   78   1.091   2.112   2.977
    8PRO     HA   79   1.121   2.009   2.986
    8PRO     CB   80   1.126   2.206   3.095
    8PRO    HB1   81   1.116   2.155   3.193
    8PRO    HB2   82   1.050   2.286   3.101
    8PRO     CG   83   1.262   2.261   3.060
    8PRO    HG1   84   1.266   2.362   3.107
    8PRO    HG2   85   1.343   2.195   3.097
    8PRO      C   86   0.934   2.098   2.957
    8PRO      O   87   0.880   2.165   2.875
    9GLY      N   88   0.869   2.007   3.037
    9GLY     HN   89   0.928   1.955   3.099
    9GLY     CA   90   0.730   1.963   3.025
    9GLY    HA1   91   0.664   2.038   2.984
    9GLY    HA2   92   0.696   1.928   3.122
    9GLY      C   93   0.718   1.837   2.947
    9GLY      O   94   0.816   1.796   2.877
   10ASP      N   95   0.594   1.778   2.951
   10ASP     HN   96   0.531   1.806   3.022
   10ASP     CA   97   0.574   1.642   2.896
   10ASP     HA   98   0.660   1.582   2.923
   10ASP     CB   99   0.444   1.577   2.949
   10ASP    HB1  100   0.418   1.485   2.892
   10ASP    HB2  101   0.358   1.647   2.939
   10ASP     CG  102   0.462   1.527   3.090
   10ASP    OD1  103   0.575   1.505   3.144
   10ASP    OD2  104   0.356   1.487   3.150
   10ASP      C  105   0.561   1.640   2.745
   10ASP      O  106   0.475   1.714   2.692
   11GLY      N  107   0.647   1.570   2.671
   11GLY     HN  108   0.721   1.520   2.715
   11GLY     CA  109   0.645   1.556   2.523
   11GLY    HA1  110   0.690   1.641   2.475
   11GLY    HA2  111   0.552   1.518   2.484
   11GLY      C  112   0.737   1.436   2.499
   11GLY    OT1  113   0.837   1.458   2.424
   11GLY    OT2  114   0.708   1.323   2.549
   12LIT    LIT  115   4.636   5.323   1.992
   13LIT    LIT  116   5.738   5.229   1.152
   14LIT    LIT  117   5.769   0.815   1.034
   15LIT    LIT  118   3.117   1.873   0.550
   16LIT    LIT  119   0.857   1.257   2.438
   17LIT    LIT  120   0.503   2.179   0.614
   18LIT    LIT  121   5.072   4.866   0.160
   19LIT    LIT  122   3.310   1.093   2.250
   20LIT    LIT  123   0.473   3.661   3.564
   21LIT    LIT  124   1.244   6.154   1.024
   22LIT    LIT  125   3.539   5.147   0.657
   23LIT    LIT  126   6.187   6.009   0.765
   24LIT    LIT  127   6.004   4.694   2.776
   25LIT    LIT  128   6.470   0.892   3.936
   26LIT    LIT  129   0.466   1.443   3.297
   27LIT    LIT  130   3.534   2.408   2.804
   28LIT    LIT  131   0.349   4.349   4.957
   29LIT    LIT  132   1.867   1.927   3.312
   30LIT    LIT  133   6.725   3.525   1.082
   31LIT    LIT  134   4.496   2.537   3.135
   32LIT    LIT  135   5.954   2.422   0.970
   33LIT    LIT  136   4.036   4.063   2.588
   34LIT    LIT  137   4.890   2.321   5.473
   35LIT    LIT  138   6.766   1.443   2.591
   36LIT    LIT  139   3.261   3.778   5.127
   37LIT    LIT  140   3.459   5.187   1.774
   38LIT    LIT  141   1.363   5.192   1.150
   39LIT    LIT  142   2.768   0.930   2.963
   40LIT    LIT  143   4.977   0.130   1.415
   41LIT    LIT  144   1.599   6.493   5.431
   42LIT    LIT  145   1.640   1.712   3.366
   43CLA    CLA  146   4.629   0.404   1.683
   44CLA    CLA  147   6.731   1.840   4.092
   45CLA    CLA  148   5.799   0.275   5.646
   46CLA    CLA  149   0.760   4.402   0.908
   47CLA    CLA  150   6.872   0.825   0.128
   48CLA    CLA  151   3.160   3.535   3.761
   49CLA    CLA  152   2.206   3.911   5.512
   50CLA    CLA  153   3.862   5.453   0.754
   51CLA    CLA  154   0.722   1.128   0.791
   52CLA    CLA  155   0.902   5.348   0.332
   53CLA    CLA  156   3.510   1.687   3.743
   54CLA    CLA  157   5.618   3.018   3.144
   55CLA    CLA  158   0.964   5.165   4.848
   56CLA    CLA  159   5.698   4.430   2.839
   57CLA    CLA  160   6.754   0.152   4.151
   58CLA    CLA  161   4.654   4.245   1.968
   59CLA    CLA  162   4.521   3.574   4.663
   60CLA    CLA  163   0.175   5.790   0.144
   61CLA    CLA  164   6.849   6.444   1.596
   62CLA    CLA  165   6.481   5.648   4.035
   63CLA    CLA  166   1.245   2.255   4.523
   64CLA    CLA  167   5.555   3.253   1.366
   65CLA    CLA  168   5.372   5.593   2.586
   66CLA    CLA  169   3.199   0.240   4.965
   67CLA    CLA  170   2.586   5.727   0.316
   68CLA    CLA  171   1.786   3.258   1.435
   69CLA    CLA  172   6.839   6.140   1.978
   70TIP3   OH2  173   1.040   2.514   2.144
   70TIP3    H1  174   1.119   2.567   2.150
   70TIP3    H2  175   1.016   2.496   2.235
   71TIP3   OH2  176   5.521   1.757   3.722
   71TIP3    H1  177   5.504   1.663   3.722
   71TIP3    H2  178   5.586   1.770   3.653
   72TIP3   OH2  179   6.285   4.536   0.341
   72TIP3    H1  180   6.231   4.465   0.376
   72TIP3    H2  181   6.254   4.615   0.387
   73TIP3   OH2  182   6.047   4.056   0.829
   73TIP3    H1  183   6.011   4.128   0.880
   73TIP3    H2  184   6.055   4.091   0.740
   74TIP3   OH2  185   6.496   6.552   1.457
   74TIP3    H1  186   6.457   6.622   1.404
   74TIP3    H2  187   6.585   6.581   1.474
   75TIP3   OH2  188   1.679   3.207   0.892
   75TIP3    H1  189   1.593   3.185   0.856
   75TIP3    H2  190   1.675   3.178   0.983
   76TIP3   OH2  191   0.884   0.444   4.729
   76TIP3    H1  192   0.880   0.353   4.760
   76TIP3    H2  193   0.832   0.493   4.794
   77TIP3   OH2  194   2.144   4.201   3.289
   77TIP3    H1  195   2.115   4.203   3.380
   77TIP3    H2  196   2.138   4.109   3.264
   78TIP3   OH2  197   3.221   6.251   4.704
   78TIP3    H1  198   3.266   6.323   4.750
   78TIP3    H2  199   3.291   6.192   4.676
   79TIP3   OH2  200   3.246   5.871   2.019
   79TIP3    H1  201   3.304   5.895   2.092
   79TIP3    H2  202   3.245   5.948   1.963
   80TIP3   OH2  203   3.035   2.213   1.760
   80TIP3    H1  204   2.944   2.196   1.737
   80TIP3    H2  205   3.085   2.154   1.704
   81TIP3   OH2  206   1.252   5.294   3.521
   81TIP3    H1  207   1.177   5.322   3.574
   81TIP3    H2  208   1.257   5.359   3.451
   82TIP3   OH2  209   4.650   5.450   5.190
   82TIP3    H1  210   4.745   5.440   5.184
   82TIP3    H2  211   4.620   5.460   5.099
   83TIP3   OH2  212   2.984   6.563   2.634
   83TIP3    H1  213   2.941   6.547   2.719
   83TIP3    H2  214   2.991   6.476   2.595
   84TIP3   OH2  215   3.869   5.086   2.046
   84TIP3    H1  216   3.810   5.155   2.075
   84TIP3    H2  217   3.849   5.012   2.103
   85TIP3   OH2  218   5.480   2.981   2.043
   85TIP3    H1  219   5.442   3.039   2.108
   85TIP3    H2  220   5.544   3.035   1.996
   86TIP3   OH2  221   7.203   2.402   2.451
   86TIP3    H1  222   7.230   2.459   2.379
   86TIP3    H2  223   7.174   2.321   2.409
   87TIP3   OH2  224   5.602   1.605   2.687
   87TIP3    H1  225   5.600   1.515   2.720
   87TIP3    H2  226   5.545   1.604   2.610
   88TIP3   OH2  227   3.992   2.117   1.326
   88TIP3    H1  228   3.906   2.100   1.287
   88TIP3    H2  229   4.009   2.209   1.306
   89TIP3   OH2  230   4.222   4.274   2.601
   89TIP3    H1  231   4.193   4.343   2.541
   89TIP3    H2  232   4.266   4.320   2.672
   90TIP3   OH2  233   3.853   1.354   4.929
   90TIP3    H1  234   3.782   1.415   4.951
   90TIP3    H2  235   3.840   1.280   4.988
   91TIP3   OH2  236   6.300   4.287   2.556
   91TIP3    H1  237   6.353   4.298   2.634
   91TIP3    H2  238   6.307   4.370   2.509
   92TIP3   OH2  239   1.234   6.168   0.825
   92TIP3    H1  240   1.210   6.225   0.751
   92TIP3    H2  241   1.234   6.080   0.788
   93TIP3   OH2  242   6.110   2.736   5.019
   93TIP3    H1  243   6.123   2.715   4.926
   93TIP3    H2  244   6.045   2.673   5.048
   94TIP3   OH2  245   0.647   3.112   5.332
   94TIP3    H1  246   0.583   3.182   5.342
   94TIP3    H2  247   0.645   3.090   5.239
   95TIP3   OH2  248   5.825   6.683   1.071
   95TIP3    H1  249   5.791   6.667   1.159
   95TIP3    H2  250   5.778   6.760   1.041
   96TIP3   OH2  251   5.716   3.389   4.537
   96TIP3    H1  252   5.698   3.427   4.451
   96TIP3    H2  253   5.671   3.447   4.599
   97TIP3   OH2  254   0.701   3.697   2.450
   97TIP3    H1  255   0.756   3.702   2.371
   97TIP3    H2  256   0.721   3.777   2.497
   98TIP3   OH2  257   6.397   6.554   0.898
   98TIP3    H1  258   6.421   6.632   0.947
   98TIP3    H2  259   6.461   6.549   0.827
   99TIP3   OH2  260   6.081   6.474   2.324
   99TIP3    H1  261   6.031   6.437   2.396
   99TIP3    H2  262   6.061   6.417   2.249
  100TIP3   OH2  263   4.043   5.391   3.460
  100TIP3    H1  264   4.077   5.348   3.538
  100TIP3    H2  265   3.960   5.430   3.488
  101TIP3   OH2  266   1.557   3.546   4.141
  101TIP3    H1  267   1.498   3.606   4.097
  101TIP3    H2  268   1.518   3.459   4.129
  102TIP3   OH2  269   4.471   0.073   2.332
  102TIP3    H1  270   4.560   0.041   2.315
  102TIP3    H2  271   4.457   0.056   2.425
  103TIP3   OH2  272   1.591   0.061   2.292
  103TIP3    H1  273   1.530  -0.001   2.333
  103TIP3    H2  274   1.629   0.012   2.220
  104TIP3   OH2  275   2.145   4.811   0.213
  104TIP3    H1  276   2.077   4.750   0.187
  104TIP3    H2  277   2.156   4.869   0.138
  105TIP3   OH2  278   0.171   5.071   1.043
  105TIP3    H1  279   0.123   5.147   1.076
  105TIP3    H2  280   0.257   5.106   1.018
  106TIP3   OH2  281   0.047   2.233   0.575
  106TIP3    H1  282   0.135   2.232   0.538
  106TIP3    H2  283   0.016   2.143   0.568
  107TIP3   OH2  284   1.248   3.812   0.632
  107TIP3    H1  285   1.226   3.791   0.722
  107TIP3    H2  286   1.332   3.768   0.617
  108TIP3   OH2  287   7.017   6.652   3.067
  108TIP3    H1  288   7.113   6.647   3.063
  108TIP3    H2  289   6.999   6.679   3.157
  109TIP3   OH2  290   5.727   6.043   0.624
  109TIP3    H1  291   5.704   6.091   0.703
  109TIP3    H2  292   5.762   6.110   0.565
  110TIP3   OH2  293   0.702   6.136   2.349
  110TIP3    H1  294   0.727   6.051   2.385
  110TIP3    H2  295   0.771   6.156   2.286
  111TIP3   OH2  296   3.069   1.589   5.206
  111TIP3    H1  297   3.018   1.514   5.236
  111TIP3    H2  298   3.160   1.564   5.222
  112TIP3   OH2  299   2.690   1.426   3.534
  112TIP3    H1  300   2.722   1.488   3.469
  112TIP3    H2  301   2.705   1.340   3.496
  113TIP3   OH2  302   7.127   0.249   3.736
  113TIP3    H1  303   7.098   0.180   3.676
  113TIP3    H2  304   7.096   0.220   3.821
  114TIP3   OH2  305   2.982   5.162   5.510
  114TIP3    H1  306   2.904   5.136   5.559
  114TIP3    H2  307   2.955   5.241   5.462
  115TIP3   OH2  308   4.455   0.829   4.919
  115TIP3    H1  309   4.399   0.761   4.956
  115TIP3    H2  310   4.402   0.908   4.920
  116TIP3   OH2  311   4.193   1.683   4.445
  116TIP3    H1  312   4.237   1.617   4.498
  116TIP3    H2  313   4.104   1.650   4.434
  117TIP3   OH2  314   4.062   0.867   0.241
  117TIP3    H1  315   3.983   0.873   0.295
  117TIP3    H2  316   4.037   0.904   0.157
  118TIP3   OH2  317   0.155   2.040   3.738
  118TIP3    H1  318   0.216   2.084   3.679
  118TIP3    H2  319   0.070   2.045   3.693
  119TIP3   OH2  320   1.223   6.340   1.069
  119TIP3    H1  321   1.141   6.387   1.087
  119TIP3    H2  322   1.289   6.409   1.065
  120TIP3   OH2  323   2.900   0.613   1.805
  120TIP3    H1  324   2.917   0.649   1.893
  120TIP3    H2  325   2.864   0.526   1.822
  121TIP3   OH2  326   3.474   1.229   2.627
  121TIP3    H1  327   3.507   1.145   2.595
  121TIP3    H2  328   3.483   1.288   2.552
  122TIP3   OH2  329   3.448   0.780   1.683
  122TIP3    H1  330   3.528   0.764   1.633
  122TIP3    H2  331   3.406   0.695   1.690
  123TIP3   OH2  332   4.077   6.489   5.857
  123TIP3    H1  333   4.171   6.481   5.841
  123TIP3    H2  334   4.066   6.459   5.947
  124TIP3   OH2  335   4.177   6.808   5.791
  124TIP3    H1  336   4.107   6.766   5.741
  124TIP3    H2  337   4.207   6.740   5.851
  125TIP3   OH2  338   2.884   3.040   2.451
  125TIP3    H1  339   2.971   3.034   2.490
  125TIP3    H2  340   2.831   3.086   2.515
  126TIP3   OH2  341   4.631   1.378   1.203
  126TIP3    H1  342   4.705   1.323   1.176
  126TIP3    H2  343   4.558   1.317   1.213
  127TIP3   OH2  344   3.310   6.002   5.937
  127TIP3    H1  345   3.281   6.061   5.867
  127TIP3    H2  346   3.264   5.920   5.918
  128TIP3   OH2  347   1.520   0.799   5.246
  128TIP3    H1  348   1.606   0.816   5.286
  128TIP3    H2  349   1.509   0.870   5.183
  129TIP3   OH2  350   0.837   1.247   2.241
  129TIP3    H1  351   0.897   1.209   2.177
  129TIP3    H2  352   0.752   1.248   2.196
  130TIP3   OH2  353   1.208   6.362   0.610
  130TIP3    H1  354   1.227   6.454   0.624
  130TIP3    H2  355   1.122   6.361   0.568
  131TIP3   OH2  356   0.822   4.662   0.133
  131TIP3    H1  357   0.806   4.692   0.043
  131TIP3    H2  358   0.908   4.620   0.130
  132TIP3   OH2  359   0.472   1.841   0.308
  132TIP3    H1  360   0.483   1.815   0.217
  132TIP3    H2  361   0.380   1.821   0.328
  133TIP3   OH2  362   1.231   4.484   0.636
  133TIP3    H1  363   1.281   4.563   0.655
  133TIP3    H2  364   1.140   4.510   0.652
  134TIP3   OH2  365   6.511   1.854   3.067
  134TIP3    H1  366   6.479   1.862   3.157
  134TIP3    H2  367   6.492   1.939   3.027
  135TIP3   OH2  368   5.661   5.322   4.405
  135TIP3    H1  369   5.575   5.310   4.446
  135TIP3    H2  370   5.720   5.339   4.479
  136TIP3   OH2  371   5.293   3.983   5.504
  136TIP3    H1  372   5.315   4.050   5.439
  136TIP3    H2  373   5.304   3.900   5.458
  137TIP3   OH2  374   0.339   3.984   4.405
  137TIP3    H1  375   0.422   4.029   4.421
  137TIP3    H2  376   0.333   3.918   4.474
  138TIP3   OH2  377   0.604   0.574   1.639
  138TIP3    H1  378   0.602   0.481   1.616
  138TIP3    H2  379   0.682   0.583   1.695
  139TIP3   OH2  380   4.924   1.507   3.004
  139TIP3    H1  381   4.968   1.507   3.089
  139TIP3    H2  382   4.848   1.564   3.016
  140TIP3   OH2  383   3.358   4.341   2.255
  140TIP3    H1  384   3.403   4.422   2.231
  140TIP3    H2  385   3.317   4.311   2.174
  141TIP3   OH2  386   1.382   2.133   4.264
  141TIP3    H1  387   1.325   2.187   4.318
  141TIP3    H2  388   1.452   2.192   4.237
  142TIP3   OH2  389   6.189   0.901   5.533
  142TIP3    H1  390   6.185   0.825   5.474
  142TIP3    H2  391   6.144   0.971   5.485
  143TIP3   OH2  392   6.598   5.460   1.952
  143TIP3    H1  393   6.544   5.431   1.879
  143TIP3    H2  394   6.668   5.511   1.912
  144TIP3   OH2  395   0.651   3.774   3.135
  144TIP3    H1  396   0.603   3.835   3.192
  144TIP3    H2  397   0.634   3.806   3.047
  145TIP3   OH2  398   0.550   2.102   0.803
  145TIP3    H1  399   0.515   2.105   0.892
  145TIP3    H2  400   0.587   2.014   0.795
  146TIP3   OH2  401   3.177   2.990   4.341
  146TIP3    H1  402   3.159   3.064   4.399
  146TIP3    H2  403   3.101   2.985   4.283
  147TIP3   OH2  404   6.316   3.614   5.885
  147TIP3    H1  405   6.251   3.546   5.867
  147TIP3    H2  406   6.397   3.566   5.901
  148TIP3   OH2  407   2.620   4.204   2.761
  148TIP3    H1  408   2.613   4.130   2.700
  148TIP3    H2  409   2.592   4.279   2.710
  149TIP3   OH2  410   6.140   0.034   4.083
  149TIP3    H1  411   6.077   0.092   4.125
  149TIP3    H2  412   6.108   0.024   3.993
  150TIP3   OH2  413   6.630   3.026   3.456
  150TIP3    H1  414   6.608   3.118   3.440
  150TIP3    H2  415   6.703   3.029   3.517
  151TIP3   OH2  416   2.209   6.090   3.917
  151TIP3    H1  417   2.208   6.178   3.954
  151TIP3    H2  418   2.125   6.082   3.870
  152TIP3   OH2  419   4.121   2.280   5.918
  152TIP3    H1  420   4.156   2.191   5.909
  152TIP3    H2  421   4.038   2.269   5.964
  153TIP3   OH2  422   2.727   1.089   4.398
  153TIP3    H1  423   2.773   1.036   4.463
  153TIP3    H2  424   2.639   1.099   4.433
  154TIP3   OH2  425   1.785   2.422   4.841
  154TIP3    H1  426   1.698   2.385   4.822
  154TIP3    H2  427   1.780   2.513   4.812
  155TIP3   OH2  428   2.343   3.303   0.951
  155TIP3    H1  429   2.356   3.345   1.035
  155TIP3    H2  430   2.326   3.211   0.973
  156TIP3   OH2  431   2.205   1.744   3.884
  156TIP3    H1  432   2.271   1.701   3.938
  156TIP3    H2  433   2.250   1.762   3.801
  157TIP3   OH2  434   1.147   6.097   2.444
  157TIP3    H1  435   1.218   6.037   2.422
  157TIP3    H2  436   1.184   6.155   2.510
  158TIP3   OH2  437   2.917   5.233   3.271
  158TIP3    H1  438   2.826   5.234   3.241
  158TIP3    H2  439   2.956   5.157   3.228
  159TIP3   OH2  440   3.766   5.140   2.866
  159TIP3    H1  441   3.761   5.196   2.788
  159TIP3    H2  442   3.795   5.199   2.936
  160TIP3   OH2  443   1.223   5.293   2.293
  160TIP3    H1  444   1.252   5.243   2.217
  160TIP3    H2  445   1.187   5.228   2.352
  161TIP3   OH2  446  -0.005   3.168   0.323
  161TIP3    H1  447  -0.052   3.251   0.332
  161TIP3    H2  448   0.031   3.170   0.234
  162TIP3   OH2  449   5.388   0.629   3.962
  162TIP3    H1  450   5.467   0.575   3.971
  162TIP3    H2  451   5.317   0.573   3.994
  163TIP3   OH2  452   3.023   0.808   3.299
  163TIP3    H1  453   3.036   0.755   3.220
  163TIP3    H2  454   3.077   0.886   3.284
  164TIP3   OH2  455   3.478   3.059   0.744
  164TIP3    H1  456   3.448   3.043   0.833
  164TIP3    H2  457   3.472   2.974   0.701
  165TIP3   OH2  458   3.625   2.706   3.320
  165TIP3    H1  459   3.655   2.638   3.381
  165TIP3    H2  460   3.623   2.786   3.372
  166TIP3   OH2  461   2.416   4.425   4.203
  166TIP3    H1  462   2.402   4.520   4.196
  166TIP3    H2  463   2.346   4.387   4.151
  167TIP3   OH2  464   0.362   2.202   4.487
  167TIP3    H1  465   0.335   2.264   4.555
  167TIP3    H2  466   0.281   2.179   4.442
  168TIP3   OH2  467   6.372   1.904   1.648
  168TIP3    H1  468   6.464   1.877   1.654
  168TIP3    H2  469   6.349   1.890   1.556
  169TIP3   OH2  470   6.197   3.057   1.738
  169TIP3    H1  471   6.205   3.064   1.643
  169TIP3    H2  472   6.163   3.142   1.766
  170TIP3   OH2  473   4.235   3.903   4.368
  170TIP3    H1  474   4.251   3.812   4.343
  170TIP3    H2  475   4.147   3.902   4.405
  171TIP3   OH2  476   3.805   1.846   4.713
  171TIP3    H1  477   3.816   1.936   4.742
  171TIP3    H2  478   3.893   1.810   4.709
  172TIP3   OH2  479   1.096   5.552   1.919
  172TIP3    H1  480   1.099   5.610   1.996
  172TIP3    H2  481   1.090   5.612   1.845
  173TIP3   OH2  482   0.633   1.778   1.417
  173TIP3    H1  483   0.541   1.786   1.443
  173TIP3    H2  484   0.678   1.753   1.498
  174TIP3   OH2  485   0.529   6.758   4.099
  174TIP3    H1  486   0.451   6.731   4.149
  174TIP3    H2  487   0.545   6.685   4.039
  175TIP3   OH2  488   0.844   0.953   3.092
  175TIP3    H1  489   0.885   0.920   3.172
  175TIP3    H2  490   0.847   0.879   3.031
  176TIP3   OH2  491   6.603   5.063   1.645
  176TIP3    H1  492   6.599   4.967   1.646
  176TIP3    H2  493   6.648   5.086   1.727
  177TIP3   OH2  494   3.341   5.866   3.473
  177TIP3    H1  495   3.418   5.812   3.457
  177TIP3    H2  496   3.272   5.828   3.419
  178TIP3   OH2  497   1.309   0.174   1.780
  178TIP3    H1  498   1.347   0.217   1.704
  178TIP3    H2  499   1.328   0.081   1.767
  179TIP3   OH2  500   6.279   4.954   1.582
  179TIP3    H1  501   6.295   4.888   1.649
  179TIP3    H2  502   6.196   4.995   1.608
  180TIP3   OH2  503   3.016   0.632   5.248
  180TIP3    H1  504   3.026   0.727   5.243
  180TIP3    H2  505   2.969   0.608   5.168
  181TIP3   OH2  506   6.123   2.569   2.254
  181TIP3    H1  507   6.147   2.547   2.344
  181TIP3    H2  508   6.106   2.485   2.212
  182TIP3   OH2  509   1.493   2.490   3.833
  182TIP3    H1  510   1.439   2.430   3.781
  182TIP3    H2  511   1.535   2.547   3.768
  183TIP3   OH2  512   2.537   0.921   1.835
  183TIP3    H1  513   2.446   0.913   1.862
  183TIP3    H2  514   2.555   0.840   1.786
  184TIP3   OH2  515   1.068   2.559   5.101
  184TIP3    H1  516   1.127   2.596   5.166
  184TIP3    H2  517   1.112   2.574   5.017
  185TIP3   OH2  518   3.638   0.918   0.516
  185TIP3    H1  519   3.555   0.964   0.511
  185TIP3    H2  520   3.619   0.838   0.565
  186TIP3   OH2  521   3.485   1.306   5.498
  186TIP3    H1  522   3.495   1.220   5.538
  186TIP3    H2  523   3.574   1.341   5.496
  187TIP3   OH2  524   1.104   1.641   1.412
  187TIP3    H1  525   1.059   1.704   1.468
  187TIP3    H2  526   1.154   1.587   1.473
  188TIP3   OH2  527   4.050   0.692   0.749
  188TIP3    H1  528   4.136   0.684   0.708
  188TIP3    H2  529   4.064   0.662   0.839
  189TIP3   OH2  530   0.826   3.497   4.676
  189TIP3    H1  531   0.747   3.443   4.674
  189TIP3    H2  532   0.897   3.436   4.694
  190TIP3   OH2  533   0.590   6.053   5.219
  190TIP3    H1  534   0.673   6.007   5.231
  190TIP3    H2  535   0.554   6.061   5.307
  191TIP3   OH2  536   4.399   2.659   5.134
  191TIP3    H1  537   4.487   2.697   5.131
  191TIP3    H2  538   4.360   2.681   5.049
  192TIP3   OH2  539   0.283   3.488   3.223
  192TIP3    H1  540   0.188   3.483   3.213
  192TIP3    H2  541   0.315   3.405   3.189
  193TIP3   OH2  542   2.630   5.041   1.590
  193TIP3    H1  543   2.700   5.024   1.653
  193TIP3    H2  544   2.551   5.007   1.631
  194TIP3   OH2  545   2.244   1.910   5.203
  194TIP3    H1  546   2.174   1.949   5.151
  194TIP3    H2  547   2.203   1.835   5.246
  195TIP3   OH2  548   6.421   0.112   3.508
  195TIP3    H1  549   6.478   0.051   3.554
  195TIP3    H2  550   6.479   0.183   3.480
  196TIP3   OH2  551   3.404   1.958   1.634
  196TIP3    H1  552   3.430   2.036   1.684
  196TIP3    H2  553   3.320   1.981   1.596
  197TIP3   OH2  554   2.999   6.311   0.840
  197TIP3    H1  555   3.002   6.407   0.845
  197TIP3    H2  556   3.088   6.283   0.861
  198TIP3   OH2  557   6.594   4.101   4.796
  198TIP3    H1  558   6.677   4.060   4.775
  198TIP3    H2  559   6.528   4.048   4.750
  199TIP3   OH2  560   1.024   1.134   3.273
  199TIP3    H1  561   1.119   1.140   3.269
  199TIP3    H2  562   0.994   1.225   3.270
  200TIP3   OH2  563   4.650   0.757   5.697
  200TIP3    H1  564   4.614   0.685   5.647
  200TIP3    H2  565   4.710   0.716   5.759
  201TIP3   OH2  566   0.301   0.027   2.597
  201TIP3    H1  567   0.392   0.013   2.569
  201TIP3    H2  568   0.249   0.012   2.517
  202TIP3   OH2  569   5.999   3.345   5.443
  202TIP3    H1  570   5.911   3.361   5.477
  202TIP3    H2  571   6.006   3.403   5.368
  203TIP3   OH2  572   0.218   3.226   3.442
  203TIP3    H1  573   0.196   3.299   3.500
  203TIP3    H2  574   0.249   3.267   3.361
  204TIP3   OH2  575   0.503   3.964   3.280
  204TIP3    H1  576   0.530   4.055   3.289
  204TIP3    H2  577   0.448   3.962   3.202
  205TIP3   OH2  578   3.807   2.733   4.048
  205TIP3    H1  579   3.737   2.667   4.051
  205TIP3    H2  580   3.835   2.735   3.957
  206TIP3   OH2  581   3.880   4.050   1.974
  206TIP3    H1  582   3.966   4.089   1.964
  206TIP3    H2  583   3.834   4.108   2.035
  207TIP3   OH2  584   3.827   1.019   0.309
  207TIP3    H1  585   3.767   0.996   0.380
  207TIP3    H2  586   3.868   1.101   0.338
  208TIP3   OH2  587   5.990   5.586   1.970
  208TIP3    H1  588   6.020   5.674   1.946
  208TIP3    H2  589   5.920   5.602   2.034
  209TIP3   OH2  590   6.158   4.258   1.447
  209TIP3    H1  591   6.180   4.250   1.540
  209TIP3    H2  592   6.084   4.319   1.446
  210TIP3   OH2  593   6.035   5.669   2.293
  210TIP3    H1  594   6.093   5.661   2.369
  210TIP3    H2  595   6.062   5.750   2.251
  211TIP3   OH2  596   3.786   0.416   0.759
  211TIP3    H1  597   3.730   0.345   0.790
  211TIP3    H2  598   3.875   0.388   0.784
  212TIP3   OH2  599   6.210   3.741   0.308
  212TIP3    H1  600   6.229   3.834   0.305
  212TIP3    H2  601   6.202   3.721   0.402
  213TIP3   OH2  602   6.296   3.958   2.749
  213TIP3    H1  603   6.308   3.904   2.671
  213TIP3    H2  604   6.316   3.900   2.822
  214TIP3   OH2  605  -0.018   3.531   2.077
  214TIP3    H1  606   0.067   3.497   2.105
  214TIP3    H2  607   0.000   3.620   2.048
  215TIP3   OH2  608   2.611   6.679   4.773
  215TIP3    H1  609   2.682   6.674   4.838
  215TIP3    H2  610   2.531   6.679   4.826
  216TIP3   OH2  611   2.630   3.398   1.986
  216TIP3    H1  612   2.690   3.386   1.912
  216TIP3    H2  613   2.612   3.310   2.017
  217TIP3   OH2  614   5.585   1.364   4.071
  217TIP3    H1  615   5.553   1.277   4.096
  217TIP3    H2  616   5.527   1.424   4.117
  218TIP3   OH2  617   4.372   1.554   4.637
  218TIP3    H1  618   4.320   1.576   4.714
  218TIP3    H2  619   4.455   1.600   4.650
  219TIP3   OH2  620   0.389   0.845   5.809
  219TIP3    H1  621   0.484   0.855   5.809
  219TIP3    H2  622   0.374   0.756   5.778
  220TIP3   OH2  623   3.674   5.555   2.199
  220TIP3    H1  624   3.614   5.595   2.262
  220TIP3    H2  625   3.735   5.504   2.252
  221TIP3   OH2  626   5.850   2.569   3.351
  221TIP3    H1  627   5.760   2.557   3.380
  221TIP3    H2  628   5.842   2.598   3.260
  222TIP3   OH2  629   4.538   0.978   3.919
  222TIP3    H1  630   4.542   0.933   3.834
  222TIP3    H2  631   4.541   1.071   3.897
  223TIP3   OH2  632   2.582   2.636   2.776
  223TIP3    H1  633   2.502   2.590   2.750
  223TIP3    H2  634   2.601   2.695   2.703
  224TIP3   OH2  635   1.719   4.966   0.989
  224TIP3    H1  636   1.796   4.933   0.942
  224TIP3    H2  637   1.738   5.058   1.005
  225TIP3   OH2  638   7.142   0.798   3.427
  225TIP3    H1  639   7.111   0.873   3.478
  225TIP3    H2  640   7.063   0.749   3.404
  226TIP3   OH2  641   7.238   2.716   1.721
  226TIP3    H1  642   7.174   2.763   1.773
  226TIP3    H2  643   7.210   2.625   1.723
  227TIP3   OH2  644   2.421   3.432   5.092
  227TIP3    H1  645   2.419   3.440   5.188
  227TIP3    H2  646   2.434   3.338   5.077
  228TIP3   OH2  647   0.296   1.081   0.214
  228TIP3    H1  648   0.276   0.987   0.209
  228TIP3    H2  649   0.391   1.084   0.229
  229TIP3   OH2  650   5.760   4.193   3.377
  229TIP3    H1  651   5.819   4.246   3.431
  229TIP3    H2  652   5.819   4.148   3.315
  230TIP3   OH2  653   6.137   3.789   3.100
  230TIP3    H1  654   6.048   3.761   3.119
  230TIP3    H2  655   6.192   3.715   3.126
  231TIP3   OH2  656   5.089   2.113   0.772
  231TIP3    H1  657   5.046   2.112   0.857
  231TIP3    H2  658   5.065   2.029   0.732
  232TIP3   OH2  659   6.141   0.077   2.797
  232TIP3    H1  660   6.233   0.069   2.772
  232TIP3    H2  661   6.143   0.120   2.882
  233TIP3   OH2  662   7.163   2.348   3.793
  233TIP3    H1  663   7.231   2.384   3.735
  233TIP3    H2  664   7.131   2.424   3.842
  234TIP3   OH2  665   4.148   2.692   3.310
  234TIP3    H1  666   4.135   2.756   3.379
  234TIP3    H2  667   4.178   2.743   3.235
  235TIP3   OH2  668   4.157   2.930   0.223
  235TIP3    H1  669   4.118   2.857   0.175
  235TIP3    H2  670   4.248   2.931   0.195
  236TIP3   OH2  671   6.862   5.510   3.110
  236TIP3    H1  672   6.947   5.479   3.079
  236TIP3    H2  673   6.805   5.506   3.034
  237TIP3   OH2  674   5.279   5.822   1.518
  237TIP3    H1  675   5.363   5.802   1.476
  237TIP3    H2  676   5.236   5.883   1.458
  238TIP3   OH2  677   1.742   2.319   0.731
  238TIP3    H1  678   1.663   2.325   0.785
  238TIP3    H2  679   1.766   2.410   0.713
  239TIP3   OH2  680   1.560   0.481   0.644
  239TIP3    H1  681   1.473   0.441   0.645
  239TIP3    H2  682   1.599   0.455   0.728
  240TIP3   OH2  683   6.398   1.409   0.538
  240TIP3    H1  684   6.414   1.440   0.449
  240TIP3    H2  685   6.457   1.460   0.593
  241TIP3   OH2  686   1.104   5.192   1.470
  241TIP3    H1  687   1.009   5.201   1.457
  241TIP3    H2  688   1.112   5.147   1.554
  242TIP3   OH2  689   6.222   3.129   3.958
  242TIP3    H1  690   6.142   3.113   3.909
  242TIP3    H2  691   6.247   3.219   3.934
  243TIP3   OH2  692   1.192   3.244   4.266
  243TIP3    H1  693   1.190   3.226   4.172
  243TIP3    H2  694   1.281   3.276   4.283
  244TIP3   OH2  695   7.199   5.401   4.176
  244TIP3    H1  696   7.162   5.462   4.239
  244TIP3    H2  697   7.267   5.451   4.131
  245TIP3   OH2  698   5.877   5.334   3.182
  245TIP3    H1  699   5.835   5.350   3.097
  245TIP3    H2  700   5.864   5.240   3.198
  246TIP3   OH2  701   3.437   0.497   0.444
  246TIP3    H1  702   3.495   0.440   0.495
  246TIP3    H2  703   3.356   0.499   0.494
  247TIP3   OH2  704   4.431   6.010   3.033
  247TIP3    H1  705   4.455   5.918   3.031
  247TIP3    H2  706   4.515   6.057   3.034
  248TIP3   OH2  707   0.698   1.656   1.152
  248TIP3    H1  708   0.630   1.670   1.086
  248TIP3    H2  709   0.670   1.710   1.227
  249TIP3   OH2  710   2.872   6.221   2.260
  249TIP3    H1  711   2.921   6.217   2.178
  249TIP3    H2  712   2.928   6.177   2.324
  250TIP3   OH2  713   3.714   2.343   2.789
  250TIP3    H1  714   3.775   2.364   2.859
  250TIP3    H2  715   3.768   2.300   2.722
  251TIP3   OH2  716   3.848   2.839   4.628
  251TIP3    H1  717   3.900   2.777   4.576
  251TIP3    H2  718   3.903   2.857   4.705
  252TIP3   OH2  719   0.257   2.465   3.177
  252TIP3    H1  720   0.195   2.398   3.146
  252TIP3    H2  721   0.342   2.432   3.150
  253TIP3   OH2  722   5.172   5.829   0.661
  253TIP3    H1  723   5.178   5.737   0.635
  253TIP3    H2  724   5.192   5.878   0.581
  254TIP3   OH2  725   5.406   4.071   1.181
  254TIP3    H1  726   5.367   4.116   1.106
  254TIP3    H2  727   5.472   4.132   1.214
  255TIP3   OH2  728   4.716   2.650   0.639
  255TIP3    H1  729   4.795   2.597   0.630
  255TIP3    H2  730   4.735   2.710   0.711
  256TIP3   OH2  731   2.485   5.904   4.678
  256TIP3    H1  732   2.416   5.900   4.612
  256TIP3    H2  733   2.553   5.845   4.646
  257TIP3   OH2  734   4.871   4.685   1.031
  257TIP3    H1  735   4.853   4.779   1.023
  257TIP3    H2  736   4.967   4.679   1.033
  258TIP3   OH2  737   5.055   2.003   5.240
  258TIP3    H1  738   5.047   2.082   5.187
  258TIP3    H2  739   5.148   1.999   5.264
  259TIP3   OH2  740   2.639   5.663   4.444
  259TIP3    H1  741   2.678   5.681   4.530
  259TIP3    H2  742   2.676   5.578   4.418
  260TIP3   OH2  743   2.467   4.659   0.013
  260TIP3    H1  744   2.480   4.617   0.098
  260TIP3    H2  745   2.396   4.609  -0.028
  261TIP3   OH2  746   6.419   2.626   2.895
  261TIP3    H1  747   6.410   2.711   2.939
  261TIP3    H2  748   6.330   2.606   2.865
  262TIP3   OH2  749   4.609   3.701   0.808
  262TIP3    H1  750   4.580   3.786   0.776
  262TIP3    H2  751   4.548   3.680   0.879
  263TIP3   OH2  752   1.055   0.826   5.202
  263TIP3    H1  753   1.021   0.763   5.139
  263TIP3    H2  754   1.139   0.853   5.165
  264TIP3   OH2  755   2.454   1.881   0.401
  264TIP3    H1  756   2.456   1.811   0.336
  264TIP3    H2  757   2.485   1.958   0.352
  265TIP3   OH2  758   6.176   6.793   5.531
  265TIP3    H1  759   6.201   6.859   5.595
  265TIP3    H2  760   6.145   6.720   5.584
  266TIP3   OH2  761   4.846   1.011   5.799
  266TIP3    H1  762   4.776   0.997   5.735
  266TIP3    H2  763   4.917   0.955   5.769
  267TIP3   OH2  764   6.579   2.922   1.343
  267TIP3    H1  765   6.518   2.866   1.390
  267TIP3    H2  766   6.666   2.890   1.370
  268TIP3   OH2  767   6.438   4.998   0.108
  268TIP3    H1  768   6.523   5.039   0.093
  268TIP3    H2  769   6.454   4.934   0.177
  269TIP3   OH2  770   3.539   4.991   2.949
  269TIP3    H1  771   3.627   5.006   2.914
  269TIP3    H2  772   3.489   5.068   2.922
  270TIP3   OH2  773   3.385   6.351   4.126
  270TIP3    H1  774   3.412   6.439   4.099
  270TIP3    H2  775   3.443   6.330   4.200
  271TIP3   OH2  776   3.139   1.950   4.494
  271TIP3    H1  777   3.218   1.911   4.531
  271TIP3    H2  778   3.119   2.023   4.554
  272TIP3   OH2  779   6.208   6.523   1.860
  272TIP3    H1  780   6.242   6.437   1.883
  272TIP3    H2  781   6.124   6.529   1.906
  273TIP3   OH2  782   1.906   3.837   5.442
  273TIP3    H1  783   1.928   3.886   5.364
  273TIP3    H2  784   1.980   3.851   5.501
  274TIP3   OH2  785   3.030   1.512   4.057
  274TIP3    H1  786   3.104   1.483   4.003
  274TIP3    H2  787   3.071   1.551   4.134
  275TIP3   OH2  788   2.568   4.573   5.287
  275TIP3    H1  789   2.486   4.584   5.239
  275TIP3    H2  790   2.600   4.487   5.259
  276TIP3   OH2  791   3.646   0.399   3.716
  276TIP3    H1  792   3.617   0.439   3.798
  276TIP3    H2  793   3.719   0.455   3.688
  277TIP3   OH2  794   6.411   1.855   4.127
  277TIP3    H1  795   6.368   1.793   4.186
  277TIP3    H2  796   6.501   1.824   4.121
  278TIP3   OH2  797   7.059   0.056   0.936
  278TIP3    H1  798   6.983   0.113   0.950
  278TIP3    H2  799   7.039  -0.024   0.985
  279TIP3   OH2  800   1.061   4.159   5.527
  279TIP3    H1  801   1.001   4.098   5.483
  279TIP3    H2  802   1.147   4.138   5.491
  280TIP3   OH2  803   6.369   5.148   0.874
  280TIP3    H1  804   6.294   5.198   0.843
  280TIP3    H2  805   6.431   5.214   0.905
  281TIP3   OH2  806   0.135   6.008   2.713
  281TIP3    H1  807   0.076   6.045   2.646
  281TIP3    H2  808   0.213   5.981   2.663
  282TIP3   OH2  809   4.047   4.220   3.807
  282TIP3    H1  810   4.090   4.306   3.799
  282TIP3    H2  811   3.954   4.241   3.813
  283TIP3   OH2  812   4.740   5.423   1.869
  283TIP3    H1  813   4.758   5.417   1.775
  283TIP3    H2  814   4.776   5.508   1.896
  284TIP3   OH2  815   5.207   1.466   2.678
  284TIP3    H1  816   5.258   1.501   2.605
  284TIP3    H2  817   5.186   1.376   2.652
  285TIP3   OH2  818   7.113   6.275   3.933
  285TIP3    H1  819   7.180   6.248   3.996
  285TIP3    H2  820   7.036   6.223   3.956
  286TIP3   OH2  821   4.951   6.481   1.937
  286TIP3    H1  822   4.869   6.442   1.965
  286TIP3    H2  823   4.975   6.433   1.857
  287TIP3   OH2  824   4.866   1.443   4.180
  287TIP3    H1  825   4.890   1.481   4.096
  287TIP3    H2  826   4.771   1.452   4.184
  288TIP3   OH2  827   0.662   4.731   4.830
  288TIP3    H1  828   0.634   4.691   4.748
  288TIP3    H2  829   0.687   4.657   4.885
  289TIP3   OH2  830   5.078   5.409   1.745
  289TIP3    H1  831   5.038   5.324   1.727
  289TIP3    H2  832   5.169   5.388   1.767
  290TIP3   OH2  833   2.929   6.485   4.156
  290TIP3    H1  834   2.912   6.464   4.064
  290TIP3    H2  835   2.842   6.500   4.193
  291TIP3   OH2  836   2.250   5.018   3.810
  291TIP3    H1  837   2.182   5.082   3.788
  291TIP3    H2  838   2.251   4.957   3.736
  292TIP3   OH2  839   4.875   5.778   2.329
  292TIP3    H1  840   4.822   5.736   2.397
  292TIP3    H2  841   4.923   5.847   2.375
  293TIP3   OH2  842   4.949   1.465   3.672
  293TIP3    H1  843   4.854   1.462   3.663
  293TIP3    H2  844   4.980   1.504   3.591
  294TIP3   OH2  845   2.308   1.570   5.106
  294TIP3    H1  846   2.351   1.655   5.109
  294TIP3    H2  847   2.262   1.569   5.023
  295TIP3   OH2  848   2.526   0.286   1.149
  295TIP3    H1  849   2.615   0.252   1.160
  295TIP3    H2  850   2.535   0.380   1.157
  296TIP3   OH2  851   2.473   6.707   5.553
  296TIP3    H1  852   2.401   6.656   5.516
  296TIP3    H2  853   2.504   6.761   5.480
  297TIP3   OH2  854   1.741   0.797   4.197
  297TIP3    H1  855   1.704   0.712   4.178
  297TIP3    H2  856   1.776   0.828   4.113
  298TIP3   OH2  857   4.848   5.641   5.276
  298TIP3    H1  858   4.813   5.708   5.216
  298TIP3    H2  859   4.773   5.584   5.294
  299TIP3   OH2  860   4.060   4.682   2.086
  299TIP3    H1  861   4.155   4.667   2.091
  299TIP3    H2  862   4.044   4.700   1.993
  300TIP3   OH2  863   4.649   1.854   1.295
  300TIP3    H1  864   4.632   1.761   1.305
  300TIP3    H2  865   4.742   1.864   1.315
  301TIP3   OH2  866   0.001   3.132   1.985
  301TIP3    H1  867  -0.080   3.130   1.935
  301TIP3    H2  868   0.053   3.200   1.944
  302TIP3   OH2  869   0.171   1.704   0.012
  302TIP3    H1  870   0.215   1.675   0.092
  302TIP3    H2  871   0.186   1.633  -0.051
  303TIP3   OH2  872   0.381   1.602   4.464
  303TIP3    H1  873   0.411   1.568   4.548
  303TIP3    H2  874   0.429   1.551   4.399
  304TIP3   OH2  875   6.177   4.926   5.367
  304TIP3    H1  876   6.135   4.912   5.282
  304TIP3    H2  877   6.148   5.013   5.394
  305TIP3   OH2  878   5.845   5.335   3.675
  305TIP3    H1  879   5.930   5.369   3.646
  305TIP3    H2  880   5.855   5.240   3.673
  306TIP3   OH2  881   0.669   4.431   3.333
  306TIP3    H1  882   0.614   4.505   3.305
  306TIP3    H2  883   0.714   4.463   3.411
  307TIP3   OH2  884   4.135   2.923   3.471
  307TIP3    H1  885   4.055   2.946   3.519
  307TIP3    H2  886   4.192   2.887   3.538
  308TIP3   OH2  887   6.928   4.160   5.829
  308TIP3    H1  888   6.970   4.134   5.747
  308TIP3    H2  889   6.886   4.081   5.861
  309TIP3   OH2  890   7.139   6.681   0.091
  309TIP3    H1  891   7.067   6.631   0.051
  309TIP3    H2  892   7.138   6.654   0.183
  310TIP3   OH2  893   2.663   0.506   5.257
  310TIP3    H1  894   2.703   0.545   5.335
  310TIP3    H2  895   2.686   0.566   5.186
  311TIP3   OH2  896   0.114   6.621   2.531
  311TIP3    H1  897   0.131   6.536   2.491
  311TIP3    H2  898   0.026   6.614   2.567
  312TIP3   OH2  899   0.962   6.355   3.337
  312TIP3    H1  900   1.014   6.424   3.297
  312TIP3    H2  901   0.879   6.397   3.359
  313TIP3   OH2  902   0.208   2.107   1.209
  313TIP3    H1  903   0.129   2.148   1.247
  313TIP3    H2  904   0.198   2.014   1.229
  314TIP3   OH2  905   3.032   2.457   0.810
  314TIP3    H1  906   2.944   2.487   0.833
  314TIP3    H2  907   3.086   2.536   0.818
  315TIP3   OH2  908   0.591   4.885   2.137
  315TIP3    H1  909   0.639   4.818   2.090
  315TIP3    H2  910   0.531   4.836   2.194
  316TIP3   OH2  911   2.815   5.351   0.986
  316TIP3    H1  912   2.753   5.404   0.936
  316TIP3    H2  913   2.761   5.293   1.040
  317TIP3   OH2  914   0.931   1.607   4.504
  317TIP3    H1  915   0.955   1.664   4.431
  317TIP3    H2  916   0.838   1.624   4.519
  318TIP3   OH2  917   7.172   4.428   4.841
  318TIP3    H1  918   7.115   4.404   4.914
  318TIP3    H2  919   7.133   4.508   4.806
  319TIP3   OH2  920   6.440   0.769   1.127
  319TIP3    H1  921   6.453   0.864   1.122
  319TIP3    H2  922   6.473   0.736   1.043
  320TIP3   OH2  923   5.720   3.617   1.225
  320TIP3    H1  924   5.633   3.584   1.246
  320TIP3    H2  925   5.763   3.626   1.310
  321TIP3   OH2  926   3.769   4.586   1.275
  321TIP3    H1  927   3.831   4.572   1.203
  321TIP3    H2  928   3.820   4.633   1.341
  322TIP3   OH2  929   2.420   4.364   4.483
  322TIP3    H1  930   2.447   4.358   4.391
  322TIP3    H2  931   2.325   4.364   4.480
  323TIP3   OH2  932   0.880   1.780   1.990
  323TIP3    H1  933   0.840   1.738   2.066
  323TIP3    H2  934   0.965   1.738   1.981
  324TIP3   OH2  935   6.911   2.582   2.353
  324TIP3    H1  936   6.950   2.532   2.425
  324TIP3    H2  937   6.883   2.516   2.290
  325TIP3   OH2  938   1.712   5.850   3.387
  325TIP3    H1  939   1.729   5.757   3.398
  325TIP3    H2  940   1.770   5.877   3.316
  326TIP3   OH2  941   6.945   4.340   3.784
  326TIP3    H1  942   6.861   4.362   3.745
  326TIP3    H2  943   6.927   4.328   3.877
  327TIP3   OH2  944   2.145   3.956   2.516
  327TIP3    H1  945   2.194   3.949   2.599
  327TIP3    H2  946   2.090   3.878   2.514
  328TIP3   OH2  947   2.661   1.599   4.612
  328TIP3    H1  948   2.751   1.590   4.646
  328TIP3    H2  949   2.612   1.636   4.686
  329TIP3   OH2  950   0.549   6.060   1.346
  329TIP3    H1  951   0.576   6.024   1.262
  329TIP3    H2  952   0.579   5.995   1.410
  330TIP3   OH2  953   5.414   0.238   1.572
  330TIP3    H1  954   5.444   0.157   1.531
  330TIP3    H2  955   5.450   0.307   1.517
  331TIP3   OH2  956   5.228   1.063   2.564
  331TIP3    H1  957   5.312   1.047   2.520
  331TIP3    H2  958   5.247   1.050   2.657
  332TIP3   OH2  959   4.403   1.962   3.705
  332TIP3    H1  960   4.357   2.045   3.721
  332TIP3    H2  961   4.487   1.989   3.668
  333TIP3   OH2  962   0.359   0.012   1.528
  333TIP3    H1  963   0.346   0.098   1.489
  333TIP3    H2  964   0.424   0.025   1.596
  334TIP3   OH2  965   5.363   1.937   2.548
  334TIP3    H1  966   5.395   1.950   2.637
  334TIP3    H2  967   5.432   1.974   2.493
  335TIP3   OH2  968   6.014   4.827   0.204
  335TIP3    H1  969   5.925   4.795   0.212
  335TIP3    H2  970   6.006   4.907   0.151
  336TIP3   OH2  971   7.091   6.067   5.015
  336TIP3    H1  972   7.061   6.065   5.106
  336TIP3    H2  973   7.165   6.007   5.013
  337TIP3   OH2  974   6.162   6.469   1.165
  337TIP3    H1  975   6.173   6.456   1.259
  337TIP3    H2  976   6.195   6.557   1.149
  338TIP3   OH2  977   5.778   5.988   4.430
  338TIP3    H1  978   5.857   6.040   4.443
  338TIP3    H2  979   5.766   5.984   4.335
  339TIP3   OH2  980   4.802   1.467   0.273
  339TIP3    H1  981   4.775   1.486   0.363
  339TIP3    H2  982   4.862   1.392   0.281
  340TIP3   OH2  983   6.808   1.963   1.009
  340TIP3    H1  984   6.819   1.901   1.081
  340TIP3    H2  985   6.715   1.960   0.988
  341TIP3   OH2  986   4.146   6.093   2.584
  341TIP3    H1  987   4.230   6.068   2.545
  341TIP3    H2  988   4.142   6.188   2.572
  342TIP3   OH2  989   2.463   2.012   1.532
  342TIP3    H1  990   2.444   1.932   1.483
  342TIP3    H2  991   2.518   1.983   1.604
  343TIP3   OH2  992   4.394   0.960   2.283
  343TIP3    H1  993   4.307   0.966   2.244
  343TIP3    H2  994   4.452   0.936   2.211
  344TIP3   OH2  995   2.763   0.623   2.641
  344TIP3    H1  996   2.781   0.530   2.624
  344TIP3    H2  997   2.820   0.670   2.581
  345TIP3   OH2  998   1.109   2.976   5.292
  345TIP3    H1  999   1.133   2.887   5.317
  345TIP3    H2 1000   1.076   2.967   5.202
  346TIP3   OH2 1001   4.370   6.253   2.881
  346TIP3    H1 1002   4.362   6.190   2.953
  346TIP3    H2 1003   4.374   6.339   2.924
  347TIP3   OH2 1004   1.075   6.608   1.144
  347TIP3    H1 1005   1.035   6.526   1.172
  347TIP3    H2 1006   1.002   6.666   1.124
  348TIP3   OH2 1007   5.782   3.000   0.593
  348TIP3    H1 1008   5.724   2.969   0.662
  348TIP3    H2 1009   5.860   2.946   0.601
  349TIP3   OH2 1010   0.666   5.107   1.663
  349TIP3    H1 1011   0.575   5.134   1.650
  349TIP3    H2 1012   0.676   5.102   1.758
  350TIP3   OH2 1013   2.718   3.402   0.277
  350TIP3    H1 1014   2.804   3.440   0.291
  350TIP3    H2 1015   2.697   3.422   0.186
  351TIP3   OH2 1016   4.408   4.975   5.175
  351TIP3    H1 1017   4.428   5.020   5.257
  351TIP3    H2 1018   4.324   5.011   5.149
  352TIP3   OH2 1019   2.920   5.823   4.304
  352TIP3    H1 1020   2.986   5.831   4.373
  352TIP3    H2 1021   2.922   5.908   4.259
  353TIP3   OH2 1022   2.476   1.769   5.156
  353TIP3    H1 1023   2.443   1.848   5.115
  353TIP3    H2 1024   2.541   1.799   5.219
  354TIP3   OH2 1025   5.468   6.501   5.832
  354TIP3    H1 1026   5.411   6.467   5.763
  354TIP3    H2 1027   5.408   6.542   5.895
  355TIP3   OH2 1028   5.654   4.519   3.143
  355TIP3    H1 1029   5.675   4.544   3.052
  355TIP3    H2 1030   5.585   4.454   3.134
  356TIP3   OH2 1031   1.203   5.183   3.044
  356TIP3    H1 1032   1.240   5.116   3.102
  356TIP3    H2 1033   1.108   5.170   3.049
  357TIP3   OH2 1034   1.752   3.470   3.632
  357TIP3    H1 1035   1.761   3.511   3.546
  357TIP3    H2 1036   1.702   3.390   3.615
  358TIP3   OH2 1037   3.033   5.883   0.163
  358TIP3    H1 1038   3.094   5.930   0.219
  358TIP3    H2 1039   3.039   5.928   0.078
  359TIP3   OH2 1040   3.679   1.733   4.495
  359TIP3    H1 1041   3.723   1.753   4.577
  359TIP3    H2 1042   3.634   1.815   4.471
  360TIP3   OH2 1043   4.777   6.657   4.149
  360TIP3    H1 1044   4.853   6.659   4.207
  360TIP3    H2 1045   4.713   6.714   4.191
  361TIP3   OH2 1046   3.451   4.032   1.438
  361TIP3    H1 1047   3.384   3.964   1.441
  361TIP3    H2 1048   3.512   4.002   1.371
  362TIP3   OH2 1049   4.201   3.169   4.709
  362TIP3    H1 1050   4.283   3.209   4.682
  362TIP3    H2 1051   4.142   3.243   4.725
  363TIP3   OH2 1052   3.882   5.805   2.436
  363TIP3    H1 1053   3.945   5.782   2.504
  363TIP3    H2 1054   3.928   5.788   2.354
  364TIP3   OH2 1055   6.390   0.127   4.011
  364TIP3    H1 1056   6.403   0.039   4.046
  364TIP3    H2 1057   6.305   0.154   4.046
  365TIP3   OH2 1058   4.029   6.668   5.565
  365TIP3    H1 1059   4.040   6.577   5.539
  365TIP3    H2 1060   3.936   6.686   5.551
  366TIP3   OH2 1061   5.478   3.031   3.943
  366TIP3    H1 1062   5.518   3.024   3.856
  366TIP3    H2 1063   5.516   2.958   3.992
  367TIP3   OH2 1064   5.714   6.025   2.908
  367TIP3    H1 1065   5.715   5.942   2.955
  367TIP3    H2 1066   5.778   6.079   2.955
  368TIP3   OH2 1067   0.346   0.161   1.058
  368TIP3    H1 1068   0.260   0.194   1.033
  368TIP3    H2 1069   0.408   0.227   1.026
  369TIP3   OH2 1070   1.566   3.107   5.882
  369TIP3    H1 1071   1.627   3.125   5.954
  369TIP3    H2 1072   1.561   3.189   5.833
  370TIP3   OH2 1073   0.320   3.999   3.069
  370TIP3    H1 1074   0.307   3.935   2.998
  370TIP3    H2 1075   0.241   3.993   3.122
  371TIP3   OH2 1076   1.623   4.178   1.852
  371TIP3    H1 1077   1.584   4.197   1.766
  371TIP3    H2 1078   1.682   4.104   1.835
  372TIP3   OH2 1079   1.128   3.941   1.080
  372TIP3    H1 1080   1.152   4.005   1.013
  372TIP3    H2 1081   1.126   3.992   1.162
  373TIP3   OH2 1082   0.182   5.780   3.325
  373TIP3    H1 1083   0.223   5.719   3.387
  373TIP3    H2 1084   0.089   5.761   3.332
  374TIP3   OH2 1085   3.048   0.117   4.730
  374TIP3    H1 1086   3.100   0.158   4.799
  374TIP3    H2 1087   2.958   0.143   4.750
  375TIP3   OH2 1088   0.938   0.790   2.257
  375TIP3    H1 1089   0.856   0.780   2.305
  375TIP3    H2 1090   1.003   0.809   2.324
  376TIP3   OH2 1091   2.546   2.251   0.028
  376TIP3    H1 1092   2.616   2.258  -0.037
  376TIP3    H2 1093   2.569   2.314   0.096
  377TIP3   OH2 1094   1.509   3.914   2.126
  377TIP3    H1 1095   1.446   3.870   2.069
  377TIP3    H2 1096   1.477   3.897   2.215
  378TIP3   OH2 1097   5.197   3.703   3.799
  378TIP3    H1 1098   5.222   3.616   3.828
  378TIP3    H2 1099   5.108   3.715   3.831
  379TIP3   OH2 1100   3.818   0.654   0.623
  379TIP3    H1 1101   3.902   0.689   0.653
  379TIP3    H2 1102   3.803   0.578   0.679
  380TIP3   OH2 1103   1.226   2.831   4.984
  380TIP3    H1 1104   1.265   2.748   4.955
  380TIP3    H2 1105   1.265   2.847   5.069
  381TIP3   OH2 1106   0.265   1.335   5.479
  381TIP3    H1 1107   0.252   1.370   5.567
  381TIP3    H2 1108   0.178   1.303   5.452
  382TIP3   OH2 1109   4.946   6.141   2.113
  382TIP3    H1 1110   5.014   6.121   2.049
  382TIP3    H2 1111   4.994   6.164   2.193
  383TIP3   OH2 1112   6.103   3.645   2.552
  383TIP3    H1 1113   6.151   3.564   2.572
  383TIP3    H2 1114   6.042   3.620   2.483
  384TIP3   OH2 1115   0.441   4.535   5.659
  384TIP3    H1 1116   0.375   4.583   5.710
  384TIP3    H2 1117   0.399   4.452   5.639
  385TIP3   OH2 1118   6.697   6.385   3.903
  385TIP3    H1 1119   6.696   6.327   3.827
  385TIP3    H2 1120   6.719   6.471   3.867
  386TIP3   OH2 1121   6.761   4.465   2.945
  386TIP3    H1 1122   6.827   4.401   2.921
  386TIP3    H2 1123   6.719   4.490   2.862
  387TIP3   OH2 1124   1.564   4.680   5.592
  387TIP3    H1 1125   1.607   4.667   5.507
  387TIP3    H2 1126   1.632   4.657   5.656
  388TIP3   OH2 1127   4.156   5.706   0.317
  388TIP3    H1 1128   4.145   5.736   0.407
  388TIP3    H2 1129   4.166   5.786   0.266
  389TIP3   OH2 1130   5.384   5.331   4.442
  389TIP3    H1 1131   5.347   5.255   4.398
  389TIP3    H2 1132   5.309   5.386   4.465
  390TIP3   OH2 1133   6.082   1.433   0.617
  390TIP3    H1 1134   6.165   1.417   0.663
  390TIP3    H2 1135   6.107   1.471   0.533
  391TIP3   OH2 1136   0.688   5.525   3.966
  391TIP3    H1 1137   0.705   5.614   3.998
  391TIP3    H2 1138   0.717   5.468   4.037
  392TIP3   OH2 1139   2.376   6.729   3.205
  392TIP3    H1 1140   2.420   6.772   3.131
  392TIP3    H2 1141   2.429   6.651   3.222
  393TIP3   OH2 1142   3.542   4.231   5.477
  393TIP3    H1 1143   3.515   4.313   5.519
  393TIP3    H2 1144   3.503   4.163   5.532
  394TIP3   OH2 1145   0.335   4.798   4.708
  394TIP3    H1 1146   0.400   4.857   4.745
  394TIP3    H2 1147   0.386   4.737   4.655
  395TIP3   OH2 1148   4.758   6.567   0.505
  395TIP3    H1 1149   4.736   6.487   0.553
  395TIP3    H2 1150   4.793   6.626   0.571
  396TIP3   OH2 1151   0.727   4.212   5.729
  396TIP3    H1 1152   0.644   4.186   5.691
  396TIP3    H2 1153   0.760   4.133   5.772
  397TIP3   OH2 1154   0.823   5.331   3.831
  397TIP3    H1 1155   0.880   5.331   3.908
  397TIP3    H2 1156   0.759   5.401   3.848
  398TIP3   OH2 1157   1.509   6.369   2.781
  398TIP3    H1 1158   1.467   6.316   2.849
  398TIP3    H2 1159   1.603   6.354   2.794
  399TIP3   OH2 1160   6.309   5.860   2.577
  399TIP3    H1 1161   6.354   5.916   2.513
  399TIP3    H2 1162   6.358   5.872   2.659
  400TIP3   OH2 1163   6.470   1.393   2.333
  400TIP3    H1 1164   6.427   1.420   2.414
  400TIP3    H2 1165   6.438   1.305   2.316
  401TIP3   OH2 1166   6.879   0.282   3.326
  401TIP3    H1 1167   6.790   0.271   3.360
  401TIP3    H2 1168   6.933   0.226   3.381
  402TIP3   OH2 1169   3.075   4.077   5.842
  402TIP3    H1 1170   3.051   4.165   5.870
  402TIP3    H2 1171   3.029   4.019   5.903
  403TIP3   OH2 1172   2.459   6.039   4.906
  403TIP3    H1 1173   2.481   5.972   4.842
  403TIP3    H2 1174   2.386   6.087   4.868
  404TIP3   OH2 1175   7.041   2.570   0.674
  404TIP3    H1 1176   7.103   2.570   0.601
  404TIP3    H2 1177   7.042   2.480   0.707
  405TIP3   OH2 1178   3.657   1.298   4.030
  405TIP3    H1 1179   3.742   1.337   4.046
  405TIP3    H2 1180   3.624   1.275   4.117
  406TIP3   OH2 1181   1.756   3.627   5.620
  406TIP3    H1 1182   1.760   3.561   5.551
  406TIP3    H2 1183   1.816   3.695   5.590
  407TIP3   OH2 1184   3.185   5.144   3.874
  407TIP3    H1 1185   3.215   5.076   3.934
  407TIP3    H2 1186   3.157   5.216   3.931
  408TIP3   OH2 1187   5.165   2.699   4.472
  408TIP3    H1 1188   5.126   2.612   4.483
  408TIP3    H2 1189   5.109   2.743   4.408
  409TIP3   OH2 1190   5.284   0.662   0.097
  409TIP3    H1 1191   5.245   0.647   0.184
  409TIP3    H2 1192   5.217   0.632   0.036
  410TIP3   OH2 1193   5.298   5.543   5.176
  410TIP3    H1 1194   5.280   5.577   5.088
  410TIP3    H2 1195   5.255   5.458   5.178
  411TIP3   OH2 1196   3.213   0.224   1.006
  411TIP3    H1 1197   3.299   0.266   1.009
  411TIP3    H2 1198   3.166   0.258   1.082
  412TIP3   OH2 1199   6.525   2.590   3.565
  412TIP3    H1 1200   6.518   2.684   3.553
  412TIP3    H2 1201   6.481   2.573   3.649
  413TIP3   OH2 1202   6.073   2.527   4.094
  413TIP3    H1 1203   6.165   2.550   4.079
  413TIP3    H2 1204   6.047   2.478   4.016
  414TIP3   OH2 1205   4.843   2.226   2.494
  414TIP3    H1 1206   4.892   2.305   2.473
  414TIP3    H2 1207   4.798   2.246   2.576
  415TIP3   OH2 1208   2.804   0.341   1.834
  415TIP3    H1 1209   2.749   0.341   1.756
  415TIP3    H2 1210   2.752   0.297   1.901
  416TIP3   OH2 1211   5.751   2.482   1.493
  416TIP3    H1 1212   5.821   2.541   1.522
  416TIP3    H2 1213   5.690   2.480   1.566
  417TIP3   OH2 1214   2.095   5.387   0.273
  417TIP3    H1 1215   2.094   5.318   0.339
  417TIP3    H2 1216   2.187   5.404   0.256
  418TIP3   OH2 1217   5.311   1.049   5.508
  418TIP3    H1 1218   5.283   1.134   5.473
  418TIP3    H2 1219   5.385   1.024   5.453
  419TIP3   OH2 1220   6.996   6.139   1.713
  419TIP3    H1 1221   6.984   6.230   1.686
  419TIP3    H2 1222   6.948   6.132   1.796
  420TIP3   OH2 1223   5.997   3.396   3.812
  420TIP3    H1 1224   6.081   3.401   3.857
  420TIP3    H2 1225   5.973   3.488   3.797
  421TIP3   OH2 1226   6.656   1.844   2.574
  421TIP3    H1 1227   6.712   1.892   2.512
  421TIP3    H2 1228   6.655   1.899   2.652
  422TIP3   OH2 1229   5.737   4.129   4.326
  422TIP3    H1 1230   5.719   4.055   4.269
  422TIP3    H2 1231   5.688   4.202   4.289
  423TIP3   OH2 1232   7.104   4.175   1.492
  423TIP3    H1 1233   7.140   4.099   1.537
  423TIP3    H2 1234   7.037   4.139   1.433
  424TIP3   OH2 1235   4.367   6.355   0.095
  424TIP3    H1 1236   4.346   6.269   0.058
  424TIP3    H2 1237   4.419   6.398   0.028
  425TIP3   OH2 1238   3.928   6.361   5.552
  425TIP3    H1 1239   3.925   6.278   5.599
  425TIP3    H2 1240   4.003   6.352   5.493
  426TIP3   OH2 1241   5.722   0.495   4.412
  426TIP3    H1 1242   5.634   0.529   4.395
  426TIP3    H2 1243   5.764   0.564   4.465
  427TIP3   OH2 1244   6.913   2.442   4.722
  427TIP3    H1 1245   6.941   2.401   4.640
  427TIP3    H2 1246   6.935   2.379   4.790
  428TIP3   OH2 1247   6.529   0.908   3.757
  428TIP3    H1 1248   6.458   0.921   3.695
  428TIP3    H2 1249   6.609   0.921   3.705
  429TIP3   OH2 1250   3.019   6.106   2.467
  429TIP3    H1 1251   3.108   6.082   2.441
  429TIP3    H2 1252   3.028   6.192   2.508
  430TIP3   OH2 1253   5.472   1.982   3.520
  430TIP3    H1 1254   5.424   2.048   3.471
  430TIP3    H2 1255   5.523   2.031   3.584
  431TIP3   OH2 1256   3.848   5.719   0.577
  431TIP3    H1 1257   3.830   5.637   0.622
  431TIP3    H2 1258   3.770   5.734   0.522
  432TIP3   OH2 1259   6.750   0.981   3.583
  432TIP3    H1 1260   6.730   0.945   3.497
  432TIP3    H2 1261   6.845   0.992   3.584
  433TIP3   OH2 1262   0.855   5.682   3.422
  433TIP3    H1 1263   0.787   5.640   3.475
  433TIP3    H2 1264   0.882   5.758   3.472
  434TIP3   OH2 1265   6.620   5.004   3.022
  434TIP3    H1 1266   6.691   4.980   3.081
  434TIP3    H2 1267   6.613   5.099   3.030
  435TIP3   OH2 1268   1.880   6.087   5.029
  435TIP3    H1 1269   1.834   6.118   4.951
  435TIP3    H2 1270   1.934   6.014   4.998
  436TIP3   OH2 1271   0.514   5.094   0.624
  436TIP3    H1 1272   0.586   5.156   0.615
  436TIP3    H2 1273   0.493   5.067   0.535
  437TIP3   OH2 1274   3.282   0.117   3.900
  437TIP3    H1 1275   3.340   0.173   3.950
  437TIP3    H2 1276   3.217   0.087   3.964
  438TIP3   OH2 1277   2.447   1.109   1.593
  438TIP3    H1 1278   2.406   1.051   1.656
  438TIP3    H2 1279   2.511   1.054   1.547
  439TIP3   OH2 1280   6.674   5.265   4.100
  439TIP3    H1 1281   6.707   5.279   4.189
  439TIP3    H2 1282   6.752   5.245   4.048
  440TIP3   OH2 1283   4.082   5.537   4.242
  440TIP3    H1 1284   4.152   5.524   4.306
  440TIP3    H2 1285   4.124   5.583   4.169
  441TIP3   OH2 1286   2.100   4.453   2.744
  441TIP3    H1 1287   2.134   4.536   2.710
  441TIP3    H2 1288   2.022   4.477   2.793
  442TIP3   OH2 1289   4.029   4.291   3.325
  442TIP3    H1 1290   4.042   4.370   3.274
  442TIP3    H2 1291   4.104   4.289   3.385
  443TIP3   OH2 1292   3.926   4.048   3.551
  443TIP3    H1 1293   3.981   4.125   3.539
  443TIP3    H2 1294   3.900   4.052   3.643
  444TIP3   OH2 1295   2.592   5.369   2.234
  444TIP3    H1 1296   2.592   5.328   2.147
  444TIP3    H2 1297   2.533   5.315   2.286
  445TIP3   OH2 1298   5.668   0.963   2.433
  445TIP3    H1 1299   5.592   0.909   2.458
  445TIP3    H2 1300   5.643   1.001   2.349
  446TIP3   OH2 1301   5.030   1.224   5.130
  446TIP3    H1 1302   5.036   1.202   5.223
  446TIP3    H2 1303   5.101   1.287   5.115
  447TIP3   OH2 1304   5.443   0.216   4.447
  447TIP3    H1 1305   5.389   0.137   4.435
  447TIP3    H2 1306   5.438   0.233   4.541
  448TIP3   OH2 1307   5.009   0.287   5.075
  448TIP3    H1 1308   5.080   0.247   5.125
  448TIP3    H2 1309   5.043   0.374   5.051
  449TIP3   OH2 1310   2.376   1.963   4.955
  449TIP3    H1 1311   2.284   1.966   4.929
  449TIP3    H2 1312   2.407   2.053   4.941
  450TIP3   OH2 1313   6.944   5.160   3.706
  450TIP3    H1 1314   6.911   5.144   3.618
  450TIP3    H2 1315   6.969   5.074   3.739
  451TIP3   OH2 1316   3.554   3.569   3.405
  451TIP3    H1 1317   3.546   3.612   3.490
  451TIP3    H2 1318   3.644   3.586   3.378
  452TIP3   OH2 1319   6.146   1.242   2.231
  452TIP3    H1 1320   6.221   1.201   2.274
  452TIP3    H2 1321   6.137   1.195   2.148
  453TIP3   OH2 1322   1.963   1.148   5.304
  453TIP3    H1 1323   2.007   1.225   5.269
  453TIP3    H2 1324   2.031   1.105   5.357
  454TIP3   OH2 1325   6.662   2.242   0.824
  454TIP3    H1 1326   6.745   2.219   0.781
  454TIP3    H2 1327   6.603   2.171   0.800
  455TIP3   OH2 1328   0.616   3.620   1.800
  455TIP3    H1 1329   0.537   3.660   1.834
  455TIP3    H2 1330   0.687   3.665   1.845
  456TIP3   OH2 1331   6.594   1.214   3.401
  456TIP3    H1 1332   6.534   1.287   3.385
  456TIP3    H2 1333   6.681   1.250   3.381
  457TIP3   OH2 1334   3.131   4.828   0.121
  457TIP3    H1 1335   3.141   4.834   0.216
  457TIP3    H2 1336   3.115   4.735   0.106
  458TIP3   OH2 1337   6.491   3.159   1.231
  458TIP3    H1 1338   6.548   3.092   1.268
  458TIP3    H2 1339   6.403   3.123   1.238
  459TIP3   OH2 1340   7.189   1.613   5.168
  459TIP3    H1 1341   7.252   1.662   5.221
  459TIP3    H2 1342   7.144   1.557   5.231
  460TIP3   OH2 1343   3.396   5.582   0.733
  460TIP3    H1 1344   3.437   5.588   0.647
  460TIP3    H2 1345   3.338   5.506   0.727
  461TIP3   OH2 1346   5.551   0.894   1.779
  461TIP3    H1 1347   5.503   0.945   1.845
  461TIP3    H2 1348   5.642   0.901   1.807
  462TIP3   OH2 1349   0.375   6.625   5.499
  462TIP3    H1 1350   0.447   6.664   5.450
  462TIP3    H2 1351   0.365   6.680   5.576
  463TIP3   OH2 1352   1.595   0.651   1.531
  463TIP3    H1 1353   1.608   0.625   1.439
  463TIP3    H2 1354   1.602   0.746   1.530
  464TIP3   OH2 1355   1.216   2.591   4.837
  464TIP3    H1 1356   1.200   2.498   4.825
  464TIP3    H2 1357   1.154   2.634   4.779
  465TIP3   OH2 1358   0.655   6.752   4.988
  465TIP3    H1 1359   0.728   6.814   4.987
  465TIP3    H2 1360   0.577   6.806   4.995
  466TIP3   OH2 1361   1.217   5.166   5.246
  466TIP3    H1 1362   1.153   5.222   5.290
  466TIP3    H2 1363   1.259   5.223   5.182
  467TIP3   OH2 1364   5.026   2.045   2.854
  467TIP3    H1 1365   5.056   1.996   2.930
  467TIP3    H2 1366   5.092   2.112   2.841
  468TIP3   OH2 1367   0.391   0.401   4.661
  468TIP3    H1 1368   0.446   0.357   4.597
  468TIP3    H2 1369   0.303   0.400   4.621
  469TIP3   OH2 1370   1.859   6.803   4.452
  469TIP3    H1 1371   1.845   6.759   4.368
  469TIP3    H2 1372   1.776   6.795   4.498
  470TIP3   OH2 1373   4.863   3.108   1.733
  470TIP3    H1 1374   4.950   3.069   1.725
  470TIP3    H2 1375   4.878   3.201   1.722
  471TIP3   OH2 1376   2.978   1.797   0.679
  471TIP3    H1 1377   2.889   1.767   0.700
  471TIP3    H2 1378   3.032   1.761   0.749
  472TIP3   OH2 1379   4.052   5.787   0.019
  472TIP3    H1 1380   4.077   5.875  -0.009
  472TIP3    H2 1381   3.961   5.797   0.047
  473TIP3   OH2 1382   3.408   3.658   1.302
  473TIP3    H1 1383   3.501   3.634   1.302
  473TIP3    H2 1384   3.401   3.729   1.365
  474TIP3   OH2 1385   6.281   3.063   4.236
  474TIP3    H1 1386   6.336   3.136   4.265
  474TIP3    H2 1387   6.232   3.098   4.162
  475TIP3   OH2 1388   2.178   2.167   1.224
  475TIP3    H1 1389   2.237   2.194   1.153
  475TIP3    H2 1390   2.115   2.238   1.231
  476TIP3   OH2 1391   2.674   6.309   2.973
  476TIP3    H1 1392   2.649   6.219   2.991
  476TIP3    H2 1393   2.768   6.307   2.961
  477TIP3   OH2 1394   5.010   1.737   5.621
  477TIP3    H1 1395   5.017   1.740   5.526
  477TIP3    H2 1396   4.952   1.663   5.638
  478TIP3   OH2 1397   0.945   6.140   3.823
  478TIP3    H1 1398   0.879   6.209   3.827
  478TIP3    H2 1399   0.930   6.088   3.902
  479TIP3   OH2 1400   0.877   1.565   5.056
  479TIP3    H1 1401   0.800   1.611   5.090
  479TIP3    H2 1402   0.946   1.584   5.119
  480TIP3   OH2 1403   0.918   5.629   0.512
  480TIP3    H1 1404   0.888   5.555   0.459
  480TIP3    H2 1405   0.977   5.590   0.577
  481TIP3   OH2 1406   6.980   3.059   5.898
  481TIP3    H1 1407   6.960   2.995   5.829
  481TIP3    H2 1408   7.062   3.100   5.870
  482TIP3   OH2 1409   4.705   4.546   1.928
  482TIP3    H1 1410   4.685   4.455   1.947
  482TIP3    H2 1411   4.620   4.590   1.925
  483TIP3   OH2 1412   1.332   3.091   1.006
  483TIP3    H1 1413   1.351   2.998   1.011
  483TIP3    H2 1414   1.381   3.121   0.929
  484TIP3   OH2 1415   5.981   3.517   4.206
  484TIP3    H1 1416   5.978   3.587   4.141
  484TIP3    H2 1417   5.927   3.448   4.170
  485TIP3   OH2 1418   5.693   4.328   1.574
  485TIP3    H1 1419   5.631   4.400   1.585
  485TIP3    H2 1420   5.648   4.252   1.611
  486TIP3   OH2 1421   4.114   1.852   0.201
  486TIP3    H1 1422   4.051   1.799   0.152
  486TIP3    H2 1423   4.171   1.788   0.244
  487TIP3   OH2 1424   0.957   0.108   5.520
  487TIP3    H1 1425   0.992   0.156   5.595
  487TIP3    H2 1426   0.871   0.079   5.548
  488TIP3   OH2 1427   0.923   3.867   4.910
  488TIP3    H1 1428   0.876   3.821   4.980
  488TIP3    H2 1429   0.961   3.798   4.857
  489TIP3   OH2 1430   5.355   2.534   3.952
  489TIP3    H1 1431   5.325   2.511   4.040
  489TIP3    H2 1432   5.427   2.594   3.967
  490TIP3   OH2 1433   5.502   0.334   3.567
  490TIP3    H1 1434   5.484   0.273   3.639
  490TIP3    H2 1435   5.574   0.294   3.519
  491TIP3   OH2 1436   3.256   1.283   1.077
  491TIP3    H1 1437   3.234   1.353   1.015
  491TIP3    H2 1438   3.175   1.270   1.127
  492TIP3   OH2 1439   4.243   2.932   0.698
  492TIP3    H1 1440   4.317   2.891   0.654
  492TIP3    H2 1441   4.182   2.952   0.627
  493TIP3   OH2 1442   3.098   0.288   1.225
  493TIP3    H1 1443   3.108   0.245   1.310
  493TIP3    H2 1444   3.037   0.360   1.241
  494TIP3   OH2 1445   0.227   0.361   4.435
  494TIP3    H1 1446   0.148   0.321   4.399
  494TIP3    H2 1447   0.247   0.432   4.375
  495TIP3   OH2 1448   2.463   3.162   2.356
  495TIP3    H1 1449   2.506   3.245   2.377
  495TIP3    H2 1450   2.491   3.102   2.426
  496TIP3   OH2 1451   3.787   6.220   5.195
  496TIP3    H1 1452   3.854   6.153   5.210
  496TIP3    H2 1453   3.716   6.196   5.256
  497TIP3   OH2 1454   1.784   4.829   1.830
  497TIP3    H1 1455   1.877   4.846   1.846
  497TIP3    H2 1456   1.740   4.911   1.853
  498TIP3   OH2 1457   1.951   2.924   2.259
  498TIP3    H1 1458   2.006   2.855   2.220
  498TIP3    H2 1459   1.960   2.911   2.353
  499TIP3   OH2 1460   6.779   5.060   2.715
  499TIP3    H1 1461   6.738   4.977   2.688
  499TIP3    H2 1462   6.769   5.117   2.639
  500TIP3   OH2 1463   1.467   1.626   2.547
  500TIP3    H1 1464   1.476   1.696   2.611
  500TIP3    H2 1465   1.530   1.559   2.575
  501TIP3   OH2 1466   0.213   0.965   1.947
  501TIP3    H1 1467   0.130   0.977   1.993
  501TIP3    H2 1468   0.276   1.017   1.998
  502TIP3   OH2 1469   0.869   3.550   2.680
  502TIP3    H1 1470   0.837   3.495   2.608
  502TIP3    H2 1471   0.963   3.534   2.682
  503TIP3   OH2 1472   1.908   0.070   1.901
  503TIP3    H1 1473   1.987   0.113   1.934
  503TIP3    H2 1474   1.847   0.073   1.975
  504TIP3   OH2 1475   4.798   3.099   2.997
  504TIP3    H1 1476   4.811   3.123   2.905
  504TIP3    H2 1477   4.783   3.182   3.042
  505TIP3   OH2 1478   3.300   3.201   1.687
  505TIP3    H1 1479   3.219   3.230   1.729
  505TIP3    H2 1480   3.363   3.271   1.706
  506TIP3   OH2 1481   5.340   6.236   4.754
  506TIP3    H1 1482   5.359   6.213   4.845
  506TIP3    H2 1483   5.391   6.174   4.702
  507TIP3   OH2 1484   2.947   0.790   2.037
  507TIP3    H1 1485   2.882   0.821   2.100
  507TIP3    H2 1486   3.025   0.842   2.056
  508TIP3   OH2 1487   6.414   6.544   5.525
  508TIP3    H1 1488   6.469   6.616   5.556
  508TIP3    H2 1489   6.325   6.571   5.545
  509TIP3   OH2 1490   7.142   2.677   4.063
  509TIP3    H1 1491   7.201   2.709   3.995
  509TIP3    H2 1492   7.059   2.661   4.019
  510TIP3   OH2 1493   2.413   2.575   3.304
  510TIP3    H1 1494   2.424   2.657   3.351
  510TIP3    H2 1495   2.337   2.534   3.346
  511TIP3   OH2 1496   1.423   3.771   3.034
  511TIP3    H1 1497   1.458   3.824   2.962
  511TIP3    H2 1498   1.469   3.801   3.112
  512TIP3   OH2 1499   1.390   4.063   4.046
  512TIP3    H1 1500   1.325   4.038   4.112
  512TIP3    H2 1501   1.442   3.984   4.032
  513TIP3   OH2 1502   5.895   6.196   5.881
  513TIP3    H1 1503   5.954   6.128   5.913
  513TIP3    H2 1504   5.861   6.162   5.798
  514TIP3   OH2 1505   3.720   3.139   0.978
  514TIP3    H1 1506   3.761   3.216   0.939
  514TIP3    H2 1507   3.670   3.100   0.907
  515TIP3   OH2 1508   5.676   6.195   0.876
  515TIP3    H1 1509   5.746   6.260   0.870
  515TIP3    H2 1510   5.601   6.242   0.912
  516TIP3   OH2 1511   3.518   6.114   2.420
  516TIP3    H1 1512   3.609   6.092   2.399
  516TIP3    H2 1513   3.523   6.203   2.455
  517TIP3   OH2 1514   6.675   5.741   1.181
  517TIP3    H1 1515   6.649   5.832   1.167
  517TIP3    H2 1516   6.634   5.692   1.110
  518TIP3   OH2 1517   6.475   6.319   1.070
  518TIP3    H1 1518   6.426   6.401   1.065
  518TIP3    H2 1519   6.479   6.300   1.164
  519TIP3   OH2 1520   5.333   5.962   5.168
  519TIP3    H1 1521   5.277   6.008   5.106
  519TIP3    H2 1522   5.286   5.967   5.251
  520TIP3   OH2 1523   6.616   5.464   4.824
  520TIP3    H1 1524   6.697   5.473   4.875
  520TIP3    H2 1525   6.600   5.552   4.790
  521TIP3   OH2 1526   0.657   2.816   1.892
  521TIP3    H1 1527   0.738   2.777   1.925
  521TIP3    H2 1528   0.678   2.845   1.803
  522TIP3   OH2 1529   5.632   2.140   4.499
  522TIP3    H1 1530   5.680   2.135   4.417
  522TIP3    H2 1531   5.605   2.050   4.518
  523TIP3   OH2 1532   6.124   3.165   4.903
  523TIP3    H1 1533   6.044   3.114   4.904
  523TIP3    H2 1534   6.099   3.250   4.938
  524TIP3   OH2 1535   2.822   3.836   0.381
  524TIP3    H1 1536   2.800   3.794   0.464
  524TIP3    H2 1537   2.740   3.878   0.353
  525TIP3   OH2 1538   1.261   1.508   2.409
  525TIP3    H1 1539   1.187   1.568   2.395
  525TIP3    H2 1540   1.324   1.559   2.460
  526TIP3   OH2 1541   6.045   2.092   4.662
  526TIP3    H1 1542   5.987   2.015   4.666
  526TIP3    H2 1543   5.994   2.162   4.703
  527TIP3   OH2 1544   1.950   1.897   1.893
  527TIP3    H1 1545   1.944   1.907   1.798
  527TIP3    H2 1546   1.987   1.980   1.924
  528TIP3   OH2 1547   6.431   6.190   0.592
  528TIP3    H1 1548   6.492   6.226   0.657
  528TIP3    H2 1549   6.480   6.120   0.549
  529TIP3   OH2 1550   2.143   4.198   5.116
  529TIP3    H1 1551   2.213   4.188   5.181
  529TIP3    H2 1552   2.072   4.142   5.148
  530TIP3   OH2 1553   0.718   3.835   1.122
  530TIP3    H1 1554   0.734   3.847   1.216
  530TIP3    H2 1555   0.655   3.903   1.100
  531TIP3   OH2 1556   5.832   6.404   4.314
  531TIP3    H1 1557   5.840   6.460   4.238
  531TIP3    H2 1558   5.863   6.458   4.387
  532TIP3   OH2 1559   5.811   4.701   2.737
  532TIP3    H1 1560   5.766   4.767   2.685
  532TIP3    H2 1561   5.749   4.628   2.744
  533TIP3   OH2 1562   2.487   6.303   3.545
  533TIP3    H1 1563   2.528   6.244   3.482
  533TIP3    H2 1564   2.393   6.294   3.529
  534TIP3   OH2 1565   2.399   6.039   1.226
  534TIP3    H1 1566   2.457   6.085   1.167
  534TIP3    H2 1567   2.436   5.952   1.235
  535TIP3   OH2 1568   2.631   1.887   3.239
  535TIP3    H1 1569   2.599   1.805   3.200
  535TIP3    H2 1570   2.725   1.874   3.249
  536TIP3   OH2 1571   5.629   1.098   2.184
  536TIP3    H1 1572   5.559   1.149   2.143
  536TIP3    H2 1573   5.696   1.089   2.116
  537TIP3   OH2 1574   2.731   6.794   4.100
  537TIP3    H1 1575   2.715   6.879   4.059
  537TIP3    H2 1576   2.825   6.794   4.119
  538TIP3   OH2 1577   3.198   3.959   3.407
  538TIP3    H1 1578   3.156   3.897   3.466
  538TIP3    H2 1579   3.133   4.028   3.395
  539TIP3   OH2 1580   1.346   3.414   4.447
  539TIP3    H1 1581   1.315   3.331   4.484
  539TIP3    H2 1582   1.351   3.473   4.523
  540TIP3   OH2 1583   2.275   4.433   3.931
  540TIP3    H1 1584   2.261   4.413   3.838
  540TIP3    H2 1585   2.282   4.528   3.935
  541TIP3   OH2 1586   4.285   0.265   3.893
  541TIP3    H1 1587   4.241   0.221   3.966
  541TIP3    H2 1588   4.366   0.215   3.881
  542TIP3   OH2 1589   0.702   5.859   1.216
  542TIP3    H1 1590   0.627   5.803   1.195
  542TIP3    H2 1591   0.754   5.859   1.136
  543TIP3   OH2 1592   1.143   1.500   0.387
  543TIP3    H1 1593   1.236   1.516   0.370
  543TIP3    H2 1594   1.098   1.576   0.349
  544TIP3   OH2 1595   3.369   2.257   5.395
  544TIP3    H1 1596   3.355   2.176   5.346
  544TIP3    H2 1597   3.299   2.258   5.461
  545TIP3   OH2 1598   0.709   0.103   5.676
  545TIP3    H1 1599   0.619   0.101   5.708
  545TIP3    H2 1600   0.747   0.181   5.716
  546TIP3   OH2 1601   5.061   4.415   5.847
  546TIP3    H1 1602   5.022   4.446   5.765
  546TIP3    H2 1603   5.109   4.336   5.823
  547TIP3   OH2 1604   6.203   1.524   5.193
  547TIP3    H1 1605   6.201   1.476   5.276
  547TIP3    H2 1606   6.183   1.614   5.218
  548TIP3   OH2 1607   0.699   5.240   0.923
  548TIP3    H1 1608   0.734   5.151   0.934
  548TIP3    H2 1609   0.770   5.288   0.881
  549TIP3   OH2 1610   2.451   1.732   0.176
  549TIP3    H1 1611   2.462   1.702   0.086
  549TIP3    H2 1612   2.365   1.774   0.177
  550TIP3   OH2 1613   0.453   3.543   2.348
  550TIP3    H1 1614   0.527   3.593   2.313
  550TIP3    H2 1615   0.493   3.478   2.406
  551TIP3   OH2 1616   0.853   5.244   2.277
  551TIP3    H1 1617   0.847   5.150   2.264
  551TIP3    H2 1618   0.863   5.255   2.371
  552TIP3   OH2 1619   1.704   3.464   2.451
  552TIP3    H1 1620   1.756   3.457   2.532
  552TIP3    H2 1621   1.624   3.415   2.469
  553TIP3   OH2 1622   5.710   5.871   3.916
  553TIP3    H1 1623   5.634   5.849   3.861
  553TIP3    H2 1624   5.725   5.792   3.968
  554TIP3   OH2 1625   6.118   1.804   0.535
  554TIP3    H1 1626   6.195   1.814   0.591
  554TIP3    H2 1627   6.120   1.713   0.506
  555TIP3   OH2 1628   6.289   0.930   3.873
  555TIP3    H1 1629   6.269   0.936   3.780
  555TIP3    H2 1630   6.205   0.909   3.915
  556TIP3   OH2 1631   0.787   0.589   3.093
  556TIP3    H1 1632   0.761   0.516   3.149
  556TIP3    H2 1633   0.874   0.614   3.125
  557TIP3   OH2 1634   6.019   0.894   3.960
  557TIP3    H1 1635   5.934   0.909   3.918
  557TIP3    H2 1636   6.002   0.826   4.025
  558TIP3   OH2 1637   2.246   4.170   5.367
  558TIP3    H1 1638   2.249   4.085   5.410
  558TIP3    H2 1639   2.205   4.228   5.432
  559TIP3   OH2 1640   4.409   1.460   0.966
  559TIP3    H1 1641   4.350   1.517   0.917
  559TIP3    H2 1642   4.375   1.372   0.952
  560TIP3   OH2 1643   3.253   0.717   3.975
  560TIP3    H1 1644   3.238   0.758   3.890
  560TIP3    H2 1645   3.335   0.755   4.006
  561TIP3   OH2 1646   3.489   3.020   5.042
  561TIP3    H1 1647   3.526   2.987   5.124
  561TIP3    H2 1648   3.521   3.110   5.036
  562TIP3   OH2 1649   3.526   0.247   1.133
  562TIP3    H1 1650   3.545   0.336   1.161
  562TIP3    H2 1651   3.465   0.214   1.199
  563TIP3   OH2 1652   1.041   4.364   1.219
  563TIP3    H1 1653   0.956   4.399   1.192
  563TIP3    H2 1654   1.042   4.275   1.184
  564TIP3   OH2 1655   4.936   1.641   1.316
  564TIP3    H1 1656   4.947   1.546   1.305
  564TIP3    H2 1657   4.984   1.680   1.244
  565TIP3   OH2 1658   5.184   0.517   4.995
  565TIP3    H1 1659   5.113   0.553   5.047
  565TIP3    H2 1660   5.253   0.582   4.999
  566TIP3   OH2 1661   5.294   1.257   3.412
  566TIP3    H1 1662   5.344   1.293   3.338
  566TIP3    H2 1663   5.283   1.330   3.472
  567TIP3   OH2 1664   2.275   4.710   2.864
  567TIP3    H1 1665   2.306   4.625   2.895
  567TIP3    H2 1666   2.331   4.774   2.909
  568TIP3   OH2 1667   1.806   1.161   4.969
  568TIP3    H1 1668   1.839   1.084   4.922
  568TIP3    H2 1669   1.880   1.190   5.022
  569TIP3   OH2 1670   2.604   4.392   2.266
  569TIP3    H1 1671   2.531   4.335   2.240
  569TIP3    H2 1672   2.593   4.471   2.214
  570TIP3   OH2 1673   6.419   5.935   2.827
  570TIP3    H1 1674   6.405   5.865   2.890
  570TIP3    H2 1675   6.394   6.015   2.874
  571TIP3   OH2 1676   4.177   5.348   1.589
  571TIP3    H1 1677   4.185   5.259   1.552
  571TIP3    H2 1678   4.084   5.358   1.607
  572TIP3   OH2 1679   3.793   3.140   3.349
  572TIP3    H1 1680   3.863   3.087   3.312
  572TIP3    H2 1681   3.813   3.230   3.321
  573TIP3   OH2 1682   2.376   0.421   2.582
  573TIP3    H1 1683   2.397   0.348   2.524
  573TIP3    H2 1684   2.343   0.380   2.662
  574TIP3   OH2 1685   5.069   2.352   0.003
  574TIP3    H1 1686   5.161   2.378  -0.006
  574TIP3    H2 1687   5.028   2.386  -0.076
  575TIP3   OH2 1688   4.702   1.569   3.621
  575TIP3    H1 1689   4.688   1.660   3.593
  575TIP3    H2 1690   4.628   1.551   3.680
  576TIP3   OH2 1691   5.064   3.345   5.164
  576TIP3    H1 1692   4.971   3.345   5.141
  576TIP3    H2 1693   5.106   3.396   5.095
  577TIP3   OH2 1694   5.000   1.906   4.230
  577TIP3    H1 1695   5.003   1.930   4.137
  577TIP3    H2 1696   5.074   1.953   4.269
  578TIP3   OH2 1697   6.818   6.264   1.288
  578TIP3    H1 1698   6.767   6.294   1.364
  578TIP3    H2 1699   6.905   6.248   1.323
  579TIP3   OH2 1700   2.796   0.744   0.150
  579TIP3    H1 1701   2.716   0.758   0.201
  579TIP3    H2 1702   2.851   0.689   0.206
  580TIP3   OH2 1703   4.085   0.676   2.459
  580TIP3    H1 1704   4.045   0.590   2.451
  580TIP3    H2 1705   4.083   0.713   2.371
  581TIP3   OH2 1706   6.838   5.663   3.668
  581TIP3    H1 1707   6.848   5.718   3.746
  581TIP3    H2 1708   6.770   5.706   3.617
  582TIP3   OH2 1709   6.634   5.338   1.235
  582TIP3    H1 1710   6.636   5.425   1.274
  582TIP3    H2 1711   6.616   5.279   1.308
  583TIP3   OH2 1712   3.780   2.737   0.065
  583TIP3    H1 1713   3.868   2.772   0.048
  583TIP3    H2 1714   3.778   2.654   0.017
  584TIP3   OH2 1715   1.164   4.595   2.767
  584TIP3    H1 1716   1.146   4.542   2.844
  584TIP3    H2 1717   1.083   4.643   2.751
  585TIP3   OH2 1718   5.146   2.821   3.325
  585TIP3    H1 1719   5.230   2.828   3.278
  585TIP3    H2 1720   5.094   2.762   3.270
  586TIP3   OH2 1721   4.470   3.636   1.587
  586TIP3    H1 1722   4.470   3.567   1.520
  586TIP3    H2 1723   4.392   3.688   1.567
  587TIP3   OH2 1724   6.325   3.339   3.001
  587TIP3    H1 1725   6.416   3.360   2.980
  587TIP3    H2 1726   6.286   3.423   3.026
  588TIP3   OH2 1727   5.131   3.801   1.232
  588TIP3    H1 1728   5.118   3.737   1.303
  588TIP3    H2 1729   5.120   3.750   1.152
  589TIP3   OH2 1730   6.481   3.381   2.630
  589TIP3    H1 1731   6.478   3.293   2.667
  589TIP3    H2 1732   6.400   3.423   2.660
  590TIP3   OH2 1733   1.349   4.672   5.200
  590TIP3    H1 1734   1.317   4.582   5.206
  590TIP3    H2 1735   1.301   4.710   5.127
  591TIP3   OH2 1736   5.648   4.952   4.356
  591TIP3    H1 1737   5.610   4.955   4.269
  591TIP3    H2 1738   5.709   5.025   4.359
  592TIP3   OH2 1739   1.334   0.405   3.130
  592TIP3    H1 1740   1.312   0.453   3.051
  592TIP3    H2 1741   1.317   0.467   3.201
  593TIP3   OH2 1742   6.276   2.013   0.993
  593TIP3    H1 1743   6.215   2.021   1.066
  593TIP3    H2 1744   6.234   2.060   0.921
  594TIP3   OH2 1745   5.150   2.507   3.287
  594TIP3    H1 1746   5.156   2.420   3.248
  594TIP3    H2 1747   5.056   2.527   3.286
  595TIP3   OH2 1748   2.240   2.775   0.593
  595TIP3    H1 1749   2.226   2.737   0.506
  595TIP3    H2 1750   2.265   2.866   0.576
  596TIP3   OH2 1751   1.305   3.821   1.392
  596TIP3    H1 1752   1.319   3.788   1.480
  596TIP3    H2 1753   1.211   3.812   1.376
  597TIP3   OH2 1754   3.420   4.598   2.213
  597TIP3    H1 1755   3.334   4.611   2.173
  597TIP3    H2 1756   3.423   4.660   2.286
  598TIP3   OH2 1757   7.001   4.849   2.535
  598TIP3    H1 1758   7.043   4.770   2.570
  598TIP3    H2 1759   6.909   4.837   2.555
  599TIP3   OH2 1760   1.419   2.672   4.048
  599TIP3    H1 1761   1.403   2.598   4.107
  599TIP3    H2 1762   1.472   2.635   3.977
  600TIP3   OH2 1763   2.793   3.151   4.668
  600TIP3    H1 1764   2.795   3.056   4.674
  600TIP3    H2 1765   2.804   3.181   4.758
  601TIP3   OH2 1766   1.964   5.887   0.582
  601TIP3    H1 1767   2.017   5.964   0.600
  601TIP3    H2 1768   1.918   5.908   0.501
  602TIP3   OH2 1769   2.023   4.509   1.821
  602TIP3    H1 1770   2.003   4.416   1.831
  602TIP3    H2 1771   1.946   4.554   1.857
  603TIP3   OH2 1772   0.465   1.060   4.889
  603TIP3    H1 1773   0.373   1.043   4.909
  603TIP3    H2 1774   0.485   1.001   4.815
  604TIP3   OH2 1775   7.085   0.710   1.133
  604TIP3    H1 1776   7.073   0.792   1.181
  604TIP3    H2 1777   7.085   0.736   1.041
  605TIP3   OH2 1778   7.109   5.460   3.598
  605TIP3    H1 1779   7.052   5.482   3.524
  605TIP3    H2 1780   7.073   5.510   3.672
  606TIP3   OH2 1781   6.931   4.337   1.626
  606TIP3    H1 1782   7.013   4.288   1.621
  606TIP3    H2 1783   6.933   4.394   1.549
  607TIP3   OH2 1784   6.239   4.292   1.149
  607TIP3    H1 1785   6.270   4.374   1.110
  607TIP3    H2 1786   6.194   4.318   1.229
  608TIP3   OH2 1787   1.054   0.684   3.144
  608TIP3    H1 1788   1.104   0.757   3.109
  608TIP3    H2 1789   1.060   0.694   3.239
  609TIP3   OH2 1790   3.670   2.788   5.707
  609TIP3    H1 1791   3.755   2.792   5.663
  609TIP3    H2 1792   3.625   2.867   5.679
  610TIP3   OH2 1793   1.394   4.361   5.497
  610TIP3    H1 1794   1.368   4.431   5.557
  610TIP3    H2 1795   1.339   4.373   5.420
  611TIP3   OH2 1796   5.822   3.722   3.646
  611TIP3    H1 1797   5.767   3.791   3.609
  611TIP3    H2 1798   5.819   3.652   3.582
  612TIP3   OH2 1799   6.774   2.961   4.147
  612TIP3    H1 1800   6.703   3.023   4.167
  612TIP3    H2 1801   6.844   3.016   4.113
  613TIP3   OH2 1802   5.899   0.114   1.371
  613TIP3    H1 1803   5.906   0.033   1.320
  613TIP3    H2 1804   5.976   0.112   1.428
  614TIP3   OH2 1805   2.717   1.683   2.610
  614TIP3    H1 1806   2.800   1.730   2.604
  614TIP3    H2 1807   2.650   1.751   2.605
  615TIP3   OH2 1808   4.940   4.371   0.361
  615TIP3    H1 1809   4.995   4.405   0.431
  615TIP3    H2 1810   4.873   4.438   0.348
  616TIP3   OH2 1811   1.681   2.641   3.714
  616TIP3    H1 1812   1.740   2.685   3.652
  616TIP3    H2 1813   1.714   2.666   3.800
  617TIP3   OH2 1814   2.896   5.076   1.136
  617TIP3    H1 1815   2.820   5.133   1.151
  617TIP3    H2 1816   2.858   4.992   1.109
  618TIP3   OH2 1817   1.580   6.306   5.343
  618TIP3    H1 1818   1.547   6.292   5.254
  618TIP3    H2 1819   1.647   6.239   5.354
  619TIP3   OH2 1820   3.537   3.560   1.978
  619TIP3    H1 1821   3.625   3.570   2.016
  619TIP3    H2 1822   3.536   3.621   1.904
  620TIP3   OH2 1823   6.180   3.594   4.386
  620TIP3    H1 1824   6.188   3.506   4.424
  620TIP3    H2 1825   6.101   3.589   4.332
  621TIP3   OH2 1826   6.606   1.270   5.797
  621TIP3    H1 1827   6.563   1.326   5.862
  621TIP3    H2 1828   6.537   1.210   5.768
  622TIP3   OH2 1829   1.904   2.118   0.194
  622TIP3    H1 1830   1.826   2.073   0.227
  622TIP3    H2 1831   1.950   2.146   0.273
  623TIP3   OH2 1832   2.793   2.104   2.422
  623TIP3    H1 1833   2.716   2.075   2.469
  623TIP3    H2 1834   2.855   2.130   2.491
  624TIP3   OH2 1835   4.608   0.469   2.462
  624TIP3    H1 1836   4.531   0.428   2.422
  624TIP3    H2 1837   4.634   0.537   2.400
  625TIP3   OH2 1838   5.369   3.229   5.283
  625TIP3    H1 1839   5.381   3.196   5.194
  625TIP3    H2 1840   5.431   3.179   5.336
  626TIP3   OH2 1841   1.537   4.714   2.452
  626TIP3    H1 1842   1.593   4.732   2.527
  626TIP3    H2 1843   1.493   4.797   2.435
  627TIP3   OH2 1844   0.763   4.484   4.904
  627TIP3    H1 1845   0.813   4.471   4.824
  627TIP3    H2 1846   0.828   4.499   4.972
  628TIP3   OH2 1847   4.447   1.498   3.774
  628TIP3    H1 1848   4.408   1.498   3.861
  628TIP3    H2 1849   4.386   1.550   3.721
  629TIP3   OH2 1850   2.936   4.321   1.008
  629TIP3    H1 1851   2.975   4.246   1.051
  629TIP3    H2 1852   2.879   4.283   0.941
  630TIP3   OH2 1853   4.510   0.561   4.572
  630TIP3    H1 1854   4.470   0.564   4.485
  630TIP3    H2 1855   4.595   0.519   4.558
  631TIP3   OH2 1856   6.480   4.377   1.455
  631TIP3    H1 1857   6.533   4.419   1.522
  631TIP3    H2 1858   6.391   4.409   1.472
  632TIP3   OH2 1859   2.612   3.440   3.677
  632TIP3    H1 1860   2.705   3.444   3.655
  632TIP3    H2 1861   2.602   3.501   3.750
  633TIP3   OH2 1862   4.963   4.102   2.695
  633TIP3    H1 1863   4.880   4.104   2.647
  633TIP3    H2 1864   5.021   4.048   2.640
  634TIP3   OH2 1865   3.491   1.381   3.827
  634TIP3    H1 1866   3.516   1.471   3.805
  634TIP3    H2 1867   3.546   1.359   3.903
  635TIP3   OH2 1868   6.949   3.360   1.422
  635TIP3    H1 1869   6.894   3.283   1.409
  635TIP3    H2 1870   6.915   3.402   1.501
  636TIP3   OH2 1871   5.887   4.349   3.109
  636TIP3    H1 1872   5.822   4.399   3.060
  636TIP3    H2 1873   5.891   4.264   3.065
  637TIP3   OH2 1874   1.012   5.914   3.984
  637TIP3    H1 1875   1.008   5.910   4.079
  637TIP3    H2 1876   1.099   5.879   3.962
  638TIP3   OH2 1877   4.955   3.111   5.798
  638TIP3    H1 1878   4.904   3.137   5.875
  638TIP3    H2 1879   5.020   3.051   5.832
  639TIP3   OH2 1880   4.322   1.533   1.288
  639TIP3    H1 1881   4.363   1.589   1.222
  639TIP3    H2 1882   4.383   1.534   1.361
  640TIP3   OH2 1883   2.644   1.856   1.669
  640TIP3    H1 1884   2.657   1.787   1.604
  640TIP3    H2 1885   2.609   1.811   1.746
  641TIP3   OH2 1886   3.911   0.395   1.395
  641TIP3    H1 1887   3.981   0.336   1.369
  641TIP3    H2 1888   3.956   0.469   1.436
  642TIP3   OH2 1889   5.396   1.889   2.843
  642TIP3    H1 1890   5.458   1.832   2.888
  642TIP3    H2 1891   5.420   1.978   2.870
  643TIP3   OH2 1892   7.007   1.995   1.767
  643TIP3    H1 1893   7.095   2.027   1.788
  643TIP3    H2 1894   6.950   2.070   1.784
  644TIP3   OH2 1895   6.490   0.109   1.495
  644TIP3    H1 1896   6.421   0.071   1.440
  644TIP3    H2 1897   6.481   0.203   1.484
  645TIP3   OH2 1898   1.060   5.544   4.978
  645TIP3    H1 1899   1.142   5.538   5.027
  645TIP3    H2 1900   1.083   5.520   4.888
  646TIP3   OH2 1901   2.423   2.955   0.840
  646TIP3    H1 1902   2.372   3.006   0.777
  646TIP3    H2 1903   2.363   2.941   0.914
  647TIP3   OH2 1904   3.642   5.040   0.768
  647TIP3    H1 1905   3.648   4.948   0.743
  647TIP3    H2 1906   3.675   5.042   0.858
  648TIP3   OH2 1907   1.084   0.609   4.588
  648TIP3    H1 1908   1.124   0.606   4.675
  648TIP3    H2 1909   1.027   0.531   4.586
  649TIP3   OH2 1910   3.631   3.730   4.002
  649TIP3    H1 1911   3.615   3.641   4.035
  649TIP3    H2 1912   3.670   3.776   4.076
  650TIP3   OH2 1913   7.006   0.230   4.756
  650TIP3    H1 1914   6.930   0.276   4.719
  650TIP3    H2 1915   6.977   0.140   4.767
  651TIP3   OH2 1916   4.726   4.198   3.634
  651TIP3    H1 1917   4.802   4.179   3.579
  651TIP3    H2 1918   4.737   4.141   3.710
  652TIP3   OH2 1919   0.084   5.297   0.172
  652TIP3    H1 1920   0.007   5.259   0.130
  652TIP3    H2 1921   0.062   5.389   0.185
  653TIP3   OH2 1922   6.460   5.134   2.792
  653TIP3    H1 1923   6.509   5.057   2.821
  653TIP3    H2 1924   6.452   5.189   2.870
  654TIP3   OH2 1925   1.031   4.710   3.360
  654TIP3    H1 1926   1.122   4.721   3.387
  654TIP3    H2 1927   1.000   4.633   3.409
  655TIP3   OH2 1928   7.250   6.475   0.840
  655TIP3    H1 1929   7.336   6.439   0.816
  655TIP3    H2 1930   7.197   6.398   0.858
  656TIP3   OH2 1931   5.887   2.980   2.115
  656TIP3    H1 1932   5.869   2.919   2.044
  656TIP3    H2 1933   5.916   2.925   2.188
  657TIP3   OH2 1934   2.538   5.464   0.480
  657TIP3    H1 1935   2.543   5.557   0.458
  657TIP3    H2 1936   2.605   5.423   0.425
  658TIP3   OH2 1937   5.281   4.385   1.191
  658TIP3    H1 1938   5.361   4.419   1.229
  658TIP3    H2 1939   5.246   4.326   1.258
  659TIP3   OH2 1940   2.733   6.819   1.432
  659TIP3    H1 1941   2.807   6.789   1.379
  659TIP3    H2 1942   2.764   6.809   1.523
  660TIP3   OH2 1943   1.439   5.130   2.207
  660TIP3    H1 1944   1.468   5.207   2.255
  660TIP3    H2 1945   1.518   5.094   2.167
  661TIP3   OH2 1946   1.169   3.221   1.185
  661TIP3    H1 1947   1.196   3.229   1.276
  661TIP3    H2 1948   1.248   3.192   1.139
  662TIP3   OH2 1949   3.768   6.276   3.130
  662TIP3    H1 1950   3.801   6.250   3.216
  662TIP3    H2 1951   3.847   6.297   3.079
  663TIP3   OH2 1952   0.721   3.781   4.674
  663TIP3    H1 1953   0.712   3.847   4.606
  663TIP3    H2 1954   0.764   3.707   4.630
  664TIP3   OH2 1955   4.774   0.468   5.205
  664TIP3    H1 1956   4.776   0.408   5.280
  664TIP3    H2 1957   4.836   0.430   5.143
  665TIP3   OH2 1958   6.571   3.262   1.740
  665TIP3    H1 1959   6.539   3.348   1.714
  665TIP3    H2 1960   6.537   3.203   1.672
  666TIP3   OH2 1961   5.409   4.257   3.919
  666TIP3    H1 1962   5.317   4.278   3.905
  666TIP3    H2 1963   5.450   4.270   3.834
  667TIP3   OH2 1964   2.928   0.183   2.961
  667TIP3    H1 1965   2.868   0.108   2.963
  667TIP3    H2 1966   2.905   0.234   3.039
  668TIP3   OH2 1967  -0.007   1.014   1.082
  668TIP3    H1 1968  -0.025   0.992   1.174
  668TIP3    H2 1969   0.046   0.941   1.050
  669TIP3   OH2 1970   2.013   0.269   1.381
  669TIP3    H1 1971   1.940   0.274   1.443
  669TIP3    H2 1972   2.063   0.192   1.409
  670TIP3   OH2 1973   0.596   4.966   3.179
  670TIP3    H1 1974   0.682   4.998   3.205
  670TIP3    H2 1975   0.612   4.913   3.101
  671TIP3   OH2 1976   6.645   5.759   5.368
  671TIP3    H1 1977   6.551   5.748   5.385
  671TIP3    H2 1978   6.686   5.686   5.416
  672TIP3   OH2 1979   2.860   2.506   4.648
  672TIP3    H1 1980   2.884   2.590   4.609
  672TIP3    H2 1981   2.808   2.529   4.725
  673TIP3   OH2 1982   5.641   2.567   2.124
  673TIP3    H1 1983   5.553   2.604   2.128
  673TIP3    H2 1984   5.669   2.562   2.216
  674TIP3   OH2 1985   5.754   3.497   4.963
  674TIP3    H1 1986   5.743   3.402   4.957
  674TIP3    H2 1987   5.704   3.532   4.890
  675TIP3   OH2 1988   2.049   1.097   3.737
  675TIP3    H1 1989   2.141   1.079   3.715
  675TIP3    H2 1990   2.005   1.013   3.726
  676TIP3   OH2 1991   5.766   2.646   0.265
  676TIP3    H1 1992   5.681   2.626   0.305
  676TIP3    H2 1993   5.746   2.663   0.173
  677TIP3   OH2 1994   1.971   5.426   4.255
  677TIP3    H1 1995   2.006   5.361   4.194
  677TIP3    H2 1996   2.033   5.427   4.327
  678TIP3   OH2 1997   7.101   5.273   2.761
  678TIP3    H1 1998   7.071   5.225   2.683
  678TIP3    H2 1999   7.106   5.207   2.830
  679TIP3   OH2 2000   2.766   5.722   4.683
  679TIP3    H1 2001   2.731   5.647   4.731
  679TIP3    H2 2002   2.859   5.725   4.706
  680TIP3   OH2 2003   0.319   5.759   5.182
  680TIP3    H1 2004   0.401   5.727   5.220
  680TIP3    H2 2005   0.285   5.685   5.131
  681TIP3   OH2 2006   2.222   2.377   2.984
  681TIP3    H1 2007   2.157   2.392   2.915
  681TIP3    H2 2008   2.294   2.435   2.961
  682TIP3   OH2 2009   4.173   6.195   1.562
  682TIP3    H1 2010   4.104   6.128   1.568
  682TIP3    H2 2011   4.179   6.230   1.651
  683TIP3   OH2 2012   4.773   0.197   4.983
  683TIP3    H1 2013   4.780   0.259   4.911
  683TIP3    H2 2014   4.859   0.199   5.025
  684TIP3   OH2 2015   4.993   0.987  -0.001
  684TIP3    H1 2016   4.909   1.016   0.036
  684TIP3    H2 2017   4.973   0.902  -0.041
  685TIP3   OH2 2018   2.839   4.082   2.074
  685TIP3    H1 2019   2.874   4.140   2.143
  685TIP3    H2 2020   2.749   4.111   2.062
  686TIP3   OH2 2021   0.410   2.375   0.291
  686TIP3    H1 2022   0.483   2.331   0.246
  686TIP3    H2 2023   0.390   2.451   0.236
  687TIP3   OH2 2024   2.323   0.165   5.012
  687TIP3    H1 2025   2.262   0.108   4.965
  687TIP3    H2 2026   2.270   0.210   5.076
  688TIP3   OH2 2027   1.778   6.351   2.836
  688TIP3    H1 2028   1.832   6.273   2.822
  688TIP3    H2 2029   1.833   6.424   2.807
  689TIP3   OH2 2030   0.343   2.620   0.804
  689TIP3    H1 2031   0.403   2.686   0.767
  689TIP3    H2 2032   0.257   2.662   0.800
  690TIP3   OH2 2033   2.948   2.032   3.635
  690TIP3    H1 2034   2.918   2.101   3.576
  690TIP3    H2 2035   3.002   1.975   3.581
  691TIP3   OH2 2036   4.917   5.340   5.154
  691TIP3    H1 2037   5.007   5.345   5.186
  691TIP3    H2 2038   4.878   5.269   5.204
  692TIP3   OH2 2039   6.429   2.070   4.455
  692TIP3    H1 2040   6.373   2.120   4.395
  692TIP3    H2 2041   6.487   2.136   4.493
  693TIP3   OH2 2042   1.793   4.398   2.649
  693TIP3    H1 2043   1.711   4.389   2.601
  693TIP3    H2 2044   1.837   4.473   2.608
  694TIP3   OH2 2045   5.550   0.055   3.233
  694TIP3    H1 2046   5.458   0.079   3.244
  694TIP3    H2 2047   5.550  -0.004   3.158
  695TIP3   OH2 2048   3.951   4.812   0.137
  695TIP3    H1 2049   3.866   4.849   0.160
  695TIP3    H2 2050   4.015   4.878   0.164
  696TIP3   OH2 2051   5.993   4.154   4.893
  696TIP3    H1 2052   6.035   4.081   4.939
  696TIP3    H2 2053   5.931   4.190   4.957
  697TIP3   OH2 2054   0.352   2.827   4.016
  697TIP3    H1 2055   0.397   2.899   4.060
  697TIP3    H2 2056   0.313   2.776   4.087
  698TIP3   OH2 2057   5.123   2.428   4.480
  698TIP3    H1 2058   5.204   2.381   4.457
  698TIP3    H2 2059   5.077   2.368   4.538
  699TIP3   OH2 2060   5.492   6.086   4.955
  699TIP3    H1 2061   5.507   6.028   4.880
  699TIP3    H2 2062   5.439   6.034   5.015
  700TIP3   OH2 2063   4.843   3.732   2.583
  700TIP3    H1 2064   4.762   3.739   2.632
  700TIP3    H2 2065   4.824   3.770   2.498
  701TIP3   OH2 2066   3.425   6.020   4.887
  701TIP3    H1 2067   3.467   6.092   4.841
  701TIP3    H2 2068   3.410   5.954   4.820
  702TIP3   OH2 2069   2.410   6.344   3.031
  702TIP3    H1 2070   2.487   6.325   2.977
  702TIP3    H2 2071   2.445   6.392   3.106
  703TIP3   OH2 2072   2.772   2.490   1.282
  703TIP3    H1 2073   2.841   2.557   1.281
  703TIP3    H2 2074   2.691   2.539   1.292
  704TIP3   OH2 2075   2.983   5.938   1.825
  704TIP3    H1 2076   2.933   6.012   1.791
  704TIP3    H2 2077   2.917   5.881   1.865
  705TIP3   OH2 2078   6.810   3.037   1.618
  705TIP3    H1 2079   6.797   3.092   1.541
  705TIP3    H2 2080   6.723   3.026   1.655
  706TIP3   OH2 2081   4.052   3.029   0.505
  706TIP3    H1 2082   3.964   3.045   0.470
  706TIP3    H2 2083   4.103   3.004   0.428
  707TIP3   OH2 2084   7.012   3.331   2.419
  707TIP3    H1 2085   6.992   3.247   2.460
  707TIP3    H2 2086   6.928   3.360   2.382
  708TIP3   OH2 2087   0.196   0.299   0.816
  708TIP3    H1 2088   0.201   0.393   0.836
  708TIP3    H2 2089   0.147   0.261   0.888
  709TIP3   OH2 2090   3.450   3.871   0.491
  709TIP3    H1 2091   3.479   3.865   0.583
  709TIP3    H2 2092   3.509   3.935   0.452
  710TIP3   OH2 2093   7.016   0.531   4.626
  710TIP3    H1 2094   7.041   0.532   4.534
  710TIP3    H2 2095   7.010   0.439   4.649
  711TIP3   OH2 2096   7.216  -0.036  -0.064
  711TIP3    H1 2097   7.193  -0.019   0.027
  711TIP3    H2 2098   7.251   0.047  -0.096
  712TIP3   OH2 2099   1.448   1.927   3.891
  712TIP3    H1 2100   1.417   1.915   3.980
  712TIP3    H2 2101   1.398   1.864   3.839
  713TIP3   OH2 2102   2.192   0.297   4.098
  713TIP3    H1 2103   2.236   0.378   4.125
  713TIP3    H2 2104   2.148   0.266   4.178
  714TIP3   OH2 2105   5.455   0.453   0.665
  714TIP3    H1 2106   5.522   0.422   0.604
  714TIP3    H2 2107   5.443   0.545   0.642
  715TIP3   OH2 2108   1.047   4.148   3.961
  715TIP3    H1 2109   1.059   4.072   3.903
  715TIP3    H2 2110   0.972   4.124   4.015
  716TIP3   OH2 2111   1.225   1.774   2.250
  716TIP3    H1 2112   1.174   1.694   2.236
  716TIP3    H2 2113   1.272   1.786   2.167
  717TIP3   OH2 2114   3.504   5.867   1.831
  717TIP3    H1 2115   3.532   5.857   1.922
  717TIP3    H2 2116   3.445   5.941   1.832
  718TIP3   OH2 2117   6.418   0.020   2.967
  718TIP3    H1 2118   6.433  -0.073   2.984
  718TIP3    H2 2119   6.330   0.036   3.001
  719TIP3   OH2 2120   0.110   1.179   4.426
  719TIP3    H1 2121   0.128   1.255   4.482
  719TIP3    H2 2122   0.177   1.115   4.452
  720TIP3   OH2 2123   2.091   3.656   2.760
  720TIP3    H1 2124   2.040   3.694   2.688
  720TIP3    H2 2125   2.104   3.564   2.735
  721TIP3   OH2 2126   6.605   3.741   1.553
  721TIP3    H1 2127   6.656   3.777   1.626
  721TIP3    H2 2128   6.554   3.670   1.592
  722TIP3   OH2 2129   3.775   4.626   4.999
  722TIP3    H1 2130   3.783   4.548   5.054
  722TIP3    H2 2131   3.774   4.592   4.910
  723TIP3   OH2 2132   4.221   2.061   0.858
  723TIP3    H1 2133   4.149   1.999   0.846
  723TIP3    H2 2134   4.250   2.047   0.948
  724TIP3   OH2 2135   4.224   3.920   0.708
  724TIP3    H1 2136   4.172   3.898   0.785
  724TIP3    H2 2137   4.234   4.016   0.712
  725TIP3   OH2 2138   4.241   0.537   5.868
  725TIP3    H1 2139   4.252   0.628   5.840
  725TIP3    H2 2140   4.293   0.486   5.807
  726TIP3   OH2 2141   4.663   2.584   4.911
  726TIP3    H1 2142   4.575   2.620   4.902
  726TIP3    H2 2143   4.696   2.579   4.821
  727TIP3   OH2 2144   1.866   5.231   1.018
  727TIP3    H1 2145   1.900   5.253   1.104
  727TIP3    H2 2146   1.844   5.315   0.978
  728TIP3   OH2 2147   6.160   6.204   3.175
  728TIP3    H1 2148   6.220   6.258   3.226
  728TIP3    H2 2149   6.079   6.254   3.173
  729TIP3   OH2 2150   5.508   4.160   3.431
  729TIP3    H1 2151   5.603   4.156   3.422
  729TIP3    H2 2152   5.474   4.116   3.353
  730TIP3   OH2 2153   1.242   0.595   2.368
  730TIP3    H1 2154   1.173   0.561   2.311
  730TIP3    H2 2155   1.314   0.533   2.358
  731TIP3   OH2 2156   3.590   2.255   4.748
  731TIP3    H1 2157   3.621   2.279   4.661
  731TIP3    H2 2158   3.652   2.189   4.778
  732TIP3   OH2 2159   1.243   1.667   3.618
  732TIP3    H1 2160   1.203   1.581   3.628
  732TIP3    H2 2161   1.186   1.726   3.667
  733TIP3   OH2 2162   6.199   1.029   4.874
  733TIP3    H1 2163   6.290   1.053   4.852
  733TIP3    H2 2164   6.154   1.112   4.884
  734TIP3   OH2 2165   5.556   3.028   4.324
  734TIP3    H1 2166   5.532   3.106   4.274
  734TIP3    H2 2167   5.498   3.029   4.400
  735TIP3   OH2 2168   5.057   3.085   4.721
  735TIP3    H1 2169   4.981   3.102   4.776
  735TIP3    H2 2170   5.083   2.995   4.743
  736TIP3   OH2 2171   3.353   0.827   4.523
  736TIP3    H1 2172   3.290   0.764   4.559
  736TIP3    H2 2173   3.405   0.854   4.599
  737TIP3   OH2 2174   3.794   1.717   1.804
  737TIP3    H1 2175   3.876   1.764   1.786
  737TIP3    H2 2176   3.737   1.741   1.731
  738TIP3   OH2 2177   6.438   0.210   2.781
  738TIP3    H1 2178   6.431   0.126   2.826
  738TIP3    H2 2179   6.455   0.187   2.689
  739TIP3   OH2 2180   3.244   3.047   2.331
  739TIP3    H1 2181   3.208   3.052   2.419
  739TIP3    H2 2182   3.240   2.954   2.309
  740TIP3   OH2 2183   0.709   6.755   0.322
  740TIP3    H1 2184   0.752   6.772   0.237
  740TIP3    H2 2185   0.651   6.831   0.334
  741TIP3   OH2 2186   1.212   0.163   2.891
  741TIP3    H1 2187   1.282   0.191   2.832
  741TIP3    H2 2188   1.252   0.164   2.978
  742TIP3   OH2 2189   5.056   4.117   2.337
  742TIP3    H1 2190   5.056   4.043   2.399
  742TIP3    H2 2191   4.975   4.105   2.287
  743TIP3   OH2 2192   5.167   0.940   4.657
  743TIP3    H1 2193   5.195   0.932   4.748
  743TIP3    H2 2194   5.077   0.906   4.657
  744TIP3   OH2 2195   6.453   5.334   1.609
  744TIP3    H1 2196   6.494   5.249   1.597
  744TIP3    H2 2197   6.526   5.396   1.617
  745TIP3   OH2 2198   1.923   1.111   0.781
  745TIP3    H1 2199   1.909   1.134   0.873
  745TIP3    H2 2200   2.009   1.148   0.760
  746TIP3   OH2 2201   0.174   3.298   4.364
  746TIP3    H1 2202   0.237   3.231   4.393
  746TIP3    H2 2203   0.163   3.282   4.270
  747TIP3   OH2 2204   1.777   3.582   4.928
  747TIP3    H1 2205   1.868   3.597   4.902
  747TIP3    H2 2206   1.772   3.488   4.947
  748TIP3   OH2 2207   3.828   2.567   1.695
  748TIP3    H1 2208   3.881   2.487   1.690
  748TIP3    H2 2209   3.778   2.567   1.614
  749TIP3   OH2 2210   5.735   0.737   3.669
  749TIP3    H1 2211   5.811   0.784   3.635
  749TIP3    H2 2212   5.769   0.687   3.743
  750TIP3   OH2 2213   1.955   4.326   2.145
  750TIP3    H1 2214   1.997   4.273   2.212
  750TIP3    H2 2215   1.862   4.302   2.149
  751TIP3   OH2 2216   4.510   6.035   1.960
  751TIP3    H1 2217   4.582   6.000   2.011
  751TIP3    H2 2218   4.529   6.010   1.870
  752TIP3   OH2 2219   0.838   4.122   1.943
  752TIP3    H1 2220   0.818   4.054   1.879
  752TIP3    H2 2221   0.874   4.194   1.891
  753TIP3   OH2 2222   7.181   4.132   0.944
  753TIP3    H1 2223   7.249   4.106   1.006
  753TIP3    H2 2224   7.106   4.076   0.965
  754TIP3   OH2 2225   5.874   4.488   4.602
  754TIP3    H1 2226   5.789   4.459   4.568
  754TIP3    H2 2227   5.855   4.520   4.690
  755TIP3   OH2 2228   4.970   0.892   1.596
  755TIP3    H1 2229   4.937   0.805   1.617
  755TIP3    H2 2230   4.917   0.951   1.650
  756TIP3   OH2 2231   2.422   6.485   2.156
  756TIP3    H1 2232   2.361   6.419   2.124
  756TIP3    H2 2233   2.462   6.521   2.077
  757TIP3   OH2 2234   0.399   4.518   2.732
  757TIP3    H1 2235   0.346   4.591   2.762
  757TIP3    H2 2236   0.441   4.485   2.812
  758TIP3   OH2 2237   4.500   2.166   3.053
  758TIP3    H1 2238   4.594   2.153   3.057
  758TIP3    H2 2239   4.480   2.169   2.959
  759TIP3   OH2 2240   6.426   2.339   3.596
  759TIP3    H1 2241   6.453   2.412   3.541
  759TIP3    H2 2242   6.368   2.378   3.661
  760TIP3   OH2 2243   6.051   5.136   2.896
  760TIP3    H1 2244   6.015   5.072   2.958
  760TIP3    H2 2245   6.066   5.214   2.949
  761TIP3   OH2 2246   3.316   6.721   4.138
  761TIP3    H1 2247   3.364   6.749   4.061
  761TIP3    H2 2248   3.259   6.651   4.107
  762TIP3   OH2 2249   0.550   6.737   1.573
  762TIP3    H1 2250   0.557   6.688   1.491
  762TIP3    H2 2251   0.472   6.701   1.615
  763TIP3   OH2 2252   4.107   4.571   4.380
  763TIP3    H1 2253   4.149   4.498   4.335
  763TIP3    H2 2254   4.019   4.575   4.343
  764TIP3   OH2 2255   6.551   3.435   1.407
  764TIP3    H1 2256   6.637   3.475   1.419
  764TIP3    H2 2257   6.492   3.507   1.387
  765TIP3   OH2 2258   2.560   3.174   1.653
  765TIP3    H1 2259   2.605   3.242   1.702
  765TIP3    H2 2260   2.499   3.221   1.596
  766TIP3   OH2 2261   4.535   4.683   1.296
  766TIP3    H1 2262   4.534   4.770   1.257
  766TIP3    H2 2263   4.627   4.666   1.315
  767TIP3   OH2 2264   0.672   2.601   2.670
  767TIP3    H1 2265   0.684   2.548   2.749
  767TIP3    H2 2266   0.578   2.595   2.652
  768TIP3   OH2 2267   4.303   6.290   1.340
  768TIP3    H1 2268   4.244   6.247   1.278
  768TIP3    H2 2269   4.270   6.264   1.426
  769TIP3   OH2 2270   6.842   0.220   0.992
  769TIP3    H1 2271   6.835   0.277   0.915
  769TIP3    H2 2272   6.778   0.255   1.054
  770TIP3   OH2 2273   0.827   5.316   5.113
  770TIP3    H1 2274   0.735   5.291   5.119
  770TIP3    H2 2275   0.866   5.252   5.053
  771TIP3   OH2 2276   2.125   2.117   3.843
  771TIP3    H1 2277   2.199   2.103   3.901
  771TIP3    H2 2278   2.155   2.086   3.757
  772TIP3   OH2 2279   0.732   2.013   4.312
  772TIP3    H1 2280   0.663   1.960   4.353
  772TIP3    H2 2281   0.740   1.978   4.223
  773TIP3   OH2 2282   5.226   0.847   3.894
  773TIP3    H1 2283   5.300   0.888   3.848
  773TIP3    H2 2284   5.259   0.761   3.921
  774TIP3   OH2 2285   1.005   4.139   5.834
  774TIP3    H1 2286   1.024   4.223   5.793
  774TIP3    H2 2287   0.992   4.078   5.761
  775TIP3   OH2 2288   5.591   4.457   0.047
  775TIP3    H1 2289   5.545   4.378   0.017
  775TIP3    H2 2290   5.567   4.465   0.139
  776TIP3   OH2 2291   2.152   4.724   5.530
  776TIP3    H1 2292   2.178   4.796   5.473
  776TIP3    H2 2293   2.235   4.685   5.559
  777TIP3   OH2 2294   0.529   1.204   5.459
  777TIP3    H1 2295   0.566   1.245   5.381
  777TIP3    H2 2296   0.439   1.235   5.462
  778TIP3   OH2 2297   2.267   2.740   1.198
  778TIP3    H1 2298   2.247   2.676   1.130
  778TIP3    H2 2299   2.357   2.719   1.224
  779TIP3   OH2 2300   2.729   1.183   0.470
  779TIP3    H1 2301   2.757   1.275   0.468
  779TIP3    H2 2302   2.638   1.185   0.441
  780TIP3   OH2 2303   4.380   1.840   3.005
  780TIP3    H1 2304   4.456   1.810   2.956
  780TIP3    H2 2305   4.310   1.844   2.941
  781TIP3   OH2 2306   1.246   1.058   1.365
  781TIP3    H1 2307   1.192   1.092   1.436
  781TIP3    H2 2308   1.196   1.076   1.286
  782TIP3   OH2 2309   2.297   5.864   5.666
  782TIP3    H1 2310   2.244   5.855   5.745
  782TIP3    H2 2311   2.372   5.917   5.693
  783TIP3   OH2 2312   3.653   4.172   4.641
  783TIP3    H1 2313   3.692   4.185   4.555
  783TIP3    H2 2314   3.584   4.106   4.627
  784TIP3   OH2 2315   0.952   4.447   2.411
  784TIP3    H1 2316   1.003   4.440   2.331
  784TIP3    H2 2317   0.945   4.357   2.443
  785TIP3   OH2 2318   4.748   6.380   2.957
  785TIP3    H1 2319   4.812   6.419   3.017
  785TIP3    H2 2320   4.672   6.437   2.964
  786TIP3   OH2 2321   3.076   4.831   0.469
  786TIP3    H1 2322   3.057   4.803   0.559
  786TIP3    H2 2323   3.145   4.771   0.439
  787TIP3   OH2 2324   6.388   4.547   2.471
  787TIP3    H1 2325   6.477   4.547   2.436
  787TIP3    H2 2326   6.388   4.614   2.539
  788TIP3   OH2 2327   1.555   2.003   5.811
  788TIP3    H1 2328   1.461   2.013   5.829
  788TIP3    H2 2329   1.565   2.031   5.720
  789TIP3   OH2 2330   5.288   4.240   1.542
  789TIP3    H1 2331   5.311   4.162   1.592
  789TIP3    H2 2332   5.349   4.307   1.572
  790TIP3   OH2 2333   1.696   6.551   2.991
  790TIP3    H1 2334   1.703   6.534   3.085
  790TIP3    H2 2335   1.710   6.466   2.950
  791TIP3   OH2 2336   6.857   6.165   4.850
  791TIP3    H1 2337   6.927   6.151   4.914
  791TIP3    H2 2338   6.828   6.077   4.826
  792TIP3   OH2 2339   3.879   3.691   2.300
  792TIP3    H1 2340   3.862   3.635   2.224
  792TIP3    H2 2341   3.808   3.670   2.361
  793TIP3   OH2 2342   3.748   5.510   3.317
  793TIP3    H1 2343   3.766   5.499   3.410
  793TIP3    H2 2344   3.675   5.571   3.313
  794TIP3   OH2 2345   5.556   5.054   0.852
  794TIP3    H1 2346   5.553   5.088   0.762
  794TIP3    H2 2347   5.464   5.052   0.880
  795TIP3   OH2 2348   2.644   3.128  -0.021
  795TIP3    H1 2349   2.555   3.163  -0.008
  795TIP3    H2 2350   2.696   3.168   0.049
  796TIP3   OH2 2351   3.819   1.276   3.601
  796TIP3    H1 2352   3.763   1.348   3.572
  796TIP3    H2 2353   3.870   1.313   3.674
  797TIP3   OH2 2354   2.165   4.078   2.084
  797TIP3    H1 2355   2.091   4.083   2.145
  797TIP3    H2 2356   2.177   3.984   2.068
  798TIP3   OH2 2357   0.075   1.101   1.470
  798TIP3    H1 2358   0.111   1.048   1.541
  798TIP3    H2 2359   0.132   1.177   1.466
  799TIP3   OH2 2360   6.882   0.520   2.845
  799TIP3    H1 2361   6.815   0.473   2.795
  799TIP3    H2 2362   6.879   0.479   2.932
  800TIP3   OH2 2363   5.549   0.629   0.067
  800TIP3    H1 2364   5.454   0.628   0.077
  800TIP3    H2 2365   5.579   0.698   0.127
  801TIP3   OH2 2366   6.502   0.070   0.681
  801TIP3    H1 2367   6.517  -0.007   0.735
  801TIP3    H2 2368   6.532   0.044   0.594
  802TIP3   OH2 2369   5.330   4.814   1.033
  802TIP3    H1 2370   5.284   4.859   0.962
  802TIP3    H2 2371   5.416   4.795   0.997
  803TIP3   OH2 2372   1.259   0.936   0.747
  803TIP3    H1 2373   1.306   0.865   0.705
  803TIP3    H2 2374   1.197   0.893   0.806
  804TIP3   OH2 2375   6.150   5.627   4.064
  804TIP3    H1 2376   6.146   5.611   3.970
  804TIP3    H2 2377   6.243   5.623   4.085
  805TIP3   OH2 2378   5.171   1.457   1.524
  805TIP3    H1 2379   5.204   1.545   1.506
  805TIP3    H2 2380   5.141   1.425   1.439
  806TIP3   OH2 2381   7.154   6.563   3.964
  806TIP3    H1 2382   7.086   6.626   3.940
  806TIP3    H2 2383   7.111   6.477   3.956
  807TIP3   OH2 2384   5.324   3.507   5.301
  807TIP3    H1 2385   5.328   3.412   5.287
  807TIP3    H2 2386   5.241   3.520   5.347
  808TIP3   OH2 2387   2.871   1.858   5.554
  808TIP3    H1 2388   2.892   1.930   5.614
  808TIP3    H2 2389   2.930   1.870   5.479
  809TIP3   OH2 2390   0.188   1.991   5.288
  809TIP3    H1 2391   0.280   1.979   5.310
  809TIP3    H2 2392   0.167   2.079   5.318
  810TIP3   OH2 2393   3.984   5.183   4.507
  810TIP3    H1 2394   3.930   5.176   4.429
  810TIP3    H2 2395   3.926   5.159   4.579
  811TIP3   OH2 2396   6.416   0.565   4.258
  811TIP3    H1 2397   6.494   0.597   4.303
  811TIP3    H2 2398   6.434   0.473   4.239
  812TIP3   OH2 2399   5.237   3.068   3.472
  812TIP3    H1 2400   5.184   2.997   3.437
  812TIP3    H2 2401   5.327   3.040   3.456
  813TIP3   OH2 2402   6.825   0.867   2.395
  813TIP3    H1 2403   6.783   0.885   2.479
  813TIP3    H2 2404   6.816   0.948   2.345
  814TIP3   OH2 2405   0.440   0.149   4.794
  814TIP3    H1 2406   0.480   0.094   4.726
  814TIP3    H2 2407   0.433   0.235   4.754
  815TIP3   OH2 2408   4.900   1.800   3.187
  815TIP3    H1 2409   4.841   1.739   3.232
  815TIP3    H2 2410   4.868   1.801   3.097
  816TIP3   OH2 2411   6.356   6.085   3.042
  816TIP3    H1 2412   6.281   6.100   3.098
  816TIP3    H2 2413   6.432   6.094   3.100
  817TIP3   OH2 2414   4.790   3.280   3.200
  817TIP3    H1 2415   4.750   3.330   3.271
  817TIP3    H2 2416   4.861   3.232   3.242
  818TIP3   OH2 2417   5.830   1.323   1.324
  818TIP3    H1 2418   5.891   1.389   1.357
  818TIP3    H2 2419   5.818   1.346   1.232
  819TIP3   OH2 2420   1.711   6.729   3.994
  819TIP3    H1 2421   1.796   6.700   4.027
  819TIP3    H2 2422   1.698   6.814   4.034
  820TIP3   OH2 2423   6.152   0.788   4.983
  820TIP3    H1 2424   6.160   0.865   4.927
  820TIP3    H2 2425   6.068   0.749   4.958
  821TIP3   OH2 2426   7.043   1.383   0.341
  821TIP3    H1 2427   7.121   1.435   0.359
  821TIP3    H2 2428   6.970   1.445   0.347
  822TIP3   OH2 2429   3.272   0.569   1.701
  822TIP3    H1 2430   3.293   0.495   1.757
  822TIP3    H2 2431   3.270   0.533   1.613
  823TIP3   OH2 2432   6.459   4.288   1.885
  823TIP3    H1 2433   6.443   4.205   1.929
  823TIP3    H2 2434   6.530   4.329   1.934
  824TIP3   OH2 2435   3.510   2.056   3.056
  824TIP3    H1 2436   3.532   2.023   2.969
  824TIP3    H2 2437   3.513   1.979   3.113
  825TIP3   OH2 2438   0.633   1.589   0.233
  825TIP3    H1 2439   0.591   1.600   0.319
  825TIP3    H2 2440   0.704   1.528   0.249
  826TIP3   OH2 2441   4.587   3.109   3.986
  826TIP3    H1 2442   4.506   3.063   4.008
  826TIP3    H2 2443   4.561   3.173   3.920
  827TIP3   OH2 2444   2.707   3.095   1.399
  827TIP3    H1 2445   2.626   3.076   1.351
  827TIP3    H2 2446   2.677   3.139   1.479
  828TIP3   OH2 2447   2.469   1.688   2.314
  828TIP3    H1 2448   2.467   1.702   2.219
  828TIP3    H2 2449   2.421   1.763   2.350
  829TIP3   OH2 2450   4.768   4.418   1.006
  829TIP3    H1 2451   4.799   4.508   1.014
  829TIP3    H2 2452   4.784   4.379   1.092
  830TIP3   OH2 2453   6.158   3.704   3.915
  830TIP3    H1 2454   6.063   3.706   3.922
  830TIP3    H2 2455   6.189   3.693   4.005
  831TIP3   OH2 2456   0.477   3.419   2.997
  831TIP3    H1 2457   0.548   3.463   2.951
  831TIP3    H2 2458   0.491   3.326   2.979
  832TIP3   OH2 2459   3.527   5.373   5.402
  832TIP3    H1 2460   3.586   5.346   5.332
  832TIP3    H2 2461   3.468   5.436   5.361
  833TIP3   OH2 2462   1.968   1.190   3.180
  833TIP3    H1 2463   1.973   1.249   3.105
  833TIP3    H2 2464   1.976   1.103   3.142
  834TIP3   OH2 2465   3.130   1.293   2.505
  834TIP3    H1 2466   3.062   1.359   2.494
  834TIP3    H2 2467   3.212   1.343   2.502
  835TIP3   OH2 2468   4.431   0.590   4.315
  835TIP3    H1 2469   4.335   0.586   4.316
  835TIP3    H2 2470   4.452   0.660   4.254
  836TIP3   OH2 2471   1.142   6.222   4.057
  836TIP3    H1 2472   1.216   6.163   4.053
  836TIP3    H2 2473   1.173   6.303   4.016
  837TIP3   OH2 2474   0.605   2.654   4.635
  837TIP3    H1 2475   0.662   2.731   4.635
  837TIP3    H2 2476   0.658   2.585   4.595
  838TIP3   OH2 2477   1.854   6.742   1.620
  838TIP3    H1 2478   1.932   6.748   1.675
  838TIP3    H2 2479   1.848   6.650   1.596
  839TIP3   OH2 2480   1.707   3.843   5.870
  839TIP3    H1 2481   1.712   3.785   5.945
  839TIP3    H2 2482   1.786   3.823   5.819
  840TIP3   OH2 2483   4.496   0.482   3.296
  840TIP3    H1 2484   4.479   0.566   3.252
  840TIP3    H2 2485   4.567   0.502   3.357
  841TIP3   OH2 2486   2.163   2.537   2.215
  841TIP3    H1 2487   2.068   2.548   2.221
  841TIP3    H2 2488   2.184   2.472   2.282
  842TIP3   OH2 2489   7.208   3.424   2.786
  842TIP3    H1 2490   7.134   3.462   2.739
  842TIP3    H2 2491   7.258   3.499   2.819
  843TIP3   OH2 2492   3.702   5.877   5.506
  843TIP3    H1 2493   3.720   5.819   5.432
  843TIP3    H2 2494   3.692   5.819   5.581
  844TIP3   OH2 2495   2.627   0.978   1.066
  844TIP3    H1 2496   2.535   0.961   1.085
  844TIP3    H2 2497   2.667   0.891   1.058
  845TIP3   OH2 2498   5.182   0.461   4.402
  845TIP3    H1 2499   5.133   0.537   4.371
  845TIP3    H2 2500   5.196   0.478   4.496
  846TIP3   OH2 2501   6.810   0.891   0.531
  846TIP3    H1 2502   6.885   0.832   0.536
  846TIP3    H2 2503   6.740   0.838   0.495
  847TIP3   OH2 2504   0.977   2.604   2.799
  847TIP3    H1 2505   0.915   2.532   2.814
  847TIP3    H2 2506   0.956   2.634   2.710
  848TIP3   OH2 2507   5.179   3.660   1.474
  848TIP3    H1 2508   5.154   3.661   1.566
  848TIP3    H2 2509   5.274   3.649   1.475
  849TIP3   OH2 2510   2.679   4.650   5.765
  849TIP3    H1 2511   2.627   4.722   5.729
  849TIP3    H2 2512   2.615   4.590   5.803
  850TIP3   OH2 2513   3.281   4.964   5.400
  850TIP3    H1 2514   3.269   4.870   5.390
  850TIP3    H2 2515   3.258   4.983   5.491
  851TIP3   OH2 2516   6.391   2.147   4.086
  851TIP3    H1 2517   6.474   2.176   4.125
  851TIP3    H2 2518   6.385   2.055   4.110
  852TIP3   OH2 2519   1.810   6.364   5.137
  852TIP3    H1 2520   1.804   6.286   5.192
  852TIP3    H2 2521   1.858   6.335   5.059
  853TIP3   OH2 2522   0.902   2.938   0.154
  853TIP3    H1 2523   0.939   3.002   0.093
  853TIP3    H2 2524   0.849   2.880   0.098
  854TIP3   OH2 2525   1.948   0.168   2.966
  854TIP3    H1 2526   2.023   0.180   2.907
  854TIP3    H2 2527   1.874   0.205   2.918
  855TIP3   OH2 2528   6.578   0.360   1.067
  855TIP3    H1 2529   6.571   0.448   1.030
  855TIP3    H2 2530   6.544   0.368   1.156
  856TIP3   OH2 2531   5.675   6.448   5.347
  856TIP3    H1 2532   5.756   6.410   5.383
  856TIP3    H2 2533   5.690   6.452   5.253
  857TIP3   OH2 2534   1.687   3.529   0.557
  857TIP3    H1 2535   1.720   3.538   0.467
  857TIP3    H2 2536   1.742   3.460   0.595
  858TIP3   OH2 2537   6.078   2.796   5.289
  858TIP3    H1 2538   6.096   2.790   5.196
  858TIP3    H2 2539   6.123   2.875   5.318
  859TIP3   OH2 2540   0.384   0.927   1.746
  859TIP3    H1 2541   0.324   0.962   1.812
  859TIP3    H2 2542   0.438   1.002   1.720
  860TIP3   OH2 2543   2.964   1.418   4.485
  860TIP3    H1 2544   2.998   1.507   4.489
  860TIP3    H2 2545   3.041   1.362   4.496
  861TIP3   OH2 2546   4.259   0.463   1.325
  861TIP3    H1 2547   4.337   0.492   1.373
  861TIP3    H2 2548   4.188   0.473   1.388
  862TIP3   OH2 2549   5.209   2.680   1.246
  862TIP3    H1 2550   5.114   2.672   1.245
  862TIP3    H2 2551   5.231   2.695   1.338
  863TIP3   OH2 2552   3.256   5.895   0.957
  863TIP3    H1 2553   3.243   5.989   0.943
  863TIP3    H2 2554   3.243   5.856   0.871
  864TIP3   OH2 2555   4.162   2.779   5.318
  864TIP3    H1 2556   4.183   2.792   5.225
  864TIP3    H2 2557   4.183   2.864   5.358
  865TIP3   OH2 2558   5.391   3.079   4.522
  865TIP3    H1 2559   5.320   3.143   4.534
  865TIP3    H2 2560   5.463   3.114   4.574
  866TIP3   OH2 2561   2.620   4.319   1.097
  866TIP3    H1 2562   2.587   4.294   1.010
  866TIP3    H2 2563   2.696   4.263   1.111
  867TIP3   OH2 2564   2.153   6.372   1.686
  867TIP3    H1 2565   2.174   6.327   1.604
  867TIP3    H2 2566   2.236   6.377   1.733
  868TIP3   OH2 2567   3.055   2.951   1.997
  868TIP3    H1 2568   2.982   2.997   2.038
  868TIP3    H2 2569   3.022   2.863   1.978
  869TIP3   OH2 2570   0.842   0.237   2.503
  869TIP3    H1 2571   0.889   0.221   2.585
  869TIP3    H2 2572   0.822   0.150   2.469
  870TIP3   OH2 2573   0.345   3.716   0.100
  870TIP3    H1 2574   0.359   3.756   0.186
  870TIP3    H2 2575   0.376   3.781   0.037
  871TIP3   OH2 2576   5.387   2.246   4.099
  871TIP3    H1 2577   5.472   2.290   4.107
  871TIP3    H2 2578   5.402   2.159   4.136
  872TIP3   OH2 2579   0.566   3.808   5.118
  872TIP3    H1 2580   0.658   3.810   5.142
  872TIP3    H2 2581   0.554   3.725   5.074
  873TIP3   OH2 2582   5.740   3.409   5.562
  873TIP3    H1 2583   5.660   3.360   5.581
  873TIP3    H2 2584   5.708   3.491   5.523
  874TIP3   OH2 2585   1.427   5.360   5.824
  874TIP3    H1 2586   1.380   5.437   5.792
  874TIP3    H2 2587   1.419   5.296   5.754
  875TIP3   OH2 2588   6.947   4.608   3.129
  875TIP3    H1 2589   6.870   4.589   3.077
  875TIP3    H2 2590   6.952   4.704   3.132
  876TIP3   OH2 2591   1.779   2.416   1.058
  876TIP3    H1 2592   1.856   2.463   1.090
  876TIP3    H2 2593   1.717   2.485   1.035
  877TIP3   OH2 2594   3.456   5.316   1.017
  877TIP3    H1 2595   3.450   5.221   1.028
  877TIP3    H2 2596   3.387   5.337   0.955
  878TIP3   OH2 2597   3.831   5.487   3.590
  878TIP3    H1 2598   3.878   5.552   3.642
  878TIP3    H2 2599   3.756   5.462   3.645
  879TIP3   OH2 2600   4.024   6.670   2.547
  879TIP3    H1 2601   4.099   6.651   2.603
  879TIP3    H2 2602   4.062   6.697   2.463
  880TIP3   OH2 2603   0.523   3.356   5.387
  880TIP3    H1 2604   0.591   3.421   5.397
  880TIP3    H2 2605   0.459   3.397   5.329
  881TIP3   OH2 2606   1.014   0.600   3.428
  881TIP3    H1 2607   1.098   0.588   3.384
  881TIP3    H2 2608   1.030   0.672   3.490
  882TIP3   OH2 2609   5.299   6.377   5.062
  882TIP3    H1 2610   5.253   6.455   5.094
  882TIP3    H2 2611   5.339   6.406   4.980
  883TIP3   OH2 2612   0.661   6.443   1.603
  883TIP3    H1 2613   0.654   6.352   1.576
  883TIP3    H2 2614   0.662   6.493   1.522
  884TIP3   OH2 2615   3.569   2.583   4.503
  884TIP3    H1 2616   3.546   2.604   4.594
  884TIP3    H2 2617   3.566   2.667   4.458
  885TIP3   OH2 2618   6.356   2.767   5.735
  885TIP3    H1 2619   6.266   2.737   5.730
  885TIP3    H2 2620   6.397   2.732   5.656
  886TIP3   OH2 2621   0.466   6.297   2.405
  886TIP3    H1 2622   0.513   6.370   2.445
  886TIP3    H2 2623   0.531   6.228   2.396
  887TIP3   OH2 2624   5.412   6.107   2.354
  887TIP3    H1 2625   5.393   6.171   2.286
  887TIP3    H2 2626   5.361   6.030   2.330
  888TIP3   OH2 2627   3.555   4.655   1.555
  888TIP3    H1 2628   3.572   4.582   1.496
  888TIP3    H2 2629   3.546   4.731   1.497
  889TIP3   OH2 2630   6.782   3.147   1.370
  889TIP3    H1 2631   6.807   3.083   1.303
  889TIP3    H2 2632   6.700   3.185   1.339
  890TIP3   OH2 2633   2.082   3.290   0.839
  890TIP3    H1 2634   2.167   3.333   0.833
  890TIP3    H2 2635   2.081   3.251   0.927
  891TIP3   OH2 2636   1.064   4.333   1.908
  891TIP3    H1 2637   1.112   4.311   1.829
  891TIP3    H2 2638   1.128   4.325   1.979
  892TIP3   OH2 2639   6.738   3.590   2.939
  892TIP3    H1 2640   6.799   3.662   2.924
  892TIP3    H2 2641   6.663   3.631   2.982
  893TIP3   OH2 2642   3.015   4.184   5.418
  893TIP3    H1 2643   2.959   4.198   5.342
  893TIP3    H2 2644   2.958   4.143   5.483
  894TIP3   OH2 2645   4.608   1.027   1.077
  894TIP3    H1 2646   4.542   0.986   1.021
  894TIP3    H2 2647   4.557   1.074   1.143
  895TIP3   OH2 2648   6.957   3.082   0.250
  895TIP3    H1 2649   7.051   3.067   0.247
  895TIP3    H2 2650   6.924   3.040   0.170
  896TIP3   OH2 2651   6.660   2.510   1.751
  896TIP3    H1 2652   6.714   2.534   1.675
  896TIP3    H2 2653   6.717   2.525   1.826
  897TIP3   OH2 2654   3.655   4.304   1.702
  897TIP3    H1 2655   3.665   4.325   1.610
  897TIP3    H2 2656   3.617   4.383   1.741
  898TIP3   OH2 2657   0.305   0.653   4.541
  898TIP3    H1 2658   0.374   0.681   4.482
  898TIP3    H2 2659   0.337   0.678   4.628
  899TIP3   OH2 2660   7.159   1.908   5.200
  899TIP3    H1 2661   7.246   1.873   5.180
  899TIP3    H2 2662   7.142   1.877   5.290
  900TIP3   OH2 2663   5.292   4.020   4.540
  900TIP3    H1 2664   5.280   3.955   4.471
  900TIP3    H2 2665   5.209   4.021   4.588
  901TIP3   OH2 2666   0.548   0.900   4.482
  901TIP3    H1 2667   0.583   0.921   4.396
  901TIP3    H2 2668   0.625   0.874   4.534
  902TIP3   OH2 2669   1.051   0.964   2.034
  902TIP3    H1 2670   1.065   1.057   2.052
  902TIP3    H2 2671   1.123   0.920   2.079
  903TIP3   OH2 2672  -0.021   4.869   0.605
  903TIP3    H1 2673  -0.066   4.912   0.677
  903TIP3    H2 2674   0.070   4.899   0.612
  904TIP3   OH2 2675   3.092   1.542   5.532
  904TIP3    H1 2676   3.149   1.465   5.528
  904TIP3    H2 2677   3.011   1.514   5.491
  905TIP3   OH2 2678   0.323   5.727   5.494
  905TIP3    H1 2679   0.279   5.676   5.426
  905TIP3    H2 2680   0.251   5.764   5.545
  906TIP3   OH2 2681   4.813   0.807   2.051
  906TIP3    H1 2682   4.824   0.869   2.123
  906TIP3    H2 2683   4.900   0.769   2.039
  907TIP3   OH2 2684   4.920   6.331   5.015
  907TIP3    H1 2685   4.970   6.401   4.974
  907TIP3    H2 2686   4.828   6.352   4.996
  908TIP3   OH2 2687   2.251   5.399   2.067
  908TIP3    H1 2688   2.307   5.446   2.129
  908TIP3    H2 2689   2.162   5.425   2.090
  909TIP3   OH2 2690   4.450   4.073   0.088
  909TIP3    H1 2691   4.470   4.125   0.010
  909TIP3    H2 2692   4.355   4.068   0.091
  910TIP3   OH2 2693   0.856   5.536   0.104
  910TIP3    H1 2694   0.845   5.481   0.182
  910TIP3    H2 2695   0.769   5.541   0.065
  911TIP3   OH2 2696   5.182   3.616   4.215
  911TIP3    H1 2697   5.104   3.627   4.268
  911TIP3    H2 2698   5.253   3.653   4.269
  912TIP3   OH2 2699   3.347   0.579   3.710
  912TIP3    H1 2700   3.319   0.582   3.802
  912TIP3    H2 2701   3.280   0.525   3.667
  913TIP3   OH2 2702   5.000   2.106   1.825
  913TIP3    H1 2703   4.906   2.125   1.830
  913TIP3    H2 2704   5.039   2.159   1.895
  914TIP3   OH2 2705   4.704   3.239   4.396
  914TIP3    H1 2706   4.778   3.193   4.435
  914TIP3    H2 2707   4.733   3.261   4.307
  915TIP3   OH2 2708   5.153   5.117   4.102
  915TIP3    H1 2709   5.150   5.213   4.099
  915TIP3    H2 2710   5.070   5.089   4.065
  916TIP3   OH2 2711   5.348   1.501   5.551
  916TIP3    H1 2712   5.429   1.550   5.539
  916TIP3    H2 2713   5.353   1.430   5.487
  917TIP3   OH2 2714   2.399   1.037   5.299
  917TIP3    H1 2715   2.447   0.962   5.265
  917TIP3    H2 2716   2.403   1.102   5.229
  918TIP3   OH2 2717   4.401   1.519   4.056
  918TIP3    H1 2718   4.307   1.513   4.070
  918TIP3    H2 2719   4.425   1.606   4.090
  919TIP3   OH2 2720   5.811   6.762   4.611
  919TIP3    H1 2721   5.904   6.779   4.600
  919TIP3    H2 2722   5.771   6.795   4.530
  920TIP3   OH2 2723   1.429   1.339   0.516
  920TIP3    H1 2724   1.491   1.402   0.479
  920TIP3    H2 2725   1.439   1.261   0.461
  921TIP3   OH2 2726   5.974   6.597   1.996
  921TIP3    H1 2727   5.996   6.542   2.072
  921TIP3    H2 2728   5.980   6.686   2.030
  922TIP3   OH2 2729   6.856   3.872   3.419
  922TIP3    H1 2730   6.764   3.899   3.422
  922TIP3    H2 2731   6.904   3.947   3.452
  923TIP3   OH2 2732   6.134   1.785   1.964
  923TIP3    H1 2733   6.083   1.725   2.020
  923TIP3    H2 2734   6.076   1.804   1.891
  924TIP3   OH2 2735   6.344   3.037   5.774
  924TIP3    H1 2736   6.320   3.044   5.866
  924TIP3    H2 2737   6.367   2.945   5.762
  925TIP3   OH2 2738   6.091   0.119   1.570
  925TIP3    H1 2739   6.044   0.108   1.652
  925TIP3    H2 2740   6.148   0.042   1.565
  926TIP3   OH2 2741   4.825   6.774   0.699
  926TIP3    H1 2742   4.916   6.782   0.728
  926TIP3    H2 2743   4.773   6.798   0.776
  927TIP3   OH2 2744   6.608   3.926   5.398
  927TIP3    H1 2745   6.655   3.850   5.361
  927TIP3    H2 2746   6.518   3.914   5.370
  928TIP3   OH2 2747   4.849   6.547   0.227
  928TIP3    H1 2748   4.817   6.600   0.300
  928TIP3    H2 2749   4.791   6.471   0.225
  929TIP3   OH2 2750   5.883   1.287   5.387
  929TIP3    H1 2751   5.832   1.338   5.324
  929TIP3    H2 2752   5.954   1.250   5.335
  930TIP3   OH2 2753   5.296   1.351   0.342
  930TIP3    H1 2754   5.379   1.398   0.350
  930TIP3    H2 2755   5.281   1.315   0.430
  931TIP3   OH2 2756   1.448   2.292   0.451
  931TIP3    H1 2757   1.377   2.285   0.515
  931TIP3    H2 2758   1.461   2.386   0.441
  932TIP3   OH2 2759   2.245   6.425   2.654
  932TIP3    H1 2760   2.314   6.369   2.619
  932TIP3    H2 2761   2.191   6.448   2.577
  933TIP3   OH2 2762   2.597   2.871   3.675
  933TIP3    H1 2763   2.655   2.815   3.726
  933TIP3    H2 2764   2.655   2.919   3.616
  934TIP3   OH2 2765   5.570   0.682   3.427
  934TIP3    H1 2766   5.493   0.652   3.476
  934TIP3    H2 2767   5.614   0.743   3.487
  935TIP3   OH2 2768   0.459   5.132   3.841
  935TIP3    H1 2769   0.390   5.181   3.886
  935TIP3    H2 2770   0.439   5.040   3.860
  936TIP3   OH2 2771   4.237   3.685   4.640
  936TIP3    H1 2772   4.327   3.653   4.636
  936TIP3    H2 2773   4.241   3.762   4.696
  937TIP3   OH2 2774   5.321   1.309   0.745
  937TIP3    H1 2775   5.416   1.319   0.734
  937TIP3    H2 2776   5.295   1.385   0.797
  938TIP3   OH2 2777   3.825   6.206   3.767
  938TIP3    H1 2778   3.769   6.215   3.690
  938TIP3    H2 2779   3.884   6.282   3.763
  939TIP3   OH2 2780   2.968   6.545   4.438
  939TIP3    H1 2781   2.936   6.635   4.436
  939TIP3    H2 2782   2.994   6.527   4.347
  940TIP3   OH2 2783   7.014   0.073   0.559
  940TIP3    H1 2784   7.103   0.049   0.582
  940TIP3    H2 2785   6.962   0.053   0.636
  941TIP3   OH2 2786   2.282   6.541   5.480
  941TIP3    H1 2787   2.334   6.521   5.403
  941TIP3    H2 2788   2.191   6.524   5.453
  942TIP3   OH2 2789   2.031   3.306   5.476
  942TIP3    H1 2790   2.046   3.345   5.562
  942TIP3    H2 2791   1.977   3.370   5.430
  943TIP3   OH2 2792   5.312   6.448   0.234
  943TIP3    H1 2793   5.267   6.525   0.202
  943TIP3    H2 2794   5.273   6.375   0.187
  944TIP3   OH2 2795   3.530   3.274   5.172
  944TIP3    H1 2796   3.603   3.251   5.229
  944TIP3    H2 2797   3.462   3.303   5.233
  945TIP3   OH2 2798   1.272   3.236   1.734
  945TIP3    H1 2799   1.347   3.257   1.677
  945TIP3    H2 2800   1.275   3.141   1.743
  946TIP3   OH2 2801   5.945   2.882   3.862
  946TIP3    H1 2802   5.931   2.975   3.847
  946TIP3    H2 2803   6.011   2.857   3.797
  947TIP3   OH2 2804   6.035   6.439   3.491
  947TIP3    H1 2805   6.106   6.476   3.437
  947TIP3    H2 2806   5.993   6.516   3.530
  948TIP3   OH2 2807   3.460   5.703   2.304
  948TIP3    H1 2808   3.365   5.702   2.315
  948TIP3    H2 2809   3.495   5.689   2.392
  949TIP3   OH2 2810   1.632   3.299   5.671
  949TIP3    H1 2811   1.612   3.254   5.589
  949TIP3    H2 2812   1.728   3.306   5.672
  950TIP3   OH2 2813   3.454   1.937   0.196
  950TIP3    H1 2814   3.418   2.002   0.136
  950TIP3    H2 2815   3.549   1.943   0.184
  951TIP3   OH2 2816   0.036   1.287   2.182
  951TIP3    H1 2817   0.119   1.324   2.210
  951TIP3    H2 2818  -0.009   1.263   2.263
  952TIP3   OH2 2819   7.173   1.769   5.787
  952TIP3    H1 2820   7.213   1.730   5.710
  952TIP3    H2 2821   7.247   1.792   5.843
  953TIP3   OH2 2822   5.763   0.944   3.839
  953TIP3    H1 2823   5.689   0.976   3.891
  953TIP3    H2 2824   5.722   0.885   3.774
  954TIP3   OH2 2825   3.232   2.583   2.027
  954TIP3    H1 2826   3.293   2.653   2.004
  954TIP3    H2 2827   3.161   2.592   1.964
  955TIP3   OH2 2828   2.297   5.911   4.105
  955TIP3    H1 2829   2.386   5.943   4.090
  955TIP3    H2 2830   2.247   5.940   4.028
  956TIP3   OH2 2831   4.704   5.250   1.332
  956TIP3    H1 2832   4.757   5.171   1.330
  956TIP3    H2 2833   4.767   5.322   1.331
  957TIP3   OH2 2834   6.719   4.090   2.107
  957TIP3    H1 2835   6.689   4.078   2.017
  957TIP3    H2 2836   6.735   4.184   2.115
  958TIP3   OH2 2837   0.808   3.624   1.425
  958TIP3    H1 2838   0.725   3.671   1.424
  958TIP3    H2 2839   0.844   3.640   1.513
  959TIP3   OH2 2840   6.432   6.194   3.862
  959TIP3    H1 2841   6.360   6.233   3.912
  959TIP3    H2 2842   6.505   6.189   3.924
  960TIP3   OH2 2843   0.799   0.793   0.475
  960TIP3    H1 2844   0.777   0.801   0.382
  960TIP3    H2 2845   0.716   0.811   0.521
  961TIP3   OH2 2846   0.888   1.931   5.817
  961TIP3    H1 2847   0.848   1.846   5.837
  961TIP3    H2 2848   0.982   1.914   5.819
  962TIP3   OH2 2849   6.883   1.416   0.868
  962TIP3    H1 2850   6.937   1.383   0.797
  962TIP3    H2 2851   6.910   1.365   0.944
  963TIP3   OH2 2852   4.086   5.899   4.029
  963TIP3    H1 2853   4.010   5.957   4.018
  963TIP3    H2 2854   4.054   5.812   4.008
  964TIP3   OH2 2855   4.799   0.357   0.071
  964TIP3    H1 2856   4.755   0.428   0.119
  964TIP3    H2 2857   4.892   0.382   0.072
  965TIP3   OH2 2858   0.889   1.324   3.539
  965TIP3    H1 2859   0.957   1.362   3.484
  965TIP3    H2 2860   0.895   1.230   3.523
  966TIP3   OH2 2861   6.922   5.684   2.187
  966TIP3    H1 2862   6.966   5.769   2.181
  966TIP3    H2 2863   6.840   5.696   2.139
  967TIP3   OH2 2864   5.673   1.617   4.966
  967TIP3    H1 2865   5.656   1.660   4.881
  967TIP3    H2 2866   5.601   1.647   5.022
  968TIP3   OH2 2867   1.865   1.812   4.618
  968TIP3    H1 2868   1.778   1.772   4.624
  968TIP3    H2 2869   1.891   1.799   4.527
  969TIP3   OH2 2870   6.641   6.836   2.712
  969TIP3    H1 2871   6.637   6.773   2.784
  969TIP3    H2 2872   6.644   6.782   2.633
  970TIP3   OH2 2873   5.005   5.812   2.104
  970TIP3    H1 2874   4.935   5.812   2.037
  970TIP3    H2 2875   4.961   5.784   2.184
  971TIP3   OH2 2876   6.313   2.236   0.567
  971TIP3    H1 2877   6.312   2.151   0.523
  971TIP3    H2 2878   6.406   2.261   0.569
  972TIP3   OH2 2879   0.519   3.715   1.520
  972TIP3    H1 2880   0.556   3.703   1.608
  972TIP3    H2 2881   0.442   3.657   1.519
  973TIP3   OH2 2882   4.603   0.143   2.636
  973TIP3    H1 2883   4.593   0.237   2.654
  973TIP3    H2 2884   4.671   0.139   2.569
  974TIP3   OH2 2885   3.995   4.486   2.303
  974TIP3    H1 2886   4.044   4.554   2.257
  974TIP3    H2 2887   3.910   4.525   2.320
  975TIP3   OH2 2888   1.570   0.565   2.150
  975TIP3    H1 2889   1.509   0.499   2.183
  975TIP3    H2 2890   1.519   0.614   2.085
  976TIP3   OH2 2891   6.877   0.797   2.856
  976TIP3    H1 2892   6.889   0.704   2.877
  976TIP3    H2 2893   6.791   0.819   2.891
  977TIP3   OH2 2894   2.831   0.832   0.684
  977TIP3    H1 2895   2.818   0.904   0.746
  977TIP3    H2 2896   2.840   0.875   0.599
  978TIP3   OH2 2897   0.542   6.071   1.889
  978TIP3    H1 2898   0.540   6.166   1.899
  978TIP3    H2 2899   0.450   6.046   1.885
  979TIP3   OH2 2900   0.813   3.926   3.496
  979TIP3    H1 2901   0.871   4.001   3.485
  979TIP3    H2 2902   0.833   3.869   3.422
  980TIP3   OH2 2903   3.171   5.363   2.977
  980TIP3    H1 2904   3.120   5.444   2.983
  980TIP3    H2 2905   3.171   5.341   2.883
  981TIP3   OH2 2906   1.280   3.710   0.071
  981TIP3    H1 2907   1.197   3.753   0.048
  981TIP3    H2 2908   1.275   3.624   0.031
  982TIP3   OH2 2909   3.974   4.842   4.726
  982TIP3    H1 2910   4.032   4.875   4.657
  982TIP3    H2 2911   3.886   4.857   4.693
  983TIP3   OH2 2912   7.011   4.806   1.061
  983TIP3    H1 2913   7.041   4.892   1.031
  983TIP3    H2 2914   7.090   4.761   1.089
  984TIP3   OH2 2915   6.660   2.035   3.585
  984TIP3    H1 2916   6.617   2.013   3.667
  984TIP3    H2 2917   6.753   2.042   3.608
  985TIP3   OH2 2918   6.418   2.828   0.495
  985TIP3    H1 2919   6.471   2.844   0.417
  985TIP3    H2 2920   6.338   2.879   0.481
  986TIP3   OH2 2921   3.532   2.658   5.516
  986TIP3    H1 2922   3.562   2.710   5.591
  986TIP3    H2 2923   3.545   2.567   5.544
  987TIP3   OH2 2924   1.799   6.137   5.333
  987TIP3    H1 2925   1.882   6.142   5.287
  987TIP3    H2 2926   1.796   6.049   5.370
  988TIP3   OH2 2927   0.779   3.604   0.753
  988TIP3    H1 2928   0.837   3.679   0.739
  988TIP3    H2 2929   0.711   3.614   0.686
  989TIP3   OH2 2930   1.330   2.954   0.583
  989TIP3    H1 2931   1.346   2.862   0.562
  989TIP3    H2 2932   1.245   2.953   0.628
  990TIP3   OH2 2933   2.383   5.822   4.429
  990TIP3    H1 2934   2.325   5.747   4.446
  990TIP3    H2 2935   2.468   5.782   4.410
  991TIP3   OH2 2936   1.610   5.528   0.489
  991TIP3    H1 2937   1.581   5.563   0.573
  991TIP3    H2 2938   1.564   5.445   0.480
  992TIP3   OH2 2939   4.699   6.742   5.489
  992TIP3    H1 2940   4.708   6.836   5.479
  992TIP3    H2 2941   4.626   6.732   5.550
  993TIP3   OH2 2942   4.114   0.493   1.566
  993TIP3    H1 2943   4.166   0.535   1.634
  993TIP3    H2 2944   4.062   0.427   1.612
  994TIP3   OH2 2945   3.538   6.383   2.959
  994TIP3    H1 2946   3.601   6.449   2.931
  994TIP3    H2 2947   3.591   6.319   3.007
  995TIP3   OH2 2948   1.644   0.341   5.283
  995TIP3    H1 2949   1.620   0.355   5.192
  995TIP3    H2 2950   1.736   0.364   5.288
  996TIP3   OH2 2951   1.459   1.717   5.452
  996TIP3    H1 2952   1.514   1.675   5.519
  996TIP3    H2 2953   1.370   1.713   5.487
  997TIP3   OH2 2954   2.467   4.909   3.535
  997TIP3    H1 2955   2.561   4.921   3.526
  997TIP3    H2 2956   2.431   4.997   3.540
  998TIP3   OH2 2957   3.605   5.543   4.539
  998TIP3    H1 2958   3.654   5.497   4.607
  998TIP3    H2 2959   3.669   5.556   4.469
  999TIP3   OH2 2960   6.893   5.808   2.922
  999TIP3    H1 2961   6.818   5.839   2.871
  999TIP3    H2 2962   6.943   5.755   2.861
 1000TIP3   OH2 2963   6.599   1.128   2.754
 1000TIP3    H1 2964   6.509   1.107   2.730
 1000TIP3    H2 2965   6.619   1.207   2.704
 1001TIP3   OH2 2966   7.199   5.649   2.556
 1001TIP3    H1 2967   7.158   5.650   2.643
 1001TIP3    H2 2968   7.170   5.730   2.515
 1002TIP3   OH2 2969   0.128   1.519   4.415
 1002TIP3    H1 2970   0.217   1.554   4.413
 1002TIP3    H2 2971   0.121   1.477   4.501
 1003TIP3   OH2 2972   5.270   5.667   5.525
 1003TIP3    H1 2973   5.221   5.748   5.538
 1003TIP3    H2 2974   5.210   5.612   5.473
 1004TIP3   OH2 2975   2.506   4.785   3.993
 1004TIP3    H1 2976   2.435   4.743   3.946
 1004TIP3    H2 2977   2.583   4.772   3.938
 1005TIP3   OH2 2978   0.616   1.054   4.002
 1005TIP3    H1 2979   0.607   1.134   3.949
 1005TIP3    H2 2980   0.565   0.988   3.954
 1006TIP3   OH2 2981   1.063   1.684   4.796
 1006TIP3    H1 2982   1.156   1.665   4.810
 1006TIP3    H2 2983   1.031   1.709   4.882
 1007TIP3   OH2 2984   5.915   2.018   5.429
 1007TIP3    H1 2985   5.968   2.097   5.417
 1007TIP3    H2 2986   5.853   2.020   5.356
 1008TIP3   OH2 2987   3.227   6.681   1.263
 1008TIP3    H1 2988   3.258   6.706   1.176
 1008TIP3    H2 2989   3.263   6.594   1.277
 1009TIP3   OH2 2990   0.747   0.365   5.803
 1009TIP3    H1 2991   0.680   0.414   5.850
 1009TIP3    H2 2992   0.755   0.410   5.719
 1010TIP3   OH2 2993   6.216   6.770   0.269
 1010TIP3    H1 2994   6.297   6.736   0.230
 1010TIP3    H2 2995   6.204   6.855   0.229
 1011TIP3   OH2 2996   5.955   4.574   3.243
 1011TIP3    H1 2997   5.929   4.487   3.214
 1011TIP3    H2 2998   5.926   4.632   3.172
 1012TIP3   OH2 2999   5.227   3.276   4.575
 1012TIP3    H1 3000   5.175   3.243   4.649
 1012TIP3    H2 3001   5.248   3.366   4.599
 1013TIP3   OH2 3002   4.195   0.131   2.064
 1013TIP3    H1 3003   4.165   0.171   1.982
 1013TIP3    H2 3004   4.211   0.206   2.122
 1014TIP3   OH2 3005   5.334   1.510   3.899
 1014TIP3    H1 3006   5.299   1.429   3.861
 1014TIP3    H2 3007   5.351   1.487   3.991
 1015TIP3   OH2 3008   1.042   6.469   5.103
 1015TIP3    H1 3009   1.137   6.476   5.115
 1015TIP3    H2 3010   1.020   6.540   5.043
 1016TIP3   OH2 3011   3.332   2.425   2.225
 1016TIP3    H1 3012   3.244   2.389   2.235
 1016TIP3    H2 3013   3.328   2.477   2.145
 1017TIP3   OH2 3014   4.430   0.113   5.755
 1017TIP3    H1 3015   4.344   0.072   5.751
 1017TIP3    H2 3016   4.453   0.112   5.848
 1018TIP3   OH2 3017   0.435   5.090   5.426
 1018TIP3    H1 3018   0.499   5.019   5.412
 1018TIP3    H2 3019   0.436   5.103   5.521
 1019TIP3   OH2 3020   4.947   3.971   2.936
 1019TIP3    H1 3021   4.986   3.997   2.852
 1019TIP3    H2 3022   4.972   4.041   2.996
 1020TIP3   OH2 3023   0.407   2.521   1.705
 1020TIP3    H1 3024   0.366   2.600   1.740
 1020TIP3    H2 3025   0.477   2.553   1.648
 1021TIP3   OH2 3026   2.709   6.470   1.377
 1021TIP3    H1 3027   2.735   6.389   1.333
 1021TIP3    H2 3028   2.728   6.539   1.315
 1022TIP3   OH2 3029   6.167   5.267   4.798
 1022TIP3    H1 3030   6.211   5.289   4.880
 1022TIP3    H2 3031   6.164   5.349   4.750
 1023TIP3   OH2 3032   3.970   6.768   2.032
 1023TIP3    H1 3033   4.062   6.741   2.030
 1023TIP3    H2 3034   3.955   6.807   1.946
 1024TIP3   OH2 3035   3.832   4.832   2.127
 1024TIP3    H1 3036   3.917   4.801   2.159
 1024TIP3    H2 3037   3.820   4.788   2.043
 1025TIP3   OH2 3038   5.268   3.138   5.623
 1025TIP3    H1 3039   5.225   3.153   5.538
 1025TIP3    H2 3040   5.222   3.062   5.659
 1026TIP3   OH2 3041   1.034   3.258   0.800
 1026TIP3    H1 3042   1.031   3.292   0.889
 1026TIP3    H2 3043   1.111   3.300   0.761
 1027TIP3   OH2 3044   4.449   2.563   0.651
 1027TIP3    H1 3045   4.536   2.548   0.613
 1027TIP3    H2 3046   4.399   2.604   0.580
 1028TIP3   OH2 3047   0.107   4.615   0.702
 1028TIP3    H1 3048   0.179   4.672   0.673
 1028TIP3    H2 3049   0.135   4.582   0.787
 1029TIP3   OH2 3050   6.589   1.675   5.754
 1029TIP3    H1 3051   6.541   1.730   5.692
 1029TIP3    H2 3052   6.624   1.737   5.819
 1030TIP3   OH2 3053   2.598   5.488   5.850
 1030TIP3    H1 3054   2.570   5.559   5.793
 1030TIP3    H2 3055   2.628   5.532   5.930
 1031TIP3   OH2 3056   4.218   6.662   2.286
 1031TIP3    H1 3057   4.217   6.574   2.248
 1031TIP3    H2 3058   4.211   6.721   2.210
 1032TIP3   OH2 3059   1.628   3.160   3.440
 1032TIP3    H1 3060   1.722   3.171   3.425
 1032TIP3    H2 3061   1.593   3.249   3.444
 1033TIP3   OH2 3062   0.542   5.607   5.149
 1033TIP3    H1 3063   0.516   5.518   5.123
 1033TIP3    H2 3064   0.631   5.617   5.114
 1034TIP3   OH2 3065   5.247   4.350   3.315
 1034TIP3    H1 3066   5.201   4.411   3.373
 1034TIP3    H2 3067   5.284   4.284   3.373
 1035TIP3   OH2 3068   1.587   6.279   4.180
 1035TIP3    H1 3069   1.554   6.341   4.116
 1035TIP3    H2 3070   1.520   6.210   4.184
 1036TIP3   OH2 3071   4.280   3.630   5.113
 1036TIP3    H1 3072   4.254   3.561   5.053
 1036TIP3    H2 3073   4.313   3.700   5.056
 1037TIP3   OH2 3074   0.570   5.996   4.808
 1037TIP3    H1 3075   0.650   5.943   4.814
 1037TIP3    H2 3076   0.578   6.059   4.880
 1038TIP3   OH2 3077   2.360   4.927   1.609
 1038TIP3    H1 3078   2.311   4.860   1.655
 1038TIP3    H2 3079   2.306   4.950   1.534
 1039TIP3   OH2 3080   5.014   2.872   3.545
 1039TIP3    H1 3081   4.932   2.827   3.523
 1039TIP3    H2 3082   5.079   2.833   3.487
 1040TIP3   OH2 3083   1.195   5.252   1.233
 1040TIP3    H1 3084   1.162   5.230   1.320
 1040TIP3    H2 3085   1.146   5.331   1.209
 1041TIP3   OH2 3086   4.681   3.769   0.498
 1041TIP3    H1 3087   4.681   3.674   0.504
 1041TIP3    H2 3088   4.652   3.788   0.408
 1042TIP3   OH2 3089   1.694   2.902   4.603
 1042TIP3    H1 3090   1.629   2.843   4.565
 1042TIP3    H2 3091   1.719   2.960   4.531
 1043TIP3   OH2 3092   1.405   0.381   2.256
 1043TIP3    H1 3093   1.439   0.321   2.322
 1043TIP3    H2 3094   1.380   0.325   2.183
 1044TIP3   OH2 3095   2.425   0.714   1.400
 1044TIP3    H1 3096   2.360   0.702   1.331
 1044TIP3    H2 3097   2.385   0.676   1.478
 1045TIP3   OH2 3098   1.598   6.489   5.011
 1045TIP3    H1 3099   1.617   6.416   4.951
 1045TIP3    H2 3100   1.655   6.473   5.086
 1046TIP3   OH2 3101   0.742   0.787   3.340
 1046TIP3    H1 3102   0.669   0.773   3.279
 1046TIP3    H2 3103   0.753   0.703   3.384
 1047TIP3   OH2 3104   4.872   4.187   3.274
 1047TIP3    H1 3105   4.914   4.142   3.347
 1047TIP3    H2 3106   4.937   4.184   3.204
 1048TIP3   OH2 3107   2.729   6.546   3.844
 1048TIP3    H1 3108   2.721   6.454   3.868
 1048TIP3    H2 3109   2.662   6.591   3.895
 1049TIP3   OH2 3110   0.502   0.338   1.753
 1049TIP3    H1 3111   0.488   0.397   1.827
 1049TIP3    H2 3112   0.420   0.341   1.704
 1050TIP3   OH2 3113   2.015   2.303   2.648
 1050TIP3    H1 3114   2.008   2.372   2.714
 1050TIP3    H2 3115   2.052   2.228   2.695
 1051TIP3   OH2 3116   1.898   3.246   5.754
 1051TIP3    H1 3117   1.988   3.273   5.733
 1051TIP3    H2 3118   1.890   3.159   5.715
 1052TIP3   OH2 3119   0.943   0.334   3.388
 1052TIP3    H1 3120   0.985   0.418   3.405
 1052TIP3    H2 3121   0.883   0.351   3.315
 1053TIP3   OH2 3122   7.080   3.858   0.996
 1053TIP3    H1 3123   7.131   3.786   1.032
 1053TIP3    H2 3124   7.010   3.816   0.947
 1054TIP3   OH2 3125   3.119   0.427   3.656
 1054TIP3    H1 3126   3.078   0.367   3.595
 1054TIP3    H2 3127   3.129   0.377   3.737
 1055TIP3   OH2 3128   1.343   4.381   2.026
 1055TIP3    H1 3129   1.336   4.444   1.953
 1055TIP3    H2 3130   1.375   4.434   2.099
 1056TIP3   OH2 3131   3.840   6.399   2.282
 1056TIP3    H1 3132   3.843   6.488   2.247
 1056TIP3    H2 3133   3.777   6.353   2.226
 1057TIP3   OH2 3134   2.125   0.947   5.380
 1057TIP3    H1 3135   2.216   0.951   5.351
 1057TIP3    H2 3136   2.129   0.961   5.475
 1058TIP3   OH2 3137   2.290   2.122   0.771
 1058TIP3    H1 3138   2.286   2.026   0.774
 1058TIP3    H2 3139   2.274   2.144   0.680
 1059TIP3   OH2 3140   5.179   2.611   5.492
 1059TIP3    H1 3141   5.153   2.621   5.401
 1059TIP3    H2 3142   5.125   2.674   5.540
 1060TIP3   OH2 3143   0.645   1.438   5.546
 1060TIP3    H1 3144   0.739   1.423   5.546
 1060TIP3    H2 3145   0.606   1.351   5.558
 1061TIP3   OH2 3146   6.591   2.534   1.209
 1061TIP3    H1 3147   6.497   2.526   1.225
 1061TIP3    H2 3148   6.603   2.504   1.119
 1062TIP3   OH2 3149   2.536   0.095   4.854
 1062TIP3    H1 3150   2.463   0.113   4.914
 1062TIP3    H2 3151   2.509   0.018   4.806
 1063TIP3   OH2 3152   0.000   1.378   3.747
 1063TIP3    H1 3153   0.029   1.438   3.678
 1063TIP3    H2 3154   0.050   1.405   3.824
 1064TIP3   OH2 3155   6.193   0.419   0.492
 1064TIP3    H1 3156   6.177   0.448   0.402
 1064TIP3    H2 3157   6.287   0.429   0.504
 1065TIP3   OH2 3158   0.519   5.566   3.203
 1065TIP3    H1 3159   0.530   5.490   3.146
 1065TIP3    H2 3160   0.466   5.534   3.276
 1066TIP3   OH2 3161   1.195   4.260   3.290
 1066TIP3    H1 3162   1.201   4.164   3.291
 1066TIP3    H2 3163   1.103   4.278   3.270
 1067TIP3   OH2 3164   2.782   6.700   1.699
 1067TIP3    H1 3165   2.728   6.635   1.654
 1067TIP3    H2 3166   2.719   6.753   1.748
 1068TIP3   OH2 3167   2.956   0.160   0.921
 1068TIP3    H1 3168   3.050   0.176   0.927
 1068TIP3    H2 3169   2.916   0.247   0.925
 1069TIP3   OH2 3170   6.852   5.451   3.478
 1069TIP3    H1 3171   6.833   5.502   3.557
 1069TIP3    H2 3172   6.819   5.505   3.406
 1070TIP3   OH2 3173   2.937   5.886   5.494
 1070TIP3    H1 3174   2.899   5.970   5.522
 1070TIP3    H2 3175   2.870   5.848   5.437
 1071TIP3   OH2 3176   0.902   1.444   1.279
 1071TIP3    H1 3177   0.946   1.523   1.310
 1071TIP3    H2 3178   0.867   1.403   1.358
 1072TIP3   OH2 3179   7.178   5.168   4.035
 1072TIP3    H1 3180   7.151   5.204   3.951
 1072TIP3    H2 3181   7.183   5.243   4.093
 1073TIP3   OH2 3182   3.959   4.353   1.360
 1073TIP3    H1 3183   3.952   4.442   1.394
 1073TIP3    H2 3184   4.023   4.311   1.418
 1074TIP3   OH2 3185   1.957   3.166   4.446
 1074TIP3    H1 3186   1.888   3.107   4.414
 1074TIP3    H2 3187   1.943   3.247   4.396
 1075TIP3   OH2 3188   6.896   3.408   4.564
 1075TIP3    H1 3189   6.969   3.348   4.581
 1075TIP3    H2 3190   6.880   3.450   4.649
 1076TIP3   OH2 3191   7.170   5.101   1.526
 1076TIP3    H1 3192   7.090   5.153   1.529
 1076TIP3    H2 3193   7.203   5.101   1.616
 1077TIP3   OH2 3194   1.567   1.527   0.815
 1077TIP3    H1 3195   1.613   1.493   0.738
 1077TIP3    H2 3196   1.571   1.622   0.804
 1078TIP3   OH2 3197   2.943   4.105   0.566
 1078TIP3    H1 3198   2.936   4.099   0.471
 1078TIP3    H2 3199   2.999   4.181   0.582
 1079TIP3   OH2 3200   6.374   3.520   3.652
 1079TIP3    H1 3201   6.381   3.443   3.595
 1079TIP3    H2 3202   6.343   3.590   3.594
 1080TIP3   OH2 3203   1.899   1.239   4.635
 1080TIP3    H1 3204   1.844   1.315   4.654
 1080TIP3    H2 3205   1.966   1.240   4.704
 1081TIP3   OH2 3206   4.627   6.108   4.658
 1081TIP3    H1 3207   4.639   6.201   4.640
 1081TIP3    H2 3208   4.554   6.105   4.720
 1082TIP3   OH2 3209   1.805   4.234   3.219
 1082TIP3    H1 3210   1.782   4.322   3.250
 1082TIP3    H2 3211   1.833   4.188   3.298
 1083TIP3   OH2 3212   2.316   2.764   0.002
 1083TIP3    H1 3213   2.232   2.794  -0.033
 1083TIP3    H2 3214   2.332   2.820   0.078
 1084TIP3   OH2 3215   0.336   6.624   4.250
 1084TIP3    H1 3216   0.374   6.541   4.277
 1084TIP3    H2 3217   0.243   6.604   4.236
 1085TIP3   OH2 3218   1.779   5.910   4.018
 1085TIP3    H1 3219   1.740   5.983   3.971
 1085TIP3    H2 3220   1.873   5.917   4.001
 1086TIP3   OH2 3221   2.490   5.379   3.104
 1086TIP3    H1 3222   2.399   5.364   3.132
 1086TIP3    H2 3223   2.501   5.324   3.027
 1087TIP3   OH2 3224   1.378   6.205   0.227
 1087TIP3    H1 3225   1.292   6.239   0.203
 1087TIP3    H2 3226   1.439   6.274   0.201
 1088TIP3   OH2 3227   7.141   3.585   4.988
 1088TIP3    H1 3228   7.120   3.492   4.978
 1088TIP3    H2 3229   7.084   3.615   5.059
 1089TIP3   OH2 3230   7.041   1.027   2.194
 1089TIP3    H1 3231   7.089   1.062   2.119
 1089TIP3    H2 3232   7.073   0.937   2.204
 1090TIP3   OH2 3233   2.874   1.335   2.695
 1090TIP3    H1 3234   2.865   1.416   2.645
 1090TIP3    H2 3235   2.916   1.362   2.777
 1091TIP3   OH2 3236   0.894   0.100   0.344
 1091TIP3    H1 3237   0.801   0.116   0.328
 1091TIP3    H2 3238   0.920   0.039   0.275
 1092TIP3   OH2 3239   0.569   3.992   1.797
 1092TIP3    H1 3240   0.506   3.928   1.831
 1092TIP3    H2 3241   0.649   3.941   1.781
 1093TIP3   OH2 3242   1.552   2.451   2.840
 1093TIP3    H1 3243   1.547   2.423   2.932
 1093TIP3    H2 3244   1.604   2.383   2.797
 1094TIP3   OH2 3245   3.685   5.874   3.544
 1094TIP3    H1 3246   3.775   5.863   3.573
 1094TIP3    H2 3247   3.637   5.897   3.624
 1095TIP3   OH2 3248   1.196   2.075   5.544
 1095TIP3    H1 3249   1.176   2.030   5.462
 1095TIP3    H2 3250   1.229   2.161   5.517
 1096TIP3   OH2 3251   1.546   6.494   3.942
 1096TIP3    H1 3252   1.617   6.553   3.966
 1096TIP3    H2 3253   1.563   6.472   3.850
 1097TIP3   OH2 3254   4.078   1.688   0.695
 1097TIP3    H1 3255   4.023   1.665   0.770
 1097TIP3    H2 3256   4.017   1.693   0.621
 1098TIP3   OH2 3257   0.933   6.555   3.691
 1098TIP3    H1 3258   0.902   6.634   3.736
 1098TIP3    H2 3259   0.857   6.523   3.642
 1099TIP3   OH2 3260   2.655   5.786   4.197
 1099TIP3    H1 3261   2.620   5.755   4.281
 1099TIP3    H2 3262   2.750   5.786   4.209
 1100TIP3   OH2 3263   6.191   6.770   4.132
 1100TIP3    H1 3264   6.144   6.823   4.197
 1100TIP3    H2 3265   6.237   6.704   4.184
 1101TIP3   OH2 3266   6.890   1.245   5.195
 1101TIP3    H1 3267   6.833   1.236   5.118
 1101TIP3    H2 3268   6.842   1.304   5.253
 1102TIP3   OH2 3269   0.980   6.508   1.712
 1102TIP3    H1 3270   0.915   6.556   1.764
 1102TIP3    H2 3271   1.053   6.493   1.772
 1103TIP3   OH2 3272   3.978   0.482   5.280
 1103TIP3    H1 3273   3.993   0.509   5.189
 1103TIP3    H2 3274   3.936   0.397   5.273
 1104TIP3   OH2 3275   1.286   1.313   5.029
 1104TIP3    H1 3276   1.291   1.233   4.976
 1104TIP3    H2 3277   1.376   1.347   5.029
 1105TIP3   OH2 3278   6.995   3.339   2.122
 1105TIP3    H1 3279   7.076   3.378   2.089
 1105TIP3    H2 3280   6.969   3.277   2.054
 1106TIP3   OH2 3281   1.541   1.389   5.682
 1106TIP3    H1 3282   1.456   1.358   5.650
 1106TIP3    H2 3283   1.569   1.321   5.744
 1107TIP3   OH2 3284   4.793   3.778   4.337
 1107TIP3    H1 3285   4.881   3.748   4.359
 1107TIP3    H2 3286   4.745   3.698   4.318
 1108TIP3   OH2 3287   1.938   4.538   2.927
 1108TIP3    H1 3288   1.981   4.504   3.005
 1108TIP3    H2 3289   1.844   4.535   2.947
 1109TIP3   OH2 3290   3.987   2.647   0.515
 1109TIP3    H1 3291   3.895   2.630   0.496
 1109TIP3    H2 3292   3.992   2.646   0.611
 1110TIP3   OH2 3293   5.098   6.477   3.793
 1110TIP3    H1 3294   5.163   6.432   3.740
 1110TIP3    H2 3295   5.128   6.568   3.798
 1111TIP3   OH2 3296   3.257  -0.045   1.078
 1111TIP3    H1 3297   3.217  -0.051   1.165
 1111TIP3    H2 3298   3.238   0.044   1.049
 1112TIP3   OH2 3299   1.201   3.725   2.526
 1112TIP3    H1 3300   1.199   3.724   2.430
 1112TIP3    H2 3301   1.167   3.640   2.552
 1113TIP3   OH2 3302   2.970   0.086   2.370
 1113TIP3    H1 3303   2.995   0.127   2.452
 1113TIP3    H2 3304   2.936   0.000   2.395
 1114TIP3   OH2 3305   6.227   3.126   0.056
 1114TIP3    H1 3306   6.184   3.063   0.114
 1114TIP3    H2 3307   6.248   3.076  -0.022
 1115TIP3   OH2 3308   1.122   5.233   3.961
 1115TIP3    H1 3309   1.048   5.278   4.002
 1115TIP3    H2 3310   1.122   5.146   4.000
 1116TIP3   OH2 3311   2.025   4.779   1.441
 1116TIP3    H1 3312   2.004   4.686   1.429
 1116TIP3    H2 3313   2.094   4.797   1.377
 1117TIP3   OH2 3314   5.531   5.508   4.705
 1117TIP3    H1 3315   5.473   5.579   4.676
 1117TIP3    H2 3316   5.611   5.521   4.654
 1118TIP3   OH2 3317   1.974   2.893   4.058
 1118TIP3    H1 3318   2.060   2.926   4.035
 1118TIP3    H2 3319   1.929   2.967   4.097
 1119TIP3   OH2 3320   4.016   5.711   1.997
 1119TIP3    H1 3321   4.031   5.751   2.083
 1119TIP3    H2 3322   4.036   5.781   1.934
 1120TIP3   OH2 3323   2.422  -0.061   5.248
 1120TIP3    H1 3324   2.450  -0.002   5.319
 1120TIP3    H2 3325   2.495  -0.122   5.238
 1121TIP3   OH2 3326   6.434   6.282   5.581
 1121TIP3    H1 3327   6.339   6.291   5.569
 1121TIP3    H2 3328   6.467   6.372   5.574
 1122TIP3   OH2 3329   0.699   5.220   5.483
 1122TIP3    H1 3330   0.686   5.302   5.436
 1122TIP3    H2 3331   0.619   5.170   5.468
 1123TIP3   OH2 3332   5.399   3.611   5.027
 1123TIP3    H1 3333   5.357   3.578   5.106
 1123TIP3    H2 3334   5.479   3.654   5.058
 1124TIP3   OH2 3335   0.468   0.737   0.473
 1124TIP3    H1 3336   0.376   0.729   0.499
 1124TIP3    H2 3337   0.504   0.804   0.531
 1125TIP3   OH2 3338  -0.004   1.571   4.193
 1125TIP3    H1 3339   0.004   1.665   4.174
 1125TIP3    H2 3340   0.056   1.556   4.266
 1126TIP3   OH2 3341   6.311   6.293   1.974
 1126TIP3    H1 3342   6.249   6.221   1.962
 1126TIP3    H2 3343   6.388   6.252   2.012
 1127TIP3   OH2 3344   0.523   2.333   5.352
 1127TIP3    H1 3345   0.467   2.357   5.426
 1127TIP3    H2 3346   0.590   2.276   5.391
 1128TIP3   OH2 3347   0.098   1.080   3.885
 1128TIP3    H1 3348   0.132   0.995   3.857
 1128TIP3    H2 3349   0.003   1.070   3.882
 1129TIP3   OH2 3350   3.053   2.309   5.155
 1129TIP3    H1 3351   3.013   2.371   5.094
 1129TIP3    H2 3352   3.146   2.333   5.156
 1130TIP3   OH2 3353   3.843   5.174   3.799
 1130TIP3    H1 3354   3.804   5.236   3.860
 1130TIP3    H2 3355   3.829   5.089   3.840
 1131TIP3   OH2 3356   0.286   6.049   0.554
 1131TIP3    H1 3357   0.351   5.992   0.595
 1131TIP3    H2 3358   0.234   5.990   0.499
 1132TIP3   OH2 3359   5.811   3.916   5.065
 1132TIP3    H1 3360   5.796   3.992   5.121
 1132TIP3    H2 3361   5.759   3.933   4.987
 1133TIP3   OH2 3362   0.808   6.024   1.725
 1133TIP3    H1 3363   0.782   6.033   1.633
 1133TIP3    H2 3364   0.728   5.999   1.770
 1134TIP3   OH2 3365   0.545   2.566   2.074
 1134TIP3    H1 3366   0.586   2.520   2.000
 1134TIP3    H2 3367   0.532   2.655   2.042
 1135TIP3   OH2 3368   3.991   0.010   3.751
 1135TIP3    H1 3369   4.033  -0.046   3.816
 1135TIP3    H2 3370   4.048   0.087   3.745
 1136TIP3   OH2 3371   3.718   4.541   0.006
 1136TIP3    H1 3372   3.653   4.471  -0.008
 1136TIP3    H2 3373   3.676   4.619  -0.030
 1137TIP3   OH2 3374   4.057   3.955   0.937
 1137TIP3    H1 3375   4.089   3.867   0.959
 1137TIP3    H2 3376   4.134   4.011   0.948
 1138TIP3   OH2 3377   4.942   3.153   1.398
 1138TIP3    H1 3378   4.894   3.234   1.415
 1138TIP3    H2 3379   4.983   3.131   1.482
 1139TIP3   OH2 3380   5.805   1.193   0.821
 1139TIP3    H1 3381   5.900   1.187   0.814
 1139TIP3    H2 3382   5.778   1.233   0.738
 1140TIP3   OH2 3383   3.910   1.611   1.180
 1140TIP3    H1 3384   3.831   1.635   1.227
 1140TIP3    H2 3385   3.976   1.673   1.211
 1141TIP3   OH2 3386   5.533   6.582   0.662
 1141TIP3    H1 3387   5.601   6.649   0.647
 1141TIP3    H2 3388   5.479   6.619   0.732
 1142TIP3   OH2 3389   0.779   1.562   3.644
 1142TIP3    H1 3390   0.766   1.584   3.737
 1142TIP3    H2 3391   0.817   1.474   3.646
 1143TIP3   OH2 3392   3.583   5.736   4.283
 1143TIP3    H1 3393   3.663   5.693   4.315
 1143TIP3    H2 3394   3.592   5.827   4.313
 1144TIP3   OH2 3395   4.984   0.127   3.307
 1144TIP3    H1 3396   4.970   0.202   3.250
 1144TIP3    H2 3397   4.902   0.078   3.302
 1145TIP3   OH2 3398   1.521   5.389   2.014
 1145TIP3    H1 3399   1.426   5.378   2.019
 1145TIP3    H2 3400   1.550   5.322   1.951
 1146TIP3   OH2 3401   0.138   1.261   2.788
 1146TIP3    H1 3402   0.168   1.198   2.853
 1146TIP3    H2 3403   0.119   1.340   2.838
 1147TIP3   OH2 3404   0.730   6.789   2.926
 1147TIP3    H1 3405   0.663   6.837   2.975
 1147TIP3    H2 3406   0.810   6.841   2.936
 1148TIP3   OH2 3407   4.772   3.530   5.871
 1148TIP3    H1 3408   4.762   3.443   5.909
 1148TIP3    H2 3409   4.813   3.514   5.786
 1149TIP3   OH2 3410   6.138   4.262   3.347
 1149TIP3    H1 3411   6.098   4.310   3.419
 1149TIP3    H2 3412   6.189   4.193   3.390
 1150TIP3   OH2 3413   1.335   6.061   4.007
 1150TIP3    H1 3414   1.366   6.057   4.097
 1150TIP3    H2 3415   1.344   5.971   3.975
 1151TIP3   OH2 3416   0.036   3.705  -0.010
 1151TIP3    H1 3417   0.114   3.699   0.045
 1151TIP3    H2 3418   0.037   3.624  -0.062
 1152TIP3   OH2 3419   3.364   2.172   5.895
 1152TIP3    H1 3420   3.349   2.215   5.979
 1152TIP3    H2 3421   3.278   2.136   5.872
 1153TIP3   OH2 3422   4.218   4.554   4.848
 1153TIP3    H1 3423   4.225   4.637   4.894
 1153TIP3    H2 3424   4.306   4.515   4.854
 1154TIP3   OH2 3425   3.081   0.841   5.784
 1154TIP3    H1 3426   3.069   0.769   5.846
 1154TIP3    H2 3427   2.997   0.886   5.783
 1155TIP3   OH2 3428   2.380   0.174   2.284
 1155TIP3    H1 3429   2.317   0.145   2.349
 1155TIP3    H2 3430   2.351   0.262   2.260
 1156TIP3   OH2 3431   4.428   1.808   4.093
 1156TIP3    H1 3432   4.385   1.882   4.049
 1156TIP3    H2 3433   4.477   1.848   4.164
 1157TIP3   OH2 3434   2.991   1.541   2.510
 1157TIP3    H1 3435   3.074   1.567   2.470
 1157TIP3    H2 3436   2.965   1.618   2.562
 1158TIP3   OH2 3437   2.709   1.134   3.274
 1158TIP3    H1 3438   2.788   1.085   3.296
 1158TIP3    H2 3439   2.708   1.137   3.179
 1159TIP3   OH2 3440   6.711   2.426   5.256
 1159TIP3    H1 3441   6.804   2.402   5.252
 1159TIP3    H2 3442   6.677   2.374   5.329
 1160TIP3   OH2 3443   3.777   6.054   2.329
 1160TIP3    H1 3444   3.834   6.005   2.388
 1160TIP3    H2 3445   3.825   6.134   2.311
 1161TIP3   OH2 3446   6.665   4.744   3.627
 1161TIP3    H1 3447   6.594   4.778   3.681
 1161TIP3    H2 3448   6.650   4.782   3.541
 1162TIP3   OH2 3449   0.205   3.933   1.580
 1162TIP3    H1 3450   0.204   4.005   1.642
 1162TIP3    H2 3451   0.229   3.856   1.632
 1163TIP3   OH2 3452   3.513   3.410   3.897
 1163TIP3    H1 3453   3.483   3.468   3.967
 1163TIP3    H2 3454   3.468   3.327   3.915
 1164TIP3   OH2 3455   1.313   2.833   5.870
 1164TIP3    H1 3456   1.404   2.851   5.846
 1164TIP3    H2 3457   1.319   2.786   5.953
 1165TIP3   OH2 3458   4.728   2.809   5.743
 1165TIP3    H1 3459   4.768   2.730   5.779
 1165TIP3    H2 3460   4.678   2.778   5.667
 1166TIP3   OH2 3461   4.923   1.870   3.864
 1166TIP3    H1 3462   4.989   1.806   3.889
 1166TIP3    H2 3463   4.839   1.827   3.884
 1167TIP3   OH2 3464   2.952   2.731   4.538
 1167TIP3    H1 3465   2.879   2.790   4.522
 1167TIP3    H2 3466   2.989   2.760   4.621
 1168TIP3   OH2 3467   0.947   0.836   2.834
 1168TIP3    H1 3468   0.965   0.742   2.827
 1168TIP3    H2 3469   0.861   0.847   2.793
 1169TIP3   OH2 3470   6.021   5.817   4.206
 1169TIP3    H1 3471   6.080   5.752   4.168
 1169TIP3    H2 3472   6.051   5.900   4.169
 1170TIP3   OH2 3473   2.705   2.527   2.470
 1170TIP3    H1 3474   2.752   2.581   2.406
 1170TIP3    H2 3475   2.633   2.488   2.421
 1171TIP3   OH2 3476   5.030   1.314   2.171
 1171TIP3    H1 3477   4.998   1.267   2.248
 1171TIP3    H2 3478   4.970   1.388   2.162
 1172TIP3   OH2 3479   3.625   3.253   2.676
 1172TIP3    H1 3480   3.594   3.167   2.703
 1172TIP3    H2 3481   3.668   3.239   2.592
 1173TIP3   OH2 3482   3.466   4.974   5.664
 1173TIP3    H1 3483   3.493   4.888   5.631
 1173TIP3    H2 3484   3.374   4.963   5.689
 1174TIP3   OH2 3485   4.563   0.895   5.191
 1174TIP3    H1 3486   4.567   0.948   5.112
 1174TIP3    H2 3487   4.569   0.804   5.160
 1175TIP3   OH2 3488   0.823   0.930   5.295
 1175TIP3    H1 3489   0.904   0.905   5.252
 1175TIP3    H2 3490   0.755   0.912   5.230
 1176TIP3   OH2 3491   2.448   2.823   3.410
 1176TIP3    H1 3492   2.482   2.830   3.499
 1176TIP3    H2 3493   2.436   2.914   3.382
 1177TIP3   OH2 3494   1.647   1.344   4.045
 1177TIP3    H1 3495   1.702   1.348   4.124
 1177TIP3    H2 3496   1.634   1.436   4.021
 1178TIP3   OH2 3497   1.284   1.785   4.104
 1178TIP3    H1 3498   1.328   1.756   4.185
 1178TIP3    H2 3499   1.256   1.704   4.062
 1179TIP3   OH2 3500   1.954   1.537   5.697
 1179TIP3    H1 3501   1.944   1.443   5.689
 1179TIP3    H2 3502   1.870   1.573   5.669
 1180TIP3   OH2 3503   1.861   5.922   4.429
 1180TIP3    H1 3504   1.811   5.876   4.362
 1180TIP3    H2 3505   1.893   6.001   4.385
 1181TIP3   OH2 3506   2.088   3.872   0.441
 1181TIP3    H1 3507   2.000   3.885   0.476
 1181TIP3    H2 3508   2.094   3.778   0.425
 1182TIP3   OH2 3509   0.613   0.229   1.341
 1182TIP3    H1 3510   0.530   0.186   1.357
 1182TIP3    H2 3511   0.590   0.315   1.306
 1183TIP3   OH2 3512   0.870   1.965   4.634
 1183TIP3    H1 3513   0.871   1.928   4.722
 1183TIP3    H2 3514   0.833   1.896   4.579
 1184TIP3   OH2 3515   6.917   1.581   3.976
 1184TIP3    H1 3516   6.892   1.504   4.027
 1184TIP3    H2 3517   6.861   1.651   4.009
 1185TIP3   OH2 3518   5.668   4.989  -0.028
 1185TIP3    H1 3519   5.603   4.921  -0.045
 1185TIP3    H2 3520   5.620   5.055   0.023
 1186TIP3   OH2 3521   5.346   4.202   2.981
 1186TIP3    H1 3522   5.370   4.258   2.908
 1186TIP3    H2 3523   5.409   4.224   3.050
 1187TIP3   OH2 3524   6.014   1.525   2.500
 1187TIP3    H1 3525   6.104   1.496   2.486
 1187TIP3    H2 3526   5.961   1.462   2.452
 1188TIP3   OH2 3527   6.676   6.663   0.396
 1188TIP3    H1 3528   6.616   6.589   0.407
 1188TIP3    H2 3529   6.628   6.738   0.432
 1189TIP3   OH2 3530   6.997   5.545   1.358
 1189TIP3    H1 3531   7.007   5.466   1.305
 1189TIP3    H2 3532   6.903   5.560   1.361
 1190TIP3   OH2 3533   5.919   4.628   5.674
 1190TIP3    H1 3534   5.940   4.540   5.643
 1190TIP3    H2 3535   5.996   4.654   5.726
 1191TIP3   OH2 3536   0.178   6.803   0.579
 1191TIP3    H1 3537   0.231   6.880   0.602
 1191TIP3    H2 3538   0.242   6.736   0.556
 1192TIP3   OH2 3539   6.498   1.249   0.827
 1192TIP3    H1 3540   6.501   1.185   0.898
 1192TIP3    H2 3541   6.513   1.198   0.747
 1193TIP3   OH2 3542   4.595   4.857   2.022
 1193TIP3    H1 3543   4.659   4.847   1.951
 1193TIP3    H2 3544   4.645   4.898   2.093
 1194TIP3   OH2 3545   5.655   4.127   1.963
 1194TIP3    H1 3546   5.637   4.153   1.873
 1194TIP3    H2 3547   5.656   4.210   2.012
 1195TIP3   OH2 3548   0.186   4.183   1.712
 1195TIP3    H1 3549   0.114   4.235   1.749
 1195TIP3    H2 3550   0.242   4.163   1.787
 1196TIP3   OH2 3551   3.012   6.312   3.313
 1196TIP3    H1 3552   2.950   6.370   3.357
 1196TIP3    H2 3553   2.958   6.244   3.274
 1197TIP3   OH2 3554   4.347   3.362   4.124
 1197TIP3    H1 3555   4.438   3.383   4.143
 1197TIP3    H2 3556   4.346   3.266   4.116
 1198TIP3   OH2 3557   1.225   2.795   1.548
 1198TIP3    H1 3558   1.286   2.722   1.553
 1198TIP3    H2 3559   1.224   2.819   1.455
 1199TIP3   OH2 3560   4.441   0.948   0.888
 1199TIP3    H1 3561   4.455   0.935   0.794
 1199TIP3    H2 3562   4.391   1.029   0.893
 1200TIP3   OH2 3563   0.224   3.998   3.738
 1200TIP3    H1 3564   0.297   3.974   3.795
 1200TIP3    H2 3565   0.262   4.060   3.676
 1201TIP3   OH2 3566   5.477   5.020   5.138
 1201TIP3    H1 3567   5.497   5.114   5.142
 1201TIP3    H2 3568   5.390   5.017   5.097
 1202TIP3   OH2 3569   1.567   0.384   5.650
 1202TIP3    H1 3570   1.501   0.453   5.648
 1202TIP3    H2 3571   1.650   0.431   5.663
 1203TIP3   OH2 3572   0.202   5.653   4.753
 1203TIP3    H1 3573   0.119   5.684   4.790
 1203TIP3    H2 3574   0.267   5.714   4.788
 1204TIP3   OH2 3575   3.921   3.391   3.255
 1204TIP3    H1 3576   3.863   3.457   3.293
 1204TIP3    H2 3577   3.971   3.438   3.189
 1205TIP3   OH2 3578   4.620   4.980   2.831
 1205TIP3    H1 3579   4.555   5.049   2.844
 1205TIP3    H2 3580   4.685   5.019   2.773
 1206TIP3   OH2 3581   3.158   4.365   1.707
 1206TIP3    H1 3582   3.223   4.300   1.679
 1206TIP3    H2 3583   3.207   4.447   1.712
 1207TIP3   OH2 3584   3.835   4.884   3.153
 1207TIP3    H1 3585   3.841   4.953   3.219
 1207TIP3    H2 3586   3.863   4.804   3.198
 1208TIP3   OH2 3587   1.456   1.159   4.670
 1208TIP3    H1 3588   1.433   1.100   4.741
 1208TIP3    H2 3589   1.398   1.234   4.681
 1209TIP3   OH2 3590   3.923   4.921   2.897
 1209TIP3    H1 3591   3.885   5.006   2.873
 1209TIP3    H2 3592   3.901   4.910   2.989
 1210TIP3   OH2 3593   4.073   2.193   5.161
 1210TIP3    H1 3594   4.129   2.270   5.148
 1210TIP3    H2 3595   4.128   2.119   5.136
 1211TIP3   OH2 3596   0.148   2.830   4.373
 1211TIP3    H1 3597   0.216   2.771   4.341
 1211TIP3    H2 3598   0.142   2.812   4.467
 1212TIP3   OH2 3599   5.590   3.240   4.125
 1212TIP3    H1 3600   5.684   3.255   4.112
 1212TIP3    H2 3601   5.566   3.177   4.058
 1213TIP3   OH2 3602   1.705   4.183   1.155
 1213TIP3    H1 3603   1.789   4.137   1.160
 1213TIP3    H2 3604   1.646   4.130   1.208
 1214TIP3   OH2 3605   0.674   2.458   5.764
 1214TIP3    H1 3606   0.769   2.444   5.766
 1214TIP3    H2 3607   0.659   2.511   5.686
 1215TIP3   OH2 3608   3.948   2.409   2.364
 1215TIP3    H1 3609   3.915   2.498   2.368
 1215TIP3    H2 3610   4.029   2.410   2.415
 1216TIP3   OH2 3611   4.694   2.035   0.534
 1216TIP3    H1 3612   4.779   2.067   0.565
 1216TIP3    H2 3613   4.704   2.031   0.439
 1217TIP3   OH2 3614   3.105   3.351   5.541
 1217TIP3    H1 3615   3.026   3.308   5.507
 1217TIP3    H2 3616   3.076   3.390   5.623
 1218TIP3   OH2 3617   2.340   5.494   1.497
 1218TIP3    H1 3618   2.357   5.586   1.480
 1218TIP3    H2 3619   2.348   5.485   1.592
 1219TIP3   OH2 3620   2.288  -0.040   2.800
 1219TIP3    H1 3621   2.210  -0.079   2.839
 1219TIP3    H2 3622   2.351  -0.036   2.872
 1220TIP3   OH2 3623   0.137   3.821   1.318
 1220TIP3    H1 3624   0.145   3.836   1.412
 1220TIP3    H2 3625   0.075   3.749   1.310
 1221TIP3   OH2 3626   5.643   4.908   2.587
 1221TIP3    H1 3627   5.716   4.899   2.526
 1221TIP3    H2 3628   5.650   4.997   2.621
 1222TIP3   OH2 3629   4.717   5.760   5.043
 1222TIP3    H1 3630   4.644   5.701   5.024
 1222TIP3    H2 3631   4.729   5.811   4.963
 1223TIP3   OH2 3632   3.850   4.591   3.653
 1223TIP3    H1 3633   3.813   4.655   3.593
 1223TIP3    H2 3634   3.943   4.590   3.633
 1224TIP3   OH2 3635   1.775   5.100   4.052
 1224TIP3    H1 3636   1.820   5.168   4.002
 1224TIP3    H2 3637   1.691   5.089   4.007
 1225TIP3   OH2 3638   4.649   2.278   4.795
 1225TIP3    H1 3639   4.618   2.236   4.715
 1225TIP3    H2 3640   4.667   2.368   4.770
 1226TIP3   OH2 3641   4.462   1.014   0.201
 1226TIP3    H1 3642   4.414   1.058   0.131
 1226TIP3    H2 3643   4.532   0.967   0.157
 1227TIP3   OH2 3644   3.972   6.008   2.048
 1227TIP3    H1 3645   3.886   6.048   2.037
 1227TIP3    H2 3646   3.993   5.970   1.962
 1228TIP3   OH2 3647   3.709   4.491   5.362
 1228TIP3    H1 3648   3.727   4.433   5.288
 1228TIP3    H2 3649   3.725   4.436   5.439
 1229TIP3   OH2 3650   6.388   3.325   3.445
 1229TIP3    H1 3651   6.464   3.326   3.387
 1229TIP3    H2 3652   6.320   3.280   3.395
 1230TIP3   OH2 3653   3.832   1.635   2.499
 1230TIP3    H1 3654   3.776   1.572   2.454
 1230TIP3    H2 3655   3.882   1.677   2.429
 1231TIP3   OH2 3656   2.041   3.021   5.380
 1231TIP3    H1 3657   1.991   2.994   5.303
 1231TIP3    H2 3658   2.017   3.112   5.393
 1232TIP3   OH2 3659   1.083   4.198   2.509
 1232TIP3    H1 3660   1.068   4.143   2.586
 1232TIP3    H2 3661   1.137   4.270   2.541
 1233TIP3   OH2 3662   6.339   1.294   3.292
 1233TIP3    H1 3663   6.287   1.356   3.343
 1233TIP3    H2 3664   6.305   1.208   3.318
 1234TIP3   OH2 3665   6.706   2.001   5.449
 1234TIP3    H1 3666   6.697   2.095   5.468
 1234TIP3    H2 3667   6.685   1.993   5.356
 1235TIP3   OH2 3668   4.092   3.796   3.760
 1235TIP3    H1 3669   3.998   3.808   3.773
 1235TIP3    H2 3670   4.098   3.715   3.708
 1236TIP3   OH2 3671   6.447   2.801   0.897
 1236TIP3    H1 3672   6.393   2.874   0.868
 1236TIP3    H2 3673   6.535   2.837   0.903
 1237TIP3   OH2 3674   4.469   2.676   2.537
 1237TIP3    H1 3675   4.471   2.744   2.604
 1237TIP3    H2 3676   4.549   2.625   2.551
 1238TIP3   OH2 3677   2.364   5.160   1.800
 1238TIP3    H1 3678   2.370   5.107   1.721
 1238TIP3    H2 3679   2.272   5.155   1.825
 1239TIP3   OH2 3680   3.776   6.671   2.210
 1239TIP3    H1 3681   3.845   6.707   2.153
 1239TIP3    H2 3682   3.696   6.678   2.157
 1240TIP3   OH2 3683   4.972   0.680   3.686
 1240TIP3    H1 3684   5.033   0.714   3.620
 1240TIP3    H2 3685   4.997   0.724   3.767
 1241TIP3   OH2 3686   2.348   2.523   0.710
 1241TIP3    H1 3687   2.356   2.618   0.702
 1241TIP3    H2 3688   2.255   2.505   0.697
 1242TIP3   OH2 3689   3.553   0.306   2.759
 1242TIP3    H1 3690   3.604   0.226   2.749
 1242TIP3    H2 3691   3.500   0.291   2.837
 1243TIP3   OH2 3692   3.480   1.129   4.851
 1243TIP3    H1 3693   3.529   1.161   4.926
 1243TIP3    H2 3694   3.409   1.193   4.840
 1244TIP3   OH2 3695   6.363   5.569   5.788
 1244TIP3    H1 3696   6.433   5.517   5.749
 1244TIP3    H2 3697   6.294   5.505   5.808
 1245TIP3   OH2 3698   0.876   3.517   5.288
 1245TIP3    H1 3699   0.885   3.422   5.297
 1245TIP3    H2 3700   0.814   3.542   5.356
 1246TIP3   OH2 3701   1.273   1.746   1.683
 1246TIP3    H1 3702   1.360   1.742   1.642
 1246TIP3    H2 3703   1.288   1.790   1.767
 1247TIP3   OH2 3704   3.227   1.737   0.172
 1247TIP3    H1 3705   3.137   1.768   0.158
 1247TIP3    H2 3706   3.282   1.812   0.151
 1248TIP3   OH2 3707   2.227   6.061   4.440
 1248TIP3    H1 3708   2.293   6.129   4.427
 1248TIP3    H2 3709   2.275   5.979   4.426
 1249TIP3   OH2 3710   1.131   0.761   3.803
 1249TIP3    H1 3711   1.109   0.759   3.896
 1249TIP3    H2 3712   1.149   0.853   3.785
 1250TIP3   OH2 3713   5.757   5.282   1.910
 1250TIP3    H1 3714   5.703   5.211   1.876
 1250TIP3    H2 3715   5.699   5.332   1.966
 1251TIP3   OH2 3716   2.885   0.325   5.058
 1251TIP3    H1 3717   2.944   0.256   5.028
 1251TIP3    H2 3718   2.861   0.299   5.147
 1252TIP3   OH2 3719   6.841   3.395   0.975
 1252TIP3    H1 3720   6.933   3.368   0.978
 1252TIP3    H2 3721   6.801   3.338   0.909
 1253TIP3   OH2 3722   3.478   4.819   0.338
 1253TIP3    H1 3723   3.483   4.887   0.271
 1253TIP3    H2 3724   3.388   4.787   0.334
 1254TIP3   OH2 3725   2.004   3.617   0.874
 1254TIP3    H1 3726   2.068   3.625   0.944
 1254TIP3    H2 3727   1.989   3.523   0.866
 1255TIP3   OH2 3728   0.762   6.486   4.018
 1255TIP3    H1 3729   0.693   6.540   3.980
 1255TIP3    H2 3730   0.826   6.549   4.052
 1256TIP3   OH2 3731   2.183   5.987   3.173
 1256TIP3    H1 3732   2.094   5.954   3.183
 1256TIP3    H2 3733   2.223   5.930   3.107
 1257TIP3   OH2 3734   3.923   1.613   0.910
 1257TIP3    H1 3735   3.932   1.609   1.005
 1257TIP3    H2 3736   3.841   1.565   0.892
 1258TIP3   OH2 3737   3.930   0.907   5.343
 1258TIP3    H1 3738   3.880   0.831   5.314
 1258TIP3    H2 3739   4.005   0.911   5.284
 1259TIP3   OH2 3740   1.737   5.638   2.816
 1259TIP3    H1 3741   1.663   5.699   2.818
 1259TIP3    H2 3742   1.789   5.666   2.741
 1260TIP3   OH2 3743   2.115   6.251   3.160
 1260TIP3    H1 3744   2.129   6.160   3.185
 1260TIP3    H2 3745   2.154   6.258   3.073
 1261TIP3   OH2 3746   2.639   3.439   1.152
 1261TIP3    H1 3747   2.729   3.421   1.179
 1261TIP3    H2 3748   2.634   3.406   1.062
 1262TIP3   OH2 3749   3.926   6.641   1.098
 1262TIP3    H1 3750   3.845   6.591   1.102
 1262TIP3    H2 3751   3.917   6.698   1.022
 1263TIP3   OH2 3752   2.150   0.628   3.249
 1263TIP3    H1 3753   2.169   0.701   3.307
 1263TIP3    H2 3754   2.176   0.550   3.299
 1264TIP3   OH2 3755   2.958   3.797   0.643
 1264TIP3    H1 3756   3.037   3.816   0.594
 1264TIP3    H2 3757   2.952   3.868   0.707
 1265TIP3   OH2 3758   6.757   2.775   1.519
 1265TIP3    H1 3759   6.816   2.707   1.552
 1265TIP3    H2 3760   6.758   2.843   1.586
 1266TIP3   OH2 3761   4.723   3.959   4.118
 1266TIP3    H1 3762   4.649   3.899   4.121
 1266TIP3    H2 3763   4.799   3.905   4.138
 1267TIP3   OH2 3764   5.804   2.505   5.788
 1267TIP3    H1 3765   5.789   2.459   5.705
 1267TIP3    H2 3766   5.898   2.493   5.805
 1268TIP3   OH2 3767   5.663   3.875   3.510
 1268TIP3    H1 3768   5.623   3.932   3.576
 1268TIP3    H2 3769   5.592   3.816   3.483
 1269TIP3   OH2 3770   2.676   2.030   0.875
 1269TIP3    H1 3771   2.638   2.036   0.787
 1269TIP3    H2 3772   2.749   2.093   0.874
 1270TIP3   OH2 3773   4.026   3.225   2.195
 1270TIP3    H1 3774   3.934   3.237   2.169
 1270TIP3    H2 3775   4.022   3.212   2.290
 1271TIP3   OH2 3776   4.196   3.119   1.793
 1271TIP3    H1 3777   4.162   3.194   1.745
 1271TIP3    H2 3778   4.155   3.043   1.752
 1272TIP3   OH2 3779   3.767   5.135   4.690
 1272TIP3    H1 3780   3.753   5.086   4.771
 1272TIP3    H2 3781   3.685   5.127   4.642
 1273TIP3   OH2 3782   1.541   1.111   3.458
 1273TIP3    H1 3783   1.561   1.061   3.537
 1273TIP3    H2 3784   1.621   1.161   3.440
 1274TIP3   OH2 3785   4.471   2.031   5.838
 1274TIP3    H1 3786   4.517   1.955   5.874
 1274TIP3    H2 3787   4.380   2.002   5.831
 1275TIP3   OH2 3788   2.973   6.054   0.562
 1275TIP3    H1 3789   2.929   5.986   0.512
 1275TIP3    H2 3790   2.907   6.086   0.623
 1276TIP3   OH2 3791   4.907   1.126   3.966
 1276TIP3    H1 3792   4.884   1.210   4.004
 1276TIP3    H2 3793   4.838   1.109   3.902
 1277TIP3   OH2 3794   4.402   2.553   1.329
 1277TIP3    H1 3795   4.469   2.496   1.291
 1277TIP3    H2 3796   4.402   2.631   1.274
 1278TIP3   OH2 3797   6.835   5.666   4.094
 1278TIP3    H1 3798   6.768   5.626   4.039
 1278TIP3    H2 3799   6.840   5.611   4.171
 1279TIP3   OH2 3800   7.092   3.734   4.257
 1279TIP3    H1 3801   7.151   3.661   4.274
 1279TIP3    H2 3802   7.045   3.708   4.177
 1280TIP3   OH2 3803   3.133   0.570   2.722
 1280TIP3    H1 3804   3.180   0.644   2.682
 1280TIP3    H2 3805   3.140   0.500   2.657
 1281TIP3   OH2 3806   0.085   4.884   0.896
 1281TIP3    H1 3807   0.151   4.894   0.827
 1281TIP3    H2 3808   0.106   4.952   0.959
 1282TIP3   OH2 3809   5.346   2.259   4.441
 1282TIP3    H1 3810   5.416   2.275   4.378
 1282TIP3    H2 3811   5.386   2.203   4.508
 1283TIP3   OH2 3812   4.371   3.979   4.720
 1283TIP3    H1 3813   4.281   4.013   4.722
 1283TIP3    H2 3814   4.390   3.966   4.627
 1284TIP3   OH2 3815   1.143   3.269   4.966
 1284TIP3    H1 3816   1.170   3.336   5.030
 1284TIP3    H2 3817   1.057   3.241   4.995
 1285TIP3   OH2 3818   5.834   2.069   4.259
 1285TIP3    H1 3819   5.903   2.121   4.299
 1285TIP3    H2 3820   5.859   1.978   4.278
 1286TIP3   OH2 3821   2.133   4.944   0.889
 1286TIP3    H1 3822   2.179   5.012   0.938
 1286TIP3    H2 3823   2.057   4.988   0.852
 1287TIP3   OH2 3824   4.102   6.118   4.840
 1287TIP3    H1 3825   4.085   6.045   4.780
 1287TIP3    H2 3826   4.019   6.167   4.843
 1288TIP3   OH2 3827   4.138   1.344   4.074
 1288TIP3    H1 3828   4.202   1.274   4.059
 1288TIP3    H2 3829   4.055   1.299   4.089
 1289TIP3   OH2 3830   6.472   0.603   2.248
 1289TIP3    H1 3831   6.507   0.590   2.160
 1289TIP3    H2 3832   6.398   0.542   2.253
 1290TIP3   OH2 3833   4.307   3.378   2.263
 1290TIP3    H1 3834   4.352   3.425   2.334
 1290TIP3    H2 3835   4.305   3.287   2.293
 1291TIP3   OH2 3836   0.451   0.461   0.613
 1291TIP3    H1 3837   0.536   0.496   0.586
 1291TIP3    H2 3838   0.425   0.518   0.686
 1292TIP3   OH2 3839   0.275   3.718   5.516
 1292TIP3    H1 3840   0.181   3.725   5.497
 1292TIP3    H2 3841   0.278   3.662   5.594
 1293TIP3   OH2 3842   3.233   1.291   4.479
 1293TIP3    H1 3843   3.247   1.378   4.517
 1293TIP3    H2 3844   3.300   1.283   4.411
 1294TIP3   OH2 3845   1.779   1.572   1.611
 1294TIP3    H1 3846   1.734   1.494   1.578
 1294TIP3    H2 3847   1.739   1.645   1.563
 1295TIP3   OH2 3848   4.395   0.428   3.537
 1295TIP3    H1 3849   4.449   0.366   3.586
 1295TIP3    H2 3850   4.408   0.405   3.445
 1296TIP3   OH2 3851   5.796   2.816   4.973
 1296TIP3    H1 3852   5.712   2.786   5.007
 1296TIP3    H2 3853   5.844   2.848   5.049
 1297TIP3   OH2 3854   6.598   6.258   0.310
 1297TIP3    H1 3855   6.572   6.346   0.336
 1297TIP3    H2 3856   6.523   6.224   0.261
 1298TIP3   OH2 3857   0.278   5.108   0.151
 1298TIP3    H1 3858   0.208   5.156   0.195
 1298TIP3    H2 3859   0.235   5.031   0.114
 1299TIP3   OH2 3860   0.586   0.721   2.940
 1299TIP3    H1 3861   0.660   0.686   2.991
 1299TIP3    H2 3862   0.529   0.646   2.927
 1300TIP3   OH2 3863   5.574   4.352   4.248
 1300TIP3    H1 3864   5.594   4.386   4.335
 1300TIP3    H2 3865   5.483   4.322   4.254
 1301TIP3   OH2 3866   6.136   6.736   2.387
 1301TIP3    H1 3867   6.078   6.764   2.458
 1301TIP3    H2 3868   6.110   6.646   2.369
 1302TIP3   OH2 3869   5.094   3.283   3.010
 1302TIP3    H1 3870   5.075   3.344   3.081
 1302TIP3    H2 3871   5.163   3.226   3.045
 1303TIP3   OH2 3872   5.162   3.476   4.915
 1303TIP3    H1 3873   5.114   3.450   4.837
 1303TIP3    H2 3874   5.252   3.449   4.898
 1304TIP3   OH2 3875   3.287   3.808   1.554
 1304TIP3    H1 3876   3.261   3.863   1.627
 1304TIP3    H2 3877   3.253   3.721   1.575
 1305TIP3   OH2 3878   1.052   0.321   2.110
 1305TIP3    H1 3879   1.043   0.302   2.017
 1305TIP3    H2 3880   1.061   0.417   2.114
 1306TIP3   OH2 3881   3.065   3.927   0.271
 1306TIP3    H1 3882   3.125   3.880   0.329
 1306TIP3    H2 3883   2.978   3.900   0.299
 1307TIP3   OH2 3884   1.316   5.380   5.072
 1307TIP3    H1 3885   1.320   5.351   4.980
 1307TIP3    H2 3886   1.406   5.370   5.103
 1308TIP3   OH2 3887   4.231   1.885   1.992
 1308TIP3    H1 3888   4.318   1.881   1.950
 1308TIP3    H2 3889   4.193   1.799   1.976
 1309TIP3   OH2 3890   6.444   5.964   3.415
 1309TIP3    H1 3891   6.475   5.953   3.505
 1309TIP3    H2 3892   6.353   5.935   3.418
 1310TIP3   OH2 3893   7.129   0.423   0.914
 1310TIP3    H1 3894   7.135   0.333   0.946
 1310TIP3    H2 3895   7.041   0.452   0.940
 1311TIP3   OH2 3896   6.588   4.851   1.992
 1311TIP3    H1 3897   6.517   4.915   1.987
 1311TIP3    H2 3898   6.599   4.820   1.903
 1312TIP3   OH2 3899   5.780   0.466   4.910
 1312TIP3    H1 3900   5.743   0.423   4.987
 1312TIP3    H2 3901   5.768   0.402   4.840
 1313TIP3   OH2 3902   6.657   5.951   3.068
 1313TIP3    H1 3903   6.682   6.023   3.126
 1313TIP3    H2 3904   6.675   5.984   2.980
 1314TIP3   OH2 3905   3.405   0.331   0.804
 1314TIP3    H1 3906   3.494   0.305   0.828
 1314TIP3    H2 3907   3.414   0.421   0.773
 1315TIP3   OH2 3908   1.719   4.807   5.096
 1315TIP3    H1 3909   1.677   4.876   5.044
 1315TIP3    H2 3910   1.714   4.729   5.040
 1316TIP3   OH2 3911   0.851   2.959   0.612
 1316TIP3    H1 3912   0.838   3.053   0.605
 1316TIP3    H2 3913   0.922   2.949   0.675
 1317TIP3   OH2 3914   1.781   5.234   2.845
 1317TIP3    H1 3915   1.853   5.182   2.808
 1317TIP3    H2 3916   1.716   5.239   2.774
 1318TIP3   OH2 3917   0.602   2.354   2.263
 1318TIP3    H1 3918   0.601   2.434   2.212
 1318TIP3    H2 3919   0.649   2.377   2.343
 1319TIP3   OH2 3920   6.952   4.691   2.791
 1319TIP3    H1 3921   7.011   4.625   2.753
 1319TIP3    H2 3922   6.870   4.645   2.804
 1320TIP3   OH2 3923   1.634   0.720   2.773
 1320TIP3    H1 3924   1.688   0.788   2.733
 1320TIP3    H2 3925   1.544   0.744   2.749
 1321TIP3   OH2 3926   1.390   6.793   4.454
 1321TIP3    H1 3927   1.303   6.834   4.456
 1321TIP3    H2 3928   1.419   6.795   4.545
 1322TIP3   OH2 3929   4.324   6.517   4.989
 1322TIP3    H1 3930   4.315   6.424   5.006
 1322TIP3    H2 3931   4.252   6.557   5.038
 1323TIP3   OH2 3932   4.817   3.529   0.914
 1323TIP3    H1 3933   4.769   3.447   0.906
 1323TIP3    H2 3934   4.756   3.596   0.883
 1324TIP3   OH2 3935   0.777   1.226   4.888
 1324TIP3    H1 3936   0.706   1.277   4.849
 1324TIP3    H2 3937   0.853   1.285   4.886
 1325TIP3   OH2 3938   3.538   5.787   5.865
 1325TIP3    H1 3939   3.580   5.740   5.794
 1325TIP3    H2 3940   3.445   5.782   5.846
 1326TIP3   OH2 3941   6.968   1.272   1.234
 1326TIP3    H1 3942   6.929   1.248   1.318
 1326TIP3    H2 3943   6.897   1.264   1.171
 1327TIP3   OH2 3944   1.328   3.545   5.416
 1327TIP3    H1 3945   1.249   3.546   5.470
 1327TIP3    H2 3946   1.400   3.537   5.479
 1328TIP3   OH2 3947   5.573   5.633   3.420
 1328TIP3    H1 3948   5.615   5.719   3.425
 1328TIP3    H2 3949   5.610   5.584   3.493
 1329TIP3   OH2 3950   3.006   5.655   3.645
 1329TIP3    H1 3951   2.966   5.741   3.655
 1329TIP3    H2 3952   2.951   5.610   3.580
 1330TIP3   OH2 3953   5.817   2.933   0.291
 1330TIP3    H1 3954   5.814   2.837   0.292
 1330TIP3    H2 3955   5.784   2.959   0.377
 1331TIP3   OH2 3956   1.617   5.584   2.184
 1331TIP3    H1 3957   1.538   5.601   2.236
 1331TIP3    H2 3958   1.591   5.515   2.123
 1332TIP3   OH2 3959   6.264   6.651   3.309
 1332TIP3    H1 3960   6.315   6.629   3.230
 1332TIP3    H2 3961   6.329   6.659   3.378
 1333TIP3   OH2 3962   0.487   4.428   2.963
 1333TIP3    H1 3963   0.514   4.484   3.036
 1333TIP3    H2 3964   0.417   4.373   2.998
 1334TIP3   OH2 3965   5.524   3.345   1.046
 1334TIP3    H1 3966   5.606   3.380   1.010
 1334TIP3    H2 3967   5.539   3.343   1.140
 1335TIP3   OH2 3968   1.133   6.786   4.757
 1335TIP3    H1 3969   1.132   6.719   4.689
 1335TIP3    H2 3970   1.225   6.802   4.773
 1336TIP3   OH2 3971   5.182   2.892   3.798
 1336TIP3    H1 3972   5.112   2.919   3.740
 1336TIP3    H2 3973   5.248   2.853   3.741
 1337TIP3   OH2 3974   1.904   1.597   0.317
 1337TIP3    H1 3975   1.931   1.534   0.250
 1337TIP3    H2 3976   1.974   1.593   0.383
 1338TIP3   OH2 3977   2.113   2.484   3.675
 1338TIP3    H1 3978   2.080   2.570   3.702
 1338TIP3    H2 3979   2.081   2.424   3.742
 1339TIP3   OH2 3980   4.352   0.508   3.940
 1339TIP3    H1 3981   4.328   0.417   3.922
 1339TIP3    H2 3982   4.438   0.519   3.899
 1340TIP3   OH2 3983   1.030   6.704   0.859
 1340TIP3    H1 3984   0.994   6.676   0.943
 1340TIP3    H2 3985   0.957   6.750   0.816
 1341TIP3   OH2 3986   2.998   0.490   2.318
 1341TIP3    H1 3987   3.056   0.443   2.378
 1341TIP3    H2 3988   2.911   0.483   2.358
 1342TIP3   OH2 3989   4.540   3.950   0.675
 1342TIP3    H1 3990   4.579   3.906   0.600
 1342TIP3    H2 3991   4.447   3.954   0.655
 1343TIP3   OH2 3992   5.950   0.370   0.791
 1343TIP3    H1 3993   6.029   0.393   0.838
 1343TIP3    H2 3994   5.948   0.430   0.716
 1344TIP3   OH2 3995   4.399   2.675   1.090
 1344TIP3    H1 3996   4.328   2.698   1.030
 1344TIP3    H2 3997   4.467   2.739   1.071
 1345TIP3   OH2 3998   6.269   6.647   5.123
 1345TIP3    H1 3999   6.186   6.644   5.170
 1345TIP3    H2 4000   6.284   6.740   5.107
 1346TIP3   OH2 4001   7.234   1.889   3.074
 1346TIP3    H1 4002   7.295   1.945   3.026
 1346TIP3    H2 4003   7.152   1.939   3.077
 1347TIP3   OH2 4004   5.109   2.302   2.188
 1347TIP3    H1 4005   5.086   2.395   2.194
 1347TIP3    H2 4006   5.163   2.296   2.109
 1348TIP3   OH2 4007   1.225   4.690   2.492
 1348TIP3    H1 4008   1.270   4.773   2.481
 1348TIP3    H2 4009   1.170   4.702   2.569
 1349TIP3   OH2 4010   2.191   3.367   3.642
 1349TIP3    H1 4011   2.263   3.411   3.597
 1349TIP3    H2 4012   2.211   3.377   3.735
 1350TIP3   OH2 4013   2.519   6.592   1.915
 1350TIP3    H1 4014   2.590   6.623   1.971
 1350TIP3    H2 4015   2.471   6.671   1.891
 1351TIP3   OH2 4016   2.730   0.888   4.733
 1351TIP3    H1 4017   2.658   0.949   4.717
 1351TIP3    H2 4018   2.795   0.909   4.665
 1352TIP3   OH2 4019   5.299   0.877   0.344
 1352TIP3    H1 4020   5.233   0.938   0.377
 1352TIP3    H2 4021   5.285   0.875   0.250
 1353TIP3   OH2 4022   5.525   1.377   5.790
 1353TIP3    H1 4023   5.534   1.471   5.771
 1353TIP3    H2 4024   5.542   1.334   5.706
 1354TIP3   OH2 4025   3.280   3.613   4.083
 1354TIP3    H1 4026   3.229   3.613   4.164
 1354TIP3    H2 4027   3.215   3.596   4.014
 1355TIP3   OH2 4028   3.663   4.967   4.890
 1355TIP3    H1 4029   3.596   4.915   4.934
 1355TIP3    H2 4030   3.732   4.977   4.956
 1356TIP3   OH2 4031   0.556   3.326   1.830
 1356TIP3    H1 4032   0.540   3.417   1.809
 1356TIP3    H2 4033   0.481   3.279   1.794
 1357TIP3   OH2 4034   5.196   0.262   3.967
 1357TIP3    H1 4035   5.221   0.329   4.030
 1357TIP3    H2 4036   5.211   0.302   3.881
 1358TIP3   OH2 4037   3.287   6.426   5.532
 1358TIP3    H1 4038   3.261   6.452   5.444
 1358TIP3    H2 4039   3.379   6.402   5.524
 1359TIP3   OH2 4040   4.830   1.952   0.275
 1359TIP3    H1 4041   4.840   1.936   0.182
 1359TIP3    H2 4042   4.737   1.941   0.292
 1360TIP3   OH2 4043   4.455   2.218   2.796
 1360TIP3    H1 4044   4.411   2.135   2.776
 1360TIP3    H2 4045   4.469   2.259   2.711
 1361TIP3   OH2 4046   5.477   2.760   1.722
 1361TIP3    H1 4047   5.550   2.718   1.768
 1361TIP3    H2 4048   5.448   2.830   1.780
 1362TIP3   OH2 4049   6.909   0.521   1.048
 1362TIP3    H1 4050   6.949   0.606   1.067
 1362TIP3    H2 4051   6.877   0.529   0.958
 1363TIP3   OH2 4052   3.130   3.206   5.171
 1363TIP3    H1 4053   3.090   3.284   5.133
 1363TIP3    H2 4054   3.189   3.173   5.103
 1364TIP3   OH2 4055   3.748   0.385   2.061
 1364TIP3    H1 4056   3.786   0.369   1.975
 1364TIP3    H2 4057   3.787   0.467   2.090
 1365TIP3   OH2 4058   1.188   1.568   3.226
 1365TIP3    H1 4059   1.131   1.643   3.206
 1365TIP3    H2 4060   1.188   1.517   3.145
 1366TIP3   OH2 4061   0.786   6.751   1.336
 1366TIP3    H1 4062   0.694   6.732   1.315
 1366TIP3    H2 4063   0.824   6.666   1.355
 1367TIP3   OH2 4064   5.121   1.585   4.284
 1367TIP3    H1 4065   5.028   1.570   4.267
 1367TIP3    H2 4066   5.132   1.561   4.376
 1368TIP3   OH2 4067   5.901   5.509   1.472
 1368TIP3    H1 4068   5.870   5.598   1.485
 1368TIP3    H2 4069   5.894   5.468   1.559
 1369TIP3   OH2 4070   3.783   5.966   3.056
 1369TIP3    H1 4071   3.724   5.927   3.121
 1369TIP3    H2 4072   3.786   6.058   3.080
 1370TIP3   OH2 4073   0.776   0.772   4.635
 1370TIP3    H1 4074   0.826   0.776   4.717
 1370TIP3    H2 4075   0.843   0.779   4.566
 1371TIP3   OH2 4076   2.704   4.955   3.052
 1371TIP3    H1 4077   2.798   4.962   3.070
 1371TIP3    H2 4078   2.686   4.861   3.051
 1372TIP3   OH2 4079   3.063   4.419   4.026
 1372TIP3    H1 4080   3.156   4.437   4.037
 1372TIP3    H2 4081   3.058   4.364   3.948
 1373TIP3   OH2 4082   6.653   1.610   2.944
 1373TIP3    H1 4083   6.607   1.693   2.952
 1373TIP3    H2 4084   6.601   1.548   2.995
 1374TIP3   OH2 4085   1.482   6.475   0.138
 1374TIP3    H1 4086   1.574   6.473   0.165
 1374TIP3    H2 4087   1.454   6.565   0.154
 1375TIP3   OH2 4088   4.398   0.410   5.018
 1375TIP3    H1 4089   4.382   0.428   4.925
 1375TIP3    H2 4090   4.448   0.328   5.018
 1376TIP3   OH2 4091   5.348   6.794   3.706
 1376TIP3    H1 4092   5.300   6.771   3.785
 1376TIP3    H2 4093   5.289   6.769   3.635
 1377TIP3   OH2 4094   5.681   4.171   2.373
 1377TIP3    H1 4095   5.588   4.190   2.361
 1377TIP3    H2 4096   5.708   4.230   2.443
 1378TIP3   OH2 4097   7.063   5.565   5.663
 1378TIP3    H1 4098   7.075   5.627   5.590
 1378TIP3    H2 4099   6.969   5.569   5.682
 1379TIP3   OH2 4100   3.613   3.406   3.632
 1379TIP3    H1 4101   3.677   3.476   3.621
 1379TIP3    H2 4102   3.583   3.414   3.723
 1380TIP3   OH2 4103   4.067   0.044   2.453
 1380TIP3    H1 4104   4.020  -0.010   2.390
 1380TIP3    H2 4105   4.021   0.030   2.536
 1381TIP3   OH2 4106   4.857   5.192   3.165
 1381TIP3    H1 4107   4.845   5.185   3.070
 1381TIP3    H2 4108   4.837   5.283   3.185
 1382TIP3   OH2 4109   0.815   3.856   5.784
 1382TIP3    H1 4110   0.773   3.928   5.830
 1382TIP3    H2 4111   0.747   3.820   5.727
 1383TIP3   OH2 4112   7.178   6.544   1.728
 1383TIP3    H1 4113   7.201   6.614   1.789
 1383TIP3    H2 4114   7.104   6.499   1.770
 1384TIP3   OH2 4115   2.470   4.277   0.869
 1384TIP3    H1 4116   2.420   4.201   0.839
 1384TIP3    H2 4117   2.404   4.337   0.904
 1385TIP3   OH2 4118   3.150   1.611   4.887
 1385TIP3    H1 4119   3.179   1.524   4.859
 1385TIP3    H2 4120   3.206   1.632   4.963
 1386TIP3   OH2 4121   1.587   1.792   0.714
 1386TIP3    H1 4122   1.624   1.783   0.626
 1386TIP3    H2 4123   1.506   1.842   0.700
 1387TIP3   OH2 4124   7.005   3.321   5.207
 1387TIP3    H1 4125   6.910   3.309   5.200
 1387TIP3    H2 4126   7.019   3.345   5.298
 1388TIP3   OH2 4127   6.300   3.686   2.874
 1388TIP3    H1 4128   6.285   3.596   2.846
 1388TIP3    H2 4129   6.212   3.720   2.890
 1389TIP3   OH2 4130   0.676   1.773   0.488
 1389TIP3    H1 4131   0.765   1.797   0.462
 1389TIP3    H2 4132   0.623   1.791   0.410
 1390TIP3   OH2 4133   0.052   1.491   0.979
 1390TIP3    H1 4134   0.139   1.491   0.939
 1390TIP3    H2 4135   0.047   1.408   1.026
 1391TIP3   OH2 4136   3.220   3.846   0.979
 1391TIP3    H1 4137   3.233   3.792   0.901
 1391TIP3    H2 4138   3.263   3.929   0.958
 1392TIP3   OH2 4139   6.346   2.100   2.435
 1392TIP3    H1 4140   6.342   2.012   2.473
 1392TIP3    H2 4141   6.254   2.125   2.424
 1393TIP3   OH2 4142   1.446   6.419   2.074
 1393TIP3    H1 4143   1.382   6.433   2.004
 1393TIP3    H2 4144   1.531   6.428   2.030
 1394TIP3   OH2 4145   0.732   3.107   1.068
 1394TIP3    H1 4146   0.664   3.134   1.130
 1394TIP3    H2 4147   0.727   3.173   0.998
 1395TIP3   OH2 4148   6.118   6.064   2.010
 1395TIP3    H1 4149   6.044   6.005   1.993
 1395TIP3    H2 4150   6.186   6.007   2.048
 1396TIP3   OH2 4151   0.580   0.891   2.296
 1396TIP3    H1 4152   0.525   0.937   2.360
 1396TIP3    H2 4153   0.555   0.799   2.306
 1397TIP3   OH2 4154   0.326   6.779   1.332
 1397TIP3    H1 4155   0.315   6.873   1.351
 1397TIP3    H2 4156   0.255   6.759   1.271
 1398TIP3   OH2 4157   0.577   0.950   1.412
 1398TIP3    H1 4158   0.508   0.926   1.474
 1398TIP3    H2 4159   0.541   1.025   1.365
 1399TIP3   OH2 4160   1.747   3.014   4.353
 1399TIP3    H1 4161   1.750   3.049   4.264
 1399TIP3    H2 4162   1.677   2.948   4.351
 1400TIP3   OH2 4163   1.213   6.635   2.253
 1400TIP3    H1 4164   1.118   6.632   2.244
 1400TIP3    H2 4165   1.235   6.726   2.234
 1401TIP3   OH2 4166   0.819   4.712   4.520
 1401TIP3    H1 4167   0.762   4.652   4.569
 1401TIP3    H2 4168   0.830   4.787   4.578
 1402TIP3   OH2 4169   2.295   6.516   4.406
 1402TIP3    H1 4170   2.217   6.461   4.413
 1402TIP3    H2 4171   2.357   6.479   4.469
 1403TIP3   OH2 4172  -0.020   5.481   0.528
 1403TIP3    H1 4173   0.043   5.544   0.565
 1403TIP3    H2 4174   0.012   5.396   0.557
 1404TIP3   OH2 4175   2.031   2.768   0.218
 1404TIP3    H1 4176   2.018   2.702   0.150
 1404TIP3    H2 4177   1.955   2.757   0.276
 1405TIP3   OH2 4178   6.095   2.528   4.738
 1405TIP3    H1 4179   6.069   2.619   4.749
 1405TIP3    H2 4180   6.184   2.532   4.704
 1406TIP3   OH2 4181   4.682   1.975   0.798
 1406TIP3    H1 4182   4.658   1.974   0.705
 1406TIP3    H2 4183   4.676   2.066   0.824
 1407TIP3   OH2 4184   1.172   5.572   3.049
 1407TIP3    H1 4185   1.211   5.488   3.028
 1407TIP3    H2 4186   1.094   5.550   3.100
 1408TIP3   OH2 4187   1.168   3.143   3.702
 1408TIP3    H1 4188   1.194   3.162   3.611
 1408TIP3    H2 4189   1.099   3.078   3.693
 1409TIP3   OH2 4190   3.990   5.463   2.874
 1409TIP3    H1 4191   4.041   5.544   2.869
 1409TIP3    H2 4192   4.054   5.395   2.898
 1410TIP3   OH2 4193   3.648   2.191   4.251
 1410TIP3    H1 4194   3.583   2.256   4.226
 1410TIP3    H2 4195   3.693   2.168   4.169
 1411TIP3   OH2 4196   6.815   4.354   4.041
 1411TIP3    H1 4197   6.742   4.313   4.088
 1411TIP3    H2 4198   6.775   4.423   3.989
 1412TIP3   OH2 4199   4.341   5.918   2.306
 1412TIP3    H1 4200   4.405   5.852   2.280
 1412TIP3    H2 4201   4.336   5.911   2.401
 1413TIP3   OH2 4202   2.761   1.716   3.696
 1413TIP3    H1 4203   2.854   1.706   3.679
 1413TIP3    H2 4204   2.750   1.689   3.788
 1414TIP3   OH2 4205   5.654   4.256   1.184
 1414TIP3    H1 4206   5.685   4.334   1.138
 1414TIP3    H2 4207   5.617   4.290   1.265
 1415TIP3   OH2 4208   2.315   2.212   5.900
 1415TIP3    H1 4209   2.228   2.198   5.862
 1415TIP3    H2 4210   2.368   2.245   5.827
 1416TIP3   OH2 4211   0.964   4.322   2.727
 1416TIP3    H1 4212   0.990   4.411   2.701
 1416TIP3    H2 4213   0.938   4.330   2.818
 1417TIP3   OH2 4214   3.171   3.662   1.170
 1417TIP3    H1 4215   3.178   3.716   1.091
 1417TIP3    H2 4216   3.258   3.664   1.208
 1418TIP3   OH2 4217   4.219   4.925   4.836
 1418TIP3    H1 4218   4.195   5.015   4.815
 1418TIP3    H2 4219   4.160   4.871   4.785
 1419TIP3   OH2 4220   1.329   2.301   5.411
 1419TIP3    H1 4221   1.336   2.293   5.316
 1419TIP3    H2 4222   1.348   2.393   5.430
 1420TIP3   OH2 4223   5.154   6.552   3.252
 1420TIP3    H1 4224   5.227   6.609   3.228
 1420TIP3    H2 4225   5.195   6.473   3.286
 1421TIP3   OH2 4226   1.252   0.120   1.218
 1421TIP3    H1 4227   1.298   0.184   1.164
 1421TIP3    H2 4228   1.215   0.058   1.155
 1422TIP3   OH2 4229   6.146   5.217   3.693
 1422TIP3    H1 4230   6.174   5.256   3.610
 1422TIP3    H2 4231   6.076   5.157   3.669
 1423TIP3   OH2 4232   2.684   4.272   3.400
 1423TIP3    H1 4233   2.611   4.332   3.381
 1423TIP3    H2 4234   2.646   4.205   3.456
 1424TIP3   OH2 4235   6.486   3.426   0.583
 1424TIP3    H1 4236   6.415   3.386   0.533
 1424TIP3    H2 4237   6.476   3.520   0.567
 1425TIP3   OH2 4238   4.382   0.836   0.404
 1425TIP3    H1 4239   4.460   0.781   0.393
 1425TIP3    H2 4240   4.389   0.900   0.333
 1426TIP3   OH2 4241   6.086   0.791   3.190
 1426TIP3    H1 4242   6.068   0.736   3.113
 1426TIP3    H2 4243   6.172   0.829   3.172
 1427TIP3   OH2 4244   6.102   2.102   3.865
 1427TIP3    H1 4245   6.175   2.110   3.804
 1427TIP3    H2 4246   6.130   2.036   3.928
 1428TIP3   OH2 4247   0.011   6.646   4.940
 1428TIP3    H1 4248   0.042   6.698   5.014
 1428TIP3    H2 4249   0.055   6.562   4.950
 1429TIP3   OH2 4250   6.165   4.999  -0.048
 1429TIP3    H1 4251   6.187   5.076  -0.101
 1429TIP3    H2 4252   6.213   5.011   0.033
 1430TIP3   OH2 4253   5.111   4.019   5.027
 1430TIP3    H1 4254   5.087   3.997   5.117
 1430TIP3    H2 4255   5.179   4.085   5.035
 1431TIP3   OH2 4256   1.984   0.074   5.514
 1431TIP3    H1 4257   2.055   0.023   5.553
 1431TIP3    H2 4258   1.906   0.022   5.531
 1432TIP3   OH2 4259   1.607   4.699   1.295
 1432TIP3    H1 4260   1.621   4.609   1.323
 1432TIP3    H2 4261   1.519   4.720   1.327
 1433TIP3   OH2 4262   1.421   4.779   4.329
 1433TIP3    H1 4263   1.508   4.774   4.291
 1433TIP3    H2 4264   1.424   4.854   4.388
 1434TIP3   OH2 4265   1.569   2.984   3.690
 1434TIP3    H1 4266   1.636   2.919   3.709
 1434TIP3    H2 4267   1.603   3.033   3.614
 1435TIP3   OH2 4268   1.007   3.060   2.334
 1435TIP3    H1 4269   0.948   2.985   2.338
 1435TIP3    H2 4270   0.978   3.108   2.256
 1436TIP3   OH2 4271   2.545   2.860   1.062
 1436TIP3    H1 4272   2.554   2.906   0.979
 1436TIP3    H2 4273   2.500   2.779   1.040
 1437TIP3   OH2 4274   3.491   6.477   3.470
 1437TIP3    H1 4275   3.502   6.389   3.507
 1437TIP3    H2 4276   3.411   6.471   3.417
 1438TIP3   OH2 4277   1.675   5.131   4.551
 1438TIP3    H1 4278   1.733   5.203   4.528
 1438TIP3    H2 4279   1.732   5.054   4.554
 1439TIP3   OH2 4280   1.084   1.299   1.120
 1439TIP3    H1 4281   1.054   1.325   1.208
 1439TIP3    H2 4282   1.018   1.334   1.061
 1440TIP3   OH2 4283   4.711   1.843   1.024
 1440TIP3    H1 4284   4.721   1.888   0.940
 1440TIP3    H2 4285   4.617   1.844   1.041
 1441TIP3   OH2 4286   1.477   4.447   4.144
 1441TIP3    H1 4287   1.510   4.394   4.072
 1441TIP3    H2 4288   1.383   4.430   4.146
 1442TIP3   OH2 4289   4.854   2.721   5.047
 1442TIP3    H1 4290   4.928   2.695   4.993
 1442TIP3    H2 4291   4.781   2.669   5.015
 1443TIP3   OH2 4292   0.392   0.564   0.236
 1443TIP3    H1 4293   0.418   0.623   0.307
 1443TIP3    H2 4294   0.467   0.505   0.225
 1444TIP3   OH2 4295   6.767   3.744   1.786
 1444TIP3    H1 4296   6.772   3.648   1.776
 1444TIP3    H2 4297   6.848   3.768   1.830
 1445TIP3   OH2 4298   0.907   5.384   4.079
 1445TIP3    H1 4299   0.921   5.464   4.128
 1445TIP3    H2 4300   0.904   5.315   4.145
 1446TIP3   OH2 4301   5.682   5.486   2.495
 1446TIP3    H1 4302   5.611   5.539   2.532
 1446TIP3    H2 4303   5.641   5.440   2.422
 1447TIP3   OH2 4304   3.721   4.863   4.634
 1447TIP3    H1 4305   3.686   4.886   4.720
 1447TIP3    H2 4306   3.680   4.926   4.574
 1448TIP3   OH2 4307   0.213   0.026   5.907
 1448TIP3    H1 4308   0.265  -0.009   5.835
 1448TIP3    H2 4309   0.124   0.032   5.872
 1449TIP3   OH2 4310   3.641   3.813   4.447
 1449TIP3    H1 4311   3.562   3.867   4.458
 1449TIP3    H2 4312   3.615   3.727   4.480
 1450TIP3   OH2 4313   4.847   0.388   1.021
 1450TIP3    H1 4314   4.930   0.437   1.025
 1450TIP3    H2 4315   4.780   0.455   1.018
 1451TIP3   OH2 4316   2.016   4.562   5.007
 1451TIP3    H1 4317   1.922   4.579   5.006
 1451TIP3    H2 4318   2.025   4.474   4.970
 1452TIP3   OH2 4319   6.845   5.459   5.005
 1452TIP3    H1 4320   6.797   5.463   5.088
 1452TIP3    H2 4321   6.924   5.410   5.025
 1453TIP3   OH2 4322   3.972   0.761   3.101
 1453TIP3    H1 4323   4.051   0.765   3.155
 1453TIP3    H2 4324   3.966   0.669   3.075
 1454TIP3   OH2 4325   3.771   1.868   0.910
 1454TIP3    H1 4326   3.725   1.871   0.993
 1454TIP3    H2 4327   3.821   1.787   0.913
 1455TIP3   OH2 4328   2.055   2.960   0.419
 1455TIP3    H1 4329   2.110   3.024   0.374
 1455TIP3    H2 4330   2.023   2.902   0.350
 1456TIP3   OH2 4331   2.473   5.517   5.242
 1456TIP3    H1 4332   2.538   5.472   5.296
 1456TIP3    H2 4333   2.470   5.606   5.277
 1457TIP3   OH2 4334   3.263   3.430   4.771
 1457TIP3    H1 4335   3.346   3.418   4.817
 1457TIP3    H2 4336   3.234   3.341   4.750
 1458TIP3   OH2 4337   5.658   6.806   2.811
 1458TIP3    H1 4338   5.669   6.712   2.797
 1458TIP3    H2 4339   5.572   6.815   2.853
 1459TIP3   OH2 4340   3.691   6.098   0.625
 1459TIP3    H1 4341   3.758   6.149   0.579
 1459TIP3    H2 4342   3.713   6.107   0.718
 1460TIP3   OH2 4343   6.255   1.774   1.288
 1460TIP3    H1 4344   6.220   1.687   1.268
 1460TIP3    H2 4345   6.348   1.759   1.305
 1461TIP3   OH2 4346   3.956   4.562   1.081
 1461TIP3    H1 4347   3.993   4.624   1.018
 1461TIP3    H2 4348   3.954   4.478   1.035
 1462TIP3   OH2 4349   6.715   3.481   4.770
 1462TIP3    H1 4350   6.658   3.482   4.693
 1462TIP3    H2 4351   6.675   3.417   4.829
 1463TIP3   OH2 4352   1.036   2.616   4.174
 1463TIP3    H1 4353   1.053   2.698   4.126
 1463TIP3    H2 4354   0.942   2.602   4.163
 1464TIP3   OH2 4355   4.822   2.148   5.801
 1464TIP3    H1 4356   4.892   2.185   5.854
 1464TIP3    H2 4357   4.752   2.214   5.804
 1465TIP3   OH2 4358   5.930   2.954   3.112
 1465TIP3    H1 4359   5.972   3.024   3.062
 1465TIP3    H2 4360   5.838   2.982   3.119
 1466TIP3   OH2 4361   5.832   1.603   5.846
 1466TIP3    H1 4362   5.865   1.547   5.916
 1466TIP3    H2 4363   5.817   1.543   5.773
 1467TIP3   OH2 4364   1.389   0.841   2.762
 1467TIP3    H1 4365   1.323   0.797   2.708
 1467TIP3    H2 4366   1.348   0.850   2.848
 1468TIP3   OH2 4367   3.955   6.181   0.743
 1468TIP3    H1 4368   4.047   6.206   0.742
 1468TIP3    H2 4369   3.957   6.086   0.729
 1469TIP3   OH2 4370   0.132   0.552   0.988
 1469TIP3    H1 4371   0.104   0.636   1.024
 1469TIP3    H2 4372   0.050   0.506   0.968
 1470TIP3   OH2 4373   7.004   1.709   1.736
 1470TIP3    H1 4374   7.068   1.704   1.665
 1470TIP3    H2 4375   6.997   1.802   1.755
 1471TIP3   OH2 4376   6.654   2.855   0.651
 1471TIP3    H1 4377   6.559   2.865   0.657
 1471TIP3    H2 4378   6.682   2.923   0.590
 1472TIP3   OH2 4379   7.024   6.158   3.185
 1472TIP3    H1 4380   7.088   6.183   3.252
 1472TIP3    H2 4381   6.945   6.136   3.235
 1473TIP3   OH2 4382   4.204   0.199   1.783
 1473TIP3    H1 4383   4.276   0.214   1.721
 1473TIP3    H2 4384   4.130   0.175   1.727
 1474TIP3   OH2 4385   6.844   3.001   1.156
 1474TIP3    H1 4386   6.887   3.019   1.073
 1474TIP3    H2 4387   6.793   2.921   1.140
 1475TIP3   OH2 4388   2.199   4.183   4.648
 1475TIP3    H1 4389   2.154   4.121   4.590
 1475TIP3    H2 4390   2.187   4.268   4.605
 1476TIP3   OH2 4391   2.752   4.682   3.889
 1476TIP3    H1 4392   2.806   4.640   3.957
 1476TIP3    H2 4393   2.802   4.760   3.865
 1477TIP3   OH2 4394   0.322   5.372   0.634
 1477TIP3    H1 4395   0.342   5.365   0.728
 1477TIP3    H2 4396   0.253   5.307   0.619
 1478TIP3   OH2 4397   4.480   6.743   3.854
 1478TIP3    H1 4398   4.550   6.805   3.875
 1478TIP3    H2 4399   4.405   6.799   3.834
 1479TIP3   OH2 4400   6.299   5.109   3.209
 1479TIP3    H1 4401   6.265   5.198   3.197
 1479TIP3    H2 4402   6.389   5.113   3.176
 1480TIP3   OH2 4403   6.393   5.824   4.280
 1480TIP3    H1 4404   6.435   5.752   4.232
 1480TIP3    H2 4405   6.377   5.891   4.214
 1481TIP3   OH2 4406   1.510   1.526   3.673
 1481TIP3    H1 4407   1.488   1.433   3.663
 1481TIP3    H2 4408   1.427   1.572   3.656
 1482TIP3   OH2 4409   5.553   5.255   1.175
 1482TIP3    H1 4410   5.476   5.198   1.173
 1482TIP3    H2 4411   5.525   5.330   1.227
 1483TIP3   OH2 4412   0.328   6.648   1.699
 1483TIP3    H1 4413   0.345   6.675   1.789
 1483TIP3    H2 4414   0.275   6.719   1.662
 1484TIP3   OH2 4415   3.067   2.468   3.983
 1484TIP3    H1 4416   3.128   2.525   3.936
 1484TIP3    H2 4417   2.988   2.467   3.929
 1485TIP3   OH2 4418   6.948   2.265   2.212
 1485TIP3    H1 4419   6.938   2.181   2.168
 1485TIP3    H2 4420   6.861   2.304   2.210
 1486TIP3   OH2 4421   6.976   6.354   2.692
 1486TIP3    H1 4422   6.987   6.354   2.787
 1486TIP3    H2 4423   7.023   6.432   2.662
 1487TIP3   OH2 4424   2.725   6.190   4.874
 1487TIP3    H1 4425   2.775   6.118   4.913
 1487TIP3    H2 4426   2.634   6.170   4.895
 1488TIP3   OH2 4427   4.064   5.308   2.388
 1488TIP3    H1 4428   4.053   5.390   2.435
 1488TIP3    H2 4429   3.979   5.264   2.395
 1489TIP3   OH2 4430   0.908   3.814   3.260
 1489TIP3    H1 4431   0.988   3.785   3.216
 1489TIP3    H2 4432   0.840   3.803   3.194
 1490TIP3   OH2 4433   3.451   6.106   4.553
 1490TIP3    H1 4434   3.498   6.158   4.619
 1490TIP3    H2 4435   3.520   6.061   4.505
 1491TIP3   OH2 4436   3.719   6.097   2.018
 1491TIP3    H1 4437   3.643   6.120   1.965
 1491TIP3    H2 4438   3.685   6.037   2.084
 1492TIP3   OH2 4439   3.410   0.614   2.016
 1492TIP3    H1 4440   3.345   0.618   2.086
 1492TIP3    H2 4441   3.453   0.699   2.020
 1493TIP3   OH2 4442   0.142   3.048   1.183
 1493TIP3    H1 4443   0.217   3.092   1.224
 1493TIP3    H2 4444   0.068   3.106   1.201
 1494TIP3   OH2 4445   0.000   1.587   3.552
 1494TIP3    H1 4446  -0.061   1.630   3.612
 1494TIP3    H2 4447   0.043   1.660   3.506
 1495TIP3   OH2 4448   3.014   3.978   3.824
 1495TIP3    H1 4449   3.002   3.910   3.891
 1495TIP3    H2 4450   3.018   3.929   3.741
 1496TIP3   OH2 4451   2.719   0.669   5.049
 1496TIP3    H1 4452   2.659   0.669   4.974
 1496TIP3    H2 4453   2.804   0.646   5.012
 1497TIP3   OH2 4454   4.634   3.756   1.319
 1497TIP3    H1 4455   4.640   3.850   1.338
 1497TIP3    H2 4456   4.698   3.742   1.249
 1498TIP3   OH2 4457   1.176   2.899   4.415
 1498TIP3    H1 4458   1.156   2.818   4.461
 1498TIP3    H2 4459   1.271   2.896   4.400
 1499TIP3   OH2 4460   6.506   4.811   0.332
 1499TIP3    H1 4461   6.419   4.781   0.361
 1499TIP3    H2 4462   6.533   4.874   0.398
 1500TIP3   OH2 4463   4.582   3.843   0.165
 1500TIP3    H1 4464   4.524   3.917   0.146
 1500TIP3    H2 4465   4.669   3.873   0.136
 1501TIP3   OH2 4466   5.929   1.920   5.108
 1501TIP3    H1 4467   5.974   1.996   5.071
 1501TIP3    H2 4468   5.917   1.861   5.034
 1502TIP3   OH2 4469   4.297   5.286   3.405
 1502TIP3    H1 4470   4.365   5.323   3.461
 1502TIP3    H2 4471   4.232   5.357   3.396
 1503TIP3   OH2 4472   6.517   4.629   5.248
 1503TIP3    H1 4473   6.558   4.594   5.327
 1503TIP3    H2 4474   6.426   4.642   5.272
 1504TIP3   OH2 4475   0.913   1.979   1.187
 1504TIP3    H1 4476   1.005   1.955   1.201
 1504TIP3    H2 4477   0.871   1.898   1.159
 1505TIP3   OH2 4478   2.917   1.866   3.266
 1505TIP3    H1 4479   2.897   1.777   3.296
 1505TIP3    H2 4480   3.003   1.886   3.304
 1506TIP3   OH2 4481   2.266   4.182   2.434
 1506TIP3    H1 4482   2.209   4.106   2.422
 1506TIP3    H2 4483   2.209   4.250   2.470
 1507TIP3   OH2 4484   0.924   3.978   1.475
 1507TIP3    H1 4485   0.842   4.005   1.433
 1507TIP3    H2 4486   0.987   4.045   1.449
 1508TIP3   OH2 4487   4.614   5.033   3.495
 1508TIP3    H1 4488   4.697   5.000   3.530
 1508TIP3    H2 4489   4.620   5.128   3.505
 1509TIP3   OH2 4490   1.638   4.428   1.302
 1509TIP3    H1 4491   1.667   4.391   1.385
 1509TIP3    H2 4492   1.630   4.353   1.243
 1510TIP3   OH2 4493   3.712   4.643   4.436
 1510TIP3    H1 4494   3.745   4.706   4.501
 1510TIP3    H2 4495   3.786   4.632   4.375
 1511TIP3   OH2 4496   3.047   1.939   2.817
 1511TIP3    H1 4497   3.019   1.982   2.898
 1511TIP3    H2 4498   3.063   1.848   2.842
 1512TIP3   OH2 4499   1.285   6.631   0.740
 1512TIP3    H1 4500   1.299   6.671   0.654
 1512TIP3    H2 4501   1.195   6.653   0.762
 1513TIP3   OH2 4502   6.831  -0.039   0.747
 1513TIP3    H1 4503   6.740  -0.007   0.745
 1513TIP3    H2 4504   6.845  -0.065   0.838
 1514TIP3   OH2 4505   2.830   3.611   1.738
 1514TIP3    H1 4506   2.843   3.587   1.830
 1514TIP3    H2 4507   2.844   3.705   1.736
 1515TIP3   OH2 4508   2.751   0.765   2.248
 1515TIP3    H1 4509   2.742   0.674   2.278
 1515TIP3    H2 4510   2.666   0.805   2.268
 1516TIP3   OH2 4511   2.204   1.409   1.279
 1516TIP3    H1 4512   2.224   1.494   1.239
 1516TIP3    H2 4513   2.143   1.429   1.349
 1517TIP3   OH2 4514   2.959   4.242   3.804
 1517TIP3    H1 4515   2.878   4.258   3.851
 1517TIP3    H2 4516   2.974   4.148   3.814
 1518TIP3   OH2 4517   4.038   3.838   3.326
 1518TIP3    H1 4518   3.982   3.912   3.352
 1518TIP3    H2 4519   4.116   3.847   3.380
 1519TIP3   OH2 4520   1.540   2.578   0.448
 1519TIP3    H1 4521   1.473   2.626   0.498
 1519TIP3    H2 4522   1.620   2.629   0.460
 1520TIP3   OH2 4523   0.474   0.474   3.727
 1520TIP3    H1 4524   0.528   0.552   3.721
 1520TIP3    H2 4525   0.388   0.506   3.756
 1521TIP3   OH2 4526   0.508   0.679   4.280
 1521TIP3    H1 4527   0.546   0.763   4.255
 1521TIP3    H2 4528   0.579   0.635   4.328
 1522TIP3   OH2 4529   3.053   0.681   1.413
 1522TIP3    H1 4530   3.047   0.693   1.508
 1522TIP3    H2 4531   3.144   0.654   1.398
 1523TIP3   OH2 4532   3.807   5.579   0.305
 1523TIP3    H1 4533   3.878   5.541   0.253
 1523TIP3    H2 4534   3.846   5.592   0.392
 1524TIP3   OH2 4535   6.823   3.975   0.580
 1524TIP3    H1 4536   6.854   4.039   0.516
 1524TIP3    H2 4537   6.805   3.896   0.529
 1525TIP3   OH2 4538   4.775   0.502   2.914
 1525TIP3    H1 4539   4.697   0.450   2.934
 1525TIP3    H2 4540   4.800   0.476   2.826
 1526TIP3   OH2 4541   4.551   3.388   2.112
 1526TIP3    H1 4542   4.465   3.393   2.154
 1526TIP3    H2 4543   4.563   3.473   2.071
 1527TIP3   OH2 4544   6.513   1.944   0.887
 1527TIP3    H1 4545   6.427   1.968   0.921
 1527TIP3    H2 4546   6.533   1.860   0.928
 1528TIP3   OH2 4547   2.574   3.016   0.326
 1528TIP3    H1 4548   2.577   2.921   0.327
 1528TIP3    H2 4549   2.538   3.038   0.240
 1529TIP3   OH2 4550   3.991   4.579   0.279
 1529TIP3    H1 4551   3.976   4.670   0.255
 1529TIP3    H2 4552   3.915   4.556   0.334
 1530TIP3   OH2 4553   6.241   1.354   4.940
 1530TIP3    H1 4554   6.278   1.422   4.997
 1530TIP3    H2 4555   6.279   1.370   4.854
 1531TIP3   OH2 4556   6.576   5.267   3.035
 1531TIP3    H1 4557   6.616   5.331   2.975
 1531TIP3    H2 4558   6.626   5.277   3.116
 1532TIP3   OH2 4559   5.897   5.940   1.894
 1532TIP3    H1 4560   5.808   5.907   1.882
 1532TIP3    H2 4561   5.898   6.024   1.848
 1533TIP3   OH2 4562   1.881   0.113   3.973
 1533TIP3    H1 4563   1.915   0.049   4.035
 1533TIP3    H2 4564   1.800   0.145   4.013
 1534TIP3   OH2 4565   4.057   5.095   1.821
 1534TIP3    H1 4566   3.986   5.113   1.883
 1534TIP3    H2 4567   4.131   5.068   1.876
 1535TIP3   OH2 4568   3.171   2.566   2.680
 1535TIP3    H1 4569   3.124   2.621   2.617
 1535TIP3    H2 4570   3.141   2.597   2.766
 1536TIP3   OH2 4571   2.366   2.660   5.237
 1536TIP3    H1 4572   2.303   2.664   5.165
 1536TIP3    H2 4573   2.385   2.752   5.257
 1537TIP3   OH2 4574   6.138   4.129   0.555
 1537TIP3    H1 4575   6.096   4.209   0.523
 1537TIP3    H2 4576   6.162   4.081   0.476
 1538TIP3   OH2 4577   1.101   0.391   3.651
 1538TIP3    H1 4578   1.008   0.405   3.631
 1538TIP3    H2 4579   1.116   0.299   3.631
 1539TIP3   OH2 4580   5.225   3.013   4.038
 1539TIP3    H1 4581   5.197   2.959   3.964
 1539TIP3    H2 4582   5.313   3.042   4.015
 1540TIP3   OH2 4583   3.061   6.704   1.739
 1540TIP3    H1 4584   2.975   6.731   1.707
 1540TIP3    H2 4585   3.045   6.619   1.782
 1541TIP3   OH2 4586   0.816   2.053   1.830
 1541TIP3    H1 4587   0.857   1.980   1.876
 1541TIP3    H2 4588   0.853   2.131   1.871
 1542TIP3   OH2 4589   0.592   0.948   0.584
 1542TIP3    H1 4590   0.570   1.015   0.519
 1542TIP3    H2 4591   0.642   0.995   0.650
 1543TIP3   OH2 4592   6.720   4.273   2.420
 1543TIP3    H1 4593   6.772   4.275   2.500
 1543TIP3    H2 4594   6.643   4.220   2.442
 1544TIP3   OH2 4595   1.927   0.386   5.287
 1544TIP3    H1 4596   1.993   0.322   5.262
 1544TIP3    H2 4597   1.973   0.450   5.341
 1545TIP3   OH2 4598   5.362   0.466   2.180
 1545TIP3    H1 4599   5.427   0.399   2.159
 1545TIP3    H2 4600   5.287   0.445   2.124
 1546TIP3   OH2 4601   4.841   5.989   5.690
 1546TIP3    H1 4602   4.781   6.025   5.755
 1546TIP3    H2 4603   4.847   6.056   5.622
 1547TIP3   OH2 4604   1.719   1.124  -0.016
 1547TIP3    H1 4605   1.665   1.166  -0.083
 1547TIP3    H2 4606   1.680   1.151   0.067
 1548TIP3   OH2 4607   3.703   6.107   1.291
 1548TIP3    H1 4608   3.745   6.072   1.370
 1548TIP3    H2 4609   3.629   6.049   1.275
 1549TIP3   OH2 4610   5.184   1.532   3.461
 1549TIP3    H1 4611   5.163   1.556   3.371
 1549TIP3    H2 4612   5.197   1.615   3.506
 1550TIP3   OH2 4613   2.486   6.205   4.440
 1550TIP3    H1 4614   2.540   6.127   4.453
 1550TIP3    H2 4615   2.522   6.270   4.500
 1551TIP3   OH2 4616   6.253   2.845   4.374
 1551TIP3    H1 4617   6.163   2.849   4.408
 1551TIP3    H2 4618   6.260   2.922   4.317
 1552TIP3   OH2 4619   1.616   3.256   5.028
 1552TIP3    H1 4620   1.558   3.181   5.019
 1552TIP3    H2 4621   1.564   3.322   5.074
 1553TIP3   OH2 4622   1.141   3.510   4.105
 1553TIP3    H1 4623   1.059   3.558   4.111
 1553TIP3    H2 4624   1.186   3.530   4.187
 1554TIP3   OH2 4625   3.938   3.856   1.312
 1554TIP3    H1 4626   4.016   3.872   1.259
 1554TIP3    H2 4627   3.953   3.904   1.393
 1555TIP3   OH2 4628   1.556   4.451   2.519
 1555TIP3    H1 4629   1.502   4.447   2.598
 1555TIP3    H2 4630   1.542   4.539   2.485
 1556TIP3   OH2 4631   4.411   6.594   0.426
 1556TIP3    H1 4632   4.476   6.646   0.473
 1556TIP3    H2 4633   4.457   6.515   0.400
 1557TIP3   OH2 4634   4.220   5.011   0.436
 1557TIP3    H1 4635   4.279   5.072   0.392
 1557TIP3    H2 4636   4.145   5.003   0.378
 1558TIP3   OH2 4637   3.803   1.935   2.502
 1558TIP3    H1 4638   3.841   1.898   2.422
 1558TIP3    H2 4639   3.793   1.860   2.561
 1559TIP3   OH2 4640   5.126   0.601   3.385
 1559TIP3    H1 4641   5.164   0.645   3.461
 1559TIP3    H2 4642   5.197   0.546   3.351
 1560TIP3   OH2 4643   0.630   2.037   2.231
 1560TIP3    H1 4644   0.678   2.118   2.252
 1560TIP3    H2 4645   0.553   2.067   2.183
 1561TIP3   OH2 4646   3.801   1.286   1.636
 1561TIP3    H1 4647   3.833   1.355   1.578
 1561TIP3    H2 4648   3.759   1.332   1.708
 1562TIP3   OH2 4649   0.313   2.169   3.163
 1562TIP3    H1 4650   0.292   2.095   3.106
 1562TIP3    H2 4651   0.299   2.135   3.252
 1563TIP3   OH2 4652   3.076   6.265   0.320
 1563TIP3    H1 4653   3.132   6.342   0.317
 1563TIP3    H2 4654   3.121   6.205   0.380
 1564TIP3   OH2 4655   4.529   2.072   2.536
 1564TIP3    H1 4656   4.595   2.055   2.469
 1564TIP3    H2 4657   4.577   2.068   2.619
 1565TIP3   OH2 4658   4.532   6.117   2.354
 1565TIP3    H1 4659   4.481   6.037   2.339
 1565TIP3    H2 4660   4.505   6.147   2.441
 1566TIP3   OH2 4661   5.436   3.767   3.907
 1566TIP3    H1 4662   5.349   3.788   3.874
 1566TIP3    H2 4663   5.461   3.687   3.861
 1567TIP3   OH2 4664   3.925   1.781   2.285
 1567TIP3    H1 4665   4.006   1.822   2.313
 1567TIP3    H2 4666   3.953   1.702   2.238
 1568TIP3   OH2 4667   2.726   4.390   4.184
 1568TIP3    H1 4668   2.641   4.435   4.180
 1568TIP3    H2 4669   2.790   4.457   4.159
 1569TIP3   OH2 4670   5.971   0.118   0.740
 1569TIP3    H1 4671   6.059   0.085   0.759
 1569TIP3    H2 4672   5.981   0.213   0.742
 1570TIP3   OH2 4673   4.929   4.425   3.003
 1570TIP3    H1 4674   4.911   4.412   2.910
 1570TIP3    H2 4675   4.937   4.520   3.013
 1571TIP3   OH2 4676   2.835   5.561   5.164
 1571TIP3    H1 4677   2.928   5.582   5.157
 1571TIP3    H2 4678   2.792   5.646   5.173
 1572TIP3   OH2 4679   3.023   4.694   1.024
 1572TIP3    H1 4680   3.014   4.621   1.085
 1572TIP3    H2 4681   2.933   4.714   0.997
 1573TIP3   OH2 4682   1.890   1.130   4.186
 1573TIP3    H1 4683   1.933   1.187   4.122
 1573TIP3    H2 4684   1.918   1.041   4.162
 1574TIP3   OH2 4685   5.637   0.139   5.175
 1574TIP3    H1 4686   5.597   0.150   5.261
 1574TIP3    H2 4687   5.712   0.199   5.175
 1575TIP3   OH2 4688   5.125   0.235   4.788
 1575TIP3    H1 4689   5.212   0.229   4.750
 1575TIP3    H2 4690   5.140   0.234   4.883
 1576TIP3   OH2 4691   1.832   5.370   4.512
 1576TIP3    H1 4692   1.797   5.437   4.454
 1576TIP3    H2 4693   1.926   5.370   4.495
 1577TIP3   OH2 4694   1.250   2.409   0.646
 1577TIP3    H1 4695   1.199   2.429   0.567
 1577TIP3    H2 4696   1.185   2.382   0.710
 1578TIP3   OH2 4697   1.173   3.630   3.415
 1578TIP3    H1 4698   1.166   3.681   3.334
 1578TIP3    H2 4699   1.107   3.562   3.406
 1579TIP3   OH2 4700   2.690   2.914   4.969
 1579TIP3    H1 4701   2.680   2.952   5.056
 1579TIP3    H2 4702   2.756   2.846   4.979
 1580TIP3   OH2 4703   6.238   3.040   0.501
 1580TIP3    H1 4704   6.223   3.125   0.460
 1580TIP3    H2 4705   6.290   3.060   0.579
 1581TIP3   OH2 4706   5.827   0.576   1.876
 1581TIP3    H1 4707   5.757   0.521   1.843
 1581TIP3    H2 4708   5.897   0.569   1.810
 1582TIP3   OH2 4709   4.118   1.250   2.997
 1582TIP3    H1 4710   4.115   1.155   2.989
 1582TIP3    H2 4711   4.157   1.266   3.083
 1583TIP3   OH2 4712   1.120   5.449   5.526
 1583TIP3    H1 4713   1.067   5.376   5.557
 1583TIP3    H2 4714   1.105   5.451   5.432
 1584TIP3   OH2 4715   6.584   3.756   2.101
 1584TIP3    H1 4716   6.644   3.691   2.063
 1584TIP3    H2 4717   6.624   3.778   2.185
 1585TIP3   OH2 4718   1.192   2.663   0.012
 1585TIP3    H1 4719   1.224   2.580  -0.024
 1585TIP3    H2 4720   1.106   2.642   0.049
 1586TIP3   OH2 4721   7.157   4.342   2.368
 1586TIP3    H1 4722   7.193   4.274   2.426
 1586TIP3    H2 4723   7.230   4.402   2.354
 1587TIP3   OH2 4724   6.818   1.237   0.016
 1587TIP3    H1 4725   6.800   1.167  -0.048
 1587TIP3    H2 4726   6.829   1.191   0.099
 1588TIP3   OH2 4727   0.513   6.564   3.911
 1588TIP3    H1 4728   0.446   6.497   3.893
 1588TIP3    H2 4729   0.529   6.605   3.826
 1589TIP3   OH2 4730   2.446   6.264   2.539
 1589TIP3    H1 4731   2.470   6.350   2.504
 1589TIP3    H2 4732   2.506   6.203   2.496
 1590TIP3   OH2 4733   4.130   3.580   1.643
 1590TIP3    H1 4734   4.161   3.584   1.734
 1590TIP3    H2 4735   4.168   3.657   1.601
 1591TIP3   OH2 4736   2.017   1.138   2.192
 1591TIP3    H1 4737   2.041   1.050   2.161
 1591TIP3    H2 4738   2.093   1.166   2.243
 1592TIP3   OH2 4739   2.855   4.151   4.047
 1592TIP3    H1 4740   2.795   4.215   4.084
 1592TIP3    H2 4741   2.934   4.160   4.100
 1593TIP3   OH2 4742   2.220   6.213   1.420
 1593TIP3    H1 4743   2.184   6.251   1.340
 1593TIP3    H2 4744   2.278   6.143   1.389
 1594TIP3   OH2 4745   2.539   6.122   1.814
 1594TIP3    H1 4746   2.498   6.076   1.887
 1594TIP3    H2 4747   2.507   6.077   1.736
 1595TIP3   OH2 4748   4.900   1.773   4.477
 1595TIP3    H1 4749   4.947   1.808   4.401
 1595TIP3    H2 4750   4.954   1.699   4.506
 1596TIP3   OH2 4751   6.092   4.456   1.926
 1596TIP3    H1 4752   6.045   4.374   1.911
 1596TIP3    H2 4753   6.065   4.484   2.013
 1597TIP3   OH2 4754   3.414   2.341   0.810
 1597TIP3    H1 4755   3.344   2.379   0.758
 1597TIP3    H2 4756   3.493   2.384   0.779
 1598TIP3   OH2 4757   3.852   5.067   5.356
 1598TIP3    H1 4758   3.763   5.101   5.361
 1598TIP3    H2 4759   3.842   4.977   5.326
 1599TIP3   OH2 4760   0.047   2.159   2.936
 1599TIP3    H1 4761   0.107   2.139   2.865
 1599TIP3    H2 4762  -0.037   2.174   2.893
 1600TIP3   OH2 4763   3.272   5.710   4.943
 1600TIP3    H1 4764   3.329   5.729   4.869
 1600TIP3    H2 4765   3.245   5.619   4.929
 1601TIP3   OH2 4766   5.772   6.544   1.326
 1601TIP3    H1 4767   5.782   6.453   1.301
 1601TIP3    H2 4768   5.688   6.548   1.371
 1602TIP3   OH2 4769   0.164   3.293   1.827
 1602TIP3    H1 4770   0.117   3.350   1.767
 1602TIP3    H2 4771   0.246   3.273   1.783
 1603TIP3   OH2 4772   0.380   0.847   2.776
 1603TIP3    H1 4773   0.460   0.843   2.828
 1603TIP3    H2 4774   0.377   0.763   2.731
 1604TIP3   OH2 4775   0.797   2.515   5.156
 1604TIP3    H1 4776   0.876   2.494   5.107
 1604TIP3    H2 4777   0.829   2.545   5.242
 1605TIP3   OH2 4778   4.160   2.113   0.116
 1605TIP3    H1 4779   4.099   2.160   0.060
 1605TIP3    H2 4780   4.113   2.035   0.143
 1606TIP3   OH2 4781   7.030   4.658   4.729
 1606TIP3    H1 4782   7.116   4.690   4.700
 1606TIP3    H2 4783   6.989   4.733   4.771
 1607TIP3   OH2 4784   1.624   3.469   1.019
 1607TIP3    H1 4785   1.565   3.413   1.069
 1607TIP3    H2 4786   1.636   3.424   0.936
 1608TIP3   OH2 4787   6.841   2.199   2.594
 1608TIP3    H1 4788   6.774   2.218   2.660
 1608TIP3    H2 4789   6.799   2.217   2.511
 1609TIP3   OH2 4790   7.100   1.542   1.254
 1609TIP3    H1 4791   7.018   1.500   1.226
 1609TIP3    H2 4792   7.168   1.497   1.205
 1610TIP3   OH2 4793   2.638   6.518   3.575
 1610TIP3    H1 4794   2.655   6.554   3.662
 1610TIP3    H2 4795   2.567   6.455   3.589
 1611TIP3   OH2 4796   5.561   2.163   0.985
 1611TIP3    H1 4797   5.520   2.109   0.917
 1611TIP3    H2 4798   5.506   2.150   1.062
 1612TIP3   OH2 4799   4.666   4.867   2.518
 1612TIP3    H1 4800   4.725   4.806   2.562
 1612TIP3    H2 4801   4.723   4.914   2.456
 1613TIP3   OH2 4802   1.190   1.452   2.964
 1613TIP3    H1 4803   1.152   1.442   2.877
 1613TIP3    H2 4804   1.283   1.467   2.947
 1614TIP3   OH2 4805   2.586   3.801   3.560
 1614TIP3    H1 4806   2.573   3.707   3.568
 1614TIP3    H2 4807   2.515   3.831   3.504
 1615TIP3   OH2 4808   0.258   1.916   5.629
 1615TIP3    H1 4809   0.311   1.909   5.549
 1615TIP3    H2 4810   0.238   1.826   5.653
 1616TIP3   OH2 4811   7.232   2.937   5.000
 1616TIP3    H1 4812   7.199   2.852   5.029
 1616TIP3    H2 4813   7.179   2.960   4.924
 1617TIP3   OH2 4814   0.406   0.647   5.616
 1617TIP3    H1 4815   0.468   0.716   5.593
 1617TIP3    H2 4816   0.345   0.644   5.542
 1618TIP3   OH2 4817   5.163   3.052   4.313
 1618TIP3    H1 4818   5.242   3.094   4.345
 1618TIP3    H2 4819   5.178   3.042   4.219
 1619TIP3   OH2 4820   5.919   4.668   5.284
 1619TIP3    H1 4821   5.845   4.662   5.344
 1619TIP3    H2 4822   5.887   4.724   5.212
 1620TIP3   OH2 4823   5.630   4.827   4.798
 1620TIP3    H1 4824   5.614   4.913   4.759
 1620TIP3    H2 4825   5.577   4.767   4.745
 1621TIP3   OH2 4826   5.675   2.239   3.227
 1621TIP3    H1 4827   5.720   2.165   3.268
 1621TIP3    H2 4828   5.640   2.289   3.301
 1622TIP3   OH2 4829   0.462   4.881   2.517
 1622TIP3    H1 4830   0.400   4.947   2.547
 1622TIP3    H2 4831   0.547   4.925   2.520
 1623TIP3   OH2 4832   5.731   5.624   1.059
 1623TIP3    H1 4833   5.643   5.642   1.024
 1623TIP3    H2 4834   5.744   5.692   1.125
 1624TIP3   OH2 4835   3.890   0.490   1.064
 1624TIP3    H1 4836   3.984   0.507   1.062
 1624TIP3    H2 4837   3.882   0.395   1.067
 1625TIP3   OH2 4838   3.446   3.697   4.985
 1625TIP3    H1 4839   3.397   3.649   4.918
 1625TIP3    H2 4840   3.491   3.766   4.936
 1626TIP3   OH2 4841   1.116   2.928   2.055
 1626TIP3    H1 4842   1.059   3.003   2.073
 1626TIP3    H2 4843   1.201   2.955   2.090
 1627TIP3   OH2 4844   5.531   3.877   1.986
 1627TIP3    H1 4845   5.609   3.823   1.975
 1627TIP3    H2 4846   5.560   3.965   1.961
 1628TIP3   OH2 4847   5.709   5.786   0.734
 1628TIP3    H1 4848   5.792   5.757   0.773
 1628TIP3    H2 4849   5.734   5.855   0.673
 1629TIP3   OH2 4850   1.326   1.392   4.711
 1629TIP3    H1 4851   1.336   1.461   4.776
 1629TIP3    H2 4852   1.235   1.400   4.681
 1630TIP3   OH2 4853   5.267   5.244   2.189
 1630TIP3    H1 4854   5.180   5.210   2.208
 1630TIP3    H2 4855   5.291   5.203   2.106
 1631TIP3   OH2 4856   2.627   3.389   2.386
 1631TIP3    H1 4857   2.608   3.455   2.319
 1631TIP3    H2 4858   2.718   3.404   2.410
 1632TIP3   OH2 4859   5.815   6.481   4.778
 1632TIP3    H1 4860   5.890   6.453   4.830
 1632TIP3    H2 4861   5.841   6.566   4.742
 1633TIP3   OH2 4862   3.787   0.279   5.250
 1633TIP3    H1 4863   3.818   0.260   5.161
 1633TIP3    H2 4864   3.702   0.321   5.238
 1634TIP3   OH2 4865   2.597   5.713   3.421
 1634TIP3    H1 4866   2.586   5.687   3.329
 1634TIP3    H2 4867   2.509   5.738   3.449
 1635TIP3   OH2 4868   5.854   1.290   4.075
 1635TIP3    H1 4869   5.804   1.368   4.051
 1635TIP3    H2 4870   5.829   1.273   4.166
 1636TIP3   OH2 4871   0.495   1.103   2.957
 1636TIP3    H1 4872   0.478   1.155   2.879
 1636TIP3    H2 4873   0.568   1.149   3.000
 1637TIP3   OH2 4874   3.014   1.344   5.045
 1637TIP3    H1 4875   3.062   1.312   4.969
 1637TIP3    H2 4876   3.028   1.439   5.045
 1638TIP3   OH2 4877   3.557   0.399   0.045
 1638TIP3    H1 4878   3.648   0.405   0.073
 1638TIP3    H2 4879   3.515   0.474   0.086
 1639TIP3   OH2 4880   2.998   0.232   2.657
 1639TIP3    H1 4881   3.022   0.140   2.645
 1639TIP3    H2 4882   2.964   0.237   2.746
 1640TIP3   OH2 4883   2.763   0.517   3.340
 1640TIP3    H1 4884   2.701   0.520   3.413
 1640TIP3    H2 4885   2.847   0.538   3.379
 1641TIP3   OH2 4886   1.956   4.595   0.170
 1641TIP3    H1 4887   1.994   4.507   0.173
 1641TIP3    H2 4888   1.924   4.604   0.081
 1642TIP3   OH2 4889   2.100   6.652   1.770
 1642TIP3    H1 4890   2.099   6.558   1.751
 1642TIP3    H2 4891   2.144   6.690   1.694
 1643TIP3   OH2 4892   2.135   6.438   5.262
 1643TIP3    H1 4893   2.226   6.425   5.290
 1643TIP3    H2 4894   2.089   6.360   5.295
 1644TIP3   OH2 4895   0.553   4.911   4.563
 1644TIP3    H1 4896   0.495   4.880   4.493
 1644TIP3    H2 4897   0.638   4.921   4.522
 1645TIP3   OH2 4898   2.745   5.788   2.801
 1645TIP3    H1 4899   2.752   5.883   2.797
 1645TIP3    H2 4900   2.691   5.764   2.726
 1646TIP3   OH2 4901   4.289   3.856   2.986
 1646TIP3    H1 4902   4.306   3.939   2.941
 1646TIP3    H2 4903   4.271   3.881   3.076
 1647TIP3   OH2 4904   1.939   0.866   1.263
 1647TIP3    H1 4905   1.963   0.774   1.271
 1647TIP3    H2 4906   1.959   0.904   1.348
 1648TIP3   OH2 4907   5.598   3.720   3.264
 1648TIP3    H1 4908   5.588   3.683   3.352
 1648TIP3    H2 4909   5.568   3.651   3.205
 1649TIP3   OH2 4910   7.131   3.033   3.376
 1649TIP3    H1 4911   7.097   2.965   3.433
 1649TIP3    H2 4912   7.106   3.115   3.419
 1650TIP3   OH2 4913   6.964   3.451   3.955
 1650TIP3    H1 4914   7.012   3.532   3.964
 1650TIP3    H2 4915   7.028   3.382   3.971
 1651TIP3   OH2 4916   6.559   0.412   1.757
 1651TIP3    H1 4917   6.526   0.359   1.685
 1651TIP3    H2 4918   6.654   0.413   1.745
 1652TIP3   OH2 4919   2.120   0.889   4.573
 1652TIP3    H1 4920   2.174   0.965   4.595
 1652TIP3    H2 4921   2.116   0.839   4.655
 1653TIP3   OH2 4922   4.622   5.317   3.510
 1653TIP3    H1 4923   4.570   5.395   3.492
 1653TIP3    H2 4924   4.711   5.350   3.523
 1654TIP3   OH2 4925   1.050   4.345   4.463
 1654TIP3    H1 4926   1.095   4.429   4.460
 1654TIP3    H2 4927   1.106   4.286   4.413
 1655TIP3   OH2 4928   3.260   5.039   4.709
 1655TIP3    H1 4929   3.268   4.944   4.704
 1655TIP3    H2 4930   3.335   5.067   4.760
 1656TIP3   OH2 4931   3.889   1.378   0.179
 1656TIP3    H1 4932   3.822   1.381   0.111
 1656TIP3    H2 4933   3.970   1.359   0.131
 1657TIP3   OH2 4934   1.384   4.907   0.011
 1657TIP3    H1 4935   1.314   4.869   0.064
 1657TIP3    H2 4936   1.429   4.968   0.070
 1658TIP3   OH2 4937   2.009   0.325   4.698
 1658TIP3    H1 4938   2.039   0.376   4.774
 1658TIP3    H2 4939   2.015   0.385   4.624
 1659TIP3   OH2 4940   1.735   0.286   2.661
 1659TIP3    H1 4941   1.721   0.287   2.566
 1659TIP3    H2 4942   1.761   0.196   2.681
 1660TIP3   OH2 4943   0.955   5.014   0.323
 1660TIP3    H1 4944   0.951   5.109   0.329
 1660TIP3    H2 4945   0.991   4.986   0.407
 1661TIP3   OH2 4946   5.949   1.828   3.796
 1661TIP3    H1 4947   5.889   1.785   3.857
 1661TIP3    H2 4948   6.021   1.859   3.850
 1662TIP3   OH2 4949   5.698   6.849   1.742
 1662TIP3    H1 4950   5.717   6.872   1.651
 1662TIP3    H2 4951   5.734   6.761   1.753
 1663TIP3   OH2 4952   0.940   1.051   4.733
 1663TIP3    H1 4953   0.853   1.088   4.743
 1663TIP3    H2 4954   0.955   1.051   4.638
 1664TIP3   OH2 4955   3.562   1.482   0.981
 1664TIP3    H1 4956   3.618   1.444   1.049
 1664TIP3    H2 4957   3.535   1.407   0.927
 1665TIP3   OH2 4958   6.329   3.733   3.499
 1665TIP3    H1 4959   6.325   3.812   3.553
 1665TIP3    H2 4960   6.244   3.730   3.454
 1666TIP3   OH2 4961   1.103   3.787   3.844
 1666TIP3    H1 4962   1.041   3.831   3.785
 1666TIP3    H2 4963   1.060   3.788   3.929
 1667TIP3   OH2 4964   0.435   5.065   0.362
 1667TIP3    H1 4965   0.375   5.090   0.292
 1667TIP3    H2 4966   0.484   4.991   0.325
 1668TIP3   OH2 4967   2.264   6.639   4.776
 1668TIP3    H1 4968   2.282   6.704   4.708
 1668TIP3    H2 4969   2.184   6.670   4.818
 1669TIP3   OH2 4970   5.052   2.919   5.366
 1669TIP3    H1 4971   5.072   3.012   5.377
 1669TIP3    H2 4972   4.957   2.913   5.375
 1670TIP3   OH2 4973   0.174   6.138   0.183
 1670TIP3    H1 4974   0.250   6.169   0.135
 1670TIP3    H2 4975   0.145   6.060   0.136
 1671TIP3   OH2 4976   5.842   1.147   0.349
 1671TIP3    H1 4977   5.933   1.146   0.318
 1671TIP3    H2 4978   5.792   1.178   0.273
 1672TIP3   OH2 4979   1.108   2.963   0.762
 1672TIP3    H1 4980   1.135   3.053   0.779
 1672TIP3    H2 4981   1.091   2.926   0.849
 1673TIP3   OH2 4982   4.490   0.670   2.847
 1673TIP3    H1 4983   4.567   0.711   2.808
 1673TIP3    H2 4984   4.459   0.733   2.912
 1674TIP3   OH2 4985   6.375   5.781   5.410
 1674TIP3    H1 4986   6.375   5.876   5.406
 1674TIP3    H2 4987   6.339   5.759   5.496
 1675TIP3   OH2 4988   3.433   0.594   0.191
 1675TIP3    H1 4989   3.431   0.560   0.281
 1675TIP3    H2 4990   3.506   0.657   0.191
 1676TIP3   OH2 4991   0.354   6.702   0.318
 1676TIP3    H1 4992   0.403   6.784   0.330
 1676TIP3    H2 4993   0.267   6.731   0.287
 1677TIP3   OH2 4994   2.125   2.765   2.056
 1677TIP3    H1 4995   2.210   2.804   2.039
 1677TIP3    H2 4996   2.143   2.671   2.067
 1678TIP3   OH2 4997   6.836   6.470   3.283
 1678TIP3    H1 4998   6.887   6.437   3.356
 1678TIP3    H2 4999   6.867   6.560   3.270
 1679TIP3   OH2 5000   4.871   1.688   4.808
 1679TIP3    H1 5001   4.912   1.751   4.867
 1679TIP3    H2 5002   4.945   1.651   4.759
 1680TIP3   OH2 5003   1.209   4.993   4.322
 1680TIP3    H1 5004   1.298   5.008   4.289
 1680TIP3    H2 5005   1.205   5.046   4.402
 1681TIP3   OH2 5006   6.477  -0.001   3.263
 1681TIP3    H1 5007   6.428   0.023   3.342
 1681TIP3    H2 5008   6.464   0.072   3.203
 1682TIP3   OH2 5009   5.588   3.874   4.251
 1682TIP3    H1 5010   5.539   3.955   4.237
 1682TIP3    H2 5011   5.522   3.812   4.281
 1683TIP3   OH2 5012   2.297   4.640   0.488
 1683TIP3    H1 5013   2.264   4.600   0.569
 1683TIP3    H2 5014   2.312   4.731   0.511
 1684TIP3   OH2 5015   6.642   0.313   2.356
 1684TIP3    H1 5016   6.618   0.280   2.270
 1684TIP3    H2 5017   6.680   0.237   2.401
 1685TIP3   OH2 5018   5.221   0.749   3.588
 1685TIP3    H1 5019   5.279   0.692   3.639
 1685TIP3    H2 5020   5.260   0.836   3.595
 1686TIP3   OH2 5021   0.267   3.762   0.612
 1686TIP3    H1 5022   0.317   3.829   0.659
 1686TIP3    H2 5023   0.192   3.743   0.669
 1687TIP3   OH2 5024   6.875   1.677   4.333
 1687TIP3    H1 5025   6.859   1.591   4.295
 1687TIP3    H2 5026   6.846   1.739   4.266
 1688TIP3   OH2 5027   7.129   4.171   2.125
 1688TIP3    H1 5028   7.078   4.105   2.173
 1688TIP3    H2 5029   7.162   4.230   2.193
 1689TIP3   OH2 5030   2.524   0.279   3.401
 1689TIP3    H1 5031   2.455   0.338   3.431
 1689TIP3    H2 5032   2.492   0.192   3.422
 1690TIP3   OH2 5033   4.379   4.002   3.840
 1690TIP3    H1 5034   4.367   4.056   3.762
 1690TIP3    H2 5035   4.292   3.993   3.877
 1691TIP3   OH2 5036   1.299   0.537   4.428
 1691TIP3    H1 5037   1.295   0.608   4.364
 1691TIP3    H2 5038   1.233   0.559   4.493
 1692TIP3   OH2 5039   5.075   2.085   1.568
 1692TIP3    H1 5040   5.063   2.102   1.662
 1692TIP3    H2 5041   4.987   2.070   1.535
 1693TIP3   OH2 5042   6.076   0.037   1.869
 1693TIP3    H1 5043   6.135   0.097   1.916
 1693TIP3    H2 5044   6.018   0.003   1.937
 1694TIP3   OH2 5045   5.666   6.150   5.457
 1694TIP3    H1 5046   5.632   6.083   5.516
 1694TIP3    H2 5047   5.591   6.178   5.405
 1695TIP3   OH2 5048   4.368   6.655   4.098
 1695TIP3    H1 5049   4.377   6.737   4.147
 1695TIP3    H2 5050   4.417   6.668   4.018
 1696TIP3   OH2 5051   3.801   0.651   0.341
 1696TIP3    H1 5052   3.810   0.671   0.434
 1696TIP3    H2 5053   3.728   0.706   0.312
 1697TIP3   OH2 5054   2.228   6.559   5.821
 1697TIP3    H1 5055   2.290   6.597   5.759
 1697TIP3    H2 5056   2.231   6.617   5.897
 1698TIP3   OH2 5057   4.642   2.916   3.161
 1698TIP3    H1 5058   4.639   2.939   3.254
 1698TIP3    H2 5059   4.715   2.965   3.126
 1699TIP3   OH2 5060   3.401   6.611   0.210
 1699TIP3    H1 5061   3.428   6.661   0.286
 1699TIP3    H2 5062   3.432   6.662   0.135
 1700TIP3   OH2 5063   5.834   0.273   5.332
 1700TIP3    H1 5064   5.856   0.307   5.419
 1700TIP3    H2 5065   5.820   0.351   5.278
 1701TIP3   OH2 5066   3.371   0.847   0.650
 1701TIP3    H1 5067   3.296   0.858   0.708
 1701TIP3    H2 5068   3.362   0.920   0.588
 1702TIP3   OH2 5069   4.973   4.546   3.318
 1702TIP3    H1 5070   4.974   4.472   3.257
 1702TIP3    H2 5071   4.929   4.616   3.270
 1703TIP3   OH2 5072   7.116   4.859   2.265
 1703TIP3    H1 5073   7.087   4.859   2.356
 1703TIP3    H2 5074   7.043   4.898   2.216
 1704TIP3   OH2 5075   3.467   2.985   0.300
 1704TIP3    H1 5076   3.510   3.053   0.248
 1704TIP3    H2 5077   3.518   2.906   0.284
 1705TIP3   OH2 5078   6.445   0.119   5.169
 1705TIP3    H1 5079   6.486   0.120   5.083
 1705TIP3    H2 5080   6.398   0.202   5.174
 1706TIP3   OH2 5081   6.440   5.578   5.168
 1706TIP3    H1 5082   6.377   5.624   5.112
 1706TIP3    H2 5083   6.525   5.597   5.129
 1707TIP3   OH2 5084   1.519   3.655   1.294
 1707TIP3    H1 5085   1.526   3.659   1.198
 1707TIP3    H2 5086   1.431   3.686   1.313
 1708TIP3   OH2 5087   3.377   4.089   3.557
 1708TIP3    H1 5088   3.315   4.056   3.492
 1708TIP3    H2 5089   3.328   4.155   3.606
 1709TIP3   OH2 5090   4.015   5.773   1.053
 1709TIP3    H1 5091   4.106   5.791   1.029
 1709TIP3    H2 5092   3.971   5.760   0.969
 1710TIP3   OH2 5093   4.479   5.030   0.911
 1710TIP3    H1 5094   4.449   5.001   0.825
 1710TIP3    H2 5095   4.405   5.080   0.946
 1711TIP3   OH2 5096   5.765   4.760   0.218
 1711TIP3    H1 5097   5.691   4.821   0.215
 1711TIP3    H2 5098   5.753   4.712   0.300
 1712TIP3   OH2 5099   3.808   4.363   5.112
 1712TIP3    H1 5100   3.876   4.313   5.157
 1712TIP3    H2 5101   3.795   4.316   5.029
 1713TIP3   OH2 5102   1.781   1.526   4.541
 1713TIP3    H1 5103   1.780   1.477   4.459
 1713TIP3    H2 5104   1.690   1.553   4.554
 1714TIP3   OH2 5105   4.479   5.171   4.122
 1714TIP3    H1 5106   4.510   5.117   4.195
 1714TIP3    H2 5107   4.552   5.231   4.105
 1715TIP3   OH2 5108   5.135   3.191   5.410
 1715TIP3    H1 5109   5.202   3.218   5.347
 1715TIP3    H2 5110   5.056   3.238   5.382
 1716TIP3   OH2 5111   7.154   1.569   0.117
 1716TIP3    H1 5112   7.243   1.561   0.149
 1716TIP3    H2 5113   7.139   1.489   0.067
 1717TIP3   OH2 5114   5.914   6.703   0.536
 1717TIP3    H1 5115   5.866   6.622   0.557
 1717TIP3    H2 5116   5.992   6.699   0.591
 1718TIP3   OH2 5117   5.766   4.052   1.041
 1718TIP3    H1 5118   5.704   3.980   1.048
 1718TIP3    H2 5119   5.733   4.119   1.101
 1719TIP3   OH2 5120   1.169   0.262   5.648
 1719TIP3    H1 5121   1.256   0.256   5.687
 1719TIP3    H2 5122   1.185   0.265   5.553
 1720TIP3   OH2 5123   6.209   4.350   4.095
 1720TIP3    H1 5124   6.220   4.437   4.133
 1720TIP3    H2 5125   6.147   4.306   4.153
 1721TIP3   OH2 5126   6.990   3.701   0.734
 1721TIP3    H1 5127   7.029   3.757   0.667
 1721TIP3    H2 5128   7.047   3.624   0.737
 1722TIP3   OH2 5129   2.420   4.722   4.325
 1722TIP3    H1 5130   2.457   4.809   4.309
 1722TIP3    H2 5131   2.345   4.738   4.381
 1723TIP3   OH2 5132   3.443   1.256   1.951
 1723TIP3    H1 5133   3.392   1.334   1.929
 1723TIP3    H2 5134   3.413   1.189   1.891
 1724TIP3   OH2 5135   3.095   3.262   1.407
 1724TIP3    H1 5136   3.159   3.326   1.438
 1724TIP3    H2 5137   3.026   3.314   1.367
 1725TIP3   OH2 5138   5.796   4.769   5.049
 1725TIP3    H1 5139   5.780   4.675   5.051
 1725TIP3    H2 5140   5.725   4.804   4.994
 1726TIP3   OH2 5141   0.359   4.987   1.523
 1726TIP3    H1 5142   0.300   4.954   1.455
 1726TIP3    H2 5143   0.442   5.000   1.477
 1727TIP3   OH2 5144   1.453   5.545   3.983
 1727TIP3    H1 5145   1.473   5.510   3.896
 1727TIP3    H2 5146   1.499   5.628   3.987
 1728TIP3   OH2 5147   6.077   4.884   4.491
 1728TIP3    H1 5148   6.030   4.964   4.467
 1728TIP3    H2 5149   6.040   4.860   4.577
 1729TIP3   OH2 5150   2.493   3.045   1.260
 1729TIP3    H1 5151   2.518   2.993   1.184
 1729TIP3    H2 5152   2.407   3.082   1.237
 1730TIP3   OH2 5153   6.726   5.192   0.787
 1730TIP3    H1 5154   6.790   5.234   0.730
 1730TIP3    H2 5155   6.758   5.102   0.796
 1731TIP3   OH2 5156   4.750   4.676   4.192
 1731TIP3    H1 5157   4.817   4.745   4.192
 1731TIP3    H2 5158   4.679   4.712   4.139
 1732TIP3   OH2 5159   3.772   1.547   0.380
 1732TIP3    H1 5160   3.825   1.627   0.385
 1732TIP3    H2 5161   3.813   1.495   0.311
 1733TIP3   OH2 5162   2.309   0.960   0.421
 1733TIP3    H1 5163   2.387   0.905   0.425
 1733TIP3    H2 5164   2.246   0.908   0.371
 1734TIP3   OH2 5165   5.997   2.911   4.478
 1734TIP3    H1 5166   5.962   2.999   4.495
 1734TIP3    H2 5167   5.922   2.861   4.446
 1735TIP3   OH2 5168   1.458   3.994   4.791
 1735TIP3    H1 5169   1.386   4.049   4.822
 1735TIP3    H2 5170   1.444   3.909   4.835
 1736TIP3   OH2 5171   5.734   5.886   2.504
 1736TIP3    H1 5172   5.645   5.869   2.536
 1736TIP3    H2 5173   5.722   5.911   2.413
 1737TIP3   OH2 5174   3.180   3.791   4.935
 1737TIP3    H1 5175   3.157   3.884   4.931
 1737TIP3    H2 5176   3.109   3.747   4.889
 1738TIP3   OH2 5177   0.725   6.719   0.599
 1738TIP3    H1 5178   0.807   6.769   0.600
 1738TIP3    H2 5179   0.709   6.701   0.506
 1739TIP3   OH2 5180   6.191   6.213   1.557
 1739TIP3    H1 5181   6.181   6.276   1.486
 1739TIP3    H2 5182   6.283   6.222   1.584
 1740TIP3   OH2 5183   2.664   1.759   1.975
 1740TIP3    H1 5184   2.652   1.668   2.002
 1740TIP3    H2 5185   2.755   1.763   1.944
 1741TIP3   OH2 5186   6.002   3.004   5.638
 1741TIP3    H1 5187   5.943   3.078   5.651
 1741TIP3    H2 5188   5.944   2.929   5.628
 1742TIP3   OH2 5189   2.074   1.762   5.612
 1742TIP3    H1 5190   2.040   1.672   5.618
 1742TIP3    H2 5191   2.141   1.767   5.680
 1743TIP3   OH2 5192   4.153   3.534   2.068
 1743TIP3    H1 5193   4.205   3.611   2.045
 1743TIP3    H2 5194   4.214   3.478   2.116
 1744TIP3   OH2 5195   0.693   4.075   1.400
 1744TIP3    H1 5196   0.707   4.159   1.358
 1744TIP3    H2 5197   0.598   4.065   1.404
 1745TIP3   OH2 5198   6.949   6.044   0.061
 1745TIP3    H1 5199   6.942   5.971   0.123
 1745TIP3    H2 5200   6.893   6.017  -0.012
 1746TIP3   OH2 5201   6.157   5.910   2.233
 1746TIP3    H1 5202   6.225   5.960   2.278
 1746TIP3    H2 5203   6.081   5.968   2.232
 1747TIP3   OH2 5204   0.644   2.412   1.334
 1747TIP3    H1 5205   0.644   2.365   1.251
 1747TIP3    H2 5206   0.562   2.462   1.333
 1748TIP3   OH2 5207   7.089   1.871   4.748
 1748TIP3    H1 5208   7.128   1.858   4.661
 1748TIP3    H2 5209   7.039   1.791   4.764
 1749TIP3   OH2 5210   5.556   2.055   1.825
 1749TIP3    H1 5211   5.611   2.017   1.758
 1749TIP3    H2 5212   5.473   2.073   1.781
 1750TIP3   OH2 5213   0.944   6.377   1.114
 1750TIP3    H1 5214   0.927   6.317   1.041
 1750TIP3    H2 5215   0.858   6.390   1.154
 1751TIP3   OH2 5216   1.268   6.282   1.606
 1751TIP3    H1 5217   1.199   6.264   1.669
 1751TIP3    H2 5218   1.231   6.348   1.548
 1752TIP3   OH2 5219   1.256   6.453   3.916
 1752TIP3    H1 5220   1.214   6.530   3.876
 1752TIP3    H2 5221   1.349   6.474   3.915
 1753TIP3   OH2 5222   2.203   1.548   4.850
 1753TIP3    H1 5223   2.187   1.470   4.796
 1753TIP3    H2 5224   2.138   1.611   4.821
 1754TIP3   OH2 5225   2.864   6.525   5.585
 1754TIP3    H1 5226   2.812   6.579   5.644
 1754TIP3    H2 5227   2.895   6.586   5.518
 1755TIP3   OH2 5228   5.922   1.111   1.168
 1755TIP3    H1 5229   5.898   1.182   1.228
 1755TIP3    H2 5230   5.955   1.155   1.090
 1756TIP3   OH2 5231   0.427   5.567   2.865
 1756TIP3    H1 5232   0.512   5.581   2.822
 1756TIP3    H2 5233   0.442   5.491   2.922
 1757TIP3   OH2 5234   1.725   1.576   1.287
 1757TIP3    H1 5235   1.658   1.632   1.325
 1757TIP3    H2 5236   1.799   1.634   1.270
 1758TIP3   OH2 5237   7.186   1.186   2.440
 1758TIP3    H1 5238   7.193   1.258   2.502
 1758TIP3    H2 5239   7.117   1.130   2.476
 1759TIP3   OH2 5240   0.081   0.924   0.455
 1759TIP3    H1 5241   0.114   0.925   0.365
 1759TIP3    H2 5242   0.013   0.992   0.456
 1760TIP3   OH2 5243   1.820   1.565   5.386
 1760TIP3    H1 5244   1.772   1.618   5.450
 1760TIP3    H2 5245   1.783   1.591   5.301
 1761TIP3   OH2 5246   6.747   4.651   2.427
 1761TIP3    H1 5247   6.681   4.639   2.359
 1761TIP3    H2 5248   6.820   4.595   2.399
 1762TIP3   OH2 5249   2.659   2.339   2.685
 1762TIP3    H1 5250   2.727   2.272   2.689
 1762TIP3    H2 5251   2.653   2.362   2.592
 1763TIP3   OH2 5252   5.324   4.899   1.655
 1763TIP3    H1 5253   5.275   4.847   1.592
 1763TIP3    H2 5254   5.274   4.895   1.736
 1764TIP3   OH2 5255   0.218   6.389   2.458
 1764TIP3    H1 5256   0.165   6.325   2.410
 1764TIP3    H2 5257   0.306   6.353   2.456
 1765TIP3   OH2 5258   3.697   5.190   3.560
 1765TIP3    H1 5259   3.743   5.187   3.644
 1765TIP3    H2 5260   3.665   5.280   3.552
 1766TIP3   OH2 5261   1.641   1.379   1.844
 1766TIP3    H1 5262   1.708   1.313   1.860
 1766TIP3    H2 5263   1.662   1.415   1.757
 1767TIP3   OH2 5264   3.190   3.644   2.826
 1767TIP3    H1 5265   3.271   3.650   2.875
 1767TIP3    H2 5266   3.192   3.558   2.784
 1768TIP3   OH2 5267   4.724   5.103   0.815
 1768TIP3    H1 5268   4.682   5.139   0.738
 1768TIP3    H2 5269   4.653   5.090   0.878
 1769TIP3   OH2 5270   3.294   4.802   0.805
 1769TIP3    H1 5271   3.247   4.859   0.866
 1769TIP3    H2 5272   3.370   4.771   0.854
 1770TIP3   OH2 5273   6.339   5.152   5.239
 1770TIP3    H1 5274   6.380   5.123   5.321
 1770TIP3    H2 5275   6.298   5.073   5.204
 1771TIP3   OH2 5276   0.678   3.629   2.872
 1771TIP3    H1 5277   0.739   3.608   2.802
 1771TIP3    H2 5278   0.611   3.683   2.830
 1772TIP3   OH2 5279   4.709   1.351   5.400
 1772TIP3    H1 5280   4.708   1.369   5.306
 1772TIP3    H2 5281   4.739   1.261   5.407
 1773TIP3   OH2 5282   4.533   4.396   2.208
 1773TIP3    H1 5283   4.502   4.328   2.268
 1773TIP3    H2 5284   4.577   4.347   2.137
 1774TIP3   OH2 5285   6.408   1.878   3.360
 1774TIP3    H1 5286   6.443   1.967   3.360
 1774TIP3    H2 5287   6.313   1.889   3.360
 1775TIP3   OH2 5288   6.821   1.133   2.318
 1775TIP3    H1 5289   6.913   1.120   2.295
 1775TIP3    H2 5290   6.778   1.151   2.234
 1776TIP3   OH2 5291   6.750   1.466   0.229
 1776TIP3    H1 5292   6.781   1.391   0.178
 1776TIP3    H2 5293   6.678   1.502   0.177
 1777TIP3   OH2 5294   0.371   5.889   4.532
 1777TIP3    H1 5295   0.352   5.810   4.583
 1777TIP3    H2 5296   0.464   5.906   4.548
 1778TIP3   OH2 5297   5.070   3.743   3.574
 1778TIP3    H1 5298   5.146   3.731   3.632
 1778TIP3    H2 5299   4.995   3.731   3.632
 1779TIP3   OH2 5300   4.307   5.855   1.996
 1779TIP3    H1 5301   4.247   5.860   1.922
 1779TIP3    H2 5302   4.360   5.934   1.989
 1780TIP3   OH2 5303   3.165   2.461   4.758
 1780TIP3    H1 5304   3.255   2.444   4.786
 1780TIP3    H2 5305   3.169   2.459   4.663
 1781TIP3   OH2 5306   3.959   2.883   2.076
 1781TIP3    H1 5307   3.939   2.797   2.040
 1781TIP3    H2 5308   3.883   2.905   2.130
 1782TIP3   OH2 5309   5.840   3.911   1.398
 1782TIP3    H1 5310   5.866   3.866   1.317
 1782TIP3    H2 5311   5.858   4.003   1.380
 1783TIP3   OH2 5312   4.070   1.905   2.965
 1783TIP3    H1 5313   4.066   1.820   3.010
 1783TIP3    H2 5314   3.979   1.929   2.952
 1784TIP3   OH2 5315   1.116   6.243   5.682
 1784TIP3    H1 5316   1.084   6.326   5.717
 1784TIP3    H2 5317   1.039   6.204   5.641
 1785TIP3   OH2 5318   6.194   2.479   0.569
 1785TIP3    H1 5319   6.275   2.528   0.575
 1785TIP3    H2 5320   6.221   2.388   0.556
 1786TIP3   OH2 5321   3.766   3.998   3.330
 1786TIP3    H1 5322   3.816   4.036   3.402
 1786TIP3    H2 5323   3.695   3.950   3.372
 1787TIP3   OH2 5324   5.395   0.028   0.988
 1787TIP3    H1 5325   5.353  -0.043   0.939
 1787TIP3    H2 5326   5.488   0.005   0.988
 1788TIP3   OH2 5327   1.862   0.104   1.012
 1788TIP3    H1 5328   1.853   0.195   1.040
 1788TIP3    H2 5329   1.787   0.059   1.051
 1789TIP3   OH2 5330   1.476   1.128   4.087
 1789TIP3    H1 5331   1.453   1.175   4.167
 1789TIP3    H2 5332   1.544   1.182   4.047
 1790TIP3   OH2 5333   5.838   1.947  -0.021
 1790TIP3    H1 5334   5.884   1.888   0.038
 1790TIP3    H2 5335   5.837   1.901  -0.105
 1791TIP3   OH2 5336   1.212   3.723   2.244
 1791TIP3    H1 5337   1.222   3.638   2.202
 1791TIP3    H2 5338   1.154   3.772   2.186
 1792TIP3   OH2 5339   3.334   4.618   5.766
 1792TIP3    H1 5340   3.254   4.653   5.729
 1792TIP3    H2 5341   3.352   4.673   5.842
 1793TIP3   OH2 5342   6.726   2.481   5.667
 1793TIP3    H1 5343   6.794   2.516   5.609
 1793TIP3    H2 5344   6.774   2.453   5.746
 1794TIP3   OH2 5345   0.251   2.439   1.120
 1794TIP3    H1 5346   0.304   2.465   1.196
 1794TIP3    H2 5347   0.203   2.362   1.151
 1795TIP3   OH2 5348   0.736   5.705   2.262
 1795TIP3    H1 5349   0.727   5.612   2.245
 1795TIP3    H2 5350   0.666   5.745   2.209
 1796TIP3   OH2 5351   1.319   2.532   5.708
 1796TIP3    H1 5352   1.391   2.551   5.647
 1796TIP3    H2 5353   1.359   2.479   5.777
 1797TIP3   OH2 5354   6.800   6.413   1.054
 1797TIP3    H1 5355   6.806   6.355   1.130
 1797TIP3    H2 5356   6.721   6.384   1.008
 1798TIP3   OH2 5357   1.307   4.555   5.666
 1798TIP3    H1 5358   1.238   4.610   5.629
 1798TIP3    H2 5359   1.385   4.611   5.664
 1799TIP3   OH2 5360   4.684   5.813   4.077
 1799TIP3    H1 5361   4.773   5.797   4.044
 1799TIP3    H2 5362   4.664   5.902   4.048
 1800TIP3   OH2 5363   5.327   1.382   2.964
 1800TIP3    H1 5364   5.300   1.312   3.024
 1800TIP3    H2 5365   5.253   1.392   2.905
 1801TIP3   OH2 5366   0.984   2.347   0.248
 1801TIP3    H1 5367   0.907   2.389   0.209
 1801TIP3    H2 5368   1.045   2.338   0.175
 1802TIP3   OH2 5369   4.049   3.550   3.070
 1802TIP3    H1 5370   4.039   3.493   2.993
 1802TIP3    H2 5371   4.007   3.632   3.045
 1803TIP3   OH2 5372   0.301   2.486   0.562
 1803TIP3    H1 5373   0.298   2.534   0.645
 1803TIP3    H2 5374   0.386   2.508   0.525
 1804TIP3   OH2 5375   5.462   3.140   5.041
 1804TIP3    H1 5376   5.551   3.167   5.021
 1804TIP3    H2 5377   5.439   3.078   4.971
 1805TIP3   OH2 5378   4.670   4.314   1.459
 1805TIP3    H1 5379   4.731   4.337   1.389
 1805TIP3    H2 5380   4.719   4.326   1.540
 1806TIP3   OH2 5381   1.187   1.894   1.256
 1806TIP3    H1 5382   1.173   1.810   1.299
 1806TIP3    H2 5383   1.196   1.957   1.328
 1807TIP3   OH2 5384   5.088   1.130   1.898
 1807TIP3    H1 5385   5.090   1.217   1.860
 1807TIP3    H2 5386   4.999   1.119   1.929
 1808TIP3   OH2 5387   1.364   1.228   3.196
 1808TIP3    H1 5388   1.396   1.160   3.255
 1808TIP3    H2 5389   1.441   1.283   3.180
 1809TIP3   OH2 5390   1.204   4.983   4.014
 1809TIP3    H1 5391   1.191   4.897   4.053
 1809TIP3    H2 5392   1.294   5.006   4.036
 1810TIP3   OH2 5393   0.140   0.430   0.279
 1810TIP3    H1 5394   0.209   0.490   0.252
 1810TIP3    H2 5395   0.170   0.396   0.364
 1811TIP3   OH2 5396   2.343   1.522   4.165
 1811TIP3    H1 5397   2.394   1.565   4.096
 1811TIP3    H2 5398   2.402   1.456   4.201
 1812TIP3   OH2 5399   5.483   1.520   0.455
 1812TIP3    H1 5400   5.483   1.484   0.544
 1812TIP3    H2 5401   5.576   1.525   0.432
 1813TIP3   OH2 5402   3.966   2.356   4.036
 1813TIP3    H1 5403   4.033   2.375   4.103
 1813TIP3    H2 5404   4.002   2.394   3.956
 1814TIP3   OH2 5405   1.884   4.959   2.703
 1814TIP3    H1 5406   1.963   4.908   2.721
 1814TIP3    H2 5407   1.908   5.016   2.631
 1815TIP3   OH2 5408   4.117   4.126   4.598
 1815TIP3    H1 5409   4.129   4.215   4.630
 1815TIP3    H2 5410   4.110   4.136   4.503
 1816TIP3   OH2 5411   1.512   5.276   1.242
 1816TIP3    H1 5412   1.584   5.261   1.303
 1816TIP3    H2 5413   1.531   5.362   1.204
 1817TIP3   OH2 5414   4.315   2.369   0.309
 1817TIP3    H1 5415   4.232   2.381   0.355
 1817TIP3    H2 5416   4.375   2.339   0.377
 1818TIP3   OH2 5417   3.308   2.023   5.249
 1818TIP3    H1 5418   3.290   1.979   5.332
 1818TIP3    H2 5419   3.256   1.974   5.185
 1819TIP3   OH2 5420   0.323   5.781   3.094
 1819TIP3    H1 5421   0.370   5.698   3.097
 1819TIP3    H2 5422   0.279   5.787   3.178
 1820TIP3   OH2 5423   3.960   2.952   2.973
 1820TIP3    H1 5424   3.936   3.006   3.049
 1820TIP3    H2 5425   3.924   2.866   2.993
 1821TIP3   OH2 5426   5.534   1.667   2.932
 1821TIP3    H1 5427   5.552   1.615   3.010
 1821TIP3    H2 5428   5.569   1.615   2.859
 1822TIP3   OH2 5429   5.033   3.365   2.748
 1822TIP3    H1 5430   5.043   3.328   2.835
 1822TIP3    H2 5431   5.110   3.333   2.700
 1823TIP3   OH2 5432   4.012   1.093   4.830
 1823TIP3    H1 5433   3.966   1.140   4.760
 1823TIP3    H2 5434   4.057   1.162   4.879
 1824TIP3   OH2 5435   6.201   4.686   1.054
 1824TIP3    H1 5436   6.169   4.623   0.989
 1824TIP3    H2 5437   6.296   4.686   1.042
 1825TIP3   OH2 5438   4.821   4.979   5.759
 1825TIP3    H1 5439   4.867   5.015   5.682
 1825TIP3    H2 5440   4.857   4.891   5.769
 1826TIP3   OH2 5441   6.000   1.584   2.063
 1826TIP3    H1 5442   5.937   1.539   2.119
 1826TIP3    H2 5443   6.085   1.549   2.089
 1827TIP3   OH2 5444   4.517   2.877   0.937
 1827TIP3    H1 5445   4.503   2.956   0.885
 1827TIP3    H2 5446   4.603   2.845   0.909
 1828TIP3   OH2 5447   0.616   5.966   2.702
 1828TIP3    H1 5448   0.608   5.942   2.609
 1828TIP3    H2 5449   0.531   5.941   2.740
 1829TIP3   OH2 5450   7.189   0.217   4.379
 1829TIP3    H1 5451   7.116   0.157   4.361
 1829TIP3    H2 5452   7.253   0.199   4.310
 1830TIP3   OH2 5453   6.419   2.628   0.676
 1830TIP3    H1 5454   6.447   2.684   0.749
 1830TIP3    H2 5455   6.414   2.688   0.601
 1831TIP3   OH2 5456   2.056   4.583   2.350
 1831TIP3    H1 5457   1.966   4.596   2.321
 1831TIP3    H2 5458   2.103   4.554   2.272
 1832TIP3   OH2 5459   3.011   6.150   0.062
 1832TIP3    H1 5460   3.015   6.189   0.149
 1832TIP3    H2 5461   3.096   6.169   0.022
 1833TIP3   OH2 5462   4.919   2.550   3.702
 1833TIP3    H1 5463   4.979   2.494   3.653
 1833TIP3    H2 5464   4.971   2.583   3.776
 1834TIP3   OH2 5465   1.913   2.086   3.214
 1834TIP3    H1 5466   1.996   2.102   3.169
 1834TIP3    H2 5467   1.848   2.134   3.163
 1835TIP3   OH2 5468   0.169   6.087   4.382
 1835TIP3    H1 5469   0.194   6.050   4.467
 1835TIP3    H2 5470   0.241   6.062   4.323
 1836TIP3   OH2 5471   1.204   5.258   0.376
 1836TIP3    H1 5472   1.235   5.302   0.454
 1836TIP3    H2 5473   1.114   5.289   0.365
 1837TIP3   OH2 5474   5.543   0.619   3.152
 1837TIP3    H1 5475   5.565   0.638   3.243
 1837TIP3    H2 5476   5.456   0.579   3.156
 1838TIP3   OH2 5477   2.916   6.397   1.136
 1838TIP3    H1 5478   2.846   6.422   1.075
 1838TIP3    H2 5479   2.928   6.304   1.121
 1839TIP3   OH2 5480   2.733   5.594   2.280
 1839TIP3    H1 5481   2.698   5.508   2.257
 1839TIP3    H2 5482   2.677   5.656   2.233
 1840TIP3   OH2 5483   5.771   4.684   2.307
 1840TIP3    H1 5484   5.791   4.684   2.214
 1840TIP3    H2 5485   5.815   4.762   2.341
 1841TIP3   OH2 5486   3.725   4.507   4.750
 1841TIP3    H1 5487   3.739   4.520   4.656
 1841TIP3    H2 5488   3.755   4.417   4.766
 1842TIP3   OH2 5489   5.612   3.025   0.890
 1842TIP3    H1 5490   5.627   3.084   0.815
 1842TIP3    H2 5491   5.546   3.070   0.942
 1843TIP3   OH2 5492   6.474   2.275   5.131
 1843TIP3    H1 5493   6.534   2.349   5.138
 1843TIP3    H2 5494   6.489   2.224   5.210
 1844TIP3   OH2 5495   3.464   5.716   3.859
 1844TIP3    H1 5496   3.505   5.662   3.928
 1844TIP3    H2 5497   3.370   5.707   3.876
 1845TIP3   OH2 5498   5.749   4.295   0.581
 1845TIP3    H1 5499   5.704   4.268   0.661
 1845TIP3    H2 5500   5.811   4.362   0.611
 1846TIP3   OH2 5501   6.470   3.834   1.155
 1846TIP3    H1 5502   6.422   3.913   1.177
 1846TIP3    H2 5503   6.413   3.762   1.182
 1847TIP3   OH2 5504   5.878   4.638   1.849
 1847TIP3    H1 5505   5.951   4.577   1.836
 1847TIP3    H2 5506   5.804   4.583   1.871
 1848TIP3   OH2 5507   3.440   3.065   2.143
 1848TIP3    H1 5508   3.415   3.156   2.131
 1848TIP3    H2 5509   3.395   3.038   2.223
 1849TIP3   OH2 5510   1.159   1.835   5.042
 1849TIP3    H1 5511   1.136   1.922   5.007
 1849TIP3    H2 5512   1.227   1.803   4.982
 1850TIP3   OH2 5513   4.406   0.987   0.634
 1850TIP3    H1 5514   4.373   1.071   0.602
 1850TIP3    H2 5515   4.412   0.932   0.556
 1851TIP3   OH2 5516   2.732   4.018   3.642
 1851TIP3    H1 5517   2.778   3.961   3.704
 1851TIP3    H2 5518   2.698   3.958   3.575
 1852TIP3   OH2 5519   6.916   3.433   1.672
 1852TIP3    H1 5520   6.840   3.435   1.730
 1852TIP3    H2 5521   6.973   3.502   1.705
 1853TIP3   OH2 5522   0.475   5.271   4.782
 1853TIP3    H1 5523   0.486   5.181   4.813
 1853TIP3    H2 5524   0.532   5.278   4.706
 1854TIP3   OH2 5525   3.925   5.340   1.676
 1854TIP3    H1 5526   3.936   5.356   1.770
 1854TIP3    H2 5527   3.874   5.415   1.645
 1855TIP3   OH2 5528   7.094   0.480   0.310
 1855TIP3    H1 5529   7.068   0.409   0.369
 1855TIP3    H2 5530   7.188   0.465   0.296
 1856TIP3   OH2 5531   0.435   0.341   2.386
 1856TIP3    H1 5532   0.493   0.342   2.462
 1856TIP3    H2 5533   0.444   0.252   2.351
 1857TIP3   OH2 5534   6.721   1.450   0.527
 1857TIP3    H1 5535   6.741   1.483   0.440
 1857TIP3    H2 5536   6.685   1.362   0.512
 1858TIP3   OH2 5537   1.945   3.023   5.098
 1858TIP3    H1 5538   1.883   3.036   5.026
 1858TIP3    H2 5539   1.945   2.929   5.113
 1859TIP3   OH2 5540   6.412   5.591   1.699
 1859TIP3    H1 5541   6.350   5.519   1.714
 1859TIP3    H2 5542   6.421   5.595   1.603
 1860TIP3   OH2 5543   1.139   6.323   0.171
 1860TIP3    H1 5544   1.116   6.416   0.168
 1860TIP3    H2 5545   1.089   6.289   0.245
 1861TIP3   OH2 5546   6.825   2.200   1.551
 1861TIP3    H1 5547   6.742   2.183   1.507
 1861TIP3    H2 5548   6.891   2.171   1.488
 1862TIP3   OH2 5549   2.519   6.009   5.406
 1862TIP3    H1 5550   2.482   6.037   5.322
 1862TIP3    H2 5551   2.593   6.068   5.420
 1863TIP3   OH2 5552   3.068   6.026   2.800
 1863TIP3    H1 5553   2.979   6.050   2.826
 1863TIP3    H2 5554   3.115   6.017   2.883
 1864TIP3   OH2 5555   3.149   6.431   3.707
 1864TIP3    H1 5556   3.235   6.413   3.746
 1864TIP3    H2 5557   3.114   6.345   3.686
 1865TIP3   OH2 5558   6.497   0.396   3.845
 1865TIP3    H1 5559   6.558   0.423   3.914
 1865TIP3    H2 5560   6.428   0.348   3.891
 1866TIP3   OH2 5561   4.106   6.495   3.329
 1866TIP3    H1 5562   4.192   6.509   3.368
 1866TIP3    H2 5563   4.059   6.577   3.343
 1867TIP3   OH2 5564   3.587   4.826   4.107
 1867TIP3    H1 5565   3.567   4.919   4.092
 1867TIP3    H2 5566   3.672   4.826   4.150
 1868TIP3   OH2 5567   1.376   3.640   3.593
 1868TIP3    H1 5568   1.294   3.657   3.548
 1868TIP3    H2 5569   1.351   3.595   3.674
 1869TIP3   OH2 5570   3.018   3.456   0.640
 1869TIP3    H1 5571   3.000   3.547   0.663
 1869TIP3    H2 5572   3.096   3.460   0.585
 1870TIP3   OH2 5573   4.832   3.012   5.588
 1870TIP3    H1 5574   4.769   2.955   5.634
 1870TIP3    H2 5575   4.863   3.072   5.656
 1871TIP3   OH2 5576   2.477   0.924   2.658
 1871TIP3    H1 5577   2.560   0.950   2.698
 1871TIP3    H2 5578   2.444   0.854   2.715
 1872TIP3   OH2 5579   0.065   2.487   1.951
 1872TIP3    H1 5580   0.151   2.448   1.968
 1872TIP3    H2 5581   0.064   2.504   1.857
 1873TIP3   OH2 5582  -0.032   4.417   1.384
 1873TIP3    H1 5583  -0.043   4.404   1.290
 1873TIP3    H2 5584  -0.073   4.341   1.425
 1874TIP3   OH2 5585   4.007   4.850   3.854
 1874TIP3    H1 5586   3.920   4.870   3.888
 1874TIP3    H2 5587   4.000   4.863   3.760
 1875TIP3   OH2 5588   5.159   5.971   5.390
 1875TIP3    H1 5589   5.073   5.993   5.355
 1875TIP3    H2 5590   5.199   6.056   5.411
 1876TIP3   OH2 5591   4.814   5.929   4.544
 1876TIP3    H1 5592   4.821   5.953   4.451
 1876TIP3    H2 5593   4.762   6.000   4.582
 1877TIP3   OH2 5594   5.605   5.509   2.013
 1877TIP3    H1 5595   5.524   5.500   2.063
 1877TIP3    H2 5596   5.665   5.552   2.073
 1878TIP3   OH2 5597   4.541   6.190   0.720
 1878TIP3    H1 5598   4.471   6.131   0.749
 1878TIP3    H2 5599   4.592   6.139   0.657
 1879TIP3   OH2 5600   0.874   5.560   5.807
 1879TIP3    H1 5601   0.949   5.504   5.787
 1879TIP3    H2 5602   0.819   5.506   5.864
 1880TIP3   OH2 5603   3.931   2.551   3.229
 1880TIP3    H1 5604   3.893   2.562   3.316
 1880TIP3    H2 5605   4.007   2.610   3.229
 1881TIP3   OH2 5606   1.666   2.067   3.013
 1881TIP3    H1 5607   1.636   1.982   3.046
 1881TIP3    H2 5608   1.603   2.089   2.944
 1882TIP3   OH2 5609   4.883   4.994   4.185
 1882TIP3    H1 5610   4.866   5.046   4.106
 1882TIP3    H2 5611   4.866   5.054   4.257
 1883TIP3   OH2 5612   6.431   3.225   1.508
 1883TIP3    H1 5613   6.350   3.229   1.458
 1883TIP3    H2 5614   6.489   3.288   1.465
 1884TIP3   OH2 5615   5.021   0.912   0.391
 1884TIP3    H1 5616   4.964   0.888   0.317
 1884TIP3    H2 5617   4.961   0.920   0.465
 1885TIP3   OH2 5618   0.056   3.494   3.440
 1885TIP3    H1 5619  -0.011   3.551   3.476
 1885TIP3    H2 5620   0.058   3.517   3.347
 1886TIP3   OH2 5621   0.764   2.904   0.887
 1886TIP3    H1 5622   0.731   2.974   0.944
 1886TIP3    H2 5623   0.792   2.949   0.808
 1887TIP3   OH2 5624   3.749   5.031   1.023
 1887TIP3    H1 5625   3.749   5.120   0.989
 1887TIP3    H2 5626   3.723   5.040   1.115
 1888TIP3   OH2 5627   2.069   4.153   5.655
 1888TIP3    H1 5628   2.117   4.091   5.600
 1888TIP3    H2 5629   2.105   4.141   5.743
 1889TIP3   OH2 5630   1.779   1.963   5.190
 1889TIP3    H1 5631   1.772   1.922   5.276
 1889TIP3    H2 5632   1.748   1.897   5.129
 1890TIP3   OH2 5633   0.099   6.366   5.277
 1890TIP3    H1 5634   0.168   6.359   5.211
 1890TIP3    H2 5635   0.019   6.381   5.226
 1891TIP3   OH2 5636   6.009   0.874   1.838
 1891TIP3    H1 5637   6.015   0.779   1.839
 1891TIP3    H2 5638   6.085   0.903   1.889
 1892TIP3   OH2 5639   0.561   1.830   5.740
 1892TIP3    H1 5640   0.488   1.771   5.755
 1892TIP3    H2 5641   0.638   1.782   5.770
 1893TIP3   OH2 5642   3.001   2.692   1.234
 1893TIP3    H1 5643   2.915   2.728   1.212
 1893TIP3    H2 5644   3.043   2.676   1.149
 1894TIP3   OH2 5645   2.790   6.004   5.747
 1894TIP3    H1 5646   2.695   5.996   5.738
 1894TIP3    H2 5647   2.804   6.013   5.841
 1895TIP3   OH2 5648   3.060   2.416   4.261
 1895TIP3    H1 5649   3.096   2.433   4.174
 1895TIP3    H2 5650   3.065   2.500   4.307
 1896TIP3   OH2 5651   6.281   4.763   5.559
 1896TIP3    H1 5652   6.228   4.833   5.520
 1896TIP3    H2 5653   6.252   4.684   5.515
 1897TIP3   OH2 5654  -0.016   6.401   0.475
 1897TIP3    H1 5655  -0.004   6.382   0.382
 1897TIP3    H2 5656   0.068   6.378   0.515
 1898TIP3   OH2 5657   1.322   1.707   4.875
 1898TIP3    H1 5658   1.367   1.636   4.921
 1898TIP3    H2 5659   1.392   1.762   4.840
 1899TIP3   OH2 5660   0.331   3.196   1.329
 1899TIP3    H1 5661   0.306   3.141   1.403
 1899TIP3    H2 5662   0.350   3.282   1.367
 1900TIP3   OH2 5663   6.329   0.879   2.855
 1900TIP3    H1 5664   6.350   0.867   2.947
 1900TIP3    H2 5665   6.398   0.832   2.808
 1901TIP3   OH2 5666   1.453   3.272   4.145
 1901TIP3    H1 5667   1.503   3.241   4.221
 1901TIP3    H2 5668   1.496   3.231   4.070
 1902TIP3   OH2 5669   4.112   3.870   2.183
 1902TIP3    H1 5670   4.187   3.821   2.218
 1902TIP3    H2 5671   4.036   3.815   2.204
 1903TIP3   OH2 5672   0.058   4.219   3.420
 1903TIP3    H1 5673   0.111   4.273   3.478
 1903TIP3    H2 5674  -0.028   4.261   3.421
 1904TIP3   OH2 5675   6.916   0.560   0.576
 1904TIP3    H1 5676   6.937   0.631   0.515
 1904TIP3    H2 5677   6.971   0.487   0.548
 1905TIP3   OH2 5678   5.431   3.702   4.381
 1905TIP3    H1 5679   5.483   3.742   4.451
 1905TIP3    H2 5680   5.489   3.635   4.344
 1906TIP3   OH2 5681   1.012   0.477   0.712
 1906TIP3    H1 5682   0.930   0.523   0.697
 1906TIP3    H2 5683   1.065   0.537   0.764
 1907TIP3   OH2 5684   0.880   6.262   0.847
 1907TIP3    H1 5685   0.785   6.252   0.852
 1907TIP3    H2 5686   0.896   6.287   0.756
 1908TIP3   OH2 5687   3.326   5.221   5.051
 1908TIP3    H1 5688   3.298   5.224   5.143
 1908TIP3    H2 5689   3.296   5.305   5.014
 1909TIP3   OH2 5690   1.105   5.340   1.731
 1909TIP3    H1 5691   1.176   5.372   1.675
 1909TIP3    H2 5692   1.104   5.400   1.805
 1910TIP3   OH2 5693   0.098   1.261   0.268
 1910TIP3    H1 5694   0.153   1.186   0.247
 1910TIP3    H2 5695   0.038   1.269   0.194
 1911TIP3   OH2 5696   2.495   2.327   0.847
 1911TIP3    H1 5697   2.442   2.401   0.818
 1911TIP3    H2 5698   2.446   2.249   0.820
 1912TIP3   OH2 5699   3.790   3.695   0.599
 1912TIP3    H1 5700   3.831   3.622   0.647
 1912TIP3    H2 5701   3.861   3.759   0.588
 1913TIP3   OH2 5702   4.186   1.082   0.351
 1913TIP3    H1 5703   4.167   1.019   0.282
 1913TIP3    H2 5704   4.272   1.118   0.329
 1914TIP3   OH2 5705   5.835   4.656  -0.028
 1914TIP3    H1 5706   5.765   4.591  -0.028
 1914TIP3    H2 5707   5.841   4.684   0.064
 1915TIP3   OH2 5708   4.803   5.134   0.130
 1915TIP3    H1 5709   4.856   5.201   0.173
 1915TIP3    H2 5710   4.792   5.166   0.040
 1916TIP3   OH2 5711   5.234   4.181   1.950
 1916TIP3    H1 5712   5.208   4.180   2.042
 1916TIP3    H2 5713   5.266   4.092   1.934
 1917TIP3   OH2 5714   2.551   4.976   4.197
 1917TIP3    H1 5715   2.522   4.916   4.128
 1917TIP3    H2 5716   2.507   5.058   4.176
 1918TIP3   OH2 5717   4.233   2.698   3.683
 1918TIP3    H1 5718   4.303   2.649   3.641
 1918TIP3    H2 5719   4.153   2.669   3.639
 1919TIP3   OH2 5720   1.918   1.265   1.648
 1919TIP3    H1 5721   1.906   1.323   1.572
 1919TIP3    H2 5722   1.973   1.315   1.708
 1920TIP3   OH2 5723   0.694   4.703   5.613
 1920TIP3    H1 5724   0.603   4.676   5.626
 1920TIP3    H2 5725   0.743   4.620   5.608
 1921TIP3   OH2 5726   6.482   5.257   4.685
 1921TIP3    H1 5727   6.529   5.311   4.749
 1921TIP3    H2 5728   6.496   5.167   4.715
 1922TIP3   OH2 5729   0.765   3.298   4.307
 1922TIP3    H1 5730   0.785   3.322   4.217
 1922TIP3    H2 5731   0.672   3.317   4.317
 1923TIP3   OH2 5732   6.400   0.519   5.297
 1923TIP3    H1 5733   6.458   0.593   5.280
 1923TIP3    H2 5734   6.315   0.559   5.314
 1924TIP3   OH2 5735   1.151   2.212   2.142
 1924TIP3    H1 5736   1.110   2.146   2.198
 1924TIP3    H2 5737   1.077   2.255   2.098
 1925TIP3   OH2 5738   4.920   2.397   5.305
 1925TIP3    H1 5739   4.971   2.477   5.301
 1925TIP3    H2 5740   4.850   2.409   5.240
 1926TIP3   OH2 5741   0.725   4.711   1.032
 1926TIP3    H1 5742   0.671   4.751   0.963
 1926TIP3    H2 5743   0.742   4.623   0.999
 1927TIP3   OH2 5744   4.809   0.371   2.104
 1927TIP3    H1 5745   4.826   0.381   2.198
 1927TIP3    H2 5746   4.722   0.410   2.092
 1928TIP3   OH2 5747   4.889   6.013   3.273
 1928TIP3    H1 5748   4.936   6.027   3.192
 1928TIP3    H2 5749   4.816   5.955   3.249
 1929TIP3   OH2 5750   3.258   0.407   4.297
 1929TIP3    H1 5751   3.209   0.393   4.378
 1929TIP3    H2 5752   3.350   0.403   4.323
 1930TIP3   OH2 5753   0.292   0.253   1.426
 1930TIP3    H1 5754   0.234   0.289   1.494
 1930TIP3    H2 5755   0.288   0.317   1.355
 1931TIP3   OH2 5756   1.422   5.860   3.007
 1931TIP3    H1 5757   1.448   5.906   2.928
 1931TIP3    H2 5758   1.423   5.927   3.076
 1932TIP3   OH2 5759   7.116   5.986   1.296
 1932TIP3    H1 5760   7.102   6.079   1.313
 1932TIP3    H2 5761   7.042   5.960   1.241
 1933TIP3   OH2 5762   2.228   2.982   2.785
 1933TIP3    H1 5763   2.184   3.067   2.795
 1933TIP3    H2 5764   2.305   3.001   2.732
 1934TIP3   OH2 5765   5.455   4.834   1.354
 1934TIP3    H1 5766   5.369   4.817   1.394
 1934TIP3    H2 5767   5.518   4.805   1.419
 1935TIP3   OH2 5768   2.754   6.729   3.391
 1935TIP3    H1 5769   2.688   6.782   3.346
 1935TIP3    H2 5770   2.803   6.792   3.444
 1936TIP3   OH2 5771   1.341   5.654   2.794
 1936TIP3    H1 5772   1.331   5.649   2.889
 1936TIP3    H2 5773   1.278   5.721   2.768
 1937TIP3   OH2 5774   2.425   4.519   3.016
 1937TIP3    H1 5775   2.396   4.493   3.103
 1937TIP3    H2 5776   2.517   4.491   3.012
 1938TIP3   OH2 5777   3.597   6.518   2.612
 1938TIP3    H1 5778   3.605   6.584   2.682
 1938TIP3    H2 5779   3.610   6.568   2.531
 1939TIP3   OH2 5780   7.020   1.103   4.095
 1939TIP3    H1 5781   7.062   1.167   4.153
 1939TIP3    H2 5782   7.012   1.149   4.011
 1940TIP3   OH2 5783   5.560   5.033   1.797
 1940TIP3    H1 5784   5.629   4.976   1.831
 1940TIP3    H2 5785   5.485   4.975   1.785
 1941TIP3   OH2 5786   0.824   4.741   0.390
 1941TIP3    H1 5787   0.819   4.690   0.309
 1941TIP3    H2 5788   0.809   4.831   0.362
 1942TIP3   OH2 5789   5.722  -0.029   5.676
 1942TIP3    H1 5790   5.757  -0.077   5.601
 1942TIP3    H2 5791   5.750   0.061   5.663
 1943TIP3   OH2 5792   4.071   6.698   3.800
 1943TIP3    H1 5793   4.105   6.779   3.840
 1943TIP3    H2 5794   4.148   6.645   3.783
 1944TIP3   OH2 5795   6.881   2.324   0.424
 1944TIP3    H1 5796   6.871   2.265   0.499
 1944TIP3    H2 5797   6.880   2.265   0.348
 1945TIP3   OH2 5798   6.789   4.418   5.627
 1945TIP3    H1 5799   6.782   4.328   5.594
 1945TIP3    H2 5800   6.862   4.456   5.579
 1946TIP3   OH2 5801   0.012   1.520   2.030
 1946TIP3    H1 5802   0.106   1.520   2.013
 1946TIP3    H2 5803  -0.001   1.453   2.096
 1947TIP3   OH2 5804   0.310   0.025   5.639
 1947TIP3    H1 5805   0.251   0.070   5.578
 1947TIP3    H2 5806   0.369  -0.025   5.583
 1948TIP3   OH2 5807   5.850   3.212   2.903
 1948TIP3    H1 5808   5.817   3.294   2.940
 1948TIP3    H2 5809   5.771   3.163   2.880
 1949TIP3   OH2 5810   1.817   2.711   4.295
 1949TIP3    H1 5811   1.742   2.680   4.345
 1949TIP3    H2 5812   1.794   2.801   4.271
 1950TIP3   OH2 5813   5.723   0.260   1.511
 1950TIP3    H1 5814   5.652   0.198   1.528
 1950TIP3    H2 5815   5.787   0.209   1.461
 1951TIP3   OH2 5816   4.341   3.752   2.369
 1951TIP3    H1 5817   4.398   3.675   2.370
 1951TIP3    H2 5818   4.258   3.721   2.403
 1952TIP3   OH2 5819   0.465   1.816   1.985
 1952TIP3    H1 5820   0.513   1.756   2.042
 1952TIP3    H2 5821   0.531   1.844   1.921
 1953TIP3   OH2 5822   3.550   4.788   0.995
 1953TIP3    H1 5823   3.612   4.761   0.927
 1953TIP3    H2 5824   3.585   4.872   1.026
 1954TIP3   OH2 5825   1.969   6.739   0.135
 1954TIP3    H1 5826   2.030   6.685   0.186
 1954TIP3    H2 5827   1.937   6.681   0.066
 1955TIP3   OH2 5828   3.414   1.484   4.195
 1955TIP3    H1 5829   3.447   1.445   4.276
 1955TIP3    H2 5830   3.378   1.410   4.145
 1956TIP3   OH2 5831   3.898   3.793   1.892
 1956TIP3    H1 5832   3.874   3.736   1.966
 1956TIP3    H2 5833   3.890   3.881   1.927
 1957TIP3   OH2 5834   2.244   0.795   2.511
 1957TIP3    H1 5835   2.234   0.730   2.441
 1957TIP3    H2 5836   2.338   0.810   2.517
 1958TIP3   OH2 5837   7.242   2.148   5.076
 1958TIP3    H1 5838   7.248   2.071   5.133
 1958TIP3    H2 5839   7.307   2.209   5.109
 1959TIP3   OH2 5840   3.799   2.962   1.740
 1959TIP3    H1 5841   3.790   2.937   1.648
 1959TIP3    H2 5842   3.886   2.930   1.765
 1960TIP3   OH2 5843   2.005   6.766   0.490
 1960TIP3    H1 5844   2.084   6.732   0.448
 1960TIP3    H2 5845   1.934   6.712   0.455
 1961TIP3   OH2 5846   5.672   3.912   3.919
 1961TIP3    H1 5847   5.590   3.864   3.934
 1961TIP3    H2 5848   5.661   3.952   3.833
 1962TIP3   OH2 5849   0.850   2.662   0.650
 1962TIP3    H1 5850   0.892   2.690   0.569
 1962TIP3    H2 5851   0.794   2.736   0.674
 1963TIP3   OH2 5852   3.907   2.172   1.891
 1963TIP3    H1 5853   3.863   2.242   1.940
 1963TIP3    H2 5854   3.989   2.158   1.939
 1964TIP3   OH2 5855   3.298   5.121   4.419
 1964TIP3    H1 5856   3.277   5.208   4.385
 1964TIP3    H2 5857   3.276   5.126   4.512
 1965TIP3   OH2 5858   0.659   5.334   0.137
 1965TIP3    H1 5859   0.588   5.373   0.188
 1965TIP3    H2 5860   0.730   5.323   0.199
 1966TIP3   OH2 5861   3.307   0.266   0.002
 1966TIP3    H1 5862   3.370   0.292   0.069
 1966TIP3    H2 5863   3.286   0.175   0.023
 1967TIP3   OH2 5864   5.044   1.710   0.109
 1967TIP3    H1 5865   4.993   1.699   0.189
 1967TIP3    H2 5866   5.012   1.793   0.072
 1968TIP3   OH2 5867   6.421   2.932   5.455
 1968TIP3    H1 5868   6.449   2.870   5.522
 1968TIP3    H2 5869   6.425   2.883   5.373
 1969TIP3   OH2 5870   3.168   2.102   3.462
 1969TIP3    H1 5871   3.136   2.182   3.419
 1969TIP3    H2 5872   3.176   2.126   3.555
 1970TIP3   OH2 5873   1.739   4.168   5.605
 1970TIP3    H1 5874   1.693   4.106   5.548
 1970TIP3    H2 5875   1.832   4.154   5.587
 1971TIP3   OH2 5876   2.058   0.571   4.163
 1971TIP3    H1 5877   2.142   0.588   4.206
 1971TIP3    H2 5878   2.009   0.518   4.226
 1972TIP3   OH2 5879   1.477   5.090   5.332
 1972TIP3    H1 5880   1.448   5.013   5.380
 1972TIP3    H2 5881   1.398   5.125   5.291
 1973TIP3   OH2 5882   0.841   2.346   3.843
 1973TIP3    H1 5883   0.855   2.303   3.927
 1973TIP3    H2 5884   0.824   2.275   3.782
 1974TIP3   OH2 5885   5.591   6.613   4.266
 1974TIP3    H1 5886   5.621   6.697   4.301
 1974TIP3    H2 5887   5.668   6.557   4.270
 1975TIP3   OH2 5888   1.612   4.616   5.285
 1975TIP3    H1 5889   1.675   4.663   5.230
 1975TIP3    H2 5890   1.527   4.635   5.246
 1976TIP3   OH2 5891   0.444   4.583   3.241
 1976TIP3    H1 5892   0.395   4.657   3.205
 1976TIP3    H2 5893   0.417   4.579   3.333
 1977TIP3   OH2 5894   2.627   1.809   5.378
 1977TIP3    H1 5895   2.689   1.857   5.432
 1977TIP3    H2 5896   2.650   1.717   5.391
 1978TIP3   OH2 5897   2.935   0.526   1.221
 1978TIP3    H1 5898   2.951   0.586   1.293
 1978TIP3    H2 5899   2.845   0.543   1.195
 1979TIP3   OH2 5900   6.354   5.618   0.813
 1979TIP3    H1 5901   6.351   5.625   0.718
 1979TIP3    H2 5902   6.437   5.660   0.838
 1980TIP3   OH2 5903   4.112   1.827   5.253
 1980TIP3    H1 5904   4.067   1.845   5.336
 1980TIP3    H2 5905   4.176   1.759   5.275
 1981TIP3   OH2 5906   7.201   2.942   4.066
 1981TIP3    H1 5907   7.202   2.989   4.149
 1981TIP3    H2 5908   7.210   2.850   4.091
 1982TIP3   OH2 5909   4.386   2.663   0.026
 1982TIP3    H1 5910   4.464   2.618  -0.006
 1982TIP3    H2 5911   4.366   2.728  -0.042
 1983TIP3   OH2 5912   6.311   3.858   5.740
 1983TIP3    H1 5913   6.279   3.775   5.774
 1983TIP3    H2 5914   6.310   3.847   5.645
 1984TIP3   OH2 5915   3.154   2.306   2.727
 1984TIP3    H1 5916   3.146   2.398   2.753
 1984TIP3    H2 5917   3.089   2.295   2.657
 1985TIP3   OH2 5918   2.974   0.311   0.065
 1985TIP3    H1 5919   2.983   0.369  -0.010
 1985TIP3    H2 5920   3.023   0.353   0.135
 1986TIP3   OH2 5921   1.406   4.495   2.757
 1986TIP3    H1 5922   1.375   4.430   2.820
 1986TIP3    H2 5923   1.341   4.564   2.760
 1987TIP3   OH2 5924   4.721   2.126   3.934
 1987TIP3    H1 5925   4.805   2.148   3.973
 1987TIP3    H2 5926   4.659   2.126   4.007
 1988TIP3   OH2 5927   0.442   4.143   0.134
 1988TIP3    H1 5928   0.430   4.072   0.197
 1988TIP3    H2 5929   0.396   4.217   0.173
 1989TIP3   OH2 5930   3.101   4.341   4.928
 1989TIP3    H1 5931   3.079   4.324   4.836
 1989TIP3    H2 5932   3.029   4.396   4.960
 1990TIP3   OH2 5933   6.538   0.752   5.333
 1990TIP3    H1 5934   6.628   0.765   5.303
 1990TIP3    H2 5935   6.529   0.812   5.407
 1991TIP3   OH2 5936   6.831   6.623   5.835
 1991TIP3    H1 5937   6.785   6.697   5.874
 1991TIP3    H2 5938   6.837   6.645   5.742
 1992TIP3   OH2 5939   4.979   3.487   1.266
 1992TIP3    H1 5940   4.991   3.418   1.201
 1992TIP3    H2 5941   5.054   3.478   1.325
 1993TIP3   OH2 5942   5.717   0.754   5.142
 1993TIP3    H1 5943   5.680   0.807   5.071
 1993TIP3    H2 5944   5.801   0.796   5.161
 1994TIP3   OH2 5945   0.910   2.497   1.336
 1994TIP3    H1 5946   0.908   2.585   1.373
 1994TIP3    H2 5947   0.819   2.478   1.314
 1995TIP3   OH2 5948   4.940   3.690   2.998
 1995TIP3    H1 5949   4.965   3.777   3.030
 1995TIP3    H2 5950   4.977   3.686   2.909
 1996TIP3   OH2 5951   2.218   0.426   5.140
 1996TIP3    H1 5952   2.302   0.467   5.122
 1996TIP3    H2 5953   2.224   0.397   5.231
 1997TIP3   OH2 5954   4.784   6.280   0.229
 1997TIP3    H1 5955   4.707   6.290   0.285
 1997TIP3    H2 5956   4.764   6.203   0.175
 1998TIP3   OH2 5957   2.583   2.803   5.809
 1998TIP3    H1 5958   2.644   2.824   5.880
 1998TIP3    H2 5959   2.506   2.768   5.854
 1999TIP3   OH2 5960   4.234   5.067   1.587
 1999TIP3    H1 5961   4.168   5.083   1.654
 1999TIP3    H2 5962   4.184   5.058   1.506
 2000TIP3   OH2 5963   1.280   4.288   1.683
 2000TIP3    H1 5964   1.367   4.261   1.656
 2000TIP3    H2 5965   1.292   4.375   1.720
 2001TIP3   OH2 5966   4.197   5.149   4.061
 2001TIP3    H1 5967   4.212   5.095   3.983
 2001TIP3    H2 5968   4.284   5.180   4.085
 2002TIP3   OH2 5969   2.809   3.237   0.681
 2002TIP3    H1 5970   2.731   3.209   0.634
 2002TIP3    H2 5971   2.847   3.306   0.626
 2003TIP3   OH2 5972   0.426   1.002   3.779
 2003TIP3    H1 5973   0.459   1.079   3.733
 2003TIP3    H2 5974   0.411   0.937   3.711
 2004TIP3   OH2 5975   1.282   0.583   3.630
 2004TIP3    H1 5976   1.224   0.508   3.647
 2004TIP3    H2 5977   1.258   0.647   3.696
 2005TIP3   OH2 5978   0.188   2.172   0.873
 2005TIP3    H1 5979   0.202   2.096   0.930
 2005TIP3    H2 5980   0.204   2.248   0.930
 2006TIP3   OH2 5981   5.410   5.270   4.739
 2006TIP3    H1 5982   5.387   5.250   4.830
 2006TIP3    H2 5983   5.461   5.351   4.745
 2007TIP3   OH2 5984   3.236   6.084   3.324
 2007TIP3    H1 5985   3.274   6.047   3.403
 2007TIP3    H2 5986   3.285   6.044   3.252
 2008TIP3   OH2 5987   3.495   6.164   1.893
 2008TIP3    H1 5988   3.443   6.221   1.836
 2008TIP3    H2 5989   3.434   6.137   1.961
 2009TIP3   OH2 5990   5.044   2.904   0.507
 2009TIP3    H1 5991   4.961   2.905   0.459
 2009TIP3    H2 5992   5.036   2.976   0.570
 2010TIP3   OH2 5993   1.749   5.535   0.974
 2010TIP3    H1 5994   1.698   5.513   0.896
 2010TIP3    H2 5995   1.840   5.535   0.944
 2011TIP3   OH2 5996   0.305   5.577   2.086
 2011TIP3    H1 5997   0.377   5.516   2.070
 2011TIP3    H2 5998   0.227   5.532   2.054
 2012TIP3   OH2 5999   2.439   4.988   5.216
 2012TIP3    H1 6000   2.487   4.928   5.158
 2012TIP3    H2 6001   2.507   5.034   5.265
 2013TIP3   OH2 6002   4.279   1.660   0.050
 2013TIP3    H1 6003   4.250   1.598   0.117
 2013TIP3    H2 6004   4.342   1.612  -0.003
 2014TIP3   OH2 6005   4.317   5.224   2.481
 2014TIP3    H1 6006   4.370   5.166   2.427
 2014TIP3    H2 6007   4.251   5.259   2.422
 2015TIP3   OH2 6008   0.361   5.524   0.236
 2015TIP3    H1 6009   0.270   5.537   0.264
 2015TIP3    H2 6010   0.391   5.612   0.211
 2016TIP3   OH2 6011   3.957   2.373   2.094
 2016TIP3    H1 6012   3.932   2.366   2.186
 2016TIP3    H2 6013   4.034   2.316   2.086
 2017TIP3   OH2 6014   4.006   6.481   3.972
 2017TIP3    H1 6015   4.054   6.400   3.988
 2017TIP3    H2 6016   3.998   6.486   3.877
 2018TIP3   OH2 6017   2.681   5.489   1.713
 2018TIP3    H1 6018   2.627   5.540   1.652
 2018TIP3    H2 6019   2.765   5.482   1.668
 2019TIP3   OH2 6020   3.846   1.863   3.228
 2019TIP3    H1 6021   3.811   1.889   3.143
 2019TIP3    H2 6022   3.927   1.817   3.208
 2020TIP3   OH2 6023   4.799   2.129   3.023
 2020TIP3    H1 6024   4.876   2.098   2.976
 2020TIP3    H2 6025   4.832   2.160   3.107
 2021TIP3   OH2 6026   5.959   3.505   4.597
 2021TIP3    H1 6027   5.924   3.587   4.630
 2021TIP3    H2 6028   5.885   3.462   4.553
 2022TIP3   OH2 6029   4.725   4.491   2.447
 2022TIP3    H1 6030   4.650   4.432   2.459
 2022TIP3    H2 6031   4.694   4.556   2.384
 2023TIP3   OH2 6032   5.059   0.545   5.264
 2023TIP3    H1 6033   4.969   0.578   5.274
 2023TIP3    H2 6034   5.064   0.471   5.324
 2024TIP3   OH2 6035   6.163   0.047   0.329
 2024TIP3    H1 6036   6.144  -0.007   0.253
 2024TIP3    H2 6037   6.128   0.133   0.307
 2025TIP3   OH2 6038   5.154   0.744   2.750
 2025TIP3    H1 6039   5.096   0.821   2.752
 2025TIP3    H2 6040   5.242   0.781   2.748
 2026TIP3   OH2 6041   5.665   2.457   1.799
 2026TIP3    H1 6042   5.659   2.363   1.813
 2026TIP3    H2 6043   5.685   2.493   1.886
 2027TIP3   OH2 6044   4.522   4.655   3.667
 2027TIP3    H1 6045   4.514   4.630   3.575
 2027TIP3    H2 6046   4.615   4.668   3.681
 2028TIP3   OH2 6047   5.486   2.237   2.632
 2028TIP3    H1 6048   5.410   2.204   2.583
 2028TIP3    H2 6049   5.527   2.300   2.573
 2029TIP3   OH2 6050   6.524   2.067   1.900
 2029TIP3    H1 6051   6.464   2.076   1.974
 2029TIP3    H2 6052   6.482   2.115   1.829
 2030TIP3   OH2 6053   5.048   0.462   0.077
 2030TIP3    H1 6054   5.107   0.387   0.066
 2030TIP3    H2 6055   5.079   0.506   0.155
 2031TIP3   OH2 6056   3.532   4.080   4.283
 2031TIP3    H1 6057   3.467   4.010   4.279
 2031TIP3    H2 6058   3.480   4.161   4.288
 2032TIP3   OH2 6059   6.809   2.931   5.458
 2032TIP3    H1 6060   6.747   2.987   5.410
 2032TIP3    H2 6061   6.796   2.844   5.421
 2033TIP3   OH2 6062   6.614   1.098   1.636
 2033TIP3    H1 6063   6.542   1.041   1.666
 2033TIP3    H2 6064   6.617   1.168   1.702
 2034TIP3   OH2 6065   4.213   2.887   5.695
 2034TIP3    H1 6066   4.204   2.927   5.608
 2034TIP3    H2 6067   4.200   2.793   5.678
 2035TIP3   OH2 6068   0.123   6.691   3.712
 2035TIP3    H1 6069   0.079   6.776   3.702
 2035TIP3    H2 6070   0.051   6.628   3.722
 2036TIP3   OH2 6071   6.583   5.325   2.199
 2036TIP3    H1 6072   6.601   5.354   2.109
 2036TIP3    H2 6073   6.514   5.383   2.230
 2037TIP3   OH2 6074   0.111   5.702   3.646
 2037TIP3    H1 6075   0.019   5.720   3.625
 2037TIP3    H2 6076   0.118   5.606   3.642
 2038TIP3   OH2 6077   6.350   2.930   3.765
 2038TIP3    H1 6078   6.264   2.900   3.736
 2038TIP3    H2 6079   6.349   3.024   3.748
 2039TIP3   OH2 6080   2.853   0.756   0.982
 2039TIP3    H1 6081   2.903   0.757   0.900
 2039TIP3    H2 6082   2.780   0.696   0.964
 2040TIP3   OH2 6083   5.419   0.648   1.316
 2040TIP3    H1 6084   5.375   0.572   1.356
 2040TIP3    H2 6085   5.407   0.718   1.380
 2041TIP3   OH2 6086   1.220   2.462   3.696
 2041TIP3    H1 6087   1.188   2.419   3.775
 2041TIP3    H2 6088   1.171   2.544   3.691
 2042TIP3   OH2 6089   2.120   2.778   3.771
 2042TIP3    H1 6090   2.134   2.763   3.864
 2042TIP3    H2 6091   2.048   2.841   3.767
 2043TIP3   OH2 6092   2.164   5.819   0.822
 2043TIP3    H1 6093   2.223   5.856   0.756
 2043TIP3    H2 6094   2.175   5.877   0.898
 2044TIP3   OH2 6095   4.600   6.107   3.364
 2044TIP3    H1 6096   4.621   6.068   3.449
 2044TIP3    H2 6097   4.607   6.035   3.302
 2045TIP3   OH2 6098   1.314   4.030   4.520
 2045TIP3    H1 6099   1.316   4.095   4.450
 2045TIP3    H2 6100   1.404   3.998   4.525
 2046TIP3   OH2 6101   0.496   6.278   3.740
 2046TIP3    H1 6102   0.501   6.252   3.648
 2046TIP3    H2 6103   0.403   6.271   3.762
 2047TIP3   OH2 6104   4.590   5.719   0.281
 2047TIP3    H1 6105   4.628   5.804   0.260
 2047TIP3    H2 6106   4.647   5.683   0.349
 2048TIP3   OH2 6107   5.182   5.337   5.788
 2048TIP3    H1 6108   5.211   5.428   5.798
 2048TIP3    H2 6109   5.234   5.289   5.852
 2049TIP3   OH2 6110   6.038   6.811   3.898
 2049TIP3    H1 6111   6.067   6.788   3.986
 2049TIP3    H2 6112   6.010   6.902   3.906
 2050TIP3   OH2 6113   6.436   4.000   3.719
 2050TIP3    H1 6114   6.439   3.931   3.785
 2050TIP3    H2 6115   6.475   4.076   3.761
 2051TIP3   OH2 6116   4.529   1.365   0.230
 2051TIP3    H1 6117   4.582   1.395   0.304
 2051TIP3    H2 6118   4.562   1.416   0.156
 2052TIP3   OH2 6119   5.703   0.049   2.569
 2052TIP3    H1 6120   5.797   0.064   2.561
 2052TIP3    H2 6121   5.694  -0.004   2.649
 2053TIP3   OH2 6122   3.669   3.913   1.240
 2053TIP3    H1 6123   3.712   3.998   1.231
 2053TIP3    H2 6124   3.715   3.871   1.312
 2054TIP3   OH2 6125   6.347   2.286   1.123
 2054TIP3    H1 6126   6.392   2.204   1.104
 2054TIP3    H2 6127   6.375   2.308   1.212
 2055TIP3   OH2 6128   6.784   3.552   5.476
 2055TIP3    H1 6129   6.738   3.569   5.394
 2055TIP3    H2 6130   6.746   3.615   5.538
 2056TIP3   OH2 6131   6.736   3.008   0.441
 2056TIP3    H1 6132   6.674   3.080   0.452
 2056TIP3    H2 6133   6.796   3.039   0.373
 2057TIP3   OH2 6134   4.576   4.483   4.262
 2057TIP3    H1 6135   4.653   4.539   4.255
 2057TIP3    H2 6136   4.569   4.462   4.355
 2058TIP3   OH2 6137   0.137   2.725   3.896
 2058TIP3    H1 6138   0.226   2.736   3.927
 2058TIP3    H2 6139   0.139   2.755   3.805
 2059TIP3   OH2 6140   4.113   2.558   1.406
 2059TIP3    H1 6141   4.048   2.553   1.336
 2059TIP3    H2 6142   4.187   2.508   1.373
 2060TIP3   OH2 6143   1.279   0.510   2.836
 2060TIP3    H1 6144   1.355   0.457   2.816
 2060TIP3    H2 6145   1.296   0.594   2.793
 2061TIP3   OH2 6146   5.235   1.219   4.285
 2061TIP3    H1 6147   5.139   1.212   4.282
 2061TIP3    H2 6148   5.260   1.174   4.366
 2062TIP3   OH2 6149   2.318   0.376   4.783
 2062TIP3    H1 6150   2.328   0.343   4.873
 2062TIP3    H2 6151   2.355   0.306   4.729
 2063TIP3   OH2 6152   6.595   1.381   2.105
 2063TIP3    H1 6153   6.543   1.394   2.184
 2063TIP3    H2 6154   6.684   1.402   2.130
 2064TIP3   OH2 6155   4.511   3.908   3.449
 2064TIP3    H1 6156   4.556   3.971   3.394
 2064TIP3    H2 6157   4.471   3.846   3.388
 2065TIP3   OH2 6158   7.199   0.380   3.347
 2065TIP3    H1 6159   7.169   0.416   3.431
 2065TIP3    H2 6160   7.204   0.286   3.362
 2066TIP3   OH2 6161   6.156   4.971   2.456
 2066TIP3    H1 6162   6.248   4.978   2.431
 2066TIP3    H2 6163   6.147   5.031   2.530
 2067TIP3   OH2 6164   3.279   6.062   3.656
 2067TIP3    H1 6165   3.309   5.974   3.632
 2067TIP3    H2 6166   3.221   6.049   3.730
 2068TIP3   OH2 6167   4.725   0.333   1.404
 2068TIP3    H1 6168   4.695   0.346   1.494
 2068TIP3    H2 6169   4.647   0.305   1.357
 2069TIP3   OH2 6170   5.052   2.840   2.080
 2069TIP3    H1 6171   5.081   2.927   2.056
 2069TIP3    H2 6172   4.964   2.833   2.044
 2070TIP3   OH2 6173   5.315   6.630   4.157
 2070TIP3    H1 6174   5.404   6.643   4.191
 2070TIP3    H2 6175   5.296   6.538   4.175
 2071TIP3   OH2 6176   0.751   0.311   3.184
 2071TIP3    H1 6177   0.798   0.236   3.147
 2071TIP3    H2 6178   0.658   0.291   3.169
 2072TIP3   OH2 6179   6.683   0.532   4.004
 2072TIP3    H1 6180   6.740   0.512   4.078
 2072TIP3    H2 6181   6.741   0.569   3.937
 2073TIP3   OH2 6182   3.874   3.123   0.714
 2073TIP3    H1 6183   3.931   3.063   0.666
 2073TIP3    H2 6184   3.929   3.158   0.784
 2074TIP3   OH2 6185   1.657   5.407   0.756
 2074TIP3    H1 6186   1.720   5.367   0.696
 2074TIP3    H2 6187   1.590   5.339   0.768
 2075TIP3   OH2 6188   6.234   1.640   0.902
 2075TIP3    H1 6189   6.279   1.666   0.822
 2075TIP3    H2 6190   6.293   1.665   0.972
 2076TIP3   OH2 6191   6.871   4.003   1.436
 2076TIP3    H1 6192   6.917   4.023   1.355
 2076TIP3    H2 6193   6.803   3.941   1.411
 2077TIP3   OH2 6194   1.056   3.924   4.527
 2077TIP3    H1 6195   1.039   3.830   4.531
 2077TIP3    H2 6196   1.151   3.931   4.517
 2078TIP3   OH2 6197   4.864   5.678   0.371
 2078TIP3    H1 6198   4.857   5.668   0.276
 2078TIP3    H2 6199   4.955   5.706   0.385
 2079TIP3   OH2 6200   2.991   6.809   2.537
 2079TIP3    H1 6201   3.000   6.729   2.588
 2079TIP3    H2 6202   3.075   6.818   2.491
 2080TIP3   OH2 6203   0.194   0.686   0.493
 2080TIP3    H1 6204   0.151   0.767   0.467
 2080TIP3    H2 6205   0.140   0.652   0.565
 2081TIP3   OH2 6206   5.010   1.350   1.735
 2081TIP3    H1 6207   4.923   1.372   1.701
 2081TIP3    H2 6208   5.071   1.382   1.669
 2082TIP3   OH2 6209   2.652   1.619   4.992
 2082TIP3    H1 6210   2.584   1.671   5.036
 2082TIP3    H2 6211   2.606   1.542   4.959
 2083TIP3   OH2 6212   2.237   1.006   5.635
 2083TIP3    H1 6213   2.145   1.013   5.658
 2083TIP3    H2 6214   2.264   1.095   5.614
 2084TIP3   OH2 6215   0.874   5.887   3.243
 2084TIP3    H1 6216   0.835   5.845   3.320
 2084TIP3    H2 6217   0.962   5.849   3.237
 2085TIP3   OH2 6218   0.966   4.838   0.899
 2085TIP3    H1 6219   0.917   4.756   0.903
 2085TIP3    H2 6220   1.027   4.826   0.827
 2086TIP3   OH2 6221   2.489   0.377   5.047
 2086TIP3    H1 6222   2.548   0.394   5.121
 2086TIP3    H2 6223   2.464   0.285   5.057
 2087TIP3   OH2 6224   1.589   6.101   4.833
 2087TIP3    H1 6225   1.562   6.193   4.831
 2087TIP3    H2 6226   1.610   6.081   4.742
 2088TIP3   OH2 6227   6.416   2.610   1.737
 2088TIP3    H1 6228   6.509   2.586   1.741
 2088TIP3    H2 6229   6.408   2.689   1.790
 2089TIP3   OH2 6230   5.100   1.559   0.526
 2089TIP3    H1 6231   5.195   1.566   0.519
 2089TIP3    H2 6232   5.083   1.465   0.525
 2090TIP3   OH2 6233   2.005   5.946   2.503
 2090TIP3    H1 6234   1.924   5.995   2.493
 2090TIP3    H2 6235   2.073   6.004   2.470
 2091TIP3   OH2 6236   1.431  -0.006   1.383
 2091TIP3    H1 6237   1.394  -0.033   1.467
 2091TIP3    H2 6238   1.357   0.025   1.332
 2092TIP3   OH2 6239   0.747   5.863   0.920
 2092TIP3    H1 6240   0.664   5.911   0.920
 2092TIP3    H2 6241   0.727   5.781   0.874
 2093TIP3   OH2 6242   2.684   1.955   3.607
 2093TIP3    H1 6243   2.772   1.991   3.595
 2093TIP3    H2 6244   2.698   1.870   3.649
 2094TIP3   OH2 6245   6.200   6.636   0.670
 2094TIP3    H1 6246   6.184   6.542   0.667
 2094TIP3    H2 6247   6.244   6.650   0.754
 2095TIP3   OH2 6248   5.857   3.298   5.788
 2095TIP3    H1 6249   5.951   3.283   5.783
 2095TIP3    H2 6250   5.838   3.356   5.714
 2096TIP3   OH2 6251   5.239   5.934   2.195
 2096TIP3    H1 6252   5.170   5.871   2.176
 2096TIP3    H2 6253   5.224   6.005   2.132
 2097TIP3   OH2 6254   2.947   2.975   4.154
 2097TIP3    H1 6255   2.921   3.003   4.067
 2097TIP3    H2 6256   2.940   2.880   4.152
 2098TIP3   OH2 6257   0.906   3.068   5.595
 2098TIP3    H1 6258   0.904   3.101   5.505
 2098TIP3    H2 6259   0.999   3.051   5.612
 2099TIP3   OH2 6260   6.955   1.911   5.020
 2099TIP3    H1 6261   7.026   1.914   5.084
 2099TIP3    H2 6262   6.998   1.922   4.935
 2100TIP3   OH2 6263   5.232   5.567   4.906
 2100TIP3    H1 6264   5.197   5.539   4.821
 2100TIP3    H2 6265   5.163   5.622   4.944
 2101TIP3   OH2 6266   2.301   5.145   0.720
 2101TIP3    H1 6267   2.366   5.212   0.699
 2101TIP3    H2 6268   2.282   5.159   0.813
 2102TIP3   OH2 6269   3.085   6.631   3.517
 2102TIP3    H1 6270   3.140   6.600   3.445
 2102TIP3    H2 6271   3.106   6.572   3.589
 2103TIP3   OH2 6272   6.134   4.863   3.874
 2103TIP3    H1 6273   6.039   4.876   3.877
 2103TIP3    H2 6274   6.165   4.894   3.960
 2104TIP3   OH2 6275   3.889   1.792   0.491
 2104TIP3    H1 6276   3.969   1.827   0.451
 2104TIP3    H2 6277   3.840   1.869   0.518
 2105TIP3   OH2 6278   5.382   6.202   0.668
 2105TIP3    H1 6279   5.321   6.242   0.730
 2105TIP3    H2 6280   5.331   6.185   0.590
 2106TIP3   OH2 6281   3.196   1.088   4.665
 2106TIP3    H1 6282   3.227   1.150   4.731
 2106TIP3    H2 6283   3.200   1.137   4.583
 2107TIP3   OH2 6284   3.224   6.475   0.363
 2107TIP3    H1 6285   3.279   6.469   0.441
 2107TIP3    H2 6286   3.274   6.528   0.302
 2108TIP3   OH2 6287   2.682   1.851   1.070
 2108TIP3    H1 6288   2.696   1.899   0.989
 2108TIP3    H2 6289   2.589   1.865   1.091
 2109TIP3   OH2 6290   2.145   3.000   4.866
 2109TIP3    H1 6291   2.107   3.047   4.940
 2109TIP3    H2 6292   2.173   2.916   4.902
 2110TIP3   OH2 6293   5.826   5.743   0.423
 2110TIP3    H1 6294   5.777   5.679   0.475
 2110TIP3    H2 6295   5.760   5.805   0.393
 2111TIP3   OH2 6296   0.293   1.546   1.997
 2111TIP3    H1 6297   0.383   1.553   1.965
 2111TIP3    H2 6298   0.303   1.525   2.090
 2112TIP3   OH2 6299   1.850   3.325   4.934
 2112TIP3    H1 6300   1.784   3.267   4.971
 2112TIP3    H2 6301   1.881   3.279   4.856
 2113TIP3   OH2 6302   2.956   3.966   0.022
 2113TIP3    H1 6303   3.009   3.967   0.102
 2113TIP3    H2 6304   2.985   4.043  -0.027
 2114TIP3   OH2 6305   3.196   1.019   2.108
 2114TIP3    H1 6306   3.113   1.056   2.079
 2114TIP3    H2 6307   3.207   0.939   2.056
 2115TIP3   OH2 6308   2.930   6.589   0.857
 2115TIP3    H1 6309   2.891   6.582   0.770
 2115TIP3    H2 6310   2.858   6.574   0.918
 2116TIP3   OH2 6311   1.096   6.611   4.515
 2116TIP3    H1 6312   1.023   6.551   4.502
 2116TIP3    H2 6313   1.062   6.696   4.486
 2117TIP3   OH2 6314   5.851   4.408   0.238
 2117TIP3    H1 6315   5.865   4.389   0.145
 2117TIP3    H2 6316   5.812   4.328   0.273
 2118TIP3   OH2 6317   4.248   4.976   2.669
 2118TIP3    H1 6318   4.232   5.060   2.712
 2118TIP3    H2 6319   4.334   4.986   2.628
 2119TIP3   OH2 6320   3.478   1.288   3.584
 2119TIP3    H1 6321   3.537   1.359   3.560
 2119TIP3    H2 6322   3.465   1.297   3.678
 2120TIP3   OH2 6323   3.527   1.524   2.158
 2120TIP3    H1 6324   3.548   1.560   2.072
 2120TIP3    H2 6325   3.458   1.581   2.191
 2121TIP3   OH2 6326   4.619   1.589   1.375
 2121TIP3    H1 6327   4.553   1.553   1.435
 2121TIP3    H2 6328   4.620   1.527   1.301
 2122TIP3   OH2 6329   2.056   0.781   4.823
 2122TIP3    H1 6330   1.965   0.803   4.843
 2122TIP3    H2 6331   2.081   0.719   4.891
 2123TIP3   OH2 6332   2.421   3.503   1.568
 2123TIP3    H1 6333   2.326   3.494   1.564
 2123TIP3    H2 6334   2.437   3.555   1.647
 2124TIP3   OH2 6335   5.587   1.327   0.703
 2124TIP3    H1 6336   5.608   1.395   0.767
 2124TIP3    H2 6337   5.654   1.336   0.635
 2125TIP3   OH2 6338   3.177   5.092   0.001
 2125TIP3    H1 6339   3.192   5.001   0.026
 2125TIP3    H2 6340   3.124   5.128   0.073
 2126TIP3   OH2 6341   0.357   5.349   0.000
 2126TIP3    H1 6342   0.320   5.426   0.041
 2126TIP3    H2 6343   0.323   5.275   0.050
 2127TIP3   OH2 6344   5.144   0.109   2.619
 2127TIP3    H1 6345   5.180   0.021   2.624
 2127TIP3    H2 6346   5.182   0.146   2.539
 2128TIP3   OH2 6347   2.876   0.596   3.579
 2128TIP3    H1 6348   2.898   0.689   3.573
 2128TIP3    H2 6349   2.939   0.561   3.642
 2129TIP3   OH2 6350   2.659   3.302   5.733
 2129TIP3    H1 6351   2.579   3.341   5.769
 2129TIP3    H2 6352   2.709   3.377   5.700
 2130TIP3   OH2 6353   0.269   3.504   5.733
 2130TIP3    H1 6354   0.268   3.433   5.669
 2130TIP3    H2 6355   0.190   3.492   5.785
 2131TIP3   OH2 6356   4.749   6.366   5.366
 2131TIP3    H1 6357   4.754   6.407   5.280
 2131TIP3    H2 6358   4.789   6.429   5.425
 2132TIP3   OH2 6359   1.869   0.457   4.411
 2132TIP3    H1 6360   1.794   0.422   4.459
 2132TIP3    H2 6361   1.914   0.514   4.473
 2133TIP3   OH2 6362   3.629   2.121   5.886
 2133TIP3    H1 6363   3.666   2.109   5.799
 2133TIP3    H2 6364   3.537   2.096   5.877
 2134TIP3   OH2 6365   5.355   2.190   3.371
 2134TIP3    H1 6366   5.328   2.280   3.391
 2134TIP3    H2 6367   5.381   2.193   3.279
 2135TIP3   OH2 6368   0.564   2.505   4.321
 2135TIP3    H1 6369   0.635   2.500   4.385
 2135TIP3    H2 6370   0.537   2.414   4.307
 2136TIP3   OH2 6371   0.747   0.593   5.607
 2136TIP3    H1 6372   0.729   0.672   5.658
 2136TIP3    H2 6373   0.817   0.618   5.547
 2137TIP3   OH2 6374   1.551   0.329   3.900
 2137TIP3    H1 6375   1.641   0.356   3.917
 2137TIP3    H2 6376   1.533   0.362   3.812
 2138TIP3   OH2 6377   2.520   0.260   0.851
 2138TIP3    H1 6378   2.513   0.263   0.946
 2138TIP3    H2 6379   2.433   0.283   0.820
 2139TIP3   OH2 6380   4.867   0.630   1.609
 2139TIP3    H1 6381   4.870   0.614   1.514
 2139TIP3    H2 6382   4.789   0.583   1.638
 2140TIP3   OH2 6383   3.226   3.409   2.722
 2140TIP3    H1 6384   3.156   3.345   2.725
 2140TIP3    H2 6385   3.281   3.389   2.798
 2141TIP3   OH2 6386   1.724   0.717   2.361
 2141TIP3    H1 6387   1.663   0.668   2.306
 2141TIP3    H2 6388   1.749   0.655   2.430
 2142TIP3   OH2 6389   0.609   0.092   1.704
 2142TIP3    H1 6390   0.583   0.185   1.701
 2142TIP3    H2 6391   0.697   0.093   1.742
 2143TIP3   OH2 6392   1.276   2.448   4.135
 2143TIP3    H1 6393   1.197   2.501   4.142
 2143TIP3    H2 6394   1.251   2.374   4.080
 2144TIP3   OH2 6395   7.011   2.963   5.652
 2144TIP3    H1 6396   7.079   3.011   5.604
 2144TIP3    H2 6397   6.934   2.967   5.595
 2145TIP3   OH2 6398   2.760   5.814   5.293
 2145TIP3    H1 6399   2.746   5.859   5.210
 2145TIP3    H2 6400   2.679   5.829   5.343
 2146TIP3   OH2 6401   7.178   5.206   2.120
 2146TIP3    H1 6402   7.148   5.296   2.125
 2146TIP3    H2 6403   7.248   5.200   2.185
 2147TIP3   OH2 6404   0.799   5.438   4.850
 2147TIP3    H1 6405   0.851   5.489   4.912
 2147TIP3    H2 6406   0.834   5.349   4.857
 2148TIP3   OH2 6407   5.824   2.757   1.945
 2148TIP3    H1 6408   5.777   2.744   1.863
 2148TIP3    H2 6409   5.776   2.703   2.008
 2149TIP3   OH2 6410   6.203   5.091   2.146
 2149TIP3    H1 6411   6.139   5.157   2.118
 2149TIP3    H2 6412   6.209   5.104   2.241
 2150TIP3   OH2 6413   1.357   2.388   2.174
 2150TIP3    H1 6414   1.312   2.305   2.157
 2150TIP3    H2 6415   1.319   2.418   2.256
 2151TIP3   OH2 6416   2.382   1.757   5.703
 2151TIP3    H1 6417   2.369   1.816   5.629
 2151TIP3    H2 6418   2.422   1.679   5.664
 2152TIP3   OH2 6419   6.514   1.304   1.239
 2152TIP3    H1 6420   6.421   1.280   1.237
 2152TIP3    H2 6421   6.521   1.366   1.312
 2153TIP3   OH2 6422   1.025   1.728   3.064
 2153TIP3    H1 6423   0.965   1.669   3.109
 2153TIP3    H2 6424   0.970   1.777   3.003
 2154TIP3   OH2 6425   1.498   1.150   1.561
 2154TIP3    H1 6426   1.523   1.062   1.536
 2154TIP3    H2 6427   1.467   1.191   1.480
 2155TIP3   OH2 6428   2.239   3.578   2.281
 2155TIP3    H1 6429   2.215   3.487   2.299
 2155TIP3    H2 6430   2.260   3.580   2.188
 2156TIP3   OH2 6431   4.488   3.524   2.730
 2156TIP3    H1 6432   4.403   3.548   2.766
 2156TIP3    H2 6433   4.544   3.600   2.745
 2157TIP3   OH2 6434   2.761   3.539   4.072
 2157TIP3    H1 6435   2.680   3.519   4.119
 2157TIP3    H2 6436   2.830   3.519   4.135
 2158TIP3   OH2 6437   6.489   0.423   0.411
 2158TIP3    H1 6438   6.520   0.500   0.365
 2158TIP3    H2 6439   6.453   0.366   0.343
 2159TIP3   OH2 6440   4.673   0.842   0.695
 2159TIP3    H1 6441   4.630   0.918   0.654
 2159TIP3    H2 6442   4.729   0.881   0.762
 2160TIP3   OH2 6443   2.639   4.440   1.642
 2160TIP3    H1 6444   2.628   4.348   1.617
 2160TIP3    H2 6445   2.732   4.448   1.665
 2161TIP3   OH2 6446   0.201   1.682   5.291
 2161TIP3    H1 6447   0.280   1.633   5.266
 2161TIP3    H2 6448   0.232   1.771   5.308
 2162TIP3   OH2 6449   1.786   3.612   1.172
 2162TIP3    H1 6450   1.845   3.557   1.223
 2162TIP3    H2 6451   1.734   3.550   1.120
 2163TIP3   OH2 6452   1.462   5.803   1.261
 2163TIP3    H1 6453   1.521   5.728   1.251
 2163TIP3    H2 6454   1.494   5.848   1.340
 2164TIP3   OH2 6455   5.821   6.586   2.484
 2164TIP3    H1 6456   5.856   6.498   2.470
 2164TIP3    H2 6457   5.874   6.622   2.555
 2165TIP3   OH2 6458   5.212   3.897   4.261
 2165TIP3    H1 6459   5.124   3.926   4.235
 2165TIP3    H2 6460   5.271   3.948   4.207
 2166TIP3   OH2 6461   3.967   3.774   2.936
 2166TIP3    H1 6462   3.932   3.829   3.007
 2166TIP3    H2 6463   3.893   3.718   2.912
 2167TIP3   OH2 6464   0.869   6.534   4.356
 2167TIP3    H1 6465   0.880   6.587   4.277
 2167TIP3    H2 6466   0.938   6.468   4.351
 2168TIP3   OH2 6467   4.917   4.913   0.267
 2168TIP3    H1 6468   4.862   4.971   0.213
 2168TIP3    H2 6469   4.892   4.935   0.357
 2169TIP3   OH2 6470   5.502   5.273   5.661
 2169TIP3    H1 6471   5.559   5.300   5.589
 2169TIP3    H2 6472   5.521   5.334   5.732
 2170TIP3   OH2 6473   5.610   2.065   1.314
 2170TIP3    H1 6474   5.611   2.157   1.341
 2170TIP3    H2 6475   5.689   2.027   1.355
 2171TIP3   OH2 6476   2.295   1.080   1.862
 2171TIP3    H1 6477   2.278   1.085   1.956
 2171TIP3    H2 6478   2.310   1.171   1.835
 2172TIP3   OH2 6479   5.423   6.332   1.913
 2172TIP3    H1 6480   5.502   6.381   1.890
 2172TIP3    H2 6481   5.358   6.359   1.847
 2173TIP3   OH2 6482   4.990   6.630   4.319
 2173TIP3    H1 6483   4.985   6.620   4.414
 2173TIP3    H2 6484   5.082   6.616   4.298
 2174TIP3   OH2 6485   5.195   2.253   2.724
 2174TIP3    H1 6486   5.124   2.308   2.691
 2174TIP3    H2 6487   5.262   2.316   2.752
 2175TIP3   OH2 6488   6.470   2.177   4.853
 2175TIP3    H1 6489   6.497   2.228   4.776
 2175TIP3    H2 6490   6.473   2.239   4.925
 2176TIP3   OH2 6491   3.436   2.902   5.324
 2176TIP3    H1 6492   3.479   2.888   5.409
 2176TIP3    H2 6493   3.391   2.986   5.333
 2177TIP3   OH2 6494   5.477   5.840   1.307
 2177TIP3    H1 6495   5.420   5.781   1.257
 2177TIP3    H2 6496   5.565   5.818   1.277
 2178TIP3   OH2 6497   1.873   6.179   3.289
 2178TIP3    H1 6498   1.881   6.235   3.366
 2178TIP3    H2 6499   1.944   6.207   3.232
 2179TIP3   OH2 6500   4.385   4.771   5.006
 2179TIP3    H1 6501   4.373   4.811   5.092
 2179TIP3    H2 6502   4.353   4.836   4.944
 2180TIP3   OH2 6503   5.894   2.564   5.114
 2180TIP3    H1 6504   5.803   2.571   5.082
 2180TIP3    H2 6505   5.886   2.531   5.203
 2181TIP3   OH2 6506   4.147   4.004   3.951
 2181TIP3    H1 6507   4.097   4.069   3.903
 2181TIP3    H2 6508   4.101   3.921   3.935
 2182TIP3   OH2 6509   2.754   5.296   2.498
 2182TIP3    H1 6510   2.758   5.294   2.403
 2182TIP3    H2 6511   2.660   5.301   2.518
 2183TIP3   OH2 6512   4.492   6.670   2.899
 2183TIP3    H1 6513   4.416   6.624   2.934
 2183TIP3    H2 6514   4.458   6.757   2.877
 2184TIP3   OH2 6515   4.836   2.258   0.332
 2184TIP3    H1 6516   4.919   2.243   0.288
 2184TIP3    H2 6517   4.770   2.240   0.266
 2185TIP3   OH2 6518   6.633   4.775   1.708
 2185TIP3    H1 6519   6.622   4.729   1.624
 2185TIP3    H2 6520   6.728   4.776   1.722
 2186TIP3   OH2 6521   5.620   1.378   3.733
 2186TIP3    H1 6522   5.573   1.429   3.798
 2186TIP3    H2 6523   5.712   1.396   3.750
 2187TIP3   OH2 6524   3.590   4.385   3.967
 2187TIP3    H1 6525   3.633   4.470   3.964
 2187TIP3    H2 6526   3.655   4.324   3.932
 2188TIP3   OH2 6527   5.447   0.803   2.031
 2188TIP3    H1 6528   5.419   0.894   2.019
 2188TIP3    H2 6529   5.390   0.769   2.100
 2189TIP3   OH2 6530   4.904   3.978   1.327
 2189TIP3    H1 6531   4.974   3.919   1.300
 2189TIP3    H2 6532   4.869   3.939   1.407
 2190TIP3   OH2 6533   4.509   1.835   1.871
 2190TIP3    H1 6534   4.603   1.820   1.880
 2190TIP3    H2 6535   4.501   1.913   1.817
 2191TIP3   OH2 6536   0.630   4.044   4.352
 2191TIP3    H1 6537   0.609   4.123   4.303
 2191TIP3    H2 6538   0.711   4.064   4.397
 2192TIP3   OH2 6539   2.951   6.820   0.409
 2192TIP3    H1 6540   2.948   6.764   0.331
 2192TIP3    H2 6541   2.999   6.898   0.381
 2193TIP3   OH2 6542   2.505   5.746   1.217
 2193TIP3    H1 6543   2.516   5.652   1.234
 2193TIP3    H2 6544   2.587   5.773   1.175
 2194TIP3   OH2 6545   0.817   5.614   5.095
 2194TIP3    H1 6546   0.803   5.520   5.103
 2194TIP3    H2 6547   0.910   5.622   5.072
 2195TIP3   OH2 6548   4.730   2.508   0.261
 2195TIP3    H1 6549   4.764   2.428   0.301
 2195TIP3    H2 6550   4.808   2.553   0.227
 2196TIP3   OH2 6551   0.301   1.449   3.422
 2196TIP3    H1 6552   0.268   1.382   3.482
 2196TIP3    H2 6553   0.230   1.463   3.360
 2197TIP3   OH2 6554   4.037   1.322   0.687
 2197TIP3    H1 6555   3.971   1.385   0.715
 2197TIP3    H2 6556   4.025   1.316   0.592
 2198TIP3   OH2 6557   7.202   4.431   4.234
 2198TIP3    H1 6558   7.199   4.526   4.220
 2198TIP3    H2 6559   7.126   4.413   4.289
 2199TIP3   OH2 6560   0.192   4.673   0.250
 2199TIP3    H1 6561   0.218   4.592   0.205
 2199TIP3    H2 6562   0.107   4.652   0.289
 2200TIP3   OH2 6563   0.096   4.754   2.566
 2200TIP3    H1 6564   0.043   4.675   2.574
 2200TIP3    H2 6565   0.166   4.742   2.630
 2201TIP3   OH2 6566   1.586   0.334   1.717
 2201TIP3    H1 6567   1.525   0.291   1.658
 2201TIP3    H2 6568   1.552   0.423   1.727
 2202TIP3   OH2 6569   6.111   0.639   3.894
 2202TIP3    H1 6570   6.163   0.688   3.831
 2202TIP3    H2 6571   6.154   0.655   3.978
 2203TIP3   OH2 6572   1.526   3.510   1.978
 2203TIP3    H1 6573   1.621   3.500   1.976
 2203TIP3    H2 6574   1.507   3.540   2.067
 2204TIP3   OH2 6575   2.988   4.461   4.462
 2204TIP3    H1 6576   3.052   4.482   4.394
 2204TIP3    H2 6577   3.003   4.528   4.529
 2205TIP3   OH2 6578   2.445   5.606   5.614
 2205TIP3    H1 6579   2.437   5.627   5.521
 2205TIP3    H2 6580   2.390   5.671   5.658
 2206TIP3   OH2 6581   7.101   1.543   3.007
 2206TIP3    H1 6582   7.081   1.459   2.967
 2206TIP3    H2 6583   7.155   1.522   3.083
 2207TIP3   OH2 6584   0.509   1.393   1.745
 2207TIP3    H1 6585   0.424   1.432   1.725
 2207TIP3    H2 6586   0.568   1.468   1.754
 2208TIP3   OH2 6587   2.339   5.190   5.515
 2208TIP3    H1 6588   2.418   5.199   5.460
 2208TIP3    H2 6589   2.352   5.254   5.585
 2209TIP3   OH2 6590   5.328   4.251   4.322
 2209TIP3    H1 6591   5.355   4.192   4.393
 2209TIP3    H2 6592   5.273   4.317   4.366
 2210TIP3   OH2 6593   1.387   3.133   5.143
 2210TIP3    H1 6594   1.313   3.165   5.194
 2210TIP3    H2 6595   1.396   3.041   5.167
 2211TIP3   OH2 6596   1.916   2.169   4.857
 2211TIP3    H1 6597   1.879   2.133   4.776
 2211TIP3    H2 6598   1.901   2.263   4.849
 2212TIP3   OH2 6599   2.590   0.665   4.803
 2212TIP3    H1 6600   2.663   0.724   4.784
 2212TIP3    H2 6601   2.623   0.578   4.778
 2213TIP3   OH2 6602   5.987   6.635   1.486
 2213TIP3    H1 6603   5.953   6.724   1.485
 2213TIP3    H2 6604   5.923   6.585   1.435
 2214TIP3   OH2 6605   3.985   6.637   1.752
 2214TIP3    H1 6606   3.980   6.725   1.787
 2214TIP3    H2 6607   4.070   6.633   1.708
 2215TIP3   OH2 6608   3.122   5.273   4.135
 2215TIP3    H1 6609   3.078   5.211   4.194
 2215TIP3    H2 6610   3.066   5.351   4.137
 2216TIP3   OH2 6611   4.273   4.300   3.489
 2216TIP3    H1 6612   4.247   4.355   3.563
 2216TIP3    H2 6613   4.352   4.256   3.519
 2217TIP3   OH2 6614   2.287   1.848   0.797
 2217TIP3    H1 6615   2.207   1.803   0.823
 2217TIP3    H2 6616   2.323   1.794   0.726
 2218TIP3   OH2 6617   0.637   2.605   5.525
 2218TIP3    H1 6618   0.622   2.698   5.544
 2218TIP3    H2 6619   0.572   2.583   5.458
 2219TIP3   OH2 6620   3.221   2.680   2.955
 2219TIP3    H1 6621   3.304   2.689   2.907
 2219TIP3    H2 6622   3.229   2.741   3.028
 2220TIP3   OH2 6623   5.876   0.698   4.088
 2220TIP3    H1 6624   5.787   0.734   4.094
 2220TIP3    H2 6625   5.878   0.654   4.003
 2221TIP3   OH2 6626   3.041   3.786   3.623
 2221TIP3    H1 6627   2.970   3.734   3.588
 2221TIP3    H2 6628   3.106   3.722   3.651
 2222TIP3   OH2 6629   5.212   2.055   3.661
 2222TIP3    H1 6630   5.292   2.033   3.709
 2222TIP3    H2 6631   5.149   2.078   3.729
 2223TIP3   OH2 6632   4.065   3.267   2.486
 2223TIP3    H1 6633   4.130   3.196   2.483
 2223TIP3    H2 6634   4.084   3.314   2.567
 2224TIP3   OH2 6635   4.486   6.075   1.023
 2224TIP3    H1 6636   4.523   6.134   0.957
 2224TIP3    H2 6637   4.554   6.009   1.037
 2225TIP3   OH2 6638   4.891   4.618   1.334
 2225TIP3    H1 6639   4.929   4.649   1.251
 2225TIP3    H2 6640   4.854   4.532   1.312
 2226TIP3   OH2 6641   3.337   1.796   4.655
 2226TIP3    H1 6642   3.289   1.779   4.736
 2226TIP3    H2 6643   3.382   1.879   4.671
 2227TIP3   OH2 6644   3.899   0.213   5.474
 2227TIP3    H1 6645   3.963   0.148   5.445
 2227TIP3    H2 6646   3.848   0.234   5.396
 2228TIP3   OH2 6647   0.169   0.802   4.194
 2228TIP3    H1 6648   0.216   0.837   4.271
 2228TIP3    H2 6649   0.230   0.817   4.121
 2229TIP3   OH2 6650   6.229   6.713   1.660
 2229TIP3    H1 6651   6.321   6.718   1.635
 2229TIP3    H2 6652   6.228   6.656   1.736
 2230TIP3   OH2 6653   1.092   3.218   3.301
 2230TIP3    H1 6654   1.061   3.127   3.303
 2230TIP3    H2 6655   1.182   3.213   3.334
 2231TIP3   OH2 6656   5.771   2.948   4.729
 2231TIP3    H1 6657   5.760   2.869   4.676
 2231TIP3    H2 6658   5.783   2.916   4.819
 2232TIP3   OH2 6659   2.243   4.962   0.522
 2232TIP3    H1 6660   2.312   5.002   0.469
 2232TIP3    H2 6661   2.242   5.013   0.603
 2233TIP3   OH2 6662   0.911   0.394   0.054
 2233TIP3    H1 6663   0.883   0.430  -0.030
 2233TIP3    H2 6664   1.006   0.404   0.053
 2234TIP3   OH2 6665   0.519   1.202   1.282
 2234TIP3    H1 6666   0.583   1.257   1.236
 2234TIP3    H2 6667   0.434   1.235   1.253
 2235TIP3   OH2 6668   7.188   3.996   4.246
 2235TIP3    H1 6669   7.161   3.904   4.241
 2235TIP3    H2 6670   7.107   4.045   4.230
 2236TIP3   OH2 6671   3.259   0.655   2.248
 2236TIP3    H1 6672   3.169   0.642   2.277
 2236TIP3    H2 6673   3.299   0.708   2.317
 2237TIP3   OH2 6674   5.292   4.944   0.792
 2237TIP3    H1 6675   5.294   4.880   0.721
 2237TIP3    H2 6676   5.234   5.013   0.760
 2238TIP3   OH2 6677   0.975   0.814   4.461
 2238TIP3    H1 6678   1.021   0.733   4.481
 2238TIP3    H2 6679   0.950   0.806   4.369
 2239TIP3   OH2 6680   2.228   2.258   1.768
 2239TIP3    H1 6681   2.297   2.324   1.772
 2239TIP3    H2 6682   2.216   2.241   1.675
 2240TIP3   OH2 6683   5.119   2.643   1.784
 2240TIP3    H1 6684   5.182   2.631   1.855
 2240TIP3    H2 6685   5.054   2.704   1.819
 2241TIP3   OH2 6686   5.788   1.755   2.338
 2241TIP3    H1 6687   5.795   1.671   2.292
 2241TIP3    H2 6688   5.877   1.772   2.369
 2242TIP3   OH2 6689   1.969   6.700   4.075
 2242TIP3    H1 6690   2.036   6.663   4.134
 2242TIP3    H2 6691   2.006   6.784   4.047
 2243TIP3   OH2 6692   4.896   0.864   4.138
 2243TIP3    H1 6693   4.962   0.932   4.126
 2243TIP3    H2 6694   4.819   0.911   4.169
 2244TIP3   OH2 6695   2.051   6.312   0.933
 2244TIP3    H1 6696   2.001   6.260   0.869
 2244TIP3    H2 6697   2.003   6.394   0.939
 2245TIP3   OH2 6698   5.727   5.135   5.761
 2245TIP3    H1 6699   5.704   5.046   5.785
 2245TIP3    H2 6700   5.644   5.176   5.735
 2246TIP3   OH2 6701   1.534   2.889   5.719
 2246TIP3    H1 6702   1.567   2.912   5.632
 2246TIP3    H2 6703   1.563   2.961   5.775
 2247TIP3   OH2 6704   1.357   5.267   0.964
 2247TIP3    H1 6705   1.337   5.361   0.957
 2247TIP3    H2 6706   1.401   5.247   0.881
 2248TIP3   OH2 6707   3.860   0.108   3.069
 2248TIP3    H1 6708   3.864   0.022   3.027
 2248TIP3    H2 6709   3.870   0.090   3.162
 2249TIP3   OH2 6710   2.327   2.537   2.639
 2249TIP3    H1 6711   2.255   2.537   2.576
 2249TIP3    H2 6712   2.351   2.445   2.649
 2250TIP3   OH2 6713   4.830   3.364   1.905
 2250TIP3    H1 6714   4.829   3.272   1.932
 2250TIP3    H2 6715   4.739   3.384   1.884
 2251TIP3   OH2 6716   0.099   3.817   3.523
 2251TIP3    H1 6717   0.045   3.753   3.570
 2251TIP3    H2 6718   0.147   3.863   3.592
 2252TIP3   OH2 6719   3.646   1.630   4.213
 2252TIP3    H1 6720   3.575   1.567   4.203
 2252TIP3    H2 6721   3.625   1.677   4.293
 2253TIP3   OH2 6722   4.223   4.769   4.537
 2253TIP3    H1 6723   4.314   4.743   4.545
 2253TIP3    H2 6724   4.188   4.716   4.466
 2254TIP3   OH2 6725   3.727   0.696   4.570
 2254TIP3    H1 6726   3.683   0.681   4.653
 2254TIP3    H2 6727   3.657   0.696   4.505
 2255TIP3   OH2 6728   2.530   3.359   4.862
 2255TIP3    H1 6729   2.519   3.413   4.940
 2255TIP3    H2 6730   2.625   3.351   4.851
 2256TIP3   OH2 6731   3.376   5.231   3.124
 2256TIP3    H1 6732   3.325   5.266   3.051
 2256TIP3    H2 6733   3.332   5.149   3.146
 2257TIP3   OH2 6734   1.420   3.363   2.630
 2257TIP3    H1 6735   1.425   3.320   2.545
 2257TIP3    H2 6736   1.384   3.297   2.689
 2258TIP3   OH2 6737   5.765   0.285   3.770
 2258TIP3    H1 6738   5.765   0.286   3.674
 2258TIP3    H2 6739   5.688   0.234   3.794
 2259TIP3   OH2 6740   1.374   2.558   2.628
 2259TIP3    H1 6741   1.392   2.513   2.710
 2259TIP3    H2 6742   1.355   2.489   2.566
 2260TIP3   OH2 6743   5.889   6.016   2.246
 2260TIP3    H1 6744   5.809   5.966   2.258
 2260TIP3    H2 6745   5.871   6.074   2.172
 2261TIP3   OH2 6746   6.167   0.321   1.306
 2261TIP3    H1 6747   6.231   0.392   1.312
 2261TIP3    H2 6748   6.118   0.325   1.388
 2262TIP3   OH2 6749   3.034   5.437   1.964
 2262TIP3    H1 6750   3.022   5.467   1.874
 2262TIP3    H2 6751   3.046   5.517   2.015
 2263TIP3   OH2 6752   4.734   3.609   1.595
 2263TIP3    H1 6753   4.754   3.688   1.545
 2263TIP3    H2 6754   4.642   3.619   1.619
 2264TIP3   OH2 6755   0.946   4.499   3.520
 2264TIP3    H1 6756   0.872   4.553   3.547
 2264TIP3    H2 6757   0.987   4.472   3.602
 2265TIP3   OH2 6758   3.020   0.037   4.392
 2265TIP3    H1 6759   3.064   0.035   4.307
 2265TIP3    H2 6760   2.927   0.029   4.371
 2266TIP3   OH2 6761   7.104   1.280   0.026
 2266TIP3    H1 6762   7.101   1.193   0.067
 2266TIP3    H2 6763   7.019   1.289  -0.017
 2267TIP3   OH2 6764   4.956   6.702   5.162
 2267TIP3    H1 6765   4.972   6.698   5.068
 2267TIP3    H2 6766   4.861   6.703   5.170
 2268TIP3   OH2 6767   5.036   0.290   0.678
 2268TIP3    H1 6768   5.087   0.324   0.752
 2268TIP3    H2 6769   5.096   0.293   0.604
 2269TIP3   OH2 6770   0.225   3.460   2.200
 2269TIP3    H1 6771   0.183   3.404   2.266
 2269TIP3    H2 6772   0.296   3.504   2.247
 2270TIP3   OH2 6773   6.468   4.112   5.597
 2270TIP3    H1 6774   6.521   4.037   5.570
 2270TIP3    H2 6775   6.458   4.100   5.692
 2271TIP3   OH2 6776   3.349   3.920   2.295
 2271TIP3    H1 6777   3.411   3.921   2.367
 2271TIP3    H2 6778   3.281   3.982   2.320
 2272TIP3   OH2 6779   6.432   3.956   0.160
 2272TIP3    H1 6780   6.377   4.015   0.108
 2272TIP3    H2 6781   6.509   3.941   0.105
 2273TIP3   OH2 6782   2.733   4.383   4.594
 2273TIP3    H1 6783   2.812   4.423   4.558
 2273TIP3    H2 6784   2.707   4.319   4.527
 2274TIP3   OH2 6785   4.371   6.290   3.605
 2274TIP3    H1 6786   4.466   6.298   3.607
 2274TIP3    H2 6787   4.348   6.293   3.512
 2275TIP3   OH2 6788   3.359   5.298   1.345
 2275TIP3    H1 6789   3.300   5.247   1.289
 2275TIP3    H2 6790   3.438   5.311   1.292
 2276TIP3   OH2 6791   2.822   3.284   4.911
 2276TIP3    H1 6792   2.912   3.295   4.944
 2276TIP3    H2 6793   2.766   3.300   4.986
 2277TIP3   OH2 6794   0.420   5.947   4.262
 2277TIP3    H1 6795   0.503   5.918   4.298
 2277TIP3    H2 6796   0.369   5.867   4.252
 2278TIP3   OH2 6797   4.590   3.795   2.714
 2278TIP3    H1 6798   4.548   3.835   2.637
 2278TIP3    H2 6799   4.569   3.854   2.786
 2279TIP3   OH2 6800   1.445   3.305   0.510
 2279TIP3    H1 6801   1.485   3.389   0.488
 2279TIP3    H2 6802   1.491   3.242   0.455
 2280TIP3   OH2 6803   7.105   3.181   4.607
 2280TIP3    H1 6804   7.136   3.129   4.533
 2280TIP3    H2 6805   7.076   3.116   4.671
 2281TIP3   OH2 6806   0.643   1.709   5.146
 2281TIP3    H1 6807   0.590   1.694   5.224
 2281TIP3    H2 6808   0.619   1.797   5.118
 2282TIP3   OH2 6809   1.193   3.465   1.942
 2282TIP3    H1 6810   1.211   3.410   2.019
 2282TIP3    H2 6811   1.280   3.494   1.913
 2283TIP3   OH2 6812   6.896   5.221   3.960
 2283TIP3    H1 6813   6.920   5.230   3.868
 2283TIP3    H2 6814   6.943   5.143   3.990
 2284TIP3   OH2 6815   0.677   1.297   5.240
 2284TIP3    H1 6816   0.762   1.341   5.240
 2284TIP3    H2 6817   0.667   1.265   5.150
 2285TIP3   OH2 6818   5.516   1.358   5.088
 2285TIP3    H1 6819   5.559   1.409   5.157
 2285TIP3    H2 6820   5.562   1.274   5.089
 2286TIP3   OH2 6821   1.376   5.170   1.824
 2286TIP3    H1 6822   1.333   5.231   1.884
 2286TIP3    H2 6823   1.413   5.226   1.755
 2287TIP3   OH2 6824   0.417   1.089   2.052
 2287TIP3    H1 6825   0.447   1.173   2.086
 2287TIP3    H2 6826   0.406   1.033   2.129
 2288TIP3   OH2 6827   4.870   2.903   0.301
 2288TIP3    H1 6828   4.837   2.993   0.305
 2288TIP3    H2 6829   4.821   2.863   0.230
 2289TIP3   OH2 6830   5.012   3.987   3.826
 2289TIP3    H1 6831   5.019   4.000   3.731
 2289TIP3    H2 6832   4.972   4.068   3.858
 2290TIP3   OH2 6833   0.156   4.367   2.784
 2290TIP3    H1 6834   0.129   4.411   2.864
 2290TIP3    H2 6835   0.240   4.407   2.761
 2291TIP3   OH2 6836   6.472   4.716   4.010
 2291TIP3    H1 6837   6.548   4.715   4.069
 2291TIP3    H2 6838   6.405   4.667   4.057
 2292TIP3   OH2 6839   5.666   4.674   4.254
 2292TIP3    H1 6840   5.628   4.610   4.314
 2292TIP3    H2 6841   5.690   4.748   4.309
 2293TIP3   OH2 6842   6.606   2.461   4.347
 2293TIP3    H1 6843   6.700   2.467   4.326
 2293TIP3    H2 6844   6.569   2.543   4.315
 2294TIP3   OH2 6845   3.865   2.246   1.011
 2294TIP3    H1 6846   3.873   2.203   0.925
 2294TIP3    H2 6847   3.780   2.217   1.044
 2295TIP3   OH2 6848   4.130   6.685   0.868
 2295TIP3    H1 6849   4.139   6.743   0.943
 2295TIP3    H2 6850   4.082   6.609   0.901
 2296TIP3   OH2 6851   5.470   3.330   5.606
 2296TIP3    H1 6852   5.393   3.274   5.607
 2296TIP3    H2 6853   5.435   3.419   5.618
 2297TIP3   OH2 6854   6.111   3.234   5.692
 2297TIP3    H1 6855   6.103   3.261   5.601
 2297TIP3    H2 6856   6.100   3.139   5.691
 2298TIP3   OH2 6857   4.059   4.742   1.784
 2298TIP3    H1 6858   4.066   4.823   1.734
 2298TIP3    H2 6859   4.080   4.673   1.721
 2299TIP3   OH2 6860   6.037   3.878   4.273
 2299TIP3    H1 6861   6.126   3.853   4.249
 2299TIP3    H2 6862   6.041   3.891   4.368
 2300TIP3   OH2 6863   2.102   6.665   3.682
 2300TIP3    H1 6864   2.092   6.760   3.672
 2300TIP3    H2 6865   2.074   6.647   3.772
 2301TIP3   OH2 6866   4.211   5.755   0.622
 2301TIP3    H1 6867   4.221   5.692   0.694
 2301TIP3    H2 6868   4.299   5.762   0.585
 2302TIP3   OH2 6869   0.226   3.133   0.820
 2302TIP3    H1 6870   0.194   3.051   0.856
 2302TIP3    H2 6871   0.317   3.139   0.851
 2303TIP3   OH2 6872   6.184   3.236   5.234
 2303TIP3    H1 6873   6.167   3.174   5.306
 2303TIP3    H2 6874   6.133   3.313   5.256
 2304TIP3   OH2 6875   1.813   2.979   2.497
 2304TIP3    H1 6876   1.872   2.912   2.532
 2304TIP3    H2 6877   1.725   2.945   2.514
 2305TIP3   OH2 6878   0.589   3.019   4.777
 2305TIP3    H1 6879   0.638   3.032   4.696
 2305TIP3    H2 6880   0.498   3.011   4.749
 2306TIP3   OH2 6881   0.154   5.559   2.876
 2306TIP3    H1 6882   0.129   5.651   2.864
 2306TIP3    H2 6883   0.249   5.559   2.872
 2307TIP3   OH2 6884   0.636   4.135   0.541
 2307TIP3    H1 6885   0.569   4.181   0.592
 2307TIP3    H2 6886   0.674   4.203   0.485
 2308TIP3   OH2 6887   1.836   2.425   4.378
 2308TIP3    H1 6888   1.871   2.393   4.461
 2308TIP3    H2 6889   1.766   2.486   4.404
 2309TIP3   OH2 6890   3.191   4.634   2.058
 2309TIP3    H1 6891   3.179   4.587   1.975
 2309TIP3    H2 6892   3.175   4.726   2.036
 2310TIP3   OH2 6893   7.086   6.117   0.299
 2310TIP3    H1 6894   7.006   6.120   0.247
 2310TIP3    H2 6895   7.130   6.200   0.280
 2311TIP3   OH2 6896   0.736   3.339   0.866
 2311TIP3    H1 6897   0.748   3.421   0.817
 2311TIP3    H2 6898   0.790   3.349   0.944
 2312TIP3   OH2 6899   0.066   4.191   2.590
 2312TIP3    H1 6900   0.100   4.254   2.654
 2312TIP3    H2 6901   0.134   4.123   2.585
 2313TIP3   OH2 6902   4.989   4.873   5.334
 2313TIP3    H1 6903   4.979   4.924   5.414
 2313TIP3    H2 6904   4.906   4.828   5.323
 2314TIP3   OH2 6905   2.552   0.977   0.630
 2314TIP3    H1 6906   2.608   1.054   0.640
 2314TIP3    H2 6907   2.595   0.925   0.562
 2315TIP3   OH2 6908   1.542   6.087   2.425
 2315TIP3    H1 6909   1.503   6.006   2.455
 2315TIP3    H2 6910   1.599   6.115   2.496
 2316TIP3   OH2 6911   3.942   4.201   2.504
 2316TIP3    H1 6912   3.876   4.198   2.435
 2316TIP3    H2 6913   3.958   4.294   2.518
 2317TIP3   OH2 6914   3.593   2.074   2.368
 2317TIP3    H1 6915   3.607   2.140   2.300
 2317TIP3    H2 6916   3.676   2.070   2.416
 2318TIP3   OH2 6917   6.199   3.174   2.683
 2318TIP3    H1 6918   6.209   3.086   2.721
 2318TIP3    H2 6919   6.219   3.162   2.590
 2319TIP3   OH2 6920   5.823   1.347   0.576
 2319TIP3    H1 6921   5.830   1.299   0.493
 2319TIP3    H2 6922   5.914   1.369   0.599
 2320TIP3   OH2 6923   0.340   0.782   1.267
 2320TIP3    H1 6924   0.249   0.753   1.269
 2320TIP3    H2 6925   0.366   0.790   1.359
 2321TIP3   OH2 6926   0.226   5.747   2.640
 2321TIP3    H1 6927   0.137   5.711   2.637
 2321TIP3    H2 6928   0.283   5.674   2.617
 2322TIP3   OH2 6929   6.950   4.877   4.188
 2322TIP3    H1 6930   7.008   4.839   4.254
 2322TIP3    H2 6931   6.946   4.811   4.119
 2323TIP3   OH2 6932   0.299   0.294   2.057
 2323TIP3    H1 6933   0.206   0.316   2.066
 2323TIP3    H2 6934   0.338   0.370   2.014
 2324TIP3   OH2 6935   1.797   0.241   4.252
 2324TIP3    H1 6936   1.827   0.307   4.314
 2324TIP3    H2 6937   1.729   0.193   4.299
 2325TIP3   OH2 6938   3.115   6.012   3.881
 2325TIP3    H1 6939   3.137   6.074   3.951
 2325TIP3    H2 6940   3.020   6.019   3.871
 2326TIP3   OH2 6941   6.521   2.692   5.538
 2326TIP3    H1 6942   6.611   2.660   5.532
 2326TIP3    H2 6943   6.468   2.621   5.502
 2327TIP3   OH2 6944   3.639   1.858   5.442
 2327TIP3    H1 6945   3.694   1.837   5.366
 2327TIP3    H2 6946   3.643   1.781   5.498
 2328TIP3   OH2 6947   3.985   0.454   3.994
 2328TIP3    H1 6948   4.044   0.525   4.017
 2328TIP3    H2 6949   3.974   0.462   3.899
 2329TIP3   OH2 6950   2.580   0.091   1.691
 2329TIP3    H1 6951   2.508   0.073   1.631
 2329TIP3    H2 6952   2.554   0.048   1.773
 2330TIP3   OH2 6953   4.454   1.344   5.606
 2330TIP3    H1 6954   4.528   1.324   5.548
 2330TIP3    H2 6955   4.431   1.260   5.645
 2331TIP3   OH2 6956   0.917   0.846   4.191
 2331TIP3    H1 6957   0.958   0.765   4.161
 2331TIP3    H2 6958   0.963   0.915   4.143
 2332TIP3   OH2 6959   2.546   5.382   0.939
 2332TIP3    H1 6960   2.504   5.468   0.935
 2332TIP3    H2 6961   2.546   5.351   0.849
 2333TIP3   OH2 6962   6.803   0.333   1.655
 2333TIP3    H1 6963   6.840   0.285   1.581
 2333TIP3    H2 6964   6.825   0.424   1.638
 2334TIP3   OH2 6965   0.821   1.868   2.345
 2334TIP3    H1 6966   0.828   1.909   2.431
 2334TIP3    H2 6967   0.765   1.928   2.295
 2335TIP3   OH2 6968   6.102   2.514   1.431
 2335TIP3    H1 6969   6.100   2.456   1.507
 2335TIP3    H2 6970   6.056   2.593   1.459
 2336TIP3   OH2 6971   3.003   2.056   5.046
 2336TIP3    H1 6972   2.932   2.081   4.986
 2336TIP3    H2 6973   3.021   2.136   5.096
 2337TIP3   OH2 6974   5.691   0.958   4.281
 2337TIP3    H1 6975   5.671   0.962   4.187
 2337TIP3    H2 6976   5.746   1.034   4.297
 2338TIP3   OH2 6977   1.535   6.141   5.115
 2338TIP3    H1 6978   1.558   6.127   5.024
 2338TIP3    H2 6979   1.497   6.058   5.144
 2339TIP3   OH2 6980   2.394   4.241   2.141
 2339TIP3    H1 6981   2.350   4.218   2.223
 2339TIP3    H2 6982   2.350   4.188   2.075
 2340TIP3   OH2 6983   6.081   0.835   1.398
 2340TIP3    H1 6984   5.995   0.875   1.414
 2340TIP3    H2 6985   6.063   0.742   1.389
 2341TIP3   OH2 6986   6.135   3.767   0.601
 2341TIP3    H1 6987   6.184   3.706   0.656
 2341TIP3    H2 6988   6.153   3.853   0.640
 2342TIP3   OH2 6989   5.081   5.630   3.615
 2342TIP3    H1 6990   5.142   5.676   3.558
 2342TIP3    H2 6991   5.108   5.655   3.704
 2343TIP3   OH2 6992   4.566   4.839   4.060
 2343TIP3    H1 6993   4.521   4.865   4.140
 2343TIP3    H2 6994   4.568   4.919   4.007
 2344TIP3   OH2 6995   4.585   1.347   2.643
 2344TIP3    H1 6996   4.673   1.378   2.666
 2344TIP3    H2 6997   4.572   1.269   2.696
 2345TIP3   OH2 6998   7.211   1.035   5.693
 2345TIP3    H1 6999   7.285   1.095   5.691
 2345TIP3    H2 7000   7.168   1.046   5.608
 2346TIP3   OH2 7001   4.571   4.600   4.702
 2346TIP3    H1 7002   4.522   4.556   4.772
 2346TIP3    H2 7003   4.648   4.636   4.746
 2347TIP3   OH2 7004   2.101   1.265   4.362
 2347TIP3    H1 7005   2.012   1.231   4.347
 2347TIP3    H2 7006   2.155   1.186   4.366
 2348TIP3   OH2 7007   1.095   2.614   5.573
 2348TIP3    H1 7008   1.063   2.683   5.631
 2348TIP3    H2 7009   1.172   2.579   5.617
 2349TIP3   OH2 7010   1.027   3.569   1.269
 2349TIP3    H1 7011   0.996   3.618   1.194
 2349TIP3    H2 7012   0.958   3.580   1.335
 2350TIP3   OH2 7013   2.113   5.883   1.287
 2350TIP3    H1 7014   2.044   5.828   1.326
 2350TIP3    H2 7015   2.067   5.943   1.229
 2351TIP3   OH2 7016   4.378   3.976   5.374
 2351TIP3    H1 7017   4.282   3.981   5.373
 2351TIP3    H2 7018   4.403   3.980   5.281
 2352TIP3   OH2 7019   5.599   1.094   5.188
 2352TIP3    H1 7020   5.566   1.009   5.159
 2352TIP3    H2 7021   5.657   1.074   5.262
 2353TIP3   OH2 7022   3.847   4.869   4.211
 2353TIP3    H1 7023   3.827   4.912   4.294
 2353TIP3    H2 7024   3.943   4.868   4.207
 2354TIP3   OH2 7025   5.588   1.706   4.716
 2354TIP3    H1 7026   5.513   1.680   4.663
 2354TIP3    H2 7027   5.566   1.794   4.748
 2355TIP3   OH2 7028   6.063   2.286   1.061
 2355TIP3    H1 7029   6.033   2.202   1.098
 2355TIP3    H2 7030   6.156   2.289   1.083
 2356TIP3   OH2 7031   5.419   6.470   3.916
 2356TIP3    H1 7032   5.346   6.514   3.960
 2356TIP3    H2 7033   5.413   6.379   3.945
 2357TIP3   OH2 7034   4.430   4.689   1.864
 2357TIP3    H1 7035   4.424   4.747   1.788
 2357TIP3    H2 7036   4.468   4.743   1.933
 2358TIP3   OH2 7037   4.984   6.479   1.076
 2358TIP3    H1 7038   5.025   6.561   1.105
 2358TIP3    H2 7039   5.033   6.456   0.997
 2359TIP3   OH2 7040   5.769   3.425   3.659
 2359TIP3    H1 7041   5.839   3.406   3.721
 2359TIP3    H2 7042   5.713   3.347   3.663
 2360TIP3   OH2 7043   6.368   6.493   2.381
 2360TIP3    H1 7044   6.282   6.472   2.345
 2360TIP3    H2 7045   6.376   6.439   2.458
 2361TIP3   OH2 7046   7.208   3.836   4.545
 2361TIP3    H1 7047   7.216   3.818   4.451
 2361TIP3    H2 7048   7.140   3.776   4.576
 2362TIP3   OH2 7049   2.121   4.267   1.133
 2362TIP3    H1 7050   2.210   4.238   1.152
 2362TIP3    H2 7051   2.069   4.187   1.132
 2363TIP3   OH2 7052   3.227   3.673   4.661
 2363TIP3    H1 7053   3.203   3.588   4.699
 2363TIP3    H2 7054   3.143   3.713   4.638
 2364TIP3   OH2 7055   0.863   1.049   1.297
 2364TIP3    H1 7056   0.951   1.036   1.263
 2364TIP3    H2 7057   0.806   1.008   1.232
 2365TIP3   OH2 7058   3.744   5.864   4.916
 2365TIP3    H1 7059   3.663   5.869   4.966
 2365TIP3    H2 7060   3.802   5.810   4.970
 2366TIP3   OH2 7061   3.162   2.367   0.215
 2366TIP3    H1 7062   3.132   2.394   0.128
 2366TIP3    H2 7063   3.102   2.411   0.275
 2367TIP3   OH2 7064   5.448   0.851   2.568
 2367TIP3    H1 7065   5.409   0.797   2.499
 2367TIP3    H2 7066   5.455   0.792   2.643
 2368TIP3   OH2 7067   1.377   5.851   0.427
 2368TIP3    H1 7068   1.411   5.936   0.456
 2368TIP3    H2 7069   1.435   5.825   0.356
 2369TIP3   OH2 7070   5.100   2.792   4.726
 2369TIP3    H1 7071   5.136   2.770   4.639
 2369TIP3    H2 7072   5.016   2.747   4.729
 2370TIP3   OH2 7073   2.243   1.304   1.022
 2370TIP3    H1 7074   2.238   1.349   1.107
 2370TIP3    H2 7075   2.153   1.276   1.005
 2371TIP3   OH2 7076   7.047   0.414   2.369
 2371TIP3    H1 7077   6.954   0.434   2.382
 2371TIP3    H2 7078   7.075   0.476   2.302
 2372TIP3   OH2 7079   6.916   2.398   5.867
 2372TIP3    H1 7080   6.951   2.350   5.793
 2372TIP3    H2 7081   6.908   2.333   5.937
 2373TIP3   OH2 7082   2.067   1.432   5.392
 2373TIP3    H1 7083   2.081   1.381   5.472
 2373TIP3    H2 7084   1.975   1.460   5.399
 2374TIP3   OH2 7085   2.783   2.313   0.488
 2374TIP3    H1 7086   2.747   2.255   0.555
 2374TIP3    H2 7087   2.739   2.397   0.502
 2375TIP3   OH2 7088   2.627   2.013   2.867
 2375TIP3    H1 7089   2.614   1.949   2.796
 2375TIP3    H2 7090   2.580   1.976   2.941
 2376TIP3   OH2 7091   1.197   0.698   2.623
 2376TIP3    H1 7092   1.237   0.674   2.539
 2376TIP3    H2 7093   1.120   0.642   2.630
 2377TIP3   OH2 7094   4.385   0.385   5.663
 2377TIP3    H1 7095   4.327   0.382   5.587
 2377TIP3    H2 7096   4.384   0.296   5.697
 2378TIP3   OH2 7097   0.456   3.405   4.991
 2378TIP3    H1 7098   0.411   3.449   5.063
 2378TIP3    H2 7099   0.418   3.443   4.912
 2379TIP3   OH2 7100   0.865   6.105   5.554
 2379TIP3    H1 7101   0.919   6.081   5.479
 2379TIP3    H2 7102   0.783   6.058   5.540
 2380TIP3   OH2 7103   3.294   5.521   5.342
 2380TIP3    H1 7104   3.250   5.563   5.268
 2380TIP3    H2 7105   3.244   5.441   5.357
 2381TIP3   OH2 7106   3.946   3.950   5.565
 2381TIP3    H1 7107   4.028   3.997   5.581
 2381TIP3    H2 7108   3.878   4.005   5.605
 2382TIP3   OH2 7109   0.960   2.201   1.038
 2382TIP3    H1 7110   0.930   2.127   1.090
 2382TIP3    H2 7111   0.880   2.248   1.014
 2383TIP3   OH2 7112   2.878   4.882   0.029
 2383TIP3    H1 7113   2.972   4.866   0.022
 2383TIP3    H2 7114   2.840   4.794   0.041
 2384TIP3   OH2 7115   5.544   6.055   4.189
 2384TIP3    H1 7116   5.629   6.012   4.181
 2384TIP3    H2 7117   5.549   6.103   4.271
 2385TIP3   OH2 7118   5.138   5.345   0.885
 2385TIP3    H1 7119   5.084   5.416   0.852
 2385TIP3    H2 7120   5.214   5.388   0.925
 2386TIP3   OH2 7121   3.244   0.370   5.868
 2386TIP3    H1 7122   3.255   0.337   5.779
 2386TIP3    H2 7123   3.326   0.348   5.913
 2387TIP3   OH2 7124   2.605   2.274   5.189
 2387TIP3    H1 7125   2.591   2.368   5.195
 2387TIP3    H2 7126   2.545   2.244   5.120
 2388TIP3   OH2 7127   0.389   4.118   4.700
 2388TIP3    H1 7128   0.436   4.156   4.626
 2388TIP3    H2 7129   0.451   4.058   4.741
 2389TIP3   OH2 7130   1.621   5.300   2.635
 2389TIP3    H1 7131   1.541   5.352   2.643
 2389TIP3    H2 7132   1.675   5.349   2.574
 2390TIP3   OH2 7133  -0.028   5.440   2.371
 2390TIP3    H1 7134  -0.014   5.504   2.440
 2390TIP3    H2 7135  -0.035   5.356   2.416
 2391TIP3   OH2 7136   2.351   6.341   5.659
 2391TIP3    H1 7137   2.441   6.369   5.677
 2391TIP3    H2 7138   2.326   6.392   5.582
 2392TIP3   OH2 7139   6.738   0.836   3.363
 2392TIP3    H1 7140   6.760   0.749   3.330
 2392TIP3    H2 7141   6.792   0.896   3.311
 2393TIP3   OH2 7142   5.827   2.821   5.575
 2393TIP3    H1 7143   5.775   2.803   5.653
 2393TIP3    H2 7144   5.816   2.744   5.520
 2394TIP3   OH2 7145   0.857   6.507   2.611
 2394TIP3    H1 7146   0.832   6.418   2.584
 2394TIP3    H2 7147   0.946   6.498   2.644
 2395TIP3   OH2 7148   6.795   1.900   0.498
 2395TIP3    H1 7149   6.804   1.938   0.411
 2395TIP3    H2 7150   6.819   1.808   0.487
 2396TIP3   OH2 7151   1.382   4.366   3.115
 2396TIP3    H1 7152   1.317   4.340   3.181
 2396TIP3    H2 7153   1.460   4.316   3.139
 2397TIP3   OH2 7154   5.016   0.240   1.253
 2397TIP3    H1 7155   4.954   0.270   1.186
 2397TIP3    H2 7156   5.102   0.266   1.220
 2398TIP3   OH2 7157   5.462   3.463   0.649
 2398TIP3    H1 7158   5.462   3.510   0.733
 2398TIP3    H2 7159   5.403   3.515   0.593
 2399TIP3   OH2 7160   1.457   4.778   1.759
 2399TIP3    H1 7161   1.534   4.794   1.704
 2399TIP3    H2 7162   1.394   4.845   1.732
 2400TIP3   OH2 7163   1.565   5.821   2.707
 2400TIP3    H1 7164   1.582   5.804   2.615
 2400TIP3    H2 7165   1.472   5.800   2.719
 2401TIP3   OH2 7166   5.191   4.687   5.318
 2401TIP3    H1 7167   5.171   4.708   5.409
 2401TIP3    H2 7168   5.181   4.770   5.272
 2402TIP3   OH2 7169   1.776   0.987   4.623
 2402TIP3    H1 7170   1.842   1.056   4.628
 2402TIP3    H2 7171   1.810   0.926   4.557
 2403TIP3   OH2 7172   3.201   5.039   0.922
 2403TIP3    H1 7173   3.123   5.093   0.905
 2403TIP3    H2 7174   3.194   5.015   1.014
 2404TIP3   OH2 7175   6.825   2.045   0.257
 2404TIP3    H1 7176   6.816   1.981   0.186
 2404TIP3    H2 7177   6.737   2.082   0.267
 2405TIP3   OH2 7178   4.741   4.159   2.507
 2405TIP3    H1 7179   4.752   4.073   2.467
 2405TIP3    H2 7180   4.787   4.219   2.447
 2406TIP3   OH2 7181   1.671   6.077   3.111
 2406TIP3    H1 7182   1.602   6.034   3.161
 2406TIP3    H2 7183   1.727   6.118   3.177
 2407TIP3   OH2 7184   0.757   4.109   2.431
 2407TIP3    H1 7185   0.821   4.041   2.454
 2407TIP3    H2 7186   0.767   4.119   2.336
 2408TIP3   OH2 7187   3.545   5.339   4.319
 2408TIP3    H1 7188   3.526   5.428   4.350
 2408TIP3    H2 7189   3.488   5.328   4.243
 2409TIP3   OH2 7190   3.696   0.059   5.705
 2409TIP3    H1 7191   3.712   0.152   5.719
 2409TIP3    H2 7192   3.769   0.015   5.750
 2410TIP3   OH2 7193   2.017   2.040   5.082
 2410TIP3    H1 7194   1.933   2.019   5.123
 2410TIP3    H2 7195   1.994   2.086   5.002
 2411TIP3   OH2 7196   4.144   0.964   5.195
 2411TIP3    H1 7197   4.195   0.996   5.121
 2411TIP3    H2 7198   4.185   1.004   5.271
 2412TIP3   OH2 7199   4.553   5.468   4.683
 2412TIP3    H1 7200   4.472   5.426   4.654
 2412TIP3    H2 7201   4.613   5.459   4.608
 2413TIP3   OH2 7202   1.983   4.224   1.859
 2413TIP3    H1 7203   1.916   4.178   1.809
 2413TIP3    H2 7204   1.938   4.251   1.939
 2414TIP3   OH2 7205   0.877   1.403   1.602
 2414TIP3    H1 7206   0.848   1.337   1.540
 2414TIP3    H2 7207   0.920   1.354   1.672
 2415TIP3   OH2 7208   6.603   2.809   2.794
 2415TIP3    H1 7209   6.694   2.799   2.822
 2415TIP3    H2 7210   6.556   2.738   2.837
 2416TIP3   OH2 7211   1.841   3.462   2.701
 2416TIP3    H1 7212   1.820   3.543   2.747
 2416TIP3    H2 7213   1.936   3.454   2.709
 2417TIP3   OH2 7214   4.996   6.002   1.656
 2417TIP3    H1 7215   4.918   5.949   1.671
 2417TIP3    H2 7216   5.069   5.944   1.680
 2418TIP3   OH2 7217   7.108   2.048   4.472
 2418TIP3    H1 7218   7.097   1.987   4.399
 2418TIP3    H2 7219   7.037   2.026   4.532
 2419TIP3   OH2 7220   6.664   4.454   1.654
 2419TIP3    H1 7221   6.759   4.444   1.660
 2419TIP3    H2 7222   6.633   4.434   1.742
 2420TIP3   OH2 7223   4.260   2.611   5.651
 2420TIP3    H1 7224   4.299   2.604   5.564
 2420TIP3    H2 7225   4.317   2.558   5.707
 2421TIP3   OH2 7226   1.950   5.283   3.882
 2421TIP3    H1 7227   1.915   5.372   3.882
 2421TIP3    H2 7228   2.011   5.281   3.956
 2422TIP3   OH2 7229   1.801   0.255   1.554
 2422TIP3    H1 7230   1.737   0.297   1.612
 2422TIP3    H2 7231   1.772   0.163   1.551
 2423TIP3   OH2 7232   1.175   1.536   1.994
 2423TIP3    H1 7233   1.236   1.609   1.981
 2423TIP3    H2 7234   1.220   1.479   2.057
 2424TIP3   OH2 7235   2.781   6.590   3.130
 2424TIP3    H1 7236   2.714   6.525   3.112
 2424TIP3    H2 7237   2.771   6.611   3.223
 2425TIP3   OH2 7238   0.292   0.123   5.373
 2425TIP3    H1 7239   0.272   0.215   5.391
 2425TIP3    H2 7240   0.252   0.106   5.288
 2426TIP3   OH2 7241   1.362   6.603   4.276
 2426TIP3    H1 7242   1.380   6.677   4.334
 2426TIP3    H2 7243   1.280   6.566   4.310
 2427TIP3   OH2 7244   0.808   5.049   0.094
 2427TIP3    H1 7245   0.863   5.039   0.172
 2427TIP3    H2 7246   0.869   5.070   0.024
 2428TIP3   OH2 7247   1.116   5.884   5.797
 2428TIP3    H1 7248   1.206   5.883   5.830
 2428TIP3    H2 7249   1.126   5.892   5.702
 2429TIP3   OH2 7250   2.946   1.375   5.331
 2429TIP3    H1 7251   3.007   1.328   5.387
 2429TIP3    H2 7252   2.957   1.336   5.245
 2430TIP3   OH2 7253   7.129   0.762   5.484
 2430TIP3    H1 7254   7.107   0.726   5.570
 2430TIP3    H2 7255   7.195   0.702   5.450
 2431TIP3   OH2 7256   6.456   5.984   3.688
 2431TIP3    H1 7257   6.478   5.909   3.744
 2431TIP3    H2 7258   6.466   6.060   3.746
 2432TIP3   OH2 7259   2.500   4.030   2.566
 2432TIP3    H1 7260   2.442   3.977   2.510
 2432TIP3    H2 7261   2.454   4.114   2.574
 2433TIP3   OH2 7262   3.123   0.463   0.818
 2433TIP3    H1 7263   3.125   0.508   0.903
 2433TIP3    H2 7264   3.158   0.376   0.836
 2434TIP3   OH2 7265   4.675   2.226   0.121
 2434TIP3    H1 7266   4.645   2.294   0.060
 2434TIP3    H2 7267   4.596   2.180   0.148
 2435TIP3   OH2 7268   0.662   6.493   4.518
 2435TIP3    H1 7269   0.728   6.527   4.457
 2435TIP3    H2 7270   0.617   6.424   4.468
 2436TIP3   OH2 7271   2.050   2.393   3.921
 2436TIP3    H1 7272   1.995   2.422   3.994
 2436TIP3    H2 7273   2.091   2.312   3.953
 2437TIP3   OH2 7274   2.403   2.248   4.970
 2437TIP3    H1 7275   2.371   2.298   4.895
 2437TIP3    H2 7276   2.329   2.243   5.029
 2438TIP3   OH2 7277   0.494   3.909   0.641
 2438TIP3    H1 7278   0.560   3.970   0.609
 2438TIP3    H2 7279   0.431   3.964   0.688
 2439TIP3   OH2 7280   1.555   5.998   5.805
 2439TIP3    H1 7281   1.512   5.913   5.817
 2439TIP3    H2 7282   1.490   6.051   5.758
 2440TIP3   OH2 7283   5.224   0.144   2.018
 2440TIP3    H1 7284   5.159   0.207   2.051
 2440TIP3    H2 7285   5.277   0.195   1.957
 2441TIP3   OH2 7286   4.324   3.850   5.751
 2441TIP3    H1 7287   4.310   3.766   5.707
 2441TIP3    H2 7288   4.411   3.842   5.790
 2442TIP3   OH2 7289   0.528   2.347   3.786
 2442TIP3    H1 7290   0.445   2.382   3.817
 2442TIP3    H2 7291   0.556   2.287   3.855
 2443TIP3   OH2 7292   5.923   5.827   3.027
 2443TIP3    H1 7293   5.938   5.904   2.972
 2443TIP3    H2 7294   5.955   5.852   3.114
 2444TIP3   OH2 7295   3.641   4.190   3.617
 2444TIP3    H1 7296   3.643   4.197   3.521
 2444TIP3    H2 7297   3.553   4.157   3.636
 2445TIP3   OH2 7298   0.007   4.988   5.719
 2445TIP3    H1 7299   0.086   4.967   5.769
 2445TIP3    H2 7300  -0.064   4.981   5.783
 2446TIP3   OH2 7301   1.647   5.853   4.275
 2446TIP3    H1 7302   1.602   5.770   4.288
 2446TIP3    H2 7303   1.701   5.840   4.197
 2447TIP3   OH2 7304   4.742   4.695   5.769
 2447TIP3    H1 7305   4.766   4.605   5.749
 2447TIP3    H2 7306   4.731   4.696   5.865
 2448TIP3   OH2 7307   0.959   4.568   0.601
 2448TIP3    H1 7308   0.904   4.498   0.635
 2448TIP3    H2 7309   0.899   4.627   0.556
 2449TIP3   OH2 7310   2.878   3.504   4.323
 2449TIP3    H1 7311   2.869   3.472   4.412
 2449TIP3    H2 7312   2.962   3.470   4.293
 2450TIP3   OH2 7313   4.528   5.419   1.547
 2450TIP3    H1 7314   4.508   5.327   1.563
 2450TIP3    H2 7315   4.623   5.423   1.540
 2451TIP3   OH2 7316   3.689   4.631   3.935
 2451TIP3    H1 7317   3.784   4.637   3.938
 2451TIP3    H2 7318   3.658   4.712   3.974
 2452TIP3   OH2 7319   1.775   0.344   1.101
 2452TIP3    H1 7320   1.791   0.331   1.195
 2452TIP3    H2 7321   1.789   0.438   1.087
 2453TIP3   OH2 7322   0.219   0.392   0.515
 2453TIP3    H1 7323   0.292   0.398   0.576
 2453TIP3    H2 7324   0.205   0.482   0.485
 2454TIP3   OH2 7325   1.572   2.108   5.291
 2454TIP3    H1 7326   1.612   2.189   5.324
 2454TIP3    H2 7327   1.646   2.056   5.261
 2455TIP3   OH2 7328   2.266   2.276   0.251
 2455TIP3    H1 7329   2.334   2.343   0.244
 2455TIP3    H2 7330   2.258   2.241   0.162
 2456TIP3   OH2 7331   2.883   4.891   3.469
 2456TIP3    H1 7332   2.931   4.879   3.387
 2456TIP3    H2 7333   2.840   4.807   3.485
 2457TIP3   OH2 7334   0.318   5.541   3.406
 2457TIP3    H1 7335   0.404   5.561   3.443
 2457TIP3    H2 7336   0.272   5.496   3.476
 2458TIP3   OH2 7337   2.120   3.326   2.269
 2458TIP3    H1 7338   2.173   3.258   2.228
 2458TIP3    H2 7339   2.066   3.280   2.333
 2459TIP3   OH2 7340   4.720   6.343   1.564
 2459TIP3    H1 7341   4.726   6.277   1.495
 2459TIP3    H2 7342   4.639   6.321   1.611
 2460TIP3   OH2 7343   2.280   1.403   0.146
 2460TIP3    H1 7344   2.202   1.392   0.201
 2460TIP3    H2 7345   2.353   1.404   0.207
 2461TIP3   OH2 7346   5.344   2.137   5.548
 2461TIP3    H1 7347   5.313   2.056   5.589
 2461TIP3    H2 7348   5.338   2.120   5.454
 2462TIP3   OH2 7349   2.728   6.672   2.074
 2462TIP3    H1 7350   2.790   6.624   2.129
 2462TIP3    H2 7351   2.761   6.762   2.073
 2463TIP3   OH2 7352   0.908   3.870   0.764
 2463TIP3    H1 7353   0.864   3.930   0.824
 2463TIP3    H2 7354   0.884   3.901   0.677
 2464TIP3   OH2 7355   4.623   6.684   1.757
 2464TIP3    H1 7356   4.551   6.634   1.796
 2464TIP3    H2 7357   4.684   6.698   1.830
 2465TIP3   OH2 7358   1.499   3.766   5.716
 2465TIP3    H1 7359   1.552   3.773   5.637
 2465TIP3    H2 7360   1.562   3.776   5.788
 2466TIP3   OH2 7361   4.022   4.037   4.205
 2466TIP3    H1 7362   4.087   3.981   4.246
 2466TIP3    H2 7363   4.064   4.068   4.124
 2467TIP3   OH2 7364   4.231   0.695   5.069
 2467TIP3    H1 7365   4.302   0.643   5.108
 2467TIP3    H2 7366   4.214   0.764   5.132
 2468TIP3   OH2 7367   2.581   2.870   5.260
 2468TIP3    H1 7368   2.516   2.938   5.279
 2468TIP3    H2 7369   2.618   2.849   5.346
 2469TIP3   OH2 7370   1.337   6.610   1.010
 2469TIP3    H1 7371   1.245   6.625   1.029
 2469TIP3    H2 7372   1.345   6.622   0.915
 2470TIP3   OH2 7373   2.888   4.442   3.382
 2470TIP3    H1 7374   2.939   4.456   3.462
 2470TIP3    H2 7375   2.834   4.366   3.401
 2471TIP3   OH2 7376   4.780   2.446   2.006
 2471TIP3    H1 7377   4.766   2.371   2.064
 2471TIP3    H2 7378   4.855   2.492   2.043
 2472TIP3   OH2 7379   4.629   1.813   3.514
 2472TIP3    H1 7380   4.639   1.884   3.577
 2472TIP3    H2 7381   4.599   1.855   3.434
 2473TIP3   OH2 7382   4.786   5.212   5.576
 2473TIP3    H1 7383   4.864   5.256   5.611
 2473TIP3    H2 7384   4.723   5.215   5.647
 2474TIP3   OH2 7385   4.778   3.391   1.448
 2474TIP3    H1 7386   4.837   3.428   1.382
 2474TIP3    H2 7387   4.760   3.465   1.507
 2475TIP3   OH2 7388   1.979   5.389   1.880
 2475TIP3    H1 7389   1.955   5.377   1.788
 2475TIP3    H2 7390   2.006   5.481   1.886
 2476TIP3   OH2 7391   3.692   4.113   4.040
 2476TIP3    H1 7392   3.632   4.168   4.092
 2476TIP3    H2 7393   3.695   4.030   4.087
 2477TIP3   OH2 7394   1.710   3.128   1.147
 2477TIP3    H1 7395   1.683   3.065   1.214
 2477TIP3    H2 7396   1.707   3.213   1.192
 2478TIP3   OH2 7397   0.955   2.878   5.099
 2478TIP3    H1 7398   1.006   2.822   5.041
 2478TIP3    H2 7399   0.864   2.862   5.075
 2479TIP3   OH2 7400   0.940   1.846   0.413
 2479TIP3    H1 7401   0.988   1.815   0.336
 2479TIP3    H2 7402   1.008   1.873   0.475
 2480TIP3   OH2 7403   4.857   4.993   3.619
 2480TIP3    H1 7404   4.952   4.995   3.630
 2480TIP3    H2 7405   4.826   5.064   3.676
 2481TIP3   OH2 7406   3.471   3.293   2.017
 2481TIP3    H1 7407   3.503   3.381   1.993
 2481TIP3    H2 7408   3.521   3.234   1.960
 2482TIP3   OH2 7409   1.490   0.724   3.917
 2482TIP3    H1 7410   1.544   0.669   3.973
 2482TIP3    H2 7411   1.490   0.681   3.832
 2483TIP3   OH2 7412   2.494   6.754   2.601
 2483TIP3    H1 7413   2.545   6.814   2.656
 2483TIP3    H2 7414   2.464   6.808   2.527
 2484TIP3   OH2 7415   3.060   2.390   3.544
 2484TIP3    H1 7416   3.044   2.480   3.574
 2484TIP3    H2 7417   3.004   2.380   3.468
 2485TIP3   OH2 7418   1.451   2.005   4.632
 2485TIP3    H1 7419   1.458   1.989   4.538
 2485TIP3    H2 7420   1.404   2.088   4.639
 2486TIP3   OH2 7421   2.455   1.717   0.624
 2486TIP3    H1 7422   2.474   1.792   0.568
 2486TIP3    H2 7423   2.540   1.690   0.658
 2487TIP3   OH2 7424   3.971   0.550   4.298
 2487TIP3    H1 7425   3.948   0.643   4.288
 2487TIP3    H2 7426   3.975   0.517   4.208
 2488TIP3   OH2 7427   6.476   6.551   1.832
 2488TIP3    H1 7428   6.384   6.537   1.855
 2488TIP3    H2 7429   6.520   6.470   1.858
 2489TIP3   OH2 7430   1.350   5.833   3.503
 2489TIP3    H1 7431   1.375   5.912   3.550
 2489TIP3    H2 7432   1.379   5.761   3.558
 2490TIP3   OH2 7433   4.321   2.793   1.472
 2490TIP3    H1 7434   4.229   2.769   1.462
 2490TIP3    H2 7435   4.369   2.715   1.447
 2491TIP3   OH2 7436   4.500   5.637   1.965
 2491TIP3    H1 7437   4.423   5.694   1.970
 2491TIP3    H2 7438   4.465   5.548   1.963
 2492TIP3   OH2 7439   3.110   2.826   5.087
 2492TIP3    H1 7440   3.149   2.910   5.059
 2492TIP3    H2 7441   3.171   2.760   5.053
 2493TIP3   OH2 7442   2.588   5.391   5.470
 2493TIP3    H1 7443   2.542   5.457   5.522
 2493TIP3    H2 7444   2.622   5.329   5.534
 2494TIP3   OH2 7445   0.178   0.704   4.888
 2494TIP3    H1 7446   0.188   0.799   4.891
 2494TIP3    H2 7447   0.083   0.690   4.885
 2495TIP3   OH2 7448   5.205   2.350   5.236
 2495TIP3    H1 7449   5.125   2.328   5.188
 2495TIP3    H2 7450   5.200   2.300   5.317
 2496TIP3   OH2 7451   6.089   3.917   5.038
 2496TIP3    H1 7452   6.118   3.979   5.105
 2496TIP3    H2 7453   6.007   3.882   5.072
 2497TIP3   OH2 7454   6.140   1.059   3.670
 2497TIP3    H1 7455   6.113   1.098   3.753
 2497TIP3    H2 7456   6.217   1.109   3.643
 2498TIP3   OH2 7457   3.152   6.086   4.913
 2498TIP3    H1 7458   3.159   6.153   4.845
 2498TIP3    H2 7459   3.241   6.054   4.924
 2499TIP3   OH2 7460   3.326   6.778   1.023
 2499TIP3    H1 7461   3.333   6.873   1.014
 2499TIP3    H2 7462   3.412   6.745   0.996
 2500TIP3   OH2 7463   4.726   3.812   3.606
 2500TIP3    H1 7464   4.639   3.849   3.590
 2500TIP3    H2 7465   4.763   3.799   3.519
 2501TIP3   OH2 7466   3.314   2.639   3.976
 2501TIP3    H1 7467   3.308   2.703   4.048
 2501TIP3    H2 7468   3.309   2.693   3.897
 2502TIP3   OH2 7469   1.875   4.675   5.506
 2502TIP3    H1 7470   1.963   4.677   5.469
 2502TIP3    H2 7471   1.856   4.582   5.520
 2503TIP3   OH2 7472   6.377   1.093   5.671
 2503TIP3    H1 7473   6.388   1.063   5.761
 2503TIP3    H2 7474   6.282   1.099   5.659
 2504TIP3   OH2 7475   2.377   5.267   4.893
 2504TIP3    H1 7476   2.376   5.212   4.815
 2504TIP3    H2 7477   2.327   5.216   4.958
 2505TIP3   OH2 7478   7.036   3.700   0.220
 2505TIP3    H1 7479   7.006   3.786   0.249
 2505TIP3    H2 7480   7.110   3.718   0.163
 2506TIP3   OH2 7481   0.124   0.097   1.710
 2506TIP3    H1 7482   0.098   0.051   1.790
 2506TIP3    H2 7483   0.186   0.038   1.667
 2507TIP3   OH2 7484   0.528   4.352   4.898
 2507TIP3    H1 7485   0.606   4.405   4.919
 2507TIP3    H2 7486   0.552   4.306   4.818
 2508TIP3   OH2 7487   1.719   2.670   5.878
 2508TIP3    H1 7488   1.804   2.698   5.843
 2508TIP3    H2 7489   1.692   2.742   5.935
 2509TIP3   OH2 7490   3.629   6.258   4.253
 2509TIP3    H1 7491   3.587   6.327   4.303
 2509TIP3    H2 7492   3.693   6.303   4.198
 2510TIP3   OH2 7493   0.804   4.052   4.088
 2510TIP3    H1 7494   0.800   4.040   4.183
 2510TIP3    H2 7495   0.771   3.970   4.052
 2511TIP3   OH2 7496   2.143   3.584   1.944
 2511TIP3    H1 7497   2.166   3.495   1.973
 2511TIP3    H2 7498   2.088   3.619   2.014
 2512TIP3   OH2 7499   6.314   6.652   3.621
 2512TIP3    H1 7500   6.399   6.619   3.649
 2512TIP3    H2 7501   6.320   6.747   3.630
 2513TIP3   OH2 7502   6.286   3.559   3.192
 2513TIP3    H1 7503   6.361   3.595   3.240
 2513TIP3    H2 7504   6.212   3.573   3.252
 2514TIP3   OH2 7505   2.344   6.007   0.243
 2514TIP3    H1 7506   2.387   6.002   0.158
 2514TIP3    H2 7507   2.392   5.945   0.298
 2515TIP3   OH2 7508   0.576   0.747   1.950
 2515TIP3    H1 7509   0.621   0.819   1.995
 2515TIP3    H2 7510   0.550   0.783   1.866
 2516TIP3   OH2 7511   3.012   4.324   1.486
 2516TIP3    H1 7512   2.982   4.234   1.501
 2516TIP3    H2 7513   3.051   4.350   1.569
 2517TIP3   OH2 7514   0.865   6.253   2.169
 2517TIP3    H1 7515   0.956   6.231   2.187
 2517TIP3    H2 7516   0.861   6.266   2.074
 2518TIP3   OH2 7517   3.690   3.566   0.382
 2518TIP3    H1 7518   3.717   3.627   0.451
 2518TIP3    H2 7519   3.720   3.481   0.413
 2519TIP3   OH2 7520   5.050   2.789   4.216
 2519TIP3    H1 7521   5.101   2.858   4.258
 2519TIP3    H2 7522   4.977   2.835   4.175
 2520TIP3   OH2 7523   3.165   6.312   1.871
 2520TIP3    H1 7524   3.089   6.350   1.828
 2520TIP3    H2 7525   3.170   6.223   1.838
 2521TIP3   OH2 7526   0.046   5.098   3.362
 2521TIP3    H1 7527   0.044   5.170   3.299
 2521TIP3    H2 7528   0.132   5.105   3.404
 2522TIP3   OH2 7529   6.061   5.580   3.172
 2522TIP3    H1 7530   6.025   5.636   3.103
 2522TIP3    H2 7531   5.984   5.548   3.220
 2523TIP3   OH2 7532   1.346   1.231   3.792
 2523TIP3    H1 7533   1.325   1.148   3.834
 2523TIP3    H2 7534   1.440   1.242   3.807
 2524TIP3   OH2 7535   6.963   6.585   4.869
 2524TIP3    H1 7536   7.052   6.597   4.901
 2524TIP3    H2 7537   6.942   6.666   4.823
 2525TIP3   OH2 7538   2.105   4.049   1.367
 2525TIP3    H1 7539   2.062   3.965   1.352
 2525TIP3    H2 7540   2.184   4.047   1.312
 2526TIP3   OH2 7541   7.044   0.921   3.031
 2526TIP3    H1 7542   6.987   0.885   2.963
 2526TIP3    H2 7543   7.102   0.849   3.054
 2527TIP3   OH2 7544   2.592   4.214   3.749
 2527TIP3    H1 7545   2.538   4.186   3.675
 2527TIP3    H2 7546   2.669   4.157   3.746
 2528TIP3   OH2 7547   4.664   1.811   5.892
 2528TIP3    H1 7548   4.697   1.824   5.803
 2528TIP3    H2 7549   4.654   1.717   5.901
 2529TIP3   OH2 7550   3.266   6.379   3.398
 2529TIP3    H1 7551   3.307   6.293   3.386
 2529TIP3    H2 7552   3.175   6.366   3.374
 2530TIP3   OH2 7553   0.630   3.518   3.209
 2530TIP3    H1 7554   0.654   3.611   3.214
 2530TIP3    H2 7555   0.577   3.511   3.130
 2531TIP3   OH2 7556   3.590   2.320   2.246
 2531TIP3    H1 7557   3.497   2.344   2.247
 2531TIP3    H2 7558   3.607   2.294   2.155
 2532TIP3   OH2 7559   0.325   2.239   0.637
 2532TIP3    H1 7560   0.252   2.218   0.696
 2532TIP3    H2 7561   0.311   2.331   0.613
 2533TIP3   OH2 7562   0.915   3.171   5.051
 2533TIP3    H1 7563   0.824   3.185   5.024
 2533TIP3    H2 7564   0.917   3.081   5.083
 2534TIP3   OH2 7565   3.448   4.159   2.730
 2534TIP3    H1 7566   3.449   4.111   2.813
 2534TIP3    H2 7567   3.362   4.142   2.693
 2535TIP3   OH2 7568   2.492   5.989   3.234
 2535TIP3    H1 7569   2.517   5.912   3.286
 2535TIP3    H2 7570   2.420   6.028   3.284
 2536TIP3   OH2 7571   7.017   2.013   2.861
 2536TIP3    H1 7572   6.941   2.070   2.874
 2536TIP3    H2 7573   6.988   1.926   2.888
 2537TIP3   OH2 7574   0.095   4.950   5.310
 2537TIP3    H1 7575   0.138   4.904   5.382
 2537TIP3    H2 7576   0.033   5.010   5.353
 2538TIP3   OH2 7577   6.528   5.947   0.467
 2538TIP3    H1 7578   6.544   5.853   0.455
 2538TIP3    H2 7579   6.615   5.987   0.458
 2539TIP3   OH2 7580   4.035   3.021   3.224
 2539TIP3    H1 7581   4.105   2.981   3.173
 2539TIP3    H2 7582   4.060   3.006   3.315
 2540TIP3   OH2 7583   7.061   1.309   0.659
 2540TIP3    H1 7584   7.068   1.375   0.589
 2540TIP3    H2 7585   6.986   1.255   0.633
 2541TIP3   OH2 7586   4.214   1.447   2.661
 2541TIP3    H1 7587   4.288   1.419   2.607
 2541TIP3    H2 7588   4.141   1.458   2.599
 2542TIP3   OH2 7589   4.322   5.446   0.547
 2542TIP3    H1 7590   4.323   5.508   0.620
 2542TIP3    H2 7591   4.281   5.367   0.582
 2543TIP3   OH2 7592   5.176   6.692   3.514
 2543TIP3    H1 7593   5.129   6.703   3.432
 2543TIP3    H2 7594   5.185   6.597   3.523
 2544TIP3   OH2 7595   4.145   4.102   2.036
 2544TIP3    H1 7596   4.239   4.120   2.036
 2544TIP3    H2 7597   4.133   4.037   2.106
 2545TIP3   OH2 7598   0.526  -0.034   5.398
 2545TIP3    H1 7599   0.592   0.027   5.430
 2545TIP3    H2 7600   0.455   0.022   5.366
 2546TIP3   OH2 7601   5.392   1.229   1.591
 2546TIP3    H1 7602   5.357   1.315   1.616
 2546TIP3    H2 7603   5.331   1.166   1.630
 2547TIP3   OH2 7604   0.620   6.023   3.021
 2547TIP3    H1 7605   0.649   5.940   3.060
 2547TIP3    H2 7606   0.622   6.007   2.927
 2548TIP3   OH2 7607   6.035   5.067   4.299
 2548TIP3    H1 7608   6.079   5.021   4.228
 2548TIP3    H2 7609   5.965   5.117   4.257
 2549TIP3   OH2 7610   0.389   2.602   2.655
 2549TIP3    H1 7611   0.343   2.663   2.597
 2549TIP3    H2 7612   0.405   2.652   2.735
 2550TIP3   OH2 7613   6.951   4.956   2.886
 2550TIP3    H1 7614   6.895   5.000   2.822
 2550TIP3    H2 7615   6.962   4.868   2.851
 2551TIP3   OH2 7616   2.155   1.187   3.427
 2551TIP3    H1 7617   2.098   1.245   3.478
 2551TIP3    H2 7618   2.113   1.182   3.341
 2552TIP3   OH2 7619   5.257   3.705   0.611
 2552TIP3    H1 7620   5.276   3.731   0.701
 2552TIP3    H2 7621   5.289   3.779   0.558
 2553TIP3   OH2 7622   4.911   5.380   4.607
 2553TIP3    H1 7623   4.911   5.476   4.603
 2553TIP3    H2 7624   4.854   5.359   4.680
 2554TIP3   OH2 7625   4.399   0.983   4.303
 2554TIP3    H1 7626   4.414   0.968   4.396
 2554TIP3    H2 7627   4.452   0.917   4.259
 2555TIP3   OH2 7628   6.149   1.564   0.377
 2555TIP3    H1 7629   6.235   1.537   0.345
 2555TIP3    H2 7630   6.102   1.594   0.299
 2556TIP3   OH2 7631   2.262   3.070   0.613
 2556TIP3    H1 7632   2.267   3.159   0.580
 2556TIP3    H2 7633   2.169   3.048   0.610
 2557TIP3   OH2 7634   0.138   0.006   3.972
 2557TIP3    H1 7635   0.069  -0.043   4.017
 2557TIP3    H2 7636   0.175   0.063   4.040
 2558TIP3   OH2 7637   3.498   6.577   1.859
 2558TIP3    H1 7638   3.478   6.488   1.830
 2558TIP3    H2 7639   3.465   6.633   1.789
 2559TIP3   OH2 7640   2.180   3.033   3.971
 2559TIP3    H1 7641   2.263   3.003   3.935
 2559TIP3    H2 7642   2.184   3.129   3.965
 2560TIP3   OH2 7643   1.324   5.915   2.010
 2560TIP3    H1 7644   1.260   5.861   2.057
 2560TIP3    H2 7645   1.341   5.989   2.069
 2561TIP3   OH2 7646   7.015   0.573   0.037
 2561TIP3    H1 7647   6.969   0.656   0.051
 2561TIP3    H2 7648   7.018   0.532   0.124
 2562TIP3   OH2 7649   0.949   4.127   2.194
 2562TIP3    H1 7650   1.021   4.183   2.224
 2562TIP3    H2 7651   0.942   4.146   2.101
 2563TIP3   OH2 7652   3.029   6.367   5.250
 2563TIP3    H1 7653   3.092   6.303   5.284
 2563TIP3    H2 7654   3.078   6.416   5.184
 2564TIP3   OH2 7655   4.167   4.459   3.792
 2564TIP3    H1 7656   4.175   4.495   3.704
 2564TIP3    H2 7657   4.225   4.513   3.845
 2565TIP3   OH2 7658   5.976   5.801  -0.050
 2565TIP3    H1 7659   6.036   5.848   0.008
 2565TIP3    H2 7660   5.976   5.711  -0.017
 2566TIP3   OH2 7661   1.265   1.398   0.714
 2566TIP3    H1 7662   1.338   1.427   0.769
 2566TIP3    H2 7663   1.304   1.379   0.629
 2567TIP3   OH2 7664   6.906   0.824   4.943
 2567TIP3    H1 7665   6.838   0.756   4.949
 2567TIP3    H2 7666   6.984   0.778   4.914
 2568TIP3   OH2 7667   2.295   5.439   3.695
 2568TIP3    H1 7668   2.370   5.443   3.636
 2568TIP3    H2 7669   2.225   5.398   3.643
 2569TIP3   OH2 7670   3.997   0.315   3.360
 2569TIP3    H1 7671   4.069   0.302   3.422
 2569TIP3    H2 7672   4.036   0.297   3.274
 2570TIP3   OH2 7673   0.764   4.095   4.887
 2570TIP3    H1 7674   0.793   4.143   4.964
 2570TIP3    H2 7675   0.839   4.039   4.864
 2571TIP3   OH2 7676   1.663   1.821   1.880
 2571TIP3    H1 7677   1.663   1.737   1.927
 2571TIP3    H2 7678   1.742   1.865   1.911
 2572TIP3   OH2 7679   2.029   4.160   0.840
 2572TIP3    H1 7680   1.951   4.197   0.798
 2572TIP3    H2 7681   1.995   4.105   0.910
 2573TIP3   OH2 7682   5.919   0.008   5.409
 2573TIP3    H1 7683   6.008   0.024   5.442
 2573TIP3    H2 7684   5.880   0.095   5.401
 2574TIP3   OH2 7685   6.084   2.666   1.890
 2574TIP3    H1 7686   5.994   2.681   1.920
 2574TIP3    H2 7687   6.138   2.710   1.956
 2575TIP3   OH2 7688   3.393   4.612   4.117
 2575TIP3    H1 7689   3.424   4.544   4.057
 2575TIP3    H2 7690   3.461   4.679   4.114
 2576TIP3   OH2 7691   0.108   3.439   1.193
 2576TIP3    H1 7692   0.074   3.364   1.242
 2576TIP3    H2 7693   0.200   3.419   1.178
 2577TIP3   OH2 7694   5.167   2.417   3.742
 2577TIP3    H1 7695   5.173   2.481   3.813
 2577TIP3    H2 7696   5.114   2.346   3.778
 2578TIP3   OH2 7697   2.671   4.680   3.326
 2578TIP3    H1 7698   2.722   4.680   3.245
 2578TIP3    H2 7699   2.732   4.648   3.393
 2579TIP3   OH2 7700   6.251   2.347   3.950
 2579TIP3    H1 7701   6.178   2.289   3.926
 2579TIP3    H2 7702   6.314   2.290   3.992
 2580TIP3   OH2 7703   1.061   1.007   3.651
 2580TIP3    H1 7704   1.013   1.079   3.692
 2580TIP3    H2 7705   1.134   1.049   3.607
 2581TIP3   OH2 7706   2.722   1.352   5.021
 2581TIP3    H1 7707   2.805   1.312   4.997
 2581TIP3    H2 7708   2.743   1.444   5.038
 2582TIP3   OH2 7709   3.762   1.960  -0.001
 2582TIP3    H1 7710   3.670   1.951  -0.026
 2582TIP3    H2 7711   3.790   1.871   0.020
 2583TIP3   OH2 7712   1.687   6.152   1.204
 2583TIP3    H1 7713   1.674   6.217   1.135
 2583TIP3    H2 7714   1.734   6.199   1.273
 2584TIP3   OH2 7715   5.580   0.475   3.886
 2584TIP3    H1 7716   5.585   0.381   3.906
 2584TIP3    H2 7717   5.652   0.490   3.824
 2585TIP3   OH2 7718   0.461   2.128   2.807
 2585TIP3    H1 7719   0.526   2.148   2.740
 2585TIP3    H2 7720   0.377   2.130   2.760
 2586TIP3   OH2 7721   0.603   3.019   1.369
 2586TIP3    H1 7722   0.579   2.927   1.382
 2586TIP3    H2 7723   0.525   3.058   1.328
 2587TIP3   OH2 7724   2.740   2.891   4.671
 2587TIP3    H1 7725   2.657   2.884   4.624
 2587TIP3    H2 7726   2.717   2.876   4.762
 2588TIP3   OH2 7727   1.644   3.200   0.306
 2588TIP3    H1 7728   1.722   3.249   0.281
 2588TIP3    H2 7729   1.577   3.229   0.244
 2589TIP3   OH2 7730   0.798   4.715   1.436
 2589TIP3    H1 7731   0.836   4.785   1.489
 2589TIP3    H2 7732   0.721   4.687   1.486
 2590TIP3   OH2 7733   2.723   3.688   1.347
 2590TIP3    H1 7734   2.686   3.603   1.368
 2590TIP3    H2 7735   2.816   3.680   1.369
 2591TIP3   OH2 7736   1.296   3.134   2.777
 2591TIP3    H1 7737   1.231   3.130   2.847
 2591TIP3    H2 7738   1.350   3.056   2.790
 2592TIP3   OH2 7739   5.357   6.300   2.182
 2592TIP3    H1 7740   5.285   6.361   2.167
 2592TIP3    H2 7741   5.401   6.295   2.097
 2593TIP3   OH2 7742   6.782   1.725   3.386
 2593TIP3    H1 7743   6.785   1.777   3.467
 2593TIP3    H2 7744   6.727   1.650   3.408
 2594TIP3   OH2 7745   0.382   5.829   0.376
 2594TIP3    H1 7746   0.313   5.831   0.310
 2594TIP3    H2 7747   0.374   5.743   0.417
 2595TIP3   OH2 7748   6.016   0.830   0.476
 2595TIP3    H1 7749   5.970   0.912   0.497
 2595TIP3    H2 7750   6.060   0.848   0.393
 2596TIP3   OH2 7751   2.315   2.980   5.307
 2596TIP3    H1 7752   2.328   3.042   5.378
 2596TIP3    H2 7753   2.223   2.955   5.313
 2597TIP3   OH2 7754   6.789   0.600   1.673
 2597TIP3    H1 7755   6.750   0.653   1.604
 2597TIP3    H2 7756   6.820   0.664   1.738
 2598TIP3   OH2 7757   1.634   5.911   3.652
 2598TIP3    H1 7758   1.616   5.995   3.609
 2598TIP3    H2 7759   1.668   5.856   3.582
 2599TIP3   OH2 7760   3.645   1.066   1.668
 2599TIP3    H1 7761   3.569   1.105   1.710
 2599TIP3    H2 7762   3.698   1.141   1.639
 2600TIP3   OH2 7763   3.750   3.633   2.542
 2600TIP3    H1 7764   3.746   3.679   2.627
 2600TIP3    H2 7765   3.749   3.540   2.565
 2601TIP3   OH2 7766   5.955   4.838   4.713
 2601TIP3    H1 7767   5.866   4.827   4.748
 2601TIP3    H2 7768   6.003   4.763   4.747
 2602TIP3   OH2 7769   0.659   2.895   3.350
 2602TIP3    H1 7770   0.596   2.824   3.336
 2602TIP3    H2 7771   0.727   2.855   3.404
 2603TIP3   OH2 7772   2.896   5.132   2.242
 2603TIP3    H1 7773   2.803   5.109   2.233
 2603TIP3    H2 7774   2.943   5.055   2.212
 2604TIP3   OH2 7775   4.991   5.161   1.703
 2604TIP3    H1 7776   4.967   5.085   1.650
 2604TIP3    H2 7777   5.031   5.123   1.781
 2605TIP3   OH2 7778   5.755   0.439   4.106
 2605TIP3    H1 7779   5.785   0.466   4.193
 2605TIP3    H2 7780   5.721   0.520   4.067
 2606TIP3   OH2 7781   4.687   5.596   5.872
 2606TIP3    H1 7782   4.780   5.615   5.868
 2606TIP3    H2 7783   4.678   5.511   5.828
 2607TIP3   OH2 7784   1.883   4.889   4.171
 2607TIP3    H1 7785   1.963   4.855   4.130
 2607TIP3    H2 7786   1.846   4.948   4.105
 2608TIP3   OH2 7787   6.195   6.552   5.709
 2608TIP3    H1 7788   6.246   6.569   5.787
 2608TIP3    H2 7789   6.108   6.528   5.742
 2609TIP3   OH2 7790   6.844   6.090   0.820
 2609TIP3    H1 7791   6.884   6.139   0.891
 2609TIP3    H2 7792   6.879   6.129   0.740
 2610TIP3   OH2 7793   4.079   2.078   1.613
 2610TIP3    H1 7794   4.029   2.050   1.536
 2610TIP3    H2 7795   4.059   2.171   1.621
 2611TIP3   OH2 7796   1.501   5.420   3.340
 2611TIP3    H1 7797   1.423   5.378   3.304
 2611TIP3    H2 7798   1.482   5.514   3.336
 2612TIP3   OH2 7799   4.455   2.728   3.119
 2612TIP3    H1 7800   4.414   2.742   3.034
 2612TIP3    H2 7801   4.517   2.799   3.128
 2613TIP3   OH2 7802   2.883   5.792   0.377
 2613TIP3    H1 7803   2.792   5.771   0.358
 2613TIP3    H2 7804   2.920   5.817   0.292
 2614TIP3   OH2 7805   0.903   6.083   5.871
 2614TIP3    H1 7806   0.978   6.055   5.819
 2614TIP3    H2 7807   0.831   6.093   5.808
 2615TIP3   OH2 7808   3.247   1.293   4.842
 2615TIP3    H1 7809   3.278   1.301   4.932
 2615TIP3    H2 7810   3.304   1.351   4.792
 2616TIP3   OH2 7811   1.481   4.764   2.043
 2616TIP3    H1 7812   1.555   4.825   2.050
 2616TIP3    H2 7813   1.444   4.782   1.956
 2617TIP3   OH2 7814   3.706   1.359   1.907
 2617TIP3    H1 7815   3.625   1.347   1.957
 2617TIP3    H2 7816   3.765   1.403   1.969
 2618TIP3   OH2 7817   2.312   0.234   0.233
 2618TIP3    H1 7818   2.365   0.312   0.248
 2618TIP3    H2 7819   2.329   0.210   0.142
 2619TIP3   OH2 7820   4.051   1.254   1.790
 2619TIP3    H1 7821   3.983   1.219   1.732
 2619TIP3    H2 7822   4.095   1.321   1.738
 2620TIP3   OH2 7823   5.403   0.371   0.298
 2620TIP3    H1 7824   5.454   0.299   0.261
 2620TIP3    H2 7825   5.458   0.448   0.287
 2621TIP3   OH2 7826   5.873   3.827   0.797
 2621TIP3    H1 7827   5.834   3.802   0.714
 2621TIP3    H2 7828   5.921   3.908   0.779
 2622TIP3   OH2 7829   4.668   1.795   5.394
 2622TIP3    H1 7830   4.626   1.770   5.476
 2622TIP3    H2 7831   4.761   1.794   5.413
 2623TIP3   OH2 7832   6.575   1.747   0.231
 2623TIP3    H1 7833   6.513   1.802   0.183
 2623TIP3    H2 7834   6.660   1.767   0.194
 2624TIP3   OH2 7835   4.201   4.454   0.432
 2624TIP3    H1 7836   4.134   4.498   0.378
 2624TIP3    H2 7837   4.253   4.404   0.369
 2625TIP3   OH2 7838   4.130   4.813   0.645
 2625TIP3    H1 7839   4.135   4.886   0.583
 2625TIP3    H2 7840   4.062   4.756   0.609
 2626TIP3   OH2 7841   6.010   3.648   1.851
 2626TIP3    H1 7842   6.102   3.664   1.873
 2626TIP3    H2 7843   5.997   3.694   1.768
 2627TIP3   OH2 7844   5.231   6.215   0.053
 2627TIP3    H1 7845   5.253   6.149   0.118
 2627TIP3    H2 7846   5.263   6.179  -0.030
 2628TIP3   OH2 7847   3.259   0.410   1.456
 2628TIP3    H1 7848   3.292   0.325   1.427
 2628TIP3    H2 7849   3.185   0.388   1.513
 2629TIP3   OH2 7850   2.744   1.088   0.831
 2629TIP3    H1 7851   2.829   1.128   0.848
 2629TIP3    H2 7852   2.711   1.064   0.918
 2630TIP3   OH2 7853   4.234   1.453   5.540
 2630TIP3    H1 7854   4.166   1.420   5.598
 2630TIP3    H2 7855   4.316   1.418   5.576
 2631TIP3   OH2 7856   3.980   4.890   0.932
 2631TIP3    H1 7857   4.004   4.949   0.859
 2631TIP3    H2 7858   3.900   4.928   0.968
 2632TIP3   OH2 7859   0.852   2.856   4.676
 2632TIP3    H1 7860   0.831   2.914   4.603
 2632TIP3    H2 7861   0.857   2.915   4.752
 2633TIP3   OH2 7862   2.440   0.832   5.512
 2633TIP3    H1 7863   2.370   0.864   5.569
 2633TIP3    H2 7864   2.418   0.866   5.426
 2634TIP3   OH2 7865   1.735   1.356   0.615
 2634TIP3    H1 7866   1.755   1.270   0.650
 2634TIP3    H2 7867   1.704   1.340   0.527
 2635TIP3   OH2 7868   0.084   4.098   1.190
 2635TIP3    H1 7869   0.161   4.147   1.221
 2635TIP3    H2 7870   0.102   4.008   1.217
 2636TIP3   OH2 7871   2.744   6.399   4.525
 2636TIP3    H1 7872   2.819   6.339   4.530
 2636TIP3    H2 7873   2.774   6.470   4.468
 2637TIP3   OH2 7874   2.101   5.761   5.303
 2637TIP3    H1 7875   2.010   5.732   5.308
 2637TIP3    H2 7876   2.141   5.727   5.384
 2638TIP3   OH2 7877   6.979   3.743   3.209
 2638TIP3    H1 7878   6.938   3.798   3.275
 2638TIP3    H2 7879   6.954   3.783   3.125
 2639TIP3   OH2 7880   1.878   2.612   2.008
 2639TIP3    H1 7881   1.792   2.617   1.966
 2639TIP3    H2 7882   1.938   2.651   1.945
 2640TIP3   OH2 7883   4.374   3.394   3.100
 2640TIP3    H1 7884   4.466   3.373   3.089
 2640TIP3    H2 7885   4.365   3.483   3.065
 2641TIP3   OH2 7886   3.875   0.879   3.982
 2641TIP3    H1 7887   3.816   0.806   3.965
 2641TIP3    H2 7888   3.858   0.940   3.910
 2642TIP3   OH2 7889   1.878   0.535   2.513
 2642TIP3    H1 7890   1.845   0.458   2.466
 2642TIP3    H2 7891   1.876   0.510   2.605
 2643TIP3   OH2 7892   6.138   1.797   5.266
 2643TIP3    H1 7893   6.111   1.810   5.357
 2643TIP3    H2 7894   6.070   1.839   5.214
 2644TIP3   OH2 7895   3.238   5.961   0.332
 2644TIP3    H1 7896   3.260   6.043   0.376
 2644TIP3    H2 7897   3.222   5.899   0.404
 2645TIP3   OH2 7898   7.036   5.015   1.942
 2645TIP3    H1 7899   7.089   5.018   1.862
 2645TIP3    H2 7900   7.085   5.067   2.005
 2646TIP3   OH2 7901   4.166   2.796   0.920
 2646TIP3    H1 7902   4.158   2.720   0.862
 2646TIP3    H2 7903   4.218   2.859   0.870
 2647TIP3   OH2 7904   5.858   5.773   1.527
 2647TIP3    H1 7905   5.942   5.785   1.573
 2647TIP3    H2 7906   5.792   5.791   1.593
 2648TIP3   OH2 7907   0.415   1.020   2.481
 2648TIP3    H1 7908   0.337   0.965   2.489
 2648TIP3    H2 7909   0.442   1.036   2.572
 2649TIP3   OH2 7910   6.188   1.832   3.968
 2649TIP3    H1 7911   6.279   1.822   3.997
 2649TIP3    H2 7912   6.155   1.742   3.965
 2650TIP3   OH2 7913   6.036   2.863   3.384
 2650TIP3    H1 7914   6.117   2.868   3.333
 2650TIP3    H2 7915   5.970   2.835   3.320
 2651TIP3   OH2 7916   0.610   6.793   5.722
 2651TIP3    H1 7917   0.621   6.698   5.732
 2651TIP3    H2 7918   0.677   6.831   5.779
 2652TIP3   OH2 7919   2.826   3.706   5.634
 2652TIP3    H1 7920   2.777   3.629   5.606
 2652TIP3    H2 7921   2.914   3.691   5.602
 2653TIP3   OH2 7922   6.774   6.081   0.473
 2653TIP3    H1 7923   6.858   6.115   0.501
 2653TIP3    H2 7924   6.741   6.146   0.411
 2654TIP3   OH2 7925   0.403   0.645   2.575
 2654TIP3    H1 7926   0.379   0.627   2.484
 2654TIP3    H2 7927   0.382   0.564   2.621
 2655TIP3   OH2 7928   3.483   6.441   4.423
 2655TIP3    H1 7929   3.520   6.529   4.421
 2655TIP3    H2 7930   3.391   6.454   4.448
 2656TIP3   OH2 7931   4.812   2.999   5.163
 2656TIP3    H1 7932   4.815   2.904   5.146
 2656TIP3    H2 7933   4.854   3.038   5.087
 2657TIP3   OH2 7934   3.343   6.581   4.645
 2657TIP3    H1 7935   3.421   6.635   4.658
 2657TIP3    H2 7936   3.292   6.628   4.578
 2658TIP3   OH2 7937   4.648   3.762   3.110
 2658TIP3    H1 7938   4.637   3.850   3.073
 2658TIP3    H2 7939   4.743   3.747   3.109
 2659TIP3   OH2 7940   3.528   2.412   5.578
 2659TIP3    H1 7941   3.458   2.362   5.536
 2659TIP3    H2 7942   3.513   2.401   5.672
 2660TIP3   OH2 7943   6.125   1.569   4.001
 2660TIP3    H1 7944   6.052   1.524   4.042
 2660TIP3    H2 7945   6.133   1.528   3.915
 2661TIP3   OH2 7946   5.550   3.323   1.808
 2661TIP3    H1 7947   5.626   3.285   1.852
 2661TIP3    H2 7948   5.510   3.250   1.763
 2662TIP3   OH2 7949   4.161   3.706   0.999
 2662TIP3    H1 7950   4.103   3.636   0.969
 2662TIP3    H2 7951   4.249   3.670   0.991
 2663TIP3   OH2 7952   0.551   5.574   3.517
 2663TIP3    H1 7953   0.556   5.667   3.498
 2663TIP3    H2 7954   0.560   5.568   3.612
 2664TIP3   OH2 7955   1.050   2.105   3.699
 2664TIP3    H1 7956   1.070   2.112   3.605
 2664TIP3    H2 7957   0.959   2.134   3.706
 2665TIP3   OH2 7958   5.390   0.816   4.249
 2665TIP3    H1 7959   5.395   0.911   4.260
 2665TIP3    H2 7960   5.358   0.804   4.160
 2666TIP3   OH2 7961   0.594   6.214   4.980
 2666TIP3    H1 7962   0.585   6.309   4.974
 2666TIP3    H2 7963   0.610   6.196   5.072
 2667TIP3   OH2 7964   2.745   4.851   5.215
 2667TIP3    H1 7965   2.704   4.877   5.132
 2667TIP3    H2 7966   2.802   4.778   5.191
 2668TIP3   OH2 7967   2.945   0.351   0.508
 2668TIP3    H1 7968   3.033   0.381   0.485
 2668TIP3    H2 7969   2.897   0.430   0.531
 2669TIP3   OH2 7970   3.360   5.819   4.691
 2669TIP3    H1 7971   3.296   5.813   4.620
 2669TIP3    H2 7972   3.445   5.821   4.648
 2670TIP3   OH2 7973   2.435   0.745   0.185
 2670TIP3    H1 7974   2.345   0.764   0.211
 2670TIP3    H2 7975   2.489   0.794   0.246
 2671TIP3   OH2 7976   1.840   4.008   3.996
 2671TIP3    H1 7977   1.934   4.023   4.005
 2671TIP3    H2 7978   1.828   3.918   4.028
 2672TIP3   OH2 7979   5.091   5.686   2.871
 2672TIP3    H1 7980   5.145   5.749   2.919
 2672TIP3    H2 7981   5.063   5.623   2.938
 2673TIP3   OH2 7982   3.802   1.630   2.791
 2673TIP3    H1 7983   3.819   1.645   2.698
 2673TIP3    H2 7984   3.741   1.557   2.793
 2674TIP3   OH2 7985   4.370   2.074   1.783
 2674TIP3    H1 7986   4.386   2.076   1.689
 2674TIP3    H2 7987   4.274   2.069   1.790
 2675TIP3   OH2 7988   5.635   3.516   4.289
 2675TIP3    H1 7989   5.708   3.559   4.244
 2675TIP3    H2 7990   5.594   3.461   4.222
 2676TIP3   OH2 7991   1.554   2.610   1.333
 2676TIP3    H1 7992   1.623   2.676   1.330
 2676TIP3    H2 7993   1.548   2.578   1.243
 2677TIP3   OH2 7994   1.044   5.791   1.247
 2677TIP3    H1 7995   1.104   5.727   1.284
 2677TIP3    H2 7996   0.985   5.814   1.319
 2678TIP3   OH2 7997   3.044   1.673   4.437
 2678TIP3    H1 7998   2.962   1.712   4.407
 2678TIP3    H2 7999   3.102   1.680   4.361
 2679TIP3   OH2 8000   3.679   5.591   2.768
 2679TIP3    H1 8001   3.746   5.653   2.795
 2679TIP3    H2 8002   3.628   5.574   2.847
 2680TIP3   OH2 8003   7.002   1.998   4.219
 2680TIP3    H1 8004   6.975   2.070   4.278
 2680TIP3    H2 8005   6.922   1.976   4.171
 2681TIP3   OH2 8006   3.634   5.845   3.277
 2681TIP3    H1 8007   3.645   5.848   3.372
 2681TIP3    H2 8008   3.577   5.771   3.262
 2682TIP3   OH2 8009   4.830   3.008   3.875
 2682TIP3    H1 8010   4.742   3.038   3.899
 2682TIP3    H2 8011   4.876   2.998   3.959
 2683TIP3   OH2 8012   5.382   0.585   1.746
 2683TIP3    H1 8013   5.402   0.674   1.775
 2683TIP3    H2 8014   5.287   0.577   1.757
 2684TIP3   OH2 8015   6.138   5.252   4.060
 2684TIP3    H1 8016   6.224   5.287   4.040
 2684TIP3    H2 8017   6.082   5.328   4.074
 2685TIP3   OH2 8018   6.417   4.971   2.349
 2685TIP3    H1 8019   6.507   4.968   2.315
 2685TIP3    H2 8020   6.392   5.063   2.341
 2686TIP3   OH2 8021   2.808   0.551   4.281
 2686TIP3    H1 8022   2.884   0.577   4.229
 2686TIP3    H2 8023   2.787   0.628   4.333
 2687TIP3   OH2 8024   4.962   1.947   1.154
 2687TIP3    H1 8025   4.964   2.030   1.106
 2687TIP3    H2 8026   4.876   1.909   1.133
 2688TIP3   OH2 8027   2.620   2.549   5.158
 2688TIP3    H1 8028   2.684   2.606   5.116
 2688TIP3    H2 8029   2.549   2.608   5.184
 2689TIP3   OH2 8030   4.242   2.984   3.016
 2689TIP3    H1 8031   4.267   2.894   2.996
 2689TIP3    H2 8032   4.162   2.998   2.965
 2690TIP3   OH2 8033   3.986   6.280   2.970
 2690TIP3    H1 8034   3.972   6.314   2.882
 2690TIP3    H2 8035   4.016   6.190   2.956
 2691TIP3   OH2 8036   1.476   1.172   2.707
 2691TIP3    H1 8037   1.474   1.164   2.802
 2691TIP3    H2 8038   1.474   1.081   2.676
 2692TIP3   OH2 8039   5.903   3.406   2.692
 2692TIP3    H1 8040   5.847   3.351   2.747
 2692TIP3    H2 8041   5.936   3.347   2.625
 2693TIP3   OH2 8042   2.319   4.460   3.266
 2693TIP3    H1 8043   2.256   4.389   3.269
 2693TIP3    H2 8044   2.342   4.476   3.357
 2694TIP3   OH2 8045   2.603   2.034   1.968
 2694TIP3    H1 8046   2.510   2.015   1.961
 2694TIP3    H2 8047   2.647   1.951   1.949
 2695TIP3   OH2 8048   6.642   5.894   3.918
 2695TIP3    H1 8049   6.727   5.874   3.879
 2695TIP3    H2 8050   6.623   5.820   3.976
 2696TIP3   OH2 8051   2.220   2.555   0.993
 2696TIP3    H1 8052   2.314   2.563   0.979
 2696TIP3    H2 8053   2.201   2.463   0.978
 2697TIP3   OH2 8054   4.276   0.272   4.301
 2697TIP3    H1 8055   4.299   0.217   4.376
 2697TIP3    H2 8056   4.245   0.354   4.340
 2698TIP3   OH2 8057   1.756   6.179   4.551
 2698TIP3    H1 8058   1.798   6.094   4.538
 2698TIP3    H2 8059   1.770   6.226   4.469
 2699TIP3   OH2 8060   1.513   6.741   0.185
 2699TIP3    H1 8061   1.435   6.797   0.188
 2699TIP3    H2 8062   1.579   6.795   0.141
 2700TIP3   OH2 8063   4.935   5.548   5.633
 2700TIP3    H1 8064   4.944   5.531   5.539
 2700TIP3    H2 8065   4.954   5.641   5.642
 2701TIP3   OH2 8066   7.133   6.337   5.010
 2701TIP3    H1 8067   7.105   6.246   5.017
 2701TIP3    H2 8068   7.201   6.337   4.943
 2702TIP3   OH2 8069   2.841   4.988   0.298
 2702TIP3    H1 8070   2.841   4.986   0.202
 2702TIP3    H2 8071   2.876   4.903   0.323
 2703TIP3   OH2 8072   5.957   5.673   3.627
 2703TIP3    H1 8073   5.993   5.761   3.639
 2703TIP3    H2 8074   5.936   5.643   3.715
 2704TIP3   OH2 8075   3.065   4.103   1.092
 2704TIP3    H1 8076   3.150   4.118   1.133
 2704TIP3    H2 8077   3.075   4.021   1.045
 2705TIP3   OH2 8078   3.845   0.229   1.077
 2705TIP3    H1 8079   3.867   0.140   1.050
 2705TIP3    H2 8080   3.751   0.236   1.063
 2706TIP3   OH2 8081   3.135   2.065   1.546
 2706TIP3    H1 8082   3.187   2.053   1.467
 2706TIP3    H2 8083   3.048   2.089   1.515
 2707TIP3   OH2 8084   2.634   6.478   0.405
 2707TIP3    H1 8085   2.704   6.498   0.468
 2707TIP3    H2 8086   2.653   6.388   0.378
 2708TIP3   OH2 8087   2.586   0.973   5.720
 2708TIP3    H1 8088   2.620   1.032   5.653
 2708TIP3    H2 8089   2.529   0.913   5.674
 2709TIP3   OH2 8090   0.887   1.466   0.318
 2709TIP3    H1 8091   0.979   1.446   0.334
 2709TIP3    H2 8092   0.841   1.425   0.392
 2710TIP3   OH2 8093   3.262   4.314   3.711
 2710TIP3    H1 8094   3.238   4.284   3.799
 2710TIP3    H2 8095   3.322   4.387   3.727
 2711TIP3   OH2 8096   2.196   3.966   4.936
 2711TIP3    H1 8097   2.234   3.883   4.965
 2711TIP3    H2 8098   2.224   4.030   5.002
 2712TIP3   OH2 8099   2.275   6.277   3.389
 2712TIP3    H1 8100   2.220   6.353   3.409
 2712TIP3    H2 8101   2.257   6.258   3.297
 2713TIP3   OH2 8102   5.844   3.300   1.005
 2713TIP3    H1 8103   5.810   3.322   0.918
 2713TIP3    H2 8104   5.913   3.365   1.021
 2714TIP3   OH2 8105   2.286   1.140   4.587
 2714TIP3    H1 8106   2.306   1.212   4.527
 2714TIP3    H2 8107   2.255   1.183   4.666
 2715TIP3   OH2 8108   1.119   6.219   4.774
 2715TIP3    H1 8109   1.191   6.223   4.837
 2715TIP3    H2 8110   1.040   6.226   4.827
 2716TIP3   OH2 8111   5.343   5.936   0.425
 2716TIP3    H1 8112   5.438   5.928   0.423
 2716TIP3    H2 8113   5.326   6.030   0.410
 2717TIP3   OH2 8114   2.606   2.153   3.291
 2717TIP3    H1 8115   2.523   2.200   3.285
 2717TIP3    H2 8116   2.590   2.070   3.247
 2718TIP3   OH2 8117   3.423   0.591   2.876
 2718TIP3    H1 8118   3.403   0.582   2.783
 2718TIP3    H2 8119   3.396   0.507   2.914
 2719TIP3   OH2 8120   0.969   4.374   3.823
 2719TIP3    H1 8121   0.877   4.361   3.846
 2719TIP3    H2 8122   1.011   4.290   3.841
 2720TIP3   OH2 8123   6.739   3.472   1.880
 2720TIP3    H1 8124   6.748   3.502   1.970
 2720TIP3    H2 8125   6.666   3.410   1.882
 2721TIP3   OH2 8126   5.867   0.108   3.141
 2721TIP3    H1 8127   5.850   0.202   3.152
 2721TIP3    H2 8128   5.782   0.066   3.156
 2722TIP3   OH2 8129   3.916   2.621   4.452
 2722TIP3    H1 8130   3.974   2.680   4.404
 2722TIP3    H2 8131   3.850   2.594   4.387
 2723TIP3   OH2 8132   3.983   4.394   0.624
 2723TIP3    H1 8133   3.908   4.355   0.579
 2723TIP3    H2 8134   4.053   4.395   0.558
 2724TIP3   OH2 8135   2.525   0.278   3.116
 2724TIP3    H1 8136   2.575   0.197   3.101
 2724TIP3    H2 8137   2.545   0.302   3.206
 2725TIP3   OH2 8138   6.916   6.751   1.751
 2725TIP3    H1 8139   6.896   6.668   1.707
 2725TIP3    H2 8140   6.847   6.759   1.818
 2726TIP3   OH2 8141   4.889   3.161   1.079
 2726TIP3    H1 8142   4.837   3.115   1.013
 2726TIP3    H2 8143   4.893   3.100   1.153
 2727TIP3   OH2 8144   3.552   3.862   3.522
 2727TIP3    H1 8145   3.521   3.779   3.558
 2727TIP3    H2 8146   3.481   3.924   3.538
 2728TIP3   OH2 8147   4.685   4.390   3.451
 2728TIP3    H1 8148   4.734   4.335   3.390
 2728TIP3    H2 8149   4.675   4.336   3.530
 2729TIP3   OH2 8150   5.809   1.789   4.046
 2729TIP3    H1 8151   5.719   1.757   4.034
 2729TIP3    H2 8152   5.818   1.798   4.141
 2730TIP3   OH2 8153   2.094   3.829   1.793
 2730TIP3    H1 8154   2.027   3.805   1.729
 2730TIP3    H2 8155   2.105   3.750   1.846
 2731TIP3   OH2 8156   2.495   1.286   3.329
 2731TIP3    H1 8157   2.583   1.253   3.312
 2731TIP3    H2 8158   2.447   1.209   3.359
 2732TIP3   OH2 8159   3.219   4.162   3.081
 2732TIP3    H1 8160   3.277   4.203   3.145
 2732TIP3    H2 8161   3.216   4.224   3.008
 2733TIP3   OH2 8162   4.293   1.192   0.958
 2733TIP3    H1 8163   4.208   1.174   0.919
 2733TIP3    H2 8164   4.278   1.190   1.052
 2734TIP3   OH2 8165   0.246   5.692   1.683
 2734TIP3    H1 8166   0.307   5.725   1.748
 2734TIP3    H2 8167   0.195   5.626   1.729
 2735TIP3   OH2 8168   2.244   0.143   1.063
 2735TIP3    H1 8169   2.318   0.101   1.018
 2735TIP3    H2 8170   2.184   0.071   1.083
 2736TIP3   OH2 8171   2.556   4.809   1.410
 2736TIP3    H1 8172   2.618   4.738   1.425
 2736TIP3    H2 8173   2.561   4.863   1.488
 2737TIP3   OH2 8174   5.113   3.760   1.723
 2737TIP3    H1 8175   5.166   3.786   1.798
 2737TIP3    H2 8176   5.060   3.687   1.755
 2738TIP3   OH2 8177   1.511   2.403   4.727
 2738TIP3    H1 8178   1.438   2.369   4.780
 2738TIP3    H2 8179   1.521   2.339   4.656
 2739TIP3   OH2 8180   1.347   1.270   1.113
 2739TIP3    H1 8181   1.340   1.360   1.081
 2739TIP3    H2 8182   1.271   1.225   1.076
 2740TIP3   OH2 8183   1.111   4.003   0.441
 2740TIP3    H1 8184   1.132   3.943   0.513
 2740TIP3    H2 8185   1.177   3.983   0.374
 2741TIP3   OH2 8186   0.550   4.491   0.405
 2741TIP3    H1 8187   0.553   4.586   0.397
 2741TIP3    H2 8188   0.594   4.472   0.488
 2742TIP3   OH2 8189   4.273   3.192   3.811
 2742TIP3    H1 8190   4.222   3.212   3.732
 2742TIP3    H2 8191   4.364   3.190   3.781
 2743TIP3   OH2 8192   0.558   4.078   3.749
 2743TIP3    H1 8193   0.499   4.002   3.752
 2743TIP3    H2 8194   0.538   4.120   3.665
 2744TIP3   OH2 8195   3.171   2.868   5.562
 2744TIP3    H1 8196   3.173   2.793   5.501
 2744TIP3    H2 8197   3.198   2.943   5.509
 2745TIP3   OH2 8198   7.064   0.599   5.742
 2745TIP3    H1 8199   7.119   0.522   5.730
 2745TIP3    H2 8200   6.992   0.569   5.797
 2746TIP3   OH2 8201   5.854   5.105   5.192
 2746TIP3    H1 8202   5.770   5.068   5.164
 2746TIP3    H2 8203   5.885   5.154   5.115
 2747TIP3   OH2 8204   0.869   4.879   4.949
 2747TIP3    H1 8205   0.887   4.967   4.916
 2747TIP3    H2 8206   0.811   4.840   4.883
 2748TIP3   OH2 8207   0.873   5.339   2.805
 2748TIP3    H1 8208   0.857   5.248   2.829
 2748TIP3    H2 8209   0.968   5.344   2.792
 2749TIP3   OH2 8210   5.628   0.734   5.575
 2749TIP3    H1 8211   5.712   0.704   5.540
 2749TIP3    H2 8212   5.643   0.826   5.597
 2750TIP3   OH2 8213   7.144   6.163   2.575
 2750TIP3    H1 8214   7.145   6.218   2.496
 2750TIP3    H2 8215   7.115   6.222   2.645
 2751TIP3   OH2 8216   7.136   1.812   0.292
 2751TIP3    H1 8217   7.154   1.741   0.231
 2751TIP3    H2 8218   7.201   1.879   0.270
 2752TIP3   OH2 8219   4.290   3.089   2.338
 2752TIP3    H1 8220   4.254   3.074   2.250
 2752TIP3    H2 8221   4.351   3.017   2.351
 2753TIP3   OH2 8222   6.561   6.560   3.536
 2753TIP3    H1 8223   6.546   6.465   3.541
 2753TIP3    H2 8224   6.646   6.573   3.577
 2754TIP3   OH2 8225   5.064   5.540   4.342
 2754TIP3    H1 8226   5.033   5.631   4.336
 2754TIP3    H2 8227   5.085   5.528   4.434
 2755TIP3   OH2 8228   3.376   2.536   1.208
 2755TIP3    H1 8229   3.343   2.568   1.293
 2755TIP3    H2 8230   3.448   2.477   1.231
 2756TIP3   OH2 8231   1.989   1.975   1.140
 2756TIP3    H1 8232   1.962   2.010   1.055
 2756TIP3    H2 8233   2.052   2.039   1.173
 2757TIP3   OH2 8234   2.774   6.252   0.320
 2757TIP3    H1 8235   2.753   6.165   0.287
 2757TIP3    H2 8236   2.869   6.259   0.312
 2758TIP3   OH2 8237   5.013   0.922   2.481
 2758TIP3    H1 8238   5.099   0.947   2.514
 2758TIP3    H2 8239   4.953   0.939   2.554
 2759TIP3   OH2 8240   3.252   6.063   2.355
 2759TIP3    H1 8241   3.340   6.070   2.391
 2759TIP3    H2 8242   3.261   6.092   2.264
 2760TIP3   OH2 8243   1.746   6.511   1.466
 2760TIP3    H1 8244   1.670   6.569   1.456
 2760TIP3    H2 8245   1.721   6.452   1.537
 2761TIP3   OH2 8246   5.945   1.895   3.504
 2761TIP3    H1 8247   5.870   1.948   3.477
 2761TIP3    H2 8248   5.936   1.888   3.599
 2762TIP3   OH2 8249   0.199   0.026   3.320
 2762TIP3    H1 8250   0.188   0.113   3.283
 2762TIP3    H2 8251   0.238  -0.026   3.250
 2763TIP3   OH2 8252   5.496   2.400   5.116
 2763TIP3    H1 8253   5.530   2.490   5.116
 2763TIP3    H2 8254   5.409   2.408   5.154
 2764TIP3   OH2 8255   1.852   0.812   1.848
 2764TIP3    H1 8256   1.804   0.894   1.859
 2764TIP3    H2 8257   1.941   0.838   1.824
 2765TIP3   OH2 8258   2.459   4.281   5.842
 2765TIP3    H1 8259   2.452   4.354   5.780
 2765TIP3    H2 8260   2.419   4.208   5.796
 2766TIP3   OH2 8261   3.526   3.246   3.418
 2766TIP3    H1 8262   3.595   3.180   3.414
 2766TIP3    H2 8263   3.552   3.304   3.490
 2767TIP3   OH2 8264   3.646   5.170   0.117
 2767TIP3    H1 8265   3.629   5.221   0.038
 2767TIP3    H2 8266   3.612   5.225   0.189
 2768TIP3   OH2 8267   1.957   5.153   2.052
 2768TIP3    H1 8268   2.010   5.095   1.997
 2768TIP3    H2 8269   1.955   5.236   2.004
 2769TIP3   OH2 8270   6.745   5.241   2.512
 2769TIP3    H1 8271   6.718   5.205   2.428
 2769TIP3    H2 8272   6.799   5.317   2.488
 2770TIP3   OH2 8273   4.006   6.461   4.782
 2770TIP3    H1 8274   3.959   6.517   4.720
 2770TIP3    H2 8275   4.023   6.517   4.857
 2771TIP3   OH2 8276   5.204   3.326   1.370
 2771TIP3    H1 8277   5.161   3.329   1.284
 2771TIP3    H2 8278   5.279   3.268   1.357
 2772TIP3   OH2 8279   0.802   6.259   1.873
 2772TIP3    H1 8280   0.775   6.175   1.909
 2772TIP3    H2 8281   0.755   6.265   1.790
 2773TIP3   OH2 8282   4.584   3.109   4.818
 2773TIP3    H1 8283   4.521   3.121   4.889
 2773TIP3    H2 8284   4.540   3.147   4.741
 2774TIP3   OH2 8285   7.269   5.526   1.449
 2774TIP3    H1 8286   7.312   5.611   1.439
 2774TIP3    H2 8287   7.185   5.536   1.404
 2775TIP3   OH2 8288   3.799   0.683   5.257
 2775TIP3    H1 8289   3.712   0.656   5.286
 2775TIP3    H2 8290   3.857   0.611   5.281
 2776TIP3   OH2 8291   1.084   3.401   4.677
 2776TIP3    H1 8292   1.053   3.377   4.589
 2776TIP3    H2 8293   1.134   3.325   4.706
 2777TIP3   OH2 8294   0.538  -0.027   3.233
 2777TIP3    H1 8295   0.539  -0.006   3.140
 2777TIP3    H2 8296   0.545   0.058   3.277
 2778TIP3   OH2 8297   6.531   0.634   2.796
 2778TIP3    H1 8298   6.590   0.632   2.720
 2778TIP3    H2 8299   6.459   0.575   2.773
 2779TIP3   OH2 8300   4.813   5.985   4.880
 2779TIP3    H1 8301   4.735   5.960   4.830
 2779TIP3    H2 8302   4.850   6.059   4.831
 2780TIP3   OH2 8303   4.825   4.638   1.589
 2780TIP3    H1 8304   4.845   4.630   1.495
 2780TIP3    H2 8305   4.810   4.548   1.618
 2781TIP3   OH2 8306   3.329   4.295   3.972
 2781TIP3    H1 8307   3.425   4.297   3.968
 2781TIP3    H2 8308   3.308   4.206   3.997
 2782TIP3   OH2 8309   4.039   2.630   4.804
 2782TIP3    H1 8310   3.963   2.586   4.841
 2782TIP3    H2 8311   4.050   2.708   4.858
 2783TIP3   OH2 8312   2.920   5.173   1.944
 2783TIP3    H1 8313   2.930   5.261   1.981
 2783TIP3    H2 8314   2.997   5.125   1.974
 2784TIP3   OH2 8315   3.021   5.207   0.219
 2784TIP3    H1 8316   2.965   5.171   0.288
 2784TIP3    H2 8317   2.963   5.268   0.172
 2785TIP3   OH2 8318   4.471   3.506   2.435
 2785TIP3    H1 8319   4.448   3.521   2.526
 2785TIP3    H2 8320   4.566   3.493   2.436
 2786TIP3   OH2 8321   0.584   2.612   0.134
 2786TIP3    H1 8322   0.491   2.588   0.142
 2786TIP3    H2 8323   0.583   2.706   0.119
 2787TIP3   OH2 8324   5.590   5.005   3.590
 2787TIP3    H1 8325   5.517   5.064   3.603
 2787TIP3    H2 8326   5.555   4.918   3.610
 2788TIP3   OH2 8327   5.567   2.299   1.411
 2788TIP3    H1 8328   5.503   2.361   1.446
 2788TIP3    H2 8329   5.647   2.351   1.402
 2789TIP3   OH2 8330   4.614   5.847   4.776
 2789TIP3    H1 8331   4.568   5.856   4.693
 2789TIP3    H2 8332   4.559   5.789   4.828
 2790TIP3   OH2 8333   2.152   3.103   3.563
 2790TIP3    H1 8334   2.240   3.081   3.533
 2790TIP3    H2 8335   2.157   3.197   3.585
 2791TIP3   OH2 8336   5.562   2.294   5.528
 2791TIP3    H1 8337   5.541   2.387   5.537
 2791TIP3    H2 8338   5.482   2.248   5.555
 2792TIP3   OH2 8339   3.870   1.707   0.102
 2792TIP3    H1 8340   3.784   1.677   0.131
 2792TIP3    H2 8341   3.893   1.648   0.030
 2793TIP3   OH2 8342   4.629   3.199   5.666
 2793TIP3    H1 8343   4.689   3.174   5.735
 2793TIP3    H2 8344   4.548   3.151   5.685
 2794TIP3   OH2 8345   1.053   3.999   5.122
 2794TIP3    H1 8346   1.022   3.937   5.057
 2794TIP3    H2 8347   1.022   3.963   5.206
 2795TIP3   OH2 8348   4.869   0.410   2.382
 2795TIP3    H1 8349   4.951   0.459   2.387
 2795TIP3    H2 8350   4.816   0.444   2.454
 2796TIP3   OH2 8351   4.294   0.644   0.637
 2796TIP3    H1 8352   4.303   0.568   0.694
 2796TIP3    H2 8353   4.327   0.614   0.552
 2797TIP3   OH2 8354   4.383   4.350   1.550
 2797TIP3    H1 8355   4.397   4.369   1.643
 2797TIP3    H2 8356   4.470   4.358   1.510
 2798TIP3   OH2 8357   2.922   2.690   1.927
 2798TIP3    H1 8358   2.930   2.703   1.832
 2798TIP3    H2 8359   2.830   2.708   1.946
 2799TIP3   OH2 8360   1.648   4.377   4.372
 2799TIP3    H1 8361   1.643   4.281   4.378
 2799TIP3    H2 8362   1.590   4.400   4.299
 2800TIP3   OH2 8363   6.390   0.390   1.527
 2800TIP3    H1 8364   6.302   0.425   1.540
 2800TIP3    H2 8365   6.428   0.444   1.458
 2801TIP3   OH2 8366   1.597   3.281   4.368
 2801TIP3    H1 8367   1.682   3.323   4.357
 2801TIP3    H2 8368   1.553   3.333   4.435
 2802TIP3   OH2 8369   2.413   0.612   4.544
 2802TIP3    H1 8370   2.357   0.543   4.509
 2802TIP3    H2 8371   2.394   0.613   4.638
 2803TIP3   OH2 8372   2.469   1.464   4.843
 2803TIP3    H1 8373   2.382   1.500   4.862
 2803TIP3    H2 8374   2.462   1.433   4.752
 2804TIP3   OH2 8375   1.835   4.096   0.064
 2804TIP3    H1 8376   1.820   4.101   0.158
 2804TIP3    H2 8377   1.823   4.185   0.033
 2805TIP3   OH2 8378   1.853   0.177   4.954
 2805TIP3    H1 8379   1.844   0.165   5.049
 2805TIP3    H2 8380   1.866   0.089   4.920
 2806TIP3   OH2 8381   4.493   5.173   0.623
 2806TIP3    H1 8382   4.472   5.081   0.606
 2806TIP3    H2 8383   4.421   5.222   0.584
 2807TIP3   OH2 8384   6.786   4.386   4.356
 2807TIP3    H1 8385   6.770   4.296   4.327
 2807TIP3    H2 8386   6.793   4.380   4.451
 2808TIP3   OH2 8387   5.235   0.324   5.406
 2808TIP3    H1 8388   5.239   0.416   5.432
 2808TIP3    H2 8389   5.281   0.278   5.477
 2809TIP3   OH2 8390   2.616   3.645   3.089
 2809TIP3    H1 8391   2.587   3.704   3.020
 2809TIP3    H2 8392   2.711   3.641   3.078
 2810TIP3   OH2 8393   4.136   2.590   0.172
 2810TIP3    H1 8394   4.223   2.584   0.132
 2810TIP3    H2 8395   4.120   2.503   0.208
 2811TIP3   OH2 8396   5.314   3.592   1.121
 2811TIP3    H1 8397   5.353   3.601   1.208
 2811TIP3    H2 8398   5.278   3.504   1.120
 2812TIP3   OH2 8399   7.052   6.596   2.600
 2812TIP3    H1 8400   7.066   6.663   2.666
 2812TIP3    H2 8401   6.998   6.638   2.533
 2813TIP3   OH2 8402   6.700   3.456   3.989
 2813TIP3    H1 8403   6.794   3.453   3.974
 2813TIP3    H2 8404   6.686   3.393   4.060
 2814TIP3   OH2 8405   0.494   6.449   4.852
 2814TIP3    H1 8406   0.468   6.514   4.787
 2814TIP3    H2 8407   0.449   6.476   4.932
 2815TIP3   OH2 8408   6.732   3.232   3.168
 2815TIP3    H1 8409   6.754   3.225   3.261
 2815TIP3    H2 8410   6.813   3.208   3.122
 2816TIP3   OH2 8411   1.783   3.173   2.717
 2816TIP3    H1 8412   1.794   3.131   2.633
 2816TIP3    H2 8413   1.792   3.267   2.698
 2817TIP3   OH2 8414   5.382   3.192   0.638
 2817TIP3    H1 8415   5.330   3.177   0.559
 2817TIP3    H2 8416   5.403   3.285   0.636
 2818TIP3   OH2 8417   2.205   0.001   3.566
 2818TIP3    H1 8418   2.124   0.009   3.618
 2818TIP3    H2 8419   2.269   0.053   3.615
 2819TIP3   OH2 8420   2.470   3.943   1.051
 2819TIP3    H1 8421   2.491   3.939   0.958
 2819TIP3    H2 8422   2.551   3.919   1.096
 2820TIP3   OH2 8423   7.153   3.637   1.385
 2820TIP3    H1 8424   7.138   3.659   1.293
 2820TIP3    H2 8425   7.141   3.542   1.390
 2821TIP3   OH2 8426   6.781   6.348   4.183
 2821TIP3    H1 8427   6.848   6.279   4.172
 2821TIP3    H2 8428   6.761   6.376   4.093
 2822TIP3   OH2 8429   3.021   5.535   3.148
 2822TIP3    H1 8430   2.981   5.571   3.069
 2822TIP3    H2 8431   2.952   5.479   3.185
 2823TIP3   OH2 8432   6.428   2.377   2.493
 2823TIP3    H1 8433   6.422   2.282   2.481
 2823TIP3    H2 8434   6.500   2.389   2.555
 2824TIP3   OH2 8435   4.308   4.412   4.267
 2824TIP3    H1 8436   4.402   4.433   4.262
 2824TIP3    H2 8437   4.298   4.336   4.210
 2825TIP3   OH2 8438   1.733   6.126   0.119
 2825TIP3    H1 8439   1.736   6.187   0.046
 2825TIP3    H2 8440   1.682   6.052   0.086
 2826TIP3   OH2 8441   5.191   6.690   3.920
 2826TIP3    H1 8442   5.223   6.679   4.009
 2826TIP3    H2 8443   5.101   6.719   3.930
 2827TIP3   OH2 8444   4.408   2.705   4.859
 2827TIP3    H1 8445   4.351   2.646   4.809
 2827TIP3    H2 8446   4.435   2.772   4.796
 2828TIP3   OH2 8447   4.432   2.906   4.664
 2828TIP3    H1 8448   4.503   2.947   4.712
 2828TIP3    H2 8449   4.466   2.896   4.575
 2829TIP3   OH2 8450   5.121   5.217   0.025
 2829TIP3    H1 8451   5.056   5.201   0.093
 2829TIP3    H2 8452   5.078   5.277  -0.036
 2830TIP3   OH2 8453   4.324   1.376   0.663
 2830TIP3    H1 8454   4.356   1.310   0.601
 2830TIP3    H2 8455   4.233   1.352   0.679
 2831TIP3   OH2 8456   5.112   6.499   2.509
 2831TIP3    H1 8457   5.080   6.482   2.597
 2831TIP3    H2 8458   5.070   6.581   2.483
 2832TIP3   OH2 8459   5.933   3.889   3.389
 2832TIP3    H1 8460   5.934   3.935   3.305
 2832TIP3    H2 8461   5.844   3.900   3.421
 2833TIP3   OH2 8462   4.631   6.608   3.541
 2833TIP3    H1 8463   4.632   6.513   3.554
 2833TIP3    H2 8464   4.721   6.635   3.556
 2834TIP3   OH2 8465   4.425   3.608   0.608
 2834TIP3    H1 8466   4.342   3.571   0.639
 2834TIP3    H2 8467   4.482   3.607   0.685
 2835TIP3   OH2 8468   5.706   5.342   3.430
 2835TIP3    H1 8469   5.760   5.335   3.509
 2835TIP3    H2 8470   5.755   5.400   3.373
 2836TIP3   OH2 8471   6.394   2.443   5.531
 2836TIP3    H1 8472   6.310   2.476   5.499
 2836TIP3    H2 8473   6.378   2.420   5.622
 2837TIP3   OH2 8474   7.125   0.385   1.222
 2837TIP3    H1 8475   7.066   0.325   1.268
 2837TIP3    H2 8476   7.069   0.432   1.161
 2838TIP3   OH2 8477   6.970   5.594   0.178
 2838TIP3    H1 8478   6.932   5.558   0.099
 2838TIP3    H2 8479   7.060   5.560   0.179
 2839TIP3   OH2 8480   3.113   6.076   1.333
 2839TIP3    H1 8481   3.085   6.032   1.252
 2839TIP3    H2 8482   3.124   6.005   1.396
 2840TIP3   OH2 8483   0.226   4.259   4.353
 2840TIP3    H1 8484   0.143   4.277   4.310
 2840TIP3    H2 8485   0.235   4.164   4.347
 2841TIP3   OH2 8486   6.947   0.395   3.081
 2841TIP3    H1 8487   6.958   0.364   3.170
 2841TIP3    H2 8488   6.990   0.328   3.027
 2842TIP3   OH2 8489   4.515   0.119   1.348
 2842TIP3    H1 8490   4.534   0.035   1.304
 2842TIP3    H2 8491   4.468   0.170   1.282
 2843TIP3   OH2 8492   1.445   4.340   0.521
 2843TIP3    H1 8493   1.502   4.408   0.556
 2843TIP3    H2 8494   1.362   4.352   0.567
 2844TIP3   OH2 8495   3.604   5.703   0.172
 2844TIP3    H1 8496   3.548   5.626   0.161
 2844TIP3    H2 8497   3.674   5.673   0.230
 2845TIP3   OH2 8498   6.676   2.231   2.855
 2845TIP3    H1 8499   6.709   2.276   2.933
 2845TIP3    H2 8500   6.667   2.140   2.881
 2846TIP3   OH2 8501   6.169   2.545   5.378
 2846TIP3    H1 8502   6.121   2.617   5.337
 2846TIP3    H2 8503   6.116   2.522   5.455
 2847TIP3   OH2 8504   0.855   0.058   1.426
 2847TIP3    H1 8505   0.812   0.144   1.424
 2847TIP3    H2 8506   0.948   0.077   1.420
 2848TIP3   OH2 8507   3.978   6.783   4.639
 2848TIP3    H1 8508   4.042   6.800   4.570
 2848TIP3    H2 8509   3.938   6.699   4.615
 2849TIP3   OH2 8510   6.280   1.663   2.735
 2849TIP3    H1 8511   6.229   1.698   2.807
 2849TIP3    H2 8512   6.325   1.587   2.772
 2850TIP3   OH2 8513   2.157   1.129   2.670
 2850TIP3    H1 8514   2.074   1.176   2.675
 2850TIP3    H2 8515   2.135   1.038   2.690
 2851TIP3   OH2 8516   1.190   5.924   0.674
 2851TIP3    H1 8517   1.147   5.891   0.595
 2851TIP3    H2 8518   1.119   5.933   0.738
 2852TIP3   OH2 8519   4.634   4.061   3.853
 2852TIP3    H1 8520   4.539   4.056   3.849
 2852TIP3    H2 8521   4.656   4.027   3.939
 2853TIP3   OH2 8522   1.677   1.906   4.071
 2853TIP3    H1 8523   1.769   1.929   4.056
 2853TIP3    H2 8524   1.629   1.954   4.004
 2854TIP3   OH2 8525   1.683   2.761   3.076
 2854TIP3    H1 8526   1.739   2.838   3.081
 2854TIP3    H2 8527   1.648   2.763   2.987
 2855TIP3   OH2 8528   0.723   4.830   5.858
 2855TIP3    H1 8529   0.644   4.879   5.882
 2855TIP3    H2 8530   0.707   4.802   5.767
 2856TIP3   OH2 8531   4.140   2.431   2.992
 2856TIP3    H1 8532   4.131   2.335   2.987
 2856TIP3    H2 8533   4.067   2.459   3.046
 2857TIP3   OH2 8534   5.265   2.272   1.471
 2857TIP3    H1 8535   5.198   2.208   1.497
 2857TIP3    H2 8536   5.333   2.263   1.538
 2858TIP3   OH2 8537   2.609   0.351   3.876
 2858TIP3    H1 8538   2.605   0.405   3.955
 2858TIP3    H2 8539   2.596   0.261   3.908
 2859TIP3   OH2 8540   5.105   3.920   4.730
 2859TIP3    H1 8541   5.120   3.955   4.818
 2859TIP3    H2 8542   5.051   3.843   4.744
 2860TIP3   OH2 8543   4.082   5.178   4.858
 2860TIP3    H1 8544   4.002   5.194   4.909
 2860TIP3    H2 8545   4.065   5.221   4.774
 2861TIP3   OH2 8546   7.089   3.878   1.545
 2861TIP3    H1 8547   7.116   3.811   1.483
 2861TIP3    H2 8548   7.003   3.905   1.515
 2862TIP3   OH2 8549   1.315   3.193   3.475
 2862TIP3    H1 8550   1.373   3.268   3.464
 2862TIP3    H2 8551   1.358   3.123   3.425
 2863TIP3   OH2 8552   4.217   3.292   5.462
 2863TIP3    H1 8553   4.202   3.335   5.378
 2863TIP3    H2 8554   4.302   3.326   5.491
 2864TIP3   OH2 8555   4.666   0.136   4.342
 2864TIP3    H1 8556   4.741   0.121   4.284
 2864TIP3    H2 8557   4.612   0.199   4.295
 2865TIP3   OH2 8558   0.866   3.192   1.446
 2865TIP3    H1 8559   0.798   3.129   1.425
 2865TIP3    H2 8560   0.935   3.141   1.488
 2866TIP3   OH2 8561   7.191   3.801   3.900
 2866TIP3    H1 8562   7.199   3.884   3.853
 2866TIP3    H2 8563   7.099   3.798   3.928
 2867TIP3   OH2 8564   3.958   2.704   5.589
 2867TIP3    H1 8565   3.947   2.678   5.497
 2867TIP3    H2 8566   3.988   2.625   5.633
 2868TIP3   OH2 8567   1.430   5.017   3.617
 2868TIP3    H1 8568   1.384   5.079   3.560
 2868TIP3    H2 8569   1.362   4.959   3.650
 2869TIP3   OH2 8570   1.063   5.080   1.742
 2869TIP3    H1 8571   1.062   5.060   1.836
 2869TIP3    H2 8572   1.081   5.174   1.738
 2870TIP3   OH2 8573   3.986   5.170   0.767
 2870TIP3    H1 8574   3.917   5.122   0.721
 2870TIP3    H2 8575   3.959   5.262   0.759
 2871TIP3   OH2 8576   5.759   5.731   5.435
 2871TIP3    H1 8577   5.788   5.746   5.345
 2871TIP3    H2 8578   5.796   5.804   5.484
 2872TIP3   OH2 8579   1.443   3.489   5.682
 2872TIP3    H1 8580   1.483   3.576   5.686
 2872TIP3    H2 8581   1.516   3.429   5.667
 2873TIP3   OH2 8582   4.475   3.940   2.523
 2873TIP3    H1 8583   4.426   3.883   2.463
 2873TIP3    H2 8584   4.416   4.014   2.539
 2874TIP3   OH2 8585   2.131   4.048   4.066
 2874TIP3    H1 8586   2.200   3.989   4.036
 2874TIP3    H2 8587   2.148   4.060   4.160
 2875TIP3   OH2 8588   6.843   0.934   5.191
 2875TIP3    H1 8589   6.781   1.006   5.183
 2875TIP3    H2 8590   6.865   0.911   5.100
 2876TIP3   OH2 8591   2.526   4.380   2.567
 2876TIP3    H1 8592   2.583   4.373   2.490
 2876TIP3    H2 8593   2.442   4.411   2.532
 2877TIP3   OH2 8594   0.249   3.472   0.058
 2877TIP3    H1 8595   0.285   3.555   0.089
 2877TIP3    H2 8596   0.230   3.423   0.138
 2878TIP3   OH2 8597   4.100   5.064   0.141
 2878TIP3    H1 8598   4.156   5.141   0.135
 2878TIP3    H2 8599   4.033   5.078   0.074
 2879TIP3   OH2 8600   6.545   0.087   1.096
 2879TIP3    H1 8601   6.553   0.180   1.076
 2879TIP3    H2 8602   6.511   0.084   1.185
 2880TIP3   OH2 8603   3.942   6.009   5.251
 2880TIP3    H1 8604   3.997   5.944   5.207
 2880TIP3    H2 8605   3.868   5.960   5.284
 2881TIP3   OH2 8606   0.799   1.606   4.780
 2881TIP3    H1 8607   0.826   1.574   4.867
 2881TIP3    H2 8608   0.881   1.637   4.740
 2882TIP3   OH2 8609   2.583   2.186   2.182
 2882TIP3    H1 8610   2.678   2.186   2.193
 2882TIP3    H2 8611   2.567   2.122   2.112
 2883TIP3   OH2 8612   1.786   5.234   1.365
 2883TIP3    H1 8613   1.794   5.139   1.360
 2883TIP3    H2 8614   1.871   5.267   1.336
 2884TIP3   OH2 8615   1.668   6.586   4.356
 2884TIP3    H1 8616   1.646   6.563   4.446
 2884TIP3    H2 8617   1.584   6.591   4.311
 2885TIP3   OH2 8618   1.056   2.818   1.001
 2885TIP3    H1 8619   1.002   2.740   1.000
 2885TIP3    H2 8620   1.014   2.875   1.066
 2886TIP3   OH2 8621   4.847   0.801   3.001
 2886TIP3    H1 8622   4.927   0.753   3.020
 2886TIP3    H2 8623   4.781   0.734   2.985
 2887TIP3   OH2 8624   2.304   4.290   2.834
 2887TIP3    H1 8625   2.227   4.345   2.818
 2887TIP3    H2 8626   2.376   4.352   2.848
 2888TIP3   OH2 8627   0.204   4.400   3.563
 2888TIP3    H1 8628   0.154   4.447   3.630
 2888TIP3    H2 8629   0.262   4.467   3.526
 2889TIP3   OH2 8630   5.673   2.262   3.642
 2889TIP3    H1 8631   5.728   2.206   3.696
 2889TIP3    H2 8632   5.596   2.280   3.696
 2890TIP3   OH2 8633   5.147   3.128   2.024
 2890TIP3    H1 8634   5.093   3.206   2.034
 2890TIP3    H2 8635   5.223   3.143   2.081
 2891TIP3   OH2 8636   1.940   4.931   5.624
 2891TIP3    H1 8637   1.987   4.941   5.541
 2891TIP3    H2 8638   1.929   4.836   5.634
 2892TIP3   OH2 8639   2.952   5.175   3.701
 2892TIP3    H1 8640   3.042   5.172   3.733
 2892TIP3    H2 8641   2.948   5.254   3.648
 2893TIP3   OH2 8642   5.400   1.277   5.385
 2893TIP3    H1 8643   5.483   1.268   5.432
 2893TIP3    H2 8644   5.420   1.254   5.295
 2894TIP3   OH2 8645   6.313   4.334   3.618
 2894TIP3    H1 8646   6.271   4.290   3.692
 2894TIP3    H2 8647   6.364   4.405   3.658
 2895TIP3   OH2 8648   4.799   6.307   1.160
 2895TIP3    H1 8649   4.843   6.390   1.177
 2895TIP3    H2 8650   4.707   6.324   1.183
 2896TIP3   OH2 8651   2.715   6.298   3.971
 2896TIP3    H1 8652   2.782   6.233   3.994
 2896TIP3    H2 8653   2.652   6.250   3.917
 2897TIP3   OH2 8654   6.687   4.480   1.940
 2897TIP3    H1 8655   6.707   4.457   2.031
 2897TIP3    H2 8656   6.772   4.489   1.898
 2898TIP3   OH2 8657   3.980   0.471   3.702
 2898TIP3    H1 8658   4.067   0.505   3.680
 2898TIP3    H2 8659   3.927   0.488   3.625
 2899TIP3   OH2 8660   6.840   2.592   3.649
 2899TIP3    H1 8661   6.779   2.520   3.632
 2899TIP3    H2 8662   6.784   2.664   3.677
 2900TIP3   OH2 8663   4.585   5.553   5.439
 2900TIP3    H1 8664   4.552   5.485   5.497
 2900TIP3    H2 8665   4.603   5.508   5.356
 2901TIP3   OH2 8666   4.124   6.417   1.085
 2901TIP3    H1 8667   4.083   6.349   1.138
 2901TIP3    H2 8668   4.051   6.468   1.050
 2902TIP3   OH2 8669   3.884   5.478   5.846
 2902TIP3    H1 8670   3.937   5.479   5.926
 2902TIP3    H2 8671   3.800   5.441   5.872
 2903TIP3   OH2 8672   4.527   1.335   4.236
 2903TIP3    H1 8673   4.491   1.377   4.158
 2903TIP3    H2 8674   4.579   1.403   4.278
 2904TIP3   OH2 8675   4.931   5.346   0.232
 2904TIP3    H1 8676   5.008   5.374   0.280
 2904TIP3    H2 8677   4.907   5.422   0.179
 2905TIP3   OH2 8678   7.212   1.160   5.163
 2905TIP3    H1 8679   7.145   1.228   5.156
 2905TIP3    H2 8680   7.164   1.081   5.188
 2906TIP3   OH2 8681   5.312   0.779   0.817
 2906TIP3    H1 8682   5.363   0.743   0.890
 2906TIP3    H2 8683   5.361   0.752   0.739
 2907TIP3   OH2 8684   3.404   4.586   0.062
 2907TIP3    H1 8685   3.313   4.604   0.037
 2907TIP3    H2 8686   3.398   4.505   0.113
 2908TIP3   OH2 8687   0.296   4.276   3.067
 2908TIP3    H1 8688   0.319   4.183   3.069
 2908TIP3    H2 8689   0.200   4.276   3.060
 2909TIP3   OH2 8690   6.285   0.705   3.654
 2909TIP3    H1 8691   6.214   0.677   3.595
 2909TIP3    H2 8692   6.357   0.644   3.635
 2910TIP3   OH2 8693   4.449   4.036   5.132
 2910TIP3    H1 8694   4.535   4.026   5.092
 2910TIP3    H2 8695   4.436   4.131   5.136
 2911TIP3   OH2 8696   1.917   6.368   2.580
 2911TIP3    H1 8697   1.908   6.436   2.513
 2911TIP3    H2 8698   1.946   6.415   2.658
 2912TIP3   OH2 8699   3.310   4.866   4.309
 2912TIP3    H1 8700   3.306   4.955   4.346
 2912TIP3    H2 8701   3.220   4.834   4.318
 2913TIP3   OH2 8702   2.202   0.661   0.483
 2913TIP3    H1 8703   2.109   0.655   0.507
 2913TIP3    H2 8704   2.226   0.571   0.459
 2914TIP3   OH2 8705   3.245   3.182   1.188
 2914TIP3    H1 8706   3.187   3.173   1.263
 2914TIP3    H2 8707   3.224   3.268   1.152
 2915TIP3   OH2 8708   6.219   2.956   0.852
 2915TIP3    H1 8709   6.147   2.893   0.852
 2915TIP3    H2 8710   6.190   3.025   0.912
 2916TIP3   OH2 8711   6.283   4.109   3.976
 2916TIP3    H1 8712   6.221   4.093   3.905
 2916TIP3    H2 8713   6.266   4.199   4.002
 2917TIP3   OH2 8714   6.698   0.344   2.687
 2917TIP3    H1 8715   6.604   0.351   2.702
 2917TIP3    H2 8716   6.705   0.307   2.599
 2918TIP3   OH2 8717   5.086   4.319   4.850
 2918TIP3    H1 8718   5.040   4.256   4.795
 2918TIP3    H2 8719   5.026   4.392   4.858
 2919TIP3   OH2 8720   6.188   2.132   3.402
 2919TIP3    H1 8721   6.269   2.150   3.353
 2919TIP3    H2 8722   6.161   2.045   3.373
 2920TIP3   OH2 8723   4.157   0.705   5.564
 2920TIP3    H1 8724   4.227   0.725   5.625
 2920TIP3    H2 8725   4.183   0.747   5.482
 2921TIP3   OH2 8726   3.150   3.621   4.328
 2921TIP3    H1 8727   3.089   3.640   4.400
 2921TIP3    H2 8728   3.233   3.604   4.372
 2922TIP3   OH2 8729   1.946   5.774   4.983
 2922TIP3    H1 8730   1.940   5.717   4.906
 2922TIP3    H2 8731   2.040   5.787   4.996
 2923TIP3   OH2 8732   1.154   6.203   2.097
 2923TIP3    H1 8733   1.174   6.289   2.062
 2923TIP3    H2 8734   1.238   6.171   2.131
 2924TIP3   OH2 8735   4.655   6.648   1.143
 2924TIP3    H1 8736   4.728   6.690   1.190
 2924TIP3    H2 8737   4.577   6.673   1.193
 2925TIP3   OH2 8738   1.564   3.839   3.543
 2925TIP3    H1 8739   1.498   3.771   3.554
 2925TIP3    H2 8740   1.622   3.806   3.475
 2926TIP3   OH2 8741   0.621   2.239   4.010
 2926TIP3    H1 8742   0.710   2.220   4.039
 2926TIP3    H2 8743   0.569   2.239   4.091
 2927TIP3   OH2 8744   3.641   3.851   4.827
 2927TIP3    H1 8745   3.703   3.790   4.867
 2927TIP3    H2 8746   3.618   3.911   4.898
 2928TIP3   OH2 8747   6.146   2.655   2.821
 2928TIP3    H1 8748   6.068   2.703   2.847
 2928TIP3    H2 8749   6.113   2.581   2.769
 2929TIP3   OH2 8750   4.434   6.528   4.747
 2929TIP3    H1 8751   4.364   6.472   4.714
 2929TIP3    H2 8752   4.416   6.535   4.841
 2930TIP3   OH2 8753   4.736   1.463   0.554
 2930TIP3    H1 8754   4.723   1.554   0.582
 2930TIP3    H2 8755   4.712   1.411   0.631
 2931TIP3   OH2 8756   1.991   2.302   4.179
 2931TIP3    H1 8757   1.926   2.354   4.228
 2931TIP3    H2 8758   2.075   2.336   4.208
 2932TIP3   OH2 8759   3.851   2.504   2.964
 2932TIP3    H1 8760   3.781   2.570   2.961
 2932TIP3    H2 8761   3.874   2.499   3.057
 2933TIP3   OH2 8762   6.258   1.407   5.477
 2933TIP3    H1 8763   6.220   1.320   5.483
 2933TIP3    H2 8764   6.202   1.462   5.532
 2934TIP3   OH2 8765   5.662   1.142   2.628
 2934TIP3    H1 8766   5.717   1.110   2.700
 2934TIP3    H2 8767   5.685   1.087   2.553
 2935TIP3   OH2 8768   0.241   0.107   0.479
 2935TIP3    H1 8769   0.234   0.200   0.500
 2935TIP3    H2 8770   0.230   0.062   0.563
 2936TIP3   OH2 8771   2.850   6.812   4.414
 2936TIP3    H1 8772   2.825   6.899   4.381
 2936TIP3    H2 8773   2.768   6.766   4.425
 2937TIP3   OH2 8774   7.090   0.496   3.595
 2937TIP3    H1 8775   7.105   0.439   3.671
 2937TIP3    H2 8776   7.037   0.568   3.629
 2938TIP3   OH2 8777   2.663   2.901   5.551
 2938TIP3    H1 8778   2.752   2.910   5.585
 2938TIP3    H2 8779   2.612   2.870   5.627
 2939TIP3   OH2 8780   2.522   4.103   3.176
 2939TIP3    H1 8781   2.480   4.036   3.230
 2939TIP3    H2 8782   2.463   4.178   3.181
 2940TIP3   OH2 8783   3.003   5.570   2.440
 2940TIP3    H1 8784   2.930   5.541   2.386
 2940TIP3    H2 8785   2.992   5.665   2.447
 2941TIP3   OH2 8786   4.816   2.791   2.764
 2941TIP3    H1 8787   4.887   2.828   2.816
 2941TIP3    H2 8788   4.855   2.718   2.717
 2942TIP3   OH2 8789   0.892   5.064   1.021
 2942TIP3    H1 8790   0.922   4.992   0.966
 2942TIP3    H2 8791   0.894   5.028   1.110
 2943TIP3   OH2 8792   7.079   5.777   3.529
 2943TIP3    H1 8793   7.003   5.747   3.580
 2943TIP3    H2 8794   7.062   5.745   3.440
 2944TIP3   OH2 8795   6.275   3.944   5.460
 2944TIP3    H1 8796   6.314   4.006   5.521
 2944TIP3    H2 8797   6.234   3.998   5.393
 2945TIP3   OH2 8798   5.838   6.381   2.893
 2945TIP3    H1 8799   5.818   6.326   2.817
 2945TIP3    H2 8800   5.767   6.446   2.894
 2946TIP3   OH2 8801   1.100   2.706   3.634
 2946TIP3    H1 8802   1.146   2.691   3.552
 2946TIP3    H2 8803   1.153   2.772   3.679
 2947TIP3   OH2 8804   2.916   3.657   4.917
 2947TIP3    H1 8805   2.868   3.637   4.837
 2947TIP3    H2 8806   2.849   3.670   4.984
 2948TIP3   OH2 8807   0.618   5.300   3.426
 2948TIP3    H1 8808   0.611   5.385   3.469
 2948TIP3    H2 8809   0.625   5.238   3.499
 2949TIP3   OH2 8810   5.312   5.733   3.504
 2949TIP3    H1 8811   5.371   5.658   3.498
 2949TIP3    H2 8812   5.369   5.809   3.490
 2950TIP3   OH2 8813   2.403   2.876   4.483
 2950TIP3    H1 8814   2.316   2.867   4.444
 2950TIP3    H2 8815   2.409   2.969   4.507
 2951TIP3   OH2 8816   3.965   5.628   4.612
 2951TIP3    H1 8817   3.898   5.610   4.679
 2951TIP3    H2 8818   3.918   5.622   4.529
 2952TIP3   OH2 8819   6.412   5.905   2.070
 2952TIP3    H1 8820   6.423   5.888   1.976
 2952TIP3    H2 8821   6.331   5.861   2.093
 2953TIP3   OH2 8822   5.193   2.924   5.875
 2953TIP3    H1 8823   5.258   2.856   5.891
 2953TIP3    H2 8824   5.227   3.001   5.920
 2954TIP3   OH2 8825   1.280   3.574   1.148
 2954TIP3    H1 8826   1.317   3.658   1.122
 2954TIP3    H2 8827   1.187   3.592   1.163
 2955TIP3   OH2 8828   5.707   3.961   4.806
 2955TIP3    H1 8829   5.781   3.901   4.794
 2955TIP3    H2 8830   5.724   4.032   4.744
 2956TIP3   OH2 8831   6.612   2.218   0.316
 2956TIP3    H1 8832   6.533   2.250   0.273
 2956TIP3    H2 8833   6.617   2.269   0.397
 2957TIP3   OH2 8834   3.241   3.499   1.480
 2957TIP3    H1 8835   3.286   3.534   1.404
 2957TIP3    H2 8836   3.311   3.471   1.539
 2958TIP3   OH2 8837   4.658   3.819   2.117
 2958TIP3    H1 8838   4.624   3.738   2.080
 2958TIP3    H2 8839   4.752   3.815   2.104
 2959TIP3   OH2 8840   4.802   0.890   5.399
 2959TIP3    H1 8841   4.710   0.903   5.423
 2959TIP3    H2 8842   4.837   0.834   5.468
 2960TIP3   OH2 8843   6.505   5.463   0.232
 2960TIP3    H1 8844   6.422   5.504   0.208
 2960TIP3    H2 8845   6.482   5.401   0.302
 2961TIP3   OH2 8846   5.225   1.958   0.439
 2961TIP3    H1 8847   5.228   1.930   0.348
 2961TIP3    H2 8848   5.290   2.027   0.446
 2962TIP3   OH2 8849   5.522   2.772   1.298
 2962TIP3    H1 8850   5.444   2.717   1.286
 2962TIP3    H2 8851   5.547   2.798   1.209
 2963TIP3   OH2 8852   4.636   0.627   4.833
 2963TIP3    H1 8853   4.588   0.616   4.751
 2963TIP3    H2 8854   4.597   0.704   4.874
 2964TIP3   OH2 8855   7.016   5.894   2.058
 2964TIP3    H1 8856   7.097   5.922   2.101
 2964TIP3    H2 8857   6.966   5.975   2.045
 2965TIP3   OH2 8858   4.063   2.331   4.728
 2965TIP3    H1 8859   4.024   2.325   4.641
 2965TIP3    H2 8860   4.012   2.399   4.772
 2966TIP3   OH2 8861   0.334   2.359   2.565
 2966TIP3    H1 8862   0.358   2.445   2.597
 2966TIP3    H2 8863   0.317   2.372   2.472
 2967TIP3   OH2 8864   2.157   5.997   5.126
 2967TIP3    H1 8865   2.127   5.934   5.191
 2967TIP3    H2 8866   2.191   5.944   5.054
 2968TIP3   OH2 8867   1.249   3.672   4.332
 2968TIP3    H1 8868   1.343   3.674   4.352
 2968TIP3    H2 8869   1.209   3.636   4.411
 2969TIP3   OH2 8870   4.453   2.312   2.252
 2969TIP3    H1 8871   4.395   2.256   2.201
 2969TIP3    H2 8872   4.439   2.399   2.217
 2970TIP3   OH2 8873   1.468   3.393   3.796
 2970TIP3    H1 8874   1.395   3.452   3.815
 2970TIP3    H2 8875   1.441   3.309   3.831
 2971TIP3   OH2 8876   0.433   5.069   1.051
 2971TIP3    H1 8877   0.399   5.004   1.112
 2971TIP3    H2 8878   0.488   5.019   0.991
 2972TIP3   OH2 8879   2.255   0.319   3.101
 2972TIP3    H1 8880   2.253   0.309   3.196
 2972TIP3    H2 8881   2.340   0.285   3.075
 2973TIP3   OH2 8882   3.008   5.440   0.415
 2973TIP3    H1 8883   3.048   5.354   0.426
 2973TIP3    H2 8884   2.983   5.442   0.323
 2974TIP3   OH2 8885   2.194   1.094   1.290
 2974TIP3    H1 8886   2.191   1.189   1.305
 2974TIP3    H2 8887   2.151   1.056   1.367
 2975TIP3   OH2 8888   6.008   0.275   0.256
 2975TIP3    H1 8889   5.974   0.330   0.186
 2975TIP3    H2 8890   6.060   0.335   0.310
 2976TIP3   OH2 8891   6.460   6.346   0.026
 2976TIP3    H1 8892   6.441   6.432  -0.012
 2976TIP3    H2 8893   6.522   6.306  -0.035
 2977TIP3   OH2 8894   2.079   2.457   5.541
 2977TIP3    H1 8895   2.156   2.486   5.493
 2977TIP3    H2 8896   2.039   2.391   5.485
 2978TIP3   OH2 8897   3.819   5.804   2.817
 2978TIP3    H1 8898   3.803   5.850   2.900
 2978TIP3    H2 8899   3.813   5.872   2.750
 2979TIP3   OH2 8900   5.359   6.718   0.847
 2979TIP3    H1 8901   5.398   6.802   0.867
 2979TIP3    H2 8902   5.364   6.668   0.929
 2980TIP3   OH2 8903   5.740   3.741   2.811
 2980TIP3    H1 8904   5.830   3.719   2.787
 2980TIP3    H2 8905   5.741   3.836   2.821
 2981TIP3   OH2 8906   6.025   3.400   5.003
 2981TIP3    H1 8907   5.949   3.457   4.987
 2981TIP3    H2 8908   6.050   3.419   5.094
 2982TIP3   OH2 8909   5.058   6.238   2.370
 2982TIP3    H1 8910   5.083   6.311   2.313
 2982TIP3    H2 8911   5.061   6.275   2.459
 2983TIP3   OH2 8912   6.989   3.373   3.113
 2983TIP3    H1 8913   6.937   3.442   3.073
 2983TIP3    H2 8914   7.065   3.418   3.150
 2984TIP3   OH2 8915   6.455   6.426   5.273
 2984TIP3    H1 8916   6.383   6.463   5.222
 2984TIP3    H2 8917   6.432   6.446   5.364
 2985TIP3   OH2 8918   7.172   4.375   1.108
 2985TIP3    H1 8919   7.112   4.402   1.039
 2985TIP3    H2 8920   7.218   4.299   1.072
 2986TIP3   OH2 8921   6.146   5.879   0.618
 2986TIP3    H1 8922   6.055   5.871   0.592
 2986TIP3    H2 8923   6.189   5.801   0.582
 2987TIP3   OH2 8924   1.287   4.978   2.027
 2987TIP3    H1 8925   1.307   5.020   1.943
 2987TIP3    H2 8926   1.323   5.038   2.093
 2988TIP3   OH2 8927   6.631   2.301   5.493
 2988TIP3    H1 8928   6.547   2.345   5.504
 2988TIP3    H2 8929   6.676   2.314   5.576
 2989TIP3   OH2 8930   2.391   3.891   3.358
 2989TIP3    H1 8931   2.418   3.806   3.323
 2989TIP3    H2 8932   2.310   3.911   3.312
 2990TIP3   OH2 8933   4.182   6.296   1.831
 2990TIP3    H1 8934   4.114   6.315   1.895
 2990TIP3    H2 8935   4.256   6.264   1.884
 2991TIP3   OH2 8936   6.400   1.121   2.289
 2991TIP3    H1 8937   6.430   1.075   2.211
 2991TIP3    H2 8938   6.388   1.052   2.354
 2992TIP3   OH2 8939   7.038   4.380   5.076
 2992TIP3    H1 8940   6.988   4.331   5.141
 2992TIP3    H2 8941   7.008   4.470   5.085
 2993TIP3   OH2 8942   5.330   1.750   3.106
 2993TIP3    H1 8943   5.342   1.683   3.174
 2993TIP3    H2 8944   5.409   1.744   3.052
 2994TIP3   OH2 8945   2.505   5.338   4.210
 2994TIP3    H1 8946   2.480   5.285   4.135
 2994TIP3    H2 8947   2.435   5.325   4.274
 2995TIP3   OH2 8948   2.987   2.474   4.945
 2995TIP3    H1 8949   3.050   2.496   4.876
 2995TIP3    H2 8950   2.920   2.423   4.901
 2996TIP3   OH2 8951   2.710   0.579   3.079
 2996TIP3    H1 8952   2.742   0.540   3.160
 2996TIP3    H2 8953   2.788   0.587   3.024
 2997TIP3   OH2 8954   2.063   4.280   4.877
 2997TIP3    H1 8955   2.121   4.235   4.816
 2997TIP3    H2 8956   2.095   4.255   4.964
 2998TIP3   OH2 8957   1.540   2.129   3.712
 2998TIP3    H1 8958   1.507   2.086   3.791
 2998TIP3    H2 8959   1.462   2.152   3.662
 2999TIP3   OH2 8960   1.439   0.824   1.215
 2999TIP3    H1 8961   1.447   0.905   1.266
 2999TIP3    H2 8962   1.504   0.765   1.254
 3000TIP3   OH2 8963   3.374   4.102   0.656
 3000TIP3    H1 8964   3.356   4.069   0.568
 3000TIP3    H2 8965   3.469   4.106   0.662
 3001TIP3   OH2 8966   4.987   5.198   1.044
 3001TIP3    H1 8967   4.907   5.234   1.006
 3001TIP3    H2 8968   5.057   5.251   1.005
 3002TIP3   OH2 8969   2.564   3.361   2.659
 3002TIP3    H1 8970   2.595   3.369   2.569
 3002TIP3    H2 8971   2.582   3.270   2.683
 3003TIP3   OH2 8972   1.755   3.757   3.367
 3003TIP3    H1 8973   1.746   3.790   3.278
 3003TIP3    H2 8974   1.770   3.663   3.356
 3004TIP3   OH2 8975   7.086   5.766   5.459
 3004TIP3    H1 8976   7.087   5.690   5.400
 3004TIP3    H2 8977   7.140   5.831   5.416
 3005TIP3   OH2 8978   5.640   3.186   3.689
 3005TIP3    H1 8979   5.639   3.118   3.756
 3005TIP3    H2 8980   5.615   3.141   3.608
 3006TIP3   OH2 8981   0.764   4.341   2.951
 3006TIP3    H1 8982   0.669   4.348   2.941
 3006TIP3    H2 8983   0.776   4.269   3.013
 3007TIP3   OH2 8984   7.158   0.340   1.587
 3007TIP3    H1 8985   7.161   0.257   1.633
 3007TIP3    H2 8986   7.127   0.403   1.652
 3008TIP3   OH2 8987   6.933   1.506   2.669
 3008TIP3    H1 8988   6.964   1.578   2.723
 3008TIP3    H2 8989   7.010   1.478   2.620
 3009TIP3   OH2 8990   5.523   4.798   2.051
 3009TIP3    H1 8991   5.618   4.794   2.049
 3009TIP3    H2 8992   5.503   4.865   2.116
 3010TIP3   OH2 8993   5.838   2.969   1.099
 3010TIP3    H1 8994   5.767   2.996   1.041
 3010TIP3    H2 8995   5.892   2.911   1.046
 3011TIP3   OH2 8996   3.363   5.161   3.655
 3011TIP3    H1 8997   3.310   5.178   3.732
 3011TIP3    H2 8998   3.304   5.176   3.581
 3012TIP3   OH2 8999   5.542   4.182   0.414
 3012TIP3    H1 9000   5.609   4.233   0.460
 3012TIP3    H2 9001   5.494   4.136   0.483
 3013TIP3   OH2 9002   3.546   5.766   5.114
 3013TIP3    H1 9003   3.485   5.836   5.140
 3013TIP3    H2 9004   3.491   5.688   5.107
 3014TIP3   OH2 9005   5.956   2.795   2.299
 3014TIP3    H1 9006   6.008   2.716   2.282
 3014TIP3    H2 9007   5.875   2.763   2.337
 3015TIP3   OH2 9008   0.393   5.813   4.878
 3015TIP3    H1 9009   0.447   5.892   4.870
 3015TIP3    H2 9010   0.456   5.740   4.870
 3016TIP3   OH2 9011   1.450   1.034   0.991
 3016TIP3    H1 9012   1.470   0.964   1.053
 3016TIP3    H2 9013   1.396   1.095   1.042
 3017TIP3   OH2 9014   5.947   4.294   3.564
 3017TIP3    H1 9015   5.990   4.280   3.648
 3017TIP3    H2 9016   5.971   4.384   3.540
 3018TIP3   OH2 9017   4.278   3.418   4.944
 3018TIP3    H1 9018   4.230   3.422   4.861
 3018TIP3    H2 9019   4.365   3.452   4.922
 3019TIP3   OH2 9020   6.564   5.556   4.328
 3019TIP3    H1 9021   6.532   5.559   4.238
 3019TIP3    H2 9022   6.489   5.528   4.379
 3020TIP3   OH2 9023   4.990   4.163   3.586
 3020TIP3    H1 9024   5.047   4.125   3.520
 3020TIP3    H2 9025   5.018   4.255   3.592
 3021TIP3   OH2 9026   2.704   4.201   4.376
 3021TIP3    H1 9027   2.744   4.259   4.311
 3021TIP3    H2 9028   2.618   4.180   4.339
 3022TIP3   OH2 9029   3.330   3.872   4.247
 3022TIP3    H1 9030   3.379   3.805   4.199
 3022TIP3    H2 9031   3.253   3.889   4.193
 3023TIP3   OH2 9032   0.582   5.374   2.574
 3023TIP3    H1 9033   0.657   5.432   2.583
 3023TIP3    H2 9034   0.522   5.421   2.516
 3024TIP3   OH2 9035   2.828   6.143   1.331
 3024TIP3    H1 9036   2.847   6.153   1.238
 3024TIP3    H2 9037   2.914   6.140   1.373
 3025TIP3   OH2 9038   5.809   1.620   3.287
 3025TIP3    H1 9039   5.810   1.537   3.335
 3025TIP3    H2 9040   5.748   1.675   3.336
 3026TIP3   OH2 9041   3.998   0.473   4.989
 3026TIP3    H1 9042   3.992   0.386   4.949
 3026TIP3    H2 9043   3.997   0.534   4.915
 3027TIP3   OH2 9044   2.465   1.800   2.638
 3027TIP3    H1 9045   2.407   1.840   2.574
 3027TIP3    H2 9046   2.409   1.777   2.711
 3028TIP3   OH2 9047   5.267   2.683   2.516
 3028TIP3    H1 9048   5.267   2.741   2.441
 3028TIP3    H2 9049   5.320   2.608   2.488
 3029TIP3   OH2 9050   4.182   3.924   2.611
 3029TIP3    H1 9051   4.241   3.894   2.680
 3029TIP3    H2 9052   4.142   3.845   2.576
 3030TIP3   OH2 9053   1.924   3.888   4.921
 3030TIP3    H1 9054   1.953   3.803   4.954
 3030TIP3    H2 9055   2.005   3.930   4.891
 3031TIP3   OH2 9056   5.731   2.125   2.242
 3031TIP3    H1 9057   5.777   2.134   2.325
 3031TIP3    H2 9058   5.647   2.085   2.266
 3032TIP3   OH2 9059   6.670   3.100   2.581
 3032TIP3    H1 9060   6.601   3.085   2.645
 3032TIP3    H2 9061   6.655   3.033   2.514
 3033TIP3   OH2 9062   2.644   6.835   3.691
 3033TIP3    H1 9063   2.577   6.776   3.725
 3033TIP3    H2 9064   2.725   6.784   3.694
 3034TIP3   OH2 9065   4.853   0.065   5.772
 3034TIP3    H1 9066   4.864   0.024   5.686
 3034TIP3    H2 9067   4.930   0.037   5.822
 3035TIP3   OH2 9068   4.975   1.444   5.448
 3035TIP3    H1 9069   5.007   1.355   5.467
 3035TIP3    H2 9070   4.880   1.436   5.455
 3036TIP3   OH2 9071   5.838   0.057   3.925
 3036TIP3    H1 9072   5.793   0.019   3.849
 3036TIP3    H2 9073   5.874   0.140   3.892
 3037TIP3   OH2 9074   3.813   5.259   4.945
 3037TIP3    H1 9075   3.809   5.189   5.010
 3037TIP3    H2 9076   3.725   5.262   4.908
 3038TIP3   OH2 9077   6.058   2.191   4.412
 3038TIP3    H1 9078   6.146   2.226   4.398
 3038TIP3    H2 9079   6.056   2.171   4.506
 3039TIP3   OH2 9080   4.005   6.367   2.684
 3039TIP3    H1 9081   3.980   6.452   2.650
 3039TIP3    H2 9082   4.097   6.357   2.660
 3040TIP3   OH2 9083   1.799   4.467   3.337
 3040TIP3    H1 9084   1.724   4.494   3.390
 3040TIP3    H2 9085   1.876   4.495   3.387
 3041TIP3   OH2 9086   6.688   4.404   3.703
 3041TIP3    H1 9087   6.675   4.487   3.658
 3041TIP3    H2 9088   6.682   4.338   3.635
 3042TIP3   OH2 9089   5.403   1.725   2.289
 3042TIP3    H1 9090   5.318   1.739   2.247
 3042TIP3    H2 9091   5.414   1.800   2.347
 3043TIP3   OH2 9092   5.948   4.891   0.530
 3043TIP3    H1 9093   5.873   4.832   0.539
 3043TIP3    H2 9094   5.958   4.931   0.617
 3044TIP3   OH2 9095   6.892   3.392   3.695
 3044TIP3    H1 9096   6.834   3.326   3.734
 3044TIP3    H2 9097   6.949   3.419   3.767
 3045TIP3   OH2 9098   1.780   0.925   2.642
 3045TIP3    H1 9099   1.815   0.918   2.553
 3045TIP3    H2 9100   1.858   0.929   2.698
 3046TIP3   OH2 9101   5.980   4.536   2.152
 3046TIP3    H1 9102   5.936   4.454   2.176
 3046TIP3    H2 9103   5.987   4.584   2.235
 3047TIP3   OH2 9104   5.976   0.048   5.837
 3047TIP3    H1 9105   5.984  -0.033   5.787
 3047TIP3    H2 9106   5.932   0.109   5.778
 3048TIP3   OH2 9107   3.443   4.434   2.678
 3048TIP3    H1 9108   3.418   4.473   2.762
 3048TIP3    H2 9109   3.450   4.341   2.695
 3049TIP3   OH2 9110   2.038   6.530   0.334
 3049TIP3    H1 9111   2.020   6.454   0.389
 3049TIP3    H2 9112   2.111   6.504   0.278
 3050TIP3   OH2 9113   0.776   3.879   2.158
 3050TIP3    H1 9114   0.848   3.819   2.176
 3050TIP3    H2 9115   0.801   3.960   2.203
 3051TIP3   OH2 9116   1.920   3.556   2.293
 3051TIP3    H1 9117   1.972   3.478   2.275
 3051TIP3    H2 9118   1.847   3.524   2.347
 3052TIP3   OH2 9119   5.115   4.180   1.329
 3052TIP3    H1 9120   5.182   4.166   1.395
 3052TIP3    H2 9121   5.047   4.115   1.348
 3053TIP3   OH2 9122   5.657   4.735   1.551
 3053TIP3    H1 9123   5.738   4.718   1.502
 3053TIP3    H2 9124   5.680   4.806   1.610
 3054TIP3   OH2 9125   6.426   5.577   2.707
 3054TIP3    H1 9126   6.363   5.614   2.646
 3054TIP3    H2 9127   6.447   5.491   2.671
 3055TIP3   OH2 9128   5.576   5.516   2.810
 3055TIP3    H1 9129   5.614   5.594   2.850
 3055TIP3    H2 9130   5.548   5.545   2.723
 3056TIP3   OH2 9131   3.361   3.645   2.257
 3056TIP3    H1 9132   3.373   3.740   2.269
 3056TIP3    H2 9133   3.383   3.608   2.343
 3057TIP3   OH2 9134   6.511   1.622   3.478
 3057TIP3    H1 9135   6.486   1.681   3.549
 3057TIP3    H2 9136   6.473   1.661   3.399
 3058TIP3   OH2 9137   1.595   3.818   5.460
 3058TIP3    H1 9138   1.688   3.814   5.439
 3058TIP3    H2 9139   1.561   3.890   5.407
 3059TIP3   OH2 9140   6.996   2.305   4.191
 3059TIP3    H1 9141   6.931   2.338   4.128
 3059TIP3    H2 9142   7.037   2.231   4.146
 3060TIP3   OH2 9143   0.776   6.391   3.555
 3060TIP3    H1 9144   0.705   6.357   3.501
 3060TIP3    H2 9145   0.755   6.362   3.644
 3061TIP3   OH2 9146   3.922   2.507   5.383
 3061TIP3    H1 9147   3.877   2.455   5.450
 3061TIP3    H2 9148   4.013   2.480   5.388
 3062TIP3   OH2 9149   3.290   2.350   1.693
 3062TIP3    H1 9150   3.276   2.445   1.682
 3062TIP3    H2 9151   3.203   2.316   1.715
 3063TIP3   OH2 9152   4.421   0.367   2.299
 3063TIP3    H1 9153   4.328   0.358   2.322
 3063TIP3    H2 9154   4.446   0.281   2.266
 3064TIP3   OH2 9155   6.353   4.911   3.428
 3064TIP3    H1 9156   6.389   4.988   3.382
 3064TIP3    H2 9157   6.428   4.853   3.440
 3065TIP3   OH2 9158   0.706   4.652   3.538
 3065TIP3    H1 9159   0.670   4.644   3.626
 3065TIP3    H2 9160   0.676   4.738   3.507
 3066TIP3   OH2 9161   0.455   5.852   3.893
 3066TIP3    H1 9162   0.410   5.935   3.875
 3066TIP3    H2 9163   0.548   5.876   3.897
 3067TIP3   OH2 9164   1.585   3.644   3.824
 3067TIP3    H1 9165   1.668   3.627   3.869
 3067TIP3    H2 9166   1.554   3.557   3.798
 3068TIP3   OH2 9167   4.165   6.281   0.503
 3068TIP3    H1 9168   4.224   6.250   0.572
 3068TIP3    H2 9169   4.122   6.357   0.542
 3069TIP3   OH2 9170   0.955   4.836   2.016
 3069TIP3    H1 9171   0.879   4.782   2.040
 3069TIP3    H2 9172   1.031   4.780   2.035
 3070TIP3   OH2 9173   1.866   6.190   0.789
 3070TIP3    H1 9174   1.820   6.164   0.709
 3070TIP3    H2 9175   1.797   6.195   0.855
 3071TIP3   OH2 9176   6.695   4.045   2.757
 3071TIP3    H1 9177   6.631   4.115   2.771
 3071TIP3    H2 9178   6.642   3.965   2.755
 3072TIP3   OH2 9179   0.254   1.847   4.421
 3072TIP3    H1 9180   0.257   1.878   4.511
 3072TIP3    H2 9181   0.282   1.755   4.426
 3073TIP3   OH2 9182   7.161   2.669   3.203
 3073TIP3    H1 9183   7.195   2.636   3.120
 3073TIP3    H2 9184   7.097   2.736   3.179
 3074TIP3   OH2 9185   5.395   0.675   5.073
 3074TIP3    H1 9186   5.422   0.762   5.045
 3074TIP3    H2 9187   5.404   0.676   5.168
 3075TIP3   OH2 9188   3.813   3.588   3.580
 3075TIP3    H1 9189   3.903   3.558   3.571
 3075TIP3    H2 9190   3.818   3.664   3.638
 3076TIP3   OH2 9191   0.798   5.415   1.322
 3076TIP3    H1 9192   0.738   5.389   1.252
 3076TIP3    H2 9193   0.805   5.337   1.377
 3077TIP3   OH2 9194   5.737   0.944   3.398
 3077TIP3    H1 9195   5.822   0.932   3.440
 3077TIP3    H2 9196   5.702   1.024   3.438
 3078TIP3   OH2 9197   7.068   0.490   3.924
 3078TIP3    H1 9198   7.150   0.505   3.973
 3078TIP3    H2 9199   7.041   0.402   3.948
 3079TIP3   OH2 9200   0.176   2.552   4.159
 3079TIP3    H1 9201   0.091   2.573   4.120
 3079TIP3    H2 9202   0.158   2.475   4.213
 3080TIP3   OH2 9203   5.520   1.252   1.216
 3080TIP3    H1 9204   5.587   1.264   1.150
 3080TIP3    H2 9205   5.461   1.326   1.204
 3081TIP3   OH2 9206   2.206   0.192   0.477
 3081TIP3    H1 9207   2.267   0.247   0.429
 3081TIP3    H2 9208   2.200   0.112   0.425
 3082TIP3   OH2 9209   2.213   5.023   1.364
 3082TIP3    H1 9210   2.248   4.963   1.299
 3082TIP3    H2 9211   2.258   5.106   1.348
 3083TIP3   OH2 9212   2.850   5.429   3.905
 3083TIP3    H1 9213   2.924   5.477   3.866
 3083TIP3    H2 9214   2.777   5.490   3.900
 3084TIP3   OH2 9215   1.178   1.430   3.692
 3084TIP3    H1 9216   1.133   1.449   3.775
 3084TIP3    H2 9217   1.247   1.367   3.716
 3085TIP3   OH2 9218   6.735   1.543   2.426
 3085TIP3    H1 9219   6.681   1.612   2.386
 3085TIP3    H2 9220   6.798   1.519   2.359
 3086TIP3   OH2 9221   3.332   6.388   0.629
 3086TIP3    H1 9222   3.397   6.375   0.698
 3086TIP3    H2 9223   3.274   6.456   0.663
 3087TIP3   OH2 9224   4.703   0.062   4.609
 3087TIP3    H1 9225   4.621   0.086   4.653
 3087TIP3    H2 9226   4.686   0.077   4.516
 3088TIP3   OH2 9227   0.411   1.638   4.924
 3088TIP3    H1 9228   0.371   1.562   4.966
 3088TIP3    H2 9229   0.505   1.622   4.928
 3089TIP3   OH2 9230   4.924   4.223   0.099
 3089TIP3    H1 9231   4.962   4.286   0.161
 3089TIP3    H2 9232   4.956   4.251   0.013
 3090TIP3   OH2 9233   5.576   6.092   1.332
 3090TIP3    H1 9234   5.531   6.008   1.334
 3090TIP3    H2 9235   5.506   6.157   1.321
 3091TIP3   OH2 9236   4.505   1.487   1.971
 3091TIP3    H1 9237   4.423   1.530   1.997
 3091TIP3    H2 9238   4.540   1.451   2.053
 3092TIP3   OH2 9239   3.573   5.116   4.089
 3092TIP3    H1 9240   3.626   5.187   4.053
 3092TIP3    H2 9241   3.483   5.148   4.084
 3093TIP3   OH2 9242   6.767   5.540   1.746
 3093TIP3    H1 9243   6.837   5.476   1.731
 3093TIP3    H2 9244   6.797   5.619   1.700
 3094TIP3   OH2 9245   0.092   0.291   5.399
 3094TIP3    H1 9246   0.024   0.258   5.458
 3094TIP3    H2 9247   0.080   0.243   5.318
 3095TIP3   OH2 9248   1.598   5.560   1.231
 3095TIP3    H1 9249   1.638   5.561   1.144
 3095TIP3    H2 9250   1.671   5.540   1.290
 3096TIP3   OH2 9251   3.632   6.384   2.083
 3096TIP3    H1 9252   3.673   6.437   2.014
 3096TIP3    H2 9253   3.624   6.297   2.045
 3097TIP3   OH2 9254   1.996   0.150   0.004
 3097TIP3    H1 9255   2.066   0.216   0.005
 3097TIP3    H2 9256   2.020   0.088   0.072
 3098TIP3   OH2 9257   2.960   5.430   2.669
 3098TIP3    H1 9258   2.896   5.361   2.651
 3098TIP3    H2 9259   2.955   5.489   2.594
 3099TIP3   OH2 9260   2.887   0.161   3.512
 3099TIP3    H1 9261   2.813   0.100   3.514
 3099TIP3    H2 9262   2.862   0.231   3.573
 3100TIP3   OH2 9263   6.604   3.379   4.541
 3100TIP3    H1 9264   6.692   3.349   4.521
 3100TIP3    H2 9265   6.581   3.436   4.467
 3101TIP3   OH2 9266   4.476   6.206   5.754
 3101TIP3    H1 9267   4.447   6.161   5.674
 3101TIP3    H2 9268   4.427   6.163   5.824
 3102TIP3   OH2 9269   2.962   1.581   1.731
 3102TIP3    H1 9270   2.893   1.612   1.673
 3102TIP3    H2 9271   3.015   1.659   1.748
 3103TIP3   OH2 9272   1.579   1.876   3.478
 3103TIP3    H1 9273   1.498   1.914   3.512
 3103TIP3    H2 9274   1.647   1.909   3.537
 3104TIP3   OH2 9275   2.847   6.112   4.638
 3104TIP3    H1 9276   2.777   6.126   4.702
 3104TIP3    H2 9277   2.926   6.145   4.680
 3105TIP3   OH2 9278   0.202   5.752   3.923
 3105TIP3    H1 9279   0.187   5.749   3.828
 3105TIP3    H2 9280   0.294   5.777   3.932
 3106TIP3   OH2 9281   1.702   1.178   4.394
 3106TIP3    H1 9282   1.775   1.162   4.335
 3106TIP3    H2 9283   1.729   1.137   4.477
 3107TIP3   OH2 9284   5.425   2.769   4.535
 3107TIP3    H1 9285   5.460   2.757   4.446
 3107TIP3    H2 9286   5.330   2.774   4.522
 3108TIP3   OH2 9287   5.768   5.221   2.244
 3108TIP3    H1 9288   5.687   5.256   2.281
 3108TIP3    H2 9289   5.834   5.288   2.264
 3109TIP3   OH2 9290   2.615   4.376   5.559
 3109TIP3    H1 9291   2.700   4.410   5.533
 3109TIP3    H2 9292   2.571   4.451   5.601
 3110TIP3   OH2 9293   3.077   4.271   4.647
 3110TIP3    H1 9294   3.170   4.251   4.634
 3110TIP3    H2 9295   3.055   4.330   4.575
 3111TIP3   OH2 9296   6.735   5.564   5.544
 3111TIP3    H1 9297   6.772   5.612   5.618
 3111TIP3    H2 9298   6.660   5.518   5.581
 3112TIP3   OH2 9299   6.687   3.834   1.325
 3112TIP3    H1 9300   6.626   3.825   1.252
 3112TIP3    H2 9301   6.642   3.794   1.399
 3113TIP3   OH2 9302   6.317   5.670   0.532
 3113TIP3    H1 9303   6.403   5.703   0.506
 3113TIP3    H2 9304   6.303   5.593   0.476
 3114TIP3   OH2 9305   1.159   5.000   3.482
 3114TIP3    H1 9306   1.078   5.052   3.479
 3114TIP3    H2 9307   1.155   4.956   3.567
 3115TIP3   OH2 9308   7.101   0.822   4.133
 3115TIP3    H1 9309   7.192   0.826   4.162
 3115TIP3    H2 9310   7.076   0.914   4.118
 3116TIP3   OH2 9311   2.299   6.241   0.406
 3116TIP3    H1 9312   2.213   6.237   0.363
 3116TIP3    H2 9313   2.354   6.181   0.355
 3117TIP3   OH2 9314   5.517   5.441   5.925
 3117TIP3    H1 9315   5.473   5.521   5.898
 3117TIP3    H2 9316   5.447   5.382   5.953
 3118TIP3   OH2 9317   1.299   5.796   3.913
 3118TIP3    H1 9318   1.262   5.708   3.924
 3118TIP3    H2 9319   1.385   5.782   3.873
 3119TIP3   OH2 9320   5.320   3.105   2.590
 3119TIP3    H1 9321   5.236   3.107   2.638
 3119TIP3    H2 9322   5.371   3.037   2.634
 3120TIP3   OH2 9323   4.354   5.677   2.739
 3120TIP3    H1 9324   4.335   5.600   2.792
 3120TIP3    H2 9325   4.282   5.738   2.757
 3121TIP3   OH2 9326   2.345   2.481   5.429
 3121TIP3    H1 9327   2.417   2.519   5.479
 3121TIP3    H2 9328   2.342   2.532   5.348
 3122TIP3   OH2 9329   3.099   2.907   1.383
 3122TIP3    H1 9330   3.076   2.832   1.328
 3122TIP3    H2 9331   3.034   2.974   1.362
 3123TIP3   OH2 9332   3.876   2.933   2.509
 3123TIP3    H1 9333   3.818   2.857   2.520
 3123TIP3    H2 9334   3.849   2.994   2.577
 3124TIP3   OH2 9335   0.990   1.496   2.739
 3124TIP3    H1 9336   0.967   1.579   2.697
 3124TIP3    H2 9337   0.964   1.429   2.675
 3125TIP3   OH2 9338   3.946   6.089   5.641
 3125TIP3    H1 9339   3.968   6.010   5.691
 3125TIP3    H2 9340   3.863   6.067   5.598
 3126TIP3   OH2 9341   0.511   1.935   4.450
 3126TIP3    H1 9342   0.504   2.029   4.465
 3126TIP3    H2 9343   0.427   1.910   4.413
 3127TIP3   OH2 9344   3.096   4.249   1.998
 3127TIP3    H1 9345   3.114   4.183   1.932
 3127TIP3    H2 9346   3.011   4.286   1.972
 3128TIP3   OH2 9347   6.519   6.498   4.736
 3128TIP3    H1 9348   6.454   6.454   4.790
 3128TIP3    H2 9349   6.593   6.437   4.732
 3129TIP3   OH2 9350   2.424   0.224   5.850
 3129TIP3    H1 9351   2.424   0.136   5.812
 3129TIP3    H2 9352   2.483   0.217   5.925
 3130TIP3   OH2 9353   6.882   1.398   4.168
 3130TIP3    H1 9354   6.828   1.330   4.127
 3130TIP3    H2 9355   6.969   1.358   4.176
 3131TIP3   OH2 9356   0.622   4.171   2.147
 3131TIP3    H1 9357   0.575   4.254   2.151
 3131TIP3    H2 9358   0.689   4.184   2.080
 3132TIP3   OH2 9359   4.450   5.224   1.256
 3132TIP3    H1 9360   4.457   5.135   1.222
 3132TIP3    H2 9361   4.533   5.241   1.298
 3133TIP3   OH2 9362   4.518   6.471   5.533
 3133TIP3    H1 9363   4.468   6.520   5.468
 3133TIP3    H2 9364   4.540   6.389   5.490
 3134TIP3   OH2 9365   3.751   6.438   4.089
 3134TIP3    H1 9366   3.815   6.489   4.039
 3134TIP3    H2 9367   3.667   6.473   4.062
 3135TIP3   OH2 9368   1.856   2.482   1.543
 3135TIP3    H1 9369   1.811   2.404   1.576
 3135TIP3    H2 9370   1.796   2.554   1.561
 3136TIP3   OH2 9371   3.874   2.512   5.106
 3136TIP3    H1 9372   3.886   2.426   5.065
 3136TIP3    H2 9373   3.876   2.493   5.200
 3137TIP3   OH2 9374   4.793   0.899   4.886
 3137TIP3    H1 9375   4.819   0.874   4.975
 3137TIP3    H2 9376   4.764   0.816   4.847
 3138TIP3   OH2 9377   4.468   2.871   2.335
 3138TIP3    H1 9378   4.469   2.925   2.414
 3138TIP3    H2 9379   4.477   2.781   2.367
 3139TIP3   OH2 9380   4.355   5.987   0.794
 3139TIP3    H1 9381   4.369   5.893   0.782
 3139TIP3    H2 9382   4.380   6.004   0.885
 3140TIP3   OH2 9383   2.723   2.462   0.818
 3140TIP3    H1 9384   2.645   2.411   0.841
 3140TIP3    H2 9385   2.691   2.529   0.757
 3141TIP3   OH2 9386   0.277   2.694   3.332
 3141TIP3    H1 9387   0.243   2.611   3.299
 3141TIP3    H2 9388   0.235   2.761   3.278
 3142TIP3   OH2 9389   2.476   4.078   4.752
 3142TIP3    H1 9390   2.395   4.119   4.722
 3142TIP3    H2 9391   2.481   4.098   4.845
 3143TIP3   OH2 9392   0.072   0.468   2.483
 3143TIP3    H1 9393   0.008   0.409   2.444
 3143TIP3    H2 9394   0.038   0.487   2.571
 3144TIP3   OH2 9395   1.426   0.826   4.694
 3144TIP3    H1 9396   1.346   0.817   4.642
 3144TIP3    H2 9397   1.496   0.798   4.634
 3145TIP3   OH2 9398   3.359   5.467   2.761
 3145TIP3    H1 9399   3.358   5.560   2.736
 3145TIP3    H2 9400   3.401   5.423   2.687
 3146TIP3   OH2 9401   1.120   5.817   3.172
 3146TIP3    H1 9402   1.121   5.737   3.120
 3146TIP3    H2 9403   1.186   5.873   3.131
 3147TIP3   OH2 9404   4.311   1.219   4.765
 3147TIP3    H1 9405   4.236   1.267   4.799
 3147TIP3    H2 9406   4.307   1.232   4.670
 3148TIP3   OH2 9407   2.548   3.833   3.860
 3148TIP3    H1 9408   2.531   3.841   3.766
 3148TIP3    H2 9409   2.511   3.747   3.884
 3149TIP3   OH2 9410   2.636   4.249   1.967
 3149TIP3    H1 9411   2.590   4.310   2.025
 3149TIP3    H2 9412   2.567   4.196   1.928
 3150TIP3   OH2 9413   4.718   2.015   2.754
 3150TIP3    H1 9414   4.813   2.024   2.755
 3150TIP3    H2 9415   4.699   1.946   2.818
 3151TIP3   OH2 9416   1.657   1.384   0.345
 3151TIP3    H1 9417   1.706   1.421   0.272
 3151TIP3    H2 9418   1.622   1.302   0.311
 3152TIP3   OH2 9419   6.419   3.910   4.722
 3152TIP3    H1 9420   6.383   3.833   4.679
 3152TIP3    H2 9421   6.356   3.980   4.702
 3153TIP3   OH2 9422   2.914   0.612   2.898
 3153TIP3    H1 9423   2.986   0.579   2.845
 3153TIP3    H2 9424   2.848   0.639   2.835
 3154TIP3   OH2 9425   2.383   2.280   2.626
 3154TIP3    H1 9426   2.470   2.281   2.666
 3154TIP3    H2 9427   2.397   2.242   2.539
 3155TIP3   OH2 9428   0.768   2.051   0.363
 3155TIP3    H1 9429   0.746   2.026   0.273
 3155TIP3    H2 9430   0.830   1.984   0.392
 3156TIP3   OH2 9431   7.170   5.373   4.711
 3156TIP3    H1 9432   7.169   5.403   4.620
 3156TIP3    H2 9433   7.263   5.361   4.731
 3157TIP3   OH2 9434   1.465   1.720   0.074
 3157TIP3    H1 9435   1.548   1.756   0.106
 3157TIP3    H2 9436   1.448   1.645   0.131
 3158TIP3   OH2 9437   5.624   1.917   2.650
 3158TIP3    H1 9438   5.708   1.890   2.687
 3158TIP3    H2 9439   5.559   1.867   2.699
 3159TIP3   OH2 9440   2.366   5.903   2.439
 3159TIP3    H1 9441   2.448   5.946   2.414
 3159TIP3    H2 9442   2.298   5.957   2.399
 3160TIP3   OH2 9443   5.979   0.873   3.561
 3160TIP3    H1 9444   6.033   0.807   3.518
 3160TIP3    H2 9445   6.042   0.927   3.609
 3161TIP3   OH2 9446   4.562   4.638   0.516
 3161TIP3    H1 9447   4.585   4.574   0.583
 3161TIP3    H2 9448   4.645   4.677   0.490
 3162TIP3   OH2 9449   4.437   1.206   5.203
 3162TIP3    H1 9450   4.432   1.302   5.200
 3162TIP3    H2 9451   4.530   1.186   5.194
 3163TIP3   OH2 9452   2.185   2.444   3.421
 3163TIP3    H1 9453   2.146   2.481   3.500
 3163TIP3    H2 9454   2.112   2.439   3.359
 3164TIP3   OH2 9455   2.096   1.620   3.503
 3164TIP3    H1 9456   2.076   1.536   3.544
 3164TIP3    H2 9457   2.173   1.652   3.550
 3165TIP3   OH2 9458   0.967   3.066   4.356
 3165TIP3    H1 9459   1.022   2.992   4.381
 3165TIP3    H2 9460   1.018   3.111   4.289
 3166TIP3   OH2 9461   0.330   6.803   2.718
 3166TIP3    H1 9462   0.403   6.745   2.699
 3166TIP3    H2 9463   0.255   6.745   2.731
 3167TIP3   OH2 9464   2.577   3.868   0.812
 3167TIP3    H1 9465   2.612   3.908   0.733
 3167TIP3    H2 9466   2.651   3.821   0.850
 3168TIP3   OH2 9467   6.102   1.549   1.256
 3168TIP3    H1 9468   6.013   1.582   1.258
 3168TIP3    H2 9469   6.107   1.488   1.330
 3169TIP3   OH2 9470   6.169   6.347   5.536
 3169TIP3    H1 9471   6.189   6.428   5.583
 3169TIP3    H2 9472   6.110   6.299   5.594
 3170TIP3   OH2 9473   6.832   4.936   0.820
 3170TIP3    H1 9474   6.795   4.951   0.907
 3170TIP3    H2 9475   6.871   4.849   0.825
 3171TIP3   OH2 9476   5.752   1.635   0.485
 3171TIP3    H1 9477   5.789   1.713   0.525
 3171TIP3    H2 9478   5.777   1.564   0.544
 3172TIP3   OH2 9479   4.517   4.942   3.223
 3172TIP3    H1 9480   4.461   5.017   3.202
 3172TIP3    H2 9481   4.573   4.973   3.294
 3173TIP3   OH2 9482  -0.043   5.524   4.959
 3173TIP3    H1 9483   0.048   5.497   4.972
 3173TIP3    H2 9484  -0.075   5.467   4.888
 3174TIP3   OH2 9485   0.577   4.036   2.920
 3174TIP3    H1 9486   0.585   4.025   2.825
 3174TIP3    H2 9487   0.489   4.071   2.932
 3175TIP3   OH2 9488   6.690   2.342   3.685
 3175TIP3    H1 9489   6.608   2.303   3.653
 3175TIP3    H2 9490   6.697   2.312   3.776
 3176TIP3   OH2 9491   2.548   2.094   0.267
 3176TIP3    H1 9492   2.513   2.133   0.187
 3176TIP3    H2 9493   2.630   2.141   0.283
 3177TIP3   OH2 9494   6.897   5.975   1.490
 3177TIP3    H1 9495   6.982   5.986   1.447
 3177TIP3    H2 9496   6.904   6.022   1.572
 3178TIP3   OH2 9497   3.434   1.096   0.476
 3178TIP3    H1 9498   3.512   1.138   0.440
 3178TIP3    H2 9499   3.394   1.163   0.532
 3179TIP3   OH2 9500   5.608   6.260   4.387
 3179TIP3    H1 9501   5.687   6.302   4.355
 3179TIP3    H2 9502   5.601   6.288   4.478
 3180TIP3   OH2 9503   5.389   4.600   1.846
 3180TIP3    H1 9504   5.336   4.680   1.839
 3180TIP3    H2 9505   5.346   4.549   1.915
 3181TIP3   OH2 9506   3.319   2.973   3.622
 3181TIP3    H1 9507   3.307   2.878   3.619
 3181TIP3    H2 9508   3.315   2.994   3.716
 3182TIP3   OH2 9509   5.937   3.912   0.191
 3182TIP3    H1 9510   5.846   3.942   0.183
 3182TIP3    H2 9511   5.988   3.992   0.199
 3183TIP3   OH2 9512   7.039   1.256   5.554
 3183TIP3    H1 9513   7.008   1.299   5.634
 3183TIP3    H2 9514   6.990   1.174   5.551
 3184TIP3   OH2 9515   3.952   0.918   1.472
 3184TIP3    H1 9516   4.036   0.915   1.518
 3184TIP3    H2 9517   3.971   0.881   1.386
 3185TIP3   OH2 9518   5.369   3.315   2.430
 3185TIP3    H1 9519   5.370   3.238   2.487
 3185TIP3    H2 9520   5.433   3.374   2.469
 3186TIP3   OH2 9521   2.024   2.160   1.930
 3186TIP3    H1 9522   2.080   2.209   1.869
 3186TIP3    H2 9523   1.944   2.211   1.935
 3187TIP3   OH2 9524   6.917   1.086   4.834
 3187TIP3    H1 9525   6.866   1.017   4.878
 3187TIP3    H2 9526   6.988   1.039   4.790
 3188TIP3   OH2 9527   1.653   0.959   3.979
 3188TIP3    H1 9528   1.616   0.872   3.971
 3188TIP3    H2 9529   1.604   1.000   4.050
 3189TIP3   OH2 9530   4.661   2.053   3.659
 3189TIP3    H1 9531   4.667   2.074   3.752
 3189TIP3    H2 9532   4.751   2.035   3.633
 3190TIP3   OH2 9533   6.910   6.677   3.925
 3190TIP3    H1 9534   6.880   6.684   4.016
 3190TIP3    H2 9535   6.892   6.763   3.887
 3191TIP3   OH2 9536   3.435   5.049   1.108
 3191TIP3    H1 9537   3.343   5.027   1.122
 3191TIP3    H2 9538   3.468   5.069   1.196
 3192TIP3   OH2 9539   3.356   6.675   3.279
 3192TIP3    H1 9540   3.438   6.723   3.262
 3192TIP3    H2 9541   3.335   6.634   3.195
 3193TIP3   OH2 9542   2.545   3.455   4.207
 3193TIP3    H1 9543   2.509   3.414   4.286
 3193TIP3    H2 9544   2.507   3.543   4.207
 3194TIP3   OH2 9545   2.540   0.696   1.690
 3194TIP3    H1 9546   2.464   0.646   1.663
 3194TIP3    H2 9547   2.599   0.695   1.614
 3195TIP3   OH2 9548   0.856   6.730   5.363
 3195TIP3    H1 9549   0.925   6.772   5.415
 3195TIP3    H2 9550   0.864   6.770   5.277
 3196TIP3   OH2 9551   2.006   1.044   1.045
 3196TIP3    H1 9552   2.018   1.011   1.134
 3196TIP3    H2 9553   2.021   0.968   0.988
 3197TIP3   OH2 9554   6.034   4.158   0.186
 3197TIP3    H1 9555   6.020   4.216   0.110
 3197TIP3    H2 9556   5.959   4.176   0.243
 3198TIP3   OH2 9557   1.313   3.160   1.445
 3198TIP3    H1 9558   1.242   3.201   1.493
 3198TIP3    H2 9559   1.392   3.206   1.474
 3199TIP3   OH2 9560   2.458   2.384   1.817
 3199TIP3    H1 9561   2.513   2.379   1.894
 3199TIP3    H2 9562   2.462   2.476   1.790
 3200TIP3   OH2 9563   5.073   3.361   5.710
 3200TIP3    H1 9564   5.026   3.287   5.672
 3200TIP3    H2 9565   5.113   3.327   5.790
 3201TIP3   OH2 9566   0.140   4.080   4.771
 3201TIP3    H1 9567   0.112   4.000   4.727
 3201TIP3    H2 9568   0.234   4.085   4.754
 3202TIP3   OH2 9569   1.282   0.886   5.058
 3202TIP3    H1 9570   1.317   0.797   5.050
 3202TIP3    H2 9571   1.359   0.941   5.070
 3203TIP3   OH2 9572   7.145   2.323   5.440
 3203TIP3    H1 9573   7.184   2.249   5.486
 3203TIP3    H2 9574   7.220   2.378   5.416
 3204TIP3   OH2 9575   7.099   2.114   3.640
 3204TIP3    H1 9576   7.117   2.170   3.715
 3204TIP3    H2 9577   7.031   2.160   3.591
 3205TIP3   OH2 9578   3.065   4.073   4.194
 3205TIP3    H1 9579   3.136   4.049   4.135
 3205TIP3    H2 9580   3.007   3.997   4.194
 3206TIP3   OH2 9581   5.225   1.441   2.011
 3206TIP3    H1 9582   5.203   1.527   2.047
 3206TIP3    H2 9583   5.178   1.379   2.066
 3207TIP3   OH2 9584   5.698   6.726   5.843
 3207TIP3    H1 9585   5.659   6.763   5.763
 3207TIP3    H2 9586   5.625   6.722   5.905
 3208TIP3   OH2 9587   6.677   3.979   5.729
 3208TIP3    H1 9588   6.609   3.995   5.794
 3208TIP3    H2 9589   6.654   3.894   5.690
 3209TIP3   OH2 9590   2.317   5.569   3.922
 3209TIP3    H1 9591   2.407   5.537   3.928
 3209TIP3    H2 9592   2.284   5.532   3.841
 3210TIP3   OH2 9593   0.056   1.757   0.697
 3210TIP3    H1 9594   0.031   1.665   0.694
 3210TIP3    H2 9595   0.096   1.768   0.784
 3211TIP3   OH2 9596   0.375   3.481   1.194
 3211TIP3    H1 9597   0.397   3.476   1.288
 3211TIP3    H2 9598   0.357   3.574   1.180
 3212TIP3   OH2 9599   1.486   4.834   0.984
 3212TIP3    H1 9600   1.520   4.745   0.993
 3212TIP3    H2 9601   1.564   4.889   0.984
 3213TIP3   OH2 9602   7.164   4.101   5.019
 3213TIP3    H1 9603   7.240   4.075   4.968
 3213TIP3    H2 9604   7.151   4.194   4.998
 3214TIP3   OH2 9605   0.285   2.308   4.907
 3214TIP3    H1 9606   0.345   2.236   4.887
 3214TIP3    H2 9607   0.292   2.366   4.831
 3215TIP3   OH2 9608   6.871   6.793   0.241
 3215TIP3    H1 9609   6.935   6.722   0.245
 3215TIP3    H2 9610   6.792   6.757   0.282
 3216TIP3   OH2 9611   6.267   2.384   0.887
 3216TIP3    H1 9612   6.317   2.361   0.965
 3216TIP3    H2 9613   6.324   2.444   0.839
 3217TIP3   OH2 9614   3.734   3.796   2.769
 3217TIP3    H1 9615   3.753   3.889   2.757
 3217TIP3    H2 9616   3.638   3.790   2.762
 3218TIP3   OH2 9617   5.091   5.905   4.607
 3218TIP3    H1 9618   5.128   5.921   4.694
 3218TIP3    H2 9619   4.997   5.923   4.618
 3219TIP3   OH2 9620   0.555   4.716   3.813
 3219TIP3    H1 9621   0.516   4.794   3.853
 3219TIP3    H2 9622   0.588   4.665   3.887
 3220TIP3   OH2 9623   0.338   1.224   0.505
 3220TIP3    H1 9624   0.394   1.170   0.448
 3220TIP3    H2 9625   0.321   1.169   0.581
 3221TIP3   OH2 9626   3.322   1.723   2.196
 3221TIP3    H1 9627   3.283   1.728   2.108
 3221TIP3    H2 9628   3.382   1.798   2.199
 3222TIP3   OH2 9629   4.243   1.660   0.912
 3222TIP3    H1 9630   4.175   1.613   0.960
 3222TIP3    H2 9631   4.199   1.696   0.835
 3223TIP3   OH2 9632   1.628   5.063   1.774
 3223TIP3    H1 9633   1.541   5.086   1.807
 3223TIP3    H2 9634   1.616   5.051   1.680
 3224TIP3   OH2 9635   4.822   3.267   5.384
 3224TIP3    H1 9636   4.756   3.257   5.315
 3224TIP3    H2 9637   4.817   3.186   5.434
 3225TIP3   OH2 9638   3.758   2.844   0.584
 3225TIP3    H1 9639   3.747   2.921   0.641
 3225TIP3    H2 9640   3.815   2.785   0.635
 3226TIP3   OH2 9641   2.576   2.399   4.526
 3226TIP3    H1 9642   2.551   2.470   4.466
 3226TIP3    H2 9643   2.662   2.425   4.559
 3227TIP3   OH2 9644   1.994   0.905   3.408
 3227TIP3    H1 9645   1.907   0.897   3.367
 3227TIP3    H2 9646   2.053   0.927   3.336
 3228TIP3   OH2 9647   5.903   1.845   2.901
 3228TIP3    H1 9648   5.997   1.835   2.915
 3228TIP3    H2 9649   5.885   1.798   2.819
 3229TIP3   OH2 9650   6.144   1.169   0.309
 3229TIP3    H1 9651   6.208   1.150   0.240
 3229TIP3    H2 9652   6.183   1.241   0.358
 3230TIP3   OH2 9653   4.415   4.895   0.625
 3230TIP3    H1 9654   4.324   4.868   0.616
 3230TIP3    H2 9655   4.465   4.829   0.577
 3231TIP3   OH2 9656   0.168   5.029   3.861
 3231TIP3    H1 9657   0.138   5.014   3.951
 3231TIP3    H2 9658   0.113   5.101   3.829
 3232TIP3   OH2 9659   0.863   3.630   1.017
 3232TIP3    H1 9660   0.812   3.697   1.062
 3232TIP3    H2 9661   0.833   3.633   0.926
 3233TIP3   OH2 9662   4.414   3.587   1.268
 3233TIP3    H1 9663   4.465   3.667   1.282
 3233TIP3    H2 9664   4.480   3.521   1.246
 3234TIP3   OH2 9665   5.086   4.420   3.571
 3234TIP3    H1 9666   5.148   4.482   3.609
 3234TIP3    H2 9667   5.033   4.472   3.510
 3235TIP3   OH2 9668   5.013   4.169   4.632
 3235TIP3    H1 9669   4.984   4.154   4.542
 3235TIP3    H2 9670   5.028   4.081   4.667
 3236TIP3   OH2 9671   0.063   4.706   4.668
 3236TIP3    H1 9672   0.091   4.633   4.614
 3236TIP3    H2 9673   0.140   4.764   4.670
 3237TIP3   OH2 9674   5.576   4.467   4.498
 3237TIP3    H1 9675   5.521   4.393   4.524
 3237TIP3    H2 9676   5.532   4.543   4.534
 3238TIP3   OH2 9677   0.599   4.996   1.342
 3238TIP3    H1 9678   0.591   5.065   1.276
 3238TIP3    H2 9679   0.685   4.958   1.326
 3239TIP3   OH2 9680   4.735   1.241   5.146
 3239TIP3    H1 9681   4.822   1.214   5.177
 3239TIP3    H2 9682   4.753   1.301   5.074
 3240TIP3   OH2 9683   2.830   2.121   2.711
 3240TIP3    H1 9684   2.915   2.088   2.740
 3240TIP3    H2 9685   2.767   2.087   2.774
 3241TIP3   OH2 9686   2.701   6.656   0.014
 3241TIP3    H1 9687   2.681   6.659  -0.079
 3241TIP3    H2 9688   2.740   6.569   0.028
 3242TIP3   OH2 9689   0.191   2.956   0.449
 3242TIP3    H1 9690   0.248   3.020   0.491
 3242TIP3    H2 9691   0.109   3.004   0.434
 3243TIP3   OH2 9692   5.759   2.384   0.955
 3243TIP3    H1 9693   5.702   2.311   0.930
 3243TIP3    H2 9694   5.702   2.443   1.004
 3244TIP3   OH2 9695   4.136   6.627   5.181
 3244TIP3    H1 9696   4.111   6.563   5.248
 3244TIP3    H2 9697   4.079   6.702   5.197
 3245TIP3   OH2 9698   6.539   1.181   0.574
 3245TIP3    H1 9699   6.507   1.114   0.514
 3245TIP3    H2 9700   6.467   1.244   0.581
 3246TIP3   OH2 9701   6.084   4.096   2.941
 3246TIP3    H1 9702   6.154   4.060   2.887
 3246TIP3    H2 9703   6.063   4.180   2.900
 3247TIP3   OH2 9704   5.368   0.691   0.542
 3247TIP3    H1 9705   5.385   0.759   0.477
 3247TIP3    H2 9706   5.273   0.677   0.538
 3248TIP3   OH2 9707   0.823   5.148   5.733
 3248TIP3    H1 9708   0.763   5.193   5.673
 3248TIP3    H2 9709   0.899   5.128   5.679
 3249TIP3   OH2 9710   5.942   3.488   2.221
 3249TIP3    H1 9711   5.875   3.512   2.286
 3249TIP3    H2 9712   5.892   3.465   2.143
 3250TIP3   OH2 9713   0.228   4.830   5.511
 3250TIP3    H1 9714   0.224   4.811   5.605
 3250TIP3    H2 9715   0.320   4.818   5.488
 3251TIP3   OH2 9716   2.418   3.719   0.601
 3251TIP3    H1 9717   2.407   3.627   0.628
 3251TIP3    H2 9718   2.476   3.757   0.667
 3252TIP3   OH2 9719   1.793   6.759   0.818
 3252TIP3    H1 9720   1.830   6.824   0.758
 3252TIP3    H2 9721   1.794   6.677   0.767
 3253TIP3   OH2 9722   2.864   1.008   5.783
 3253TIP3    H1 9723   2.828   0.956   5.854
 3253TIP3    H2 9724   2.792   1.018   5.721
 3254TIP3   OH2 9725   6.573   6.298   0.809
 3254TIP3    H1 9726   6.529   6.292   0.894
 3254TIP3    H2 9727   6.606   6.387   0.805
 3255TIP3   OH2 9728   4.765   4.942   2.238
 3255TIP3    H1 9729   4.817   5.011   2.278
 3255TIP3    H2 9730   4.815   4.862   2.254
 3256TIP3   OH2 9731   5.384   4.711   0.193
 3256TIP3    H1 9732   5.422   4.773   0.255
 3256TIP3    H2 9733   5.393   4.755   0.108
 3257TIP3   OH2 9734   4.846   0.944   4.602
 3257TIP3    H1 9735   4.840   0.929   4.696
 3257TIP3    H2 9736   4.768   0.997   4.581
 3258TIP3   OH2 9737   1.355   0.205   0.125
 3258TIP3    H1 9738   1.266   0.240   0.127
 3258TIP3    H2 9739   1.410   0.282   0.109
 3259TIP3   OH2 9740   1.538   5.905   1.511
 3259TIP3    H1 9741   1.515   5.963   1.583
 3259TIP3    H2 9742   1.534   5.817   1.549
 3260TIP3   OH2 9743   5.706   3.246   4.907
 3260TIP3    H1 9744   5.778   3.199   4.948
 3260TIP3    H2 9745   5.691   3.200   4.825
 3261TIP3   OH2 9746   1.076   0.810   1.234
 3261TIP3    H1 9747   1.076   0.890   1.183
 3261TIP3    H2 9748   1.022   0.749   1.183
 3262TIP3   OH2 9749   1.689   2.951   2.195
 3262TIP3    H1 9750   1.698   2.967   2.101
 3262TIP3    H2 9751   1.779   2.950   2.228
 3263TIP3   OH2 9752   2.451   2.323   0.507
 3263TIP3    H1 9753   2.380   2.260   0.512
 3263TIP3    H2 9754   2.414   2.404   0.543
 3264TIP3   OH2 9755   4.273   1.093   1.834
 3264TIP3    H1 9756   4.226   1.012   1.811
 3264TIP3    H2 9757   4.205   1.150   1.870
 3265TIP3   OH2 9758   5.803   1.010   1.961
 3265TIP3    H1 9759   5.786   0.926   2.002
 3265TIP3    H2 9760   5.869   0.992   1.894
 3266TIP3   OH2 9761   5.537   1.752   4.003
 3266TIP3    H1 9762   5.451   1.743   4.045
 3266TIP3    H2 9763   5.517   1.763   3.910
 3267TIP3   OH2 9764   0.032   6.789   5.740
 3267TIP3    H1 9765   0.103   6.798   5.676
 3267TIP3    H2 9766   0.051   6.708   5.786
 3268TIP3   OH2 9767   6.836   1.939   3.192
 3268TIP3    H1 9768   6.920   1.980   3.215
 3268TIP3    H2 9769   6.846   1.848   3.219
 3269TIP3   OH2 9770   2.058   1.035   2.969
 3269TIP3    H1 9771   2.000   0.960   2.982
 3269TIP3    H2 9772   2.117   1.008   2.899
 3270TIP3   OH2 9773   0.595   2.340   0.618
 3270TIP3    H1 9774   0.571   2.433   0.620
 3270TIP3    H2 9775   0.689   2.340   0.600
 3271TIP3   OH2 9776   1.726   4.795   3.485
 3271TIP3    H1 9777   1.717   4.707   3.521
 3271TIP3    H2 9778   1.809   4.794   3.439
 3272TIP3   OH2 9779   5.292   2.562   2.835
 3272TIP3    H1 9780   5.254   2.601   2.757
 3272TIP3    H2 9781   5.227   2.576   2.904
 3273TIP3   OH2 9782   3.333   4.384   5.067
 3273TIP3    H1 9783   3.357   4.435   4.989
 3273TIP3    H2 9784   3.255   4.336   5.041
 3274TIP3   OH2 9785   1.886   3.220   2.404
 3274TIP3    H1 9786   1.844   3.134   2.406
 3274TIP3    H2 9787   1.813   3.282   2.400
 3275TIP3   OH2 9788   3.786   2.175   4.010
 3275TIP3    H1 9789   3.855   2.240   4.026
 3275TIP3    H2 9790   3.831   2.102   3.968
 3276TIP3   OH2 9791   1.478   5.107   4.338
 3276TIP3    H1 9792   1.509   5.191   4.305
 3276TIP3    H2 9793   1.511   5.103   4.428
 3277TIP3   OH2 9794   6.691   3.082   4.807
 3277TIP3    H1 9795   6.656   2.995   4.827
 3277TIP3    H2 9796   6.692   3.086   4.711
 3278TIP3   OH2 9797   2.305   3.975   0.591
 3278TIP3    H1 9798   2.236   3.950   0.530
 3278TIP3    H2 9799   2.342   3.892   0.621
 3279TIP3   OH2 9800   6.190   3.477   1.522
 3279TIP3    H1 9801   6.132   3.483   1.446
 3279TIP3    H2 9802   6.144   3.419   1.583
 3280TIP3   OH2 9803   6.184   0.318   3.719
 3280TIP3    H1 9804   6.166   0.360   3.803
 3280TIP3    H2 9805   6.144   0.231   3.728
 3281TIP3   OH2 9806   4.214   6.216   5.623
 3281TIP3    H1 9807   4.171   6.157   5.685
 3281TIP3    H2 9808   4.222   6.299   5.670
 3282TIP3   OH2 9809   1.409   6.525   5.359
 3282TIP3    H1 9810   1.349   6.461   5.320
 3282TIP3    H2 9811   1.360   6.607   5.358
 3283TIP3   OH2 9812   4.684   3.368   2.758
 3283TIP3    H1 9813   4.612   3.428   2.739
 3283TIP3    H2 9814   4.724   3.403   2.837
 3284TIP3   OH2 9815   4.968   4.369   2.720
 3284TIP3    H1 9816   4.968   4.276   2.743
 3284TIP3    H2 9817   5.004   4.372   2.632
 3285TIP3   OH2 9818   6.633   0.607   4.637
 3285TIP3    H1 9819   6.721   0.572   4.653
 3285TIP3    H2 9820   6.588   0.537   4.590
 3286TIP3   OH2 9821   2.479   1.912   4.339
 3286TIP3    H1 9822   2.502   2.004   4.333
 3286TIP3    H2 9823   2.491   1.890   4.431
 3287TIP3   OH2 9824   4.072   4.276   4.351
 3287TIP3    H1 9825   4.056   4.236   4.266
 3287TIP3    H2 9826   4.158   4.318   4.342
 3288TIP3   OH2 9827   0.128   2.874   5.488
 3288TIP3    H1 9828   0.077   2.797   5.465
 3288TIP3    H2 9829   0.071   2.948   5.466
 3289TIP3   OH2 9830   4.238   1.660   4.848
 3289TIP3    H1 9831   4.198   1.706   4.774
 3289TIP3    H2 9832   4.165   1.636   4.904
 3290TIP3   OH2 9833   3.427   4.556   3.771
 3290TIP3    H1 9834   3.521   4.568   3.783
 3290TIP3    H2 9835   3.391   4.645   3.772
 3291TIP3   OH2 9836   4.435   4.176   5.554
 3291TIP3    H1 9837   4.441   4.108   5.487
 3291TIP3    H2 9838   4.476   4.137   5.631
 3292TIP3   OH2 9839   2.203   4.465   2.132
 3292TIP3    H1 9840   2.120   4.420   2.124
 3292TIP3    H2 9841   2.268   4.403   2.101
 3293TIP3   OH2 9842   4.237   5.303   0.084
 3293TIP3    H1 9843   4.291   5.226   0.066
 3293TIP3    H2 9844   4.259   5.326   0.175
 3294TIP3   OH2 9845   4.218   1.386   3.245
 3294TIP3    H1 9846   4.237   1.479   3.263
 3294TIP3    H2 9847   4.155   1.361   3.313
 3295TIP3   OH2 9848   4.288   5.750   4.461
 3295TIP3    H1 9849   4.302   5.657   4.443
 3295TIP3    H2 9850   4.349   5.795   4.402
 3296TIP3   OH2 9851   1.850   1.979   1.405
 3296TIP3    H1 9852   1.879   1.928   1.329
 3296TIP3    H2 9853   1.837   2.067   1.371
 3297TIP3   OH2 9854   1.066   0.370   1.175
 3297TIP3    H1 9855   1.139   0.408   1.223
 3297TIP3    H2 9856   1.005   0.443   1.163
 3298TIP3   OH2 9857   4.487   3.717   5.439
 3298TIP3    H1 9858   4.450   3.799   5.406
 3298TIP3    H2 9859   4.555   3.744   5.499
 3299TIP3   OH2 9860   0.225   1.062   2.961
 3299TIP3    H1 9861   0.319   1.048   2.945
 3299TIP3    H2 9862   0.189   0.974   2.969
 3300TIP3   OH2 9863   5.324   6.278   3.285
 3300TIP3    H1 9864   5.416   6.258   3.305
 3300TIP3    H2 9865   5.284   6.192   3.269
 3301TIP3   OH2 9866   2.109   0.210   2.059
 3301TIP3    H1 9867   2.175   0.248   2.117
 3301TIP3    H2 9868   2.031   0.263   2.074
 3302TIP3   OH2 9869   3.879   3.328   2.875
 3302TIP3    H1 9870   3.811   3.380   2.918
 3302TIP3    H2 9871   3.945   3.313   2.944
 3303TIP3   OH2 9872   4.673   2.465   3.167
 3303TIP3    H1 9873   4.702   2.385   3.211
 3303TIP3    H2 9874   4.745   2.486   3.107
 3304TIP3   OH2 9875   6.226   2.929   3.170
 3304TIP3    H1 9876   6.158   2.957   3.108
 3304TIP3    H2 9877   6.306   2.925   3.117
 3305TIP3   OH2 9878   7.214   4.174   5.590
 3305TIP3    H1 9879   7.254   4.164   5.676
 3305TIP3    H2 9880   7.138   4.116   5.591
 3306TIP3   OH2 9881   2.107   6.491   3.419
 3306TIP3    H1 9882   2.092   6.575   3.462
 3306TIP3    H2 9883   2.098   6.510   3.325
 3307TIP3   OH2 9884   3.233   4.586   2.446
 3307TIP3    H1 9885   3.321   4.623   2.446
 3307TIP3    H2 9886   3.215   4.568   2.538
 3308TIP3   OH2 9887   1.050   1.055   0.154
 3308TIP3    H1 9888   1.035   0.961   0.147
 3308TIP3    H2 9889   1.029   1.077   0.245
 3309TIP3   OH2 9890   3.964   0.164   0.437
 3309TIP3    H1 9891   3.969   0.195   0.346
 3309TIP3    H2 9892   3.914   0.231   0.482
 3310TIP3   OH2 9893   0.988   5.920   2.293
 3310TIP3    H1 9894   1.025   5.979   2.359
 3310TIP3    H2 9895   0.983   5.835   2.337
 3311TIP3   OH2 9896   2.380   5.827   3.483
 3311TIP3    H1 9897   2.289   5.796   3.475
 3311TIP3    H2 9898   2.373   5.909   3.532
 3312TIP3   OH2 9899   5.138   1.255   0.556
 3312TIP3    H1 9900   5.075   1.188   0.583
 3312TIP3    H2 9901   5.196   1.265   0.632
 3313TIP3   OH2 9902   5.202   0.375   0.914
 3313TIP3    H1 9903   5.193   0.333   0.999
 3313TIP3    H2 9904   5.297   0.378   0.899
 3314TIP3   OH2 9905   3.350   2.127   4.203
 3314TIP3    H1 9906   3.390   2.077   4.132
 3314TIP3    H2 9907   3.278   2.174   4.161
 3315TIP3   OH2 9908   4.103   3.994   5.306
 3315TIP3    H1 9909   4.087   3.968   5.216
 3315TIP3    H2 9910   4.080   3.917   5.358
 3316TIP3   OH2 9911   3.846   3.048   2.757
 3316TIP3    H1 9912   3.898   3.007   2.826
 3316TIP3    H2 9913   3.856   3.142   2.772
 3317TIP3   OH2 9914   6.671   5.706   5.062
 3317TIP3    H1 9915   6.696   5.738   5.149
 3317TIP3    H2 9916   6.742   5.646   5.037
 3318TIP3   OH2 9917   3.481   3.710   0.282
 3318TIP3    H1 9918   3.548   3.654   0.320
 3318TIP3    H2 9919   3.453   3.766   0.353
 3319TIP3   OH2 9920   1.595   0.663   3.623
 3319TIP3    H1 9921   1.628   0.745   3.660
 3319TIP3    H2 9922   1.567   0.686   3.534
 3320TIP3   OH2 9923   7.171   5.116   5.482
 3320TIP3    H1 9924   7.188   5.208   5.503
 3320TIP3    H2 9925   7.195   5.069   5.561
 3321TIP3   OH2 9926   2.801   3.495   2.790
 3321TIP3    H1 9927   2.719   3.452   2.765
 3321TIP3    H2 9928   2.787   3.526   2.879
 3322TIP3   OH2 9929   1.054   4.912   2.655
 3322TIP3    H1 9930   0.966   4.878   2.672
 3322TIP3    H2 9931   1.099   4.905   2.739
 3323TIP3   OH2 9932   5.542   2.635   4.311
 3323TIP3    H1 9933   5.588   2.572   4.367
 3323TIP3    H2 9934   5.578   2.620   4.223
 3324TIP3   OH2 9935   0.656   0.996   2.683
 3324TIP3    H1 9936   0.623   1.008   2.771
 3324TIP3    H2 9937   0.642   0.903   2.664
 3325TIP3   OH2 9938   6.285   1.604   1.721
 3325TIP3    H1 9939   6.370   1.625   1.682
 3325TIP3    H2 9940   6.270   1.674   1.785
 3326TIP3   OH2 9941   6.611   6.019   1.754
 3326TIP3    H1 9942   6.608   5.940   1.808
 3326TIP3    H2 9943   6.642   6.087   1.814
 3327TIP3   OH2 9944   6.865   5.166   3.436
 3327TIP3    H1 9945   6.885   5.260   3.435
 3327TIP3    H2 9946   6.806   5.154   3.362
 3328TIP3   OH2 9947   1.212   4.172   0.967
 3328TIP3    H1 9948   1.260   4.143   0.889
 3328TIP3    H2 9949   1.164   4.249   0.937
 3329TIP3   OH2 9950   2.413   3.461   0.738
 3329TIP3    H1 9951   2.397   3.415   0.656
 3329TIP3    H2 9952   2.392   3.398   0.807
 3330TIP3   OH2 9953   3.313   2.095   2.348
 3330TIP3    H1 9954   3.303   2.173   2.293
 3330TIP3    H2 9955   3.407   2.078   2.349
 3331TIP3   OH2 9956   5.232   5.472   0.273
 3331TIP3    H1 9957   5.285   5.526   0.332
 3331TIP3    H2 9958   5.255   5.502   0.185
 3332TIP3   OH2 9959   1.948   1.325   2.723
 3332TIP3    H1 9960   1.960   1.357   2.812
 3332TIP3    H2 9961   1.854   1.331   2.708
 3333TIP3   OH2 9962   3.780   1.006   3.023
 3333TIP3    H1 9963   3.818   0.918   3.033
 3333TIP3    H2 9964   3.695   1.000   3.066
 3334TIP3   OH2 9965   1.830   2.666   4.746
 3334TIP3    H1 9966   1.913   2.699   4.780
 3334TIP3    H2 9967   1.791   2.741   4.701
 3335TIP3   OH2 9968   6.064   0.712   2.927
 3335TIP3    H1 9969   5.999   0.744   2.865
 3335TIP3    H2 9970   6.148   0.724   2.883
 3336TIP3   OH2 9971   0.386   0.125   4.432
 3336TIP3    H1 9972   0.446   0.151   4.362
 3336TIP3    H2 9973   0.330   0.201   4.445
 3337TIP3   OH2 9974   2.078   4.854   5.167
 3337TIP3    H1 9975   2.108   4.879   5.255
 3337TIP3    H2 9976   1.984   4.841   5.177
 3338TIP3   OH2 9977   0.531   3.305   0.634
 3338TIP3    H1 9978   0.526   3.363   0.710
 3338TIP3    H2 9979   0.623   3.278   0.631
 3339TIP3   OH2 9980   4.547   4.968   5.846
 3339TIP3    H1 9981   4.562   4.899   5.910
 3339TIP3    H2 9982   4.632   5.011   5.835
 3340TIP3   OH2 9983   3.391   2.778   2.387
 3340TIP3    H1 9984   3.335   2.708   2.419
 3340TIP3    H2 9985   3.458   2.734   2.335
 3341TIP3   OH2 9986   0.759   4.870   4.122
 3341TIP3    H1 9987   0.823   4.886   4.191
 3341TIP3    H2 9988   0.717   4.954   4.107
 3342TIP3   OH2 9989   6.161   5.360   3.037
 3342TIP3    H1 9990   6.108   5.395   3.109
 3342TIP3    H2 9991   6.227   5.427   3.021
 3343TIP3   OH2 9992   6.983   6.256   5.703
 3343TIP3    H1 9993   6.941   6.284   5.622
 3343TIP3    H2 9994   7.016   6.168   5.684
 3344TIP3   OH2 9995   4.431   6.538   5.254
 3344TIP3    H1 9996   4.393   6.450   5.261
 3344TIP3    H2 9997   4.373   6.584   5.193
 3345TIP3   OH2 9998   6.297   1.467   2.535
 3345TIP3    H1 9999   6.332   1.409   2.603
 3345TIP3    H210000   6.313   1.556   2.569
 3346TIP3   OH210001   2.667   1.143   1.905
 3346TIP3    H110002   2.700   1.189   1.828
 3346TIP3    H210003   2.616   1.070   1.869
 3347TIP3   OH210004   2.390   4.798   2.296
 3347TIP3    H110005   2.477   4.786   2.258
 3347TIP3    H210006   2.395   4.755   2.381
 3348TIP3   OH210007   4.811   0.597   5.516
 3348TIP3    H110008   4.805   0.522   5.575
 3348TIP3    H210009   4.724   0.605   5.478
 3349TIP3   OH210010   4.606   6.341   4.473
 3349TIP3    H110011   4.560   6.423   4.453
 3349TIP3    H210012   4.679   6.339   4.411
 3350TIP3   OH210013   0.045   6.049   5.736
 3350TIP3    H110014   0.066   6.071   5.826
 3350TIP3    H210015   0.129   6.020   5.698
 3351TIP3   OH210016   6.940   6.709   5.297
 3351TIP3    H110017   7.028   6.735   5.269
 3351TIP3    H210018   6.881   6.757   5.238
 3352TIP3   OH210019   5.722   1.350   4.880
 3352TIP3    H110020   5.698   1.442   4.876
 3352TIP3    H210021   5.807   1.349   4.924
 3353TIP3   OH210022   2.340   5.145   2.128
 3353TIP3    H110023   2.250   5.134   2.160
 3353TIP3    H210024   2.336   5.222   2.071
 3354TIP3   OH210025   6.185   5.704   1.036
 3354TIP3    H110026   6.199   5.666   1.123
 3354TIP3    H210027   6.241   5.652   0.978
 3355TIP3   OH210028   1.754   1.334   1.418
 3355TIP3    H110029   1.744   1.401   1.350
 3355TIP3    H210030   1.713   1.256   1.381
 3356TIP3   OH210031   4.451   1.555   4.956
 3356TIP3    H110032   4.381   1.611   4.922
 3356TIP3    H210033   4.526   1.573   4.900
 3357TIP3   OH210034   0.035   2.279   3.184
 3357TIP3    H110035  -0.010   2.361   3.168
 3357TIP3    H210036   0.049   2.241   3.097
 3358TIP3   OH210037   3.899   4.671   0.566
 3358TIP3    H110038   3.819   4.653   0.516
 3358TIP3    H210039   3.922   4.586   0.604
 3359TIP3   OH210040   4.371   3.154   5.001
 3359TIP3    H110041   4.291   3.101   5.006
 3359TIP3    H210042   4.344   3.232   4.952
 3360TIP3   OH210043   1.641   2.711   1.902
 3360TIP3    H110044   1.591   2.705   1.984
 3360TIP3    H210045   1.660   2.804   1.892
 3361TIP3   OH210046   4.825   5.291   4.897
 3361TIP3    H110047   4.745   5.284   4.948
 3361TIP3    H210048   4.895   5.291   4.962
 3362TIP3   OH210049   6.727   3.570   3.325
 3362TIP3    H110050   6.660   3.628   3.288
 3362TIP3    H210051   6.806   3.592   3.276
 3363TIP3   OH210052   4.925   6.118   0.980
 3363TIP3    H110053   4.879   6.181   1.035
 3363TIP3    H210054   5.004   6.096   1.029
 3364TIP3   OH210055   0.935   4.324   3.220
 3364TIP3    H110056   0.866   4.258   3.215
 3364TIP3    H210057   0.898   4.392   3.277
 3365TIP3   OH210058   0.317   4.202   5.085
 3365TIP3    H110059   0.271   4.121   5.064
 3365TIP3    H210060   0.328   4.200   5.180
 3366TIP3   OH210061   2.638   6.712   0.257
 3366TIP3    H110062   2.629   6.628   0.302
 3366TIP3    H210063   2.630   6.691   0.164
 3367TIP3   OH210064   4.358   6.254   3.345
 3367TIP3    H110065   4.287   6.193   3.322
 3367TIP3    H210066   4.437   6.209   3.316
 3368TIP3   OH210067   1.015   4.691   1.738
 3368TIP3    H110068   1.029   4.679   1.831
 3368TIP3    H210069   0.953   4.764   1.732
 3369TIP3   OH210070   6.591   1.516   0.796
 3369TIP3    H110071   6.680   1.499   0.764
 3369TIP3    H210072   6.558   1.430   0.822
 3370TIP3   OH210073   5.689   3.065   2.273
 3370TIP3    H110074   5.776   3.051   2.235
 3370TIP3    H210075   5.656   3.144   2.230
 3371TIP3   OH210076   5.406   6.146   2.638
 3371TIP3    H110077   5.316   6.176   2.647
 3371TIP3    H210078   5.412   6.115   2.548
 3372TIP3   OH210079   5.158   3.563   5.563
 3372TIP3    H110080   5.243   3.564   5.606
 3372TIP3    H210081   5.115   3.484   5.595
 3373TIP3   OH210082   2.463   1.787   3.041
 3373TIP3    H110083   2.415   1.768   2.960
 3373TIP3    H210084   2.505   1.704   3.064
 3374TIP3   OH210085   5.216   0.203   2.346
 3374TIP3    H110086   5.174   0.211   2.260
 3374TIP3    H210087   5.294   0.150   2.330
 3375TIP3   OH210088   2.291   0.467   3.426
 3375TIP3    H110089   2.214   0.434   3.472
 3375TIP3    H210090   2.323   0.539   3.481
 3376TIP3   OH210091   0.251   1.311   1.523
 3376TIP3    H110092   0.221   1.357   1.601
 3376TIP3    H210093   0.336   1.274   1.549
 3377TIP3   OH210094   3.339   1.801   4.029
 3377TIP3    H110095   3.367   1.892   4.018
 3377TIP3    H210096   3.404   1.750   3.979
 3378TIP3   OH210097   2.673   2.753   4.011
 3378TIP3    H110098   2.607   2.684   4.013
 3378TIP3    H210099   2.664   2.798   4.095
 3379TIP3   OH210100   3.413   2.050   4.650
 3379TIP3    H110101   3.452   2.111   4.713
 3379TIP3    H210102   3.364   2.106   4.590
 3380TIP3   OH210103   4.589   3.486   4.074
 3380TIP3    H110104   4.581   3.576   4.104
 3380TIP3    H210105   4.681   3.476   4.051
 3381TIP3   OH210106   6.489   0.360   4.547
 3381TIP3    H110107   6.414   0.324   4.593
 3381TIP3    H210108   6.495   0.309   4.466
 3382TIP3   OH210109   6.866   0.262   5.677
 3382TIP3    H110110   6.780   0.276   5.718
 3382TIP3    H210111   6.865   0.319   5.600
 3383TIP3   OH210112   2.149   3.611   1.125
 3383TIP3    H110113   2.077   3.602   1.187
 3383TIP3    H210114   2.211   3.542   1.150
 3384TIP3   OH210115   6.925   3.963   2.212
 3384TIP3    H110116   6.890   3.952   2.301
 3384TIP3    H210117   6.853   4.002   2.163
 3385TIP3   OH210118   6.182   4.667   2.317
 3385TIP3    H110119   6.199   4.685   2.410
 3385TIP3    H210120   6.253   4.609   2.290
 3386TIP3   OH210121   1.557   3.384   4.661
 3386TIP3    H110122   1.500   3.415   4.731
 3386TIP3    H210123   1.560   3.289   4.672
 3387TIP3   OH210124   2.132   3.389   5.727
 3387TIP3    H110125   2.145   3.484   5.724
 3387TIP3    H210126   2.200   3.357   5.787
 3388TIP3   OH210127   4.760   1.056   2.539
 3388TIP3    H110128   4.677   1.053   2.586
 3388TIP3    H210129   4.736   1.077   2.449
 3389TIP3   OH210130   2.449   4.225   3.974
 3389TIP3    H110131   2.507   4.225   3.898
 3389TIP3    H210132   2.397   4.306   3.965
 3390TIP3   OH210133   4.206   4.997   2.990
 3390TIP3    H110134   4.198   4.962   3.079
 3390TIP3    H210135   4.137   4.954   2.941
 3391TIP3   OH210136   6.132   2.819   3.645
 3391TIP3    H110137   6.101   2.728   3.639
 3391TIP3    H210138   6.106   2.858   3.561
 3392TIP3   OH210139   5.595   1.901   2.038
 3392TIP3    H110140   5.593   1.953   1.959
 3392TIP3    H210141   5.675   1.849   2.032
 3393TIP3   OH210142   1.314   2.479   1.924
 3393TIP3    H110143   1.220   2.481   1.941
 3393TIP3    H210144   1.352   2.437   2.001
 3394TIP3   OH210145   6.710   1.738   3.776
 3394TIP3    H110146   6.774   1.799   3.739
 3394TIP3    H210147   6.714   1.752   3.870
 3395TIP3   OH210148   5.104   1.180   1.024
 3395TIP3    H110149   5.171   1.137   0.971
 3395TIP3    H210150   5.033   1.115   1.029
 3396TIP3   OH210151   4.733   0.528   0.725
 3396TIP3    H110152   4.736   0.507   0.818
 3396TIP3    H210153   4.724   0.624   0.723
 3397TIP3   OH210154   1.112   1.222   2.121
 3397TIP3    H110155   1.108   1.195   2.212
 3397TIP3    H210156   1.199   1.261   2.111
 3398TIP3   OH210157   2.151   0.309   2.789
 3398TIP3    H110158   2.188   0.336   2.873
 3398TIP3    H210159   2.092   0.380   2.765
 3399TIP3   OH210160   0.789   3.165   1.876
 3399TIP3    H110161   0.855   3.221   1.835
 3399TIP3    H210162   0.705   3.203   1.847
 3400TIP3   OH210163   4.145   0.660   4.807
 3400TIP3    H110164   4.144   0.753   4.787
 3400TIP3    H210165   4.170   0.655   4.899
 3401TIP3   OH210166   1.523   2.494   1.651
 3401TIP3    H110167   1.590   2.559   1.633
 3401TIP3    H210168   1.508   2.500   1.746
 3402TIP3   OH210169   5.816   6.497   4.043
 3402TIP3    H110170   5.834   6.496   3.949
 3402TIP3    H210171   5.790   6.407   4.063
 3403TIP3   OH210172   1.996   1.971   1.634
 3403TIP3    H110173   1.934   1.991   1.563
 3403TIP3    H210174   2.055   2.046   1.635
 3404TIP3   OH210175   4.733   5.315   4.073
 3404TIP3    H110176   4.726   5.308   4.168
 3404TIP3    H210177   4.788   5.392   4.059
 3405TIP3   OH210178   3.704   0.889   0.965
 3405TIP3    H110179   3.705   0.805   0.919
 3405TIP3    H210180   3.652   0.947   0.909
 3406TIP3   OH210181   0.043   0.397   2.092
 3406TIP3    H110182  -0.040   0.393   2.044
 3406TIP3    H210183   0.041   0.482   2.136
 3407TIP3   OH210184   0.127   3.786   0.318
 3407TIP3    H110185   0.191   3.745   0.376
 3407TIP3    H210186   0.175   3.857   0.276
 3408TIP3   OH210187   2.260   6.423   2.380
 3408TIP3    H110188   2.183   6.445   2.327
 3408TIP3    H210189   2.333   6.464   2.333
 3409TIP3   OH210190   2.651   4.887   1.855
 3409TIP3    H110191   2.577   4.827   1.846
 3409TIP3    H210192   2.632   4.937   1.935
 3410TIP3   OH210193   6.015   6.062   2.489
 3410TIP3    H110194   5.973   6.004   2.552
 3410TIP3    H210195   5.973   6.041   2.405
 3411TIP3   OH210196   6.072   2.952   0.181
 3411TIP3    H110197   5.991   2.960   0.232
 3411TIP3    H210198   6.081   2.858   0.165
 3412TIP3   OH210199   4.239   3.226   1.375
 3412TIP3    H110200   4.211   3.313   1.345
 3412TIP3    H210201   4.247   3.235   1.470
 3413TIP3   OH210202   6.687   0.595   0.201
 3413TIP3    H110203   6.673   0.572   0.110
 3413TIP3    H210204   6.769   0.645   0.202
 3414TIP3   OH210205   4.102   0.059   5.309
 3414TIP3    H110206   4.121   0.146   5.275
 3414TIP3    H210207   4.179   0.037   5.362
 3415TIP3   OH210208   5.266   5.067   3.382
 3415TIP3    H110209   5.174   5.093   3.384
 3415TIP3    H210210   5.310   5.129   3.441
 3416TIP3   OH210211   3.916   2.089   3.388
 3416TIP3    H110212   3.924   1.995   3.371
 3416TIP3    H210213   3.890   2.126   3.304
 3417TIP3   OH210214   2.438   2.981   3.167
 3417TIP3    H110215   2.348   2.983   3.135
 3417TIP3    H210216   2.485   2.926   3.104
 3418TIP3   OH210217   0.577   2.572   3.921
 3418TIP3    H110218   0.592   2.506   3.853
 3418TIP3    H210219   0.488   2.556   3.952
 3419TIP3   OH210220   0.452   2.729   2.889
 3419TIP3    H110221   0.487   2.667   2.953
 3419TIP3    H210222   0.443   2.811   2.937
 3420TIP3   OH210223   0.684   4.702   0.736
 3420TIP3    H110224   0.649   4.618   0.706
 3420TIP3    H210225   0.747   4.728   0.669
 3421TIP3   OH210226   4.589   3.264   5.264
 3421TIP3    H110227   4.579   3.358   5.247
 3421TIP3    H210228   4.540   3.221   5.195
 3422TIP3   OH210229   6.842   0.922   1.350
 3422TIP3    H110230   6.776   0.861   1.382
 3422TIP3    H210231   6.798   1.007   1.346
 3423TIP3   OH210232   0.986   4.985   5.904
 3423TIP3    H110233   0.937   5.042   5.844
 3423TIP3    H210234   0.921   4.924   5.937
 3424TIP3   OH210235   6.983   4.898   1.485
 3424TIP3    H110236   7.009   4.819   1.438
 3424TIP3    H210237   7.065   4.945   1.499
 3425TIP3   OH210238   2.055   0.518   3.553
 3425TIP3    H110239   1.971   0.482   3.579
 3425TIP3    H210240   2.075   0.584   3.619
 3426TIP3   OH210241   4.787   2.691   1.699
 3426TIP3    H110242   4.853   2.750   1.662
 3426TIP3    H210243   4.821   2.604   1.682
 3427TIP3   OH210244   4.105   5.762   2.273
 3427TIP3    H110245   4.150   5.847   2.269
 3427TIP3    H210246   4.176   5.698   2.269
 3428TIP3   OH210247   4.934   0.163   3.916
 3428TIP3    H110248   5.028   0.177   3.912
 3428TIP3    H210249   4.923   0.068   3.915
 3429TIP3   OH210250   0.217   0.714   3.285
 3429TIP3    H110251   0.126   0.743   3.296
 3429TIP3    H210252   0.255   0.776   3.223
 3430TIP3   OH210253   2.184   3.668   5.706
 3430TIP3    H110254   2.221   3.714   5.630
 3430TIP3    H210255   2.237   3.699   5.780
 3431TIP3   OH210256   7.126   0.627   4.862
 3431TIP3    H110257   7.090   0.602   4.777
 3431TIP3    H210258   7.126   0.545   4.913
 3432TIP3   OH210259   3.523   1.101   3.915
 3432TIP3    H110260   3.592   1.055   3.867
 3432TIP3    H210261   3.568   1.175   3.956
 3433TIP3   OH210262   1.090   0.891   2.443
 3433TIP3    H110263   1.132   0.839   2.511
 3433TIP3    H210264   1.161   0.940   2.401
 3434TIP3   OH210265   5.883   4.094   2.098
 3434TIP3    H110266   5.790   4.109   2.081
 3434TIP3    H210267   5.885   4.006   2.136
 3435TIP3   OH210268   0.057   2.060   4.805
 3435TIP3    H110269   0.068   2.051   4.899
 3435TIP3    H210270  -0.024   2.014   4.785
 3436TIP3   OH210271   6.548   4.510   0.674
 3436TIP3    H110272   6.584   4.498   0.586
 3436TIP3    H210273   6.497   4.431   0.689
 3437TIP3   OH210274   2.644   4.560   0.298
 3437TIP3    H110275   2.570   4.499   0.305
 3437TIP3    H210276   2.604   4.647   0.301
 3438TIP3   OH210277   0.969   0.552   2.609
 3438TIP3    H110278   0.909   0.519   2.542
 3438TIP3    H210279   0.932   0.521   2.691
 3439TIP3   OH210280   3.143   1.131   0.279
 3439TIP3    H110281   3.085   1.077   0.224
 3439TIP3    H210282   3.231   1.113   0.246
 3440TIP3   OH210283   5.361   2.445   2.409
 3440TIP3    H110284   5.349   2.350   2.404
 3440TIP3    H210285   5.454   2.459   2.391
 3441TIP3   OH210286   2.464   5.656   3.179
 3441TIP3    H110287   2.377   5.670   3.216
 3441TIP3    H210288   2.462   5.566   3.147
 3442TIP3   OH210289   6.122   4.837   3.579
 3442TIP3    H110290   6.211   4.838   3.544
 3442TIP3    H210291   6.133   4.835   3.674
 3443TIP3   OH210292   5.827   2.296   5.546
 3443TIP3    H110293   5.732   2.291   5.532
 3443TIP3    H210294   5.850   2.210   5.580
 3444TIP3   OH210295   6.991   0.531   1.422
 3444TIP3    H110296   7.037   0.580   1.354
 3444TIP3    H210297   7.059   0.475   1.462
 3445TIP3   OH210298   2.334   5.470   1.765
 3445TIP3    H110299   2.374   5.384   1.767
 3445TIP3    H210300   2.285   5.476   1.847
 3446TIP3   OH210301   3.829   6.272   4.917
 3446TIP3    H110302   3.813   6.366   4.908
 3446TIP3    H210303   3.794   6.250   5.004
 3447TIP3   OH210304   4.822   4.122   4.964
 3447TIP3    H110305   4.756   4.085   4.907
 3447TIP3    H210306   4.897   4.062   4.956
 3448TIP3   OH210307   1.367   5.638   4.964
 3448TIP3    H110308   1.414   5.716   4.934
 3448TIP3    H210309   1.353   5.586   4.885
 3449TIP3   OH210310   2.357   3.402   0.230
 3449TIP3    H110311   2.345   3.338   0.159
 3449TIP3    H210312   2.421   3.464   0.196
 3450TIP3   OH210313   6.259   1.369   0.800
 3450TIP3    H110314   6.275   1.447   0.854
 3450TIP3    H210315   6.347   1.333   0.785
 3451TIP3   OH210316   6.987   5.894   1.070
 3451TIP3    H110317   7.041   5.835   1.017
 3451TIP3    H210318   6.897   5.871   1.048
 3452TIP3   OH210319   5.952   6.433   5.003
 3452TIP3    H110320   5.884   6.385   5.052
 3452TIP3    H210321   6.031   6.380   5.014
 3453TIP3   OH210322   3.495   1.154   1.033
 3453TIP3    H110323   3.512   1.094   1.106
 3453TIP3    H210324   3.433   1.217   1.068
 3454TIP3   OH210325   6.337   5.154   0.360
 3454TIP3    H110326   6.243   5.146   0.372
 3454TIP3    H210327   6.359   5.089   0.294
 3455TIP3   OH210328  -0.011   3.691   2.891
 3455TIP3    H110329  -0.031   3.768   2.944
 3455TIP3    H210330   0.044   3.724   2.819
 3456TIP3   OH210331   7.274   4.437   3.828
 3456TIP3    H110332   7.248   4.372   3.894
 3456TIP3    H210333   7.192   4.464   3.787
 3457TIP3   OH210334   4.932   3.684   3.347
 3457TIP3    H110335   4.993   3.690   3.420
 3457TIP3    H210336   4.969   3.742   3.281
 3458TIP3   OH210337   2.928   2.065   3.014
 3458TIP3    H110338   2.851   2.119   2.997
 3458TIP3    H210339   2.926   2.049   3.108
 3459TIP3   OH210340   6.813   1.258   2.559
 3459TIP3    H110341   6.891   1.218   2.597
 3459TIP3    H210342   6.799   1.208   2.478
 3460TIP3   OH210343   6.491   1.354   1.721
 3460TIP3    H110344   6.500   1.303   1.801
 3460TIP3    H210345   6.398   1.352   1.700
 3461TIP3   OH210346   3.201   5.280   2.643
 3461TIP3    H110347   3.279   5.295   2.590
 3461TIP3    H210348   3.140   5.348   2.615
 3462TIP3   OH210349   4.585   3.748   4.925
 3462TIP3    H110350   4.570   3.671   4.870
 3462TIP3    H210351   4.579   3.822   4.865
 3463TIP3   OH210352   3.182   0.842   2.898
 3463TIP3    H110353   3.246   0.786   2.855
 3463TIP3    H210354   3.233   0.896   2.958
 3464TIP3   OH210355   2.689   2.592   3.232
 3464TIP3    H110356   2.701   2.664   3.169
 3464TIP3    H210357   2.596   2.568   3.223
 3465TIP3   OH210358   2.226   4.916   4.144
 3465TIP3    H110359   2.292   4.872   4.091
 3465TIP3    H210360   2.228   4.870   4.228
 3466TIP3   OH210361   3.192   2.550   3.268
 3466TIP3    H110362   3.233   2.494   3.334
 3466TIP3    H210363   3.098   2.546   3.288
 3467TIP3   OH210364   6.006   4.325   4.276
 3467TIP3    H110365   5.947   4.311   4.350
 3467TIP3    H210366   5.997   4.419   4.256
 3468TIP3   OH210367   3.201   5.349   0.880
 3468TIP3    H110368   3.153   5.397   0.949
 3468TIP3    H210369   3.155   5.265   0.873
 3469TIP3   OH210370   6.334   2.628   0.188
 3469TIP3    H110371   6.336   2.630   0.092
 3469TIP3    H210372   6.388   2.703   0.214
 3470TIP3   OH210373   2.161   1.692   0.220
 3470TIP3    H110374   2.152   1.661   0.311
 3470TIP3    H210375   2.109   1.629   0.169
 3471TIP3   OH210376   6.457   1.444   4.778
 3471TIP3    H110377   6.539   1.400   4.798
 3471TIP3    H210378   6.482   1.529   4.744
 3472TIP3   OH210379   1.530   1.709   5.814
 3472TIP3    H110380   1.547   1.802   5.827
 3472TIP3    H210381   1.435   1.700   5.822
 3473TIP3   OH210382   2.769   2.496   5.717
 3473TIP3    H110383   2.741   2.540   5.637
 3473TIP3    H210384   2.800   2.410   5.687
 3474TIP3   OH210385   4.274   4.626   1.227
 3474TIP3    H110386   4.263   4.530   1.224
 3474TIP3    H210387   4.363   4.639   1.259
 3475TIP3   OH210388   7.015   0.074   5.082
 3475TIP3    H110389   7.030  -0.012   5.121
 3475TIP3    H210390   7.007   0.057   4.988
 3476TIP3   OH210391   4.329   2.214   2.016
 3476TIP3    H110392   4.356   2.159   1.943
 3476TIP3    H210393   4.244   2.178   2.042
 3477TIP3   OH210394   3.784   4.193   4.873
 3477TIP3    H110395   3.865   4.144   4.855
 3477TIP3    H210396   3.736   4.191   4.791
 3478TIP3   OH210397   5.516   0.139   0.176
 3478TIP3    H110398   5.589   0.179   0.130
 3478TIP3    H210399   5.467   0.092   0.108
 3479TIP3   OH210400   5.629   0.582   2.374
 3479TIP3    H110401   5.719   0.559   2.398
 3479TIP3    H210402   5.574   0.539   2.439
 3480TIP3   OH210403   5.910   4.642   1.460
 3480TIP3    H110404   5.992   4.688   1.476
 3480TIP3    H210405   5.901   4.580   1.533
 3481TIP3   OH210406   7.188   6.410   3.688
 3481TIP3    H110407   7.262   6.356   3.661
 3481TIP3    H210408   7.155   6.367   3.768
 3482TIP3   OH210409   4.175   1.510   2.922
 3482TIP3    H110410   4.182   1.475   2.833
 3482TIP3    H210411   4.134   1.439   2.972
 3483TIP3   OH210412   5.582   0.951   2.930
 3483TIP3    H110413   5.573   0.977   3.022
 3483TIP3    H210414   5.659   0.999   2.900
 3484TIP3   OH210415   2.429   5.013   2.656
 3484TIP3    H110416   2.466   5.055   2.578
 3484TIP3    H210417   2.408   4.924   2.627
 3485TIP3   OH210418   1.646   2.209   2.722
 3485TIP3    H110419   1.707   2.141   2.751
 3485TIP3    H210420   1.571   2.162   2.686
 3486TIP3   OH210421   5.490   4.394   0.825
 3486TIP3    H110422   5.549   4.322   0.803
 3486TIP3    H210423   5.425   4.355   0.883
 3487TIP3   OH210424   3.308   6.683   2.800
 3487TIP3    H110425   3.298   6.588   2.799
 3487TIP3    H210426   3.398   6.698   2.828
 3488TIP3   OH210427   0.929   4.628   2.629
 3488TIP3    H110428   0.939   4.565   2.557
 3488TIP3    H210429   0.835   4.645   2.633
 3489TIP3   OH210430   2.912   3.986   0.812
 3489TIP3    H110431   2.861   4.053   0.857
 3489TIP3    H210432   2.951   4.032   0.738
 3490TIP3   OH210433   6.371   5.492   2.308
 3490TIP3    H110434   6.457   5.532   2.320
 3490TIP3    H210435   6.312   5.546   2.360
 3491TIP3   OH210436   1.582   4.185   2.125
 3491TIP3    H110437   1.549   4.095   2.128
 3491TIP3    H210438   1.588   4.205   2.031
 3492TIP3   OH210439   1.638   5.342   4.725
 3492TIP3    H110440   1.687   5.288   4.787
 3492TIP3    H210441   1.693   5.343   4.646
 3493TIP3   OH210442   6.316   0.349   5.109
 3493TIP3    H110443   6.225   0.379   5.099
 3493TIP3    H210444   6.360   0.420   5.155
 3494TIP3   OH210445   0.092   1.586   3.164
 3494TIP3    H110446   0.072   1.669   3.123
 3494TIP3    H210447   0.179   1.563   3.132
 3495TIP3   OH210448   3.151   4.131   2.248
 3495TIP3    H110449   3.157   4.175   2.163
 3495TIP3    H210450   3.143   4.202   2.312
 3496TIP3   OH210451   6.220   6.586   2.978
 3496TIP3    H110452   6.131   6.620   2.972
 3496TIP3    H210453   6.208   6.491   2.988
 3497TIP3   OH210454   1.675   4.619   1.044
 3497TIP3    H110455   1.643   4.645   1.130
 3497TIP3    H210456   1.768   4.599   1.058
 3498TIP3   OH210457   3.412   5.522   1.537
 3498TIP3    H110458   3.373   5.460   1.475
 3498TIP3    H210459   3.443   5.595   1.483
 3499TIP3   OH210460   5.887   1.074   4.779
 3499TIP3    H110461   5.897   1.033   4.693
 3499TIP3    H210462   5.931   1.158   4.771
 3500TIP3   OH210463   3.980   0.458   0.493
 3500TIP3    H110464   3.908   0.520   0.509
 3500TIP3    H210465   4.003   0.426   0.580
 3501TIP3   OH210466   2.260   3.722   1.433
 3501TIP3    H110467   2.323   3.772   1.484
 3501TIP3    H210468   2.313   3.668   1.375
 3502TIP3   OH210469   7.085   5.873   4.271
 3502TIP3    H110470   7.047   5.826   4.345
 3502TIP3    H210471   7.042   5.958   4.271
 3503TIP3   OH210472   1.906   2.053   2.855
 3503TIP3    H110473   1.906   1.990   2.782
 3503TIP3    H210474   1.833   2.025   2.910
 3504TIP3   OH210475   3.813   0.676   1.847
 3504TIP3    H110476   3.829   0.742   1.779
 3504TIP3    H210477   3.808   0.593   1.800
 3505TIP3   OH210478   4.972   1.245   0.312
 3505TIP3    H110479   5.032   1.232   0.239
 3505TIP3    H210480   5.012   1.199   0.385
 3506TIP3   OH210481   0.316   5.299   1.363
 3506TIP3    H110482   0.386   5.364   1.375
 3506TIP3    H210483   0.296   5.269   1.452
 3507TIP3   OH210484   5.260   3.859   1.941
 3507TIP3    H110485   5.217   3.851   2.026
 3507TIP3    H210486   5.353   3.855   1.961
 3508TIP3   OH210487   0.318   5.139   3.269
 3508TIP3    H110488   0.390   5.097   3.222
 3508TIP3    H210489   0.361   5.192   3.336
 3509TIP3   OH210490   5.020   6.454   5.252
 3509TIP3    H110491   4.993   6.543   5.229
 3509TIP3    H210492   4.985   6.400   5.181
 3510TIP3   OH210493   6.239   1.710   2.308
 3510TIP3    H110494   6.156   1.755   2.322
 3510TIP3    H210495   6.291   1.730   2.386
 3511TIP3   OH210496   5.570   1.574   2.128
 3511TIP3    H110497   5.623   1.639   2.082
 3511TIP3    H210498   5.507   1.625   2.178
 3512TIP3   OH210499   6.707   5.278   4.396
 3512TIP3    H110500   6.744   5.231   4.471
 3512TIP3    H210501   6.634   5.327   4.433
 3513TIP3   OH210502   3.325   4.367   3.221
 3513TIP3    H110503   3.279   4.354   3.304
 3513TIP3    H210504   3.267   4.422   3.169
 3514TIP3   OH210505   2.984   4.737   5.161
 3514TIP3    H110506   2.982   4.833   5.165
 3514TIP3    H210507   3.064   4.713   5.209
 3515TIP3   OH210508   6.995   0.187   0.298
 3515TIP3    H110509   6.902   0.208   0.292
 3515TIP3    H210510   7.001   0.133   0.377
 3516TIP3   OH210511   3.738   0.138   1.550
 3516TIP3    H110512   3.686   0.076   1.499
 3516TIP3    H210513   3.828   0.107   1.543
 3517TIP3   OH210514   6.090   2.199   5.750
 3517TIP3    H110515   6.152   2.139   5.791
 3517TIP3    H210516   6.006   2.153   5.754
 3518TIP3   OH210517   1.160   2.103   0.368
 3518TIP3    H110518   1.073   2.118   0.330
 3518TIP3    H210519   1.216   2.169   0.328
 3519TIP3   OH210520   4.443   1.794   0.493
 3519TIP3    H110521   4.420   1.881   0.526
 3519TIP3    H210522   4.489   1.753   0.566
 3520TIP3   OH210523   0.544   5.554   0.875
 3520TIP3    H110524   0.603   5.564   0.800
 3520TIP3    H210525   0.517   5.463   0.872
 3521TIP3   OH210526   1.417   0.647   4.921
 3521TIP3    H110527   1.505   0.618   4.897
 3521TIP3    H210528   1.388   0.700   4.847
 3522TIP3   OH210529   4.971   5.612   0.132
 3522TIP3    H110530   4.904   5.637   0.069
 3522TIP3    H210531   5.031   5.687   0.134
 3523TIP3   OH210532   3.203   0.555   4.883
 3523TIP3    H110533   3.207   0.460   4.892
 3523TIP3    H210534   3.197   0.587   4.973
 3524TIP3   OH210535   4.877   6.748   1.287
 3524TIP3    H110536   4.902   6.839   1.309
 3524TIP3    H210537   4.862   6.707   1.372
 3525TIP3   OH210538   0.980   4.154   3.481
 3525TIP3    H110539   0.963   4.247   3.496
 3525TIP3    H210540   1.051   4.132   3.541
 3526TIP3   OH210541   0.752   6.488   5.051
 3526TIP3    H110542   0.753   6.567   4.997
 3526TIP3    H210543   0.844   6.462   5.057
 3527TIP3   OH210544   7.133   0.451   2.764
 3527TIP3    H110545   7.049   0.495   2.776
 3527TIP3    H210546   7.115   0.381   2.701
 3528TIP3   OH210547   3.267   1.442   1.876
 3528TIP3    H110548   3.176   1.414   1.891
 3528TIP3    H210549   3.263   1.537   1.871
 3529TIP3   OH210550   3.188   6.190   5.374
 3529TIP3    H110551   3.273   6.233   5.367
 3529TIP3    H210552   3.207   6.102   5.406
 3530TIP3   OH210553   1.015   2.172   1.606
 3530TIP3    H110554   0.923   2.148   1.598
 3530TIP3    H210555   1.014   2.266   1.623
 3531TIP3   OH210556   3.227   2.236   1.303
 3531TIP3    H110557   3.173   2.314   1.285
 3531TIP3    H210558   3.166   2.164   1.304
 3532TIP3   OH210559   2.413   3.153   5.111
 3532TIP3    H110560   2.396   3.102   5.031
 3532TIP3    H210561   2.381   3.097   5.182
 3533TIP3   OH210562   0.830   1.014   3.444
 3533TIP3    H110563   0.791   0.937   3.403
 3533TIP3    H210564   0.894   1.046   3.381
 3534TIP3   OH210565   4.755   0.147   0.689
 3534TIP3    H110566   4.744   0.068   0.637
 3534TIP3    H210567   4.838   0.184   0.658
 3535TIP3   OH210568   6.739   3.326   0.572
 3535TIP3    H110569   6.767   3.411   0.538
 3535TIP3    H210570   6.644   3.327   0.567
 3536TIP3   OH210571   2.537   6.202   1.029
 3536TIP3    H110572   2.468   6.247   0.980
 3536TIP3    H210573   2.615   6.210   0.974
 3537TIP3   OH210574   4.140   0.269   3.118
 3537TIP3    H110575   4.232   0.293   3.106
 3537TIP3    H210576   4.134   0.179   3.085
 3538TIP3   OH210577   1.588   0.685   4.505
 3538TIP3    H110578   1.645   0.626   4.455
 3538TIP3    H210579   1.550   0.743   4.439
 3539TIP3   OH210580   0.709   5.122   1.946
 3539TIP3    H110581   0.662   5.086   2.022
 3539TIP3    H210582   0.797   5.139   1.978
 3540TIP3   OH210583   1.531   0.923   5.929
 3540TIP3    H110584   1.517   1.014   5.957
 3540TIP3    H210585   1.484   0.917   5.846
 3541TIP3   OH210586   3.791   1.078   0.702
 3541TIP3    H110587   3.874   1.032   0.715
 3541TIP3    H210588   3.740   1.020   0.646
 3542TIP3   OH210589   7.204   3.192   5.832
 3542TIP3    H110590   7.264   3.196   5.758
 3542TIP3    H210591   7.207   3.279   5.872
 3543TIP3   OH210592   0.263   1.128   5.706
 3543TIP3    H110593   0.299   1.040   5.721
 3543TIP3    H210594   0.239   1.129   5.614
 3544TIP3   OH210595   0.115   4.939   4.128
 3544TIP3    H110596   0.058   4.863   4.135
 3544TIP3    H210597   0.056   5.012   4.107
 3545TIP3   OH210598   5.226   0.286  -0.022
 3545TIP3    H110599   5.212   0.253   0.067
 3545TIP3    H210600   5.170   0.231  -0.077
 3546TIP3   OH210601   1.169   1.157   0.638
 3546TIP3    H110602   1.213   1.227   0.687
 3546TIP3    H210603   1.191   1.077   0.686
 3547TIP3   OH210604   2.341   1.462   5.363
 3547TIP3    H110605   2.361   1.521   5.291
 3547TIP3    H210606   2.247   1.449   5.358
 3548TIP3   OH210607   2.709   2.601   0.556
 3548TIP3    H110608   2.684   2.670   0.617
 3548TIP3    H210609   2.798   2.622   0.530
 3549TIP3   OH210610   5.741   1.356   4.620
 3549TIP3    H110611   5.759   1.330   4.711
 3549TIP3    H210612   5.651   1.389   4.622
 3550TIP3   OH210613   2.646   1.345   3.932
 3550TIP3    H110614   2.661   1.372   4.022
 3550TIP3    H210615   2.579   1.406   3.900
 3551TIP3   OH210616   0.194   3.560   0.460
 3551TIP3    H110617   0.262   3.607   0.508
 3551TIP3    H210618   0.238   3.482   0.426
 3552TIP3   OH210619   5.352   1.066   1.999
 3552TIP3    H110620   5.389   1.153   2.016
 3552TIP3    H210621   5.262   1.084   1.971
 3553TIP3   OH210622   5.356   5.941   0.835
 3553TIP3    H110623   5.428   5.995   0.804
 3553TIP3    H210624   5.324   5.896   0.756
 3554TIP3   OH210625   5.968   3.970   4.515
 3554TIP3    H110626   5.925   4.055   4.526
 3554TIP3    H210627   5.970   3.933   4.603
 3555TIP3   OH210628   2.933   1.329   2.985
 3555TIP3    H110629   2.997   1.265   2.953
 3555TIP3    H210630   2.853   1.279   2.997
 3556TIP3   OH210631   0.313   2.473   3.893
 3556TIP3    H110632   0.268   2.473   3.808
 3556TIP3    H210633   0.246   2.498   3.956
 3557TIP3   OH210634   7.046   5.684   1.860
 3557TIP3    H110635   7.030   5.765   1.909
 3557TIP3    H210636   7.040   5.710   1.768
 3558TIP3   OH210637   5.616   6.700   3.674
 3558TIP3    H110638   5.525   6.726   3.683
 3558TIP3    H210639   5.665   6.766   3.722
 3559TIP3   OH210640   6.218   6.313   3.645
 3559TIP3    H110641   6.173   6.381   3.595
 3559TIP3    H210642   6.157   6.292   3.716
 3560TIP3   OH210643   5.263   5.030   2.841
 3560TIP3    H110644   5.299   4.976   2.912
 3560TIP3    H210645   5.207   5.093   2.887
 3561TIP3   OH210646   0.676   2.848   4.975
 3561TIP3    H110647   0.656   2.932   4.933
 3561TIP3    H210648   0.607   2.789   4.945
 3562TIP3   OH210649   6.534   1.010   4.444
 3562TIP3    H110650   6.487   1.065   4.382
 3562TIP3    H210651   6.537   1.062   4.525
 3563TIP3   OH210652   1.974   5.075   4.356
 3563TIP3    H110653   1.945   5.029   4.277
 3563TIP3    H210654   1.932   5.028   4.428
 3564TIP3   OH210655   3.296   1.222   3.192
 3564TIP3    H110656   3.247   1.265   3.262
 3564TIP3    H210657   3.383   1.260   3.196
 3565TIP3   OH210658   5.377   5.868   4.049
 3565TIP3    H110659   5.434   5.932   4.090
 3565TIP3    H210660   5.330   5.827   4.121
 3566TIP3   OH210661   2.536   6.549   3.308
 3566TIP3    H110662   2.561   6.552   3.400
 3566TIP3    H210663   2.521   6.456   3.291
 3567TIP3   OH210664   3.340   0.632   1.307
 3567TIP3    H110665   3.306   0.555   1.352
 3567TIP3    H210666   3.428   0.644   1.344
 3568TIP3   OH210667   1.858   5.328   5.686
 3568TIP3    H110668   1.795   5.255   5.681
 3568TIP3    H210669   1.932   5.300   5.633
 3569TIP3   OH210670   2.570   4.613   2.095
 3569TIP3    H110671   2.603   4.700   2.120
 3569TIP3    H210672   2.517   4.630   2.017
 3570TIP3   OH210673   1.078   0.356   1.594
 3570TIP3    H110674   1.036   0.342   1.679
 3570TIP3    H210675   1.044   0.439   1.563
 3571TIP3   OH210676   3.591   5.881   0.495
 3571TIP3    H110677   3.632   5.933   0.564
 3571TIP3    H210678   3.576   5.943   0.424
 3572TIP3   OH210679   0.429   4.632   5.407
 3572TIP3    H110680   0.426   4.561   5.343
 3572TIP3    H210681   0.430   4.588   5.492
 3573TIP3   OH210682   0.763   0.062   5.036
 3573TIP3    H110683   0.775  -0.032   5.046
 3573TIP3    H210684   0.753   0.095   5.125
 3574TIP3   OH210685   0.531   3.845   3.521
 3574TIP3    H110686   0.608   3.894   3.549
 3574TIP3    H210687   0.500   3.890   3.443
 3575TIP3   OH210688   3.554   0.027   3.229
 3575TIP3    H110689   3.473   0.077   3.219
 3575TIP3    H210690   3.575  -0.003   3.141
 3576TIP3   OH210691   4.677   0.923   3.535
 3576TIP3    H110692   4.742   0.886   3.474
 3576TIP3    H210693   4.635   0.992   3.485
 3577TIP3   OH210694   6.394   1.519   0.264
 3577TIP3    H110695   6.440   1.596   0.230
 3577TIP3    H210696   6.418   1.448   0.204
 3578TIP3   OH210697   6.419   4.244   0.498
 3578TIP3    H110698   6.433   4.196   0.579
 3578TIP3    H210699   6.338   4.207   0.462
 3579TIP3   OH210700   4.183   1.048   3.419
 3579TIP3    H110701   4.262   1.078   3.375
 3579TIP3    H210702   4.214   0.994   3.491
 3580TIP3   OH210703   1.082   1.175   1.587
 3580TIP3    H110704   1.147   1.227   1.635
 3580TIP3    H210705   1.013   1.157   1.651
 3581TIP3   OH210706   6.118   1.207   5.816
 3581TIP3    H110707   6.201   1.197   5.863
 3581TIP3    H210708   6.106   1.301   5.809
 3582TIP3   OH210709   3.423   4.286   1.960
 3582TIP3    H110710   3.440   4.194   1.980
 3582TIP3    H210711   3.398   4.288   1.868
 3583TIP3   OH210712   1.588   5.615   1.626
 3583TIP3    H110713   1.577   5.615   1.721
 3583TIP3    H210714   1.683   5.623   1.613
 3584TIP3   OH210715   6.846   5.741   5.743
 3584TIP3    H110716   6.907   5.813   5.753
 3584TIP3    H210717   6.828   5.712   5.832
 3585TIP3   OH210718   4.734   3.788   5.142
 3585TIP3    H110719   4.818   3.756   5.110
 3585TIP3    H210720   4.673   3.774   5.069
 3586TIP3   OH210721   5.212   1.048   1.680
 3586TIP3    H110722   5.179   0.965   1.646
 3586TIP3    H210723   5.148   1.073   1.747
 3587TIP3   OH210724   4.629   0.450   3.879
 3587TIP3    H110725   4.633   0.476   3.786
 3587TIP3    H210726   4.687   0.512   3.923
 3588TIP3   OH210727   0.094   5.236   3.090
 3588TIP3    H110728   0.050   5.164   3.043
 3588TIP3    H210729   0.168   5.194   3.134
 3589TIP3   OH210730   3.433   0.903   4.090
 3589TIP3    H110731   3.396   0.941   4.169
 3589TIP3    H210732   3.456   0.978   4.035
 3590TIP3   OH210733   4.792   3.245   4.131
 3590TIP3    H110734   4.713   3.211   4.088
 3590TIP3    H210735   4.822   3.316   4.074
 3591TIP3   OH210736   6.540   0.371   4.891
 3591TIP3    H110737   6.459   0.370   4.941
 3591TIP3    H210738   6.609   0.380   4.957
 3592TIP3   OH210739   0.988   5.888   4.280
 3592TIP3    H110740   0.929   5.963   4.275
 3592TIP3    H210741   1.038   5.902   4.361
 3593TIP3   OH210742   2.533   2.862   2.957
 3593TIP3    H110743   2.521   2.782   2.906
 3593TIP3    H210744   2.626   2.864   2.978
 3594TIP3   OH210745   5.395   3.801   5.330
 3594TIP3    H110746   5.370   3.708   5.325
 3594TIP3    H210747   5.437   3.819   5.246
 3595TIP3   OH210748   3.396   6.346   1.711
 3595TIP3    H110749   3.317   6.340   1.764
 3595TIP3    H210750   3.365   6.341   1.620
 3596TIP3   OH210751   4.370   2.510   3.277
 3596TIP3    H110752   4.282   2.545   3.282
 3596TIP3    H210753   4.396   2.497   3.368
 3597TIP3   OH210754   1.320   6.514   5.072
 3597TIP3    H110755   1.317   6.594   5.019
 3597TIP3    H210756   1.413   6.497   5.084
 3598TIP3   OH210757   5.314   4.004   1.693
 3598TIP3    H110758   5.266   3.946   1.751
 3598TIP3    H210759   5.327   3.954   1.612
 3599TIP3   OH210760   0.341   6.741   5.742
 3599TIP3    H110761   0.366   6.667   5.796
 3599TIP3    H210762   0.415   6.801   5.747
 3600TIP3   OH210763   0.203   6.218   3.640
 3600TIP3    H110764   0.243   6.163   3.572
 3600TIP3    H210765   0.159   6.156   3.698
 3601TIP3   OH210766   4.786   5.372   1.007
 3601TIP3    H110767   4.786   5.403   1.097
 3601TIP3    H210768   4.693   5.363   0.984
 3602TIP3   OH210769   3.510   2.199   1.742
 3602TIP3    H110770   3.575   2.220   1.675
 3602TIP3    H210771   3.436   2.258   1.723
 3603TIP3   OH210772   4.810   1.141   1.991
 3603TIP3    H110773   4.834   1.177   2.076
 3603TIP3    H210774   4.715   1.137   1.992
 3604TIP3   OH210775   2.250   3.057   2.233
 3604TIP3    H110776   2.251   2.982   2.292
 3604TIP3    H210777   2.327   3.108   2.258
 3605TIP3   OH210778   5.341   6.796   2.913
 3605TIP3    H110779   5.252   6.792   2.949
 3605TIP3    H210780   5.346   6.723   2.852
 3606TIP3   OH210781   3.571   6.097   1.611
 3606TIP3    H110782   3.614   6.181   1.597
 3606TIP3    H210783   3.565   6.088   1.706
 3607TIP3   OH210784   1.907   3.203   1.723
 3607TIP3    H110785   1.858   3.174   1.646
 3607TIP3    H210786   1.887   3.296   1.731
 3608TIP3   OH210787   1.764   0.938   5.345
 3608TIP3    H110788   1.793   1.026   5.319
 3608TIP3    H210789   1.837   0.902   5.394
 3609TIP3   OH210790   0.373   6.125   5.447
 3609TIP3    H110791   0.402   6.211   5.417
 3609TIP3    H210792   0.280   6.122   5.424
 3610TIP3   OH210793   3.192   0.327   4.577
 3610TIP3    H110794   3.109   0.279   4.576
 3610TIP3    H210795   3.255   0.265   4.615
 3611TIP3   OH210796   3.201   1.649   4.213
 3611TIP3    H110797   3.238   1.697   4.138
 3611TIP3    H210798   3.274   1.597   4.246
 3612TIP3   OH210799   1.466   3.031   4.368
 3612TIP3    H110800   1.533   3.099   4.371
 3612TIP3    H210801   1.389   3.070   4.408
 3613TIP3   OH210802   1.762   3.766   4.111
 3613TIP3    H110803   1.757   3.674   4.138
 3613TIP3    H210804   1.762   3.815   4.193
 3614TIP3   OH210805   3.294   3.944   2.851
 3614TIP3    H110806   3.227   3.956   2.919
 3614TIP3    H210807   3.247   3.960   2.769
 3615TIP3   OH210808   5.409   3.548   1.643
 3615TIP3    H110809   5.475   3.600   1.688
 3615TIP3    H210810   5.408   3.464   1.691
 3616TIP3   OH210811   2.851   4.880   2.426
 3616TIP3    H110812   2.852   4.797   2.474
 3616TIP3    H210813   2.907   4.938   2.478
 3617TIP3   OH210814   2.121   0.051   4.800
 3617TIP3    H110815   2.179   0.110   4.753
 3617TIP3    H210816   2.033   0.086   4.785
 3618TIP3   OH210817   4.423   1.323   2.953
 3618TIP3    H110818   4.354   1.389   2.938
 3618TIP3    H210819   4.418   1.266   2.876
 3619TIP3   OH210820   0.269   2.806   1.249
 3619TIP3    H110821   0.229   2.770   1.327
 3619TIP3    H210822   0.230   2.892   1.238
 3620TIP3   OH210823   4.772   2.727   1.135
 3620TIP3    H110824   4.799   2.646   1.178
 3620TIP3    H210825   4.831   2.794   1.170
 3621TIP3   OH210826   3.909   4.404   4.538
 3621TIP3    H110827   3.923   4.328   4.482
 3621TIP3    H210828   3.997   4.439   4.553
 3622TIP3   OH210829   7.080   5.067   1.112
 3622TIP3    H110830   7.101   5.150   1.154
 3622TIP3    H210831   6.999   5.039   1.154
 3623TIP3   OH210832   6.297   2.547   4.401
 3623TIP3    H110833   6.332   2.566   4.487
 3623TIP3    H210834   6.238   2.621   4.383
 3624TIP3   OH210835   0.194   3.712   0.920
 3624TIP3    H110836   0.201   3.623   0.884
 3624TIP3    H210837   0.284   3.735   0.944
 3625TIP3   OH210838   4.710   4.406   4.499
 3625TIP3    H110839   4.723   4.313   4.518
 3625TIP3    H210840   4.651   4.437   4.568
 3626TIP3   OH210841   1.008   1.210   5.328
 3626TIP3    H110842   0.988   1.145   5.261
 3626TIP3    H210843   1.089   1.251   5.297
 3627TIP3   OH210844   2.273   4.442   0.963
 3627TIP3    H110845   2.248   4.412   1.050
 3627TIP3    H210846   2.276   4.537   0.970
 3628TIP3   OH210847   0.624   3.226   2.283
 3628TIP3    H110848   0.679   3.148   2.274
 3628TIP3    H210849   0.547   3.195   2.332
 3629TIP3   OH210850   5.290   2.842   0.417
 3629TIP3    H110851   5.200   2.837   0.449
 3629TIP3    H210852   5.296   2.928   0.375
 3630TIP3   OH210853   3.585   5.378   1.783
 3630TIP3    H110854   3.634   5.397   1.703
 3630TIP3    H210855   3.534   5.457   1.799
 3631TIP3   OH210856   6.623   3.636   3.614
 3631TIP3    H110857   6.653   3.633   3.523
 3631TIP3    H210858   6.537   3.593   3.613
 3632TIP3   OH210859   0.191   1.854   3.273
 3632TIP3    H110860   0.145   1.849   3.189
 3632TIP3    H210861   0.147   1.924   3.320
 3633TIP3   OH210862   0.128   0.507   4.710
 3633TIP3    H110863   0.186   0.560   4.656
 3633TIP3    H210864   0.112   0.560   4.788
 3634TIP3   OH210865   0.230   6.300   0.708
 3634TIP3    H110866   0.259   6.223   0.659
 3634TIP3    H210867   0.309   6.354   0.715
 3635TIP3   OH210868   4.379   1.851   2.430
 3635TIP3    H110869   4.454   1.796   2.405
 3635TIP3    H210870   4.418   1.928   2.472
 3636TIP3   OH210871   4.587   0.529   2.022
 3636TIP3    H110872   4.608   0.610   1.976
 3636TIP3    H210873   4.519   0.488   1.970
 3637TIP3   OH210874   2.930   4.390   3.111
 3637TIP3    H110875   2.920   4.418   3.202
 3637TIP3    H210876   2.954   4.297   3.117
 3638TIP3   OH210877   3.461   5.869   1.499
 3638TIP3    H110878   3.482   5.907   1.413
 3638TIP3    H210879   3.495   5.932   1.562
 3639TIP3   OH210880   5.731   3.501   1.490
 3639TIP3    H110881   5.690   3.540   1.567
 3639TIP3    H210882   5.671   3.431   1.464
 3640TIP3   OH210883   2.850   2.491   1.704
 3640TIP3    H110884   2.788   2.438   1.754
 3640TIP3    H210885   2.860   2.444   1.621
 3641TIP3   OH210886   2.011   0.473   4.943
 3641TIP3    H110887   1.962   0.509   5.017
 3641TIP3    H210888   2.092   0.440   4.982
 3642TIP3   OH210889   4.548   0.361   1.161
 3642TIP3    H110890   4.540   0.325   1.073
 3642TIP3    H210891   4.600   0.441   1.150
 3643TIP3   OH210892   3.466   0.269   4.801
 3643TIP3    H110893   3.402   0.267   4.873
 3643TIP3    H210894   3.462   0.182   4.763
 3644TIP3   OH210895   3.545   3.845   0.746
 3644TIP3    H110896   3.557   3.817   0.836
 3644TIP3    H210897   3.633   3.841   0.708
 3645TIP3   OH210898   4.913   3.260   2.354
 3645TIP3    H110899   4.847   3.317   2.393
 3645TIP3    H210900   4.863   3.207   2.291
 3646TIP3   OH210901   3.405   3.686   5.417
 3646TIP3    H110902   3.354   3.647   5.345
 3646TIP3    H210903   3.384   3.631   5.493
 3647TIP3   OH210904   0.370   6.599   1.072
 3647TIP3    H110905   0.280   6.629   1.061
 3647TIP3    H210906   0.417   6.637   0.998
 3648TIP3   OH210907   6.604   3.060   5.266
 3648TIP3    H110908   6.680   3.086   5.214
 3648TIP3    H210909   6.545   3.019   5.203
 3649TIP3   OH210910   0.706   0.543   4.491
 3649TIP3    H110911   0.680   0.468   4.545
 3649TIP3    H210912   0.744   0.605   4.553
 3650TIP3   OH210913   4.696   0.216   3.786
 3650TIP3    H110914   4.781   0.195   3.825
 3650TIP3    H210915   4.670   0.298   3.827
 3651TIP3   OH210916   4.062   6.236   0.195
 3651TIP3    H110917   3.974   6.210   0.223
 3651TIP3    H210918   4.120   6.190   0.256
 3652TIP3   OH210919   3.582   1.249   0.788
 3652TIP3    H110920   3.570   1.213   0.876
 3652TIP3    H210921   3.662   1.207   0.756
 3653TIP3   OH210922   7.092   0.833   5.883
 3653TIP3    H110923   7.100   0.753   5.831
 3653TIP3    H210924   7.148   0.896   5.836
 3654TIP3   OH210925   3.774   3.863   4.182
 3654TIP3    H110926   3.860   3.900   4.167
 3654TIP3    H210927   3.761   3.869   4.277
 3655TIP3   OH210928   2.075   6.251   2.815
 3655TIP3    H110929   2.105   6.331   2.772
 3655TIP3    H210930   2.141   6.185   2.794
 3656TIP3   OH210931   4.940   6.213   3.791
 3656TIP3    H110932   4.921   6.213   3.697
 3656TIP3    H210933   4.990   6.293   3.806
 3657TIP3   OH210934   6.807   4.898   0.264
 3657TIP3    H110935   6.782   4.909   0.356
 3657TIP3    H210936   6.880   4.958   0.252
 3658TIP3   OH210937   2.157   2.114   2.169
 3658TIP3    H110938   2.102   2.129   2.092
 3658TIP3    H210939   2.116   2.167   2.238
 3659TIP3   OH210940   5.427   4.335   2.449
 3659TIP3    H110941   5.450   4.425   2.427
 3659TIP3    H210942   5.348   4.342   2.502
 3660TIP3   OH210943   1.429   6.113   0.487
 3660TIP3    H110944   1.416   6.155   0.401
 3660TIP3    H210945   1.375   6.164   0.547
 3661TIP3   OH210946   1.301   0.841   0.300
 3661TIP3    H110947   1.231   0.805   0.355
 3661TIP3    H210948   1.340   0.911   0.354
 3662TIP3   OH210949   4.212   5.568   0.822
 3662TIP3    H110950   4.126   5.549   0.785
 3662TIP3    H210951   4.229   5.495   0.881
 3663TIP3   OH210952   2.924   1.136   2.028
 3663TIP3    H110953   2.934   1.228   2.000
 3663TIP3    H210954   2.845   1.106   1.983
 3664TIP3   OH210955   3.699   5.287   2.092
 3664TIP3    H110956   3.629   5.311   2.032
 3664TIP3    H210957   3.676   5.330   2.174
 3665TIP3   OH210958   3.791   5.941   1.493
 3665TIP3    H110959   3.845   5.916   1.418
 3665TIP3    H210960   3.786   5.862   1.546
 3666TIP3   OH210961   5.202   4.754   1.440
 3666TIP3    H110962   5.153   4.733   1.361
 3666TIP3    H210963   5.179   4.685   1.502
 3667TIP3   OH210964   4.983   4.264   2.065
 3667TIP3    H110965   4.997   4.252   1.971
 3667TIP3    H210966   4.887   4.265   2.075
 3668TIP3   OH210967   5.046   6.359   0.401
 3668TIP3    H110968   5.099   6.439   0.407
 3668TIP3    H210969   4.966   6.387   0.355
 3669TIP3   OH210970   3.423   2.663   0.414
 3669TIP3    H110971   3.497   2.677   0.355
 3669TIP3    H210972   3.346   2.689   0.363
 3670TIP3   OH210973   4.727   3.483   3.385
 3670TIP3    H110974   4.808   3.535   3.382
 3670TIP3    H210975   4.659   3.544   3.356
 3671TIP3   OH210976   2.492   4.061   4.206
 3671TIP3    H110977   2.457   4.111   4.133
 3671TIP3    H210978   2.546   3.993   4.165
 3672TIP3   OH210979   2.575   2.733   0.341
 3672TIP3    H110980   2.597   2.687   0.423
 3672TIP3    H210981   2.483   2.713   0.326
 3673TIP3   OH210982   5.845   2.083   3.762
 3673TIP3    H110983   5.847   2.005   3.816
 3673TIP3    H210984   5.937   2.108   3.753
 3674TIP3   OH210985   4.685   1.743   3.918
 3674TIP3    H110986   4.627   1.815   3.943
 3674TIP3    H210987   4.637   1.664   3.945
 3675TIP3   OH210988   5.393   2.168   5.847
 3675TIP3    H110989   5.381   2.078   5.878
 3675TIP3    H210990   5.400   2.160   5.752
 3676TIP3   OH210991   2.180   3.188   0.281
 3676TIP3    H110992   2.120   3.224   0.216
 3676TIP3    H210993   2.169   3.244   0.358
 3677TIP3   OH210994   3.392   3.582   4.467
 3677TIP3    H110995   3.345   3.599   4.549
 3677TIP3    H210996   3.466   3.528   4.493
 3678TIP3   OH210997   0.249   4.294   1.334
 3678TIP3    H110998   0.164   4.337   1.326
 3678TIP3    H210999   0.298   4.348   1.396
 3679TIP3   OH211000   5.148   4.678   1.196
 3679TIP3    H111001   5.216   4.734   1.159
 3679TIP3    H211002   5.174   4.589   1.171
 3680TIP3   OH211003   2.343   5.645   4.184
 3680TIP3    H111004   2.350   5.737   4.161
 3680TIP3    H211005   2.322   5.601   4.102
 3681TIP3   OH211006   2.594  -0.003   0.958
 3681TIP3    H111007   2.597   0.087   0.925
 3681TIP3    H211008   2.501  -0.024   0.961
 3682TIP3   OH211009   1.453   4.447   5.051
 3682TIP3    H111010   1.357   4.442   5.046
 3682TIP3    H211011   1.475   4.396   5.129
 3683TIP3   OH211012   7.186   6.664   0.669
 3683TIP3    H111013   7.230   6.612   0.736
 3683TIP3    H211014   7.252   6.725   0.638
 3684TIP3   OH211015   5.283   4.644   5.804
 3684TIP3    H111016   5.213   4.705   5.780
 3684TIP3    H211017   5.257   4.610   5.889
 3685TIP3   OH211018   1.392   6.134   5.632
 3685TIP3    H111019   1.450   6.104   5.562
 3685TIP3    H211020   1.305   6.137   5.592
 3686TIP3   OH211021   2.816   0.573   0.573
 3686TIP3    H111022   2.813   0.660   0.615
 3686TIP3    H211023   2.758   0.519   0.626
 3687TIP3   OH211024   2.069   6.551   2.206
 3687TIP3    H111025   1.987   6.591   2.235
 3687TIP3    H211026   2.118   6.623   2.167
 3688TIP3   OH211027   4.206   4.394   4.626
 3688TIP3    H111028   4.236   4.447   4.552
 3688TIP3    H211029   4.207   4.453   4.701
 3689TIP3   OH211030   4.523   1.097   3.380
 3689TIP3    H111031   4.479   1.099   3.294
 3689TIP3    H211032   4.506   1.183   3.417
 3690TIP3   OH211033   5.158   1.453   0.938
 3690TIP3    H111034   5.081   1.494   0.898
 3690TIP3    H211035   5.125   1.370   0.974
 3691TIP3   OH211036   1.155   2.725   3.943
 3691TIP3    H111037   1.179   2.786   3.874
 3691TIP3    H211038   1.236   2.710   3.991
 3692TIP3   OH211039   6.072   4.520   2.827
 3692TIP3    H111040   6.152   4.482   2.863
 3692TIP3    H211041   6.026   4.446   2.787
 3693TIP3   OH211042   6.650   2.228   0.016
 3693TIP3    H111043   6.566   2.261   0.047
 3693TIP3    H211044   6.711   2.300   0.030
 3694TIP3   OH211045   5.340   5.349   1.531
 3694TIP3    H111046   5.312   5.360   1.621
 3694TIP3    H211047   5.376   5.261   1.528
 3695TIP3   OH211048   4.513   4.780   4.498
 3695TIP3    H111049   4.510   4.720   4.572
 3695TIP3    H211050   4.605   4.806   4.491
 3696TIP3   OH211051   2.574   2.614   4.367
 3696TIP3    H111052   2.643   2.572   4.316
 3696TIP3    H211053   2.584   2.707   4.349
 3697TIP3   OH211054   1.311   1.094   2.952
 3697TIP3    H111055   1.361   1.091   3.034
 3697TIP3    H211056   1.296   1.187   2.937
 3698TIP3   OH211057   7.134   1.796   4.028
 3698TIP3    H111058   7.099   1.875   4.069
 3698TIP3    H211059   7.068   1.729   4.044
 3699TIP3   OH211060   3.369   4.454   5.566
 3699TIP3    H111061   3.278   4.449   5.535
 3699TIP3    H211062   3.365   4.514   5.641
 3700TIP3   OH211063   3.572   1.605   5.292
 3700TIP3    H111064   3.624   1.681   5.266
 3700TIP3    H211065   3.620   1.530   5.258
 3701TIP3   OH211066   3.336   2.417   3.521
 3701TIP3    H111067   3.414   2.361   3.515
 3701TIP3    H211068   3.271   2.363   3.566
 3702TIP3   OH211069   1.102   4.410   2.964
 3702TIP3    H111070   1.027   4.374   3.012
 3702TIP3    H211071   1.174   4.407   3.028
 3703TIP3   OH211072   4.684   6.636   5.220
 3703TIP3    H111073   4.595   6.600   5.224
 3703TIP3    H211074   4.699   6.674   5.306
 3704TIP3   OH211075   6.565   4.615   2.211
 3704TIP3    H111076   6.475   4.614   2.181
 3704TIP3    H211077   6.611   4.673   2.150
 3705TIP3   OH211078   2.937   4.088   1.561
 3705TIP3    H111079   2.855   4.048   1.533
 3705TIP3    H211080   2.969   4.032   1.631
 3706TIP3   OH211081   3.395   5.308   4.102
 3706TIP3    H111082   3.396   5.341   4.012
 3706TIP3    H211083   3.303   5.286   4.119
 3707TIP3   OH211084   3.494   0.362   4.407
 3707TIP3    H111085   3.575   0.385   4.361
 3707TIP3    H211086   3.505   0.399   4.494
 3708TIP3   OH211087   5.939   3.887   0.441
 3708TIP3    H111088   5.966   3.886   0.349
 3708TIP3    H211089   6.007   3.838   0.487
 3709TIP3   OH211090   0.411   5.171   4.460
 3709TIP3    H111091   0.501   5.138   4.450
 3709TIP3    H211092   0.357   5.105   4.416
 3710TIP3   OH211093   4.009   3.257  -0.031
 3710TIP3    H111094   4.094   3.292  -0.004
 3710TIP3    H211095   3.949   3.286   0.036
 3711TIP3   OH211096   5.205   2.321   0.632
 3711TIP3    H111097   5.285   2.328   0.684
 3711TIP3    H211098   5.160   2.245   0.669
 3712TIP3   OH211099   6.118   6.040   4.083
 3712TIP3    H111100   6.114   6.102   4.010
 3712TIP3    H211101   6.207   6.007   4.082
 3713TIP3   OH211102   3.326   3.955   1.861
 3713TIP3    H111103   3.251   3.930   1.915
 3713TIP3    H211104   3.402   3.941   1.918
 3714TIP3   OH211105   1.490   4.098   5.917
 3714TIP3    H111106   1.555   4.029   5.903
 3714TIP3    H211107   1.490   4.148   5.836
 3715TIP3   OH211108   0.521   3.640   4.771
 3715TIP3    H111109   0.463   3.715   4.767
 3715TIP3    H211110   0.605   3.672   4.737
 3716TIP3   OH211111   1.646   6.543   4.622
 3716TIP3    H111112   1.656   6.454   4.655
 3716TIP3    H211113   1.646   6.597   4.701
 3717TIP3   OH211114   5.128   2.036   3.402
 3717TIP3    H111115   5.196   2.068   3.344
 3717TIP3    H211116   5.156   2.062   3.490
 3718TIP3   OH211117   6.685   1.521   1.806
 3718TIP3    H111118   6.647   1.608   1.822
 3718TIP3    H211119   6.619   1.476   1.754
 3719TIP3   OH211120   3.747   0.453   1.657
 3719TIP3    H111121   3.685   0.521   1.629
 3719TIP3    H211122   3.743   0.388   1.587
 3720TIP3   OH211123   4.489   3.378   5.519
 3720TIP3    H111124   4.509   3.345   5.432
 3720TIP3    H211125   4.532   3.318   5.579
 3721TIP3   OH211126   1.770   5.235   4.941
 3721TIP3    H111127   1.776   5.149   4.981
 3721TIP3    H211128   1.839   5.287   4.983
 3722TIP3   OH211129   1.922   0.320   5.681
 3722TIP3    H111130   2.000   0.273   5.710
 3722TIP3    H211131   1.885   0.266   5.612
 3723TIP3   OH211132   2.433   2.994   3.869
 3723TIP3    H111133   2.482   2.980   3.788
 3723TIP3    H211134   2.433   2.909   3.913
 3724TIP3   OH211135   6.257   1.215   1.264
 3724TIP3    H111136   6.193   1.262   1.210
 3724TIP3    H211137   6.239   1.245   1.353
 3725TIP3   OH211138   1.753   3.957   2.816
 3725TIP3    H111139   1.705   4.020   2.870
 3725TIP3    H211140   1.818   4.010   2.770
 3726TIP3   OH211141   2.284   2.589   4.447
 3726TIP3    H111142   2.364   2.600   4.395
 3726TIP3    H211143   2.218   2.639   4.400
 3727TIP3   OH211144   4.684   1.397   4.526
 3727TIP3    H111145   4.748   1.327   4.539
 3727TIP3    H211146   4.618   1.382   4.594
 3728TIP3   OH211147   6.503   2.005   0.595
 3728TIP3    H111148   6.587   1.973   0.562
 3728TIP3    H211149   6.501   1.978   0.687
 3729TIP3   OH211150   0.862   3.274   4.045
 3729TIP3    H111151   0.875   3.188   4.004
 3729TIP3    H211152   0.868   3.336   3.972
 3730TIP3   OH211153   5.002   3.367   0.275
 3730TIP3    H111154   4.943   3.310   0.322
 3730TIP3    H211155   5.006   3.330   0.186
 3731TIP3   OH211156   2.185   2.133   1.500
 3731TIP3    H111157   2.179   2.111   1.407
 3731TIP3    H211158   2.270   2.099   1.528
 3732TIP3   OH211159   3.131   0.620   3.097
 3732TIP3    H111160   3.059   0.618   3.034
 3732TIP3    H211161   3.207   0.647   3.046
 3733TIP3   OH211162   3.173   6.712   0.571
 3733TIP3    H111163   3.165   6.626   0.610
 3733TIP3    H211164   3.092   6.723   0.520
 3734TIP3   OH211165   6.955   1.576   5.882
 3734TIP3    H111166   6.917   1.528   5.809
 3734TIP3    H211167   7.011   1.642   5.840
 3735TIP3   OH211168   4.430   4.318   5.184
 3735TIP3    H111169   4.520   4.344   5.204
 3735TIP3    H211170   4.376   4.384   5.228
 3736TIP3   OH211171   2.420   4.510   1.492
 3736TIP3    H111172   2.455   4.500   1.403
 3736TIP3    H211173   2.496   4.497   1.549
 3737TIP3   OH211174   6.828   0.300   2.064
 3737TIP3    H111175   6.872   0.384   2.049
 3737TIP3    H211176   6.899   0.236   2.068
 3738TIP3   OH211177   0.430   4.412   1.520
 3738TIP3    H111178   0.474   4.362   1.589
 3738TIP3    H211179   0.447   4.503   1.543
 3739TIP3   OH211180   5.568   1.946   4.827
 3739TIP3    H111181   5.636   2.011   4.842
 3739TIP3    H211182   5.493   1.976   4.879
 3740TIP3   OH211183   2.126   5.317   3.517
 3740TIP3    H111184   2.083   5.336   3.434
 3740TIP3    H211185   2.086   5.236   3.547
 3741TIP3   OH211186   2.737   5.883   1.261
 3741TIP3    H111187   2.758   5.973   1.284
 3741TIP3    H211188   2.721   5.840   1.345
 3742TIP3   OH211189   2.991   3.649   1.398
 3742TIP3    H111190   3.043   3.676   1.322
 3742TIP3    H211191   3.047   3.588   1.445
 3743TIP3   OH211192   1.398   0.900   5.697
 3743TIP3    H111193   1.323   0.931   5.747
 3743TIP3    H211194   1.359   0.858   5.620
 3744TIP3   OH211195   6.855   1.280   3.356
 3744TIP3    H111196   6.907   1.304   3.433
 3744TIP3    H211197   6.917   1.233   3.299
 3745TIP3   OH211198   0.118   2.719   4.659
 3745TIP3    H111199   0.025   2.719   4.680
 3745TIP3    H211200   0.131   2.639   4.608
 3746TIP3   OH211201   5.615   1.601   5.596
 3746TIP3    H111202   5.684   1.543   5.564
 3746TIP3    H211203   5.656   1.688   5.597
 3747TIP3   OH211204   0.080   2.308   4.257
 3747TIP3    H111205   0.150   2.245   4.271
 3747TIP3    H211206   0.032   2.275   4.181
 3748TIP3   OH211207   6.650   0.748   1.465
 3748TIP3    H111208   6.634   0.660   1.430
 3748TIP3    H211209   6.563   0.787   1.470
 3749TIP3   OH211210   4.112   5.550   2.503
 3749TIP3    H111211   4.113   5.638   2.540
 3749TIP3    H211212   4.196   5.542   2.459
 3750TIP3   OH211213   4.742   5.330   2.152
 3750TIP3    H111214   4.836   5.348   2.161
 3750TIP3    H211215   4.713   5.311   2.242
 3751TIP3   OH211216   1.823   5.727   2.276
 3751TIP3    H111217   1.751   5.694   2.223
 3751TIP3    H211218   1.884   5.653   2.282
 3752TIP3   OH211219   2.658   6.457   5.360
 3752TIP3    H111220   2.645   6.487   5.270
 3752TIP3    H211221   2.742   6.495   5.386
 3753TIP3   OH211222   6.434   2.840   3.526
 3753TIP3    H111223   6.500   2.908   3.541
 3753TIP3    H211224   6.373   2.849   3.598
 3754TIP3   OH211225   6.641   0.992   3.016
 3754TIP3    H111226   6.547   0.999   3.035
 3754TIP3    H211227   6.658   1.063   2.954
 3755TIP3   OH211228   1.855   0.757   5.742
 3755TIP3    H111229   1.788   0.704   5.698
 3755TIP3    H211230   1.814   0.785   5.824
 3756TIP3   OH211231   2.463   2.701   2.399
 3756TIP3    H111232   2.432   2.613   2.419
 3756TIP3    H211233   2.548   2.707   2.443
 3757TIP3   OH211234   2.902   0.131   0.297
 3757TIP3    H111235   2.877   0.196   0.231
 3757TIP3    H211236   2.916   0.183   0.377
 3758TIP3   OH211237   4.167   0.550   1.011
 3758TIP3    H111238   4.182   0.458   1.035
 3758TIP3    H211239   4.254   0.583   0.990
 3759TIP3   OH211240   3.758   3.515   5.546
 3759TIP3    H111241   3.772   3.539   5.455
 3759TIP3    H211242   3.841   3.474   5.573
 3760TIP3   OH211243   6.419   4.162   3.027
 3760TIP3    H111244   6.500   4.172   3.077
 3760TIP3    H211245   6.363   4.108   3.083
 3761TIP3   OH211246   2.624   2.142   5.502
 3761TIP3    H111247   2.623   2.093   5.420
 3761TIP3    H211248   2.707   2.191   5.500
 3762TIP3   OH211249   6.856   6.580   4.414
 3762TIP3    H111250   6.827   6.491   4.433
 3762TIP3    H211251   6.952   6.575   4.418
 3763TIP3   OH211252   3.656   5.906   4.656
 3763TIP3    H111253   3.684   5.891   4.746
 3763TIP3    H211254   3.733   5.944   4.613
 3764TIP3   OH211255   1.350   3.593   4.641
 3764TIP3    H111256   1.338   3.519   4.700
 3764TIP3    H211257   1.422   3.643   4.680
 3765TIP3   OH211258   3.642   5.598   4.820
 3765TIP3    H111259   3.662   5.692   4.827
 3765TIP3    H211260   3.564   5.595   4.764
 3766TIP3   OH211261   2.068   2.618   1.802
 3766TIP3    H111262   2.070   2.523   1.792
 3766TIP3    H211263   2.126   2.651   1.733
 3767TIP3   OH211264   5.495   4.366   3.662
 3767TIP3    H111265   5.573   4.419   3.652
 3767TIP3    H211266   5.486   4.320   3.578
 3768TIP3   OH211267   6.749   2.481   3.076
 3768TIP3    H111268   6.773   2.391   3.096
 3768TIP3    H211269   6.653   2.482   3.086
 3769TIP3   OH211270   1.047   0.451   5.827
 3769TIP3    H111271   1.096   0.416   5.902
 3769TIP3    H211272   1.036   0.376   5.769
 3770TIP3   OH211273   5.137   1.964   3.104
 3770TIP3    H111274   5.115   1.945   3.195
 3770TIP3    H211275   5.203   1.898   3.081
 3771TIP3   OH211276   3.350   5.992   5.514
 3771TIP3    H111277   3.442   5.996   5.487
 3771TIP3    H211278   3.352   6.007   5.608
 3772TIP3   OH211279   0.776   2.725   3.551
 3772TIP3    H111280   0.765   2.747   3.644
 3772TIP3    H211281   0.793   2.631   3.551
 3773TIP3   OH211282   6.046   2.138   2.438
 3773TIP3    H111283   5.990   2.198   2.390
 3773TIP3    H211284   6.006   2.130   2.525
 3774TIP3   OH211285   0.832   1.560   3.201
 3774TIP3    H111286   0.888   1.496   3.155
 3774TIP3    H211287   0.743   1.533   3.179
 3775TIP3   OH211288   0.152   5.884   1.333
 3775TIP3    H111289   0.066   5.924   1.329
 3775TIP3    H211290   0.203   5.941   1.390
 3776TIP3   OH211291   3.103   1.614   0.837
 3776TIP3    H111292   3.071   1.545   0.895
 3776TIP3    H211293   3.179   1.650   0.883
 3777TIP3   OH211294   2.972   4.933   1.423
 3777TIP3    H111295   2.904   4.866   1.418
 3777TIP3    H211296   2.925   5.016   1.412
 3778TIP3   OH211297   0.258   3.232   5.621
 3778TIP3    H111298   0.213   3.237   5.537
 3778TIP3    H211299   0.334   3.177   5.605
 3779TIP3   OH211300   7.181   1.123   1.979
 3779TIP3    H111301   7.241   1.186   2.018
 3779TIP3    H211302   7.192   1.135   1.884
 3780TIP3   OH211303   4.860   0.989   2.257
 3780TIP3    H111304   4.900   0.954   2.337
 3780TIP3    H211305   4.788   1.044   2.289
 3781TIP3   OH211306   3.579   6.662   2.829
 3781TIP3    H111307   3.622   6.742   2.799
 3781TIP3    H211308   3.615   6.646   2.916
 3782TIP3   OH211309   6.220   2.108   1.781
 3782TIP3    H111310   6.226   2.016   1.756
 3782TIP3    H211311   6.284   2.152   1.727
 3783TIP3   OH211312   5.067   2.010   2.319
 3783TIP3    H111313   5.098   2.097   2.342
 3783TIP3    H211314   5.084   1.957   2.397
 3784TIP3   OH211315   3.504   0.225   5.266
 3784TIP3    H111316   3.466   0.156   5.212
 3784TIP3    H211317   3.433   0.289   5.278
 3785TIP3   OH211318   3.493   5.053   0.486
 3785TIP3    H111319   3.413   5.073   0.437
 3785TIP3    H211320   3.516   4.964   0.458
 3786TIP3   OH211321   4.704   0.413   0.420
 3786TIP3    H111322   4.779   0.457   0.460
 3786TIP3    H211323   4.738   0.328   0.392
 3787TIP3   OH211324   6.780   5.947   4.203
 3787TIP3    H111325   6.750   5.937   4.293
 3787TIP3    H211326   6.808   5.859   4.178
 3788TIP3   OH211327   1.296   1.100   0.403
 3788TIP3    H111328   1.257   1.134   0.483
 3788TIP3    H211329   1.236   1.127   0.334
 3789TIP3   OH211330   3.812   4.365   3.798
 3789TIP3    H111331   3.824   4.453   3.762
 3789TIP3    H211332   3.767   4.317   3.729
 3790TIP3   OH211333   0.056   6.214   3.302
 3790TIP3    H111334   0.068   6.151   3.231
 3790TIP3    H211335   0.096   6.171   3.378
 3791TIP3   OH211336   5.860   0.158   0.455
 3791TIP3    H111337   5.903   0.208   0.385
 3791TIP3    H211338   5.927   0.149   0.523
 3792TIP3   OH211339   6.500   3.051   3.962
 3792TIP3    H111340   6.423   3.023   4.012
 3792TIP3    H211341   6.489   3.011   3.876
 3793TIP3   OH211342   7.049   2.999   0.909
 3793TIP3    H111343   7.009   2.962   0.831
 3793TIP3    H211344   7.142   2.977   0.902
 3794TIP3   OH211345   5.407   1.184   3.830
 3794TIP3    H111346   5.476   1.231   3.783
 3794TIP3    H211347   5.328   1.236   3.815
 3795TIP3   OH211348   1.459   3.934   2.797
 3795TIP3    H111349   1.479   3.876   2.724
 3795TIP3    H211350   1.470   4.022   2.761
 3796TIP3   OH211351   4.190   1.138   3.805
 3796TIP3    H111352   4.225   1.076   3.741
 3796TIP3    H211353   4.268   1.178   3.844
 3797TIP3   OH211354   5.028   4.897   4.498
 3797TIP3    H111355   4.934   4.915   4.493
 3797TIP3    H211356   5.045   4.840   4.424
 3798TIP3   OH211357   2.861   2.628   2.705
 3798TIP3    H111358   2.771   2.597   2.714
 3798TIP3    H211359   2.904   2.601   2.785
 3799TIP3   OH211360   7.023   6.762   5.620
 3799TIP3    H111361   7.119   6.764   5.621
 3799TIP3    H211362   7.001   6.673   5.593
 3800TIP3   OH211363   1.774   3.443   5.380
 3800TIP3    H111364   1.694   3.390   5.373
 3800TIP3    H211365   1.761   3.513   5.315
 3801TIP3   OH211366   3.442   3.110   2.896
 3801TIP3    H111367   3.485   3.190   2.864
 3801TIP3    H211368   3.421   3.129   2.988
 3802TIP3   OH211369   2.788   2.195   4.840
 3802TIP3    H111370   2.806   2.150   4.758
 3802TIP3    H211371   2.694   2.213   4.837
 3803TIP3   OH211372   1.175   6.471   1.428
 3803TIP3    H111373   1.080   6.467   1.417
 3803TIP3    H211374   1.194   6.564   1.435
 3804TIP3   OH211375   1.439   4.426   0.973
 3804TIP3    H111376   1.467   4.343   0.936
 3804TIP3    H211377   1.520   4.476   0.985
 3805TIP3   OH211378   0.861   2.943   1.739
 3805TIP3    H111379   0.826   3.019   1.785
 3805TIP3    H211380   0.925   2.979   1.678
 3806TIP3   OH211381   3.171   4.513   3.068
 3806TIP3    H111382   3.089   4.466   3.077
 3806TIP3    H211383   3.147   4.596   3.026
 3807TIP3   OH211384   3.785   0.822   3.543
 3807TIP3    H111385   3.766   0.798   3.453
 3807TIP3    H211386   3.870   0.781   3.562
 3808TIP3   OH211387   6.575   3.689   3.887
 3808TIP3    H111388   6.602   3.604   3.922
 3808TIP3    H211389   6.598   3.685   3.794
 3809TIP3   OH211390   7.060   2.831   0.695
 3809TIP3    H111391   7.035   2.739   0.699
 3809TIP3    H211392   7.156   2.830   0.695
 3810TIP3   OH211393   1.633   1.609   2.033
 3810TIP3    H111394   1.649   1.541   1.967
 3810TIP3    H211395   1.690   1.585   2.106
 3811TIP3   OH211396   6.778   4.689   1.136
 3811TIP3    H111397   6.855   4.734   1.102
 3811TIP3    H211398   6.732   4.658   1.058
 3812TIP3   OH211399   3.680   3.858   0.152
 3812TIP3    H111400   3.754   3.804   0.124
 3812TIP3    H211401   3.624   3.797   0.201
 3813TIP3   OH211402   6.771   0.322   4.699
 3813TIP3    H111403   6.747   0.282   4.616
 3813TIP3    H211404   6.689   0.352   4.737
 3814TIP3   OH211405   4.110   5.543   1.226
 3814TIP3    H111406   4.062   5.480   1.173
 3814TIP3    H211407   4.103   5.626   1.179
 3815TIP3   OH211408   5.983   5.251   5.007
 3815TIP3    H111409   5.977   5.343   4.982
 3815TIP3    H211410   6.020   5.207   4.930
 3816TIP3   OH211411   0.142   0.187   2.782
 3816TIP3    H111412   0.176   0.274   2.762
 3816TIP3    H211413   0.190   0.129   2.722
 3817TIP3   OH211414   4.975   2.535   1.208
 3817TIP3    H111415   5.042   2.509   1.145
 3817TIP3    H211416   4.929   2.454   1.229
 3818TIP3   OH211417   4.708   1.281   3.151
 3818TIP3    H111418   4.643   1.303   3.084
 3818TIP3    H211419   4.682   1.332   3.227
 3819TIP3   OH211420   4.301   4.562   5.274
 3819TIP3    H111421   4.272   4.650   5.298
 3819TIP3    H211422   4.289   4.510   5.354
 3820TIP3   OH211423   2.389   6.771   2.209
 3820TIP3    H111424   2.411   6.692   2.259
 3820TIP3    H211425   2.311   6.747   2.160
 3821TIP3   OH211426   0.848   1.042   2.463
 3821TIP3    H111427   0.918   0.977   2.459
 3821TIP3    H211428   0.789   1.010   2.531
 3822TIP3   OH211429   2.103   0.883   1.770
 3822TIP3    H111430   2.158   0.953   1.805
 3822TIP3    H211431   2.110   0.813   1.834
 3823TIP3   OH211432   0.780   0.634   0.687
 3823TIP3    H111433   0.781   0.683   0.605
 3823TIP3    H211434   0.749   0.696   0.753
 3824TIP3   OH211435   4.549   2.839   2.726
 3824TIP3    H111436   4.531   2.929   2.756
 3824TIP3    H211437   4.640   2.824   2.750
 3825TIP3   OH211438   1.358   1.361   1.383
 3825TIP3    H111439   1.376   1.321   1.298
 3825TIP3    H211440   1.335   1.451   1.363
 3826TIP3   OH211441   3.899   6.036   2.696
 3826TIP3    H111442   3.988   6.071   2.696
 3826TIP3    H211443   3.847   6.101   2.648
 3827TIP3   OH211444   0.041   1.946   1.602
 3827TIP3    H111445   0.089   1.893   1.666
 3827TIP3    H211446   0.008   1.883   1.539
 3828TIP3   OH211447   5.005   2.161   3.823
 3828TIP3    H111448   5.029   2.179   3.914
 3828TIP3    H211449   4.938   2.093   3.829
 3829TIP3   OH211450   3.753   5.744   5.280
 3829TIP3    H111451   3.825   5.740   5.217
 3829TIP3    H211452   3.674   5.742   5.226
 3830TIP3   OH211453   0.622   2.717   1.065
 3830TIP3    H111454   0.667   2.770   0.999
 3830TIP3    H211455   0.584   2.644   1.016
 3831TIP3   OH211456   2.859   3.464   3.576
 3831TIP3    H111457   2.940   3.499   3.613
 3831TIP3    H211458   2.867   3.481   3.482
 3832TIP3   OH211459   5.835   2.356   3.921
 3832TIP3    H111460   5.786   2.317   3.993
 3832TIP3    H211461   5.872   2.281   3.874
 3833TIP3   OH211462   3.713   0.429   4.253
 3833TIP3    H111463   3.791   0.470   4.290
 3833TIP3    H211464   3.747   0.358   4.198
 3834TIP3   OH211465   5.387   6.504   4.495
 3834TIP3    H111466   5.459   6.553   4.454
 3834TIP3    H211467   5.382   6.423   4.445
 3835TIP3   OH211468   1.340   2.515   0.267
 3835TIP3    H111469   1.415   2.559   0.305
 3835TIP3    H211470   1.269   2.529   0.329
 3836TIP3   OH211471   6.324   4.933   1.330
 3836TIP3    H111472   6.277   4.852   1.313
 3836TIP3    H211473   6.305   4.952   1.422
 3837TIP3   OH211474   4.954   2.503   0.626
 3837TIP3    H111475   5.017   2.430   0.627
 3837TIP3    H211476   5.005   2.579   0.655
 3838TIP3   OH211477   3.781   0.421   0.168
 3838TIP3    H111478   3.801   0.480   0.241
 3838TIP3    H211479   3.858   0.364   0.162
 3839TIP3   OH211480   6.846   0.753   5.368
 3839TIP3    H111481   6.869   0.818   5.302
 3839TIP3    H211482   6.928   0.735   5.414
 3840TIP3   OH211483   4.239   6.357   2.533
 3840TIP3    H111484   4.195   6.367   2.448
 3840TIP3    H211485   4.288   6.439   2.544
 3841TIP3   OH211486   5.973   3.464   1.356
 3841TIP3    H111487   5.963   3.378   1.316
 3841TIP3    H211488   5.900   3.471   1.418
 3842TIP3   OH211489   2.418   2.204   4.668
 3842TIP3    H111490   2.485   2.138   4.681
 3842TIP3    H211491   2.459   2.269   4.610
 3843TIP3   OH211492   3.388   3.658   3.022
 3843TIP3    H111493   3.472   3.703   3.011
 3843TIP3    H211494   3.346   3.703   3.095
 3844TIP3   OH211495   6.556   0.342   2.036
 3844TIP3    H111496   6.565   0.359   1.942
 3844TIP3    H211497   6.645   0.333   2.068
 3845TIP3   OH211498   0.585   4.539   0.107
 3845TIP3    H111499   0.643   4.615   0.114
 3845TIP3    H211500   0.595   4.493   0.190
 3846TIP3   OH211501   7.113   0.912   5.260
 3846TIP3    H111502   7.097   0.895   5.353
 3846TIP3    H211503   7.026   0.921   5.222
 3847TIP3   OH211504   0.646   5.168   3.660
 3847TIP3    H111505   0.720   5.185   3.717
 3847TIP3    H211506   0.573   5.151   3.719
 3848TIP3   OH211507   5.439   6.749   0.194
 3848TIP3    H111508   5.427   6.684   0.263
 3848TIP3    H211509   5.377   6.819   0.215
 3849TIP3   OH211510   7.149   4.230   3.073
 3849TIP3    H111511   7.152   4.322   3.099
 3849TIP3    H211512   7.057   4.205   3.085
 3850TIP3   OH211513   0.056   2.634   4.976
 3850TIP3    H111514   0.067   2.556   4.921
 3850TIP3    H211515   0.134   2.634   5.032
 3851TIP3   OH211516   3.217   0.146   4.193
 3851TIP3    H111517   3.248   0.231   4.224
 3851TIP3    H211518   3.135   0.165   4.146
 3852TIP3   OH211519   6.887   1.288   4.450
 3852TIP3    H111520   6.892   1.350   4.523
 3852TIP3    H211521   6.885   1.343   4.371
 3853TIP3   OH211522   1.806   0.463   3.654
 3853TIP3    H111523   1.787   0.377   3.617
 3853TIP3    H211524   1.722   0.509   3.651
 3854TIP3   OH211525   3.915   1.063   1.025
 3854TIP3    H111526   3.968   1.073   0.946
 3854TIP3    H211527   3.846   1.001   1.001
 3855TIP3   OH211528   6.318   3.581   4.136
 3855TIP3    H111529   6.385   3.649   4.150
 3855TIP3    H211530   6.272   3.575   4.219
 3856TIP3   OH211531   1.060   5.879   3.473
 3856TIP3    H111532   1.053   5.972   3.451
 3856TIP3    H211533   1.138   5.873   3.528
 3857TIP3   OH211534   2.665   3.356   0.894
 3857TIP3    H111535   2.607   3.428   0.869
 3857TIP3    H211536   2.674   3.304   0.814
 3858TIP3   OH211537   1.940   4.538   1.372
 3858TIP3    H111538   1.942   4.451   1.411
 3858TIP3    H211539   1.847   4.558   1.361
 3859TIP3   OH211540   5.476   6.549   4.897
 3859TIP3    H111541   5.428   6.592   4.968
 3859TIP3    H211542   5.474   6.613   4.826
 3860TIP3   OH211543   4.178   6.068   5.390
 3860TIP3    H111544   4.092   6.052   5.351
 3860TIP3    H211545   4.161   6.080   5.483
 3861TIP3   OH211546   6.823   0.439   0.814
 3861TIP3    H111547   6.871   0.459   0.733
 3861TIP3    H211548   6.732   0.458   0.793
 3862TIP3   OH211549   5.935   6.221   0.068
 3862TIP3    H111550   6.029   6.212   0.054
 3862TIP3    H211551   5.895   6.164   0.003
 3863TIP3   OH211552   4.019   1.122   2.557
 3863TIP3    H111553   3.998   1.159   2.642
 3863TIP3    H211554   3.989   1.031   2.563
 3864TIP3   OH211555   3.894   0.306   1.821
 3864TIP3    H111556   3.876   0.212   1.822
 3864TIP3    H211557   3.833   0.340   1.755
 3865TIP3   OH211558   3.053   3.094   2.999
 3865TIP3    H111559   3.064   3.052   2.913
 3865TIP3    H211560   3.037   3.021   3.059
 3866TIP3   OH211561   4.150   3.484   1.358
 3866TIP3    H111562   4.244   3.491   1.341
 3866TIP3    H211563   4.134   3.542   1.432
 3867TIP3   OH211564   6.837   5.838   0.228
 3867TIP3    H111565   6.887   5.756   0.226
 3867TIP3    H211566   6.765   5.819   0.289
 3868TIP3   OH211567   4.913   4.958   0.542
 3868TIP3    H111568   4.838   4.998   0.585
 3868TIP3    H211569   4.988   5.012   0.569
 3869TIP3   OH211570   5.210   4.493   3.076
 3869TIP3    H111571   5.256   4.438   3.140
 3869TIP3    H211572   5.197   4.576   3.121
 3870TIP3   OH211573   2.971   4.488   3.644
 3870TIP3    H111574   3.018   4.545   3.705
 3870TIP3    H211575   2.990   4.400   3.676
 3871TIP3   OH211576   6.206   2.022   3.012
 3871TIP3    H111577   6.137   2.076   3.051
 3871TIP3    H211578   6.277   2.025   3.076
 3872TIP3   OH211579   3.297   4.246   4.236
 3872TIP3    H111580   3.316   4.301   4.160
 3872TIP3    H211581   3.203   4.229   4.230
 3873TIP3   OH211582   1.919   4.519   0.553
 3873TIP3    H111583   1.988   4.461   0.521
 3873TIP3    H211584   1.930   4.520   0.648
 3874TIP3   OH211585   5.424   5.271   0.332
 3874TIP3    H111586   5.413   5.197   0.392
 3874TIP3    H211587   5.346   5.325   0.345
 3875TIP3   OH211588   2.433   0.400   5.630
 3875TIP3    H111589   2.369   0.453   5.678
 3875TIP3    H211590   2.450   0.325   5.687
 3876TIP3   OH211591   0.076   5.916   5.308
 3876TIP3    H111592   0.073   6.006   5.341
 3876TIP3    H211593   0.163   5.884   5.331
 3877TIP3   OH211594   2.941   5.016   5.845
 3877TIP3    H111595   2.936   5.110   5.862
 3877TIP3    H211596   2.962   4.978   5.930
 3878TIP3   OH211597   0.200   0.828   1.035
 3878TIP3    H111598   0.262   0.866   0.973
 3878TIP3    H211599   0.254   0.791   1.104
 3879TIP3   OH211600   1.101   3.230   0.188
 3879TIP3    H111601   1.141   3.170   0.250
 3879TIP3    H211602   1.175   3.273   0.145
 3880TIP3   OH211603   4.535   3.091   0.746
 3880TIP3    H111604   4.546   3.031   0.672
 3880TIP3    H211605   4.462   3.148   0.720
 3881TIP3   OH211606   6.150   5.573   1.309
 3881TIP3    H111607   6.077   5.526   1.349
 3881TIP3    H211608   6.211   5.504   1.281
 3882TIP3   OH211609   2.857   2.871   3.349
 3882TIP3    H111610   2.787   2.936   3.339
 3882TIP3    H211611   2.829   2.817   3.423
 3883TIP3   OH211612   2.144   0.129   4.387
 3883TIP3    H111613   2.179   0.047   4.352
 3883TIP3    H211614   2.057   0.106   4.418
 3884TIP3   OH211615   0.224   1.637   1.519
 3884TIP3    H111616   0.221   1.574   1.591
 3884TIP3    H211617   0.301   1.691   1.538
 3885TIP3   OH211618   2.830   4.079   5.197
 3885TIP3    H111619   2.840   3.998   5.247
 3885TIP3    H211620   2.812   4.050   5.108
 3886TIP3   OH211621   3.240   0.961   3.169
 3886TIP3    H111622   3.271   1.051   3.182
 3886TIP3    H211623   3.297   0.909   3.226
 3887TIP3   OH211624   3.610   3.160   0.153
 3887TIP3    H111625   3.588   3.140   0.062
 3887TIP3    H211626   3.600   3.255   0.160
 3888TIP3   OH211627   6.074   1.395   3.408
 3888TIP3    H111628   6.085   1.304   3.434
 3888TIP3    H211629   6.001   1.427   3.461
 3889TIP3   OH211630   0.983   1.627   5.371
 3889TIP3    H111631   0.935   1.709   5.371
 3889TIP3    H211632   1.068   1.649   5.332
 3890TIP3   OH211633   3.324   1.477   5.312
 3890TIP3    H111634   3.308   1.439   5.398
 3890TIP3    H211635   3.411   1.517   5.319
 3891TIP3   OH211636   6.851   4.895   5.397
 3891TIP3    H111637   6.830   4.869   5.307
 3891TIP3    H211638   6.782   4.857   5.450
 3892TIP3   OH211639   3.498   5.759   0.932
 3892TIP3    H111640   3.480   5.673   0.894
 3892TIP3    H211641   3.411   5.794   0.954
 3893TIP3   OH211642   5.542   0.995   3.195
 3893TIP3    H111643   5.457   0.961   3.221
 3893TIP3    H211644   5.604   0.962   3.260
 3894TIP3   OH211645   3.195   0.317   2.031
 3894TIP3    H111646   3.263   0.349   2.090
 3894TIP3    H211647   3.113   0.336   2.076
 3895TIP3   OH211648   3.687   4.062   2.615
 3895TIP3    H111649   3.612   4.111   2.650
 3895TIP3    H211650   3.738   4.128   2.567
 3896TIP3   OH211651   1.600   1.310   5.180
 3896TIP3    H111652   1.613   1.403   5.198
 3896TIP3    H211653   1.685   1.279   5.149
 3897TIP3   OH211654   4.245   5.141   0.951
 3897TIP3    H111655   4.171   5.137   0.891
 3897TIP3    H211656   4.212   5.188   1.028
 3898TIP3   OH211657   2.088   4.196   3.803
 3898TIP3    H111658   2.120   4.170   3.889
 3898TIP3    H211659   2.053   4.284   3.816
 3899TIP3   OH211660   1.447   0.453   1.299
 3899TIP3    H111661   1.372   0.510   1.285
 3899TIP3    H211662   1.523   0.513   1.299
 3900TIP3   OH211663   1.347   2.041   1.958
 3900TIP3    H111664   1.303   2.070   1.879
 3900TIP3    H211665   1.293   2.073   2.030
 3901TIP3   OH211666   6.051   4.624   0.549
 3901TIP3    H111667   6.147   4.628   0.552
 3901TIP3    H211668   6.023   4.715   0.547
 3902TIP3   OH211669   0.070   0.969   3.247
 3902TIP3    H111670   0.018   0.910   3.301
 3902TIP3    H211671   0.013   1.045   3.234
 3903TIP3   OH211672   4.807   4.367   1.696
 3903TIP3    H111673   4.751   4.338   1.768
 3903TIP3    H211674   4.893   4.331   1.715
 3904TIP3   OH211675   0.595   5.862   1.547
 3904TIP3    H111676   0.582   5.832   1.637
 3904TIP3    H211677   0.530   5.815   1.496
 3905TIP3   OH211678   5.542   6.664   5.209
 3905TIP3    H111679   5.460   6.697   5.246
 3905TIP3    H211680   5.592   6.635   5.284
 3906TIP3   OH211681   2.151   5.192   4.067
 3906TIP3    H111682   2.231   5.188   4.015
 3906TIP3    H211683   2.152   5.111   4.119
 3907TIP3   OH211684   5.351   5.079   1.964
 3907TIP3    H111685   5.439   5.065   1.998
 3907TIP3    H211686   5.304   4.998   1.984
 3908TIP3   OH211687   3.887   6.011   4.520
 3908TIP3    H111688   3.886   6.105   4.536
 3908TIP3    H211689   3.971   5.982   4.555
 3909TIP3   OH211690   6.894   1.896   2.434
 3909TIP3    H111691   6.978   1.891   2.480
 3909TIP3    H211692   6.903   1.833   2.362
 3910TIP3   OH211693   0.292   1.243   4.009
 3910TIP3    H111694   0.235   1.180   3.965
 3910TIP3    H211695   0.318   1.198   4.090
 3911TIP3   OH211696   2.602   1.397   0.718
 3911TIP3    H111697   2.533   1.333   0.734
 3911TIP3    H211698   2.683   1.351   0.741
 3912TIP3   OH211699   1.188   5.365   4.802
 3912TIP3    H111700   1.135   5.287   4.817
 3912TIP3    H211701   1.162   5.396   4.715
 3913TIP3   OH211702   3.616  -0.048   1.389
 3913TIP3    H111703   3.671   0.017   1.344
 3913TIP3    H211704   3.555  -0.078   1.321
 3914TIP3   OH211705   1.883   3.344   0.238
 3914TIP3    H111706   1.941   3.386   0.302
 3914TIP3    H211707   1.941   3.318   0.166
 3915TIP3   OH211708   2.157   0.192   5.759
 3915TIP3    H111709   2.244   0.231   5.771
 3915TIP3    H211710   2.171   0.120   5.698
 3916TIP3   OH211711   3.656   4.219   0.764
 3916TIP3    H111712   3.642   4.254   0.852
 3916TIP3    H211713   3.734   4.163   0.773
 3917TIP3   OH211714   0.744   6.255   3.016
 3917TIP3    H111715   0.689   6.177   3.022
 3917TIP3    H211716   0.829   6.227   3.052
 3918TIP3   OH211717   1.568   1.605   5.223
 3918TIP3    H111718   1.543   1.672   5.287
 3918TIP3    H211719   1.610   1.654   5.153
 3919TIP3   OH211720   4.465   5.007   2.391
 3919TIP3    H111721   4.525   4.944   2.432
 3919TIP3    H211722   4.435   4.963   2.312
 3920TIP3   OH211723   5.773   2.010   1.077
 3920TIP3    H111724   5.715   2.076   1.040
 3920TIP3    H211725   5.763   2.020   1.172
 3921TIP3   OH211726   6.384   4.048   2.068
 3921TIP3    H111727   6.376   4.107   2.142
 3921TIP3    H211728   6.475   4.016   2.072
 3922TIP3   OH211729   4.271   0.892   3.971
 3922TIP3    H111730   4.254   0.986   3.979
 3922TIP3    H211731   4.366   0.885   3.964
 3923TIP3   OH211732   5.130   3.302   1.094
 3923TIP3    H111733   5.049   3.251   1.087
 3923TIP3    H211734   5.177   3.283   1.012
 3924TIP3   OH211735   6.527   5.022   4.244
 3924TIP3    H111736   6.467   5.085   4.285
 3924TIP3    H211737   6.592   5.076   4.199
 3925TIP3   OH211738   6.926   1.460   4.644
 3925TIP3    H111739   6.958   1.550   4.639
 3925TIP3    H211740   6.915   1.444   4.738
 3926TIP3   OH211741   3.551   1.326   0.206
 3926TIP3    H111742   3.530   1.418   0.191
 3926TIP3    H211743   3.589   1.323   0.293
 3927TIP3   OH211744   0.856   6.007   5.254
 3927TIP3    H111745   0.879   5.943   5.321
 3927TIP3    H211746   0.917   6.079   5.268
 3928TIP3   OH211747   7.149   4.691   1.403
 3928TIP3    H111748   7.169   4.597   1.397
 3928TIP3    H211749   7.188   4.729   1.324
 3929TIP3   OH211750   4.398   1.284   3.537
 3929TIP3    H111751   4.398   1.247   3.625
 3929TIP3    H211752   4.318   1.336   3.531
 3930TIP3   OH211753   3.962   2.175   5.571
 3930TIP3    H111754   4.047   2.186   5.614
 3930TIP3    H211755   3.916   2.258   5.588
 3931TIP3   OH211756   0.827   3.883   2.628
 3931TIP3    H111757   0.865   3.864   2.714
 3931TIP3    H211758   0.902   3.889   2.569
 3932TIP3   OH211759   4.270   0.492   2.894
 3932TIP3    H111760   4.182   0.519   2.920
 3932TIP3    H211761   4.314   0.574   2.870
 3933TIP3   OH211762   5.859   2.623   2.657
 3933TIP3    H111763   5.925   2.692   2.652
 3933TIP3    H211764   5.902   2.552   2.706
 3934TIP3   OH211765   6.490   1.715   1.386
 3934TIP3    H111766   6.549   1.773   1.433
 3934TIP3    H211767   6.535   1.631   1.382
 3935TIP3   OH211768   2.256   6.056   5.473
 3935TIP3    H111769   2.351   6.044   5.482
 3935TIP3    H211770   2.218   5.977   5.511
 3936TIP3   OH211771   5.380   4.155   5.301
 3936TIP3    H111772   5.332   4.237   5.312
 3936TIP3    H211773   5.359   4.127   5.212
 3937TIP3   OH211774   1.770   1.071   1.783
 3937TIP3    H111775   1.808   1.141   1.731
 3937TIP3    H211776   1.769   1.105   1.872
 3938TIP3   OH211777   2.678   2.855   2.604
 3938TIP3    H111778   2.745   2.798   2.641
 3938TIP3    H211779   2.727   2.923   2.557
 3939TIP3   OH211780   6.234   4.006   0.339
 3939TIP3    H111781   6.191   4.040   0.260
 3939TIP3    H211782   6.325   3.994   0.313
 3940TIP3   OH211783   1.327   2.860   2.826
 3940TIP3    H111784   1.232   2.853   2.830
 3940TIP3    H211785   1.353   2.882   2.916
 3941TIP3   OH211786   6.763   3.362   2.367
 3941TIP3    H111787   6.723   3.411   2.296
 3941TIP3    H211788   6.712   3.281   2.372
 3942TIP3   OH211789   5.794   5.995   4.150
 3942TIP3    H111790   5.801   6.074   4.097
 3942TIP3    H211791   5.848   5.930   4.105
 3943TIP3   OH211792   1.440   0.162   5.709
 3943TIP3    H111793   1.493   0.235   5.678
 3943TIP3    H211794   1.447   0.166   5.804
 3944TIP3   OH211795   7.011   2.694   5.657
 3944TIP3    H111796   7.075   2.670   5.590
 3944TIP3    H211797   7.003   2.789   5.651
 3945TIP3   OH211798   3.469   6.745   3.551
 3945TIP3    H111799   3.489   6.665   3.502
 3945TIP3    H211800   3.554   6.777   3.580
 3946TIP3   OH211801   3.281   0.248   3.279
 3946TIP3    H111802   3.242   0.189   3.344
 3946TIP3    H211803   3.353   0.291   3.326
 3947TIP3   OH211804   2.322   1.709   3.632
 3947TIP3    H111805   2.369   1.750   3.559
 3947TIP3    H211806   2.386   1.651   3.672
 3948TIP3   OH211807   6.528   3.231   2.393
 3948TIP3    H111808   6.433   3.228   2.387
 3948TIP3    H211809   6.545   3.240   2.487
 3949TIP3   OH211810   6.076   5.088   0.400
 3949TIP3    H111811   6.024   5.015   0.434
 3949TIP3    H211812   6.027   5.166   0.425
 3950TIP3   OH211813   4.516   3.100   2.078
 3950TIP3    H111814   4.431   3.074   2.113
 3950TIP3    H211815   4.520   3.195   2.092
 3951TIP3   OH211816   0.114   6.245   4.768
 3951TIP3    H111817   0.059   6.225   4.693
 3951TIP3    H211818   0.126   6.161   4.812
 3952TIP3   OH211819   2.953   1.819   0.113
 3952TIP3    H111820   2.914   1.737   0.082
 3952TIP3    H211821   2.908   1.838   0.195
 3953TIP3   OH211822   1.467   3.411   3.442
 3953TIP3    H111823   1.457   3.458   3.359
 3953TIP3    H211824   1.420   3.464   3.506
 3954TIP3   OH211825   2.832   0.222   3.244
 3954TIP3    H111826   2.879   0.207   3.326
 3954TIP3    H211827   2.785   0.305   3.258
 3955TIP3   OH211828   2.634   1.247   1.132
 3955TIP3    H111829   2.589   1.261   1.215
 3955TIP3    H211830   2.632   1.153   1.119
 3956TIP3   OH211831   1.810   6.155   3.897
 3956TIP3    H111832   1.870   6.132   3.826
 3956TIP3    H211833   1.848   6.233   3.937
 3957TIP3   OH211834   1.874   5.864   3.135
 3957TIP3    H111835   1.860   5.929   3.066
 3957TIP3    H211836   1.835   5.783   3.101
 3958TIP3   OH211837   5.375   3.057   1.134
 3958TIP3    H111838   5.438   3.093   1.197
 3958TIP3    H211839   5.371   3.122   1.064
 3959TIP3   OH211840   1.382   4.925   2.413
 3959TIP3    H111841   1.390   4.993   2.347
 3959TIP3    H211842   1.379   4.973   2.497
 3960TIP3   OH211843   4.177   6.265   5.076
 3960TIP3    H111844   4.101   6.280   5.021
 3960TIP3    H211845   4.194   6.171   5.069
 3961TIP3   OH211846   3.885   1.441   3.167
 3961TIP3    H111847   3.849   1.382   3.100
 3961TIP3    H211848   3.911   1.382   3.238
 3962TIP3   OH211849   6.828   3.510   0.148
 3962TIP3    H111850   6.878   3.432   0.125
 3962TIP3    H211851   6.894   3.575   0.172
 3963TIP3   OH211852   5.153   1.751   2.136
 3963TIP3    H111853   5.137   1.815   2.066
 3963TIP3    H211854   5.083   1.767   2.199
 3964TIP3   OH211855   0.828   6.187   4.744
 3964TIP3    H111856   0.756   6.177   4.806
 3964TIP3    H211857   0.845   6.281   4.741
 3965TIP3   OH211858   6.473   6.524   4.048
 3965TIP3    H111859   6.555   6.502   4.004
 3965TIP3    H211860   6.466   6.619   4.040
 3966TIP3   OH211861   1.763   4.274   4.035
 3966TIP3    H111862   1.678   4.276   3.992
 3966TIP3    H211863   1.799   4.188   4.014
 3967TIP3   OH211864   2.249   1.654   1.162
 3967TIP3    H111865   2.202   1.672   1.081
 3967TIP3    H211866   2.235   1.732   1.216
 3968TIP3   OH211867   1.214   4.384   4.069
 3968TIP3    H111868   1.160   4.334   4.008
 3968TIP3    H211869   1.162   4.462   4.089
 3969TIP3   OH211870   0.573   2.233   2.576
 3969TIP3    H111871   0.636   2.301   2.552
 3969TIP3    H211872   0.487   2.274   2.562
 3970TIP3   OH211873   2.347   0.126   3.739
 3970TIP3    H111874   2.375   0.216   3.721
 3970TIP3    H211875   2.363   0.114   3.833
 3971TIP3   OH211876   2.819   3.681  -0.007
 3971TIP3    H111877   2.858   3.641   0.071
 3971TIP3    H211878   2.772   3.609  -0.050
 3972TIP3   OH211879   1.113   3.646   4.936
 3972TIP3    H111880   1.091   3.594   5.013
 3972TIP3    H211881   1.174   3.591   4.887
 3973TIP3   OH211882   4.418   6.272   5.363
 3973TIP3    H111883   4.449   6.200   5.418
 3973TIP3    H211884   4.368   6.230   5.294
 3974TIP3   OH211885   0.503   2.721   3.199
 3974TIP3    H111886   0.471   2.804   3.163
 3974TIP3    H211887   0.432   2.691   3.256
 3975TIP3   OH211888   4.564   3.382   1.792
 3975TIP3    H111889   4.560   3.410   1.701
 3975TIP3    H211890   4.542   3.288   1.789
 3976TIP3   OH211891   4.340   5.350   3.779
 3976TIP3    H111892   4.393   5.278   3.814
 3976TIP3    H211893   4.255   5.310   3.760
 3977TIP3   OH211894   5.560   0.836   0.241
 3977TIP3    H111895   5.571   0.905   0.175
 3977TIP3    H211896   5.480   0.861   0.287
 3978TIP3   OH211897   5.552   4.424   5.288
 3978TIP3    H111898   5.457   4.435   5.285
 3978TIP3    H211899   5.566   4.356   5.353
 3979TIP3   OH211900   5.570   4.064   3.690
 3979TIP3    H111901   5.605   4.127   3.627
 3979TIP3    H211902   5.475   4.078   3.687
 3980TIP3   OH211903   7.083   2.590   1.340
 3980TIP3    H111904   7.013   2.538   1.302
 3980TIP3    H211905   7.086   2.670   1.287
 3981TIP3   OH211906   1.590   2.573   5.646
 3981TIP3    H111907   1.669   2.520   5.641
 3981TIP3    H211908   1.596   2.620   5.729
 3982TIP3   OH211909   0.256   4.967   2.928
 3982TIP3    H111910   0.163   4.982   2.943
 3982TIP3    H211911   0.289   5.052   2.898
 3983TIP3   OH211912   5.630   5.443   4.952
 3983TIP3    H111913   5.686   5.519   4.965
 3983TIP3    H211914   5.579   5.464   4.874
 3984TIP3   OH211915   1.956   1.716   5.049
 3984TIP3    H111916   2.005   1.766   5.114
 3984TIP3    H211917   1.973   1.761   4.966
 3985TIP3   OH211918   4.622   4.159   2.769
 3985TIP3    H111919   4.650   4.164   2.678
 3985TIP3    H211920   4.618   4.250   2.798
 3986TIP3   OH211921   3.051   3.392   5.004
 3986TIP3    H111922   3.108   3.401   4.928
 3986TIP3    H211923   2.991   3.467   4.998
 3987TIP3   OH211924   5.310   1.017   2.837
 3987TIP3    H111925   5.250   1.021   2.911
 3987TIP3    H211926   5.387   0.972   2.871
 3988TIP3   OH211927   0.639   1.851   1.782
 3988TIP3    H111928   0.712   1.789   1.787
 3988TIP3    H211929   0.681   1.937   1.785
 3989TIP3   OH211930   3.287   2.715   1.787
 3989TIP3    H111931   3.371   2.687   1.751
 3989TIP3    H211932   3.308   2.794   1.836
 3990TIP3   OH211933   1.888   6.538   0.992
 3990TIP3    H111934   1.927   6.566   1.075
 3990TIP3    H211935   1.907   6.610   0.932
 3991TIP3   OH211936   3.061   5.092   0.503
 3991TIP3    H111937   2.985   5.080   0.560
 3991TIP3    H211938   3.083   5.004   0.474
 3992TIP3   OH211939   4.892   5.040   1.297
 3992TIP3    H111940   4.971   5.087   1.323
 3992TIP3    H211941   4.882   5.060   1.203
 3993TIP3   OH211942   7.150   3.610   3.674
 3993TIP3    H111943   7.168   3.652   3.758
 3993TIP3    H211944   7.055   3.615   3.664
 3994TIP3   OH211945   3.181   0.607   4.613
 3994TIP3    H111946   3.193   0.515   4.587
 3994TIP3    H211947   3.179   0.604   4.708
 3995TIP3   OH211948   2.729   3.619   4.697
 3995TIP3    H111949   2.697   3.686   4.758
 3995TIP3    H211950   2.653   3.600   4.641
 3996TIP3   OH211951   1.079   6.518   5.721
 3996TIP3    H111952   1.073   6.591   5.783
 3996TIP3    H211953   1.036   6.552   5.642
 3997TIP3   OH211954   5.105   1.734   1.115
 3997TIP3    H111955   5.104   1.730   1.019
 3997TIP3    H211956   5.061   1.816   1.137
 3998TIP3   OH211957   1.926   6.751   4.934
 3998TIP3    H111958   1.955   6.831   4.978
 3998TIP3    H211959   1.948   6.681   4.995
 3999TIP3   OH211960   5.127   5.117   0.702
 3999TIP3    H111961   5.059   5.156   0.647
 3999TIP3    H211962   5.142   5.182   0.770
 4000TIP3   OH211963   3.521   3.497   0.958
 4000TIP3    H111964   3.472   3.576   0.937
 4000TIP3    H211965   3.565   3.517   1.040
 4001TIP3   OH211966   3.171   4.644   1.428
 4001TIP3    H111967   3.101   4.595   1.385
 4001TIP3    H211968   3.235   4.660   1.359
 4002TIP3   OH211969   0.030   2.072   5.576
 4002TIP3    H111970   0.113   2.025   5.584
 4002TIP3    H211971  -0.036   2.003   5.569
 4003TIP3   OH211972   3.726   6.277   2.643
 4003TIP3    H111973   3.672   6.352   2.668
 4003TIP3    H211974   3.815   6.311   2.641
 4004TIP3   OH211975   3.965   5.591   3.160
 4004TIP3    H111976   3.991   5.521   3.099
 4004TIP3    H211977   3.895   5.553   3.212
 4005TIP3   OH211978   6.351   0.896   3.128
 4005TIP3    H111979   6.407   0.921   3.201
 4005TIP3    H211980   6.296   0.973   3.113
 4006TIP3   OH211981   3.390   4.242   4.762
 4006TIP3    H111982   3.328   4.169   4.763
 4006TIP3    H211983   3.418   4.249   4.671
 4007TIP3   OH211984   4.323   4.108   0.403
 4007TIP3    H111985   4.381   4.184   0.392
 4007TIP3    H211986   4.377   4.033   0.381
 4008TIP3   OH211987   0.794   3.313   5.672
 4008TIP3    H111988   0.721   3.278   5.723
 4008TIP3    H211989   0.854   3.239   5.661
 4009TIP3   OH211990   6.294   0.893   5.834
 4009TIP3    H111991   6.204   0.895   5.867
 4009TIP3    H211992   6.285   0.903   5.739
 4010TIP3   OH211993   0.559   2.411   5.097
 4010TIP3    H111994   0.528   2.388   5.185
 4010TIP3    H211995   0.649   2.439   5.110
 4011TIP3   OH211996   0.954   5.986   0.785
 4011TIP3    H111997   0.934   6.079   0.794
 4011TIP3    H211998   0.886   5.942   0.837
 4012TIP3   OH211999   5.350   3.790   3.505
 4012TIP3    H112000   5.370   3.845   3.429
 4012TIP3    H212001   5.255   3.790   3.510
 4013TIP3   OH212002   6.056   3.507   5.246
 4013TIP3    H112003   6.001   3.582   5.265
 4013TIP3    H212004   6.141   3.545   5.222
 4014TIP3   OH212005   3.915   5.005   2.615
 4014TIP3    H112006   3.967   5.086   2.616
 4014TIP3    H212007   3.945   4.957   2.692
 4015TIP3   OH212008   1.169   3.017   5.687
 4015TIP3    H112009   1.204   3.106   5.690
 4015TIP3    H212010   1.224   2.968   5.748
 4016TIP3   OH212011   1.544   2.048   0.206
 4016TIP3    H112012   1.487   2.120   0.233
 4016TIP3    H212013   1.518   1.974   0.261
 4017TIP3   OH212014   1.601   1.348   3.193
 4017TIP3    H112015   1.661   1.303   3.252
 4017TIP3    H212016   1.635   1.438   3.189
 4018TIP3   OH212017   3.609   2.243   3.541
 4018TIP3    H112018   3.543   2.179   3.567
 4018TIP3    H212019   3.683   2.224   3.599
 4019TIP3   OH212020   6.661   3.709   5.240
 4019TIP3    H112021   6.698   3.648   5.176
 4019TIP3    H212022   6.570   3.719   5.212
 4020TIP3   OH212023   5.479   5.116   1.548
 4020TIP3    H112024   5.508   5.082   1.633
 4020TIP3    H212025   5.437   5.041   1.506
 4021TIP3   OH212026   0.697   1.758   4.510
 4021TIP3    H112027   0.657   1.703   4.442
 4021TIP3    H212028   0.637   1.833   4.518
 4022TIP3   OH212029   2.993   3.722   4.560
 4022TIP3    H112030   2.919   3.662   4.569
 4022TIP3    H212031   2.952   3.807   4.543
 4023TIP3   OH212032   0.773   2.138   3.663
 4023TIP3    H112033   0.713   2.093   3.604
 4023TIP3    H212034   0.766   2.090   3.746
 4024TIP3   OH212035   1.610   0.071   4.781
 4024TIP3    H112036   1.560   0.021   4.716
 4024TIP3    H212037   1.667   0.007   4.822
 4025TIP3   OH212038   1.724   3.999   4.750
 4025TIP3    H112039   1.752   3.935   4.816
 4025TIP3    H212040   1.628   4.001   4.758
 4026TIP3   OH212041   1.180   1.916   5.766
 4026TIP3    H112042   1.146   1.852   5.703
 4026TIP3    H212043   1.210   1.989   5.712
 4027TIP3   OH212044   6.441   1.204   1.933
 4027TIP3    H112045   6.500   1.140   1.971
 4027TIP3    H212046   6.457   1.284   1.983
 4028TIP3   OH212047   0.865   2.811   3.120
 4028TIP3    H112048   0.905   2.749   3.181
 4028TIP3    H212049   0.791   2.847   3.169
 4029TIP3   OH212050   2.404   0.394   3.695
 4029TIP3    H112051   2.483   0.424   3.739
 4029TIP3    H212052   2.386   0.463   3.630
 4030TIP3   OH212053   1.407   1.926   5.197
 4030TIP3    H112054   1.482   1.981   5.219
 4030TIP3    H212055   1.392   1.942   5.104
 4031TIP3   OH212056   2.192   2.062   4.785
 4031TIP3    H112057   2.267   2.099   4.738
 4031TIP3    H212058   2.119   2.118   4.760
 4032TIP3   OH212059   3.861   3.375   0.182
 4032TIP3    H112060   3.790   3.324   0.220
 4032TIP3    H212061   3.934   3.364   0.242
 4033TIP3   OH212062   2.533   1.850   4.086
 4033TIP3    H112063   2.606   1.912   4.085
 4033TIP3    H212064   2.517   1.836   4.180
 4034TIP3   OH212065   1.997   3.209   1.106
 4034TIP3    H112066   1.917   3.162   1.085
 4034TIP3    H212067   1.974   3.263   1.182
 4035TIP3   OH212068   1.574   5.771   3.886
 4035TIP3    H112069   1.630   5.822   3.944
 4035TIP3    H212070   1.595   5.804   3.798
 4036TIP3   OH212071   7.141   1.590   0.498
 4036TIP3    H112072   7.172   1.666   0.449
 4036TIP3    H212073   7.064   1.622   0.546
 4037TIP3   OH212074   0.451   1.887   2.384
 4037TIP3    H112075   0.532   1.929   2.355
 4037TIP3    H212076   0.475   1.842   2.465
 4038TIP3   OH212077   5.046   3.618   0.116
 4038TIP3    H112078   5.140   3.605   0.127
 4038TIP3    H212079   5.018   3.662   0.196
 4039TIP3   OH212080   6.556   3.343   2.139
 4039TIP3    H112081   6.551   3.314   2.230
 4039TIP3    H212082   6.477   3.307   2.099
 4040TIP3   OH212083   2.589   2.070   0.598
 4040TIP3    H112084   2.513   2.026   0.560
 4040TIP3    H212085   2.593   2.154   0.553
 4041TIP3   OH212086   0.050   5.807   2.872
 4041TIP3    H112087   0.079   5.876   2.812
 4041TIP3    H212088   0.003   5.854   2.941
 4042TIP3   OH212089   7.248   0.603   0.690
 4042TIP3    H112090   7.204   0.533   0.737
 4042TIP3    H212091   7.184   0.675   0.688
 4043TIP3   OH212092   4.367   3.528   3.562
 4043TIP3    H112093   4.426   3.547   3.635
 4043TIP3    H212094   4.398   3.584   3.491
 4044TIP3   OH212095   2.011   3.578   3.604
 4044TIP3    H112096   2.053   3.494   3.620
 4044TIP3    H212097   1.921   3.566   3.632
 4045TIP3   OH212098   1.996   6.283   0.462
 4045TIP3    H112099   1.911   6.276   0.507
 4045TIP3    H212100   1.989   6.221   0.390
 4046TIP3   OH212101   2.191   2.044   3.572
 4046TIP3    H112102   2.185   2.106   3.500
 4046TIP3    H212103   2.272   1.995   3.555
 4047TIP3   OH212104   5.852   1.375   2.694
 4047TIP3    H112105   5.826   1.289   2.661
 4047TIP3    H212106   5.888   1.421   2.618
 4048TIP3   OH212107   0.025   5.832   5.033
 4048TIP3    H112108  -0.037   5.761   5.049
 4048TIP3    H212109   0.070   5.843   5.117
 4049TIP3   OH212110   0.442   4.629   1.909
 4049TIP3    H112111   0.412   4.714   1.877
 4049TIP3    H212112   0.536   4.640   1.922
 4050TIP3   OH212113   6.362   6.440   2.708
 4050TIP3    H112114   6.422   6.398   2.770
 4050TIP3    H212115   6.280   6.451   2.757
 4051TIP3   OH212116   2.142   3.881   4.670
 4051TIP3    H112117   2.083   3.953   4.646
 4051TIP3    H212118   2.188   3.913   4.747
 4052TIP3   OH212119   1.405   2.733   3.183
 4052TIP3    H112120   1.366   2.668   3.124
 4052TIP3    H212121   1.499   2.724   3.170
 4053TIP3   OH212122   2.715   1.718   0.311
 4053TIP3    H112123   2.759   1.803   0.306
 4053TIP3    H212124   2.657   1.717   0.235
 4054TIP3   OH212125   5.059   0.211   4.377
 4054TIP3    H112126   5.123   0.281   4.392
 4054TIP3    H212127   4.994   0.222   4.446
 4055TIP3   OH212128   1.803   6.347   4.333
 4055TIP3    H112129   1.777   6.439   4.334
 4055TIP3    H212130   1.735   6.304   4.280
 4056TIP3   OH212131   2.534   0.393   0.121
 4056TIP3    H112132   2.481   0.473   0.114
 4056TIP3    H212133   2.584   0.391   0.039
 4057TIP3   OH212134   4.357   2.052   0.620
 4057TIP3    H112135   4.348   2.066   0.714
 4057TIP3    H212136   4.383   2.138   0.586
 4058TIP3   OH212137   4.739   0.642   0.178
 4058TIP3    H112138   4.745   0.668   0.270
 4058TIP3    H212139   4.652   0.604   0.169
 4059TIP3   OH212140   0.530   6.367   0.344
 4059TIP3    H112141   0.491   6.446   0.382
 4059TIP3    H212142   0.457   6.306   0.336
 4060TIP3   OH212143   0.593   2.343   4.842
 4060TIP3    H112144   0.576   2.357   4.935
 4060TIP3    H212145   0.538   2.268   4.819
 4061TIP3   OH212146   1.552   0.953   4.354
 4061TIP3    H112147   1.592   1.040   4.363
 4061TIP3    H212148   1.609   0.906   4.294
 4062TIP3   OH212149   0.434   2.573   3.572
 4062TIP3    H112150   0.363   2.600   3.514
 4062TIP3    H212151   0.435   2.639   3.642
 4063TIP3   OH212152   5.787   3.219   0.406
 4063TIP3    H112153   5.798   3.159   0.479
 4063TIP3    H212154   5.745   3.297   0.445
 4064TIP3   OH212155   6.879   1.698   0.335
 4064TIP3    H112156   6.968   1.697   0.298
 4064TIP3    H212157   6.823   1.668   0.263
 4065TIP3   OH212158   2.768   3.247   1.828
 4065TIP3    H112159   2.791   3.192   1.903
 4065TIP3    H212160   2.837   3.231   1.764
 4066TIP3   OH212161   4.833   4.708   3.625
 4066TIP3    H112162   4.821   4.795   3.664
 4066TIP3    H212163   4.927   4.700   3.613
 4067TIP3   OH212164   4.529   2.710   0.308
 4067TIP3    H112165   4.459   2.667   0.258
 4067TIP3    H212166   4.605   2.654   0.295
 4068TIP3   OH212167   2.340   0.088   4.004
 4068TIP3    H112168   2.278   0.158   4.023
 4068TIP3    H212169   2.352   0.043   4.088
 4069TIP3   OH212170   6.628   2.443   2.680
 4069TIP3    H112171   6.671   2.412   2.760
 4069TIP3    H212172   6.663   2.532   2.667
 4070TIP3   OH212173   4.549   1.927   3.247
 4070TIP3    H112174   4.472   1.918   3.190
 4070TIP3    H212175   4.586   2.013   3.224
 4071TIP3   OH212176   6.055   5.182   5.374
 4071TIP3    H112177   6.027   5.259   5.423
 4071TIP3    H212178   5.976   5.149   5.333
 4072TIP3   OH212179   6.550   5.329   0.966
 4072TIP3    H112180   6.564   5.309   1.059
 4072TIP3    H212181   6.626   5.293   0.922
 4073TIP3   OH212182   3.797   6.782   2.457
 4073TIP3    H112183   3.785   6.734   2.375
 4073TIP3    H212184   3.851   6.723   2.511
 4074TIP3   OH212185   2.762   1.127   5.159
 4074TIP3    H112186   2.706   1.204   5.168
 4074TIP3    H212187   2.769   1.112   5.065
 4075TIP3   OH212188   5.734   4.737   0.616
 4075TIP3    H112189   5.698   4.779   0.695
 4075TIP3    H212190   5.661   4.686   0.581
 4076TIP3   OH212191   2.562   5.833   2.120
 4076TIP3    H112192   2.535   5.757   2.069
 4076TIP3    H212193   2.538   5.908   2.066
 4077TIP3   OH212194   6.664   3.230   3.755
 4077TIP3    H112195   6.643   3.263   3.843
 4077TIP3    H212196   6.582   3.193   3.723
 4078TIP3   OH212197   1.240   1.083   4.844
 4078TIP3    H112198   1.229   1.029   4.922
 4078TIP3    H212199   1.164   1.064   4.789
 4079TIP3   OH212200   3.815   0.517   3.497
 4079TIP3    H112201   3.733   0.507   3.449
 4079TIP3    H212202   3.879   0.468   3.446
 4080TIP3   OH212203   3.023   2.564   5.481
 4080TIP3    H112204   3.098   2.600   5.433
 4080TIP3    H212205   2.973   2.518   5.414
 4081TIP3   OH212206   2.359   3.417   1.231
 4081TIP3    H112207   2.452   3.436   1.227
 4081TIP3    H212208   2.352   3.344   1.293
 4082TIP3   OH212209   4.793   0.615   4.036
 4082TIP3    H112210   4.826   0.694   4.079
 4082TIP3    H212211   4.835   0.543   4.082
 4083TIP3   OH212212   5.779   6.285   1.203
 4083TIP3    H112213   5.865   6.269   1.242
 4083TIP3    H212214   5.729   6.206   1.224
 4084TIP3   OH212215   4.956   2.921   1.227
 4084TIP3    H112216   4.972   2.987   1.295
 4084TIP3    H212217   5.037   2.920   1.176
 4085TIP3   OH212218   6.472   2.858   0.192
 4085TIP3    H112219   6.555   2.812   0.206
 4085TIP3    H212220   6.485   2.943   0.233
 4086TIP3   OH212221   4.444   1.352   2.237
 4086TIP3    H112222   4.440   1.380   2.329
 4086TIP3    H212223   4.366   1.392   2.197
 4087TIP3   OH212224   6.382   1.196   3.578
 4087TIP3    H112225   6.442   1.250   3.628
 4087TIP3    H212226   6.438   1.135   3.531
 4088TIP3   OH212227   6.561   3.763   4.155
 4088TIP3    H112228   6.511   3.844   4.153
 4088TIP3    H212229   6.590   3.750   4.064
 4089TIP3   OH212230   5.612   3.560   5.378
 4089TIP3    H112231   5.540   3.499   5.359
 4089TIP3    H212232   5.632   3.600   5.293
 4090TIP3   OH212233   7.211   2.584   2.245
 4090TIP3    H112234   7.214   2.551   2.155
 4090TIP3    H212235   7.128   2.631   2.250
 4091TIP3   OH212236   3.501   3.298   5.617
 4091TIP3    H112237   3.469   3.259   5.698
 4091TIP3    H212238   3.558   3.369   5.645
 4092TIP3   OH212239   0.992   1.106   2.780
 4092TIP3    H112240   0.971   1.013   2.788
 4092TIP3    H212241   1.079   1.114   2.819
 4093TIP3   OH212242   4.694   3.878   5.542
 4093TIP3    H112243   4.651   3.949   5.590
 4093TIP3    H212244   4.781   3.872   5.580
 4094TIP3   OH212245   3.081   5.963   4.556
 4094TIP3    H112246   3.042   5.921   4.633
 4094TIP3    H212247   3.011   6.018   4.521
 4095TIP3   OH212248   3.554   5.258   4.867
 4095TIP3    H112249   3.506   5.291   4.791
 4095TIP3    H212250   3.487   5.247   4.935
 4096TIP3   OH212251   7.028   1.206   2.934
 4096TIP3    H112252   6.941   1.230   2.967
 4096TIP3    H212253   7.045   1.119   2.970
 4097TIP3   OH212254   4.899   2.563   4.702
 4097TIP3    H112255   4.841   2.530   4.634
 4097TIP3    H212256   4.955   2.489   4.724
 4098TIP3   OH212257   1.834   3.899   0.368
 4098TIP3    H112258   1.774   3.948   0.313
 4098TIP3    H212259   1.857   3.822   0.316
 4099TIP3   OH212260   3.063   0.559   5.905
 4099TIP3    H112261   2.997   0.529   5.843
 4099TIP3    H212262   3.137   0.499   5.892
 4100TIP3   OH212263   3.885   3.541   2.072
 4100TIP3    H112264   3.892   3.449   2.045
 4100TIP3    H212265   3.976   3.568   2.087
 4101TIP3   OH212266   2.140   2.786   3.464
 4101TIP3    H112267   2.228   2.816   3.439
 4101TIP3    H212268   2.144   2.776   3.559
 4102TIP3   OH212269   0.223   5.517   4.134
 4102TIP3    H112270   0.246   5.603   4.099
 4102TIP3    H212271   0.228   5.528   4.229
 4103TIP3   OH212272   6.419   2.379   0.203
 4103TIP3    H112273   6.346   2.317   0.197
 4103TIP3    H212274   6.377   2.465   0.207
 4104TIP3   OH212275   3.459   4.161   2.434
 4104TIP3    H112276   3.427   4.221   2.367
 4104TIP3    H212277   3.423   4.196   2.516
 4105TIP3   OH212278   5.749   3.403   0.787
 4105TIP3    H112279   5.762   3.426   0.695
 4105TIP3    H212280   5.740   3.487   0.832
 4106TIP3   OH212281   5.608   6.324   5.075
 4106TIP3    H112282   5.590   6.259   5.007
 4106TIP3    H212283   5.562   6.402   5.047
 4107TIP3   OH212284   1.800   2.157   5.846
 4107TIP3    H112285   1.760   2.072   5.864
 4107TIP3    H212286   1.735   2.221   5.875
 4108TIP3   OH212287   6.860   6.699   1.062
 4108TIP3    H112288   6.839   6.605   1.069
 4108TIP3    H212289   6.775   6.741   1.048
 4109TIP3   OH212290   1.734   0.319   4.706
 4109TIP3    H112291   1.691   0.251   4.758
 4109TIP3    H212292   1.824   0.320   4.736
 4110TIP3   OH212293   1.191   4.359   4.891
 4110TIP3    H112294   1.207   4.288   4.828
 4110TIP3    H212295   1.220   4.438   4.846
 4111TIP3   OH212296   5.685   0.980   0.967
 4111TIP3    H112297   5.591   1.000   0.973
 4111TIP3    H212298   5.725   1.061   0.935
 4112TIP3   OH212299   5.643   0.564   2.667
 4112TIP3    H112300   5.626   0.473   2.644
 4112TIP3    H212301   5.591   0.580   2.746
 4113TIP3   OH212302   4.976   1.201   3.221
 4113TIP3    H112303   4.887   1.234   3.208
 4113TIP3    H212304   4.989   1.202   3.316
 4114TIP3   OH212305   3.720  -0.018   1.787
 4114TIP3    H112306   3.689   0.017   1.704
 4114TIP3    H212307   3.789  -0.081   1.762
 4115TIP3   OH212308   0.112   5.342   5.915
 4115TIP3    H112309   0.060   5.335   5.836
 4115TIP3    H212310   0.188   5.394   5.889
 4116TIP3   OH212311   1.019   3.807   2.033
 4116TIP3    H112312   0.998   3.718   2.007
 4116TIP3    H212313   0.940   3.858   2.011
 4117TIP3   OH212314   1.463   3.642   0.644
 4117TIP3    H112315   1.552   3.608   0.642
 4117TIP3    H212316   1.429   3.617   0.730
 4118TIP3   OH212317   6.835   2.648   5.404
 4118TIP3    H112318   6.919   2.623   5.442
 4118TIP3    H212319   6.812   2.576   5.345
 4119TIP3   OH212320   2.829   1.604   5.676
 4119TIP3    H112321   2.778   1.573   5.602
 4119TIP3    H212322   2.856   1.692   5.651
 4120TIP3   OH212323   7.161   3.122   5.476
 4120TIP3    H112324   7.087   3.182   5.470
 4120TIP3    H212325   7.227   3.160   5.417
 4121TIP3   OH212326   4.766   6.044   0.048
 4121TIP3    H112327   4.706   5.990  -0.002
 4121TIP3    H212328   4.750   6.019   0.139
 4122TIP3   OH212329   2.174   5.708   4.629
 4122TIP3    H112330   2.111   5.763   4.583
 4122TIP3    H212331   2.121   5.649   4.682
 4123TIP3   OH212332   3.578   6.588   5.748
 4123TIP3    H112333   3.488   6.593   5.779
 4123TIP3    H212334   3.625   6.541   5.816
 4124TIP3   OH212335   7.001   2.668   0.246
 4124TIP3    H112336   6.941   2.731   0.206
 4124TIP3    H212337   6.970   2.659   0.336
 4125TIP3   OH212338   3.201   1.955   5.786
 4125TIP3    H112339   3.219   1.932   5.695
 4125TIP3    H212340   3.142   1.886   5.817
 4126TIP3   OH212341   1.476   3.789   2.390
 4126TIP3    H112342   1.416   3.864   2.394
 4126TIP3    H212343   1.454   3.737   2.467
 4127TIP3   OH212344   6.094   4.829   2.126
 4127TIP3    H112345   6.135   4.777   2.194
 4127TIP3    H212346   6.142   4.912   2.126
 4128TIP3   OH212347   2.964   6.284   5.556
 4128TIP3    H112348   3.039   6.270   5.498
 4128TIP3    H212349   2.942   6.376   5.546
 4129TIP3   OH212350   1.145   1.162   4.501
 4129TIP3    H112351   1.224   1.173   4.450
 4129TIP3    H212352   1.126   1.250   4.535
 4130TIP3   OH212353   2.429   5.495   2.795
 4130TIP3    H112354   2.473   5.499   2.880
 4130TIP3    H212355   2.438   5.583   2.759
 4131TIP3   OH212356   1.153   4.922   3.737
 4131TIP3    H112357   1.205   4.934   3.816
 4131TIP3    H212358   1.067   4.894   3.768
 4132TIP3   OH212359   5.822   6.650   3.475
 4132TIP3    H112360   5.824   6.717   3.543
 4132TIP3    H212361   5.729   6.637   3.457
 4133TIP3   OH212362   1.042   1.568   0.643
 4133TIP3    H112363   1.108   1.539   0.706
 4133TIP3    H212364   1.072   1.531   0.559
 4134TIP3   OH212365   4.556   2.379   1.228
 4134TIP3    H112366   4.646   2.373   1.261
 4134TIP3    H212367   4.535   2.290   1.201
 4135TIP3   OH212368   1.103   6.382   4.294
 4135TIP3    H112369   1.103   6.392   4.199
 4135TIP3    H212370   1.135   6.293   4.309
 4136TIP3   OH212371   3.786   4.178   5.635
 4136TIP3    H112372   3.701   4.155   5.599
 4136TIP3    H212373   3.774   4.175   5.730
 4137TIP3   OH212374   6.576   6.758   3.346
 4137TIP3    H112375   6.583   6.698   3.421
 4137TIP3    H212376   6.558   6.701   3.271
 4138TIP3   OH212377   2.410   2.942   1.727
 4138TIP3    H112378   2.376   2.967   1.813
 4138TIP3    H212379   2.489   2.995   1.717
 4139TIP3   OH212380   3.474   2.843   2.847
 4139TIP3    H112381   3.462   2.866   2.754
 4139TIP3    H212382   3.490   2.926   2.890
 4140TIP3   OH212383   1.070   0.769   1.840
 4140TIP3    H112384   1.134   0.812   1.783
 4140TIP3    H212385   1.045   0.837   1.902
 4141TIP3   OH212386   7.180   1.979   0.572
 4141TIP3    H112387   7.224   1.915   0.627
 4141TIP3    H212388   7.117   1.928   0.521
 4142TIP3   OH212389   2.288   1.915   3.183
 4142TIP3    H112390   2.357   1.869   3.134
 4142TIP3    H212391   2.291   2.005   3.150
 4143TIP3   OH212392   2.783   3.181   3.006
 4143TIP3    H112393   2.875   3.203   3.019
 4143TIP3    H212394   2.759   3.132   3.085
 4144TIP3   OH212395   3.232   0.957   5.417
 4144TIP3    H112396   3.193   1.030   5.368
 4144TIP3    H212397   3.157   0.913   5.456
 4145TIP3   OH212398   1.730   6.346   0.440
 4145TIP3    H112399   1.636   6.354   0.454
 4145TIP3    H212400   1.748   6.405   0.366
 4146TIP3   OH212401   1.817   2.215   1.275
 4146TIP3    H112402   1.803   2.254   1.188
 4146TIP3    H212403   1.748   2.254   1.329
 4147TIP3   OH212404   4.995   2.605   2.631
 4147TIP3    H112405   4.952   2.554   2.562
 4147TIP3    H212406   5.078   2.633   2.592
 4148TIP3   OH212407   4.275   0.706   2.662
 4148TIP3    H112408   4.369   0.706   2.645
 4148TIP3    H212409   4.235   0.678   2.580
 4149TIP3   OH212410   3.340   1.284   5.106
 4149TIP3    H112411   3.315   1.200   5.144
 4149TIP3    H212412   3.331   1.347   5.178
 4150TIP3   OH212413   3.646   1.269   0.493
 4150TIP3    H112414   3.591   1.314   0.556
 4150TIP3    H212415   3.734   1.303   0.509
 4151TIP3   OH212416   7.181   1.847   1.140
 4151TIP3    H112417   7.154   1.938   1.130
 4151TIP3    H212418   7.269   1.852   1.178
 4152TIP3   OH212419   1.358   6.414   5.711
 4152TIP3    H112420   1.275   6.453   5.683
 4152TIP3    H212421   1.348   6.321   5.692
 4153TIP3   OH212422   3.037   0.743   4.407
 4153TIP3    H112423   3.063   0.725   4.317
 4153TIP3    H212424   3.104   0.700   4.460
 4154TIP3   OH212425   4.361   4.294   3.058
 4154TIP3    H112426   4.420   4.365   3.085
 4154TIP3    H212427   4.367   4.230   3.129
 4155TIP3   OH212428   5.146   3.010   1.769
 4155TIP3    H112429   5.186   3.067   1.703
 4155TIP3    H212430   5.152   3.061   1.850
 4156TIP3   OH212431   4.770   1.581   5.189
 4156TIP3    H112432   4.810   1.656   5.145
 4156TIP3    H212433   4.736   1.616   5.271
 4157TIP3   OH212434   0.536   6.606   1.306
 4157TIP3    H112435   0.504   6.516   1.295
 4157TIP3    H212436   0.457   6.660   1.308
 4158TIP3   OH212437   6.493   4.085   1.502
 4158TIP3    H112438   6.562   4.065   1.565
 4158TIP3    H212439   6.483   4.180   1.507
 4159TIP3   OH212440   4.294   0.698   1.658
 4159TIP3    H112441   4.274   0.701   1.752
 4159TIP3    H212442   4.228   0.755   1.618
 4160TIP3   OH212443   3.998   4.351   0.909
 4160TIP3    H112444   3.996   4.388   0.820
 4160TIP3    H212445   3.937   4.277   0.905
 4161TIP3   OH212446   4.216   6.121   1.055
 4161TIP3    H112447   4.299   6.159   1.080
 4161TIP3    H212448   4.176   6.185   0.997
 4162TIP3   OH212449   2.690   3.480   1.516
 4162TIP3    H112450   2.736   3.503   1.597
 4162TIP3    H212451   2.598   3.498   1.534
 4163TIP3   OH212452   7.152   5.904   2.441
 4163TIP3    H112453   7.177   5.964   2.371
 4163TIP3    H212454   7.153   5.958   2.520
 4164TIP3   OH212455   0.483   3.316   1.025
 4164TIP3    H112456   0.451   3.366   1.100
 4164TIP3    H212457   0.500   3.381   0.957
 4165TIP3   OH212458   0.540   2.603   0.553
 4165TIP3    H112459   0.629   2.609   0.518
 4165TIP3    H212460   0.529   2.682   0.606
 4166TIP3   OH212461   2.460   0.623   1.995
 4166TIP3    H112462   2.543   0.644   1.952
 4166TIP3    H212463   2.400   0.600   1.923
 4167TIP3   OH212464   5.412   6.411   3.053
 4167TIP3    H112465   5.424   6.329   3.006
 4167TIP3    H212466   5.359   6.387   3.130
 4168TIP3   OH212467   6.870   3.844   2.922
 4168TIP3    H112468   6.928   3.909   2.881
 4168TIP3    H212469   6.785   3.857   2.879
 4169TIP3   OH212470   1.058   1.022   4.015
 4169TIP3    H112471   1.031   1.093   3.957
 4169TIP3    H212472   1.145   0.997   3.982
 4170TIP3   OH212473   3.017   1.158   3.634
 4170TIP3    H112474   3.088   1.138   3.694
 4170TIP3    H212475   2.961   1.219   3.682
 4171TIP3   OH212476   0.272   1.370   1.235
 4171TIP3    H112477   0.197   1.322   1.199
 4171TIP3    H212478   0.269   1.351   1.329
 4172TIP3   OH212479   3.099   5.663   5.159
 4172TIP3    H112480   3.101   5.739   5.217
 4172TIP3    H212481   3.147   5.690   5.081
 4173TIP3   OH212482   0.719   1.623   3.921
 4173TIP3    H112483   0.772   1.653   3.995
 4173TIP3    H212484   0.680   1.541   3.951
 4174TIP3   OH212485   4.052   6.526   0.599
 4174TIP3    H112486   3.997   6.572   0.535
 4174TIP3    H212487   4.126   6.584   0.613
 4175TIP3   OH212488   2.955   6.297   2.917
 4175TIP3    H112489   3.017   6.224   2.914
 4175TIP3    H212490   3.005   6.369   2.955
 4176TIP3   OH212491   6.906   6.519   0.329
 4176TIP3    H112492   6.890   6.428   0.305
 4176TIP3    H212493   6.829   6.544   0.380
 4177TIP3   OH212494   0.411   3.176   5.185
 4177TIP3    H112495   0.405   3.104   5.123
 4177TIP3    H212496   0.454   3.246   5.136
 4178TIP3   OH212497   1.801   4.178   4.987
 4178TIP3    H112498   1.872   4.228   4.947
 4178TIP3    H212499   1.764   4.127   4.915
 4179TIP3   OH212500   2.676   0.048   3.116
 4179TIP3    H112501   2.728   0.101   3.176
 4179TIP3    H212502   2.733  -0.027   3.096
 4180TIP3   OH212503   1.358   2.765   1.920
 4180TIP3    H112504   1.439   2.739   1.876
 4180TIP3    H212505   1.317   2.682   1.945
 4181TIP3   OH212506   1.744   4.572   5.753
 4181TIP3    H112507   1.674   4.538   5.809
 4181TIP3    H212508   1.813   4.506   5.759
 4182TIP3   OH212509   0.182   0.820   0.192
 4182TIP3    H112510   0.241   0.747   0.213
 4182TIP3    H212511   0.128   0.787   0.121
 4183TIP3   OH212512   3.151   4.845   1.874
 4183TIP3    H112513   3.064   4.878   1.852
 4183TIP3    H212514   3.192   4.827   1.790
 4184TIP3   OH212515   4.223   6.523   1.680
 4184TIP3    H112516   4.306   6.494   1.719
 4184TIP3    H212517   4.164   6.447   1.690
 4185TIP3   OH212518   1.452   4.953   2.884
 4185TIP3    H112519   1.507   4.924   2.958
 4185TIP3    H212520   1.369   4.908   2.897
 4186TIP3   OH212521   2.377   3.333   0.496
 4186TIP3    H112522   2.370   3.341   0.401
 4186TIP3    H212523   2.461   3.290   0.510
 4187TIP3   OH212524   2.293   1.948   2.366
 4187TIP3    H112525   2.248   2.007   2.305
 4187TIP3    H212526   2.239   1.869   2.367
 4188TIP3   OH212527   2.831   6.154   1.809
 4188TIP3    H112528   2.858   6.243   1.829
 4188TIP3    H212529   2.735   6.156   1.818
 4189TIP3   OH212530   1.280   3.764   1.927
 4189TIP3    H112531   1.332   3.824   1.874
 4189TIP3    H212532   1.190   3.797   1.919
 4190TIP3   OH212533   6.528   2.966   1.692
 4190TIP3    H112534   6.477   2.953   1.613
 4190TIP3    H212535   6.470   2.939   1.763
 4191TIP3   OH212536   3.086   6.787   4.726
 4191TIP3    H112537   3.010   6.736   4.756
 4191TIP3    H212538   3.160   6.752   4.776
 4192TIP3   OH212539   6.177   4.601   1.579
 4192TIP3    H112540   6.134   4.524   1.615
 4192TIP3    H212541   6.244   4.625   1.644
 4193TIP3   OH212542   0.212   6.399   4.552
 4193TIP3    H112543   0.289   6.350   4.525
 4193TIP3    H212544   0.182   6.355   4.631
 4194TIP3   OH212545   1.164   0.876   3.005
 4194TIP3    H112546   1.224   0.949   2.993
 4194TIP3    H212547   1.088   0.897   2.950
 4195TIP3   OH212548   0.838   0.458   3.654
 4195TIP3    H112549   0.788   0.539   3.656
 4195TIP3    H212550   0.772   0.389   3.652
 4196TIP3   OH212551   5.658   2.791   3.508
 4196TIP3    H112552   5.639   2.705   3.547
 4196TIP3    H212553   5.679   2.771   3.417
 4197TIP3   OH212554   3.038   1.094   5.284
 4197TIP3    H112555   3.026   1.003   5.255
 4197TIP3    H212556   2.969   1.143   5.238
 4198TIP3   OH212557   4.073   5.739   2.895
 4198TIP3    H112558   4.084   5.774   2.983
 4198TIP3    H212559   3.980   5.749   2.876
 4199TIP3   OH212560   5.958   5.308   0.489
 4199TIP3    H112561   5.926   5.368   0.422
 4199TIP3    H212562   5.999   5.365   0.555
 4200TIP3   OH212563   5.698   2.483   4.460
 4200TIP3    H112564   5.695   2.438   4.544
 4200TIP3    H212565   5.782   2.458   4.422
 4201TIP3   OH212566   4.001   6.402   1.980
 4201TIP3    H112567   3.947   6.440   1.911
 4201TIP3    H212568   3.942   6.394   2.055
 4202TIP3   OH212569   1.270   2.647   2.285
 4202TIP3    H112570   1.268   2.587   2.360
 4202TIP3    H212571   1.251   2.733   2.323
 4203TIP3   OH212572   2.021   4.793   3.407
 4203TIP3    H112573   2.076   4.742   3.347
 4203TIP3    H212574   2.012   4.878   3.365
 4204TIP3   OH212575   6.088   1.379   2.889
 4204TIP3    H112576   6.022   1.353   2.825
 4204TIP3    H212577   6.051   1.354   2.974
 4205TIP3   OH212578   6.326   5.369   1.254
 4205TIP3    H112579   6.291   5.288   1.216
 4205TIP3    H212580   6.420   5.354   1.259
 4206TIP3   OH212581   7.058   1.406   1.851
 4206TIP3    H112582   7.106   1.458   1.915
 4206TIP3    H212583   7.034   1.468   1.783
 4207TIP3   OH212584   5.282   4.225   2.226
 4207TIP3    H112585   5.323   4.273   2.299
 4207TIP3    H212586   5.201   4.191   2.263
 4208TIP3   OH212587   5.329   3.204   3.154
 4208TIP3    H112588   5.416   3.165   3.146
 4208TIP3    H212589   5.336   3.265   3.227
 4209TIP3   OH212590   4.017   0.493   2.996
 4209TIP3    H112591   3.956   0.455   2.933
 4209TIP3    H212592   4.044   0.419   3.051
 4210TIP3   OH212593   6.721   0.934   5.679
 4210TIP3    H112594   6.680   0.950   5.764
 4210TIP3    H212595   6.736   0.839   5.677
 4211TIP3   OH212596   4.416   2.890   3.809
 4211TIP3    H112597   4.343   2.835   3.780
 4211TIP3    H212598   4.390   2.920   3.896
 4212TIP3   OH212599   2.632   0.570   1.263
 4212TIP3    H112600   2.675   0.572   1.348
 4212TIP3    H212601   2.550   0.617   1.277
 4213TIP3   OH212602   7.038   6.291   1.013
 4213TIP3    H112603   6.965   6.350   0.993
 4213TIP3    H212604   7.076   6.326   1.094
 4214TIP3   OH212605   6.882   4.861   1.756
 4214TIP3    H112606   6.930   4.928   1.805
 4214TIP3    H212607   6.897   4.884   1.664
 4215TIP3   OH212608   2.391   3.845   5.119
 4215TIP3    H112609   2.425   3.822   5.205
 4215TIP3    H212610   2.406   3.939   5.111
 4216TIP3   OH212611   2.196   5.426   1.017
 4216TIP3    H112612   2.111   5.455   0.984
 4216TIP3    H212613   2.257   5.494   0.989
 4217TIP3   OH212614   1.832   3.366   0.736
 4217TIP3    H112615   1.922   3.336   0.753
 4217TIP3    H212616   1.780   3.327   0.806
 4218TIP3   OH212617   2.091   3.593   4.279
 4218TIP3    H112618   2.138   3.655   4.334
 4218TIP3    H212619   2.156   3.528   4.255
 4219TIP3   OH212620   3.086   0.881   5.130
 4219TIP3    H112621   3.023   0.872   5.059
 4219TIP3    H212622   3.171   0.874   5.087
 4220TIP3   OH212623   0.526   5.658   1.130
 4220TIP3    H112624   0.448   5.605   1.147
 4220TIP3    H212625   0.552   5.635   1.041
 4221TIP3   OH212626   5.029   5.984   5.912
 4221TIP3    H112627   5.058   6.068   5.878
 4221TIP3    H212628   4.962   5.954   5.851
 4222TIP3   OH212629   0.291   2.977   4.995
 4222TIP3    H112630   0.301   2.899   4.940
 4222TIP3    H212631   0.202   2.973   5.028
 4223TIP3   OH212632   5.943   3.092   4.205
 4223TIP3    H112633   5.856   3.053   4.201
 4223TIP3    H212634   6.002   3.018   4.218
 4224TIP3   OH212635   6.881   3.698   3.711
 4224TIP3    H112636   6.828   3.631   3.669
 4224TIP3    H212637   6.866   3.777   3.659
 4225TIP3   OH212638   0.809   5.682   5.492
 4225TIP3    H112639   0.816   5.634   5.575
 4225TIP3    H212640   0.743   5.750   5.509
 4226TIP3   OH212641   3.152   3.258   4.469
 4226TIP3    H112642   3.240   3.274   4.436
 4226TIP3    H212643   3.101   3.333   4.438
 4227TIP3   OH212644   4.555   5.914   5.190
 4227TIP3    H112645   4.614   5.860   5.138
 4227TIP3    H212646   4.593   5.915   5.278
 4228TIP3   OH212647   0.925   4.687   2.269
 4228TIP3    H112648   0.878   4.604   2.270
 4228TIP3    H212649   0.973   4.688   2.352
 4229TIP3   OH212650   5.538   3.862   1.040
 4229TIP3    H112651   5.468   3.926   1.041
 4229TIP3    H212652   5.494   3.778   1.053
 4230TIP3   OH212653   2.265   0.866   0.678
 4230TIP3    H112654   2.301   0.943   0.633
 4230TIP3    H212655   2.256   0.800   0.608
 4231TIP3   OH212656   5.202   6.555   5.458
 4231TIP3    H112657   5.250   6.634   5.432
 4231TIP3    H212658   5.172   6.517   5.376
 4232TIP3   OH212659   7.000   2.016   0.827
 4232TIP3    H112660   7.046   1.936   0.801
 4232TIP3    H212661   6.933   1.986   0.889
 4233TIP3   OH212662   0.495   3.063   4.078
 4233TIP3    H112663   0.576   3.038   4.123
 4233TIP3    H212664   0.506   3.030   3.988
 4234TIP3   OH212665   2.413   3.246   3.992
 4234TIP3    H112666   2.416   3.173   3.931
 4234TIP3    H212667   2.503   3.253   4.025
 4235TIP3   OH212668   1.812   0.168   3.561
 4235TIP3    H112669   1.726   0.154   3.600
 4235TIP3    H212670   1.810   0.118   3.480
 4236TIP3   OH212671   7.022   0.177   3.987
 4236TIP3    H112672   7.056   0.162   4.075
 4236TIP3    H212673   6.927   0.177   3.998
 4237TIP3   OH212674   1.222   4.830   5.656
 4237TIP3    H112675   1.273   4.819   5.737
 4237TIP3    H212676   1.137   4.791   5.676
 4238TIP3   OH212677   4.836   6.288   3.326
 4238TIP3    H112678   4.852   6.213   3.270
 4238TIP3    H212679   4.741   6.291   3.337
 4239TIP3   OH212680   4.155   6.242   4.018
 4239TIP3    H112681   4.221   6.175   4.037
 4239TIP3    H212682   4.087   6.195   3.970
 4240TIP3   OH212683   6.379   1.195   4.307
 4240TIP3    H112684   6.402   1.256   4.237
 4240TIP3    H212685   6.352   1.252   4.379
 4241TIP3   OH212686   3.964   5.605   5.604
 4241TIP3    H112687   3.948   5.534   5.667
 4241TIP3    H212688   4.026   5.568   5.542
 4242TIP3   OH212689   0.523   1.408   0.767
 4242TIP3    H112690   0.583   1.449   0.705
 4242TIP3    H212691   0.563   1.323   0.787
 4243TIP3   OH212692   1.435   3.604   5.173
 4243TIP3    H112693   1.405   3.603   5.264
 4243TIP3    H212694   1.524   3.639   5.177
 4244TIP3   OH212695   6.295   4.132   0.943
 4244TIP3    H112696   6.286   4.175   1.028
 4244TIP3    H212697   6.206   4.104   0.921
 4245TIP3   OH212698   2.427   2.641   2.146
 4245TIP3    H112699   2.418   2.686   2.230
 4245TIP3    H212700   2.348   2.586   2.139
 4246TIP3   OH212701   1.944   1.470   0.748
 4246TIP3    H112702   1.946   1.421   0.830
 4246TIP3    H212703   1.874   1.430   0.698
 4247TIP3   OH212704   1.474   4.195   2.819
 4247TIP3    H112705   1.439   4.162   2.902
 4247TIP3    H212706   1.524   4.273   2.843
 4248TIP3   OH212707   3.678   3.119   5.910
 4248TIP3    H112708   3.666   3.037   5.957
 4248TIP3    H212709   3.589   3.155   5.900
 4249TIP3   OH212710   1.198   6.660   0.230
 4249TIP3    H112711   1.173   6.653   0.322
 4249TIP3    H212712   1.135   6.604   0.184
 4250TIP3   OH212713   0.807   3.232   0.622
 4250TIP3    H112714   0.894   3.246   0.584
 4250TIP3    H212715   0.818   3.258   0.714
 4251TIP3   OH212716   0.767   2.847   2.557
 4251TIP3    H112717   0.749   2.768   2.608
 4251TIP3    H212718   0.859   2.839   2.531
 4252TIP3   OH212719   2.268   5.688   2.239
 4252TIP3    H112720   2.229   5.745   2.173
 4252TIP3    H212721   2.310   5.747   2.300
 4253TIP3   OH212722   6.448   0.277   4.231
 4253TIP3    H112723   6.539   0.272   4.261
 4253TIP3    H212724   6.438   0.201   4.174
 4254TIP3   OH212725   2.403   1.402   2.361
 4254TIP3    H112726   2.421   1.496   2.357
 4254TIP3    H212727   2.489   1.361   2.354
 4255TIP3   OH212728   0.048   5.915   0.412
 4255TIP3    H112729   0.002   5.988   0.370
 4255TIP3    H212730   0.095   5.872   0.341
 4256TIP3   OH212731   3.369   1.720   2.593
 4256TIP3    H112732   3.355   1.668   2.672
 4256TIP3    H212733   3.339   1.808   2.616
 4257TIP3   OH212734   1.357   1.760   4.361
 4257TIP3    H112735   1.422   1.826   4.340
 4257TIP3    H212736   1.300   1.801   4.426
 4258TIP3   OH212737   5.959   4.317   0.902
 4258TIP3    H112738   5.900   4.350   0.835
 4258TIP3    H212739   6.044   4.355   0.879
 4259TIP3   OH212740   1.695   6.733   0.441
 4259TIP3    H112741   1.643   6.710   0.365
 4259TIP3    H212742   1.663   6.820   0.467
 4260TIP3   OH212743   6.710   2.802   4.840
 4260TIP3    H112744   6.786   2.817   4.897
 4260TIP3    H212745   6.655   2.741   4.890
 4261TIP3   OH212746   3.938   6.257   3.345
 4261TIP3    H112747   4.032   6.275   3.345
 4261TIP3    H212748   3.896   6.342   3.338
 4262TIP3   OH212749   4.774   0.143   0.325
 4262TIP3    H112750   4.782   0.063   0.376
 4262TIP3    H212751   4.682   0.146   0.298
 4263TIP3   OH212752   0.421   6.823   5.089
 4263TIP3    H112753   0.336   6.857   5.118
 4263TIP3    H212754   0.426   6.735   5.126
 4264TIP3   OH212755   5.238   1.155   3.117
 4264TIP3    H112756   5.270   1.116   3.198
 4264TIP3    H212757   5.144   1.168   3.132
 4265TIP3   OH212758   6.321   6.143   0.343
 4265TIP3    H112759   6.368   6.060   0.332
 4265TIP3    H212760   6.333   6.164   0.435
 4266TIP3   OH212761   5.072   5.528   2.160
 4266TIP3    H112762   5.111   5.590   2.222
 4266TIP3    H212763   5.064   5.578   2.079
 4267TIP3   OH212764   2.492   2.430   0.237
 4267TIP3    H112765   2.533   2.428   0.323
 4267TIP3    H212766   2.554   2.477   0.182
 4268TIP3   OH212767   6.089   2.730   1.625
 4268TIP3    H112768   6.075   2.707   1.716
 4268TIP3    H212769   6.009   2.776   1.599
 4269TIP3   OH212770   4.785   5.645   0.639
 4269TIP3    H112771   4.752   5.555   0.631
 4269TIP3    H212772   4.765   5.685   0.554
 4270TIP3   OH212773   4.055   3.578   4.475
 4270TIP3    H112774   4.018   3.651   4.426
 4270TIP3    H212775   4.096   3.619   4.551
 4271TIP3   OH212776   1.960   4.389   5.778
 4271TIP3    H112777   1.975   4.320   5.843
 4271TIP3    H212778   1.985   4.349   5.694
 4272TIP3   OH212779   2.710   3.846   1.119
 4272TIP3    H112780   2.730   3.794   1.197
 4272TIP3    H212781   2.723   3.787   1.046
 4273TIP3   OH212782   0.394   3.177   1.673
 4273TIP3    H112783   0.460   3.196   1.607
 4273TIP3    H212784   0.359   3.091   1.648
 4274TIP3   OH212785   4.635   0.220   3.537
 4274TIP3    H112786   4.551   0.178   3.555
 4274TIP3    H212787   4.687   0.205   3.616
 4275TIP3   OH212788   1.384   5.274   5.546
 4275TIP3    H112789   1.320   5.345   5.533
 4275TIP3    H212790   1.447   5.286   5.476
 4276TIP3   OH212791   4.329   6.515   1.189
 4276TIP3    H112792   4.256   6.484   1.135
 4276TIP3    H212793   4.315   6.474   1.275
 4277TIP3   OH212794   3.606   0.637   5.622
 4277TIP3    H112795   3.693   0.646   5.662
 4277TIP3    H212796   3.566   0.724   5.631
 4278TIP3   OH212797   1.628   3.756   0.080
 4278TIP3    H112798   1.535   3.755   0.103
 4278TIP3    H212799   1.636   3.829   0.019
 4279TIP3   OH212800   4.479   5.387   5.632
 4279TIP3    H112801   4.534   5.378   5.710
 4279TIP3    H212802   4.447   5.298   5.615
 4280TIP3   OH212803   4.553   2.962   3.440
 4280TIP3    H112804   4.607   3.040   3.446
 4280TIP3    H212805   4.554   2.926   3.529
 4281TIP3   OH212806   2.523   0.020   0.271
 4281TIP3    H112807   2.475   0.051   0.194
 4281TIP3    H212808   2.455   0.002   0.336
 4282TIP3   OH212809   0.352   5.097   5.052
 4282TIP3    H112810   0.382   5.057   4.970
 4282TIP3    H212811   0.364   5.028   5.118
 4283TIP3   OH212812   6.358   0.716   4.632
 4283TIP3    H112813   6.417   0.710   4.707
 4283TIP3    H212814   6.416   0.718   4.556
 4284TIP3   OH212815   5.709   6.453   2.280
 4284TIP3    H112816   5.740   6.529   2.329
 4284TIP3    H212817   5.614   6.455   2.291
 4285TIP3   OH212818   5.978   0.593   1.294
 4285TIP3    H112819   5.900   0.542   1.273
 4285TIP3    H212820   6.042   0.566   1.228
 4286TIP3   OH212821   0.146   1.486   3.968
 4286TIP3    H112822   0.087   1.496   4.043
 4286TIP3    H212823   0.205   1.416   3.993
 4287TIP3   OH212824   3.505   1.646   1.286
 4287TIP3    H112825   3.422   1.623   1.326
 4287TIP3    H212826   3.543   1.562   1.259
 4288TIP3   OH212827   2.833   0.248   4.320
 4288TIP3    H112828   2.864   0.264   4.409
 4288TIP3    H212829   2.785   0.327   4.296
 4289TIP3   OH212830   3.708   0.824   1.569
 4289TIP3    H112831   3.799   0.819   1.540
 4289TIP3    H212832   3.694   0.916   1.591
 4290TIP3   OH212833   4.801   2.344   4.415
 4290TIP3    H112834   4.836   2.432   4.400
 4290TIP3    H212835   4.738   2.330   4.344
 4291TIP3   OH212836   6.995   4.583   4.404
 4291TIP3    H112837   6.905   4.553   4.399
 4291TIP3    H212838   7.032   4.538   4.480
 4292TIP3   OH212839   1.067   4.835   1.148
 4292TIP3    H112840   1.118   4.757   1.168
 4292TIP3    H212841   1.066   4.840   1.053
 4293TIP3   OH212842   6.044   3.542   2.923
 4293TIP3    H112843   6.006   3.630   2.927
 4293TIP3    H212844   5.975   3.489   2.884
 4294TIP3   OH212845   3.368   2.473   0.058
 4294TIP3    H112846   3.305   2.419   0.105
 4294TIP3    H212847   3.344   2.563   0.080
 4295TIP3   OH212848   6.355   0.867   2.406
 4295TIP3    H112849   6.289   0.838   2.343
 4295TIP3    H212850   6.428   0.806   2.394
 4296TIP3   OH212851   3.445   6.688   0.473
 4296TIP3    H112852   3.474   6.776   0.450
 4296TIP3    H212853   3.355   6.700   0.506
 4297TIP3   OH212854   1.742   1.602   3.493
 4297TIP3    H112855   1.669   1.556   3.536
 4297TIP3    H212856   1.818   1.547   3.510
 4298TIP3   OH212857   5.117   2.372   1.794
 4298TIP3    H112858   5.118   2.468   1.789
 4298TIP3    H212859   5.200   2.346   1.752
 4299TIP3   OH212860   0.414   0.762   1.538
 4299TIP3    H112861   0.482   0.698   1.554
 4299TIP3    H212862   0.391   0.795   1.625
 4300TIP3   OH212863   3.482   3.379   4.928
 4300TIP3    H112864   3.577   3.389   4.927
 4300TIP3    H212865   3.461   3.351   5.017
 4301TIP3   OH212866   4.665   6.123   2.998
 4301TIP3    H112867   4.706   6.199   2.958
 4301TIP3    H212868   4.702   6.048   2.952
 4302TIP3   OH212869   4.598   2.261   4.243
 4302TIP3    H112870   4.643   2.178   4.231
 4302TIP3    H212871   4.522   2.255   4.185
 4303TIP3   OH212872   4.890   6.087   0.447
 4303TIP3    H112873   4.939   6.133   0.515
 4303TIP3    H212874   4.899   6.144   0.370
 4304TIP3   OH212875   1.369   3.807   4.969
 4304TIP3    H112876   1.280   3.782   4.943
 4304TIP3    H212877   1.395   3.741   5.033
 4305TIP3   OH212878   1.126   3.355   1.489
 4305TIP3    H112879   1.033   3.337   1.492
 4305TIP3    H212880   1.136   3.418   1.417
 4306TIP3   OH212881   3.980   1.533   1.875
 4306TIP3    H112882   4.022   1.508   1.793
 4306TIP3    H212883   3.908   1.590   1.850
 4307TIP3   OH212884   6.446   1.129   4.743
 4307TIP3    H112885   6.466   1.036   4.750
 4307TIP3    H212886   6.530   1.170   4.723
 4308TIP3   OH212887   6.755   2.446   2.142
 4308TIP3    H112888   6.797   2.499   2.074
 4308TIP3    H212889   6.663   2.442   2.115
 4309TIP3   OH212890   4.392   6.572   2.562
 4309TIP3    H112891   4.479   6.555   2.528
 4309TIP3    H212892   4.378   6.666   2.551
 4310TIP3   OH212893   2.402   6.390   1.778
 4310TIP3    H112894   2.451   6.466   1.809
 4310TIP3    H212895   2.463   6.317   1.788
 4311TIP3   OH212896   6.859   2.448   1.262
 4311TIP3    H112897   6.774   2.492   1.258
 4311TIP3    H212898   6.854   2.378   1.197
 4312TIP3   OH212899   4.816   3.563   5.404
 4312TIP3    H112900   4.866   3.483   5.422
 4312TIP3    H212901   4.750   3.537   5.341
 4313TIP3   OH212902   6.675   1.245   4.645
 4313TIP3    H112903   6.730   1.205   4.577
 4313TIP3    H212904   6.734   1.304   4.691
 4314TIP3   OH212905   6.473   1.115   5.275
 4314TIP3    H112906   6.409   1.059   5.232
 4314TIP3    H212907   6.511   1.060   5.344
 4315TIP3   OH212908   6.205   3.395   2.235
 4315TIP3    H112909   6.119   3.437   2.232
 4315TIP3    H212910   6.196   3.319   2.178
 4316TIP3   OH212911   4.762   5.600   3.783
 4316TIP3    H112912   4.788   5.682   3.741
 4316TIP3    H212913   4.773   5.534   3.715
 4317TIP3   OH212914   2.809   4.984   0.723
 4317TIP3    H112915   2.868   4.917   0.759
 4317TIP3    H212916   2.747   4.935   0.670
 4318TIP3   OH212917   5.496   3.842   0.431
 4318TIP3    H112918   5.473   3.921   0.481
 4318TIP3    H212919   5.545   3.875   0.356
 4319TIP3   OH212920   5.070   5.924   2.443
 4319TIP3    H112921   5.065   5.941   2.537
 4319TIP3    H212922   5.098   6.007   2.405
 4320TIP3   OH212923   3.876   0.502   2.524
 4320TIP3    H112924   3.893   0.444   2.449
 4320TIP3    H212925   3.929   0.466   2.595
 4321TIP3   OH212926   4.583   1.379   0.774
 4321TIP3    H112927   4.569   1.419   0.859
 4321TIP3    H212928   4.501   1.395   0.726
 4322TIP3   OH212929   5.776   3.885   2.507
 4322TIP3    H112930   5.851   3.939   2.533
 4322TIP3    H212931   5.706   3.948   2.488
 4323TIP3   OH212932   6.064   5.929   5.327
 4323TIP3    H112933   6.115   5.849   5.314
 4323TIP3    H212934   6.033   5.923   5.417
 4324TIP3   OH212935   4.183   3.768   1.474
 4324TIP3    H112936   4.127   3.840   1.503
 4324TIP3    H212937   4.206   3.791   1.384
 4325TIP3   OH212938   1.219   3.210   5.368
 4325TIP3    H112939   1.158   3.139   5.351
 4325TIP3    H212940   1.215   3.224   5.463
 4326TIP3   OH212941   6.209   3.493   5.554
 4326TIP3    H112942   6.128   3.471   5.508
 4326TIP3    H212943   6.246   3.408   5.579
 4327TIP3   OH212944   1.929   2.721   5.483
 4327TIP3    H112945   1.945   2.796   5.541
 4327TIP3    H212946   1.995   2.657   5.507
 4328TIP3   OH212947   7.096   0.348   4.991
 4328TIP3    H112948   7.056   0.309   4.914
 4328TIP3    H212949   7.119   0.273   5.046
 4329TIP3   OH212950   1.792   6.093   2.580
 4329TIP3    H112951   1.841   6.175   2.580
 4329TIP3    H212952   1.742   6.094   2.662
 4330TIP3   OH212953   4.490   0.585   1.473
 4330TIP3    H112954   4.554   0.530   1.517
 4330TIP3    H212955   4.424   0.602   1.540
 4331TIP3   OH212956   2.195   5.151   5.847
 4331TIP3    H112957   2.253   5.095   5.897
 4331TIP3    H212958   2.252   5.219   5.811
 4332TIP3   OH212959   5.584   0.113   5.875
 4332TIP3    H112960   5.600   0.065   5.956
 4332TIP3    H212961   5.628   0.062   5.807
 4333TIP3   OH212962   6.433   3.541   4.705
 4333TIP3    H112963   6.479   3.470   4.661
 4333TIP3    H212964   6.351   3.501   4.735
 4334TIP3   OH212965   5.225   6.017   3.605
 4334TIP3    H112966   5.256   5.939   3.559
 4334TIP3    H212967   5.303   6.073   3.610
 4335TIP3   OH212968   4.415   5.918   2.579
 4335TIP3    H112969   4.493   5.946   2.627
 4335TIP3    H212970   4.371   5.858   2.638
 4336TIP3   OH212971   3.722   1.074   5.301
 4336TIP3    H112972   3.635   1.039   5.316
 4336TIP3    H212973   3.779   0.997   5.295
 4337TIP3   OH212974   0.713   5.762   3.072
 4337TIP3    H112975   0.643   5.741   3.134
 4337TIP3    H212976   0.789   5.782   3.127
 4338TIP3   OH212977   2.193   3.661   3.289
 4338TIP3    H112978   2.132   3.685   3.219
 4338TIP3    H212979   2.231   3.578   3.260
 4339TIP3   OH212980   5.598   4.212   5.455
 4339TIP3    H112981   5.511   4.188   5.423
 4339TIP3    H212982   5.626   4.135   5.506
 4340TIP3   OH212983   3.497   6.561   5.276
 4340TIP3    H112984   3.498   6.645   5.323
 4340TIP3    H212985   3.573   6.514   5.311
 4341TIP3   OH212986   2.378   1.781   2.062
 4341TIP3    H112987   2.430   1.743   1.991
 4341TIP3    H212988   2.351   1.866   2.029
 4342TIP3   OH212989   2.755   2.314   3.128
 4342TIP3    H112990   2.695   2.275   3.192
 4342TIP3    H212991   2.702   2.325   3.050
 4343TIP3   OH212992   0.334   4.054   0.815
 4343TIP3    H112993   0.370   4.107   0.886
 4343TIP3    H212994   0.240   4.051   0.832
 4344TIP3   OH212995   1.152   0.867   3.377
 4344TIP3    H112996   1.221   0.923   3.411
 4344TIP3    H212997   1.072   0.899   3.419
 4345TIP3   OH212998   3.646   1.676   4.876
 4345TIP3    H112999   3.617   1.619   4.804
 4345TIP3    H213000   3.721   1.723   4.841
 4346TIP3   OH213001   5.412   4.284   4.641
 4346TIP3    H113002   5.330   4.334   4.635
 4346TIP3    H213003   5.390   4.209   4.696
 4347TIP3   OH213004   0.086   1.340   4.643
 4347TIP3    H113005  -0.006   1.319   4.632
 4347TIP3    H213006   0.091   1.379   4.731
 4348TIP3   OH213007   4.219   5.221   0.615
 4348TIP3    H113008   4.148   5.210   0.678
 4348TIP3    H213009   4.215   5.143   0.560
 4349TIP3   OH213010   4.113   6.373   2.299
 4349TIP3    H113011   4.021   6.373   2.273
 4349TIP3    H213012   4.144   6.286   2.272
 4350TIP3   OH213013   4.345   4.352   0.221
 4350TIP3    H113014   4.278   4.322   0.160
 4350TIP3    H213015   4.428   4.339   0.174
 4351TIP3   OH213016   4.125   5.437   5.457
 4351TIP3    H113017   4.132   5.390   5.540
 4351TIP3    H213018   4.209   5.423   5.413
 4352TIP3   OH213019   4.458   2.298   0.539
 4352TIP3    H113020   4.433   2.345   0.619
 4352TIP3    H213021   4.546   2.331   0.518
 4353TIP3   OH213022   6.481   3.729   4.942
 4353TIP3    H113023   6.485   3.655   4.881
 4353TIP3    H213024   6.491   3.806   4.888
 4354TIP3   OH213025   2.428   4.529   5.730
 4354TIP3    H113026   2.440   4.595   5.662
 4354TIP3    H213027   2.362   4.568   5.788
 4355TIP3   OH213028   5.261   4.555   4.801
 4355TIP3    H113029   5.302   4.518   4.880
 4355TIP3    H213030   5.167   4.540   4.815
 4356TIP3   OH213031   4.146   1.005   4.231
 4356TIP3    H113032   4.241   0.991   4.230
 4356TIP3    H213033   4.109   0.919   4.211
 4357TIP3   OH213034   1.826   2.453   5.676
 4357TIP3    H113035   1.911   2.475   5.638
 4357TIP3    H213036   1.842   2.374   5.727
 4358TIP3   OH213037   4.026   2.611   1.096
 4358TIP3    H113038   4.068   2.674   1.038
 4358TIP3    H213039   4.097   2.554   1.126
 4359TIP3   OH213040   0.376   6.687   2.442
 4359TIP3    H113041   0.449   6.631   2.467
 4359TIP3    H213042   0.311   6.675   2.512
 4360TIP3   OH213043   0.129   6.843   4.253
 4360TIP3    H113044   0.199   6.780   4.268
 4360TIP3    H213045   0.168   6.911   4.199
 4361TIP3   OH213046   4.125   2.305   0.734
 4361TIP3    H113047   4.111   2.277   0.644
 4361TIP3    H213048   4.183   2.239   0.772
 4362TIP3   OH213049   3.436   1.574   0.703
 4362TIP3    H113050   3.463   1.612   0.619
 4362TIP3    H213051   3.392   1.645   0.749
 4363TIP3   OH213052   0.923   1.368   3.042
 4363TIP3    H113053   1.013   1.388   3.018
 4363TIP3    H213054   0.876   1.367   2.959
 4364TIP3   OH213055   2.596   0.070   3.956
 4364TIP3    H113056   2.618  -0.008   3.904
 4364TIP3    H213057   2.502   0.061   3.971
 4365TIP3   OH213058   2.820   0.352   2.494
 4365TIP3    H113059   2.873   0.318   2.566
 4365TIP3    H213060   2.763   0.279   2.470
 4366TIP3   OH213061   4.768   2.308   2.753
 4366TIP3    H113062   4.835   2.327   2.819
 4366TIP3    H213063   4.710   2.246   2.796
 4367TIP3   OH213064   4.608   2.178   4.548
 4367TIP3    H113065   4.536   2.156   4.488
 4367TIP3    H213066   4.658   2.245   4.502
 4368TIP3   OH213067   1.791   1.255   3.376
 4368TIP3    H113068   1.830   1.255   3.464
 4368TIP3    H213069   1.865   1.236   3.318
 4369TIP3   OH213070   0.267   0.417   1.195
 4369TIP3    H113071   0.213   0.445   1.120
 4369TIP3    H213072   0.350   0.391   1.156
 4370TIP3   OH213073   4.561   0.781   4.124
 4370TIP3    H113074   4.622   0.714   4.094
 4370TIP3    H213075   4.573   0.853   4.063
 4371TIP3   OH213076   3.816   0.124   0.672
 4371TIP3    H113077   3.861   0.093   0.750
 4371TIP3    H213078   3.815   0.048   0.613
 4372TIP3   OH213079   4.554   4.196   4.163
 4372TIP3    H113080   4.588   4.109   4.142
 4372TIP3    H213081   4.628   4.241   4.205
 4373TIP3   OH213082   1.523   6.802   0.896
 4373TIP3    H113083   1.616   6.811   0.875
 4373TIP3    H213084   1.515   6.712   0.929
 4374TIP3   OH213085   0.305   5.994   5.678
 4374TIP3    H113086   0.387   6.005   5.726
 4374TIP3    H213087   0.319   6.040   5.596
 4375TIP3   OH213088   7.115   5.547   5.217
 4375TIP3    H113089   7.036   5.495   5.231
 4375TIP3    H213090   7.130   5.543   5.123
 4376TIP3   OH213091   5.961   5.607   2.654
 4376TIP3    H113092   5.870   5.593   2.627
 4376TIP3    H213093   5.982   5.530   2.707
 4377TIP3   OH213094   0.521   5.554   5.573
 4377TIP3    H113095   0.467   5.610   5.517
 4377TIP3    H213096   0.583   5.513   5.513
 4378TIP3   OH213097   5.333   2.528   3.488
 4378TIP3    H113098   5.283   2.521   3.570
 4378TIP3    H213099   5.267   2.545   3.421
 4379TIP3   OH213100   6.273   4.992   4.081
 4379TIP3    H113101   6.267   5.084   4.106
 4379TIP3    H213102   6.355   4.962   4.119
 4380TIP3   OH213103   6.883   4.946   3.177
 4380TIP3    H113104   6.907   4.984   3.093
 4380TIP3    H213105   6.966   4.934   3.223
 4381TIP3   OH213106   6.651   0.653   4.942
 4381TIP3    H113107   6.673   0.560   4.931
 4381TIP3    H213108   6.566   0.652   4.987
 4382TIP3   OH213109   1.418   1.633   1.286
 4382TIP3    H113110   1.422   1.725   1.314
 4382TIP3    H213111   1.397   1.637   1.192
 4383TIP3   OH213112   2.939   0.857   4.907
 4383TIP3    H113113   2.862   0.901   4.871
 4383TIP3    H213114   2.917   0.764   4.903
 4384TIP3   OH213115   0.384   3.998   5.747
 4384TIP3    H113116   0.405   3.912   5.712
 4384TIP3    H213117   0.402   4.058   5.675
 4385TIP3   OH213118   6.558   3.403   1.099
 4385TIP3    H113119   6.529   3.330   1.154
 4385TIP3    H213120   6.511   3.389   1.016
 4386TIP3   OH213121   0.385   4.165   1.924
 4386TIP3    H113122   0.463   4.121   1.891
 4386TIP3    H213123   0.378   4.136   2.015
 4387TIP3   OH213124   0.181   0.049   4.900
 4387TIP3    H113125   0.263   0.088   4.871
 4387TIP3    H213126   0.114   0.093   4.847
 4388TIP3   OH213127   3.219   4.959   2.381
 4388TIP3    H113128   3.226   4.967   2.476
 4388TIP3    H213129   3.309   4.962   2.349
 4389TIP3   OH213130   0.605   3.230   3.288
 4389TIP3    H113131   0.632   3.173   3.215
 4389TIP3    H213132   0.609   3.318   3.252
 4390TIP3   OH213133   5.344   0.615   1.060
 4390TIP3    H113134   5.371   0.614   1.152
 4390TIP3    H213135   5.416   0.572   1.014
 4391TIP3   OH213136   1.403   5.898   5.172
 4391TIP3    H113137   1.317   5.878   5.135
 4391TIP3    H213138   1.444   5.813   5.183
 4392TIP3   OH213139   0.583   2.259   1.902
 4392TIP3    H113140   0.670   2.246   1.939
 4392TIP3    H213141   0.589   2.339   1.851
 4393TIP3   OH213142   6.367   4.598   0.083
 4393TIP3    H113143   6.329   4.583   0.169
 4393TIP3    H213144   6.294   4.627   0.029
 4394TIP3   OH213145   4.269   3.397   4.394
 4394TIP3    H113146   4.295   3.416   4.304
 4394TIP3    H213147   4.192   3.452   4.409
 4395TIP3   OH213148   7.086   0.091   1.992
 4395TIP3    H113149   7.074   0.150   1.918
 4395TIP3    H213150   7.173   0.054   1.981
 4396TIP3   OH213151   3.004   2.522   2.932
 4396TIP3    H113152   2.981   2.454   2.995
 4396TIP3    H213153   3.077   2.568   2.973
 4397TIP3   OH213154   1.141   1.562   4.316
 4397TIP3    H113155   1.107   1.534   4.401
 4397TIP3    H213156   1.224   1.604   4.336
 4398TIP3   OH213157   0.076   4.606   3.317
 4398TIP3    H113158   0.080   4.625   3.411
 4398TIP3    H213159   0.165   4.624   3.286
 4399TIP3   OH213160   2.607   3.316   3.325
 4399TIP3    H113161   2.556   3.330   3.246
 4399TIP3    H213162   2.684   3.373   3.315
 4400TIP3   OH213163   2.845   2.177   3.419
 4400TIP3    H113164   2.756   2.155   3.392
 4400TIP3    H213165   2.900   2.153   3.345
 4401TIP3   OH213166   1.275   4.158   0.092
 4401TIP3    H113167   1.288   4.067   0.119
 4401TIP3    H213168   1.229   4.198   0.165
 4402TIP3   OH213169   6.275   0.829   1.947
 4402TIP3    H113170   6.249   0.862   2.033
 4402TIP3    H213171   6.290   0.735   1.961
 4403TIP3   OH213172   1.707   0.653   1.283
 4403TIP3    H113173   1.702   0.719   1.213
 4403TIP3    H213174   1.801   0.640   1.296
 4404TIP3   OH213175   0.175   1.905   3.988
 4404TIP3    H113176   0.101   1.857   4.025
 4404TIP3    H213177   0.141   1.942   3.906
 4405TIP3   OH213178   0.881   2.540   5.409
 4405TIP3    H113179   0.945   2.569   5.475
 4405TIP3    H213180   0.797   2.575   5.440
 4406TIP3   OH213181   3.301   5.112   2.829
 4406TIP3    H113182   3.310   5.043   2.763
 4406TIP3    H213183   3.275   5.190   2.778
 4407TIP3   OH213184   5.448   3.551   1.361
 4407TIP3    H113185   5.467   3.593   1.445
 4407TIP3    H213186   5.462   3.458   1.378
 4408TIP3   OH213187   5.487   5.844   0.065
 4408TIP3    H113188   5.532   5.848  -0.019
 4408TIP3    H213189   5.519   5.921   0.113
 4409TIP3   OH213190   5.862   0.566   3.837
 4409TIP3    H113191   5.857   0.471   3.840
 4409TIP3    H213192   5.956   0.585   3.834
 4410TIP3   OH213193   6.469   6.569   3.145
 4410TIP3    H113194   6.512   6.486   3.124
 4410TIP3    H213195   6.434   6.599   3.061
 4411TIP3   OH213196   3.080   4.677   3.778
 4411TIP3    H113197   3.023   4.752   3.762
 4411TIP3    H213198   3.158   4.713   3.819
 4412TIP3   OH213199   2.157   1.241   0.714
 4412TIP3    H113200   2.159   1.337   0.708
 4412TIP3    H213201   2.247   1.217   0.739
 4413TIP3   OH213202   6.391   0.947   1.676
 4413TIP3    H113203   6.352   0.890   1.742
 4413TIP3    H213204   6.353   0.917   1.593
 4414TIP3   OH213205   2.825   2.062   1.635
 4414TIP3    H113206   2.763   1.990   1.625
 4414TIP3    H213207   2.770   2.139   1.651
 4415TIP3   OH213208   0.898   4.006   0.242
 4415TIP3    H113209   0.923   4.098   0.234
 4415TIP3    H213210   0.963   3.958   0.191
 4416TIP3   OH213211   0.661   2.889   5.578
 4416TIP3    H113212   0.730   2.934   5.528
 4416TIP3    H213213   0.706   2.855   5.655
 4417TIP3   OH213214   6.773   2.623   0.752
 4417TIP3    H113215   6.862   2.633   0.787
 4417TIP3    H213216   6.749   2.711   0.724
 4418TIP3   OH213217   5.312   1.974   1.698
 4418TIP3    H113218   5.241   1.964   1.635
 4418TIP3    H213219   5.315   2.068   1.716
 4419TIP3   OH213220   0.457   6.679   4.701
 4419TIP3    H113221   0.516   6.710   4.770
 4419TIP3    H213222   0.469   6.743   4.630
 4420TIP3   OH213223   5.634   6.346   0.597
 4420TIP3    H113224   5.577   6.282   0.640
 4420TIP3    H213225   5.598   6.431   0.623
 4421TIP3   OH213226   0.481   5.391   1.956
 4421TIP3    H113227   0.480   5.301   1.988
 4421TIP3    H213228   0.518   5.385   1.868
 4422TIP3   OH213229   1.631   2.271   4.183
 4422TIP3    H113230   1.679   2.345   4.220
 4422TIP3    H213231   1.641   2.281   4.088
 4423TIP3   OH213232   5.670   1.545   4.300
 4423TIP3    H113233   5.597   1.580   4.250
 4423TIP3    H213234   5.703   1.473   4.247
 4424TIP3   OH213235   5.730   3.634   0.941
 4424TIP3    H113236   5.720   3.651   1.035
 4424TIP3    H213237   5.778   3.709   0.907
 4425TIP3   OH213238   1.108   6.567   3.312
 4425TIP3    H113239   1.175   6.499   3.320
 4425TIP3    H213240   1.156   6.649   3.307
 4426TIP3   OH213241   2.929   2.953   3.680
 4426TIP3    H113242   2.851   2.983   3.727
 4426TIP3    H213243   2.990   3.026   3.686
 4427TIP3   OH213244   1.692   5.830   5.158
 4427TIP3    H113245   1.645   5.872   5.086
 4427TIP3    H213246   1.784   5.832   5.131
 4428TIP3   OH213247   1.126   0.090   1.459
 4428TIP3    H113248   1.161   0.110   1.373
 4428TIP3    H213249   1.132   0.172   1.508
 4429TIP3   OH213250   3.914   3.160   5.769
 4429TIP3    H113251   3.825   3.149   5.804
 4429TIP3    H213252   3.948   3.237   5.815
 4430TIP3   OH213253   6.084   5.467   5.480
 4430TIP3    H113254   6.177   5.446   5.472
 4430TIP3    H213255   6.054   5.479   5.390
 4431TIP3   OH213256   3.257   5.739   5.782
 4431TIP3    H113257   3.298   5.679   5.719
 4431TIP3    H213258   3.163   5.729   5.766
 4432TIP3   OH213259   1.094   1.080   5.569
 4432TIP3    H113260   1.180   1.121   5.578
 4432TIP3    H213261   1.071   1.093   5.477
 4433TIP3   OH213262   0.711   3.437   2.062
 4433TIP3    H113263   0.660   3.392   2.129
 4433TIP3    H213264   0.681   3.398   1.979
 4434TIP3   OH213265   1.217   3.423   0.678
 4434TIP3    H113266   1.248   3.506   0.715
 4434TIP3    H213267   1.290   3.392   0.624
 4435TIP3   OH213268   6.369   6.054   5.424
 4435TIP3    H113269   6.428   6.112   5.473
 4435TIP3    H213270   6.281   6.088   5.443
 4436TIP3   OH213271   0.486   6.528   5.148
 4436TIP3    H113272   0.535   6.467   5.202
 4436TIP3    H213273   0.551   6.570   5.092
 4437TIP3   OH213274   6.851   6.574   5.527
 4437TIP3    H113275   6.843   6.482   5.503
 4437TIP3    H213276   6.859   6.620   5.444
 4438TIP3   OH213277   1.996   6.719   5.231
 4438TIP3    H113278   1.965   6.726   5.321
 4438TIP3    H213279   2.090   6.734   5.237
 4439TIP3   OH213280   4.753   5.450   3.154
 4439TIP3    H113281   4.790   5.467   3.067
 4439TIP3    H213282   4.792   5.517   3.210
 4440TIP3   OH213283   7.081   5.931   3.079
 4440TIP3    H113284   7.060   6.023   3.098
 4440TIP3    H213285   7.008   5.901   3.026
 4441TIP3   OH213286   6.252   5.673   4.517
 4441TIP3    H113287   6.337   5.716   4.530
 4441TIP3    H213288   6.271   5.601   4.457
 4442TIP3   OH213289   2.131   0.690   1.955
 4442TIP3    H113290   2.044   0.689   1.994
 4442TIP3    H213291   2.153   0.598   1.943
 4443TIP3   OH213292   2.131   1.716   2.406
 4443TIP3    H113293   2.139   1.641   2.464
 4443TIP3    H213294   2.113   1.679   2.320
 4444TIP3   OH213295   0.916   3.624   4.381
 4444TIP3    H113296   0.948   3.535   4.365
 4444TIP3    H213297   0.952   3.648   4.466
 4445TIP3   OH213298   1.008   3.374   4.419
 4445TIP3    H113299   0.925   3.331   4.398
 4445TIP3    H213300   1.072   3.329   4.364
 4446TIP3   OH213301   5.742   6.521   5.670
 4446TIP3    H113302   5.735   6.588   5.739
 4446TIP3    H213303   5.654   6.488   5.659
 4447TIP3   OH213304   1.840   4.260   4.651
 4447TIP3    H113305   1.799   4.181   4.688
 4447TIP3    H213306   1.929   4.233   4.629
 4448TIP3   OH213307   5.168   5.812   1.771
 4448TIP3    H113308   5.230   5.803   1.698
 4448TIP3    H213309   5.217   5.783   1.848
 4449TIP3   OH213310   6.712   1.503   3.597
 4449TIP3    H113311   6.710   1.568   3.667
 4449TIP3    H213312   6.649   1.536   3.532
 4450TIP3   OH213313   6.791   1.605   1.541
 4450TIP3    H113314   6.844   1.685   1.534
 4450TIP3    H213315   6.763   1.602   1.632
 4451TIP3   OH213316   5.961   3.286   2.445
 4451TIP3    H113317   5.891   3.221   2.453
 4451TIP3    H213318   5.933   3.342   2.372
 4452TIP3   OH213319   4.168   0.123   1.356
 4452TIP3    H113320   4.208   0.092   1.438
 4452TIP3    H213321   4.225   0.088   1.287
 4453TIP3   OH213322   0.202   1.609   0.268
 4453TIP3    H113323   0.249   1.525   0.266
 4453TIP3    H213324   0.211   1.640   0.358
 4454TIP3   OH213325   3.325   4.566   0.627
 4454TIP3    H113326   3.347   4.655   0.656
 4454TIP3    H213327   3.305   4.519   0.707
 4455TIP3   OH213328   5.263   1.760   4.120
 4455TIP3    H113329   5.214   1.798   4.047
 4455TIP3    H213330   5.197   1.721   4.176
 4456TIP3   OH213331   6.261   1.491   2.144
 4456TIP3    H113332   6.229   1.408   2.179
 4456TIP3    H213333   6.267   1.549   2.221
 4457TIP3   OH213334   2.679   5.270   5.692
 4457TIP3    H113335   2.646   5.201   5.749
 4457TIP3    H213336   2.668   5.351   5.742
 4458TIP3   OH213337   0.314   5.510   5.782
 4458TIP3    H113338   0.396   5.506   5.732
 4458TIP3    H213339   0.298   5.604   5.795
 4459TIP3   OH213340   3.508   0.874   4.758
 4459TIP3    H113341   3.526   0.966   4.775
 4459TIP3    H213342   3.564   0.827   4.820
 4460TIP3   OH213343   3.209   3.087   0.367
 4460TIP3    H113344   3.275   3.019   0.355
 4460TIP3    H213345   3.256   3.169   0.350
 4461TIP3   OH213346   1.328   6.011   2.778
 4461TIP3    H113347   1.323   6.073   2.705
 4461TIP3    H213348   1.258   6.038   2.837
 4462TIP3   OH213349   6.857   2.580   0.457
 4462TIP3    H113350   6.876   2.487   0.439
 4462TIP3    H213351   6.906   2.599   0.536
 4463TIP3   OH213352   6.204   5.626   2.515
 4463TIP3    H113353   6.122   5.624   2.564
 4463TIP3    H213354   6.238   5.714   2.527
 4464TIP3   OH213355   4.413   5.019   5.458
 4464TIP3    H113356   4.329   4.974   5.456
 4464TIP3    H213357   4.407   5.078   5.534
 4465TIP3   OH213358   6.603   3.051   0.924
 4465TIP3    H113359   6.615   3.048   1.019
 4465TIP3    H213360   6.667   3.115   0.894
 4466TIP3   OH213361   7.149   1.207   3.264
 4466TIP3    H113362   7.218   1.211   3.197
 4466TIP3    H213363   7.134   1.298   3.289
 4467TIP3   OH213364   5.385   2.451   0.852
 4467TIP3    H113365   5.466   2.441   0.802
 4467TIP3    H213366   5.382   2.545   0.873
 4468TIP3   OH213367   1.899   4.187   0.541
 4468TIP3    H113368   1.848   4.246   0.596
 4468TIP3    H213369   1.987   4.225   0.539
 4469TIP3   OH213370   2.303   0.918   2.890
 4469TIP3    H113371   2.389   0.954   2.910
 4469TIP3    H213372   2.321   0.832   2.852
 4470TIP3   OH213373   7.064   2.711   4.681
 4470TIP3    H113374   7.029   2.632   4.721
 4470TIP3    H213375   7.012   2.724   4.602
 4471TIP3   OH213376   3.254   5.439   4.883
 4471TIP3    H113377   3.167   5.423   4.847
 4471TIP3    H213378   3.313   5.422   4.809
 4472TIP3   OH213379   5.119   6.445   2.141
 4472TIP3    H113380   5.074   6.432   2.058
 4472TIP3    H213381   5.170   6.524   2.129
 4473TIP3   OH213382   6.742   4.917   0.005
 4473TIP3    H113383   6.726   4.923   0.099
 4473TIP3    H213384   6.674   4.857  -0.026
 4474TIP3   OH213385   6.955   5.986   5.603
 4474TIP3    H113386   7.021   5.929   5.562
 4474TIP3    H213387   6.878   5.976   5.547
 4475TIP3   OH213388   1.882   3.087   0.598
 4475TIP3    H113389   1.924   3.056   0.517
 4475TIP3    H213390   1.846   3.173   0.574
 4476TIP3   OH213391   6.920   3.484   4.296
 4476TIP3    H113392   7.000   3.439   4.268
 4476TIP3    H213393   6.901   3.447   4.382
 4477TIP3   OH213394   6.234   1.909   4.573
 4477TIP3    H113395   6.301   1.961   4.529
 4477TIP3    H213396   6.171   1.973   4.605
 4478TIP3   OH213397   4.313   0.801   5.821
 4478TIP3    H113398   4.398   0.826   5.859
 4478TIP3    H213399   4.256   0.876   5.838
 4479TIP3   OH213400   3.706   3.114   4.758
 4479TIP3    H113401   3.722   3.035   4.707
 4479TIP3    H213402   3.725   3.089   4.848
 4480TIP3   OH213403   2.350   1.140   2.139
 4480TIP3    H113404   2.312   1.161   2.224
 4480TIP3    H213405   2.421   1.078   2.159
 4481TIP3   OH213406   3.534   5.938   2.166
 4481TIP3    H113407   3.571   5.993   2.235
 4481TIP3    H213408   3.538   5.849   2.203
 4482TIP3   OH213409   3.663   2.577   1.263
 4482TIP3    H113410   3.676   2.576   1.169
 4482TIP3    H213411   3.587   2.635   1.276
 4483TIP3   OH213412   4.184   0.291   5.149
 4483TIP3    H113413   4.256   0.331   5.099
 4483TIP3    H213414   4.106   0.312   5.098
 4484TIP3   OH213415   7.133   3.284   4.961
 4484TIP3    H113416   7.111   3.283   5.054
 4484TIP3    H213417   7.209   3.226   4.953
 4485TIP3   OH213418   6.171   0.003   5.536
 4485TIP3    H113419   6.184   0.010   5.630
 4485TIP3    H213420   6.208   0.084   5.500
 4486TIP3   OH213421   0.207   2.916   1.967
 4486TIP3    H113422   0.140   2.984   1.971
 4486TIP3    H213423   0.282   2.953   2.014
 4487TIP3   OH213424   4.833   4.671   2.630
 4487TIP3    H113425   4.923   4.650   2.656
 4487TIP3    H213426   4.802   4.593   2.584
 4488TIP3   OH213427   0.282   4.286   0.293
 4488TIP3    H113428   0.259   4.246   0.377
 4488TIP3    H213429   0.345   4.354   0.315
 4489TIP3   OH213430   3.280   3.599   0.107
 4489TIP3    H113431   3.325   3.657   0.168
 4489TIP3    H213432   3.243   3.658   0.041
 4490TIP3   OH213433   4.838   5.127   5.321
 4490TIP3    H113434   4.824   5.175   5.403
 4490TIP3    H213435   4.783   5.049   5.329
 4491TIP3   OH213436   4.792   4.147   1.143
 4491TIP3    H113437   4.757   4.126   1.056
 4491TIP3    H213438   4.856   4.077   1.160
 4492TIP3   OH213439   3.782   1.841   3.659
 4492TIP3    H113440   3.690   1.832   3.684
 4492TIP3    H213441   3.809   1.753   3.633
 4493TIP3   OH213442   4.548   3.534   5.227
 4493TIP3    H113443   4.542   3.578   5.311
 4493TIP3    H213444   4.494   3.585   5.168
 4494TIP3   OH213445   4.696   3.823   4.589
 4494TIP3    H113446   4.729   3.821   4.499
 4494TIP3    H213447   4.636   3.748   4.594
 4495TIP3   OH213448   4.585   0.721   1.815
 4495TIP3    H113449   4.621   0.644   1.772
 4495TIP3    H213450   4.499   0.733   1.775
 4496TIP3   OH213451   7.187   3.220   1.356
 4496TIP3    H113452   7.187   3.186   1.445
 4496TIP3    H213453   7.098   3.252   1.342
 4497TIP3   OH213454   0.331   6.372   1.685
 4497TIP3    H113455   0.324   6.466   1.669
 4497TIP3    H213456   0.245   6.349   1.721
 4498TIP3   OH213457   4.854   6.116   2.517
 4498TIP3    H113458   4.801   6.186   2.556
 4498TIP3    H213459   4.913   6.162   2.457
 4499TIP3   OH213460   5.196   5.343   2.548
 4499TIP3    H113461   5.254   5.420   2.550
 4499TIP3    H213462   5.251   5.271   2.580
 4500TIP3   OH213463   0.318   0.262   3.500
 4500TIP3    H113464   0.284   0.265   3.590
 4500TIP3    H213465   0.317   0.169   3.477
 4501TIP3   OH213466   0.281   2.680   5.111
 4501TIP3    H113467   0.339   2.676   5.035
 4501TIP3    H213468   0.323   2.743   5.170
 4502TIP3   OH213469   5.100   4.100   0.336
 4502TIP3    H113470   5.020   4.148   0.314
 4502TIP3    H213471   5.132   4.067   0.252
 4503TIP3   OH213472   0.624   2.003   5.548
 4503TIP3    H113473   0.608   1.942   5.620
 4503TIP3    H213474   0.683   2.068   5.586
 4504TIP3   OH213475   3.704   1.144   2.309
 4504TIP3    H113476   3.734   1.134   2.399
 4504TIP3    H213477   3.745   1.071   2.262
 4505TIP3   OH213478   6.575   2.721   1.977
 4505TIP3    H113479   6.568   2.666   2.054
 4505TIP3    H213480   6.495   2.774   1.978
 4506TIP3   OH213481   1.476   0.557   1.880
 4506TIP3    H113482   1.385   0.531   1.863
 4506TIP3    H213483   1.484   0.643   1.839
 4507TIP3   OH213484   6.009   6.321   2.103
 4507TIP3    H113485   5.918   6.290   2.103
 4507TIP3    H213486   6.058   6.251   2.061
 4508TIP3   OH213487   2.179   4.247   0.616
 4508TIP3    H113488   2.254   4.194   0.588
 4508TIP3    H213489   2.150   4.207   0.698
 4509TIP3   OH213490   6.155   6.186   0.721
 4509TIP3    H113491   6.165   6.266   0.774
 4509TIP3    H213492   6.154   6.218   0.630
 4510TIP3   OH213493   6.997   6.413   5.260
 4510TIP3    H113494   7.030   6.409   5.170
 4510TIP3    H213495   6.978   6.506   5.274
 4511TIP3   OH213496   4.174   3.967   1.272
 4511TIP3    H113497   4.233   3.994   1.343
 4511TIP3    H213498   4.229   3.969   1.194
 4512TIP3   OH213499   7.206   3.155   2.755
 4512TIP3    H113500   7.122   3.141   2.712
 4512TIP3    H213501   7.207   3.249   2.776
 4513TIP3   OH213502   4.725   2.017   4.215
 4513TIP3    H113503   4.811   1.979   4.230
 4513TIP3    H213504   4.664   1.956   4.255
 4514TIP3   OH213505   5.203   0.892   1.239
 4514TIP3    H113506   5.240   0.874   1.152
 4514TIP3    H213507   5.273   0.937   1.286
 4515TIP3   OH213508   1.342   2.682   0.617
 4515TIP3    H113509   1.387   2.695   0.700
 4515TIP3    H213510   1.284   2.607   0.632
 4516TIP3   OH213511   5.429   6.335   5.339
 4516TIP3    H113512   5.395   6.395   5.272
 4516TIP3    H213513   5.515   6.369   5.361
 4517TIP3   OH213514   0.676   4.865   2.917
 4517TIP3    H113515   0.699   4.774   2.936
 4517TIP3    H213516   0.584   4.862   2.893
 4518TIP3   OH213517   2.484   2.120   3.711
 4518TIP3    H113518   2.446   2.041   3.749
 4518TIP3    H213519   2.561   2.090   3.663
 4519TIP3   OH213520   3.301   6.421   2.853
 4519TIP3    H113521   3.237   6.447   2.918
 4519TIP3    H213522   3.375   6.388   2.904
 4520TIP3   OH213523   3.457   2.032   3.963
 4520TIP3    H113524   3.440   2.046   3.869
 4520TIP3    H213525   3.551   2.042   3.972
 4521TIP3   OH213526   1.376   1.146   1.832
 4521TIP3    H113527   1.346   1.236   1.847
 4521TIP3    H213528   1.431   1.153   1.754
 4522TIP3   OH213529   0.571   5.199   2.770
 4522TIP3    H113530   0.567   5.243   2.685
 4522TIP3    H213531   0.481   5.201   2.803
 4523TIP3   OH213532   4.146   2.168   2.513
 4523TIP3    H113533   4.174   2.258   2.492
 4523TIP3    H213534   4.180   2.152   2.601
 4524TIP3   OH213535   3.923   6.256   4.554
 4524TIP3    H113536   3.946   6.293   4.468
 4524TIP3    H213537   3.916   6.332   4.611
 4525TIP3   OH213538   6.525   4.841   2.844
 4525TIP3    H113539   6.548   4.900   2.916
 4525TIP3    H213540   6.504   4.758   2.886
 4526TIP3   OH213541   2.669   5.160   3.230
 4526TIP3    H113542   2.607   5.219   3.187
 4526TIP3    H213543   2.656   5.076   3.187
 4527TIP3   OH213544   0.826   1.683   1.587
 4527TIP3    H113545   0.905   1.737   1.598
 4527TIP3    H213546   0.860   1.595   1.569
 4528TIP3   OH213547   5.940   1.460   4.405
 4528TIP3    H113548   5.978   1.547   4.392
 4528TIP3    H213549   5.871   1.473   4.470
 4529TIP3   OH213550   1.416   1.484   0.227
 4529TIP3    H113551   1.405   1.429   0.149
 4529TIP3    H213552   1.490   1.444   0.274
 4530TIP3   OH213553   1.091   2.012   2.322
 4530TIP3    H113554   0.997   2.008   2.342
 4530TIP3    H213555   1.116   1.921   2.306
 4531TIP3   OH213556   0.998   2.695   2.557
 4531TIP3    H113557   1.085   2.728   2.535
 4531TIP3    H213558   0.976   2.636   2.485
 4532TIP3   OH213559   5.358   5.483   1.021
 4532TIP3    H113560   5.356   5.494   1.117
 4532TIP3    H213561   5.410   5.557   0.990
 4533TIP3   OH213562   2.594   0.371   4.440
 4533TIP3    H113563   2.614   0.281   4.463
 4533TIP3    H213564   2.658   0.424   4.488
 4534TIP3   OH213565   0.325   2.815   4.803
 4534TIP3    H113566   0.242   2.783   4.765
 4534TIP3    H213567   0.390   2.752   4.773
 4535TIP3   OH213568   3.143   1.081   0.571
 4535TIP3    H113569   3.200   1.145   0.612
 4535TIP3    H213570   3.143   1.105   0.478
 4536TIP3   OH213571   0.966   2.544   1.819
 4536TIP3    H113572   0.962   2.509   1.730
 4536TIP3    H213573   0.987   2.637   1.807
 4537TIP3   OH213574   1.178   0.447   5.367
 4537TIP3    H113575   1.242   0.501   5.321
 4537TIP3    H213576   1.182   0.362   5.322
 4538TIP3   OH213577   1.081   0.648   0.928
 4538TIP3    H113578   1.003   0.701   0.945
 4538TIP3    H213579   1.153   0.701   0.963
 4539TIP3   OH213580   0.695   0.810   0.867
 4539TIP3    H113581   0.631   0.763   0.921
 4539TIP3    H213582   0.658   0.898   0.858
 4540TIP3   OH213583   3.745   4.150   2.327
 4540TIP3    H113584   3.776   4.212   2.260
 4540TIP3    H213585   3.659   4.183   2.352
 4541TIP3   OH213586   4.075   4.198   4.948
 4541TIP3    H113587   4.123   4.238   5.020
 4541TIP3    H213588   4.087   4.259   4.875
 4542TIP3   OH213589   1.256   3.557   3.845
 4542TIP3    H113590   1.216   3.520   3.924
 4542TIP3    H213591   1.216   3.643   3.835
 4543TIP3   OH213592   4.874   0.068   0.028
 4543TIP3    H113593   4.926   0.048   0.105
 4543TIP3    H213594   4.827   0.149   0.050
 4544TIP3   OH213595   4.113   5.383   4.653
 4544TIP3    H113596   4.061   5.332   4.590
 4544TIP3    H213597   4.084   5.473   4.641
 4545TIP3   OH213598   4.603   2.274   5.738
 4545TIP3    H113599   4.587   2.179   5.738
 4545TIP3    H213600   4.555   2.306   5.662
 4546TIP3   OH213601   0.363   3.702   4.457
 4546TIP3    H113602   0.454   3.700   4.429
 4546TIP3    H213603   0.367   3.704   4.553
 4547TIP3   OH213604   5.526   1.174   4.815
 4547TIP3    H113605   5.554   1.130   4.734
 4547TIP3    H213606   5.603   1.223   4.843
 4548TIP3   OH213607   0.955   2.943   3.683
 4548TIP3    H113608   0.966   2.849   3.673
 4548TIP3    H213609   0.878   2.964   3.629
 4549TIP3   OH213610   1.038   5.490   1.156
 4549TIP3    H113611   0.945   5.497   1.181
 4549TIP3    H213612   1.054   5.568   1.104
 4550TIP3   OH213613   5.056   4.683   0.152
 4550TIP3    H113614   5.114   4.612   0.125
 4550TIP3    H213615   4.994   4.642   0.212
 4551TIP3   OH213616   6.197   6.018   3.589
 4551TIP3    H113617   6.289   6.002   3.610
 4551TIP3    H213618   6.185   6.112   3.605
 4552TIP3   OH213619   5.982   2.234   1.815
 4552TIP3    H113620   6.072   2.207   1.795
 4552TIP3    H213621   5.950   2.166   1.874
 4553TIP3   OH213622   5.458   3.507   3.129
 4553TIP3    H113623   5.400   3.461   3.189
 4553TIP3    H213624   5.401   3.536   3.058
 4554TIP3   OH213625   4.341   6.436   5.758
 4554TIP3    H113626   4.391   6.486   5.694
 4554TIP3    H213627   4.373   6.346   5.748
 4555TIP3   OH213628   5.445   5.081   3.178
 4555TIP3    H113629   5.518   5.053   3.233
 4555TIP3    H213630   5.369   5.077   3.236
 4556TIP3   OH213631   4.702   5.948   0.282
 4556TIP3    H113632   4.771   5.958   0.348
 4556TIP3    H213633   4.624   5.984   0.323
 4557TIP3   OH213634   0.745   2.440   2.460
 4557TIP3    H113635   0.839   2.441   2.441
 4557TIP3    H213636   0.733   2.512   2.522
 4558TIP3   OH213637   2.034   5.305   4.972
 4558TIP3    H113638   2.082   5.228   5.003
 4558TIP3    H213639   2.044   5.369   5.043
 4559TIP3   OH213640   5.739   0.896   0.431
 4559TIP3    H113641   5.767   0.983   0.402
 4559TIP3    H213642   5.660   0.879   0.381
 4560TIP3   OH213643   3.793   5.144   0.520
 4560TIP3    H113644   3.863   5.195   0.480
 4560TIP3    H213645   3.731   5.128   0.448
 4561TIP3   OH213646   3.484   2.015   4.935
 4561TIP3    H113647   3.397   2.014   4.897
 4561TIP3    H213648   3.470   1.999   5.029
 4562TIP3   OH213649   2.358   3.880   0.236
 4562TIP3    H113650   2.289   3.831   0.191
 4562TIP3    H213651   2.413   3.813   0.277
 4563TIP3   OH213652   2.215   2.326   4.352
 4563TIP3    H113653   2.285   2.268   4.322
 4563TIP3    H213654   2.261   2.394   4.403
 4564TIP3   OH213655   3.448   2.556   3.146
 4564TIP3    H113656   3.502   2.624   3.188
 4564TIP3    H213657   3.366   2.557   3.195
 4565TIP3   OH213658   0.252   3.077   2.802
 4565TIP3    H113659   0.180   3.137   2.781
 4565TIP3    H213660   0.266   3.027   2.722
 4566TIP3   OH213661   2.208   6.135   2.382
 4566TIP3    H113662   2.231   6.226   2.403
 4566TIP3    H213663   2.136   6.142   2.321
 4567TIP3   OH213664   5.446   5.965   1.769
 4567TIP3    H113665   5.393   5.886   1.771
 4567TIP3    H213666   5.387   6.033   1.737
 4568TIP3   OH213667   5.877   2.150   2.676
 4568TIP3    H113668   5.816   2.143   2.750
 4568TIP3    H213669   5.960   2.118   2.711
 4569TIP3   OH213670   5.046   0.804   0.700
 4569TIP3    H113671   5.107   0.791   0.773
 4569TIP3    H213672   5.073   0.741   0.634
 4570TIP3   OH213673   6.981   6.257   0.556
 4570TIP3    H113674   7.047   6.210   0.606
 4570TIP3    H213675   7.029   6.330   0.516
 4571TIP3   OH213676   7.021   4.349   2.835
 4571TIP3    H113677   6.965   4.305   2.772
 4571TIP3    H213678   7.075   4.279   2.872
 4572TIP3   OH213679   5.281   5.645   4.188
 4572TIP3    H113680   5.212   5.592   4.228
 4572TIP3    H213681   5.362   5.606   4.221
 4573TIP3   OH213682   5.616   3.174   4.652
 4573TIP3    H113683   5.666   3.094   4.636
 4573TIP3    H213684   5.667   3.243   4.607
 4574TIP3   OH213685   2.033   2.853   1.264
 4574TIP3    H113686   2.118   2.811   1.250
 4574TIP3    H213687   2.054   2.938   1.302
 4575TIP3   OH213688   1.692   6.116   1.743
 4575TIP3    H113689   1.613   6.063   1.757
 4575TIP3    H213690   1.760   6.071   1.793
 4576TIP3   OH213691   6.200   5.769   1.895
 4576TIP3    H113692   6.202   5.843   1.835
 4576TIP3    H213693   6.266   5.709   1.861
 4577TIP3   OH213694   5.969   2.111   3.128
 4577TIP3    H113695   5.978   2.170   3.202
 4577TIP3    H213696   5.915   2.039   3.161
 4578TIP3   OH213697   2.968   4.108   3.449
 4578TIP3    H113698   2.913   4.088   3.525
 4578TIP3    H213699   2.916   4.082   3.373
 4579TIP3   OH213700   0.689   4.542   2.302
 4579TIP3    H113701   0.594   4.555   2.294
 4579TIP3    H213702   0.704   4.531   2.395
 4580TIP3   OH213703   5.263   0.075   0.740
 4580TIP3    H113704   5.308   0.104   0.819
 4580TIP3    H213705   5.296   0.133   0.671
 4581TIP3   OH213706   6.779   0.935   4.132
 4581TIP3    H113707   6.753   0.876   4.203
 4581TIP3    H213708   6.871   0.955   4.150
 4582TIP3   OH213709   7.032   0.191   5.342
 4582TIP3    H113710   6.937   0.189   5.353
 4582TIP3    H213711   7.045   0.166   5.250
 4583TIP3   OH213712   0.544   1.641   0.911
 4583TIP3    H113713   0.488   1.587   0.854
 4583TIP3    H213714   0.626   1.650   0.862
 4584TIP3   OH213715   1.140   6.450   2.658
 4584TIP3    H113716   1.175   6.367   2.690
 4584TIP3    H213717   1.182   6.462   2.573
 4585TIP3   OH213718   1.983   3.759   1.535
 4585TIP3    H113719   1.922   3.815   1.487
 4585TIP3    H213720   2.055   3.744   1.474
 4586TIP3   OH213721   2.429   6.803   1.390
 4586TIP3    H113722   2.427   6.725   1.446
 4586TIP3    H213723   2.360   6.788   1.325
 4587TIP3   OH213724   3.454   4.494   4.851
 4587TIP3    H113725   3.436   4.401   4.837
 4587TIP3    H213726   3.546   4.505   4.830
 4588TIP3   OH213727   2.292   0.637   1.182
 4588TIP3    H113728   2.257   0.548   1.174
 4588TIP3    H213729   2.330   0.655   1.096
 4589TIP3   OH213730   4.594   4.679   5.170
 4589TIP3    H113731   4.652   4.737   5.121
 4589TIP3    H213732   4.508   4.721   5.163
 4590TIP3   OH213733   6.982   4.159   3.335
 4590TIP3    H113734   6.955   4.130   3.248
 4590TIP3    H213735   7.011   4.250   3.321
 4591TIP3   OH213736   4.783   2.693   3.041
 4591TIP3    H113737   4.719   2.759   3.067
 4591TIP3    H213738   4.772   2.684   2.946
 4592TIP3   OH213739   6.397   0.007   0.076
 4592TIP3    H113740   6.314  -0.036   0.096
 4592TIP3    H213741   6.380   0.055  -0.005
 4593TIP3   OH213742   0.884   6.327   0.578
 4593TIP3    H113743   0.843   6.404   0.539
 4593TIP3    H213744   0.925   6.282   0.504
 4594TIP3   OH213745   0.971   1.807   0.731
 4594TIP3    H113746   1.001   1.727   0.689
 4594TIP3    H213747   0.967   1.785   0.824
 4595TIP3   OH213748   2.232   0.138   2.564
 4595TIP3    H113749   2.287   0.081   2.617
 4595TIP3    H213750   2.181   0.188   2.627
 4596TIP3   OH213751   2.761   3.820   2.111
 4596TIP3    H113752   2.704   3.854   2.180
 4596TIP3    H213753   2.818   3.894   2.089
 4597TIP3   OH213754   2.714   1.450   5.466
 4597TIP3    H113755   2.659   1.407   5.401
 4597TIP3    H213756   2.804   1.428   5.440
 4598TIP3   OH213757   5.128   4.994   5.589
 4598TIP3    H113758   5.200   4.990   5.526
 4598TIP3    H213759   5.094   5.083   5.581
 4599TIP3   OH213760   5.530   4.664   0.928
 4599TIP3    H113761   5.541   4.650   1.023
 4599TIP3    H213762   5.548   4.578   0.889
 4600TIP3   OH213763   1.107   4.607   3.812
 4600TIP3    H113764   1.076   4.519   3.832
 4600TIP3    H213765   1.043   4.665   3.853
 4601TIP3   OH213766   4.131   1.948   2.353
 4601TIP3    H113767   4.218   1.914   2.378
 4601TIP3    H213768   4.117   2.023   2.410
 4602TIP3   OH213769   3.146   5.179   1.496
 4602TIP3    H113770   3.134   5.102   1.441
 4602TIP3    H213771   3.231   5.214   1.469
 4603TIP3   OH213772   6.623   6.719   4.860
 4603TIP3    H113773   6.577   6.646   4.819
 4603TIP3    H213774   6.690   6.677   4.914
 4604TIP3   OH213775   3.741   3.228   5.374
 4604TIP3    H113776   3.722   3.297   5.438
 4604TIP3    H213777   3.832   3.204   5.391
 4605TIP3   OH213778   5.534   2.683   5.039
 4605TIP3    H113779   5.450   2.723   5.060
 4605TIP3    H213780   5.527   2.657   4.947
 4606TIP3   OH213781   5.505   2.570   4.792
 4606TIP3    H113782   5.579   2.509   4.792
 4606TIP3    H213783   5.477   2.574   4.701
 4607TIP3   OH213784   4.626   5.154   1.905
 4607TIP3    H113785   4.665   5.067   1.911
 4607TIP3    H213786   4.585   5.155   1.818
 4608TIP3   OH213787   2.394   1.301   3.710
 4608TIP3    H113788   2.423   1.233   3.771
 4608TIP3    H213789   2.411   1.264   3.623
 4609TIP3   OH213790   2.730   5.510   3.201
 4609TIP3    H113791   2.677   5.447   3.151
 4609TIP3    H213792   2.724   5.591   3.151
 4610TIP3   OH213793   2.210   0.419   4.492
 4610TIP3    H113794   2.262   0.379   4.562
 4610TIP3    H213795   2.192   0.347   4.431
 4611TIP3   OH213796   0.557   6.172   4.403
 4611TIP3    H113797   0.501   6.173   4.481
 4611TIP3    H213798   0.497   6.159   4.330
 4612TIP3   OH213799   1.425   5.102   4.706
 4612TIP3    H113800   1.506   5.138   4.670
 4612TIP3    H213801   1.450   5.018   4.744
 4613TIP3   OH213802   1.749   1.765   0.121
 4613TIP3    H113803   1.750   1.786   0.214
 4613TIP3    H213804   1.810   1.829   0.082
 4614TIP3   OH213805   1.966   3.720   2.523
 4614TIP3    H113806   1.977   3.668   2.444
 4614TIP3    H213807   1.884   3.768   2.509
 4615TIP3   OH213808   3.765   2.136   1.649
 4615TIP3    H113809   3.824   2.114   1.721
 4615TIP3    H213810   3.785   2.228   1.629
 4616TIP3   OH213811   2.810   4.527   5.441
 4616TIP3    H113812   2.793   4.464   5.371
 4616TIP3    H213813   2.786   4.612   5.403
 4617TIP3   OH213814   5.685   3.953   5.476
 4617TIP3    H113815   5.735   3.917   5.549
 4617TIP3    H213816   5.614   3.889   5.463
 4618TIP3   OH213817   5.332   2.026   5.013
 4618TIP3    H113818   5.314   2.117   4.989
 4618TIP3    H213819   5.250   1.979   4.996
 4619TIP3   OH213820   5.272   0.297   0.529
 4619TIP3    H113821   5.307   0.309   0.441
 4619TIP3    H213822   5.304   0.373   0.578
 4620TIP3   OH213823   1.063   3.060   1.574
 4620TIP3    H113824   1.132   3.061   1.640
 4620TIP3    H213825   1.086   2.987   1.516
 4621TIP3   OH213826   2.754   1.183   5.573
 4621TIP3    H113827   2.696   1.256   5.550
 4621TIP3    H213828   2.785   1.149   5.489
 4622TIP3   OH213829   4.764   0.431   3.401
 4622TIP3    H113830   4.718   0.349   3.420
 4622TIP3    H213831   4.856   0.408   3.406
 4623TIP3   OH213832   0.898   5.158   3.451
 4623TIP3    H113833   0.873   5.168   3.542
 4623TIP3    H213834   0.918   5.246   3.421
 4624TIP3   OH213835   5.991   2.469   0.784
 4624TIP3    H113836   5.938   2.482   0.705
 4624TIP3    H213837   6.080   2.492   0.757
 4625TIP3   OH213838   0.525   3.168   0.169
 4625TIP3    H113839   0.594   3.218   0.213
 4625TIP3    H213840   0.526   3.083   0.212
 4626TIP3   OH213841   0.380   5.455   4.499
 4626TIP3    H113842   0.345   5.454   4.588
 4626TIP3    H213843   0.356   5.369   4.463
 4627TIP3   OH213844   6.554   5.759   4.764
 4627TIP3    H113845   6.507   5.785   4.843
 4627TIP3    H213846   6.512   5.810   4.694
 4628TIP3   OH213847   6.742   4.640   3.889
 4628TIP3    H113848   6.649   4.620   3.881
 4628TIP3    H213849   6.768   4.672   3.802
 4629TIP3   OH213850   6.896   2.254   3.519
 4629TIP3    H113851   6.905   2.325   3.456
 4629TIP3    H213852   6.817   2.276   3.569
 4630TIP3   OH213853   0.816   4.071   5.406
 4630TIP3    H113854   0.797   4.150   5.355
 4630TIP3    H213855   0.738   4.057   5.459
 4631TIP3   OH213856   2.353   6.597   5.044
 4631TIP3    H113857   2.346   6.570   4.953
 4631TIP3    H213858   2.338   6.516   5.094
 4632TIP3   OH213859   2.300   0.704   3.876
 4632TIP3    H113860   2.265   0.655   3.950
 4632TIP3    H213861   2.372   0.755   3.912
 4633TIP3   OH213862   4.149   0.913   4.681
 4633TIP3    H113863   4.106   0.989   4.719
 4633TIP3    H213864   4.084   0.877   4.620
 4634TIP3   OH213865   2.064   0.214   1.675
 4634TIP3    H113866   1.969   0.216   1.674
 4634TIP3    H213867   2.087   0.124   1.696
 4635TIP3   OH213868   4.523   1.966   4.986
 4635TIP3    H113869   4.511   1.936   4.896
 4635TIP3    H213870   4.449   1.927   5.034
 4636TIP3   OH213871   2.599   5.292   1.912
 4636TIP3    H113872   2.545   5.231   1.863
 4636TIP3    H213873   2.658   5.330   1.846
 4637TIP3   OH213874   0.297   0.879   5.470
 4637TIP3    H113875   0.255   0.892   5.555
 4637TIP3    H213876   0.389   0.899   5.486
 4638TIP3   OH213877   3.686   2.945   4.429
 4638TIP3    H113878   3.730   2.881   4.484
 4638TIP3    H213879   3.593   2.922   4.435
 4639TIP3   OH213880   6.303   2.098   3.681
 4639TIP3    H113881   6.368   2.146   3.630
 4639TIP3    H213882   6.239   2.069   3.616
 4640TIP3   OH213883   2.003   0.580   5.581
 4640TIP3    H113884   1.966   0.493   5.601
 4640TIP3    H213885   1.948   0.641   5.631
 4641TIP3   OH213886   1.547   3.659   4.409
 4641TIP3    H113887   1.564   3.587   4.349
 4641TIP3    H213888   1.537   3.618   4.494
 4642TIP3   OH213889   0.515   5.717   5.784
 4642TIP3    H113890   0.595   5.687   5.827
 4642TIP3    H213891   0.510   5.665   5.704
 4643TIP3   OH213892   5.498   0.143   3.768
 4643TIP3    H113893   5.534   0.055   3.760
 4643TIP3    H213894   5.481   0.154   3.862
 4644TIP3   OH213895   4.126   0.051   0.064
 4644TIP3    H113896   4.202   0.044   0.122
 4644TIP3    H213897   4.161   0.034  -0.023
 4645TIP3   OH213898   5.549   5.084   2.150
 4645TIP3    H113899   5.641   5.110   2.159
 4645TIP3    H213900   5.504   5.132   2.219
 4646TIP3   OH213901   2.653   5.165   5.340
 4646TIP3    H113902   2.642   5.258   5.361
 4646TIP3    H213903   2.713   5.164   5.266
 4647TIP3   OH213904   2.453   1.482   2.612
 4647TIP3    H113905   2.530   1.530   2.580
 4647TIP3    H213906   2.400   1.467   2.534
 4648TIP3   OH213907   0.056   6.355   1.541
 4648TIP3    H113908   0.040   6.438   1.587
 4648TIP3    H213909   0.127   6.375   1.480
 4649TIP3   OH213910   6.705   5.282   0.457
 4649TIP3    H113911   6.785   5.255   0.501
 4649TIP3    H213912   6.724   5.370   0.425
 4650TIP3   OH213913   4.149   5.640   3.358
 4650TIP3    H113914   4.124   5.571   3.419
 4650TIP3    H213915   4.083   5.637   3.289
 4651TIP3   OH213916   1.041   1.645   2.427
 4651TIP3    H113917   0.970   1.582   2.437
 4651TIP3    H213918   1.028   1.708   2.498
 4652TIP3   OH213919   4.598   1.686   4.714
 4652TIP3    H113920   4.689   1.710   4.732
 4652TIP3    H213921   4.554   1.770   4.699
 4653TIP3   OH213922   6.590   3.977   3.457
 4653TIP3    H113923   6.623   4.053   3.506
 4653TIP3    H213924   6.522   3.940   3.512
 4654TIP3   OH213925   1.436   3.526   3.162
 4654TIP3    H113926   1.443   3.614   3.125
 4654TIP3    H213927   1.384   3.477   3.099
 4655TIP3   OH213928   5.638   2.449   2.513
 4655TIP3    H113929   5.660   2.442   2.606
 4655TIP3    H213930   5.718   2.423   2.468
 4656TIP3   OH213931   3.590   1.917   2.763
 4656TIP3    H113932   3.631   1.936   2.678
 4656TIP3    H213933   3.502   1.888   2.740
 4657TIP3   OH213934   4.730   1.866   5.133
 4657TIP3    H113935   4.695   1.848   5.220
 4657TIP3    H213936   4.656   1.905   5.085
 4658TIP3   OH213937   5.055   5.744   5.002
 4658TIP3    H113938   4.974   5.708   4.965
 4658TIP3    H213939   5.026   5.817   5.057
 4659TIP3   OH213940   3.069   2.895   2.804
 4659TIP3    H113941   3.118   2.849   2.872
 4659TIP3    H213942   3.000   2.834   2.779
 4660TIP3   OH213943   5.228   4.601   0.832
 4660TIP3    H113944   5.166   4.667   0.800
 4660TIP3    H213945   5.300   4.652   0.869
 4661TIP3   OH213946   6.412   3.159   3.667
 4661TIP3    H113947   6.413   3.206   3.584
 4661TIP3    H213948   6.346   3.205   3.720
 4662TIP3   OH213949   1.685   3.459   3.076
 4662TIP3    H113950   1.594   3.469   3.105
 4662TIP3    H213951   1.687   3.376   3.030
 4663TIP3   OH213952   5.753   5.188   5.483
 4663TIP3    H113953   5.768   5.127   5.555
 4663TIP3    H213954   5.714   5.134   5.414
 4664TIP3   OH213955   4.512   6.209   1.659
 4664TIP3    H113956   4.475   6.141   1.603
 4664TIP3    H213957   4.466   6.199   1.743
 4665TIP3   OH213958   0.414   6.521   5.879
 4665TIP3    H113959   0.500   6.522   5.921
 4665TIP3    H213960   0.406   6.433   5.842
 4666TIP3   OH213961   4.365   4.827   1.636
 4666TIP3    H113962   4.320   4.911   1.644
 4666TIP3    H213963   4.429   4.841   1.566
 4667TIP3   OH213964   0.998   2.293   0.717
 4667TIP3    H113965   0.946   2.299   0.637
 4667TIP3    H213966   0.935   2.277   0.786
 4668TIP3   OH213967   6.829   6.318   2.464
 4668TIP3    H113968   6.873   6.315   2.548
 4668TIP3    H213969   6.801   6.228   2.449
 4669TIP3   OH213970   6.541   4.010   0.836
 4669TIP3    H113971   6.449   4.035   0.844
 4669TIP3    H213972   6.540   3.917   0.815
 4670TIP3   OH213973   3.951   6.077   0.447
 4670TIP3    H113974   4.000   6.148   0.490
 4670TIP3    H213975   3.961   6.002   0.505
 4671TIP3   OH213976   4.478   4.703   5.695
 4671TIP3    H113977   4.572   4.717   5.687
 4671TIP3    H213978   4.445   4.786   5.730
 4672TIP3   OH213979   0.681   1.276   3.828
 4672TIP3    H113980   0.611   1.334   3.856
 4672TIP3    H213981   0.658   1.251   3.738
 4673TIP3   OH213982   0.730   0.701   1.423
 4673TIP3    H113983   0.772   0.680   1.507
 4673TIP3    H213984   0.694   0.789   1.437
 4674TIP3   OH213985   0.293   0.035   3.009
 4674TIP3    H113986   0.257   0.123   2.994
 4674TIP3    H213987   0.258  -0.017   2.937
 4675TIP3   OH213988   2.588   3.174   3.657
 4675TIP3    H113989   2.604   3.267   3.641
 4675TIP3    H213990   2.651   3.151   3.726
 4676TIP3   OH213991   5.560   3.038   3.469
 4676TIP3    H113992   5.582   2.947   3.486
 4676TIP3    H213993   5.591   3.055   3.380
 4677TIP3   OH213994   5.313   4.559   3.623
 4677TIP3    H113995   5.379   4.627   3.605
 4677TIP3    H213996   5.364   4.487   3.660
 4678TIP3   OH213997   6.660   6.241   5.236
 4678TIP3    H113998   6.590   6.305   5.246
 4678TIP3    H213999   6.685   6.247   5.144
 4679TIP3   OH214000   0.156   3.674   2.641
 4679TIP3    H114001   0.249   3.664   2.661
 4679TIP3    H214002   0.127   3.587   2.615
 4680TIP3   OH214003   1.892   2.951   0.868
 4680TIP3    H114004   1.827   3.017   0.890
 4680TIP3    H214005   1.899   2.955   0.772
 4681TIP3   OH214006   2.014   2.418   1.299
 4681TIP3    H114007   1.941   2.364   1.329
 4681TIP3    H214008   1.993   2.506   1.330
 4682TIP3   OH214009   3.219   6.280   1.495
 4682TIP3    H114010   3.158   6.334   1.445
 4682TIP3    H214011   3.185   6.191   1.487
 4683TIP3   OH214012   6.037   5.081   3.305
 4683TIP3    H114013   6.126   5.050   3.322
 4683TIP3    H214014   6.035   5.169   3.342
 4684TIP3   OH214015   1.220   6.336   5.316
 4684TIP3    H114016   1.151   6.314   5.254
 4684TIP3    H214017   1.250   6.251   5.349
 4685TIP3   OH214018   1.618   0.191   4.448
 4685TIP3    H114019   1.600   0.244   4.525
 4685TIP3    H214020   1.589   0.103   4.471
 4686TIP3   OH214021   2.381   1.088   4.023
 4686TIP3    H114022   2.440   1.104   3.949
 4686TIP3    H214023   2.323   1.164   4.024
 4687TIP3   OH214024   2.083   3.150   2.568
 4687TIP3    H114025   2.023   3.188   2.503
 4687TIP3    H214026   2.053   3.060   2.578
 4688TIP3   OH214027   6.464   3.280   4.332
 4688TIP3    H114028   6.389   3.301   4.389
 4688TIP3    H214029   6.497   3.365   4.305
 4689TIP3   OH214030   5.928   2.427   4.305
 4689TIP3    H114031   5.968   2.503   4.261
 4689TIP3    H214032   6.003   2.371   4.327
 4690TIP3   OH214033   4.858   4.177   5.805
 4690TIP3    H114034   4.861   4.160   5.899
 4690TIP3    H214035   4.938   4.137   5.771
 4691TIP3   OH214036   7.023   3.085   0.607
 4691TIP3    H114037   7.026   2.995   0.638
 4691TIP3    H214038   7.065   3.082   0.521
 4692TIP3   OH214039   3.385   3.906   4.549
 4692TIP3    H114040   3.361   3.835   4.609
 4692TIP3    H214041   3.351   3.877   4.464
 4693TIP3   OH214042   2.693   3.895   4.103
 4693TIP3    H114043   2.754   3.966   4.082
 4693TIP3    H214044   2.650   3.874   4.020
 4694TIP3   OH214045   2.977   5.078   2.619
 4694TIP3    H114046   2.908   5.131   2.580
 4694TIP3    H214047   3.050   5.138   2.632
 4695TIP3   OH214048   5.409   6.214   4.014
 4695TIP3    H114049   5.459   6.148   4.062
 4695TIP3    H214050   5.390   6.173   3.930
 4696TIP3   OH214051   4.295   1.776   2.713
 4696TIP3    H114052   4.306   1.767   2.618
 4696TIP3    H214053   4.239   1.702   2.738
 4697TIP3   OH214054   0.233   1.834   2.227
 4697TIP3    H114055   0.287   1.860   2.301
 4697TIP3    H214056   0.292   1.840   2.151
 4698TIP3   OH214057   2.610   2.177   1.335
 4698TIP3    H114058   2.587   2.245   1.398
 4698TIP3    H214059   2.537   2.115   1.338
 4699TIP3   OH214060   4.432   2.452   2.953
 4699TIP3    H114061   4.336   2.458   2.955
 4699TIP3    H214062   4.449   2.382   2.890
 4700TIP3   OH214063   4.577   3.270   3.489
 4700TIP3    H114064   4.497   3.273   3.437
 4700TIP3    H214065   4.622   3.352   3.469
 4701TIP3   OH214066   3.476   0.374   2.191
 4701TIP3    H114067   3.475   0.462   2.156
 4701TIP3    H214068   3.569   0.354   2.203
 4702TIP3   OH214069   1.798   4.969   0.316
 4702TIP3    H114070   1.869   5.005   0.262
 4702TIP3    H214071   1.839   4.946   0.399
 4703TIP3   OH214072   5.508   1.715   5.156
 4703TIP3    H114073   5.467   1.697   5.241
 4703TIP3    H214074   5.545   1.803   5.165
 4704TIP3   OH214075   2.078   2.603   2.531
 4704TIP3    H114076   2.024   2.612   2.453
 4704TIP3    H214077   2.036   2.533   2.581
 4705TIP3   OH214078   5.048   0.652   2.106
 4705TIP3    H114079   5.029   0.659   2.200
 4705TIP3    H214080   5.082   0.738   2.082
 4706TIP3   OH214081   4.982   4.653   5.540
 4706TIP3    H114082   4.931   4.670   5.460
 4706TIP3    H214083   4.967   4.561   5.559
 4707TIP3   OH214084   3.785   1.374   2.172
 4707TIP3    H114085   3.753   1.308   2.233
 4707TIP3    H214086   3.717   1.441   2.170
 4708TIP3   OH214087   5.166   6.438   4.704
 4708TIP3    H114088   5.224   6.367   4.732
 4708TIP3    H214089   5.194   6.457   4.614
 4709TIP3   OH214090   1.902   4.484   4.415
 4709TIP3    H114091   1.900   4.492   4.320
 4709TIP3    H214092   1.811   4.466   4.440
 4710TIP3   OH214093   5.326   2.445   0.430
 4710TIP3    H114094   5.268   2.405   0.495
 4710TIP3    H214095   5.414   2.430   0.464
 4711TIP3   OH214096   0.533   4.097   5.532
 4711TIP3    H114097   0.531   4.014   5.485
 4711TIP3    H214098   0.480   4.156   5.479
 4712TIP3   OH214099   4.617   1.592   3.084
 4712TIP3    H114100   4.587   1.501   3.083
 4712TIP3    H214101   4.559   1.637   3.023
 4713TIP3   OH214102   0.899   6.516   1.456
 4713TIP3    H114103   0.867   6.427   1.445
 4713TIP3    H214104   0.940   6.516   1.543
 4714TIP3   OH214105   4.400   4.634   0.924
 4714TIP3    H114106   4.354   4.585   0.855
 4714TIP3    H214107   4.329   4.675   0.975
 4715TIP3   OH214108   0.303   5.489   1.161
 4715TIP3    H114109   0.295   5.407   1.210
 4715TIP3    H214110   0.225   5.538   1.185
 4716TIP3   OH214111   6.364   1.934   5.311
 4716TIP3    H114112   6.293   1.880   5.278
 4716TIP3    H214113   6.338   1.956   5.400
 4717TIP3   OH214114   5.311   0.174   3.260
 4717TIP3    H114115   5.321   0.175   3.355
 4717TIP3    H214116   5.216   0.183   3.246
 4718TIP3   OH214117   2.722   1.630   0.666
 4718TIP3    H114118   2.751   1.610   0.576
 4718TIP3    H214119   2.697   1.544   0.702
 4719TIP3   OH214120   1.567   2.453   5.133
 4719TIP3    H114121   1.516   2.374   5.146
 4719TIP3    H214122   1.658   2.424   5.137
 4720TIP3   OH214123   4.101   2.089   4.459
 4720TIP3    H114124   4.074   2.179   4.443
 4720TIP3    H214125   4.022   2.037   4.444
 4721TIP3   OH214126   6.970   6.388   4.692
 4721TIP3    H114127   6.963   6.469   4.742
 4721TIP3    H214128   6.879   6.359   4.682
 4722TIP3   OH214129   3.613   4.040   5.069
 4722TIP3    H114130   3.663   4.053   5.149
 4722TIP3    H214131   3.634   4.116   5.015
 4723TIP3   OH214132   1.648   4.836   2.667
 4723TIP3    H114133   1.594   4.915   2.656
 4723TIP3    H214134   1.735   4.870   2.689
 4724TIP3   OH214135   5.113   4.735   3.931
 4724TIP3    H114136   5.195   4.752   3.978
 4724TIP3    H214137   5.078   4.656   3.973
 4725TIP3   OH214138   3.430   2.415   4.883
 4725TIP3    H114139   3.401   2.364   4.958
 4725TIP3    H214140   3.483   2.354   4.831
 4726TIP3   OH214141   2.743   5.564   0.793
 4726TIP3    H114142   2.777   5.610   0.870
 4726TIP3    H214143   2.745   5.630   0.723
 4727TIP3   OH214144   4.593   5.537   2.729
 4727TIP3    H114145   4.558   5.448   2.736
 4727TIP3    H214146   4.517   5.592   2.711
 4728TIP3   OH214147   0.393   5.884   2.831
 4728TIP3    H114148   0.339   5.820   2.785
 4728TIP3    H214149   0.391   5.855   2.923
 4729TIP3   OH214150   1.500   1.057   5.090
 4729TIP3    H114151   1.515   1.144   5.127
 4729TIP3    H214152   1.532   1.063   5.000
 4730TIP3   OH214153   1.038   3.303   0.490
 4730TIP3    H114154   1.100   3.319   0.419
 4730TIP3    H214155   1.080   3.340   0.567
 4731TIP3   OH214156   1.184   3.911   4.144
 4731TIP3    H114157   1.093   3.885   4.132
 4731TIP3    H214158   1.223   3.840   4.194
 4732TIP3   OH214159   2.945   6.547   0.329
 4732TIP3    H114160   3.038   6.526   0.329
 4732TIP3    H214161   2.902   6.467   0.301
 4733TIP3   OH214162   2.832   5.638   1.137
 4733TIP3    H114163   2.817   5.717   1.086
 4733TIP3    H214164   2.867   5.669   1.221
 4734TIP3   OH214165   6.094   0.394   1.565
 4734TIP3    H114166   6.011   0.436   1.588
 4734TIP3    H214167   6.078   0.300   1.576
 4735TIP3   OH214168   4.685   1.570   0.986
 4735TIP3    H114169   4.604   1.534   1.022
 4735TIP3    H214170   4.675   1.665   0.991
 4736TIP3   OH214171   1.331   0.756   4.236
 4736TIP3    H114172   1.420   0.770   4.203
 4736TIP3    H214173   1.321   0.821   4.306
 4737TIP3   OH214174   0.989   0.755   0.167
 4737TIP3    H114175   0.894   0.750   0.151
 4737TIP3    H214176   1.000   0.718   0.254
 4738TIP3   OH214177   4.506   5.352   0.897
 4738TIP3    H114178   4.447   5.399   0.955
 4738TIP3    H214179   4.456   5.274   0.870
 4739TIP3   OH214180   5.832   4.443   1.098
 4739TIP3    H114181   5.877   4.416   1.018
 4739TIP3    H214182   5.831   4.539   1.094
 4740TIP3   OH214183   1.604   2.571   2.439
 4740TIP3    H114184   1.532   2.562   2.502
 4740TIP3    H214185   1.672   2.512   2.471
 4741TIP3   OH214186   6.168   4.270   2.196
 4741TIP3    H114187   6.087   4.293   2.241
 4741TIP3    H214188   6.147   4.190   2.147
 4742TIP3   OH214189   3.693   4.518   2.293
 4742TIP3    H114190   3.671   4.484   2.380
 4742TIP3    H214191   3.640   4.597   2.284
 4743TIP3   OH214192   3.431   2.810   2.026
 4743TIP3    H114193   3.473   2.841   1.945
 4743TIP3    H214194   3.414   2.890   2.076
 4744TIP3   OH214195   6.428   1.788   3.683
 4744TIP3    H114196   6.397   1.878   3.671
 4744TIP3    H214197   6.507   1.797   3.736
 4745TIP3   OH214198   7.125   3.140   2.240
 4745TIP3    H114199   7.085   3.226   2.250
 4745TIP3    H214200   7.170   3.144   2.155
 4746TIP3   OH214201   0.730   6.049   3.589
 4746TIP3    H114202   0.817   6.083   3.567
 4746TIP3    H214203   0.713   6.083   3.677
 4747TIP3   OH214204   1.763   4.986   5.865
 4747TIP3    H114205   1.679   4.970   5.822
 4747TIP3    H214206   1.828   4.971   5.797
 4748TIP3   OH214207   7.038   6.743   2.055
 4748TIP3    H114208   6.946   6.730   2.029
 4748TIP3    H214209   7.033   6.780   2.143
 4749TIP3   OH214210   1.412   4.998   1.168
 4749TIP3    H114211   1.433   4.933   1.100
 4749TIP3    H214212   1.430   4.953   1.250
 4750TIP3   OH214213   5.679   5.730   2.965
 4750TIP3    H114214   5.774   5.736   2.978
 4750TIP3    H214215   5.645   5.705   3.051
 4751TIP3   OH214216   2.177   2.396   4.788
 4751TIP3    H114217   2.147   2.332   4.723
 4751TIP3    H214218   2.177   2.479   4.742
 4752TIP3   OH214219   5.136   4.307   3.830
 4752TIP3    H114220   5.106   4.318   3.740
 4752TIP3    H214221   5.079   4.365   3.881
 4753TIP3   OH214222   4.429   1.754   1.099
 4753TIP3    H114223   4.384   1.720   1.022
 4753TIP3    H214224   4.383   1.835   1.121
 4754TIP3   OH214225   0.212   1.622   4.741
 4754TIP3    H114226   0.281   1.616   4.807
 4754TIP3    H214227   0.134   1.645   4.790
 4755TIP3   OH214228   0.323   3.112   4.696
 4755TIP3    H114229   0.263   3.055   4.743
 4755TIP3    H214230   0.308   3.199   4.734
 4756TIP3   OH214231   1.467   3.533   1.724
 4756TIP3    H114232   1.465   3.525   1.819
 4756TIP3    H214233   1.550   3.577   1.705
 4757TIP3   OH214234   6.766   3.472   2.604
 4757TIP3    H114235   6.767   3.413   2.528
 4757TIP3    H214236   6.688   3.446   2.653
 4758TIP3   OH214237   1.074   2.939   3.304
 4758TIP3    H114238   1.073   2.858   3.253
 4758TIP3    H214239   1.101   2.912   3.392
 4759TIP3   OH214240   6.208   4.523   5.764
 4759TIP3    H114241   6.204   4.616   5.785
 4759TIP3    H214242   6.150   4.482   5.829
 4760TIP3   OH214243   3.735   3.248   2.176
 4760TIP3    H114244   3.685   3.323   2.209
 4760TIP3    H214245   3.689   3.224   2.096
 4761TIP3   OH214246   4.107   3.652   2.438
 4761TIP3    H114247   4.019   3.666   2.402
 4761TIP3    H214248   4.092   3.632   2.530
 4762TIP3   OH214249   6.055   1.317   4.697
 4762TIP3    H114250   6.118   1.388   4.709
 4762TIP3    H214251   6.007   1.341   4.618
 4763TIP3   OH214252   3.152   6.085   3.044
 4763TIP3    H114253   3.177   6.161   3.098
 4763TIP3    H214254   3.175   6.009   3.098
 4764TIP3   OH214255   3.272   0.269   0.479
 4764TIP3    H114256   3.239   0.311   0.400
 4764TIP3    H214257   3.241   0.325   0.550
 4765TIP3   OH214258   6.258   5.611   0.157
 4765TIP3    H114259   6.213   5.625   0.074
 4765TIP3    H214260   6.195   5.637   0.224
 4766TIP3   OH214261   3.530   4.548   3.449
 4766TIP3    H114262   3.435   4.559   3.448
 4766TIP3    H214263   3.554   4.561   3.541
 4767TIP3   OH214264   2.935   4.033   4.701
 4767TIP3    H114265   2.889   4.005   4.622
 4767TIP3    H214266   2.981   4.113   4.675
 4768TIP3   OH214267   2.675   3.283   5.137
 4768TIP3    H114268   2.744   3.235   5.184
 4768TIP3    H214269   2.607   3.217   5.122
 4769TIP3   OH214270   4.511   5.134   1.661
 4769TIP3    H114271   4.531   5.047   1.626
 4769TIP3    H214272   4.415   5.138   1.660
 4770TIP3   OH214273   4.075   1.732   1.371
 4770TIP3    H114274   4.161   1.690   1.378
 4770TIP3    H214275   4.094   1.826   1.375
 4771TIP3   OH214276   4.346   2.262   4.396
 4771TIP3    H114277   4.325   2.342   4.444
 4771TIP3    H214278   4.409   2.290   4.329
 4772TIP3   OH214279   0.133   2.482   5.370
 4772TIP3    H114280   0.174   2.488   5.456
 4772TIP3    H214281   0.201   2.513   5.310
 4773TIP3   OH214282   2.983   2.052   1.238
 4773TIP3    H114283   2.907   2.107   1.221
 4773TIP3    H214284   3.006   2.015   1.152
 4774TIP3   OH214285   4.093   3.934   0.177
 4774TIP3    H114286   4.013   3.948   0.126
 4774TIP3    H214287   4.132   3.855   0.140
 4775TIP3   OH214288   6.115   4.314   4.701
 4775TIP3    H114289   6.045   4.367   4.663
 4775TIP3    H214290   6.071   4.262   4.768
 4776TIP3   OH214291   4.228   4.907   3.253
 4776TIP3    H114292   4.320   4.899   3.276
 4776TIP3    H214293   4.186   4.947   3.329
 4777TIP3   OH214294   6.856   0.008   4.810
 4777TIP3    H114295   6.765   0.037   4.804
 4777TIP3    H214296   6.853  -0.084   4.782
 4778TIP3   OH214297   1.634   4.689   4.533
 4778TIP3    H114298   1.542   4.665   4.525
 4778TIP3    H214299   1.677   4.612   4.571
 4779TIP3   OH214300   6.184   5.396   1.885
 4779TIP3    H114301   6.242   5.368   1.955
 4779TIP3    H214302   6.115   5.446   1.929
 4780TIP3   OH214303   6.680   2.864   3.220
 4780TIP3    H114304   6.699   2.779   3.259
 4780TIP3    H214305   6.679   2.925   3.294
 4781TIP3   OH214306   6.354   3.524   0.236
 4781TIP3    H114307   6.290   3.595   0.230
 4781TIP3    H214308   6.439   3.566   0.224
 4782TIP3   OH214309   2.272   2.682   0.325
 4782TIP3    H114310   2.195   2.708   0.275
 4782TIP3    H214311   2.253   2.593   0.354
 4783TIP3   OH214312   0.331   4.520   5.036
 4783TIP3    H114313   0.292   4.607   5.024
 4783TIP3    H214314   0.399   4.534   5.102
 4784TIP3   OH214315   5.598   1.385   1.480
 4784TIP3    H114316   5.631   1.324   1.414
 4784TIP3    H214317   5.530   1.335   1.526
 4785TIP3   OH214318   3.192   5.268   5.344
 4785TIP3    H114319   3.212   5.177   5.363
 4785TIP3    H214320   3.102   5.279   5.376
 4786TIP3   OH214321   6.405   2.835   5.096
 4786TIP3    H114322   6.310   2.826   5.108
 4786TIP3    H214323   6.414   2.895   5.021
 4787TIP3   OH214324   4.149   4.847   4.156
 4787TIP3    H114325   4.217   4.783   4.177
 4787TIP3    H214326   4.196   4.927   4.136
 4788TIP3   OH214327   5.864   2.056   0.800
 4788TIP3    H114328   5.838   2.032   0.889
 4788TIP3    H214329   5.954   2.089   0.809
 4789TIP3   OH214330   4.242   3.419   0.680
 4789TIP3    H114331   4.204   3.378   0.758
 4789TIP3    H214332   4.225   3.356   0.610
 4790TIP3   OH214333   3.177   3.289   2.024
 4790TIP3    H114334   3.138   3.202   2.016
 4790TIP3    H214335   3.270   3.276   2.003
 4791TIP3   OH214336   2.339   4.174   0.261
 4791TIP3    H114337   2.357   4.081   0.276
 4791TIP3    H214338   2.342   4.183   0.165
 4792TIP3   OH214339   3.824   6.354   0.500
 4792TIP3    H114340   3.902   6.405   0.523
 4792TIP3    H214341   3.791   6.321   0.583
 4793TIP3   OH214342   6.109   0.111   5.241
 4793TIP3    H114343   6.129   0.185   5.298
 4793TIP3    H214344   6.025   0.077   5.273
 4794TIP3   OH214345   2.842   1.581   0.054
 4794TIP3    H114346   2.914   1.546   0.002
 4794TIP3    H214347   2.777   1.511   0.055
 4795TIP3   OH214348   5.902   4.075   3.974
 4795TIP3    H114349   5.921   4.022   4.051
 4795TIP3    H214350   5.811   4.056   3.953
 4796TIP3   OH214351   6.012   2.823   2.560
 4796TIP3    H114352   6.002   2.828   2.465
 4796TIP3    H214353   6.089   2.876   2.579
 4797TIP3   OH214354   4.693   5.959   0.588
 4797TIP3    H114355   4.734   5.928   0.669
 4797TIP3    H214356   4.767   5.990   0.535
 4798TIP3   OH214357   7.122   6.674   0.363
 4798TIP3    H114358   7.043   6.621   0.358
 4798TIP3    H214359   7.161   6.651   0.448
 4799TIP3   OH214360   2.686   2.965   1.835
 4799TIP3    H114361   2.717   2.927   1.753
 4799TIP3    H214362   2.691   3.060   1.821
 4800TIP3   OH214363   0.050   4.608   5.383
 4800TIP3    H114364   0.105   4.682   5.408
 4800TIP3    H214365   0.048   4.610   5.288
 4801TIP3   OH214366   5.135   3.403   2.285
 4801TIP3    H114367   5.068   3.348   2.327
 4801TIP3    H214368   5.216   3.378   2.329
 4802TIP3   OH214369   2.637   6.519   2.538
 4802TIP3    H114370   2.608   6.611   2.538
 4802TIP3    H214371   2.693   6.512   2.461
 4803TIP3   OH214372   2.231   6.280   2.058
 4803TIP3    H114373   2.187   6.281   1.973
 4803TIP3    H214374   2.160   6.289   2.122
 4804TIP3   OH214375   3.072   2.863   3.158
 4804TIP3    H114376   2.994   2.851   3.211
 4804TIP3    H214377   3.140   2.891   3.220
 4805TIP3   OH214378   3.453   3.435   1.704
 4805TIP3    H114379   3.543   3.402   1.704
 4805TIP3    H214380   3.462   3.529   1.692
 4806TIP3   OH214381   3.898   0.605   2.097
 4806TIP3    H114382   3.944   0.678   2.138
 4806TIP3    H214383   3.893   0.629   2.004
 4807TIP3   OH214384   1.821   2.796   3.545
 4807TIP3    H114385   1.865   2.872   3.583
 4807TIP3    H214386   1.861   2.786   3.458
 4808TIP3   OH214387   5.820   3.132   1.663
 4808TIP3    H114388   5.762   3.141   1.739
 4808TIP3    H214389   5.762   3.143   1.587
 4809TIP3   OH214390   4.984   3.750   5.509
 4809TIP3    H114391   5.051   3.687   5.535
 4809TIP3    H214392   4.918   3.697   5.463
 4810TIP3   OH214393   3.688   1.872   5.161
 4810TIP3    H114394   3.665   1.871   5.068
 4810TIP3    H214395   3.750   1.945   5.170
 4811TIP3   OH214396   5.816   1.493   2.237
 4811TIP3    H114397   5.815   1.401   2.264
 4811TIP3    H214398   5.724   1.514   2.222
 4812TIP3   OH214399   6.939   4.641   4.061
 4812TIP3    H114400   6.951   4.551   4.091
 4812TIP3    H214401   6.854   4.640   4.016
 4813TIP3   OH214402   6.402   2.172   3.199
 4813TIP3    H114403   6.426   2.261   3.174
 4813TIP3    H214404   6.481   2.137   3.240
 4814TIP3   OH214405   1.411   6.059   4.272
 4814TIP3    H114406   1.481   5.994   4.272
 4814TIP3    H214407   1.411   6.095   4.361
 4815TIP3   OH214408   3.360   3.320   0.343
 4815TIP3    H114409   3.420   3.281   0.406
 4815TIP3    H214410   3.417   3.355   0.274
 4816TIP3   OH214411   3.776   1.341   5.536
 4816TIP3    H114412   3.743   1.336   5.626
 4816TIP3    H214413   3.826   1.261   5.524
 4817TIP3   OH214414   7.014   0.018   4.295
 4817TIP3    H114415   6.986  -0.051   4.355
 4817TIP3    H214416   6.938   0.077   4.290
 4818TIP3   OH214417   6.503   6.308   3.599
 4818TIP3    H114418   6.550   6.250   3.658
 4818TIP3    H214419   6.412   6.303   3.627
 4819TIP3   OH214420   6.918   1.873   5.736
 4819TIP3    H114421   7.000   1.825   5.744
 4819TIP3    H214422   6.893   1.864   5.644
 4820TIP3   OH214423   4.018   2.372   1.643
 4820TIP3    H114424   4.046   2.402   1.557
 4820TIP3    H214425   4.094   2.390   1.700
 4821TIP3   OH214426   3.053   3.958   2.948
 4821TIP3    H114427   3.023   3.975   2.859
 4821TIP3    H214428   3.011   4.026   3.001
 4822TIP3   OH214429   5.955   4.095   3.197
 4822TIP3    H114430   6.003   4.166   3.240
 4822TIP3    H214431   6.023   4.040   3.159
 4823TIP3   OH214432   4.942   3.836   2.001
 4823TIP3    H114433   4.940   3.752   1.956
 4823TIP3    H214434   4.999   3.823   2.076
 4824TIP3   OH214435   0.820   5.908   4.985
 4824TIP3    H114436   0.848   5.965   5.057
 4824TIP3    H214437   0.789   5.828   5.028
 4825TIP3   OH214438   6.373   3.231   1.996
 4825TIP3    H114439   6.280   3.252   1.991
 4825TIP3    H214440   6.409   3.262   1.912
 4826TIP3   OH214441   0.344   4.653   3.555
 4826TIP3    H114442   0.298   4.737   3.564
 4826TIP3    H214443   0.401   4.648   3.631
 4827TIP3   OH214444   2.438   3.041   5.873
 4827TIP3    H114445   2.430   3.116   5.931
 4827TIP3    H214446   2.496   2.980   5.919
 4828TIP3   OH214447   1.558   5.936   4.581
 4828TIP3    H114448   1.633   5.957   4.526
 4828TIP3    H214449   1.551   5.840   4.577
 4829TIP3   OH214450   3.101   5.032   5.173
 4829TIP3    H114451   3.140   4.994   5.251
 4829TIP3    H214452   3.146   4.989   5.100
 4830TIP3   OH214453   5.864   0.393   2.842
 4830TIP3    H114454   5.907   0.443   2.911
 4830TIP3    H214455   5.771   0.410   2.855
 4831TIP3   OH214456   4.243   5.949   0.196
 4831TIP3    H114457   4.299   5.898   0.138
 4831TIP3    H214458   4.177   5.988   0.139
 4832TIP3   OH214459   7.083   1.124   0.404
 4832TIP3    H114460   7.075   1.219   0.398
 4832TIP3    H214461   7.083   1.094   0.313
 4833TIP3   OH214462   1.995   6.264   3.534
 4833TIP3    H114463   1.920   6.307   3.577
 4833TIP3    H214464   2.044   6.336   3.494
 4834TIP3   OH214465   2.485   2.588   5.625
 4834TIP3    H114466   2.537   2.607   5.702
 4834TIP3    H214467   2.465   2.675   5.588
 4835TIP3   OH214468   3.060   5.679   2.061
 4835TIP3    H114469   3.122   5.737   2.016
 4835TIP3    H214470   3.025   5.732   2.132
 4836TIP3   OH214471   5.647   1.098   1.598
 4836TIP3    H114472   5.557   1.129   1.604
 4836TIP3    H214473   5.680   1.103   1.688
 4837TIP3   OH214474   4.891   3.883   1.580
 4837TIP3    H114475   4.958   3.836   1.630
 4837TIP3    H214476   4.843   3.933   1.646
 4838TIP3   OH214477   2.667   4.076   5.804
 4838TIP3    H114478   2.582   4.033   5.799
 4838TIP3    H214479   2.646   4.165   5.833
 4839TIP3   OH214480   3.342   2.954   3.897
 4839TIP3    H114481   3.427   2.995   3.912
 4839TIP3    H214482   3.311   2.928   3.984
 4840TIP3   OH214483   5.962   6.379   3.141
 4840TIP3    H114484   5.922   6.407   3.059
 4840TIP3    H214485   5.968   6.458   3.193
 4841TIP3   OH214486   3.545   4.244   1.040
 4841TIP3    H114487   3.613   4.181   1.065
 4841TIP3    H214488   3.522   4.289   1.122
 4842TIP3   OH214489   3.795   4.655   1.909
 4842TIP3    H114490   3.709   4.613   1.907
 4842TIP3    H214491   3.857   4.584   1.890
 4843TIP3   OH214492   0.811   1.847   5.385
 4843TIP3    H114493   0.829   1.913   5.318
 4843TIP3    H214494   0.749   1.889   5.444
 4844TIP3   OH214495   1.301   1.017   2.325
 4844TIP3    H114496   1.385   0.995   2.284
 4844TIP3    H214497   1.315   1.102   2.366
 4845TIP3   OH214498   1.589   6.352   1.620
 4845TIP3    H114499   1.504   6.309   1.611
 4845TIP3    H214500   1.641   6.293   1.675
 4846TIP3   OH214501   5.271   1.426   4.561
 4846TIP3    H114502   5.264   1.377   4.644
 4846TIP3    H214503   5.285   1.358   4.495
 4847TIP3   OH214504  -0.028   4.475   0.497
 4847TIP3    H114505   0.026   4.554   0.503
 4847TIP3    H214506   0.000   4.421   0.571
 4848TIP3   OH214507   3.618   4.412   1.433
 4848TIP3    H114508   3.679   4.456   1.374
 4848TIP3    H214509   3.540   4.396   1.380
 4849TIP3   OH214510   5.347   0.441   2.654
 4849TIP3    H114511   5.412   0.457   2.723
 4849TIP3    H214512   5.398   0.404   2.582
 4850TIP3   OH214513   0.239   4.938   0.662
 4850TIP3    H114514   0.290   4.858   0.659
 4850TIP3    H214515   0.304   5.008   0.661
 4851TIP3   OH214516   1.792   3.981   1.778
 4851TIP3    H114517   1.844   3.949   1.852
 4851TIP3    H214518   1.780   3.904   1.723
 4852TIP3   OH214519   3.155   2.205   4.027
 4852TIP3    H114520   3.086   2.140   4.037
 4852TIP3    H214521   3.110   2.289   4.040
 4853TIP3   OH214522   3.272   4.934   4.999
 4853TIP3    H114523   3.335   4.997   5.034
 4853TIP3    H214524   3.319   4.891   4.927
 4854TIP3   OH214525   4.031   0.277   5.832
 4854TIP3    H114526   4.037   0.372   5.820
 4854TIP3    H214527   4.092   0.258   5.903
 4855TIP3   OH214528   0.409   0.523   1.942
 4855TIP3    H114529   0.475   0.586   1.972
 4855TIP3    H214530   0.349   0.575   1.889
 4856TIP3   OH214531   7.010   6.184   4.339
 4856TIP3    H114532   6.924   6.212   4.372
 4856TIP3    H214533   7.060   6.164   4.417
 4857TIP3   OH214534   4.751   3.277   0.829
 4857TIP3    H114535   4.741   3.342   0.760
 4857TIP3    H214536   4.679   3.215   0.815
 4858TIP3   OH214537   4.581   1.858   4.388
 4858TIP3    H114538   4.602   1.876   4.480
 4858TIP3    H214539   4.487   1.871   4.381
 4859TIP3   OH214540   4.774   5.851   1.608
 4859TIP3    H114541   4.724   5.784   1.655
 4859TIP3    H214542   4.709   5.894   1.552
 4860TIP3   OH214543   0.508   5.348   5.054
 4860TIP3    H114544   0.508   5.314   4.965
 4860TIP3    H214545   0.458   5.284   5.105
 4861TIP3   OH214546   0.285   5.263   3.988
 4861TIP3    H114547   0.249   5.182   4.024
 4861TIP3    H214548   0.294   5.321   4.064
 4862TIP3   OH214549   1.914   6.036   1.541
 4862TIP3    H114550   1.924   6.111   1.483
 4862TIP3    H214551   1.830   6.050   1.585
 4863TIP3   OH214552   6.266   4.310   1.700
 4863TIP3    H114553   6.220   4.362   1.766
 4863TIP3    H214554   6.357   4.310   1.730
 4864TIP3   OH214555   6.348   2.220   2.069
 4864TIP3    H114556   6.344   2.277   1.993
 4864TIP3    H214557   6.274   2.160   2.058
 4865TIP3   OH214558   5.075   4.033   1.093
 4865TIP3    H114559   5.111   3.944   1.100
 4865TIP3    H214560   5.115   4.081   1.165
 4866TIP3   OH214561   2.958   5.998   3.346
 4866TIP3    H114562   3.037   6.049   3.330
 4866TIP3    H214563   2.970   5.919   3.293
 4867TIP3   OH214564   1.382   2.963   2.112
 4867TIP3    H114565   1.396   2.900   2.041
 4867TIP3    H214566   1.467   2.970   2.156
 4868TIP3   OH214567   5.575   2.858   5.365
 4868TIP3    H114568   5.502   2.841   5.305
 4868TIP3    H214569   5.552   2.940   5.408
 4869TIP3   OH214570   0.917   5.788   3.745
 4869TIP3    H114571   0.957   5.857   3.798
 4869TIP3    H214572   0.976   5.777   3.671
 4870TIP3   OH214573   2.626   0.756   4.414
 4870TIP3    H114574   2.552   0.708   4.452
 4870TIP3    H214575   2.617   0.844   4.449
 4871TIP3   OH214576   1.762   5.332   0.282
 4871TIP3    H114577   1.812   5.409   0.307
 4871TIP3    H214578   1.812   5.293   0.211
 4872TIP3   OH214579   4.957   3.110   3.649
 4872TIP3    H114580   4.918   3.076   3.729
 4872TIP3    H214581   4.971   3.033   3.594
 4873TIP3   OH214582   4.755   6.569   3.877
 4873TIP3    H114583   4.800   6.633   3.821
 4873TIP3    H214584   4.742   6.614   3.960
 4874TIP3   OH214585   0.719   6.535   0.105
 4874TIP3    H114586   0.628   6.538   0.136
 4874TIP3    H214587   0.716   6.572   0.017
 4875TIP3   OH214588   5.870   3.493   3.401
 4875TIP3    H114589   5.839   3.416   3.356
 4875TIP3    H214590   5.847   3.478   3.493
 4876TIP3   OH214591   2.201   1.199   2.370
 4876TIP3    H114592   2.261   1.273   2.367
 4876TIP3    H214593   2.184   1.185   2.463
 4877TIP3   OH214594   1.318   5.878   2.419
 4877TIP3    H114595   1.378   5.806   2.440
 4877TIP3    H214596   1.238   5.857   2.467
 4878TIP3   OH214597   0.725   0.117   3.409
 4878TIP3    H114598   0.811   0.119   3.367
 4878TIP3    H214599   0.681   0.196   3.379
 4879TIP3   OH214600   0.381   5.309   0.891
 4879TIP3    H114601   0.452   5.244   0.882
 4879TIP3    H214602   0.383   5.334   0.983
 4880TIP3   OH214603   3.217   6.183   0.916
 4880TIP3    H114604   3.284   6.169   0.849
 4880TIP3    H214605   3.265   6.180   0.999
 4881TIP3   OH214606   5.523   5.526   4.257
 4881TIP3    H114607   5.547   5.595   4.319
 4881TIP3    H214608   5.561   5.446   4.294
 4882TIP3   OH214609   1.903   3.585   3.934
 4882TIP3    H114610   1.874   3.663   3.981
 4882TIP3    H214611   1.956   3.620   3.862
 4883TIP3   OH214612   4.512   0.884   2.531
 4883TIP3    H114613   4.436   0.937   2.553
 4883TIP3    H214614   4.518   0.889   2.435
 4884TIP3   OH214615   6.861   6.306   5.453
 4884TIP3    H114616   6.784   6.255   5.429
 4884TIP3    H214617   6.892   6.343   5.370
 4885TIP3   OH214618   4.799   0.529   4.536
 4885TIP3    H114619   4.862   0.565   4.474
 4885TIP3    H214620   4.850   0.470   4.591
 4886TIP3   OH214621   5.073   0.697   3.139
 4886TIP3    H114622   5.094   0.657   3.223
 4886TIP3    H214623   5.107   0.636   3.074
 4887TIP3   OH214624   1.376   0.323   4.600
 4887TIP3    H114625   1.343   0.347   4.686
 4887TIP3    H214626   1.379   0.406   4.552
 4888TIP3   OH214627   4.776   4.591   0.312
 4888TIP3    H114628   4.799   4.683   0.319
 4888TIP3    H214629   4.698   4.589   0.256
 4889TIP3   OH214630   5.401   4.760   2.581
 4889TIP3    H114631   5.377   4.731   2.669
 4889TIP3    H214632   5.493   4.786   2.588
 4890TIP3   OH214633   4.710   1.160   4.337
 4890TIP3    H114634   4.648   1.208   4.282
 4890TIP3    H214635   4.662   1.145   4.419
 4891TIP3   OH214636   1.680   2.156   0.499
 4891TIP3    H114637   1.689   2.197   0.585
 4891TIP3    H214638   1.601   2.196   0.462
 4892TIP3   OH214639   5.323   3.232   0.901
 4892TIP3    H114640   5.390   3.289   0.938
 4892TIP3    H214641   5.342   3.231   0.807
 4893TIP3   OH214642   2.861   3.842   3.152
 4893TIP3    H114643   2.795   3.874   3.090
 4893TIP3    H214644   2.945   3.864   3.110
 4894TIP3   OH214645   5.199   4.048   3.430
 4894TIP3    H114646   5.266   4.024   3.367
 4894TIP3    H214647   5.238   4.032   3.516
 4895TIP3   OH214648   0.083   6.675   3.041
 4895TIP3    H114649   0.101   6.597   3.093
 4895TIP3    H214650   0.153   6.736   3.064
 4896TIP3   OH214651   6.279   6.090   2.406
 4896TIP3    H114652   6.190   6.090   2.442
 4896TIP3    H214653   6.325   6.157   2.456
 4897TIP3   OH214654   3.590   4.470   0.414
 4897TIP3    H114655   3.587   4.482   0.509
 4897TIP3    H214656   3.625   4.552   0.379
 4898TIP3   OH214657   6.056   1.864   2.427
 4898TIP3    H114658   6.042   1.842   2.520
 4898TIP3    H214659   6.061   1.959   2.425
 4899TIP3   OH214660   2.744   3.020   3.886
 4899TIP3    H114661   2.717   2.933   3.915
 4899TIP3    H214662   2.706   3.080   3.950
 4900TIP3   OH214663   6.084   4.786   5.822
 4900TIP3    H114664   6.150   4.844   5.784
 4900TIP3    H214665   6.026   4.845   5.871
 4901TIP3   OH214666   4.331   0.921   1.408
 4901TIP3    H114667   4.304   0.857   1.342
 4901TIP3    H214668   4.414   0.888   1.441
 4902TIP3   OH214669   5.257   4.566   0.401
 4902TIP3    H114670   5.279   4.580   0.309
 4902TIP3    H214671   5.227   4.475   0.406
 4903TIP3   OH214672   4.895   5.427   3.584
 4903TIP3    H114673   4.955   5.355   3.606
 4903TIP3    H214674   4.946   5.506   3.602
 4904TIP3   OH214675   1.046   0.861   1.501
 4904TIP3    H114676   1.072   0.837   1.412
 4904TIP3    H214677   0.984   0.932   1.490
 4905TIP3   OH214678   3.991   1.581   2.134
 4905TIP3    H114679   4.008   1.576   2.040
 4905TIP3    H214680   3.942   1.501   2.154
 4906TIP3   OH214681   5.506   5.717   0.917
 4906TIP3    H114682   5.468   5.803   0.935
 4906TIP3    H214683   5.573   5.734   0.851
 4907TIP3   OH214684   1.330   3.352   2.997
 4907TIP3    H114685   1.267   3.284   3.017
 4907TIP3    H214686   1.405   3.305   2.960
 4908TIP3   OH214687   5.284   0.793   5.647
 4908TIP3    H114688   5.209   0.754   5.693
 4908TIP3    H214689   5.254   0.880   5.622
 4909TIP3   OH214690   0.972   3.896   2.390
 4909TIP3    H114691   1.037   3.953   2.348
 4909TIP3    H214692   1.002   3.808   2.371
 4910TIP3   OH214693   0.448   3.765   0.968
 4910TIP3    H114694   0.471   3.769   1.061
 4910TIP3    H214695   0.492   3.840   0.930
 4911TIP3   OH214696   0.963   3.443   3.371
 4911TIP3    H114697   1.011   3.370   3.332
 4911TIP3    H214698   0.912   3.403   3.442
 4912TIP3   OH214699   2.703   3.718   4.327
 4912TIP3    H114700   2.753   3.637   4.323
 4912TIP3    H214701   2.741   3.773   4.258
 4913TIP3   OH214702   6.590   1.829   4.372
 4913TIP3    H114703   6.630   1.847   4.287
 4913TIP3    H214704   6.553   1.913   4.400
 4914TIP3   OH214705   3.135   6.551   2.014
 4914TIP3    H114706   3.088   6.577   2.093
 4914TIP3    H214707   3.148   6.456   2.024
 4915TIP3   OH214708   2.192   6.004   1.587
 4915TIP3    H114709   2.099   6.025   1.596
 4915TIP3    H214710   2.231   6.084   1.551
 4916TIP3   OH214711   3.614   0.199   2.433
 4916TIP3    H114712   3.558   0.273   2.455
 4916TIP3    H214713   3.588   0.176   2.343
 4917TIP3   OH214714   4.100   0.933   0.569
 4917TIP3    H114715   4.172   0.874   0.550
 4917TIP3    H214716   4.097   0.993   0.494
 4918TIP3   OH214717   3.143   0.595   1.042
 4918TIP3    H114718   3.208   0.605   1.112
 4918TIP3    H214719   3.061   0.578   1.087
 4919TIP3   OH214720   0.280   2.309   1.592
 4919TIP3    H114721   0.330   2.231   1.615
 4919TIP3    H214722   0.313   2.377   1.650
 4920TIP3   OH214723   0.720   3.537   5.506
 4920TIP3    H114724   0.739   3.461   5.561
 4920TIP3    H214725   0.704   3.608   5.567
 4921TIP3   OH214726   6.184   3.121   1.450
 4921TIP3    H114727   6.096   3.114   1.413
 4921TIP3    H214728   6.240   3.076   1.386
 4922TIP3   OH214729   4.421   0.673   0.933
 4922TIP3    H114730   4.419   0.768   0.927
 4922TIP3    H214731   4.422   0.644   0.841
 4923TIP3   OH214732   5.092   6.704   1.131
 4923TIP3    H114733   5.111   6.797   1.115
 4923TIP3    H214734   5.021   6.705   1.195
 4924TIP3   OH214735   0.854   4.931   1.271
 4924TIP3    H114736   0.945   4.920   1.243
 4924TIP3    H214737   0.829   4.844   1.304
 4925TIP3   OH214738   0.883   2.307   4.869
 4925TIP3    H114739   0.917   2.396   4.883
 4925TIP3    H214740   0.788   2.316   4.878
 4926TIP3   OH214741   3.914   1.143   4.555
 4926TIP3    H114742   3.927   1.050   4.541
 4926TIP3    H214743   3.983   1.186   4.505
 4927TIP3   OH214744   5.057   6.071   0.682
 4927TIP3    H114745   5.000   6.088   0.757
 4927TIP3    H214746   5.086   5.980   0.695
 4928TIP3   OH214747   1.037   3.766   5.632
 4928TIP3    H114748   1.115   3.808   5.669
 4928TIP3    H214749   0.964   3.810   5.675
 4929TIP3   OH214750   7.174   1.690   1.496
 4929TIP3    H114751   7.260   1.650   1.507
 4929TIP3    H214752   7.140   1.651   1.415
 4930TIP3   OH214753   2.473   4.647   1.805
 4930TIP3    H114754   2.519   4.586   1.747
 4930TIP3    H214755   2.393   4.670   1.757
 4931TIP3   OH214756   3.669   6.526   4.899
 4931TIP3    H114757   3.653   6.601   4.842
 4931TIP3    H214758   3.744   6.553   4.954
 4932TIP3   OH214759   1.476   1.515   4.995
 4932TIP3    H114760   1.520   1.560   5.067
 4932TIP3    H214761   1.544   1.463   4.953
 4933TIP3   OH214762   0.991   0.804   5.626
 4933TIP3    H114763   1.007   0.891   5.589
 4933TIP3    H214764   0.988   0.746   5.550
 4934TIP3   OH214765   2.828   4.684   1.413
 4934TIP3    H114766   2.792   4.604   1.376
 4934TIP3    H214767   2.870   4.656   1.494
 4935TIP3   OH214768   5.497   3.538   4.049
 4935TIP3    H114769   5.484   3.498   3.963
 4935TIP3    H214770   5.464   3.628   4.039
 4936TIP3   OH214771   1.307   5.987   4.731
 4936TIP3    H114772   1.279   6.078   4.727
 4936TIP3    H214773   1.402   5.990   4.715
 4937TIP3   OH214774   3.408   5.360   2.108
 4937TIP3    H114775   3.438   5.432   2.163
 4937TIP3    H214776   3.363   5.404   2.035
 4938TIP3   OH214777   1.644   0.558   4.099
 4938TIP3    H114778   1.714   0.515   4.050
 4938TIP3    H214779   1.624   0.498   4.171
 4939TIP3   OH214780   2.775   1.725   4.384
 4939TIP3    H114781   2.768   1.798   4.446
 4939TIP3    H214782   2.698   1.671   4.401
 4940TIP3   OH214783   2.646   6.017   0.197
 4940TIP3    H114784   2.649   5.923   0.215
 4940TIP3    H214785   2.685   6.026   0.110
 4941TIP3   OH214786   1.972   3.798   5.813
 4941TIP3    H114787   2.019   3.878   5.833
 4941TIP3    H214788   2.036   3.741   5.771
 4942TIP3   OH214789   2.999   5.520   1.701
 4942TIP3    H114790   3.077   5.572   1.687
 4942TIP3    H214791   2.975   5.488   1.614
 4943TIP3   OH214792   6.002   0.418   2.588
 4943TIP3    H114793   6.020   0.324   2.590
 4943TIP3    H214794   5.961   0.437   2.672
 4944TIP3   OH214795   7.193   4.287   0.704
 4944TIP3    H114796   7.104   4.302   0.673
 4944TIP3    H214797   7.181   4.258   0.795
 4945TIP3   OH214798   4.836   2.009   2.081
 4945TIP3    H114799   4.919   2.035   2.121
 4945TIP3    H214800   4.781   2.087   2.086
 4946TIP3   OH214801   6.752   5.137   4.645
 4946TIP3    H114802   6.814   5.131   4.718
 4946TIP3    H214803   6.667   5.121   4.684
 4947TIP3   OH214804   3.880   1.974   4.388
 4947TIP3    H114805   3.792   1.958   4.422
 4947TIP3    H214806   3.879   1.937   4.299
 4948TIP3   OH214807   5.903   4.339   5.070
 4948TIP3    H114808   5.861   4.326   5.155
 4948TIP3    H214809   5.992   4.369   5.092
 4949TIP3   OH214810   4.239   4.397   5.499
 4949TIP3    H114811   4.324   4.354   5.489
 4949TIP3    H214812   4.181   4.327   5.529
 4950TIP3   OH214813   6.905   1.893   3.636
 4950TIP3    H114814   6.966   1.966   3.631
 4950TIP3    H214815   6.958   1.819   3.665
 4951TIP3   OH214816   2.172   0.741   4.348
 4951TIP3    H114817   2.250   0.693   4.376
 4951TIP3    H214818   2.144   0.787   4.427
 4952TIP3   OH214819   3.092   4.459   5.512
 4952TIP3    H114820   3.003   4.492   5.520
 4952TIP3    H214821   3.083   4.365   5.500
 4953TIP3   OH214822   5.395   1.518   2.477
 4953TIP3    H114823   5.403   1.577   2.403
 4953TIP3    H214824   5.417   1.431   2.442
 4954TIP3   OH214825   4.270   0.161   0.620
 4954TIP3    H114826   4.301   0.092   0.561
 4954TIP3    H214827   4.349   0.210   0.643
 4955TIP3   OH214828   4.908   1.886   1.449
 4955TIP3    H114829   4.962   1.934   1.386
 4955TIP3    H214830   4.919   1.794   1.425
 4956TIP3   OH214831   4.738   5.260   0.399
 4956TIP3    H114832   4.683   5.300   0.332
 4956TIP3    H214833   4.827   5.268   0.364
 4957TIP3   OH214834   2.975   2.304   2.507
 4957TIP3    H114835   3.002   2.336   2.421
 4957TIP3    H214836   2.894   2.351   2.525
 4958TIP3   OH214837   1.745   3.020   4.904
 4958TIP3    H114838   1.737   2.963   4.827
 4958TIP3    H214839   1.664   3.072   4.903
 4959TIP3   OH214840   2.559   5.284   0.688
 4959TIP3    H114841   2.552   5.352   0.621
 4959TIP3    H214842   2.599   5.210   0.642
 4960TIP3   OH214843   6.720   5.569   1.393
 4960TIP3    H114844   6.715   5.616   1.476
 4960TIP3    H214845   6.670   5.623   1.332
 4961TIP3   OH214846   5.664   5.175   2.645
 4961TIP3    H114847   5.682   5.257   2.598
 4961TIP3    H214848   5.725   5.175   2.718
 4962TIP3   OH214849   6.796   5.746   3.225
 4962TIP3    H114850   6.780   5.805   3.152
 4962TIP3    H214851   6.828   5.665   3.185
 4963TIP3   OH214852   2.854   4.700   3.110
 4963TIP3    H114853   2.801   4.706   3.030
 4963TIP3    H214854   2.927   4.643   3.086
 4964TIP3   OH214855   3.265   1.104   3.780
 4964TIP3    H114856   3.264   1.009   3.775
 4964TIP3    H214857   3.340   1.125   3.836
 4965TIP3   OH214858   0.497   2.503   0.972
 4965TIP3    H114859   0.432   2.457   1.026
 4965TIP3    H214860   0.445   2.553   0.909
 4966TIP3   OH214861   7.189   6.164   0.726
 4966TIP3    H114862   7.204   6.104   0.799
 4966TIP3    H214863   7.276   6.174   0.686
 4967TIP3   OH214864   4.086   3.258   3.579
 4967TIP3    H114865   4.116   3.272   3.490
 4967TIP3    H214866   4.023   3.328   3.595
 4968TIP3   OH214867   3.476   5.600   3.251
 4968TIP3    H114868   3.505   5.579   3.162
 4968TIP3    H214869   3.404   5.539   3.267
 4969TIP3   OH214870   2.888   3.469   2.489
 4969TIP3    H114871   2.952   3.445   2.556
 4969TIP3    H214872   2.927   3.439   2.407
 4970TIP3   OH214873   6.938   3.731   3.965
 4970TIP3    H114874   6.862   3.758   4.016
 4970TIP3    H214875   6.905   3.724   3.875
 4971TIP3   OH214876   6.235   0.439   2.271
 4971TIP3    H114877   6.258   0.348   2.252
 4971TIP3    H214878   6.147   0.450   2.234
 4972TIP3   OH214879   0.967   4.852   4.310
 4972TIP3    H114880   0.952   4.782   4.374
 4972TIP3    H214881   1.061   4.869   4.313
 4973TIP3   OH214882   0.866   6.692   3.341
 4973TIP3    H114883   0.954   6.656   3.328
 4973TIP3    H214884   0.808   6.617   3.330
 4974TIP3   OH214885   7.060   1.083   4.471
 4974TIP3    H114886   7.004   1.157   4.448
 4974TIP3    H214887   7.148   1.119   4.474
 4975TIP3   OH214888   3.798   2.410   5.629
 4975TIP3    H114889   3.703   2.407   5.625
 4975TIP3    H214890   3.818   2.439   5.718
 4976TIP3   OH214891   5.230   6.640   5.095
 4976TIP3    H114892   5.273   6.723   5.113
 4976TIP3    H214893   5.141   6.652   5.127
 4977TIP3   OH214894   5.769   3.757   4.527
 4977TIP3    H114895   5.785   3.699   4.452
 4977TIP3    H214896   5.829   3.830   4.515
 4978TIP3   OH214897   2.702   5.749   3.078
 4978TIP3    H114898   2.608   5.758   3.090
 4978TIP3    H214899   2.715   5.755   2.983
 4979TIP3   OH214900   6.952   6.445   1.877
 4979TIP3    H114901   6.911   6.370   1.920
 4979TIP3    H214902   6.909   6.450   1.792
 4980TIP3   OH214903   1.728   6.576   5.284
 4980TIP3    H114904   1.765   6.493   5.256
 4980TIP3    H214905   1.771   6.642   5.230
 4981TIP3   OH214906   6.906   5.833   3.878
 4981TIP3    H114907   6.994   5.869   3.882
 4981TIP3    H214908   6.890   5.800   3.967
 4982TIP3   OH214909   4.052   2.415   0.371
 4982TIP3    H114910   4.048   2.480   0.441
 4982TIP3    H214911   3.983   2.441   0.310
 4983TIP3   OH214912   2.342   5.158   3.572
 4983TIP3    H114913   2.269   5.195   3.522
 4983TIP3    H214914   2.389   5.234   3.606
 4984TIP3   OH214915   1.080   0.314   4.969
 4984TIP3    H114916   1.099   0.260   5.046
 4984TIP3    H214917   1.020   0.261   4.917
 4985TIP3   OH214918   3.910   5.697   5.047
 4985TIP3    H114919   3.986   5.744   5.083
 4985TIP3    H214920   3.946   5.612   5.020
 4986TIP3   OH214921   4.396   1.106   5.754
 4986TIP3    H114922   4.424   1.118   5.844
 4986TIP3    H214923   4.305   1.077   5.760
 4987TIP3   OH214924   0.978   6.151   3.157
 4987TIP3    H114925   0.963   6.202   3.237
 4987TIP3    H214926   0.951   6.062   3.179
 4988TIP3   OH214927   5.218   2.410   5.846
 4988TIP3    H114928   5.142   2.427   5.902
 4988TIP3    H214929   5.253   2.327   5.879
 4989TIP3   OH214930   2.569   0.957   1.403
 4989TIP3    H114931   2.529   0.870   1.397
 4989TIP3    H214932   2.580   0.985   1.313
 4990TIP3   OH214933   3.837   3.274   1.470
 4990TIP3    H114934   3.790   3.305   1.392
 4990TIP3    H214935   3.786   3.200   1.501
 4991TIP3   OH214936   1.732   6.486   2.366
 4991TIP3    H114937   1.753   6.573   2.331
 4991TIP3    H214938   1.637   6.485   2.372
 4992TIP3   OH214939   2.928   5.350   1.463
 4992TIP3    H114940   2.848   5.302   1.485
 4992TIP3    H214941   2.999   5.287   1.477
 4993TIP3   OH214942   4.585   6.064   4.037
 4993TIP3    H114943   4.610   6.139   4.092
 4993TIP3    H214944   4.490   6.059   4.046
 4994TIP3   OH214945   6.154   5.853   1.299
 4994TIP3    H114946   6.134   5.760   1.285
 4994TIP3    H214947   6.241   5.854   1.337
 4995TIP3   OH214948   4.399   5.748   0.105
 4995TIP3    H114949   4.367   5.672   0.056
 4995TIP3    H214950   4.463   5.713   0.166
 4996TIP3   OH214951   3.399   2.621   5.818
 4996TIP3    H114952   3.328   2.594   5.760
 4996TIP3    H214953   3.456   2.544   5.823
 4997TIP3   OH214954   0.467   2.951   3.051
 4997TIP3    H114955   0.516   3.015   2.999
 4997TIP3    H214956   0.380   2.989   3.061
 4998TIP3   OH214957   1.353   0.564   5.184
 4998TIP3    H114958   1.392   0.533   5.103
 4998TIP3    H214959   1.405   0.642   5.208
 4999TIP3   OH214960   1.891   2.559   2.318
 4999TIP3    H114961   1.852   2.592   2.237
 4999TIP3    H214962   1.824   2.502   2.355
 5000TIP3   OH214963   3.270   6.210   1.182
 5000TIP3    H114964   3.285   6.298   1.216
 5000TIP3    H214965   3.206   6.171   1.242
 5001TIP3   OH214966   3.138   4.072   4.923
 5001TIP3    H114967   3.124   4.153   4.971
 5001TIP3    H214968   3.060   4.065   4.867
 5002TIP3   OH214969   5.980   2.324   3.317
 5002TIP3    H114970   5.946   2.412   3.335
 5002TIP3    H214971   6.066   2.323   3.359
 5003TIP3   OH214972   0.254   3.571   1.967
 5003TIP3    H114973   0.243   3.543   2.058
 5003TIP3    H214974   0.244   3.490   1.916
 5004TIP3   OH214975   0.429   4.304   0.628
 5004TIP3    H114976   0.427   4.375   0.693
 5004TIP3    H214977   0.339   4.271   0.627
 5005TIP3   OH214978   5.217   0.511   4.692
 5005TIP3    H114979   5.156   0.583   4.703
 5005TIP3    H214980   5.252   0.494   4.779
 5006TIP3   OH214981   6.646   4.657   0.882
 5006TIP3    H114982   6.602   4.737   0.856
 5006TIP3    H214983   6.628   4.595   0.812
 5007TIP3   OH214984   5.422   2.726   2.156
 5007TIP3    H114985   5.356   2.754   2.220
 5007TIP3    H214986   5.446   2.807   2.110
 5008TIP3   OH214987   6.065   0.779   2.627
 5008TIP3    H114988   6.120   0.722   2.573
 5008TIP3    H214989   5.975   0.752   2.607
 5009TIP3   OH214990   5.103   2.246   0.253
 5009TIP3    H114991   5.196   2.237   0.276
 5009TIP3    H214992   5.103   2.302   0.176
 5010TIP3   OH214993   1.212   0.160   4.233
 5010TIP3    H114994   1.157   0.114   4.169
 5010TIP3    H214995   1.267   0.218   4.180
 5011TIP3   OH214996   4.266   1.571   2.143
 5011TIP3    H114997   4.171   1.575   2.132
 5011TIP3    H214998   4.281   1.602   2.232
 5012TIP3   OH214999   5.992   0.498   5.581
 5012TIP3    H115000   6.087   0.492   5.570
 5012TIP3    H215001   5.964   0.407   5.593
 5013TIP3   OH215002   3.790   3.678   3.262
 5013TIP3    H115003   3.813   3.693   3.170
 5013TIP3    H215004   3.852   3.731   3.311
 5014TIP3   OH215005   3.076   4.562   0.084
 5014TIP3    H115006   2.982   4.546   0.072
 5014TIP3    H215007   3.107   4.487   0.135
 5015TIP3   OH215008   3.690   4.010   0.544
 5015TIP3    H115009   3.683   4.093   0.591
 5015TIP3    H215010   3.782   3.986   0.552
 5016TIP3   OH215011   2.046   5.549   2.292
 5016TIP3    H115012   2.051   5.491   2.368
 5016TIP3    H215013   2.123   5.605   2.299
 5017TIP3   OH215014   2.624   0.267   0.344
 5017TIP3    H115015   2.606   0.308   0.259
 5017TIP3    H215016   2.610   0.173   0.328
 5018TIP3   OH215017   0.178   2.513   3.656
 5018TIP3    H115018   0.119   2.541   3.586
 5018TIP3    H215019   0.249   2.467   3.611
 5019TIP3   OH215020   7.103   0.355   0.564
 5019TIP3    H115021   7.076   0.280   0.617
 5019TIP3    H215022   7.197   0.342   0.551
 5020TIP3   OH215023   2.635   5.322   5.082
 5020TIP3    H115024   2.558   5.377   5.097
 5020TIP3    H215025   2.709   5.381   5.094
 5021TIP3   OH215026   1.280   4.112   5.271
 5021TIP3    H115027   1.347   4.134   5.207
 5021TIP3    H215028   1.212   4.067   5.220
 5022TIP3   OH215029   5.789   0.749   3.070
 5022TIP3    H115030   5.697   0.727   3.080
 5022TIP3    H215031   5.835   0.666   3.082
 5023TIP3   OH215032   2.854   6.708   5.800
 5023TIP3    H115033   2.889   6.672   5.882
 5023TIP3    H215034   2.787   6.770   5.828
 5024TIP3   OH215035   7.105   0.800   2.391
 5024TIP3    H115036   7.010   0.803   2.385
 5024TIP3    H215037   7.124   0.821   2.482
 5025TIP3   OH215038   6.939   5.066   4.393
 5025TIP3    H115039   6.934   5.012   4.315
 5025TIP3    H215040   6.855   5.054   4.437
 5026TIP3   OH215041   0.704   4.526   4.320
 5026TIP3    H115042   0.620   4.554   4.355
 5026TIP3    H215043   0.769   4.565   4.378
 5027TIP3   OH215044   6.389   5.424   4.486
 5027TIP3    H115045   6.411   5.386   4.571
 5027TIP3    H215046   6.339   5.356   4.441
 5028TIP3   OH215047   4.756   1.399   2.132
 5028TIP3    H115048   4.786   1.466   2.194
 5028TIP3    H215049   4.782   1.433   2.046
 5029TIP3   OH215050   6.351   5.400   5.374
 5029TIP3    H115051   6.392   5.472   5.325
 5029TIP3    H215052   6.356   5.325   5.316
 5030TIP3   OH215053   3.531   6.555   3.989
 5030TIP3    H115054   3.520   6.650   3.993
 5030TIP3    H215055   3.554   6.538   3.897
 5031TIP3   OH215056   2.928   5.300   5.894
 5031TIP3    H115057   3.004   5.347   5.928
 5031TIP3    H215058   2.916   5.334   5.805
 5032TIP3   OH215059   6.130   0.539   4.580
 5032TIP3    H115060   6.204   0.598   4.565
 5032TIP3    H215061   6.113   0.499   4.494
 5033TIP3   OH215062   1.466   0.051   0.522
 5033TIP3    H115063   1.431  -0.020   0.576
 5033TIP3    H215064   1.429   0.036   0.436
 5034TIP3   OH215065   5.948   5.303   2.695
 5034TIP3    H115066   5.993   5.303   2.611
 5034TIP3    H215067   5.988   5.231   2.744
 5035TIP3   OH215068   1.378   0.201   2.651
 5035TIP3    H115069   1.442   0.130   2.647
 5035TIP3    H215070   1.417   0.265   2.711
 5036TIP3   OH215071   0.451   0.412   0.996
 5036TIP3    H115072   0.437   0.478   0.927
 5036TIP3    H215073   0.546   0.408   1.005
 5037TIP3   OH215074   6.014   3.939   1.104
 5037TIP3    H115075   6.024   4.021   1.152
 5037TIP3    H215076   5.931   3.948   1.058
 5038TIP3   OH215077   1.689   6.326   0.964
 5038TIP3    H115078   1.742   6.400   0.993
 5038TIP3    H215079   1.610   6.366   0.928
 5039TIP3   OH215080   0.541   5.004   4.817
 5039TIP3    H115081   0.533   4.988   4.723
 5039TIP3    H215082   0.602   4.938   4.848
 5040TIP3   OH215083   3.739   2.765   3.050
 5040TIP3    H115084   3.689   2.840   3.019
 5040TIP3    H215085   3.702   2.745   3.136
 5041TIP3   OH215086   7.098   4.489   3.605
 5041TIP3    H115087   7.036   4.436   3.654
 5041TIP3    H215088   7.044   4.545   3.550
 5042TIP3   OH215089   0.077   3.925   0.765
 5042TIP3    H115090   0.046   3.835   0.773
 5042TIP3    H215091   0.010   3.978   0.808
 5043TIP3   OH215092   6.405   5.535   3.263
 5043TIP3    H115093   6.449   5.620   3.253
 5043TIP3    H215094   6.373   5.515   3.175
 5044TIP3   OH215095   6.006   6.175   4.330
 5044TIP3    H115096   5.919   6.203   4.300
 5044TIP3    H215097   6.033   6.108   4.267
 5045TIP3   OH215098   0.386   3.120   4.434
 5045TIP3    H115099   0.375   3.111   4.529
 5045TIP3    H215100   0.448   3.051   4.410
 5046TIP3   OH215101   7.034   2.116   1.372
 5046TIP3    H115102   7.109   2.164   1.407
 5046TIP3    H215103   7.053   2.107   1.279
 5047TIP3   OH215104   0.064   0.161   4.664
 5047TIP3    H115105   0.092   0.246   4.629
 5047TIP3    H215106  -0.030   0.157   4.646
 5048TIP3   OH215107   5.687   2.244   1.986
 5048TIP3    H115108   5.718   2.222   2.074
 5048TIP3    H215109   5.670   2.159   1.945
 5049TIP3   OH215110   6.651   2.601   3.955
 5049TIP3    H115111   6.560   2.620   3.975
 5049TIP3    H215112   6.686   2.682   3.919
 5050TIP3   OH215113   1.768   3.888   1.413
 5050TIP3    H115114   1.705   3.959   1.404
 5050TIP3    H215115   1.742   3.824   1.348
 5051TIP3   OH215116   1.678   4.068   5.323
 5051TIP3    H115117   1.764   4.048   5.285
 5051TIP3    H215118   1.668   4.162   5.313
 5052TIP3   OH215119   5.061   4.190   3.058
 5052TIP3    H115120   5.028   4.277   3.035
 5052TIP3    H215121   5.155   4.203   3.072
 5053TIP3   OH215122   6.897   4.563   0.483
 5053TIP3    H115123   6.815   4.611   0.476
 5053TIP3    H215124   6.960   4.628   0.516
 5054TIP3   OH215125   3.423   4.819   4.790
 5054TIP3    H115126   3.397   4.730   4.812
 5054TIP3    H215127   3.459   4.813   4.701
 5055TIP3   OH215128   3.323   4.815   3.800
 5055TIP3    H115129   3.288   4.880   3.739
 5055TIP3    H215130   3.317   4.856   3.886
 5056TIP3   OH215131   3.877   1.241   1.240
 5056TIP3    H115132   3.960   1.279   1.208
 5056TIP3    H215133   3.873   1.155   1.198
 5057TIP3   OH215134   7.062   2.086   3.238
 5057TIP3    H115135   7.088   2.047   3.322
 5057TIP3    H215136   7.105   2.171   3.237
 5058TIP3   OH215137   2.345   5.567   4.977
 5058TIP3    H115138   2.321   5.476   4.961
 5058TIP3    H215139   2.341   5.576   5.073
 5059TIP3   OH215140   1.958   4.509   1.097
 5059TIP3    H115141   1.956   4.529   1.191
 5059TIP3    H215142   1.986   4.418   1.093
 5060TIP3   OH215143   3.230   1.361   3.455
 5060TIP3    H115144   3.307   1.313   3.489
 5060TIP3    H215145   3.163   1.348   3.522
 5061TIP3   OH215146   1.147   2.042   0.751
 5061TIP3    H115147   1.067   1.990   0.743
 5061TIP3    H215148   1.117   2.133   0.746
 5062TIP3   OH215149   7.113   0.176   2.978
 5062TIP3    H115150   7.175   0.161   2.906
 5062TIP3    H215151   7.090   0.089   3.008
 5063TIP3   OH215152   1.909   6.280   5.540
 5063TIP3    H115153   1.833   6.255   5.592
 5063TIP3    H215154   1.929   6.202   5.487
 5064TIP3   OH215155   2.091   1.668   4.377
 5064TIP3    H115156   2.049   1.747   4.344
 5064TIP3    H215157   2.095   1.610   4.301
 5065TIP3   OH215158   6.341   1.760   0.683
 5065TIP3    H115159   6.398   1.798   0.750
 5065TIP3    H215160   6.397   1.747   0.607
 5066TIP3   OH215161   0.100   5.062   2.334
 5066TIP3    H115162   0.129   4.974   2.307
 5066TIP3    H215163   0.009   5.050   2.359
 5067TIP3   OH215164   0.068   1.660   2.407
 5067TIP3    H115165   0.042   1.730   2.467
 5067TIP3    H215166   0.072   1.702   2.321
 5068TIP3   OH215167   1.216   4.985   4.926
 5068TIP3    H115168   1.138   5.039   4.939
 5068TIP3    H215169   1.280   5.044   4.887
 5069TIP3   OH215170   6.707   0.162   0.367
 5069TIP3    H115171   6.702   0.088   0.427
 5069TIP3    H215172   6.694   0.124   0.280
 5070TIP3   OH215173   1.697   6.448   1.926
 5070TIP3    H115174   1.748   6.513   1.974
 5070TIP3    H215175   1.761   6.387   1.891
 5071TIP3   OH215176   1.971   2.787   5.219
 5071TIP3    H115177   1.930   2.708   5.183
 5071TIP3    H215178   1.965   2.775   5.314
 5072TIP3   OH215179   3.248   1.072   2.433
 5072TIP3    H115180   3.195   1.147   2.461
 5072TIP3    H215181   3.200   0.995   2.463
 5073TIP3   OH215182   2.824   1.568   3.315
 5073TIP3    H115183   2.893   1.601   3.373
 5073TIP3    H215184   2.869   1.506   3.257
 5074TIP3   OH215185   2.775   5.739   1.888
 5074TIP3    H115186   2.819   5.668   1.841
 5074TIP3    H215187   2.690   5.703   1.912
 5075TIP3   OH215188   4.327   4.593   2.216
 5075TIP3    H115189   4.316   4.585   2.311
 5075TIP3    H215190   4.393   4.528   2.194
 5076TIP3   OH215191   3.622   5.101   1.854
 5076TIP3    H115192   3.666   5.182   1.881
 5076TIP3    H215193   3.686   5.032   1.870
 5077TIP3   OH215194   6.071   5.745   0.324
 5077TIP3    H115195   5.984   5.748   0.362
 5077TIP3    H215196   6.106   5.833   0.333
 5078TIP3   OH215197   3.331   1.249  -0.014
 5078TIP3    H115198   3.375   1.257  -0.099
 5078TIP3    H215199   3.392   1.288   0.048
 5079TIP3   OH215200   5.187   5.516   3.079
 5079TIP3    H115201   5.234   5.476   3.152
 5079TIP3    H215202   5.245   5.502   3.003
 5080TIP3   OH215203   0.964   1.785   2.646
 5080TIP3    H115204   1.012   1.867   2.658
 5080TIP3    H215205   0.897   1.785   2.714
 5081TIP3   OH215206   2.758   1.547   2.950
 5081TIP3    H115207   2.845   1.517   2.974
 5081TIP3    H215208   2.761   1.556   2.855
 5082TIP3   OH215209   5.762   6.237   2.119
 5082TIP3    H115210   5.681   6.186   2.112
 5082TIP3    H215211   5.747   6.296   2.193
 5083TIP3   OH215212   0.588   5.378   3.022
 5083TIP3    H115213   0.668   5.352   3.067
 5083TIP3    H215214   0.597   5.345   2.933
 5084TIP3   OH215215   5.335   1.571   0.145
 5084TIP3    H115216   5.259   1.628   0.154
 5084TIP3    H215217   5.319   1.500   0.207
 5085TIP3   OH215218   0.223   4.674   3.822
 5085TIP3    H115219   0.153   4.611   3.840
 5085TIP3    H215220   0.290   4.655   3.888
 5086TIP3   OH215221   6.138   3.124   2.966
 5086TIP3    H115222   6.201   3.192   2.989
 5086TIP3    H215223   6.075   3.167   2.909
 5087TIP3   OH215224   5.331   4.808   3.468
 5087TIP3    H115225   5.417   4.811   3.425
 5087TIP3    H215226   5.288   4.889   3.441
 5088TIP3   OH215227   5.652   2.759   2.745
 5088TIP3    H115228   5.616   2.690   2.801
 5088TIP3    H215229   5.716   2.714   2.690
 5089TIP3   OH215230   1.689   1.820   0.980
 5089TIP3    H115231   1.656   1.902   1.017
 5089TIP3    H215232   1.650   1.815   0.893
 5090TIP3   OH215233   5.129   0.346   3.142
 5090TIP3    H115234   5.162   0.388   3.063
 5090TIP3    H215235   5.038   0.326   3.123
 5091TIP3   OH215236   6.902   6.117   4.035
 5091TIP3    H115237   6.865   6.065   4.105
 5091TIP3    H215238   6.860   6.084   3.955
 5092TIP3   OH215239   2.707   3.945   1.521
 5092TIP3    H115240   2.679   3.864   1.478
 5092TIP3    H215241   2.701   3.925   1.615
 5093TIP3   OH215242   6.226   6.353   4.348
 5093TIP3    H115243   6.150   6.295   4.358
 5093TIP3    H215244   6.192   6.441   4.365
 5094TIP3   OH215245   4.175   5.097   5.105
 5094TIP3    H115246   4.160   5.140   5.020
 5094TIP3    H215247   4.113   5.138   5.164
 5095TIP3   OH215248   1.166   4.323   2.236
 5095TIP3    H115249   1.231   4.317   2.167
 5095TIP3    H215250   1.215   4.355   2.312
 5096TIP3   OH215251   0.521   6.195   1.606
 5096TIP3    H115252   0.451   6.259   1.620
 5096TIP3    H215253   0.475   6.115   1.579
 5097TIP3   OH215254   1.606   4.102   4.436
 5097TIP3    H115255   1.640   4.015   4.455
 5097TIP3    H215256   1.527   4.087   4.384
 5098TIP3   OH215257   1.993   5.535   0.862
 5098TIP3    H115258   1.966   5.477   0.790
 5098TIP3    H215259   1.980   5.623   0.827
 5099TIP3   OH215260   0.516   2.844   4.428
 5099TIP3    H115261   0.494   2.793   4.506
 5099TIP3    H215262   0.464   2.804   4.358
 5100TIP3   OH215263   3.666   0.295   0.520
 5100TIP3    H115264   3.722   0.231   0.563
 5100TIP3    H215265   3.701   0.380   0.547
 5101TIP3   OH215266   7.017   6.366   2.975
 5101TIP3    H115267   7.059   6.301   3.031
 5101TIP3    H215268   7.000   6.440   3.033
 5102TIP3   OH215269   6.828   3.164   4.359
 5102TIP3    H115270   6.897   3.228   4.377
 5102TIP3    H215271   6.818   3.166   4.264
 5103TIP3   OH215272   4.953   1.072   0.664
 5103TIP3    H115273   4.977   0.980   0.677
 5103TIP3    H215274   4.897   1.093   0.739
 5104TIP3   OH215275   2.238   4.346   1.879
 5104TIP3    H115276   2.178   4.419   1.887
 5104TIP3    H215277   2.182   4.270   1.863
 5105TIP3   OH215278   0.643   6.517   2.937
 5105TIP3    H115279   0.709   6.579   2.906
 5105TIP3    H215280   0.692   6.438   2.960
 5106TIP3   OH215281   3.250   4.596   3.447
 5106TIP3    H115282   3.203   4.619   3.527
 5106TIP3    H215283   3.221   4.506   3.428
 5107TIP3   OH215284   2.994   3.887   2.344
 5107TIP3    H115285   3.029   3.975   2.333
 5107TIP3    H215286   2.904   3.901   2.374
 5108TIP3   OH215287   6.882   5.598   0.852
 5108TIP3    H115288   6.964   5.552   0.867
 5108TIP3    H215289   6.892   5.637   0.765
 5109TIP3   OH215290   1.082   2.690   4.610
 5109TIP3    H115291   1.003   2.743   4.601
 5109TIP3    H215292   1.062   2.608   4.565
 5110TIP3   OH215293   3.183   5.715   3.893
 5110TIP3    H115294   3.186   5.804   3.928
 5110TIP3    H215295   3.121   5.720   3.820
 5111TIP3   OH215296   1.260   5.335   2.004
 5111TIP3    H115297   1.227   5.421   1.980
 5111TIP3    H215298   1.181   5.285   2.027
 5112TIP3   OH215299   4.940   0.786   1.205
 5112TIP3    H115300   4.860   0.823   1.241
 5112TIP3    H215301   5.010   0.830   1.253
 5113TIP3   OH215302   3.302   2.862   4.148
 5113TIP3    H115303   3.257   2.894   4.226
 5113TIP3    H215304   3.395   2.866   4.172
 5114TIP3   OH215305   3.494   1.897   0.475
 5114TIP3    H115306   3.514   1.804   0.485
 5114TIP3    H215307   3.474   1.908   0.382
 5115TIP3   OH215308   3.478   0.787   2.395
 5115TIP3    H115309   3.567   0.781   2.429
 5115TIP3    H215310   3.477   0.869   2.345
 5116TIP3   OH215311   6.574   0.071   4.853
 5116TIP3    H115312   6.552   0.161   4.828
 5116TIP3    H215313   6.505   0.018   4.813
 5117TIP3   OH215314   6.978   5.632   0.602
 5117TIP3    H115315   7.024   5.716   0.607
 5117TIP3    H215316   7.047   5.568   0.587
 5118TIP3   OH215317   2.654   1.330   0.129
 5118TIP3    H115318   2.614   1.323   0.043
 5118TIP3    H215319   2.595   1.280   0.186
 5119TIP3   OH215320   4.786   5.645   4.617
 5119TIP3    H115321   4.777   5.740   4.612
 5119TIP3    H215322   4.698   5.614   4.636
 5120TIP3   OH215323   1.216   1.387   1.760
 5120TIP3    H115324   1.280   1.446   1.719
 5120TIP3    H215325   1.178   1.438   1.831
 5121TIP3   OH215326   1.524   0.431   4.315
 5121TIP3    H115327   1.539   0.337   4.301
 5121TIP3    H215328   1.432   0.437   4.337
 5122TIP3   OH215329   0.918   2.206   4.066
 5122TIP3    H115330   0.945   2.116   4.045
 5122TIP3    H215331   0.940   2.217   4.158
 5123TIP3   OH215332   3.686   4.585   3.222
 5123TIP3    H115333   3.655   4.566   3.310
 5123TIP3    H215334   3.630   4.532   3.164
 5124TIP3   OH215335   0.073   2.574   2.972
 5124TIP3    H115336   0.163   2.592   2.999
 5124TIP3    H215337   0.080   2.549   2.880
 5125TIP3   OH215338   3.144   5.218   1.189
 5125TIP3    H115339   3.099   5.298   1.162
 5125TIP3    H215340   3.075   5.152   1.192
 5126TIP3   OH215341   0.332   3.486   2.775
 5126TIP3    H115342   0.364   3.454   2.859
 5126TIP3    H215343   0.334   3.409   2.718
 5127TIP3   OH215344   0.028   4.973   4.841
 5127TIP3    H115345   0.101   5.013   4.793
 5127TIP3    H215346   0.015   5.031   4.916
 5128TIP3   OH215347   2.302   5.693   0.419
 5128TIP3    H115348   2.295   5.758   0.489
 5128TIP3    H215349   2.396   5.675   0.413
 5129TIP3   OH215350   0.213   2.056   4.268
 5129TIP3    H115351   0.265   2.058   4.187
 5129TIP3    H215352   0.204   1.962   4.287
 5130TIP3   OH215353   2.104   0.319   0.924
 5130TIP3    H115354   2.127   0.253   0.858
 5130TIP3    H215355   2.129   0.279   1.007
 5131TIP3   OH215356   4.634   4.050   3.255
 5131TIP3    H115357   4.575   4.067   3.181
 5131TIP3    H215358   4.708   4.108   3.241
 5132TIP3   OH215359   5.135   1.871   1.909
 5132TIP3    H115360   5.206   1.841   1.852
 5132TIP3    H215361   5.099   1.947   1.863
 5133TIP3   OH215362   6.841   6.279   0.140
 5133TIP3    H115363   6.772   6.244   0.195
 5133TIP3    H215364   6.885   6.202   0.103
 5134TIP3   OH215365   3.719   0.063   2.169
 5134TIP3    H115366   3.788   0.014   2.125
 5134TIP3    H215367   3.687   0.124   2.103
 5135TIP3   OH215368   4.339   5.891   5.671
 5135TIP3    H115369   4.378   5.808   5.697
 5135TIP3    H215370   4.245   5.875   5.674
 5136TIP3   OH215371   0.052   2.530   2.700
 5136TIP3    H115372   0.042   2.466   2.629
 5136TIP3    H215373   0.069   2.613   2.655
 5137TIP3   OH215374   5.384   4.384   2.744
 5137TIP3    H115375   5.478   4.372   2.757
 5137TIP3    H215376   5.369   4.478   2.754
 5138TIP3   OH215377   3.043   2.155   2.029
 5138TIP3    H115378   3.131   2.121   2.039
 5138TIP3    H215379   3.040   2.189   1.939
 5139TIP3   OH215380   5.220   0.452   1.400
 5139TIP3    H115381   5.217   0.381   1.464
 5139TIP3    H215382   5.129   0.477   1.388
 5140TIP3   OH215383   2.935   3.890   1.820
 5140TIP3    H115384   2.858   3.941   1.844
 5140TIP3    H215385   2.995   3.901   1.893
 5141TIP3   OH215386   2.435   1.636   3.960
 5141TIP3    H115387   2.468   1.712   4.006
 5141TIP3    H215388   2.481   1.635   3.876
 5142TIP3   OH215389   4.242   3.688   2.763
 5142TIP3    H115390   4.164   3.633   2.771
 5142TIP3    H215391   4.242   3.741   2.843
 5143TIP3   OH215392   3.692   1.256   3.030
 5143TIP3    H115393   3.729   1.168   3.020
 5143TIP3    H215394   3.639   1.250   3.110
 5144TIP3   OH215395   6.658   1.873   1.587
 5144TIP3    H115396   6.648   1.846   1.678
 5144TIP3    H215397   6.752   1.887   1.576
 5145TIP3   OH215398   3.592   3.789   5.583
 5145TIP3    H115399   3.651   3.715   5.570
 5145TIP3    H215400   3.526   3.779   5.514
 5146TIP3   OH215401   3.232   6.057   1.764
 5146TIP3    H115402   3.259   6.031   1.676
 5146TIP3    H215403   3.152   6.008   1.780
 5147TIP3   OH215404   3.428   3.144   3.170
 5147TIP3    H115405   3.371   3.085   3.221
 5147TIP3    H215406   3.466   3.203   3.235
 5148TIP3   OH215407   5.053   3.912   5.271
 5148TIP3    H115408   4.962   3.942   5.280
 5148TIP3    H215409   5.069   3.859   5.349
 5149TIP3   OH215410   1.396   2.495   4.384
 5149TIP3    H115411   1.367   2.466   4.298
 5149TIP3    H215412   1.351   2.436   4.445
 5150TIP3   OH215413   3.640   1.398   1.234
 5150TIP3    H115414   3.731   1.367   1.241
 5150TIP3    H215415   3.588   1.330   1.276
 5151TIP3   OH215416   5.043   3.735   0.970
 5151TIP3    H115417   4.987   3.812   0.959
 5151TIP3    H215418   4.990   3.662   0.939
 5152TIP3   OH215419   5.856   3.663   3.147
 5152TIP3    H115420   5.876   3.581   3.192
 5152TIP3    H215421   5.776   3.694   3.189
 5153TIP3   OH215422   6.272   0.441   3.486
 5153TIP3    H115423   6.228   0.400   3.561
 5153TIP3    H215424   6.359   0.464   3.519
 5154TIP3   OH215425   0.564   0.203   4.236
 5154TIP3    H115426   0.634   0.267   4.226
 5154TIP3    H215427   0.534   0.186   4.146
 5155TIP3   OH215428   3.658   1.848   1.140
 5155TIP3    H115429   3.586   1.805   1.186
 5155TIP3    H215430   3.664   1.935   1.181
 5156TIP3   OH215431   3.271   6.768   1.910
 5156TIP3    H115432   3.250   6.689   1.961
 5156TIP3    H215433   3.204   6.770   1.841
 5157TIP3   OH215434   0.653   2.018   1.258
 5157TIP3    H115435   0.638   1.937   1.305
 5157TIP3    H215436   0.746   2.015   1.234
 5158TIP3   OH215437   3.558   5.418   3.646
 5158TIP3    H115438   3.534   5.360   3.717
 5158TIP3    H215439   3.475   5.449   3.610
 5159TIP3   OH215440   0.540   6.003   5.828
 5159TIP3    H115441   0.517   6.029   5.917
 5159TIP3    H215442   0.556   5.909   5.833
 5160TIP3   OH215443   3.332   2.041   1.984
 5160TIP3    H115444   3.407   2.013   2.037
 5160TIP3    H215445   3.361   2.124   1.945
 5161TIP3   OH215446   3.387   0.110   3.644
 5161TIP3    H115447   3.384   0.116   3.740
 5161TIP3    H215448   3.296   0.118   3.616
 5162TIP3   OH215449   0.283   5.257   1.640
 5162TIP3    H115450   0.367   5.300   1.658
 5162TIP3    H215451   0.288   5.175   1.690
 5163TIP3   OH215452   4.968   0.931   3.290
 5163TIP3    H115453   4.939   0.875   3.219
 5163TIP3    H215454   4.950   1.020   3.260
 5164TIP3   OH215455   4.746   5.927   0.875
 5164TIP3    H115456   4.796   6.004   0.901
 5164TIP3    H215457   4.705   5.896   0.956
 5165TIP3   OH215458   0.941   5.674   4.535
 5165TIP3    H115459   0.889   5.730   4.593
 5165TIP3    H215460   1.011   5.731   4.504
 5166TIP3   OH215461   4.418   0.218   1.588
 5166TIP3    H115462   4.483   0.287   1.601
 5166TIP3    H215463   4.456   0.162   1.521
 5167TIP3   OH215464   6.222   3.443   2.714
 5167TIP3    H115465   6.146   3.485   2.755
 5167TIP3    H215466   6.195   3.352   2.700
 5168TIP3   OH215467   0.964   0.174   1.034
 5168TIP3    H115468   0.992   0.254   1.078
 5168TIP3    H215469   0.968   0.195   0.941
 5169TIP3   OH215470   2.265   4.715   1.043
 5169TIP3    H115471   2.263   4.756   1.130
 5169TIP3    H215472   2.207   4.770   0.990
 5170TIP3   OH215473   1.056   0.238   1.854
 5170TIP3    H115474   1.140   0.216   1.813
 5170TIP3    H215475   1.002   0.160   1.842
 5171TIP3   OH215476   0.518   5.614   3.778
 5171TIP3    H115477   0.579   5.574   3.840
 5171TIP3    H215478   0.499   5.700   3.815
 5172TIP3   OH215479   4.870   4.302   4.236
 5172TIP3    H115480   4.896   4.232   4.296
 5172TIP3    H215481   4.883   4.383   4.286
 5173TIP3   OH215482   5.393   1.472   1.074
 5173TIP3    H115483   5.398   1.566   1.088
 5173TIP3    H215484   5.316   1.460   1.018
 5174TIP3   OH215485   0.786   5.324   3.211
 5174TIP3    H115486   0.866   5.359   3.252
 5174TIP3    H215487   0.744   5.273   3.280
 5175TIP3   OH215488   2.853   0.420   0.864
 5175TIP3    H115489   2.936   0.450   0.828
 5175TIP3    H215490   2.802   0.500   0.877
 5176TIP3   OH215491   2.538   1.271   5.401
 5176TIP3    H115492   2.502   1.186   5.377
 5176TIP3    H215493   2.470   1.334   5.376
 5177TIP3   OH215494   4.162   0.045   5.732
 5177TIP3    H115495   4.106  -0.019   5.775
 5177TIP3    H215496   4.110   0.126   5.730
 5178TIP3   OH215497   5.166   4.485   2.018
 5178TIP3    H115498   5.103   4.417   2.038
 5178TIP3    H215499   5.240   4.468   2.076
 5179TIP3   OH215500   5.773   6.116   1.532
 5179TIP3    H115501   5.692   6.112   1.481
 5179TIP3    H215502   5.838   6.070   1.479
 5180TIP3   OH215503   5.132   5.766   0.331
 5180TIP3    H115504   5.163   5.820   0.258
 5180TIP3    H215505   5.209   5.715   0.357
 5181TIP3   OH215506   2.569   5.499   1.327
 5181TIP3    H115507   2.637   5.436   1.301
 5181TIP3    H215508   2.502   5.446   1.371
 5182TIP3   OH215509   2.647   0.874   5.266
 5182TIP3    H115510   2.649   0.805   5.200
 5182TIP3    H215511   2.710   0.939   5.236
 5183TIP3   OH215512   5.561   1.347   2.840
 5183TIP3    H115513   5.561   1.274   2.778
 5183TIP3    H215514   5.474   1.344   2.881
 5184TIP3   OH215515   4.170   4.147   5.627
 5184TIP3    H115516   4.156   4.135   5.721
 5184TIP3    H215517   4.265   4.143   5.616
 5185TIP3   OH215518   3.021   3.562   5.324
 5185TIP3    H115519   3.046   3.586   5.413
 5185TIP3    H215520   2.926   3.551   5.328
 5186TIP3   OH215521   3.806   0.918   2.188
 5186TIP3    H115522   3.807   0.880   2.100
 5186TIP3    H215523   3.883   0.882   2.231
 5187TIP3   OH215524   0.546   3.407   3.896
 5187TIP3    H115525   0.455   3.407   3.925
 5187TIP3    H215526   0.570   3.315   3.889
 5188TIP3   OH215527   3.818   2.112   5.146
 5188TIP3    H115528   3.756   2.172   5.187
 5188TIP3    H215529   3.904   2.147   5.171
 5189TIP3   OH215530   7.096   3.011   3.796
 5189TIP3    H115531   7.152   3.001   3.873
 5189TIP3    H215532   7.150   2.982   3.723
 5190TIP3   OH215533   3.778   5.410   4.695
 5190TIP3    H115534   3.725   5.435   4.771
 5190TIP3    H215535   3.788   5.315   4.702
 5191TIP3   OH215536   5.460   2.923   0.663
 5191TIP3    H115537   5.450   3.017   0.675
 5191TIP3    H215538   5.432   2.907   0.572
 5192TIP3   OH215539   4.151   4.860   1.159
 5192TIP3    H115540   4.074   4.853   1.103
 5192TIP3    H215541   4.171   4.770   1.183
 5193TIP3   OH215542   4.018   5.951   1.305
 5193TIP3    H115543   4.113   5.954   1.314
 5193TIP3    H215544   4.002   5.882   1.242
 5194TIP3   OH215545   1.795   5.602   3.498
 5194TIP3    H115546   1.873   5.594   3.552
 5194TIP3    H215547   1.761   5.513   3.491
 5195TIP3   OH215548   1.278   5.008   3.221
 5195TIP3    H115549   1.224   5.016   3.299
 5195TIP3    H215550   1.363   4.979   3.253
 5196TIP3   OH215551   1.485   2.676   0.868
 5196TIP3    H115552   1.408   2.629   0.899
 5196TIP3    H215553   1.536   2.693   0.947
 5197TIP3   OH215554   6.512   1.675   0.979
 5197TIP3    H115555   6.551   1.621   0.910
 5197TIP3    H215556   6.556   1.648   1.059
 5198TIP3   OH215557   4.887   2.661   3.290
 5198TIP3    H115558   4.812   2.645   3.232
 5198TIP3    H215559   4.853   2.644   3.378
 5199TIP3   OH215560   0.428   3.925   0.288
 5199TIP3    H115561   0.438   3.921   0.383
 5199TIP3    H215562   0.514   3.899   0.254
 5200TIP3   OH215563   3.367   0.046   0.613
 5200TIP3    H115564   3.430   0.095   0.665
 5200TIP3    H215565   3.341   0.106   0.544
 5201TIP3   OH215566   5.618   1.004   4.542
 5201TIP3    H115567   5.629   0.920   4.587
 5201TIP3    H215568   5.650   0.988   4.453
 5202TIP3   OH215569   3.562   1.186   4.263
 5202TIP3    H115570   3.489   1.127   4.283
 5202TIP3    H215571   3.635   1.128   4.244
 5203TIP3   OH215572   5.273   2.704   1.531
 5203TIP3    H115573   5.349   2.754   1.563
 5203TIP3    H215574   5.228   2.677   1.611
 5204TIP3   OH215575   2.145   6.700   4.278
 5204TIP3    H115576   2.195   6.630   4.321
 5204TIP3    H215577   2.180   6.781   4.314
 5205TIP3   OH215578   7.208   4.994   4.512
 5205TIP3    H115579   7.113   4.980   4.519
 5205TIP3    H215580   7.239   4.982   4.602
 5206TIP3   OH215581   1.643   4.531   0.580
 5206TIP3    H115582   1.679   4.586   0.650
 5206TIP3    H215583   1.719   4.506   0.528
 5207TIP3   OH215584   4.454   6.624   5.922
 5207TIP3    H115585   4.427   6.536   5.895
 5207TIP3    H215586   4.481   6.667   5.841
 5208TIP3   OH215587   2.864   3.866   5.383
 5208TIP3    H115588   2.856   3.896   5.473
 5208TIP3    H215589   2.808   3.788   5.379
 5209TIP3   OH215590   2.995   1.206   4.035
 5209TIP3    H115591   2.909   1.164   4.041
 5209TIP3    H215592   2.984   1.289   4.082
 5210TIP3   OH215593   2.926   4.182   2.796
 5210TIP3    H115594   2.927   4.174   2.701
 5210TIP3    H215595   2.834   4.189   2.820
 5211TIP3   OH215596   5.637   3.981   5.870
 5211TIP3    H115597   5.711   3.922   5.854
 5211TIP3    H215598   5.678   4.068   5.878
 5212TIP3   OH215599   2.610   3.937   2.298
 5212TIP3    H115600   2.619   3.985   2.381
 5212TIP3    H215601   2.539   3.875   2.314
 5213TIP3   OH215602   0.742   2.706   4.144
 5213TIP3    H115603   0.683   2.702   4.219
 5213TIP3    H215604   0.694   2.664   4.073
 5214TIP3   OH215605   3.856   4.139   0.968
 5214TIP3    H115606   3.910   4.063   0.943
 5214TIP3    H215607   3.830   4.121   1.058
 5215TIP3   OH215608   4.005   0.081   1.629
 5215TIP3    H115609   4.066   0.019   1.669
 5215TIP3    H215610   4.015   0.067   1.535
 5216TIP3   OH215611   2.312   2.932   1.444
 5216TIP3    H115612   2.342   2.942   1.535
 5216TIP3    H215613   2.388   2.957   1.391
 5217TIP3   OH215614   5.564   1.752   3.417
 5217TIP3    H115615   5.508   1.829   3.426
 5217TIP3    H215616   5.532   1.709   3.337
 5218TIP3   OH215617   2.449   4.863   3.020
 5218TIP3    H115618   2.394   4.894   3.091
 5218TIP3    H215619   2.509   4.935   3.002
 5219TIP3   OH215620   5.790   3.259   3.288
 5219TIP3    H115621   5.861   3.277   3.226
 5219TIP3    H215622   5.720   3.222   3.234
 5220TIP3   OH215623   3.016   2.833   0.029
 5220TIP3    H115624   3.003   2.926   0.007
 5220TIP3    H215625   2.950   2.815   0.096
 5221TIP3   OH215626   5.891   1.879   4.626
 5221TIP3    H115627   5.875   1.841   4.712
 5221TIP3    H215628   5.951   1.818   4.583
 5222TIP3   OH215629   4.799   2.417   5.618
 5222TIP3    H115630   4.825   2.494   5.668
 5222TIP3    H215631   4.728   2.378   5.670
 5223TIP3   OH215632   2.763   3.122   2.698
 5223TIP3    H115633   2.846   3.164   2.719
 5223TIP3    H215634   2.714   3.124   2.780
 5224TIP3   OH215635   5.225   2.595   0.243
 5224TIP3    H115636   5.246   2.680   0.282
 5224TIP3    H215637   5.248   2.531   0.311
 5225TIP3   OH215638   3.806   2.388   3.776
 5225TIP3    H115639   3.810   2.388   3.872
 5225TIP3    H215640   3.826   2.298   3.751
 5226TIP3   OH215641   0.594   3.540   3.468
 5226TIP3    H115642   0.651   3.473   3.503
 5226TIP3    H215643   0.591   3.524   3.373
 5227TIP3   OH215644   3.938   6.467   0.866
 5227TIP3    H115645   3.934   6.467   0.770
 5227TIP3    H215646   3.880   6.395   0.892
 5228TIP3   OH215647   3.013   1.379   3.256
 5228TIP3    H115648   3.091   1.432   3.270
 5228TIP3    H215649   3.005   1.374   3.161
 5229TIP3   OH215650   7.182   5.713   0.876
 5229TIP3    H115651   7.275   5.729   0.859
 5229TIP3    H215652   7.137   5.743   0.797
 5230TIP3   OH215653   3.377   0.179   1.616
 5230TIP3    H115654   3.314   0.115   1.651
 5230TIP3    H215655   3.431   0.203   1.692
 5231TIP3   OH215656   0.163   5.991   4.858
 5231TIP3    H115657   0.240   6.006   4.913
 5231TIP3    H215658   0.115   5.921   4.903
 5232TIP3   OH215659   0.284   6.032   3.446
 5232TIP3    H115660   0.245   5.945   3.441
 5232TIP3    H215661   0.352   6.032   3.379
 5233TIP3   OH215662   0.525   4.679   1.582
 5233TIP3    H115663   0.461   4.750   1.575
 5233TIP3    H215664   0.571   4.697   1.664
 5234TIP3   OH215665   6.591   0.328   3.409
 5234TIP3    H115666   6.543   0.365   3.335
 5234TIP3    H215667   6.567   0.383   3.483
 5235TIP3   OH215668   3.098   1.467   0.608
 5235TIP3    H115669   3.026   1.404   0.619
 5235TIP3    H215670   3.092   1.524   0.684
 5236TIP3   OH215671   5.467   2.488   1.569
 5236TIP3    H115672   5.514   2.539   1.635
 5236TIP3    H215673   5.401   2.549   1.535
 5237TIP3   OH215674   0.996   0.965   0.819
 5237TIP3    H115675   0.958   1.050   0.796
 5237TIP3    H215676   0.924   0.903   0.805
 5238TIP3   OH215677   6.786   6.561   2.365
 5238TIP3    H115678   6.733   6.527   2.293
 5238TIP3    H215679   6.816   6.484   2.412
 5239TIP3   OH215680   5.624   5.527   0.238
 5239TIP3    H115681   5.578   5.525   0.322
 5239TIP3    H215682   5.701   5.472   0.251
 5240TIP3   OH215683   4.154   3.021   5.079
 5240TIP3    H115684   4.102   2.945   5.053
 5240TIP3    H215685   4.095   3.073   5.134
 5241TIP3   OH215686   6.809   6.558   3.654
 5241TIP3    H115687   6.863   6.527   3.582
 5241TIP3    H215688   6.862   6.624   3.698
 5242TIP3   OH215689   6.602   0.266   5.735
 5242TIP3    H115690   6.598   0.170   5.733
 5242TIP3    H215691   6.539   0.291   5.803
 5243TIP3   OH215692   5.780   2.224   0.603
 5243TIP3    H115693   5.800   2.154   0.665
 5243TIP3    H215694   5.866   2.254   0.572
 5244TIP3   OH215695   2.025   5.610   1.195
 5244TIP3    H115696   2.004   5.661   1.117
 5244TIP3    H215697   2.107   5.649   1.227
 5245TIP3   OH215698   3.259   5.477   2.349
 5245TIP3    H115699   3.232   5.386   2.337
 5245TIP3    H215700   3.177   5.526   2.352
 5246TIP3   OH215701   6.706   4.972   1.123
 5246TIP3    H115702   6.759   5.015   1.190
 5246TIP3    H215703   6.706   4.880   1.148
 5247TIP3   OH215704   5.562   0.157   5.430
 5247TIP3    H115705   5.652   0.178   5.456
 5247TIP3    H215706   5.516   0.140   5.512
 5248TIP3   OH215707   6.433   4.197   4.363
 5248TIP3    H115708   6.472   4.284   4.354
 5248TIP3    H215709   6.370   4.207   4.435
 5249TIP3   OH215710   6.134   4.101   5.248
 5249TIP3    H115711   6.046   4.119   5.283
 5249TIP3    H215712   6.187   4.175   5.276
 5250TIP3   OH215713   6.562   6.789   5.640
 5250TIP3    H115714   6.541   6.858   5.578
 5250TIP3    H215715   6.487   6.785   5.699
 5251TIP3   OH215716   2.179   3.199   1.772
 5251TIP3    H115717   2.217   3.133   1.715
 5251TIP3    H215718   2.084   3.185   1.765
 5252TIP3   OH215719   6.243   4.003   3.459
 5252TIP3    H115720   6.275   4.037   3.543
 5252TIP3    H215721   6.159   3.963   3.480
 5253TIP3   OH215722   5.623   0.284   0.518
 5253TIP3    H115723   5.656   0.366   0.483
 5253TIP3    H215724   5.685   0.218   0.486
 5254TIP3   OH215725   1.987   6.115   4.291
 5254TIP3    H115726   2.066   6.131   4.342
 5254TIP3    H215727   1.952   6.202   4.273
 5255TIP3   OH215728   3.385   3.233   2.483
 5255TIP3    H115729   3.406   3.320   2.448
 5255TIP3    H215730   3.331   3.193   2.416
 5256TIP3   OH215731   6.576   0.045   5.397
 5256TIP3    H115732   6.537  -0.022   5.453
 5256TIP3    H215733   6.504   0.073   5.340
 5257TIP3   OH215734   5.844   1.460   5.569
 5257TIP3    H115735   5.938   1.478   5.577
 5257TIP3    H215736   5.839   1.390   5.505
 5258TIP3   OH215737   1.922   5.307   3.344
 5258TIP3    H115738   1.859   5.335   3.411
 5258TIP3    H215739   1.875   5.317   3.262
 5259TIP3   OH215740   0.483   2.917   2.663
 5259TIP3    H115741   0.513   2.852   2.601
 5259TIP3    H215742   0.558   2.930   2.722
 5260TIP3   OH215743   4.198   2.567   0.798
 5260TIP3    H115744   4.161   2.482   0.775
 5260TIP3    H215745   4.283   2.569   0.754
 5261TIP3   OH215746   1.373   0.327   1.068
 5261TIP3    H115747   1.430   0.356   1.139
 5261TIP3    H215748   1.409   0.368   0.990
 5262TIP3   OH215749   2.685   4.471   1.331
 5262TIP3    H115750   2.672   4.427   1.247
 5262TIP3    H215751   2.736   4.410   1.383
 5263TIP3   OH215752   3.101   2.472   1.347
 5263TIP3    H115753   3.180   2.498   1.394
 5263TIP3    H215754   3.075   2.551   1.299
 5264TIP3   OH215755   6.771   1.264   3.083
 5264TIP3    H115756   6.785   1.350   3.123
 5264TIP3    H215757   6.798   1.202   3.151
 5265TIP3   OH215758   3.774   3.562   2.995
 5265TIP3    H115759   3.714   3.541   3.066
 5265TIP3    H215760   3.722   3.550   2.915
 5266TIP3   OH215761   2.835   6.642   0.599
 5266TIP3    H115762   2.846   6.665   0.506
 5266TIP3    H215763   2.852   6.723   0.646
 5267TIP3   OH215764   3.479   0.995   2.220
 5267TIP3    H115765   3.570   1.018   2.236
 5267TIP3    H215766   3.483   0.937   2.143
 5268TIP3   OH215767   5.212   1.725   1.446
 5268TIP3    H115768   5.192   1.729   1.352
 5268TIP3    H215769   5.286   1.785   1.457
 5269TIP3   OH215770   2.859   1.826   4.138
 5269TIP3    H115771   2.832   1.806   4.227
 5269TIP3    H215772   2.948   1.861   4.147
 5270TIP3   OH215773   2.168   2.242   5.184
 5270TIP3    H115774   2.196   2.210   5.270
 5270TIP3    H215775   2.121   2.168   5.145
 5271TIP3   OH215776   2.597   5.042   2.072
 5271TIP3    H115777   2.506   5.065   2.087
 5271TIP3    H215778   2.635   5.119   2.029
 5272TIP3   OH215779   4.739   5.170   2.657
 5272TIP3    H115780   4.659   5.220   2.665
 5272TIP3    H215781   4.798   5.226   2.607
 5273TIP3   OH215782   4.821   3.684   1.154
 5273TIP3    H115783   4.888   3.643   1.208
 5273TIP3    H215784   4.819   3.631   1.074
 5274TIP3   OH215785   6.009   5.050   1.648
 5274TIP3    H115786   6.068   5.125   1.655
 5274TIP3    H215787   5.930   5.085   1.608
 5275TIP3   OH215788   4.989   0.032   0.506
 5275TIP3    H115789   5.003  -0.044   0.449
 5275TIP3    H215790   5.070   0.040   0.555
 5276TIP3   OH215791   2.761   0.600   1.535
 5276TIP3    H115792   2.804   0.641   1.610
 5276TIP3    H215793   2.761   0.507   1.555
 5277TIP3   OH215794   2.302   2.452   1.424
 5277TIP3    H115795   2.362   2.396   1.474
 5277TIP3    H215796   2.226   2.397   1.407
 5278TIP3   OH215797   4.976   1.968   0.522
 5278TIP3    H115798   4.929   1.960   0.440
 5278TIP3    H215799   5.068   1.973   0.497
 5279TIP3   OH215800   0.232   0.558   3.797
 5279TIP3    H115801   0.185   0.584   3.718
 5279TIP3    H215802   0.163   0.547   3.863
 5280TIP3   OH215803   0.062   3.392   2.424
 5280TIP3    H115804   0.045   3.486   2.422
 5280TIP3    H215805  -0.025   3.351   2.425
 5281TIP3   OH215806   4.463   6.115   4.359
 5281TIP3    H115807   4.419   6.189   4.318
 5281TIP3    H215808   4.525   6.154   4.421
 5282TIP3   OH215809   2.029   2.838   2.631
 5282TIP3    H115810   2.041   2.747   2.603
 5282TIP3    H215811   2.084   2.847   2.709
 5283TIP3   OH215812   1.889   6.319   1.802
 5283TIP3    H115813   1.878   6.226   1.820
 5283TIP3    H215814   1.965   6.323   1.744
 5284TIP3   OH215815   1.308   6.727   0.501
 5284TIP3    H115816   1.321   6.766   0.415
 5284TIP3    H215817   1.218   6.693   0.498
 5285TIP3   OH215818   2.859   3.136   5.285
 5285TIP3    H115819   2.867   3.148   5.380
 5285TIP3    H215820   2.948   3.143   5.252
 5286TIP3   OH215821   1.314   6.406   2.363
 5286TIP3    H115822   1.260   6.478   2.333
 5286TIP3    H215823   1.377   6.392   2.291
 5287TIP3   OH215824   4.648   5.857   1.108
 5287TIP3    H115825   4.681   5.896   1.189
 5287TIP3    H215826   4.594   5.784   1.137
 5288TIP3   OH215827   7.094   6.163   4.591
 5288TIP3    H115828   7.061   6.235   4.644
 5288TIP3    H215829   7.019   6.106   4.576
 5289TIP3   OH215830   3.253   1.525   3.886
 5289TIP3    H115831   3.309   1.593   3.849
 5289TIP3    H215832   3.313   1.454   3.908
 5290TIP3   OH215833  -0.031   1.943   2.165
 5290TIP3    H115834  -0.062   1.968   2.252
 5290TIP3    H215835   0.059   1.913   2.179
 5291TIP3   OH215836   1.084   5.897   0.396
 5291TIP3    H115837   1.041   5.841   0.331
 5291TIP3    H215838   1.177   5.879   0.385
 5292TIP3   OH215839   4.141   1.272   0.047
 5292TIP3    H115840   4.192   1.193   0.031
 5292TIP3    H215841   4.202   1.332   0.091
 5293TIP3   OH215842   1.001   4.608   4.117
 5293TIP3    H115843   0.958   4.550   4.054
 5293TIP3    H215844   0.930   4.663   4.151
 5294TIP3   OH215845   7.082   4.806   5.533
 5294TIP3    H115846   7.143   4.768   5.469
 5294TIP3    H215847   7.012   4.845   5.480
 5295TIP3   OH215848   6.896   2.847   2.441
 5295TIP3    H115849   6.961   2.796   2.394
 5295TIP3    H215850   6.860   2.787   2.506
 5296TIP3   OH215851   6.817   2.908   1.972
 5296TIP3    H115852   6.744   2.846   1.966
 5296TIP3    H215853   6.775   2.993   1.987
 5297TIP3   OH215854   1.181   4.878   2.921
 5297TIP3    H115855   1.143   4.953   2.967
 5297TIP3    H215856   1.163   4.803   2.977
 5298TIP3   OH215857   2.339   5.657   0.116
 5298TIP3    H115858   2.418   5.665   0.169
 5298TIP3    H215859   2.268   5.654   0.181
 5299TIP3   OH215860   6.445   4.489   1.053
 5299TIP3    H115861   6.512   4.451   1.111
 5299TIP3    H215862   6.488   4.565   1.014
 5300TIP3   OH215863   4.242   2.682   2.402
 5300TIP3    H115864   4.273   2.721   2.320
 5300TIP3    H215865   4.322   2.669   2.453
 5301TIP3   OH215866   1.816   5.327   5.313
 5301TIP3    H115867   1.809   5.284   5.399
 5301TIP3    H215868   1.781   5.263   5.252
 5302TIP3   OH215869   5.966   4.610   4.349
 5302TIP3    H115870   5.942   4.567   4.432
 5302TIP3    H215871   5.971   4.703   4.371
 5303TIP3   OH215872   3.330   0.359   2.968
 5303TIP3    H115873   3.349   0.302   3.042
 5303TIP3    H215874   3.235   0.372   2.971
 5304TIP3   OH215875   5.542   1.839   0.519
 5304TIP3    H115876   5.622   1.806   0.560
 5304TIP3    H215877   5.573   1.899   0.452
 5305TIP3   OH215878   4.372   1.309   4.501
 5305TIP3    H115879   4.374   1.385   4.558
 5305TIP3    H215880   4.433   1.330   4.430
 5306TIP3   OH215881   6.334   0.049   1.274
 5306TIP3    H115882   6.340  -0.016   1.204
 5306TIP3    H215883   6.251   0.095   1.258
 5307TIP3   OH215884   3.134   3.873   2.016
 5307TIP3    H115885   3.174   3.793   2.049
 5307TIP3    H215886   3.116   3.925   2.095
 5308TIP3   OH215887   6.377   6.013   4.094
 5308TIP3    H115888   6.397   6.100   4.127
 5308TIP3    H215889   6.442   5.998   4.025
 5309TIP3   OH215890   2.617   3.776   2.745
 5309TIP3    H115891   2.528   3.803   2.768
 5309TIP3    H215892   2.611   3.750   2.653
 5310TIP3   OH215893   0.056   2.051   1.894
 5310TIP3    H115894   0.040   2.053   1.989
 5310TIP3    H215895   0.094   2.136   1.875
 5311TIP3   OH215896   6.227   1.115   0.063
 5311TIP3    H115897   6.260   1.073  -0.017
 5311TIP3    H215898   6.186   1.196   0.032
 5312TIP3   OH215899   1.870   3.430   4.340
 5312TIP3    H115900   1.840   3.469   4.422
 5312TIP3    H215901   1.922   3.499   4.298
 5313TIP3   OH215902   0.052   3.454   5.320
 5313TIP3    H115903   0.032   3.534   5.370
 5313TIP3    H215904  -0.008   3.457   5.245
 5314TIP3   OH215905   7.072   2.130   2.443
 5314TIP3    H115906   7.020   2.184   2.384
 5314TIP3    H215907   7.021   2.126   2.524
 5315TIP3   OH215908   6.646   5.874   1.529
 5315TIP3    H115909   6.625   5.921   1.609
 5315TIP3    H215910   6.732   5.908   1.503
 5316TIP3   OH215911   5.140   1.690   3.844
 5316TIP3    H115912   5.137   1.681   3.748
 5316TIP3    H215913   5.203   1.624   3.872
 5317TIP3   OH215914   5.385   0.085   5.624
 5317TIP3    H115915   5.408   0.100   5.715
 5317TIP3    H215916   5.339   0.001   5.624
 5318TIP3   OH215917   5.156   6.259   1.381
 5318TIP3    H115918   5.122   6.347   1.395
 5318TIP3    H215919   5.243   6.273   1.344
 5319TIP3   OH215920   2.387   2.627   3.030
 5319TIP3    H115921   2.389   2.607   3.124
 5319TIP3    H215922   2.473   2.600   2.999
 5320TIP3   OH215923   1.754   5.471   2.462
 5320TIP3    H115924   1.820   5.537   2.481
 5320TIP3    H215925   1.744   5.473   2.367
 5321TIP3   OH215926   2.673   5.230   1.404
 5321TIP3    H115927   2.658   5.154   1.462
 5321TIP3    H215928   2.638   5.202   1.319
 5322TIP3   OH215929   0.892   1.594   4.128
 5322TIP3    H115930   0.912   1.517   4.182
 5322TIP3    H215931   0.925   1.668   4.180
 5323TIP3   OH215932   4.100   3.020   4.489
 5323TIP3    H115933   4.115   2.938   4.537
 5323TIP3    H215934   4.114   3.089   4.555
 5324TIP3   OH215935   0.560   4.921   0.838
 5324TIP3    H115936   0.617   4.860   0.792
 5324TIP3    H215937   0.520   4.974   0.769
 5325TIP3   OH215938   6.712   6.342   4.596
 5325TIP3    H115939   6.631   6.342   4.546
 5325TIP3    H215940   6.741   6.251   4.596
 5326TIP3   OH215941   6.020   3.337   3.156
 5326TIP3    H115942   6.080   3.355   3.084
 5326TIP3    H215943   6.068   3.277   3.213
 5327TIP3   OH215944   1.499   6.785   5.867
 5327TIP3    H115945   1.495   6.698   5.905
 5327TIP3    H215946   1.498   6.844   5.942
 5328TIP3   OH215947   5.855   6.249   5.216
 5328TIP3    H115948   5.841   6.170   5.268
 5328TIP3    H215949   5.775   6.256   5.163
 5329TIP3   OH215950   5.857   6.628   1.745
 5329TIP3    H115951   5.893   6.604   1.831
 5329TIP3    H215952   5.931   6.617   1.685
 5330TIP3   OH215953   1.168   6.678   3.814
 5330TIP3    H115954   1.231   6.742   3.780
 5330TIP3    H215955   1.098   6.677   3.749
 5331TIP3   OH215956   0.604   0.117   3.985
 5331TIP3    H115957   0.609   0.152   3.896
 5331TIP3    H215958   0.627   0.024   3.974
 5332TIP3   OH215959   5.300   3.787   0.889
 5332TIP3    H115960   5.374   3.729   0.904
 5332TIP3    H215961   5.224   3.736   0.919
 5333TIP3   OH215962   6.737   3.163   1.963
 5333TIP3    H115963   6.692   3.224   2.022
 5333TIP3    H215964   6.705   3.186   1.876
 5334TIP3   OH215965   0.935   1.120   4.319
 5334TIP3    H115966   0.921   1.027   4.305
 5334TIP3    H215967   1.018   1.125   4.367
 5335TIP3   OH215968   5.707   0.934   4.950
 5335TIP3    H115969   5.779   0.977   4.905
 5335TIP3    H215970   5.646   0.910   4.881
 5336TIP3   OH215971   0.374   2.605   5.833
 5336TIP3    H115972   0.368   2.689   5.788
 5336TIP3    H215973   0.467   2.589   5.845
 5337TIP3   OH215974   1.234   3.299   5.662
 5337TIP3    H115975   1.316   3.348   5.662
 5337TIP3    H215976   1.168   3.363   5.635
 5338TIP3   OH215977   0.192   3.194   4.093
 5338TIP3    H115978   0.234   3.112   4.068
 5338TIP3    H215979   0.244   3.262   4.049
 5339TIP3   OH215980   5.066   5.276   5.547
 5339TIP3    H115981   5.099   5.308   5.631
 5339TIP3    H215982   5.087   5.345   5.484
 5340TIP3   OH215983   0.411   3.083   2.425
 5340TIP3    H115984   0.457   3.027   2.362
 5340TIP3    H215985   0.419   3.036   2.508
 5341TIP3   OH215986   3.221   0.420   2.504
 5341TIP3    H115987   3.226   0.330   2.538
 5341TIP3    H215988   3.313   0.448   2.497
 5342TIP3   OH215989   6.524   6.295   1.348
 5342TIP3    H115990   6.503   6.243   1.426
 5342TIP3    H215991   6.530   6.385   1.381
 5343TIP3   OH215992   6.024   4.880   0.972
 5343TIP3    H115993   6.049   4.967   1.001
 5343TIP3    H215994   6.104   4.827   0.981
 5344TIP3   OH215995   1.196   0.032   2.145
 5344TIP3    H115996   1.226   0.117   2.112
 5344TIP3    H215997   1.241   0.021   2.229
 5345TIP3   OH215998   2.001   3.122   2.891
 5345TIP3    H115999   1.971   3.039   2.929
 5345TIP3    H216000   1.931   3.148   2.831
 5346TIP3   OH216001   4.324   6.024   4.092
 5346TIP3    H116002   4.253   5.968   4.059
 5346TIP3    H216003   4.321   6.012   4.187
 5347TIP3   OH216004   6.639   3.205   4.127
 5347TIP3    H116005   6.605   3.152   4.055
 5347TIP3    H216006   6.562   3.223   4.181
 5348TIP3   OH216007   4.773   6.761   5.803
 5348TIP3    H116008   4.766   6.684   5.746
 5348TIP3    H216009   4.757   6.835   5.745
 5349TIP3   OH216010   6.420   3.659   1.355
 5349TIP3    H116011   6.468   3.701   1.426
 5349TIP3    H216012   6.332   3.697   1.359
 5350TIP3   OH216013   1.060   5.085   2.446
 5350TIP3    H116014   0.978   5.081   2.396
 5350TIP3    H216015   1.056   5.009   2.505
 5351TIP3   OH216016   4.596   4.350   0.077
 5351TIP3    H116017   4.657   4.369   0.005
 5351TIP3    H216018   4.650   4.353   0.155
 5352TIP3   OH216019   5.275   0.301   1.167
 5352TIP3    H116020   5.361   0.265   1.188
 5352TIP3    H216021   5.260   0.368   1.234
 5353TIP3   OH216022   0.859   5.872   1.456
 5353TIP3    H116023   0.783   5.851   1.402
 5353TIP3    H216024   0.852   5.813   1.531
 5354TIP3   OH216025   6.145   0.844   2.232
 5354TIP3    H116026   6.074   0.782   2.215
 5354TIP3    H216027   6.109   0.904   2.297
 5355TIP3   OH216028   6.032   3.314   0.306
 5355TIP3    H116029   5.963   3.256   0.337
 5355TIP3    H216030   5.995   3.355   0.228
 5356TIP3   OH216031   3.277   0.141   2.522
 5356TIP3    H116032   3.299   0.051   2.498
 5356TIP3    H216033   3.341   0.165   2.589
 5357TIP3   OH216034   1.653   3.755   1.717
 5357TIP3    H116035   1.567   3.797   1.712
 5357TIP3    H216036   1.671   3.728   1.627
 5358TIP3   OH216037   5.458   4.676   5.602
 5358TIP3    H116038   5.431   4.763   5.572
 5358TIP3    H216039   5.398   4.656   5.674
 5359TIP3   OH216040   3.113   1.171   2.768
 5359TIP3    H116041   3.107   1.174   2.672
 5359TIP3    H216042   3.201   1.138   2.786
 5360TIP3   OH216043   2.191   2.686   1.570
 5360TIP3    H116044   2.181   2.616   1.506
 5360TIP3    H216045   2.232   2.758   1.522
 5361TIP3   OH216046   5.634   0.311   3.168
 5361TIP3    H116047   5.582   0.236   3.197
 5361TIP3    H216048   5.627   0.374   3.239
 5362TIP3   OH216049   5.562   6.607  -0.003
 5362TIP3    H116050   5.492   6.542  -0.011
 5362TIP3    H216051   5.562   6.631   0.090
 5363TIP3   OH216052   0.850   4.911   1.669
 5363TIP3    H116053   0.915   4.977   1.692
 5363TIP3    H216054   0.778   4.961   1.632
 5364TIP3   OH216055   4.983   1.299   5.715
 5364TIP3    H116056   4.993   1.229   5.779
 5364TIP3    H216057   5.069   1.341   5.712
 5365TIP3   OH216058   4.652   1.551   0.056
 5365TIP3    H116059   4.658   1.646   0.043
 5365TIP3    H216060   4.718   1.531   0.122
 5366TIP3   OH216061   5.182   1.505   5.756
 5366TIP3    H116062   5.246   1.555   5.807
 5366TIP3    H216063   5.219   1.501   5.668
 5367TIP3   OH216064   1.695   5.337   3.500
 5367TIP3    H116065   1.622   5.356   3.440
 5367TIP3    H216066   1.687   5.243   3.518
 5368TIP3   OH216067   3.964   3.636   5.257
 5368TIP3    H116068   3.889   3.673   5.303
 5368TIP3    H216069   4.040   3.666   5.308
 5369TIP3   OH216070   0.936   3.352   1.072
 5369TIP3    H116071   0.923   3.447   1.075
 5369TIP3    H216072   1.002   3.335   1.139
 5370TIP3   OH216073   0.292   1.680   5.814
 5370TIP3    H116074   0.264   1.735   5.887
 5370TIP3    H216075   0.356   1.620   5.853
 5371TIP3   OH216076   0.724   1.035   5.582
 5371TIP3    H116077   0.759   1.040   5.493
 5371TIP3    H216078   0.657   1.103   5.586
 5372TIP3   OH216079   5.430   1.096   4.118
 5372TIP3    H116080   5.391   1.106   4.032
 5372TIP3    H216081   5.361   1.125   4.179
 5373TIP3   OH216082   4.094   5.250   2.688
 5373TIP3    H116083   4.120   5.289   2.772
 5373TIP3    H216084   4.160   5.281   2.626
 5374TIP3   OH216085   3.691   0.612   0.929
 5374TIP3    H116086   3.750   0.570   0.992
 5374TIP3    H216087   3.711   0.569   0.845
 5375TIP3   OH216088   2.000   1.835   4.026
 5375TIP3    H116089   2.015   1.900   4.094
 5375TIP3    H216090   2.084   1.827   3.981
 5376TIP3   OH216091   0.101   0.643   1.281
 5376TIP3    H116092   0.028   0.674   1.227
 5376TIP3    H216093   0.135   0.567   1.234
 5377TIP3   OH216094   0.364   4.488   4.624
 5377TIP3    H116095   0.275   4.508   4.596
 5377TIP3    H216096   0.354   4.417   4.687
 5378TIP3   OH216097   0.839   4.097   4.510
 5378TIP3    H116098   0.890   4.178   4.522
 5378TIP3    H216099   0.903   4.027   4.522
 5379TIP3   OH216100   6.510   0.583   0.921
 5379TIP3    H116101   6.461   0.533   0.856
 5379TIP3    H216102   6.563   0.644   0.869
 5380TIP3   OH216103   6.830   4.907   0.537
 5380TIP3    H116104   6.862   4.861   0.614
 5380TIP3    H216105   6.893   4.978   0.522
 5381TIP3   OH216106   6.934   5.716   1.589
 5381TIP3    H116107   6.963   5.654   1.522
 5381TIP3    H216108   6.939   5.802   1.546
 5382TIP3   OH216109   4.859   6.021   4.255
 5382TIP3    H116110   4.843   6.114   4.241
 5382TIP3    H216111   4.894   5.990   4.172
 5383TIP3   OH216112   2.022   2.922   1.868
 5383TIP3    H116113   2.005   2.986   1.938
 5383TIP3    H216114   2.047   2.842   1.915
 5384TIP3   OH216115   6.762   4.362   2.169
 5384TIP3    H116116   6.712   4.342   2.249
 5384TIP3    H216117   6.845   4.398   2.201
 5385TIP3   OH216118   3.669   2.681   5.040
 5385TIP3    H116119   3.701   2.764   5.078
 5385TIP3    H216120   3.744   2.622   5.045
 5386TIP3   OH216121   1.330   6.230   2.600
 5386TIP3    H116122   1.348   6.270   2.514
 5386TIP3    H216123   1.390   6.274   2.660
 5387TIP3   OH216124   5.138   5.175   1.294
 5387TIP3    H116125   5.092   5.200   1.213
 5387TIP3    H216126   5.227   5.156   1.265
 5388TIP3   OH216127   3.203   4.877   1.601
 5388TIP3    H116128   3.137   4.926   1.551
 5388TIP3    H216129   3.190   4.786   1.575
 5389TIP3   OH216130   6.480   1.402   5.187
 5389TIP3    H116131   6.512   1.347   5.258
 5389TIP3    H216132   6.390   1.424   5.212
 5390TIP3   OH216133   6.968   0.111   3.570
 5390TIP3    H116134   7.034   0.108   3.501
 5390TIP3    H216135   6.937   0.020   3.577
 5391TIP3   OH216136   6.423   4.194   2.774
 5391TIP3    H116137   6.374   4.115   2.754
 5391TIP3    H216138   6.407   4.210   2.867
 5392TIP3   OH216139   4.127   4.667   3.133
 5392TIP3    H116140   4.172   4.740   3.176
 5392TIP3    H216141   4.172   4.658   3.049
 5393TIP3   OH216142   2.809   1.648   1.519
 5393TIP3    H116143   2.885   1.693   1.479
 5393TIP3    H216144   2.761   1.613   1.445
 5394TIP3   OH216145   3.492   0.862   2.926
 5394TIP3    H116146   3.465   0.771   2.941
 5394TIP3    H216147   3.530   0.890   3.009
 5395TIP3   OH216148   0.336   3.649   3.432
 5395TIP3    H116149   0.334   3.590   3.356
 5395TIP3    H216150   0.248   3.685   3.436
 5396TIP3   OH216151   2.166   6.730   2.035
 5396TIP3    H116152   2.157   6.821   2.005
 5396TIP3    H216153   2.155   6.678   1.956
 5397TIP3   OH216154   6.892   1.807   1.253
 5397TIP3    H116155   6.984   1.780   1.255
 5397TIP3    H216156   6.875   1.843   1.339
 5398TIP3   OH216157   2.890   2.195   0.877
 5398TIP3    H116158   2.870   2.207   0.970
 5398TIP3    H216159   2.954   2.263   0.858
 5399TIP3   OH216160   6.631   3.984   1.856
 5399TIP3    H116161   6.672   3.898   1.844
 5399TIP3    H216162   6.660   4.036   1.781
 5400TIP3   OH216163   0.042   2.996   1.682
 5400TIP3    H116164   0.035   2.900   1.681
 5400TIP3    H216165   0.053   3.019   1.774
 5401TIP3   OH216166   2.825   6.465   4.841
 5401TIP3    H116167   2.802   6.407   4.913
 5401TIP3    H216168   2.801   6.416   4.762
 5402TIP3   OH216169   0.098   0.659   2.266
 5402TIP3    H116170   0.104   0.604   2.345
 5402TIP3    H216171   0.022   0.715   2.281
 5403TIP3   OH216172   2.104   5.190   4.706
 5403TIP3    H116173   2.123   5.255   4.638
 5403TIP3    H216174   2.082   5.241   4.783
 5404TIP3   OH216175   5.650   3.671   5.121
 5404TIP3    H116176   5.717   3.615   5.082
 5404TIP3    H216177   5.692   3.757   5.127
 5405TIP3   OH216178   7.092   5.865   0.653
 5405TIP3    H116179   7.076   5.958   0.668
 5405TIP3    H216180   7.154   5.862   0.580
 5406TIP3   OH216181   0.356   4.399   2.493
 5406TIP3    H116182   0.432   4.355   2.454
 5406TIP3    H216183   0.391   4.442   2.571
 5407TIP3   OH216184   4.286   4.204   4.092
 5407TIP3    H116185   4.368   4.168   4.128
 5407TIP3    H216186   4.245   4.130   4.046
 5408TIP3   OH216187   6.750   0.050   2.471
 5408TIP3    H116188   6.845   0.044   2.464
 5408TIP3    H216189   6.717   0.001   2.395
 5409TIP3   OH216190   7.033   6.438  -0.006
 5409TIP3    H116191   6.939   6.456  -0.009
 5409TIP3    H216192   7.043   6.357  -0.055
 5410TIP3   OH216193   4.320   0.298   2.678
 5410TIP3    H116194   4.288   0.331   2.762
 5410TIP3    H216195   4.408   0.334   2.670
 5411TIP3   OH216196   3.560   0.967   3.189
 5411TIP3    H116197   3.600   0.908   3.252
 5411TIP3    H216198   3.497   1.018   3.241
 5412TIP3   OH216199   2.372   3.004   1.996
 5412TIP3    H116200   2.316   3.049   2.059
 5412TIP3    H216201   2.457   3.046   2.005
 5413TIP3   OH216202   2.557   5.991   4.060
 5413TIP3    H116203   2.585   5.912   4.108
 5413TIP3    H216204   2.554   5.964   3.969
 5414TIP3   OH216205   5.011   2.866   1.581
 5414TIP3    H116206   5.070   2.882   1.655
 5414TIP3    H216207   5.060   2.807   1.524
 5415TIP3   OH216208   4.291   1.035   2.580
 5415TIP3    H116209   4.266   1.004   2.492
 5415TIP3    H216210   4.218   1.089   2.608
 5416TIP3   OH216211   5.229   5.108   4.369
 5416TIP3    H116212   5.195   5.146   4.287
 5416TIP3    H216213   5.155   5.059   4.404
 5417TIP3   OH216214   5.143   6.151   5.019
 5417TIP3    H116215   5.185   6.234   5.042
 5417TIP3    H216216   5.049   6.167   5.033
 5418TIP3   OH216217   6.486   0.243   0.181
 5418TIP3    H116218   6.464   0.161   0.136
 5418TIP3    H216219   6.574   0.229   0.214
 5419TIP3   OH216220   4.313   0.031   2.602
 5419TIP3    H116221   4.332   0.122   2.625
 5419TIP3    H216222   4.233   0.036   2.550
 5420TIP3   OH216223   2.831   3.942   2.592
 5420TIP3    H116224   2.883   3.880   2.642
 5420TIP3    H216225   2.743   3.904   2.591
 5421TIP3   OH216226   7.101   0.905   4.699
 5421TIP3    H116227   7.104   0.973   4.631
 5421TIP3    H216228   7.099   0.823   4.651
 5422TIP3   OH216229   6.423   5.326   4.031
 5422TIP3    H116230   6.495   5.294   4.085
 5422TIP3    H216231   6.435   5.421   4.029
 5423TIP3   OH216232   4.314   1.051   4.986
 5423TIP3    H116233   4.290   1.093   4.904
 5423TIP3    H216234   4.339   1.123   5.044
 5424TIP3   OH216235   1.511   1.599   4.571
 5424TIP3    H116236   1.460   1.605   4.491
 5424TIP3    H216237   1.502   1.508   4.599
 5425TIP3   OH216238   4.536   6.469   2.180
 5425TIP3    H116239   4.534   6.544   2.239
 5425TIP3    H216240   4.604   6.412   2.215
 5426TIP3   OH216241   3.737   6.169   3.512
 5426TIP3    H116242   3.741   6.073   3.504
 5426TIP3    H216243   3.821   6.199   3.478
 5427TIP3   OH216244   4.745   0.916   1.324
 5427TIP3    H116245   4.667   0.873   1.289
 5427TIP3    H216246   4.733   1.008   1.302
 5428TIP3   OH216247   1.340   0.556   5.630
 5428TIP3    H116248   1.262   0.521   5.672
 5428TIP3    H216249   1.308   0.599   5.551
 5429TIP3   OH216250   6.520   1.483   5.510
 5429TIP3    H116251   6.428   1.467   5.488
 5429TIP3    H216252   6.516   1.523   5.597
 5430TIP3   OH216253   4.412   0.911   4.571
 5430TIP3    H116254   4.455   0.826   4.578
 5430TIP3    H216255   4.326   0.897   4.611
 5431TIP3   OH216256   6.100   6.291   0.466
 5431TIP3    H116257   6.136   6.338   0.392
 5431TIP3    H216258   6.058   6.359   0.519
 5432TIP3   OH216259   2.927   2.464   3.297
 5432TIP3    H116260   2.839   2.499   3.284
 5432TIP3    H216261   2.913   2.371   3.316
 5433TIP3   OH216262   1.129   3.747   0.871
 5433TIP3    H116263   1.119   3.798   0.951
 5433TIP3    H216264   1.048   3.763   0.822
 5434TIP3   OH216265   0.150   1.781   5.027
 5434TIP3    H116266   0.236   1.739   5.026
 5434TIP3    H216267   0.089   1.710   5.045
 5435TIP3   OH216268   0.546   3.385   4.480
 5435TIP3    H116269   0.541   3.289   4.479
 5435TIP3    H216270   0.538   3.408   4.572
 5436TIP3   OH216271   3.278   1.908   1.344
 5436TIP3    H116272   3.314   1.820   1.360
 5436TIP3    H216273   3.269   1.913   1.249
 5437TIP3   OH216274   3.673   1.132   5.031
 5437TIP3    H116275   3.711   1.044   5.033
 5437TIP3    H216276   3.623   1.138   5.113
 5438TIP3   OH216277   2.867   1.398   0.776
 5438TIP3    H116278   2.944   1.357   0.814
 5438TIP3    H216279   2.819   1.433   0.851
 5439TIP3   OH216280   3.451   2.812   0.658
 5439TIP3    H116281   3.508   2.749   0.703
 5439TIP3    H216282   3.466   2.795   0.565
 5440TIP3   OH216283   5.413   2.039   3.164
 5440TIP3    H116284   5.488   2.088   3.128
 5440TIP3    H216285   5.366   2.008   3.087
 5441TIP3   OH216286   3.864   0.072   3.376
 5441TIP3    H116287   3.858   0.167   3.380
 5441TIP3    H216288   3.805   0.041   3.445
 5442TIP3   OH216289   6.797   2.229   3.117
 5442TIP3    H116290   6.889   2.209   3.131
 5442TIP3    H216291   6.760   2.232   3.205
 5443TIP3   OH216292   3.329   1.013   4.323
 5443TIP3    H116293   3.328   0.971   4.408
 5443TIP3    H216294   3.238   1.014   4.295
 5444TIP3   OH216295   1.116   4.603   1.987
 5444TIP3    H116296   1.090   4.518   1.952
 5444TIP3    H216297   1.111   4.592   2.082
 5445TIP3   OH216298   3.235   3.152   4.709
 5445TIP3    H116299   3.325   3.140   4.677
 5445TIP3    H216300   3.182   3.155   4.630
 5446TIP3   OH216301   2.251   0.577   5.745
 5446TIP3    H116302   2.177   0.579   5.685
 5446TIP3    H216303   2.215   0.606   5.829
 5447TIP3   OH216304   7.087   1.694   3.786
 5447TIP3    H116305   7.014   1.668   3.841
 5447TIP3    H216306   7.149   1.736   3.846
 5448TIP3   OH216307   4.882   2.592   5.832
 5448TIP3    H116308   4.973   2.610   5.807
 5448TIP3    H216309   4.888   2.512   5.885
 5449TIP3   OH216310   4.254   5.592   3.657
 5449TIP3    H116311   4.300   5.509   3.669
 5449TIP3    H216312   4.324   5.657   3.651
 5450TIP3   OH216313   2.413   3.087   3.479
 5450TIP3    H116314   2.438   3.166   3.431
 5450TIP3    H216315   2.462   3.093   3.561
 5451TIP3   OH216316   5.028   6.157   3.029
 5451TIP3    H116317   5.102   6.150   3.089
 5451TIP3    H216318   5.052   6.228   2.969
 5452TIP3   OH216319   4.402   5.220   0.353
 5452TIP3    H116320   4.402   5.311   0.384
 5452TIP3    H216321   4.454   5.221   0.273
 5453TIP3   OH216322   5.117   2.280   3.075
 5453TIP3    H116323   5.211   2.296   3.076
 5453TIP3    H216324   5.108   2.185   3.085
 5454TIP3   OH216325   0.257   0.510   5.841
 5454TIP3    H116326   0.303   0.435   5.879
 5454TIP3    H216327   0.321   0.581   5.842
 5455TIP3   OH216328   3.195   1.609   1.174
 5455TIP3    H116329   3.104   1.610   1.143
 5455TIP3    H216330   3.248   1.605   1.095
 5456TIP3   OH216331   4.874   6.508   3.159
 5456TIP3    H116332   4.963   6.542   3.150
 5456TIP3    H216333   4.868   6.479   3.249
 5457TIP3   OH216334   1.554   5.459   2.932
 5457TIP3    H116335   1.483   5.467   2.869
 5457TIP3    H216336   1.631   5.492   2.886
 5458TIP3   OH216337   2.680   0.329   1.591
 5458TIP3    H116338   2.645   0.246   1.624
 5458TIP3    H216339   2.657   0.329   1.498
 5459TIP3   OH216340   4.316   1.933   4.387
 5459TIP3    H116341   4.249   2.000   4.400
 5459TIP3    H216342   4.267   1.851   4.380
 5460TIP3   OH216343   1.836   2.084   3.888
 5460TIP3    H116344   1.812   2.174   3.865
 5460TIP3    H216345   1.926   2.090   3.918
 5461TIP3   OH216346   2.268   4.517   4.683
 5461TIP3    H116347   2.347   4.471   4.655
 5461TIP3    H216348   2.265   4.505   4.777
 5462TIP3   OH216349   4.556   2.098   1.178
 5462TIP3    H116350   4.624   2.100   1.112
 5462TIP3    H216351   4.580   2.025   1.235
 5463TIP3   OH216352   2.789   2.862   1.249
 5463TIP3    H116353   2.782   2.914   1.329
 5463TIP3    H216354   2.710   2.883   1.199
 5464TIP3   OH216355   0.588   0.190   0.394
 5464TIP3    H116356   0.587   0.281   0.423
 5464TIP3    H216357   0.501   0.177   0.354
 5465TIP3   OH216358   1.484   6.682   2.887
 5465TIP3    H116359   1.554   6.622   2.914
 5465TIP3    H216360   1.415   6.625   2.853
 5466TIP3   OH216361   3.670   1.076   0.093
 5466TIP3    H116362   3.606   1.142   0.119
 5466TIP3    H216363   3.715   1.053   0.174
 5467TIP3   OH216364   2.165   0.045   0.725
 5467TIP3    H116365   2.219  -0.033   0.732
 5467TIP3    H216366   2.184   0.080   0.638
 5468TIP3   OH216367   0.078   0.629   4.372
 5468TIP3    H116368   0.147   0.635   4.437
 5468TIP3    H216369   0.113   0.675   4.295
 5469TIP3   OH216370   4.790   5.408   1.596
 5469TIP3    H116371   4.798   5.321   1.635
 5469TIP3    H216372   4.881   5.437   1.583
 5470TIP3   OH216373   5.990   6.248   3.768
 5470TIP3    H116374   5.939   6.184   3.718
 5470TIP3    H216375   5.954   6.333   3.742
 5471TIP3   OH216376   3.562   2.538   2.407
 5471TIP3    H116377   3.604   2.467   2.358
 5471TIP3    H216378   3.585   2.617   2.358
 5472TIP3   OH216379   6.355   2.050   0.369
 5472TIP3    H116380   6.408   2.034   0.447
 5472TIP3    H216381   6.416   2.045   0.296
 5473TIP3   OH216382   6.611   3.297   4.960
 5473TIP3    H116383   6.647   3.217   4.921
 5473TIP3    H216384   6.517   3.281   4.965
 5474TIP3   OH216385   3.592   1.072   3.456
 5474TIP3    H116386   3.543   1.126   3.519
 5474TIP3    H216387   3.633   1.004   3.509
 5475TIP3   OH216388   6.801   2.114   1.904
 5475TIP3    H116389   6.830   2.084   1.990
 5475TIP3    H216390   6.706   2.101   1.905
 5476TIP3   OH216391   3.983   5.444   1.922
 5476TIP3    H116392   3.889   5.450   1.934
 5476TIP3    H216393   4.020   5.494   1.996
 5477TIP3   OH216394   5.378   0.221   5.086
 5477TIP3    H116395   5.314   0.189   5.150
 5477TIP3    H216396   5.457   0.171   5.105
 5478TIP3   OH216397   6.158   6.550   4.714
 5478TIP3    H116398   6.119   6.603   4.784
 5478TIP3    H216399   6.216   6.489   4.760
 5479TIP3   OH216400   0.719   1.562   1.808
 5479TIP3    H116401   0.752   1.588   1.722
 5479TIP3    H216402   0.794   1.519   1.850
 5480TIP3   OH216403   6.207   4.701   1.895
 5480TIP3    H116404   6.179   4.611   1.916
 5480TIP3    H216405   6.170   4.754   1.966
 5481TIP3   OH216406   4.545   6.325   1.237
 5481TIP3    H116407   4.464   6.301   1.283
 5481TIP3    H216408   4.532   6.417   1.214
 5482TIP3   OH216409   6.690   4.438   5.878
 5482TIP3    H116410   6.640   4.356   5.873
 5482TIP3    H216411   6.736   4.443   5.795
 5483TIP3   OH216412   2.456   6.233   4.099
 5483TIP3    H116413   2.529   6.287   4.131
 5483TIP3    H216414   2.489   6.143   4.105
 5484TIP3   OH216415   3.196   4.903   3.573
 5484TIP3    H116416   3.103   4.922   3.566
 5484TIP3    H216417   3.234   4.937   3.493
 5485TIP3   OH216418   2.644   1.450   2.005
 5485TIP3    H116419   2.694   1.502   2.068
 5485TIP3    H216420   2.706   1.385   1.972
 5486TIP3   OH216421   0.376   0.586   2.287
 5486TIP3    H116422   0.300   0.601   2.231
 5486TIP3    H216423   0.362   0.498   2.324
 5487TIP3   OH216424   0.672   3.855   0.195
 5487TIP3    H116425   0.695   3.818   0.110
 5487TIP3    H216426   0.731   3.931   0.204
 5488TIP3   OH216427   5.156   3.862   2.189
 5488TIP3    H116428   5.190   3.930   2.247
 5488TIP3    H216429   5.153   3.783   2.244
 5489TIP3   OH216430   3.419   4.575   2.931
 5489TIP3    H116431   3.385   4.664   2.939
 5489TIP3    H216432   3.368   4.524   2.994
 5490TIP3   OH216433   5.056   3.776   0.348
 5490TIP3    H116434   5.095   3.853   0.306
 5490TIP3    H216435   5.057   3.796   0.441
 5491TIP3   OH216436   0.217   2.988   3.161
 5491TIP3    H116437   0.146   2.975   3.098
 5491TIP3    H216438   0.174   3.010   3.243
 5492TIP3   OH216439   4.553   5.307   4.968
 5492TIP3    H116440   4.542   5.212   4.980
 5492TIP3    H216441   4.466   5.343   4.983
 5493TIP3   OH216442   1.862   6.263   1.392
 5493TIP3    H116443   1.940   6.267   1.337
 5493TIP3    H216444   1.837   6.354   1.406
 5494TIP3   OH216445   0.291   2.179   3.998
 5494TIP3    H116446   0.304   2.084   3.994
 5494TIP3    H216447   0.274   2.204   3.907
 5495TIP3   OH216448   6.298   0.884   5.225
 5495TIP3    H116449   6.357   0.813   5.251
 5495TIP3    H216450   6.266   0.858   5.139
 5496TIP3   OH216451   3.153   1.877   2.395
 5496TIP3    H116452   3.217   1.809   2.372
 5496TIP3    H216453   3.204   1.958   2.395
 5497TIP3   OH216454   5.783   3.552   2.472
 5497TIP3    H116455   5.823   3.526   2.555
 5497TIP3    H216456   5.707   3.604   2.497
 5498TIP3   OH216457   5.005   0.269   3.555
 5498TIP3    H116458   5.033   0.230   3.472
 5498TIP3    H216459   5.008   0.197   3.618
 5499TIP3   OH216460   4.999   5.799   5.582
 5499TIP3    H116461   4.951   5.875   5.613
 5499TIP3    H216462   5.061   5.834   5.518
 5500TIP3   OH216463   2.073   6.298   5.030
 5500TIP3    H116464   2.026   6.224   5.069
 5500TIP3    H216465   2.082   6.361   5.102
 5501TIP3   OH216466   6.826   1.247   1.890
 5501TIP3    H116467   6.921   1.263   1.885
 5501TIP3    H216468   6.786   1.334   1.886
 5502TIP3   OH216469   4.203   2.755   4.606
 5502TIP3    H116470   4.279   2.805   4.636
 5502TIP3    H216471   4.171   2.710   4.684
 5503TIP3   OH216472   2.687   1.391   2.443
 5503TIP3    H116473   2.743   1.469   2.446
 5503TIP3    H216474   2.729   1.334   2.379
 5504TIP3   OH216475   5.455   4.676   4.621
 5504TIP3    H116476   5.387   4.619   4.657
 5504TIP3    H216477   5.407   4.754   4.592
 5505TIP3   OH216478   6.064   3.705   0.950
 5505TIP3    H116479   6.066   3.779   1.011
 5505TIP3    H216480   5.982   3.716   0.902
 5506TIP3   OH216481   0.171   3.203   5.343
 5506TIP3    H116482   0.147   3.294   5.327
 5506TIP3    H216483   0.228   3.180   5.269
 5507TIP3   OH216484   2.054   3.242   3.144
 5507TIP3    H116485   2.047   3.225   3.050
 5507TIP3    H216486   2.110   3.319   3.150
 5508TIP3   OH216487   5.142   6.646   0.414
 5508TIP3    H116488   5.113   6.737   0.419
 5508TIP3    H216489   5.237   6.651   0.423
 5509TIP3   OH216490   6.405   4.787   2.601
 5509TIP3    H116491   6.442   4.855   2.657
 5509TIP3    H216492   6.404   4.826   2.514
 5510TIP3   OH216493   1.063   2.721   5.814
 5510TIP3    H116494   1.154   2.750   5.803
 5510TIP3    H216495   1.064   2.671   5.896
 5511TIP3   OH216496   4.965   2.203   4.588
 5511TIP3    H116497   4.951   2.114   4.557
 5511TIP3    H216498   4.907   2.256   4.533
 5512TIP3   OH216499   0.404   0.042   1.879
 5512TIP3    H116500   0.418   0.128   1.918
 5512TIP3    H216501   0.466   0.038   1.806
 5513TIP3   OH216502   5.754   0.243   1.989
 5513TIP3    H116503   5.725   0.310   1.928
 5513TIP3    H216504   5.730   0.160   1.948
 5514TIP3   OH216505   6.854   1.646   1.974
 5514TIP3    H116506   6.797   1.588   1.923
 5514TIP3    H216507   6.920   1.676   1.911
 5515TIP3   OH216508   2.201   0.916   3.225
 5515TIP3    H116509   2.200   0.909   3.129
 5515TIP3    H216510   2.282   0.963   3.244
 5516TIP3   OH216511   0.705   0.943   0.198
 5516TIP3    H116512   0.687   0.937   0.104
 5516TIP3    H216513   0.781   1.000   0.205
 5517TIP3   OH216514   5.680   4.145   5.132
 5517TIP3    H116515   5.598   4.135   5.084
 5517TIP3    H216516   5.664   4.217   5.192
 5518TIP3   OH216517   0.267   1.465   0.828
 5518TIP3    H116518   0.222   1.462   0.744
 5518TIP3    H216519   0.359   1.454   0.806
 5519TIP3   OH216520   5.728   1.999   3.357
 5519TIP3    H116521   5.643   1.963   3.383
 5519TIP3    H216522   5.765   1.933   3.298
 5520TIP3   OH216523   3.471   2.967   1.795
 5520TIP3    H116524   3.402   3.000   1.738
 5520TIP3    H216525   3.527   3.043   1.812
 5521TIP3   OH216526   7.031   0.098   2.266
 5521TIP3    H116527   7.047   0.192   2.273
 5521TIP3    H216528   7.031   0.081   2.171
 5522TIP3   OH216529   3.358   2.206   0.339
 5522TIP3    H116530   3.288   2.262   0.305
 5522TIP3    H216531   3.438   2.243   0.300
 5523TIP3   OH216532   0.291   2.833   5.715
 5523TIP3    H116533   0.281   2.910   5.770
 5523TIP3    H216534   0.235   2.850   5.640
 5524TIP3   OH216535   0.540   4.700   4.141
 5524TIP3    H116536   0.586   4.622   4.109
 5524TIP3    H216537   0.610   4.759   4.168
 5525TIP3   OH216538   4.548   2.865   0.579
 5525TIP3    H116539   4.530   2.842   0.488
 5525TIP3    H216540   4.609   2.797   0.609
 5526TIP3   OH216541   7.043   3.921   5.222
 5526TIP3    H116542   7.106   3.979   5.180
 5526TIP3    H216543   6.958   3.948   5.185
 5527TIP3   OH216544   1.691   5.622   4.816
 5527TIP3    H116545   1.647   5.658   4.739
 5527TIP3    H216546   1.672   5.529   4.814
 5528TIP3   OH216547   2.396   2.373   3.677
 5528TIP3    H116548   2.411   2.281   3.698
 5528TIP3    H216549   2.330   2.371   3.608
 5529TIP3   OH216550   0.667   5.477   5.350
 5529TIP3    H116551   0.747   5.529   5.358
 5529TIP3    H216552   0.614   5.523   5.285
 5530TIP3   OH216553   2.930   3.714   3.911
 5530TIP3    H116554   2.981   3.645   3.868
 5530TIP3    H216555   2.856   3.667   3.949
 5531TIP3   OH216556   4.261   2.312   1.394
 5531TIP3    H116557   4.237   2.304   1.301
 5531TIP3    H216558   4.312   2.393   1.398
 5532TIP3   OH216559   3.493   5.194   1.588
 5532TIP3    H116560   3.474   5.260   1.521
 5532TIP3    H216561   3.579   5.158   1.563
 5533TIP3   OH216562   4.433   6.757   5.640
 5533TIP3    H116563   4.418   6.815   5.565
 5533TIP3    H216564   4.346   6.741   5.675
 5534TIP3   OH216565   4.442   4.935   1.163
 5534TIP3    H116566   4.350   4.907   1.165
 5534TIP3    H216567   4.465   4.936   1.070
 5535TIP3   OH216568   5.863   4.723   1.165
 5535TIP3    H116569   5.931   4.756   1.224
 5535TIP3    H216570   5.894   4.746   1.078
 5536TIP3   OH216571   6.805   2.029   2.168
 5536TIP3    H116572   6.851   1.952   2.200
 5536TIP3    H216573   6.715   2.018   2.198
 5537TIP3   OH216574   1.412   0.218   2.031
 5537TIP3    H116575   1.393   0.198   1.939
 5537TIP3    H216576   1.505   0.242   2.031
 5538TIP3   OH216577   5.059   4.800   5.736
 5538TIP3    H116578   5.031   4.733   5.673
 5538TIP3    H216579   5.081   4.876   5.683
 5539TIP3   OH216580   6.106   5.954   0.937
 5539TIP3    H116581   6.131   5.888   1.002
 5539TIP3    H216582   6.034   6.002   0.978
 5540TIP3   OH216583   2.696   3.566   5.069
 5540TIP3    H116584   2.714   3.486   5.119
 5540TIP3    H216585   2.664   3.629   5.133
 5541TIP3   OH216586   7.099   1.813   5.461
 5541TIP3    H116587   7.142   1.737   5.500
 5541TIP3    H216588   7.008   1.785   5.448
 5542TIP3   OH216589   1.785   0.579   1.714
 5542TIP3    H116590   1.708   0.585   1.658
 5542TIP3    H216591   1.786   0.662   1.761
 5543TIP3   OH216592   5.861   1.628   1.283
 5543TIP3    H116593   5.802   1.687   1.330
 5543TIP3    H216594   5.826   1.626   1.194
 5544TIP3   OH216595   7.104   0.866   2.685
 5544TIP3    H116596   7.187   0.843   2.726
 5544TIP3    H216597   7.039   0.811   2.731
 5545TIP3   OH216598   2.259   1.331   3.965
 5545TIP3    H116599   2.278   1.375   4.047
 5545TIP3    H216600   2.297   1.387   3.897
 5546TIP3   OH216601   4.227   3.586   3.308
 5546TIP3    H116602   4.243   3.492   3.292
 5546TIP3    H216603   4.162   3.610   3.243
 5547TIP3   OH216604   4.973   5.008   3.890
 5547TIP3    H116605   4.896   4.952   3.881
 5547TIP3    H216606   5.048   4.949   3.887
 5548TIP3   OH216607   2.176   2.769   4.989
 5548TIP3    H116608   2.159   2.688   4.940
 5548TIP3    H216609   2.120   2.761   5.067
 5549TIP3   OH216610   2.941   3.758   2.723
 5549TIP3    H116611   2.855   3.722   2.742
 5549TIP3    H216612   2.999   3.718   2.788
 5550TIP3   OH216613   6.233   4.979   4.832
 5550TIP3    H116614   6.265   4.940   4.750
 5550TIP3    H216615   6.168   5.043   4.805
 5551TIP3   OH216616   1.997   4.069   4.486
 5551TIP3    H116617   2.032   4.103   4.404
 5551TIP3    H216618   1.916   4.023   4.461
 5552TIP3   OH216619   6.726   6.023   5.414
 5552TIP3    H116620   6.691   5.935   5.403
 5552TIP3    H216621   6.699   6.070   5.336
 5553TIP3   OH216622   3.945   6.433   4.326
 5553TIP3    H116623   4.026   6.481   4.306
 5553TIP3    H216624   3.879   6.475   4.272
 5554TIP3   OH216625   5.446   0.103   2.222
 5554TIP3    H116626   5.505   0.179   2.230
 5554TIP3    H216627   5.397   0.120   2.142
 5555TIP3   OH216628   2.068   5.500   5.162
 5555TIP3    H116629   2.119   5.511   5.242
 5555TIP3    H216630   1.998   5.564   5.169
 5556TIP3   OH216631   4.104   2.861   1.732
 5556TIP3    H116632   4.143   2.773   1.732
 5556TIP3    H216633   4.072   2.873   1.643
 5557TIP3   OH216634   1.947   1.896   4.345
 5557TIP3    H116635   1.886   1.900   4.271
 5557TIP3    H216636   2.021   1.951   4.318
 5558TIP3   OH216637   3.456   5.346   2.544
 5558TIP3    H116638   3.426   5.383   2.461
 5558TIP3    H216639   3.551   5.341   2.535
 5559TIP3   OH216640   1.296   4.035   2.399
 5559TIP3    H116641   1.382   4.077   2.411
 5559TIP3    H216642   1.233   4.100   2.430
 5560TIP3   OH216643   0.045   2.416   4.823
 5560TIP3    H116644   0.099   2.339   4.803
 5560TIP3    H216645  -0.045   2.386   4.813
 5561TIP3   OH216646   6.852   1.522   3.178
 5561TIP3    H116647   6.926   1.503   3.236
 5561TIP3    H216648   6.804   1.592   3.221
 5562TIP3   OH216649   3.026   4.462   1.226
 5562TIP3    H116650   2.979   4.393   1.180
 5562TIP3    H216651   3.051   4.423   1.310
 5563TIP3   OH216652   4.898   4.692   3.050
 5563TIP3    H116653   4.810   4.721   3.074
 5563TIP3    H216654   4.944   4.771   3.023
 5564TIP3   OH216655   3.863   4.115   1.223
 5564TIP3    H116656   3.943   4.067   1.243
 5564TIP3    H216657   3.876   4.201   1.264
 5565TIP3   OH216658   3.710   2.066   5.597
 5565TIP3    H116659   3.682   1.995   5.540
 5565TIP3    H216660   3.788   2.102   5.554
 5566TIP3   OH216661   5.811   5.674   4.134
 5566TIP3    H116662   5.783   5.645   4.221
 5566TIP3    H216663   5.894   5.719   4.149
 5567TIP3   OH216664   3.649   5.980   4.384
 5567TIP3    H116665   3.655   6.038   4.309
 5567TIP3    H216666   3.736   5.983   4.424
 5568TIP3   OH216667   7.087   5.714   3.253
 5568TIP3    H116668   7.090   5.785   3.190
 5568TIP3    H216669   7.083   5.634   3.200
 5569TIP3   OH216670   6.184   0.961   1.146
 5569TIP3    H116671   6.172   0.928   1.235
 5569TIP3    H216672   6.166   1.055   1.152
 5570TIP3   OH216673   2.957   5.587   2.883
 5570TIP3    H116674   2.954   5.531   2.806
 5570TIP3    H216675   2.896   5.658   2.863
 5571TIP3   OH216676   3.098   2.277   0.606
 5571TIP3    H116677   3.167   2.331   0.568
 5571TIP3    H216678   3.060   2.330   0.675
 5572TIP3   OH216679   2.063   5.396   2.534
 5572TIP3    H116680   2.116   5.349   2.598
 5572TIP3    H216681   2.040   5.478   2.577
 5573TIP3   OH216682   1.354   1.886   0.897
 5573TIP3    H116683   1.268   1.927   0.893
 5573TIP3    H216684   1.406   1.943   0.954
 5574TIP3   OH216685   6.755   1.914   2.898
 5574TIP3    H116686   6.799   1.829   2.890
 5574TIP3    H216687   6.747   1.928   2.993
 5575TIP3   OH216688   4.732   1.149   3.696
 5575TIP3    H116689   4.728   1.057   3.670
 5575TIP3    H216690   4.767   1.193   3.618
 5576TIP3   OH216691   1.989   4.449   3.899
 5576TIP3    H116692   2.023   4.534   3.928
 5576TIP3    H216693   1.904   4.442   3.943
 5577TIP3   OH216694   1.220   3.425   2.221
 5577TIP3    H116695   1.305   3.418   2.266
 5577TIP3    H216696   1.161   3.369   2.272
 5578TIP3   OH216697   3.820   5.540   4.378
 5578TIP3    H116698   3.894   5.558   4.319
 5578TIP3    H216699   3.830   5.448   4.402
 5579TIP3   OH216700   0.094   4.470   1.639
 5579TIP3    H116701   0.034   4.437   1.572
 5579TIP3    H216702   0.155   4.398   1.654
 5580TIP3   OH216703   6.193   2.376   5.167
 5580TIP3    H116704   6.194   2.452   5.226
 5580TIP3    H216705   6.283   2.345   5.167
 5581TIP3   OH216706   6.675   2.943   2.280
 5581TIP3    H116707   6.767   2.927   2.301
 5581TIP3    H216708   6.639   2.857   2.259
 5582TIP3   OH216709   6.260   4.845   3.184
 5582TIP3    H116710   6.283   4.846   3.277
 5582TIP3    H216711   6.257   4.937   3.159
 5583TIP3   OH216712   4.626   1.372   3.387
 5583TIP3    H116713   4.554   1.368   3.449
 5583TIP3    H216714   4.656   1.463   3.390
 5584TIP3   OH216715   1.334   0.323   4.065
 5584TIP3    H116716   1.415   0.328   4.014
 5584TIP3    H216717   1.265   0.312   4.000
 5585TIP3   OH216718   4.495   0.096   2.889
 5585TIP3    H116719   4.463   0.167   2.946
 5585TIP3    H216720   4.498   0.136   2.802
 5586TIP3   OH216721   2.575   5.147   4.591
 5586TIP3    H116722   2.612   5.200   4.661
 5586TIP3    H216723   2.514   5.087   4.636
 5587TIP3   OH216724   1.061   1.842   3.793
 5587TIP3    H116725   1.092   1.926   3.758
 5587TIP3    H216726   0.987   1.865   3.849
 5588TIP3   OH216727   6.973   3.110   4.072
 5588TIP3    H116728   6.993   3.183   4.013
 5588TIP3    H216729   7.039   3.044   4.052
 5589TIP3   OH216730   3.845   6.557   4.578
 5589TIP3    H116731   3.870   6.508   4.499
 5589TIP3    H216732   3.750   6.562   4.574
 5590TIP3   OH216733   0.179   1.493   1.749
 5590TIP3    H116734   0.133   1.576   1.754
 5590TIP3    H216735   0.199   1.471   1.840
 5591TIP3   OH216736   1.469   5.059   2.629
 5591TIP3    H116737   1.466   5.032   2.721
 5591TIP3    H216738   1.510   5.145   2.631
 5592TIP3   OH216739   7.155   6.693   0.980
 5592TIP3    H116740   7.181   6.611   0.939
 5592TIP3    H216741   7.059   6.692   0.978
 5593TIP3   OH216742   3.677   1.728   1.499
 5593TIP3    H116743   3.622   1.669   1.447
 5593TIP3    H216744   3.645   1.815   1.476
 5594TIP3   OH216745   0.421   6.262   5.772
 5594TIP3    H116746   0.431   6.243   5.679
 5594TIP3    H216747   0.446   6.181   5.816
 5595TIP3   OH216748   5.192   1.994   4.372
 5595TIP3    H116749   5.219   2.063   4.433
 5595TIP3    H216750   5.273   1.949   4.348
 5596TIP3   OH216751   0.333   2.994   3.548
 5596TIP3    H116752   0.426   3.015   3.555
 5596TIP3    H216753   0.297   3.065   3.494
 5597TIP3   OH216754   0.288   6.159   2.914
 5597TIP3    H116755   0.360   6.207   2.871
 5597TIP3    H216756   0.261   6.094   2.849
 5598TIP3   OH216757   6.883   2.567   1.931
 5598TIP3    H116758   6.929   2.494   1.890
 5598TIP3    H216759   6.909   2.644   1.880
 5599TIP3   OH216760   2.109   0.579   2.329
 5599TIP3    H116761   2.052   0.579   2.406
 5599TIP3    H216762   2.055   0.618   2.260
 5600TIP3   OH216763   6.468   0.986   3.358
 5600TIP3    H116764   6.541   0.925   3.371
 5600TIP3    H216765   6.509   1.072   3.351
 5601TIP3   OH216766   4.556   1.740   2.826
 5601TIP3    H116767   4.623   1.743   2.757
 5601TIP3    H216768   4.474   1.748   2.778
 5602TIP3   OH216769   4.366   2.598   5.392
 5602TIP3    H116770   4.293   2.658   5.382
 5602TIP3    H216771   4.406   2.593   5.305
 5603TIP3   OH216772   3.586   4.995   5.314
 5603TIP3    H116773   3.494   5.010   5.335
 5603TIP3    H216774   3.584   4.929   5.245
 5604TIP3   OH216775   2.368   6.353   0.862
 5604TIP3    H116776   2.301   6.413   0.894
 5604TIP3    H216777   2.433   6.410   0.820
 5605TIP3   OH216778   7.197   4.565   2.914
 5605TIP3    H116779   7.153   4.635   2.962
 5605TIP3    H216780   7.130   4.497   2.904
 5606TIP3   OH216781   6.998   2.774   3.469
 5606TIP3    H116782   6.967   2.814   3.388
 5606TIP3    H216783   6.921   2.731   3.506
 5607TIP3   OH216784   0.218   4.375   5.578
 5607TIP3    H116785   0.195   4.468   5.567
 5607TIP3    H216786   0.136   4.332   5.598
 5608TIP3   OH216787   3.037   0.817   1.684
 5608TIP3    H116788   2.965   0.863   1.639
 5608TIP3    H216789   2.993   0.752   1.738
 5609TIP3   OH216790   7.065   3.725   5.687
 5609TIP3    H116791   7.112   3.728   5.770
 5609TIP3    H216792   7.012   3.646   5.692
 5610TIP3   OH216793   4.014   4.256   5.266
 5610TIP3    H116794   4.078   4.186   5.278
 5610TIP3    H216795   4.056   4.317   5.205
 5611TIP3   OH216796   0.605   2.191   3.257
 5611TIP3    H116797   0.608   2.241   3.338
 5611TIP3    H216798   0.535   2.232   3.206
 5612TIP3   OH216799   0.711   2.316   0.935
 5612TIP3    H116800   0.638   2.376   0.943
 5612TIP3    H216801   0.673   2.236   0.899
 5613TIP3   OH216802   6.044   3.127   3.740
 5613TIP3    H116803   6.038   3.223   3.745
 5613TIP3    H216804   6.002   3.106   3.657
 5614TIP3   OH216805   5.818   5.765   5.160
 5614TIP3    H116806   5.847   5.854   5.142
 5614TIP3    H216807   5.804   5.726   5.074
 5615TIP3   OH216808   1.324   1.379   2.157
 5615TIP3    H116809   1.397   1.319   2.171
 5615TIP3    H216810   1.302   1.411   2.245
 5616TIP3   OH216811   1.209   4.571   0.380
 5616TIP3    H116812   1.186   4.543   0.469
 5616TIP3    H216813   1.176   4.660   0.374
 5617TIP3   OH216814   4.899   4.361   1.291
 5617TIP3    H116815   4.968   4.324   1.345
 5617TIP3    H216816   4.869   4.288   1.237
 5618TIP3   OH216817   0.888   5.344   2.527
 5618TIP3    H116818   0.879   5.344   2.622
 5618TIP3    H216819   0.982   5.342   2.511
 5619TIP3   OH216820   0.498   0.146   2.198
 5619TIP3    H116821   0.421   0.188   2.160
 5619TIP3    H216822   0.572   0.200   2.169
 5620TIP3   OH216823   5.846   0.694   0.208
 5620TIP3    H116824   5.817   0.759   0.273
 5620TIP3    H216825   5.814   0.729   0.125
 5621TIP3   OH216826   6.756   0.250   5.319
 5621TIP3    H116827   6.697   0.177   5.335
 5621TIP3    H216828   6.727   0.319   5.377
 5622TIP3   OH216829   2.091   1.579   4.123
 5622TIP3    H116830   2.076   1.663   4.079
 5622TIP3    H216831   2.186   1.578   4.139
 5623TIP3   OH216832   3.757   0.885   5.055
 5623TIP3    H116833   3.767   0.799   5.095
 5623TIP3    H216834   3.777   0.870   4.962
 5624TIP3   OH216835   1.454   5.688   3.218
 5624TIP3    H116836   1.549   5.699   3.217
 5624TIP3    H216837   1.424   5.730   3.138
 5625TIP3   OH216838   6.584   5.677   0.394
 5625TIP3    H116839   6.657   5.619   0.417
 5625TIP3    H216840   6.539   5.632   0.323
 5626TIP3   OH216841   7.190   3.912   3.023
 5626TIP3    H116842   7.180   3.896   3.116
 5626TIP3    H216843   7.200   4.007   3.016
 5627TIP3   OH216844   6.117   2.692   0.387
 5627TIP3    H116845   6.192   2.690   0.327
 5627TIP3    H216846   6.142   2.633   0.458
 5628TIP3   OH216847   1.891   1.955  -0.029
 5628TIP3    H116848   1.899   2.030   0.031
 5628TIP3    H216849   1.821   1.981  -0.090
 5629TIP3   OH216850   1.027   1.371   4.927
 5629TIP3    H116851   1.116   1.379   4.960
 5629TIP3    H216852   0.976   1.431   4.982
 5630TIP3   OH216853   6.446   3.541   1.681
 5630TIP3    H116854   6.438   3.531   1.776
 5630TIP3    H216855   6.357   3.534   1.648
 5631TIP3   OH216856   2.762   5.817   0.667
 5631TIP3    H116857   2.685   5.846   0.618
 5631TIP3    H216858   2.824   5.791   0.599
 5632TIP3   OH216859   1.814   4.944   1.348
 5632TIP3    H116860   1.793   4.935   1.255
 5632TIP3    H216861   1.875   4.873   1.366
 5633TIP3   OH216862   1.171   2.269   3.919
 5633TIP3    H116863   1.160   2.210   3.844
 5633TIP3    H216864   1.107   2.239   3.983
 5634TIP3   OH216865   0.064   0.126   0.232
 5634TIP3    H116866  -0.022   0.149   0.267
 5634TIP3    H216867   0.121   0.127   0.309
 5635TIP3   OH216868   6.826   6.042   4.551
 5635TIP3    H116869   6.831   6.034   4.456
 5635TIP3    H216870   6.796   5.956   4.581
 5636TIP3   OH216871   1.765   5.570   5.594
 5636TIP3    H116872   1.813   5.498   5.635
 5636TIP3    H216873   1.763   5.639   5.661
 5637TIP3   OH216874   4.304   5.441   5.086
 5637TIP3    H116875   4.340   5.510   5.141
 5637TIP3    H216876   4.298   5.479   4.999
 5638TIP3   OH216877   1.179   6.535   1.983
 5638TIP3    H116878   1.129   6.616   1.983
 5638TIP3    H216879   1.228   6.537   2.065
 5639TIP3   OH216880   4.197   3.163   0.795
 5639TIP3    H116881   4.217   3.074   0.766
 5639TIP3    H216882   4.128   3.151   0.861
 5640TIP3   OH216883   7.117   4.512   2.602
 5640TIP3    H116884   7.139   4.462   2.681
 5640TIP3    H216885   7.124   4.449   2.531
 5641TIP3   OH216886   1.677   0.511   2.992
 5641TIP3    H116887   1.632   0.565   2.927
 5641TIP3    H216888   1.634   0.532   3.075
 5642TIP3   OH216889   0.791   4.116   3.111
 5642TIP3    H116890   0.723   4.072   3.060
 5642TIP3    H216891   0.869   4.111   3.056
 5643TIP3   OH216892   3.776   6.104   0.230
 5643TIP3    H116893   3.687   6.111   0.264
 5643TIP3    H216894   3.830   6.083   0.306
 5644TIP3   OH216895   6.599   1.449   1.454
 5644TIP3    H116896   6.690   1.469   1.476
 5644TIP3    H216897   6.562   1.417   1.536
 5645TIP3   OH216898   2.536   4.649   1.093
 5645TIP3    H116899   2.442   4.650   1.075
 5645TIP3    H216900   2.562   4.558   1.079
 5646TIP3   OH216901   2.145   4.893   2.230
 5646TIP3    H116902   2.128   4.987   2.244
 5646TIP3    H216903   2.232   4.879   2.267
 5647TIP3   OH216904   3.296   4.165   4.502
 5647TIP3    H116905   3.343   4.085   4.526
 5647TIP3    H216906   3.297   4.165   4.406
 5648TIP3   OH216907   6.031   6.580   4.451
 5648TIP3    H116908   6.071   6.579   4.538
 5648TIP3    H216909   6.021   6.673   4.431
 5649TIP3   OH216910   1.778   2.335   3.818
 5649TIP3    H116911   1.690   2.365   3.797
 5649TIP3    H216912   1.836   2.404   3.787
 5650TIP3   OH216913   6.026   1.298   3.141
 5650TIP3    H116914   6.058   1.325   3.227
 5650TIP3    H216915   5.945   1.250   3.159
 5651TIP3   OH216916   3.687   4.396   2.528
 5651TIP3    H116917   3.599   4.396   2.564
 5651TIP3    H216918   3.745   4.407   2.603
 5652TIP3   OH216919   3.967   6.254   1.240
 5652TIP3    H116920   3.902   6.215   1.181
 5652TIP3    H216921   3.996   6.180   1.294
 5653TIP3   OH216922   2.542   5.157   2.932
 5653TIP3    H116923   2.625   5.109   2.942
 5653TIP3    H216924   2.507   5.128   2.848
 5654TIP3   OH216925   2.421   6.119   5.170
 5654TIP3    H116926   2.455   6.084   5.088
 5654TIP3    H216927   2.326   6.111   5.161
 5655TIP3   OH216928   5.380   5.715   1.918
 5655TIP3    H116929   5.339   5.656   1.982
 5655TIP3    H216930   5.464   5.673   1.897
 5656TIP3   OH216931   5.499   0.430   5.250
 5656TIP3    H116932   5.524   0.430   5.342
 5656TIP3    H216933   5.428   0.366   5.244
 5657TIP3   OH216934   3.121   2.048   0.451
 5657TIP3    H116935   3.095   2.130   0.494
 5657TIP3    H216936   3.200   2.071   0.401
 5658TIP3   OH216937   6.135   1.871   3.331
 5658TIP3    H116938   6.074   1.867   3.405
 5658TIP3    H216939   6.141   1.780   3.301
 5659TIP3   OH216940   3.848   3.073   0.324
 5659TIP3    H116941   3.903   3.003   0.290
 5659TIP3    H216942   3.779   3.083   0.258
 5660TIP3   OH216943   4.511   0.159   5.038
 5660TIP3    H116944   4.600   0.189   5.022
 5660TIP3    H216945   4.513   0.121   5.126
 5661TIP3   OH216946   1.622   2.861   0.652
 5661TIP3    H116947   1.660   2.949   0.644
 5661TIP3    H216948   1.599   2.853   0.745
 5662TIP3   OH216949   6.563   6.656   2.491
 5662TIP3    H116950   6.499   6.603   2.444
 5662TIP3    H216951   6.635   6.668   2.429
 5663TIP3   OH216952   0.345   5.770   2.254
 5663TIP3    H116953   0.417   5.816   2.210
 5663TIP3    H216954   0.313   5.708   2.189
 5664TIP3   OH216955   6.904   3.371   5.755
 5664TIP3    H116956   6.913   3.446   5.813
 5664TIP3    H216957   6.890   3.297   5.815
 5665TIP3   OH216958   3.276   6.396   2.262
 5665TIP3    H116959   3.311   6.477   2.225
 5665TIP3    H216960   3.321   6.387   2.346
 5666TIP3   OH216961   5.782   5.671   2.176
 5666TIP3    H116962   5.855   5.694   2.234
 5666TIP3    H216963   5.729   5.751   2.172
 5667TIP3   OH216964   2.300   3.655   3.648
 5667TIP3    H116965   2.337   3.587   3.592
 5667TIP3    H216966   2.221   3.684   3.602
 5668TIP3   OH216967   0.574   0.502   1.286
 5668TIP3    H116968   0.628   0.547   1.351
 5668TIP3    H216969   0.566   0.564   1.214
 5669TIP3   OH216970   2.560   1.559   3.173
 5669TIP3    H116971   2.647   1.579   3.141
 5669TIP3    H216972   2.575   1.508   3.253
 5670TIP3   OH216973   3.428   0.359   1.869
 5670TIP3    H116974   3.357   0.322   1.921
 5670TIP3    H216975   3.458   0.435   1.919
 5671TIP3   OH216976   3.225   4.196   1.349
 5671TIP3    H116977   3.155   4.188   1.413
 5671TIP3    H216978   3.298   4.147   1.386
 5672TIP3   OH216979   7.122   4.601   5.718
 5672TIP3    H116980   7.113   4.522   5.665
 5672TIP3    H216981   7.110   4.673   5.656
 5673TIP3   OH216982   6.417   4.902   5.007
 5673TIP3    H116983   6.348   4.920   4.943
 5673TIP3    H216984   6.405   4.810   5.030
 5674TIP3   OH216985   5.608   6.333   4.633
 5674TIP3    H116986   5.682   6.383   4.667
 5674TIP3    H216987   5.531   6.387   4.655
 5675TIP3   OH216988   1.119   1.840   3.354
 5675TIP3    H116989   1.024   1.844   3.340
 5675TIP3    H216990   1.133   1.758   3.400
 5676TIP3   OH216991   1.312   0.798   5.436
 5676TIP3    H116992   1.227   0.794   5.392
 5676TIP3    H216993   1.374   0.823   5.368
 5677TIP3   OH216994   4.878   3.902   0.660
 5677TIP3    H116995   4.800   3.876   0.612
 5677TIP3    H216996   4.846   3.929   0.746
 5678TIP3   OH216997   0.897   2.696   1.581
 5678TIP3    H116998   0.919   2.732   1.495
 5678TIP3    H216999   0.894   2.772   1.639
 5679TIP3   OH217000   3.001   0.129   1.878
 5679TIP3    H117001   2.941   0.201   1.899
 5679TIP3    H217002   3.078   0.146   1.932
 5680TIP3   OH217003   0.754   2.023   2.580
 5680TIP3    H117004   0.684   2.086   2.601
 5680TIP3    H217005   0.767   1.974   2.662
 5681TIP3   OH217006   6.762   4.208   3.525
 5681TIP3    H117007   6.837   4.151   3.542
 5681TIP3    H217008   6.778   4.244   3.438
 5682TIP3   OH217009   5.931   5.686   0.856
 5682TIP3    H117010   5.991   5.756   0.881
 5682TIP3    H217011   5.881   5.668   0.936
 5683TIP3   OH217012  -0.018   4.243   4.007
 5683TIP3    H117013  -0.099   4.193   4.017
 5683TIP3    H217014   0.006   4.269   4.096
 5684TIP3   OH217015   5.456   5.961   3.460
 5684TIP3    H117016   5.484   5.984   3.371
 5684TIP3    H217017   5.538   5.944   3.507
 5685TIP3   OH217018   3.730   1.331   4.678
 5685TIP3    H117019   3.769   1.254   4.637
 5685TIP3    H217020   3.768   1.332   4.766
 5686TIP3   OH217021   7.223   3.651   1.104
 5686TIP3    H117022   7.256   3.562   1.116
 5686TIP3    H217023   7.290   3.694   1.052
 5687TIP3   OH217024   3.896   1.559   5.391
 5687TIP3    H117025   3.844   1.488   5.428
 5687TIP3    H217026   3.940   1.598   5.467
 5688TIP3   OH217027   3.241   3.588   5.181
 5688TIP3    H117028   3.293   3.507   5.180
 5688TIP3    H217029   3.155   3.560   5.214
 5689TIP3   OH217030   4.298   6.727   3.103
 5689TIP3    H117031   4.298   6.823   3.099
 5689TIP3    H217032   4.234   6.705   3.171
 5690TIP3   OH217033   4.928   1.240   4.600
 5690TIP3    H117034   4.911   1.148   4.579
 5690TIP3    H217035   4.957   1.239   4.691
 5691TIP3   OH217036   0.589   4.875   0.164
 5691TIP3    H117037   0.671   4.911   0.129
 5691TIP3    H217038   0.532   4.868   0.087
 5692TIP3   OH217039   3.897   4.553   5.681
 5692TIP3    H117040   3.924   4.476   5.632
 5692TIP3    H217041   3.812   4.531   5.718
 5693TIP3   OH217042   6.341   0.868   0.223
 5693TIP3    H117043   6.252   0.903   0.225
 5693TIP3    H217044   6.340   0.801   0.155
 5694TIP3   OH217045   6.705   1.140   1.362
 5694TIP3    H117046   6.651   1.211   1.327
 5694TIP3    H217047   6.679   1.132   1.454
 5695TIP3   OH217048   7.103   1.041   0.145
 5695TIP3    H117049   7.027   0.984   0.153
 5695TIP3    H217050   7.174   0.983   0.118
 5696TIP3   OH217051   0.288   4.492   1.045
 5696TIP3    H117052   0.319   4.506   1.135
 5696TIP3    H217053   0.205   4.539   1.041
 5697TIP3   OH217054   3.028   2.731   2.504
 5697TIP3    H117055   2.946   2.693   2.533
 5697TIP3    H217056   3.008   2.773   2.420
 5698TIP3   OH217057   0.315   0.401   2.726
 5698TIP3    H117058   0.374   0.335   2.691
 5698TIP3    H217059   0.347   0.417   2.815
 5699TIP3   OH217060   6.887   4.469   1.391
 5699TIP3    H117061   6.934   4.502   1.315
 5699TIP3    H217062   6.824   4.407   1.354
 5700TIP3   OH217063   7.160   3.274   3.956
 5700TIP3    H117064   7.233   3.288   4.015
 5700TIP3    H217065   7.199   3.235   3.878
 5701TIP3   OH217066   3.026   4.958   4.214
 5701TIP3    H117067   2.961   4.958   4.144
 5701TIP3    H217068   2.975   4.939   4.294
 5702TIP3   OH217069   5.948   4.244   1.860
 5702TIP3    H117070   5.988   4.173   1.808
 5702TIP3    H217071   5.902   4.198   1.931
 5703TIP3   OH217072   0.205   1.018   4.986
 5703TIP3    H117073   0.192   0.956   5.059
 5703TIP3    H217074   0.148   1.092   5.007
 5704TIP3   OH217075   2.517   5.897   1.619
 5704TIP3    H117076   2.457   5.851   1.562
 5704TIP3    H217077   2.597   5.844   1.619
 5705TIP3   OH217078   6.823   3.940   5.075
 5705TIP3    H117079   6.792   3.850   5.067
 5705TIP3    H217080   6.819   3.975   4.986
 5706TIP3   OH217081   4.477   1.482   5.254
 5706TIP3    H117082   4.533   1.508   5.181
 5706TIP3    H217083   4.523   1.513   5.332
 5707TIP3   OH217084   5.607   3.812   1.512
 5707TIP3    H117085   5.535   3.846   1.459
 5707TIP3    H217086   5.685   3.822   1.457
 5708TIP3   OH217087   4.146   4.349   1.125
 5708TIP3    H117088   4.080   4.369   1.192
 5708TIP3    H217089   4.098   4.350   1.043
 5709TIP3   OH217090   6.379   4.816   3.761
 5709TIP3    H117091   6.369   4.910   3.776
 5709TIP3    H217092   6.389   4.778   3.849
 5710TIP3   OH217093   5.565   4.877   5.889
 5710TIP3    H117094   5.537   4.886   5.981
 5710TIP3    H217095   5.612   4.794   5.887
 5711TIP3   OH217096   2.146   1.512   2.609
 5711TIP3    H117097   2.079   1.450   2.638
 5711TIP3    H217098   2.202   1.523   2.685
 5712TIP3   OH217099   7.238   2.882   2.350
 5712TIP3    H117100   7.252   2.968   2.309
 5712TIP3    H217101   7.147   2.860   2.327
 5713TIP3   OH217102   3.569   3.860   2.451
 5713TIP3    H117103   3.577   3.944   2.498
 5713TIP3    H217104   3.635   3.804   2.492
 5714TIP3   OH217105   3.492   0.083   4.453
 5714TIP3    H117106   3.494   0.178   4.439
 5714TIP3    H217107   3.399   0.063   4.464
 5715TIP3   OH217108   2.792   4.619   0.065
 5715TIP3    H117109   2.743   4.590  -0.012
 5715TIP3    H217110   2.735   4.597   0.139
 5716TIP3   OH217111   4.562   5.028   4.956
 5716TIP3    H117112   4.546   4.943   4.916
 5716TIP3    H217113   4.514   5.024   5.039
 5717TIP3   OH217114   5.139   0.467   2.487
 5717TIP3    H117115   5.203   0.471   2.558
 5717TIP3    H217116   5.160   0.384   2.442
 5718TIP3   OH217117   0.120   5.360   2.701
 5718TIP3    H117118   0.035   5.319   2.713
 5718TIP3    H217119   0.122   5.431   2.766
 5719TIP3   OH217120   1.175   5.850   4.474
 5719TIP3    H117121   1.164   5.920   4.539
 5719TIP3    H217122   1.263   5.862   4.440
 5720TIP3   OH217123   3.746   0.162   0.234
 5720TIP3    H117124   3.672   0.160   0.294
 5720TIP3    H217125   3.735   0.243   0.184
 5721TIP3   OH217126   4.487   3.786   3.961
 5721TIP3    H117127   4.485   3.869   3.914
 5721TIP3    H217128   4.395   3.758   3.965
 5722TIP3   OH217129   3.630   2.770   0.292
 5722TIP3    H117130   3.670   2.787   0.377
 5722TIP3    H217131   3.703   2.764   0.231
 5723TIP3   OH217132   3.633   5.623   2.488
 5723TIP3    H117133   3.707   5.684   2.488
 5723TIP3    H217134   3.622   5.598   2.579
 5724TIP3   OH217135   4.458   0.519   0.391
 5724TIP3    H117136   4.513   0.442   0.376
 5724TIP3    H217137   4.520   0.589   0.410
 5725TIP3   OH217138   6.274   5.766   5.011
 5725TIP3    H117139   6.214   5.740   4.942
 5725TIP3    H217140   6.230   5.838   5.055
 5726TIP3   OH217141   4.731   1.777   2.624
 5726TIP3    H117142   4.818   1.739   2.616
 5726TIP3    H217143   4.730   1.850   2.562
 5727TIP3   OH217144   2.064   1.808   4.796
 5727TIP3    H117145   2.107   1.892   4.783
 5727TIP3    H217146   1.991   1.808   4.734
 5728TIP3   OH217147   0.320   3.171   0.565
 5728TIP3    H117148   0.397   3.226   0.567
 5728TIP3    H217149   0.299   3.155   0.657
 5729TIP3   OH217150   3.170   2.491   5.693
 5729TIP3    H117151   3.194   2.402   5.668
 5729TIP3    H217152   3.119   2.524   5.618
 5730TIP3   OH217153   3.560   4.789   1.325
 5730TIP3    H117154   3.488   4.751   1.275
 5730TIP3    H217155   3.638   4.742   1.296
 5731TIP3   OH217156   6.582   6.453   2.196
 5731TIP3    H117157   6.582   6.357   2.188
 5731TIP3    H217158   6.506   6.472   2.251
 5732TIP3   OH217159   7.014   3.372   5.474
 5732TIP3    H117160   7.004   3.326   5.557
 5732TIP3    H217161   6.945   3.439   5.476
 5733TIP3   OH217162   2.352   5.066   4.698
 5733TIP3    H117163   2.259   5.089   4.691
 5733TIP3    H217164   2.352   4.971   4.713
 5734TIP3   OH217165   4.982   3.730   5.042
 5734TIP3    H117166   5.042   3.767   5.108
 5734TIP3    H217167   5.037   3.671   4.991
 5735TIP3   OH217168   2.401   6.394   5.270
 5735TIP3    H117169   2.427   6.305   5.244
 5735TIP3    H217170   2.481   6.432   5.307
 5736TIP3   OH217171   3.979   0.833   1.177
 5736TIP3    H117172   3.898   0.784   1.164
 5736TIP3    H217173   3.970   0.909   1.119
 5737TIP3   OH217174   3.535   4.097   0.201
 5737TIP3    H117175   3.607   4.152   0.232
 5737TIP3    H217176   3.578   4.021   0.162
 5738TIP3   OH217177   3.392   1.612   5.035
 5738TIP3    H117178   3.441   1.676   4.984
 5738TIP3    H217179   3.436   1.611   5.120
 5739TIP3   OH217180   1.849   1.976   3.503
 5739TIP3    H117181   1.897   1.937   3.576
 5739TIP3    H217182   1.815   2.058   3.538
 5740TIP3   OH217183   3.404   2.679   5.134
 5740TIP3    H117184   3.492   2.672   5.097
 5740TIP3    H217185   3.409   2.755   5.193
 5741TIP3   OH217186   2.703   5.974   4.460
 5741TIP3    H117187   2.774   5.986   4.397
 5741TIP3    H217188   2.736   6.016   4.540
 5742TIP3   OH217189   0.129   5.417   1.937
 5742TIP3    H117190   0.099   5.402   1.848
 5742TIP3    H217191   0.049   5.436   1.986
 5743TIP3   OH217192   3.523   5.974   2.870
 5743TIP3    H117193   3.612   5.967   2.905
 5743TIP3    H217194   3.525   6.053   2.816
 5744TIP3   OH217195   1.388   2.869   5.219
 5744TIP3    H117196   1.433   2.794   5.179
 5744TIP3    H217197   1.409   2.861   5.312
 5745TIP3   OH217198   1.159   5.592   0.336
 5745TIP3    H117199   1.101   5.526   0.297
 5745TIP3    H217200   1.114   5.619   0.416
 5746TIP3   OH217201   7.134   1.066   1.701
 5746TIP3    H117202   7.214   1.018   1.681
 5746TIP3    H217203   7.126   1.130   1.631
 5747TIP3   OH217204   2.802   6.511   2.304
 5747TIP3    H117205   2.804   6.417   2.321
 5747TIP3    H217206   2.892   6.534   2.282
 5748TIP3   OH217207   3.989   5.921   0.690
 5748TIP3    H117208   4.074   5.878   0.684
 5748TIP3    H217209   3.926   5.854   0.660
 5749TIP3   OH217210   5.441   0.741   2.824
 5749TIP3    H117211   5.498   0.810   2.857
 5749TIP3    H217212   5.424   0.685   2.900
 5750TIP3   OH217213   1.876   3.732   4.591
 5750TIP3    H117214   1.965   3.753   4.617
 5750TIP3    H217215   1.864   3.640   4.617
 5751TIP3   OH217216   0.362   4.818   1.152
 5751TIP3    H117217   0.414   4.776   1.221
 5751TIP3    H217218   0.342   4.748   1.091
 5752TIP3   OH217219   3.163   4.876   1.183
 5752TIP3    H117220   3.120   4.809   1.130
 5752TIP3    H217221   3.095   4.907   1.243
 5753TIP3   OH217222   3.280   4.103   0.392
 5753TIP3    H117223   3.197   4.090   0.345
 5753TIP3    H217224   3.348   4.087   0.327
 5754TIP3   OH217225   0.572   1.661   5.458
 5754TIP3    H117226   0.656   1.687   5.422
 5754TIP3    H217227   0.590   1.579   5.505
 5755TIP3   OH217228   2.475   3.893   5.367
 5755TIP3    H117229   2.492   3.987   5.378
 5755TIP3    H217230   2.398   3.876   5.421
 5756TIP3   OH217231   1.048   6.814   5.572
 5756TIP3    H117232   0.978   6.834   5.634
 5756TIP3    H217233   1.128   6.840   5.616
 5757TIP3   OH217234   3.175   0.290   5.279
 5757TIP3    H117235   3.170   0.284   5.183
 5757TIP3    H217236   3.235   0.363   5.295
 5758TIP3   OH217237   1.919   1.515   3.747
 5758TIP3    H117238   1.901   1.607   3.769
 5758TIP3    H217239   1.921   1.471   3.832
 5759TIP3   OH217240   0.644   3.197   4.959
 5759TIP3    H117241   0.568   3.255   4.963
 5759TIP3    H217242   0.622   3.133   4.891
 5760TIP3   OH217243   3.142   5.691   3.367
 5760TIP3    H117244   3.088   5.679   3.289
 5760TIP3    H217245   3.090   5.653   3.438
 5761TIP3   OH217246   5.930   5.931   5.565
 5761TIP3    H117247   5.968   5.969   5.644
 5761TIP3    H217248   5.836   5.929   5.582
 5762TIP3   OH217249   6.704   6.689   2.950
 5762TIP3    H117250   6.782   6.652   2.992
 5762TIP3    H217251   6.705   6.781   2.975
 5763TIP3   OH217252   1.121   5.451   4.547
 5763TIP3    H117253   1.101   5.385   4.481
 5763TIP3    H217254   1.043   5.508   4.548
 5764TIP3   OH217255   0.846   1.496   0.025
 5764TIP3    H117256   0.922   1.477   0.079
 5764TIP3    H217257   0.817   1.582   0.055
 5765TIP3   OH217258   4.501   0.189   0.023
 5765TIP3    H117259   4.415   0.230   0.010
 5765TIP3    H217260   4.508   0.178   0.118
 5766TIP3   OH217261   2.791   3.775   5.884
 5766TIP3    H117262   2.810   3.753   5.793
 5766TIP3    H217263   2.729   3.847   5.879
 5767TIP3   OH217264   0.007   3.417   4.587
 5767TIP3    H117265  -0.026   3.329   4.604
 5767TIP3    H217266   0.036   3.415   4.496
 5768TIP3   OH217267   2.801   4.961   4.043
 5768TIP3    H117268   2.789   4.999   3.956
 5768TIP3    H217269   2.714   4.963   4.082
 5769TIP3   OH217270   6.248   4.322   5.335
 5769TIP3    H117271   6.262   4.328   5.240
 5769TIP3    H217272   6.303   4.391   5.372
 5770TIP3   OH217273   5.824   3.819   5.658
 5770TIP3    H117274   5.795   3.754   5.723
 5770TIP3    H217275   5.917   3.831   5.675
 5771TIP3   OH217276   5.839   3.308   4.070
 5771TIP3    H117277   5.853   3.316   3.976
 5771TIP3    H217278   5.917   3.262   4.102
 5772TIP3   OH217279   2.733   5.134   3.523
 5772TIP3    H117280   2.817   5.093   3.503
 5772TIP3    H217281   2.706   5.175   3.442
 5773TIP3   OH217282   5.051   3.640   2.739
 5773TIP3    H117283   5.047   3.544   2.739
 5773TIP3    H217284   4.977   3.667   2.684
 5774TIP3   OH217285   0.910   2.434   3.295
 5774TIP3    H117286   0.823   2.425   3.257
 5774TIP3    H217287   0.893   2.461   3.386
 5775TIP3   OH217288   4.845   0.708   3.375
 5775TIP3    H117289   4.929   0.722   3.332
 5775TIP3    H217290   4.851   0.620   3.413
 5776TIP3   OH217291   0.282   5.291   5.318
 5776TIP3    H117292   0.325   5.210   5.291
 5776TIP3    H217293   0.269   5.281   5.412
 5777TIP3   OH217294   3.867   1.481   4.024
 5777TIP3    H117295   3.819   1.563   4.013
 5777TIP3    H217296   3.873   1.470   4.119
 5778TIP3   OH217297   2.150   1.956   0.182
 5778TIP3    H117298   2.154   1.864   0.210
 5778TIP3    H217299   2.060   1.983   0.202
 5779TIP3   OH217300   5.677   0.696   0.617
 5779TIP3    H117301   5.690   0.639   0.541
 5779TIP3    H217302   5.703   0.783   0.587
 5780TIP3   OH217303   3.807   4.328   0.423
 5780TIP3    H117304   3.819   4.249   0.370
 5780TIP3    H217305   3.726   4.367   0.389
 5781TIP3   OH217306   1.325   1.270   5.539
 5781TIP3    H117307   1.268   1.307   5.471
 5781TIP3    H217308   1.389   1.218   5.490
 5782TIP3   OH217309   3.292   3.613   0.822
 5782TIP3    H117310   3.358   3.582   0.761
 5782TIP3    H217311   3.273   3.537   0.878
 5783TIP3   OH217312   6.540   0.978   5.496
 5783TIP3    H117313   6.472   1.007   5.557
 5783TIP3    H217314   6.620   0.974   5.549
 5784TIP3   OH217315   1.491   3.525   2.268
 5784TIP3    H117316   1.566   3.535   2.326
 5784TIP3    H217317   1.444   3.608   2.275
 5785TIP3   OH217318   1.648   2.709   1.081
 5785TIP3    H117319   1.597   2.768   1.136
 5785TIP3    H217320   1.738   2.716   1.114
 5786TIP3   OH217321   3.459   5.087   2.234
 5786TIP3    H117322   3.435   5.177   2.210
 5786TIP3    H217323   3.442   5.037   2.154
 5787TIP3   OH217324   2.476   4.239   0.500
 5787TIP3    H117325   2.474   4.328   0.467
 5787TIP3    H217326   2.417   4.190   0.443
 5788TIP3   OH217327   5.922   0.458   0.078
 5788TIP3    H117328   5.896   0.544   0.108
 5788TIP3    H217329   5.991   0.475   0.013
 5789TIP3   OH217330   4.159   4.197   0.094
 5789TIP3    H117331   4.130   4.119   0.140
 5789TIP3    H217332   4.079   4.245   0.075
 5790TIP3   OH217333   1.708   1.434   1.038
 5790TIP3    H117334   1.664   1.489   0.972
 5790TIP3    H217335   1.691   1.479   1.121
 5791TIP3   OH217336   5.974   1.441   4.971
 5791TIP3    H117337   6.024   1.432   4.891
 5791TIP3    H217338   6.039   1.466   5.037
 5792TIP3   OH217339   0.601   1.479   4.350
 5792TIP3    H117340   0.597   1.561   4.301
 5792TIP3    H217341   0.656   1.422   4.296
 5793TIP3   OH217342   7.199   5.252   3.745
 5793TIP3    H117343   7.198   5.331   3.692
 5793TIP3    H217344   7.121   5.204   3.717
 5794TIP3   OH217345   4.505   4.353   3.939
 5794TIP3    H117346   4.410   4.339   3.946
 5794TIP3    H217347   4.540   4.319   4.022
 5795TIP3   OH217348   4.452   5.236   3.183
 5795TIP3    H117349   4.414   5.247   3.270
 5795TIP3    H217350   4.534   5.285   3.187
 5796TIP3   OH217351   3.767   1.019   5.595
 5796TIP3    H117352   3.862   1.020   5.605
 5796TIP3    H217353   3.752   1.043   5.504
 5797TIP3   OH217354   0.887   0.054   4.343
 5797TIP3    H117355   0.872   0.148   4.356
 5797TIP3    H217356   0.919   0.048   4.253
 5798TIP3   OH217357   1.484   6.446   0.435
 5798TIP3    H117358   1.420   6.455   0.364
 5798TIP3    H217359   1.486   6.532   0.477
 5799TIP3   OH217360   0.541   0.824   4.785
 5799TIP3    H117361   0.630   0.816   4.752
 5799TIP3    H217362   0.533   0.753   4.850
 5800TIP3   OH217363   1.397   6.287   3.026
 5800TIP3    H117364   1.445   6.233   3.089
 5800TIP3    H217365   1.409   6.376   3.059
 5801TIP3   OH217366   0.770   1.285   2.824
 5801TIP3    H117367   0.778   1.293   2.729
 5801TIP3    H217368   0.827   1.212   2.847
 5802TIP3   OH217369   3.373   5.536   1.202
 5802TIP3    H117370   3.370   5.467   1.135
 5802TIP3    H217371   3.463   5.566   1.202
 5803TIP3   OH217372   0.248   1.445   2.278
 5803TIP3    H117373   0.272   1.377   2.340
 5803TIP3    H217374   0.193   1.505   2.329
 5804TIP3   OH217375   2.364   6.532   3.681
 5804TIP3    H117376   2.386   6.481   3.602
 5804TIP3    H217377   2.271   6.552   3.671
 5805TIP3   OH217378   2.479   6.452   4.612
 5805TIP3    H117379   2.565   6.445   4.572
 5805TIP3    H217380   2.478   6.539   4.652
 5806TIP3   OH217381   6.782   1.610   1.092
 5806TIP3    H117382   6.814   1.693   1.128
 5806TIP3    H217383   6.839   1.594   1.016
 5807TIP3   OH217384   1.811   3.472   4.611
 5807TIP3    H117385   1.886   3.415   4.631
 5807TIP3    H217386   1.741   3.439   4.667
 5808TIP3   OH217387   7.002   5.600   2.738
 5808TIP3    H117388   6.937   5.586   2.668
 5808TIP3    H217389   7.033   5.513   2.759
 5809TIP3   OH217390   0.139   4.884   0.087
 5809TIP3    H117391   0.181   4.839   0.014
 5809TIP3    H217392   0.130   4.817   0.155
 5810TIP3   OH217393   0.643   0.550   2.176
 5810TIP3    H117394   0.552   0.543   2.203
 5810TIP3    H217395   0.641   0.602   2.096
 5811TIP3   OH217396   6.587   3.428   5.683
 5811TIP3    H117397   6.519   3.390   5.627
 5811TIP3    H217398   6.649   3.357   5.697
 5812TIP3   OH217399   6.780   1.378   5.401
 5812TIP3    H117400   6.796   1.391   5.495
 5812TIP3    H217401   6.689   1.405   5.389
 5813TIP3   OH217402   3.066   3.337   3.098
 5813TIP3    H117403   3.063   3.242   3.083
 5813TIP3    H217404   3.160   3.358   3.096
 5814TIP3   OH217405   5.972   5.208   2.044
 5814TIP3    H117406   5.931   5.150   2.109
 5814TIP3    H217407   5.899   5.259   2.008
 5815TIP3   OH217408   4.305   6.764   1.526
 5815TIP3    H117409   4.274   6.677   1.551
 5815TIP3    H217410   4.228   6.806   1.487
 5816TIP3   OH217411   2.971   0.175   1.444
 5816TIP3    H117412   2.959   0.083   1.470
 5816TIP3    H217413   2.960   0.224   1.525
 5817TIP3   OH217414   0.621   0.431   0.117
 5817TIP3    H117415   0.685   0.363   0.094
 5817TIP3    H217416   0.540   0.403   0.074
 5818TIP3   OH217417   0.058   5.112   5.090
 5818TIP3    H117418   0.144   5.150   5.075
 5818TIP3    H217419   0.072   5.050   5.162
 5819TIP3   OH217420   3.878   2.174   2.633
 5819TIP3    H117421   3.844   2.092   2.597
 5819TIP3    H217422   3.961   2.188   2.587
 5820TIP3   OH217423   7.030   4.947   0.030
 5820TIP3    H117424   7.063   4.871   0.077
 5820TIP3    H217425   6.941   4.921   0.004
 5821TIP3   OH217426   5.730   2.756   4.544
 5821TIP3    H117427   5.728   2.682   4.483
 5821TIP3    H217428   5.638   2.780   4.555
 5822TIP3   OH217429   7.036   0.744   0.418
 5822TIP3    H117430   7.082   0.674   0.371
 5822TIP3    H217431   6.973   0.777   0.354
 5823TIP3   OH217432   1.788   3.937   3.706
 5823TIP3    H117433   1.716   3.884   3.672
 5823TIP3    H217434   1.769   3.947   3.799
 5824TIP3   OH217435   6.824   2.120   5.117
 5824TIP3    H117436   6.740   2.097   5.156
 5824TIP3    H217437   6.857   2.039   5.080
 5825TIP3   OH217438   2.236   6.039   0.959
 5825TIP3    H117439   2.297   6.072   1.026
 5825TIP3    H217440   2.196   6.118   0.923
 5826TIP3   OH217441   3.285   1.985   2.670
 5826TIP3    H117442   3.279   2.072   2.629
 5826TIP3    H217443   3.196   1.967   2.699
 5827TIP3   OH217444   3.244   0.782   2.564
 5827TIP3    H117445   3.328   0.827   2.556
 5827TIP3    H217446   3.206   0.786   2.476
 5828TIP3   OH217447   1.326   3.016   3.044
 5828TIP3    H117448   1.349   3.005   3.137
 5828TIP3    H217449   1.230   3.026   3.044
 5829TIP3   OH217450   6.180   3.501   4.777
 5829TIP3    H117451   6.178   3.448   4.857
 5829TIP3    H217452   6.094   3.488   4.737
 5830TIP3   OH217453   2.443   1.238   5.132
 5830TIP3    H117454   2.515   1.297   5.109
 5830TIP3    H217455   2.378   1.251   5.062
 5831TIP3   OH217456   1.256   2.161   1.754
 5831TIP3    H117457   1.258   2.250   1.719
 5831TIP3    H217458   1.178   2.122   1.714
 5832TIP3   OH217459   7.040   4.959   3.399
 5832TIP3    H117460   6.970   5.016   3.432
 5832TIP3    H217461   7.112   5.020   3.381
 5833TIP3   OH217462   2.828   1.121   4.870
 5833TIP3    H117463   2.762   1.114   4.800
 5833TIP3    H217464   2.912   1.122   4.824
 5834TIP3   OH217465   3.728   0.121   3.804
 5834TIP3    H117466   3.712   0.197   3.749
 5834TIP3    H217467   3.818   0.095   3.783
 5835TIP3   OH217468   6.584   5.339   3.519
 5835TIP3    H117469   6.557   5.266   3.574
 5835TIP3    H217470   6.659   5.377   3.564
 5836TIP3   OH217471   2.161   1.729   1.523
 5836TIP3    H117472   2.156   1.779   1.441
 5836TIP3    H217473   2.117   1.784   1.587
 5837TIP3   OH217474   6.589   0.863   4.734
 5837TIP3    H117475   6.620   0.801   4.667
 5837TIP3    H217476   6.610   0.821   4.817
 5838TIP3   OH217477   3.392   3.808   3.890
 5838TIP3    H117478   3.342   3.756   3.953
 5838TIP3    H217479   3.484   3.789   3.909
 5839TIP3   OH217480   1.153   3.980   3.329
 5839TIP3    H117481   1.095   3.938   3.265
 5839TIP3    H217482   1.094   4.025   3.390
 5840TIP3   OH217483   1.281   6.802   5.309
 5840TIP3    H117484   1.267   6.896   5.298
 5840TIP3    H217485   1.220   6.777   5.379
 5841TIP3   OH217486   4.204   2.444   2.555
 5841TIP3    H117487   4.237   2.521   2.509
 5841TIP3    H217488   4.127   2.475   2.602
 5842TIP3   OH217489   0.732   6.539   5.773
 5842TIP3    H117490   0.715   6.453   5.810
 5842TIP3    H217491   0.793   6.580   5.835
 5843TIP3   OH217492   5.116   1.641   3.225
 5843TIP3    H117493   5.168   1.672   3.152
 5843TIP3    H217494   5.044   1.703   3.232
 5844TIP3   OH217495   3.157   4.614   4.269
 5844TIP3    H117496   3.227   4.627   4.206
 5844TIP3    H217497   3.199   4.572   4.344
 5845TIP3   OH217498   4.670   4.936   5.506
 5845TIP3    H117499   4.577   4.960   5.510
 5845TIP3    H217500   4.705   4.961   5.591
 5846TIP3   OH217501   0.559   0.262   2.956
 5846TIP3    H117502   0.557   0.173   2.922
 5846TIP3    H217503   0.632   0.304   2.910
 5847TIP3   OH217504   3.455   5.931   0.140
 5847TIP3    H117505   3.511   5.856   0.160
 5847TIP3    H217506   3.392   5.934   0.212
 5848TIP3   OH217507   6.245   0.314   3.230
 5848TIP3    H117508   6.195   0.365   3.166
 5848TIP3    H217509   6.261   0.376   3.302
 5849TIP3   OH217510   6.770   2.735   1.131
 5849TIP3    H117511   6.690   2.684   1.149
 5849TIP3    H217512   6.842   2.677   1.156
 5850TIP3   OH217513   0.292   4.930   3.623
 5850TIP3    H117514   0.276   5.009   3.570
 5850TIP3    H217515   0.249   4.948   3.706
 5851TIP3   OH217516   3.180   3.782   0.487
 5851TIP3    H117517   3.177   3.690   0.510
 5851TIP3    H217518   3.269   3.810   0.509
 5852TIP3   OH217519   0.866   5.908   2.049
 5852TIP3    H117520   0.814   5.868   2.118
 5852TIP3    H217521   0.939   5.949   2.095
 5853TIP3   OH217522   1.348   2.851   0.179
 5853TIP3    H117523   1.420   2.788   0.181
 5853TIP3    H217524   1.280   2.807   0.128
 5854TIP3   OH217525   3.282   1.258   4.078
 5854TIP3    H117526   3.237   1.181   4.111
 5854TIP3    H217527   3.309   1.233   3.990
 5855TIP3   OH217528   2.625   0.418   2.111
 5855TIP3    H117529   2.606   0.332   2.074
 5855TIP3    H217530   2.560   0.476   2.071
 5856TIP3   OH217531   5.581   2.375   0.509
 5856TIP3    H117532   5.649   2.327   0.556
 5856TIP3    H217533   5.606   2.366   0.416
 5857TIP3   OH217534   2.343   3.749   2.821
 5857TIP3    H117535   2.346   3.843   2.838
 5857TIP3    H217536   2.251   3.730   2.804
 5858TIP3   OH217537   6.667   1.444   4.996
 5858TIP3    H117538   6.604   1.391   5.045
 5858TIP3    H217539   6.691   1.515   5.055
 5859TIP3   OH217540   0.218   4.348   4.810
 5859TIP3    H117541   0.215   4.279   4.743
 5859TIP3    H217542   0.127   4.359   4.838
 5860TIP3   OH217543   2.957   2.719   4.060
 5860TIP3    H117544   2.879   2.713   4.006
 5860TIP3    H217545   3.011   2.644   4.033
 5861TIP3   OH217546   3.556   3.095   3.977
 5861TIP3    H117547   3.566   3.172   4.034
 5861TIP3    H217548   3.596   3.024   4.027
 5862TIP3   OH217549   4.481   0.892   2.000
 5862TIP3    H117550   4.553   0.842   1.962
 5862TIP3    H217551   4.472   0.969   1.943
 5863TIP3   OH217552   6.595   5.669   2.391
 5863TIP3    H117553   6.639   5.671   2.306
 5863TIP3    H217554   6.579   5.760   2.412
 5864TIP3   OH217555   4.121   3.124   4.237
 5864TIP3    H117556   4.033   3.151   4.213
 5864TIP3    H217557   4.110   3.077   4.320
 5865TIP3   OH217558   4.439   6.341   0.942
 5865TIP3    H117559   4.510   6.360   0.882
 5865TIP3    H217560   4.457   6.395   1.019
 5866TIP3   OH217561   1.179   4.172   3.655
 5866TIP3    H117562   1.238   4.109   3.696
 5866TIP3    H217563   1.226   4.256   3.662
 5867TIP3   OH217564   2.766   5.840   0.942
 5867TIP3    H117565   2.704   5.904   0.977
 5867TIP3    H217566   2.754   5.845   0.847
 5868TIP3   OH217567   6.384   5.089   3.798
 5868TIP3    H117568   6.331   5.151   3.748
 5868TIP3    H217569   6.338   5.079   3.881
 5869TIP3   OH217570   4.572   6.326   4.166
 5869TIP3    H117571   4.651   6.371   4.197
 5869TIP3    H217572   4.500   6.380   4.197
 5870TIP3   OH217573   3.587   6.476   3.735
 5870TIP3    H117574   3.567   6.383   3.751
 5870TIP3    H217575   3.555   6.493   3.647
 5871TIP3   OH217576   0.973   4.477   1.563
 5871TIP3    H117577   0.929   4.526   1.494
 5871TIP3    H217578   1.002   4.544   1.625
 5872TIP3   OH217579   3.667   6.667   4.328
 5872TIP3    H117580   3.701   6.698   4.244
 5872TIP3    H217581   3.655   6.746   4.380
 5873TIP3   OH217582   2.424   4.120   5.129
 5873TIP3    H117583   2.403   4.134   5.222
 5873TIP3    H217584   2.448   4.207   5.096
 5874TIP3   OH217585   0.626   2.884   0.472
 5874TIP3    H117586   0.647   2.929   0.390
 5874TIP3    H217587   0.692   2.916   0.534
 5875TIP3   OH217588   3.190   3.133   0.656
 5875TIP3    H117589   3.248   3.196   0.700
 5875TIP3    H217590   3.212   3.142   0.563
 5876TIP3   OH217591   6.086   3.123   1.037
 5876TIP3    H117592   6.097   3.215   1.061
 5876TIP3    H217593   5.992   3.107   1.044
 5877TIP3   OH217594   0.481   5.977   0.921
 5877TIP3    H117595   0.490   6.072   0.910
 5877TIP3    H217596   0.404   5.967   0.978
 5878TIP3   OH217597   6.570   3.703   0.477
 5878TIP3    H117598   6.647   3.646   0.479
 5878TIP3    H217599   6.587   3.763   0.404
 5879TIP3   OH217600   0.504   1.253   3.306
 5879TIP3    H117601   0.495   1.165   3.342
 5879TIP3    H217602   0.572   1.245   3.239
 5880TIP3   OH217603   0.641   4.924   5.437
 5880TIP3    H117604   0.714   4.937   5.376
 5880TIP3    H217605   0.664   4.844   5.485
 5881TIP3   OH217606   4.470   6.064   5.509
 5881TIP3    H117607   4.408   6.013   5.561
 5881TIP3    H217608   4.533   5.999   5.476
 5882TIP3   OH217609   1.012   0.561   2.892
 5882TIP3    H117610   1.096   0.521   2.868
 5882TIP3    H217611   1.027   0.598   2.979
 5883TIP3   OH217612   2.442   4.727   2.550
 5883TIP3    H117613   2.480   4.682   2.626
 5883TIP3    H217614   2.348   4.713   2.560
 5884TIP3   OH217615   4.421   4.058   2.041
 5884TIP3    H117616   4.455   4.133   1.992
 5884TIP3    H217617   4.497   4.000   2.052
 5885TIP3   OH217618   0.552   4.279   4.210
 5885TIP3    H117619   0.517   4.346   4.269
 5885TIP3    H217620   0.539   4.315   4.123
 5886TIP3   OH217621   1.977   5.116   0.173
 5886TIP3    H117622   1.973   5.198   0.124
 5886TIP3    H217623   2.023   5.056   0.114
 5887TIP3   OH217624   2.525   3.111   4.581
 5887TIP3    H117625   2.477   3.128   4.662
 5887TIP3    H217626   2.616   3.127   4.602
 5888TIP3   OH217627   1.680   5.051   3.533
 5888TIP3    H117628   1.713   4.963   3.515
 5888TIP3    H217629   1.589   5.039   3.558
 5889TIP3   OH217630   6.259   3.018   4.607
 5889TIP3    H117631   6.206   2.963   4.665
 5889TIP3    H217632   6.248   2.977   4.521
 5890TIP3   OH217633   7.131   6.576   4.485
 5890TIP3    H117634   7.110   6.527   4.565
 5890TIP3    H217635   7.225   6.563   4.472
 5891TIP3   OH217636   4.878   1.784   2.900
 5891TIP3    H117637   4.826   1.719   2.852
 5891TIP3    H217638   4.967   1.771   2.867
 5892TIP3   OH217639   1.974   3.718   5.191
 5892TIP3    H117640   2.000   3.725   5.282
 5892TIP3    H217641   1.998   3.628   5.166
 5893TIP3   OH217642   6.285   5.173   4.370
 5893TIP3    H117643   6.190   5.161   4.373
 5893TIP3    H217644   6.319   5.109   4.433
 5894TIP3   OH217645   0.884   2.589   4.871
 5894TIP3    H117646   0.827   2.658   4.837
 5894TIP3    H217647   0.862   2.582   4.964
 5895TIP3   OH217648   1.568   5.329   1.664
 5895TIP3    H117649   1.604   5.396   1.606
 5895TIP3    H217650   1.641   5.269   1.680
 5896TIP3   OH217651   3.874   3.122   4.088
 5896TIP3    H117652   3.788   3.141   4.052
 5896TIP3    H217653   3.935   3.173   4.034
 5897TIP3   OH217654   0.512   3.766   2.692
 5897TIP3    H117655   0.557   3.728   2.617
 5897TIP3    H217656   0.519   3.861   2.678
 5898TIP3   OH217657   6.181   5.988   1.707
 5898TIP3    H117658   6.125   6.043   1.762
 5898TIP3    H217659   6.179   6.029   1.621
 5899TIP3   OH217660   7.094   6.744   4.258
 5899TIP3    H117661   7.111   6.653   4.282
 5899TIP3    H217662   7.176   6.790   4.276
 5900TIP3   OH217663   2.634   2.727   1.523
 5900TIP3    H117664   2.700   2.797   1.521
 5900TIP3    H217665   2.651   2.680   1.604
 5901TIP3   OH217666   1.778   4.619   2.349
 5901TIP3    H117667   1.698   4.647   2.394
 5901TIP3    H217668   1.747   4.556   2.284
 5902TIP3   OH217669   0.549   6.242   0.901
 5902TIP3    H117670   0.602   6.299   0.957
 5902TIP3    H217671   0.503   6.303   0.842
 5903TIP3   OH217672   4.179   3.282   3.322
 5903TIP3    H117673   4.243   3.229   3.276
 5903TIP3    H217674   4.111   3.300   3.258
 5904TIP3   OH217675   6.989   4.375   0.321
 5904TIP3    H117676   6.949   4.451   0.365
 5904TIP3    H217677   7.079   4.374   0.353
 5905TIP3   OH217678   3.242   4.038   5.462
 5905TIP3    H117679   3.162   4.083   5.437
 5905TIP3    H217680   3.312   4.085   5.417
 5906TIP3   OH217681   6.881   1.479   2.176
 5906TIP3    H117682   6.971   1.449   2.169
 5906TIP3    H217683   6.871   1.542   2.105
 5907TIP3   OH217684   1.994   1.031   1.485
 5907TIP3    H117685   2.022   0.978   1.559
 5907TIP3    H217686   1.961   1.112   1.525
 5908TIP3   OH217687   3.013   1.771   1.407
 5908TIP3    H117688   3.031   1.805   1.320
 5908TIP3    H217689   3.090   1.794   1.459
 5909TIP3   OH217690   4.207   1.661   0.425
 5909TIP3    H117691   4.290   1.709   0.435
 5909TIP3    H217692   4.185   1.632   0.513
 5910TIP3   OH217693   4.114   6.090   2.278
 5910TIP3    H117694   4.190   6.035   2.300
 5910TIP3    H217695   4.062   6.036   2.219
 5911TIP3   OH217696   4.649   5.403   0.670
 5911TIP3    H117697   4.621   5.328   0.617
 5911TIP3    H217698   4.583   5.409   0.740
 5912TIP3   OH217699   6.964   4.867   4.897
 5912TIP3    H117700   6.894   4.931   4.908
 5912TIP3    H217701   7.045   4.918   4.899
 5913TIP3   OH217702   6.603   2.007   3.849
 5913TIP3    H117703   6.552   2.060   3.911
 5913TIP3    H217704   6.654   1.948   3.904
 5914TIP3   OH217705   6.964   2.324   5.220
 5914TIP3    H117706   6.916   2.243   5.202
 5914TIP3    H217707   7.046   2.295   5.260
 5915TIP3   OH217708   1.734   6.445   3.550
 5915TIP3    H117709   1.662   6.438   3.613
 5915TIP3    H217710   1.693   6.428   3.465
 5916TIP3   OH217711   2.695   6.572   4.273
 5916TIP3    H117712   2.704   6.650   4.217
 5916TIP3    H217713   2.645   6.603   4.349
 5917TIP3   OH217714   1.917   6.042   2.893
 5917TIP3    H117715   1.827   6.070   2.880
 5917TIP3    H217716   1.970   6.119   2.873
 5918TIP3   OH217717   6.630   5.583   0.941
 5918TIP3    H117718   6.722   5.568   0.920
 5918TIP3    H217719   6.594   5.496   0.959
 5919TIP3   OH217720   0.877   4.266   1.693
 5919TIP3    H117721   0.907   4.350   1.658
 5919TIP3    H217722   0.879   4.207   1.618
 5920TIP3   OH217723   0.335   0.472   3.300
 5920TIP3    H117724   0.287   0.436   3.375
 5920TIP3    H217725   0.308   0.564   3.297
 5921TIP3   OH217726   5.840   1.849   0.624
 5921TIP3    H117727   5.819   1.899   0.703
 5921TIP3    H217728   5.929   1.876   0.602
 5922TIP3   OH217729   2.547   5.041   2.401
 5922TIP3    H117730   2.497   5.007   2.326
 5922TIP3    H217731   2.629   4.991   2.398
 5923TIP3   OH217732   5.445   6.161   3.711
 5923TIP3    H117733   5.472   6.250   3.688
 5923TIP3    H217734   5.518   6.106   3.684
 5924TIP3   OH217735   3.239   0.019   4.573
 5924TIP3    H117736   3.179   0.032   4.647
 5924TIP3    H217737   3.183  -0.006   4.500
 5925TIP3   OH217738   3.825   2.520   0.962
 5925TIP3    H117739   3.850   2.428   0.966
 5925TIP3    H217740   3.876   2.563   1.031
 5926TIP3   OH217741   5.020   0.332   0.405
 5926TIP3    H117742   5.048   0.324   0.314
 5926TIP3    H217743   4.970   0.253   0.422
 5927TIP3   OH217744   4.921   5.346   5.846
 5927TIP3    H117745   4.935   5.419   5.786
 5927TIP3    H217746   5.009   5.326   5.879
 5928TIP3   OH217747   3.358   1.678   1.699
 5928TIP3    H117748   3.312   1.659   1.618
 5928TIP3    H217749   3.380   1.771   1.694
 5929TIP3   OH217750   4.458   5.659   5.736
 5929TIP3    H117751   4.537   5.637   5.785
 5929TIP3    H217752   4.455   5.595   5.665
 5930TIP3   OH217753   1.345   5.170   0.150
 5930TIP3    H117754   1.286   5.191   0.077
 5930TIP3    H217755   1.290   5.177   0.228
 5931TIP3   OH217756   5.340   5.345   1.842
 5931TIP3    H117757   5.397   5.389   1.906
 5931TIP3    H217758   5.355   5.251   1.858
 5932TIP3   OH217759   6.577   6.439   2.876
 5932TIP3    H117760   6.620   6.385   2.943
 5932TIP3    H217761   6.628   6.521   2.876
 5933TIP3   OH217762   1.942   1.332   0.993
 5933TIP3    H117763   1.942   1.257   1.051
 5933TIP3    H217764   1.854   1.370   1.003
 5934TIP3   OH217765   0.473   0.239   3.217
 5934TIP3    H117766   0.421   0.304   3.264
 5934TIP3    H217767   0.449   0.250   3.125
 5935TIP3   OH217768   4.191   0.506   4.448
 5935TIP3    H117769   4.185   0.521   4.543
 5935TIP3    H217770   4.100   0.508   4.418
 5936TIP3   OH217771   3.302   4.108   0.916
 5936TIP3    H117772   3.311   4.082   0.825
 5936TIP3    H217773   3.371   4.174   0.930
 5937TIP3   OH217774   4.495   4.494   4.944
 5937TIP3    H117775   4.541   4.423   4.989
 5937TIP3    H217776   4.474   4.556   5.013
 5938TIP3   OH217777   6.594   0.705   2.013
 5938TIP3    H117778   6.677   0.726   2.055
 5938TIP3    H217779   6.609   0.723   1.920
 5939TIP3   OH217780   4.207   2.058   2.756
 5939TIP3    H117781   4.179   2.049   2.847
 5939TIP3    H217782   4.233   1.970   2.730
 5940TIP3   OH217783   6.670   5.198   0.214
 5940TIP3    H117784   6.633   5.280   0.182
 5940TIP3    H217785   6.662   5.202   0.309
 5941TIP3   OH217786   1.324   5.519   1.696
 5941TIP3    H117787   1.365   5.560   1.772
 5941TIP3    H217788   1.395   5.506   1.634
 5942TIP3   OH217789   0.844   0.550   3.942
 5942TIP3    H117790   0.864   0.537   3.850
 5942TIP3    H217791   0.917   0.604   3.974
 5943TIP3   OH217792   7.153   4.831   0.309
 5943TIP3    H117793   7.196   4.916   0.301
 5943TIP3    H217794   7.162   4.809   0.402
 5944TIP3   OH217795   4.661   0.591   1.040
 5944TIP3    H117796   4.692   0.654   1.104
 5944TIP3    H217797   4.579   0.628   1.007
 5945TIP3   OH217798   0.597   6.233   3.434
 5945TIP3    H117799   0.566   6.178   3.361
 5945TIP3    H217800   0.644   6.172   3.491
 5946TIP3   OH217801   2.951   2.300   4.503
 5946TIP3    H117802   3.017   2.329   4.439
 5946TIP3    H217803   2.921   2.380   4.545
 5947TIP3   OH217804   4.902   0.500   2.660
 5947TIP3    H117805   4.976   0.451   2.695
 5947TIP3    H217806   4.941   0.573   2.612
 5948TIP3   OH217807   6.347   4.492   2.133
 5948TIP3    H117808   6.303   4.428   2.189
 5948TIP3    H217809   6.333   4.460   2.044
 5949TIP3   OH217810   0.054   3.504   1.631
 5949TIP3    H117811   0.038   3.485   1.538
 5949TIP3    H217812  -0.033   3.525   1.666
 5950TIP3   OH217813   1.294   0.801   0.993
 5950TIP3    H117814   1.335   0.773   1.075
 5950TIP3    H217815   1.329   0.888   0.977
 5951TIP3   OH217816   3.951   5.226   3.159
 5951TIP3    H117817   3.869   5.245   3.203
 5951TIP3    H217818   4.010   5.195   3.228
 5952TIP3   OH217819   5.231   1.774   3.566
 5952TIP3    H117820   5.318   1.766   3.605
 5952TIP3    H217821   5.210   1.867   3.573
 5953TIP3   OH217822   4.627   2.536   4.132
 5953TIP3    H117823   4.568   2.463   4.112
 5953TIP3    H217824   4.711   2.509   4.094
 5954TIP3   OH217825   4.948   3.697   4.714
 5954TIP3    H117826   4.926   3.606   4.734
 5954TIP3    H217827   4.866   3.736   4.685
 5955TIP3   OH217828   3.756   2.505   4.255
 5955TIP3    H117829   3.797   2.448   4.189
 5955TIP3    H217830   3.664   2.506   4.232
 5956TIP3   OH217831   1.588   2.146   4.874
 5956TIP3    H117832   1.666   2.178   4.920
 5956TIP3    H217833   1.622   2.105   4.795
 5957TIP3   OH217834   7.070   4.581   2.037
 5957TIP3    H117835   7.131   4.636   1.988
 5957TIP3    H217836   7.004   4.555   1.973
 5958TIP3   OH217837   0.036   6.549   2.164
 5958TIP3    H117838  -0.045   6.597   2.151
 5958TIP3    H217839   0.033   6.479   2.099
 5959TIP3   OH217840   0.302   2.935   1.585
 5959TIP3    H117841   0.214   2.953   1.616
 5959TIP3    H217842   0.331   2.860   1.638
 5960TIP3   OH217843   2.014   3.460   5.116
 5960TIP3    H117844   2.082   3.402   5.149
 5960TIP3    H217845   1.953   3.403   5.070
 5961TIP3   OH217846   4.290   6.422   4.193
 5961TIP3    H117847   4.254   6.361   4.129
 5961TIP3    H217848   4.305   6.503   4.144
 5962TIP3   OH217849   5.096   6.212   2.651
 5962TIP3    H117850   5.073   6.242   2.739
 5962TIP3    H217851   5.053   6.127   2.642
 5963TIP3   OH217852   3.916   1.542   1.514
 5963TIP3    H117853   3.968   1.558   1.436
 5963TIP3    H217854   3.838   1.595   1.503
 5964TIP3   OH217855   2.948   0.650   0.343
 5964TIP3    H117856   2.895   0.617   0.416
 5964TIP3    H217857   2.996   0.724   0.381
 5965TIP3   OH217858   3.775   3.389   0.870
 5965TIP3    H117859   3.695   3.437   0.890
 5965TIP3    H217860   3.846   3.444   0.903
 5966TIP3   OH217861   3.988   0.070   2.721
 5966TIP3    H117862   4.081   0.076   2.745
 5966TIP3    H217863   3.947   0.031   2.798
 5967TIP3   OH217864   5.331   4.092   0.894
 5967TIP3    H117865   5.244   4.132   0.897
 5967TIP3    H217866   5.313   3.998   0.887
 5968TIP3   OH217867   2.891   6.425   3.508
 5968TIP3    H117868   2.805   6.467   3.511
 5968TIP3    H217869   2.951   6.491   3.544
 5969TIP3   OH217870   0.751   6.313   3.822
 5969TIP3    H117871   0.783   6.379   3.883
 5969TIP3    H217872   0.661   6.295   3.850
 5970TIP3   OH217873   5.426   2.607   3.125
 5970TIP3    H117874   5.367   2.682   3.123
 5970TIP3    H217875   5.478   2.619   3.204
 5971TIP3   OH217876   1.274   0.894   4.472
 5971TIP3    H117877   1.360   0.935   4.475
 5971TIP3    H217878   1.212   0.967   4.485
 5972TIP3   OH217879   1.930   2.302   0.450
 5972TIP3    H117880   1.838   2.276   0.462
 5972TIP3    H217881   1.961   2.322   0.538
 5973TIP3   OH217882   5.265   5.469   3.358
 5973TIP3    H117883   5.257   5.497   3.449
 5973TIP3    H217884   5.334   5.402   3.359
 5974TIP3   OH217885   0.218   5.010   4.366
 5974TIP3    H117886   0.142   5.014   4.424
 5974TIP3    H217887   0.183   4.982   4.282
 5975TIP3   OH217888   6.008   2.859   0.568
 5975TIP3    H117889   6.077   2.925   0.563
 5975TIP3    H217890   6.026   2.801   0.494
 5976TIP3   OH217891   5.549   0.194   1.211
 5976TIP3    H117892   5.600   0.129   1.259
 5976TIP3    H217893   5.611   0.237   1.153
 5977TIP3   OH217894   2.590   3.154   2.128
 5977TIP3    H117895   2.522   3.161   2.195
 5977TIP3    H217896   2.670   3.135   2.176
 5978TIP3   OH217897   6.380   0.203   2.506
 5978TIP3    H117898   6.304   0.145   2.507
 5978TIP3    H217899   6.392   0.226   2.414
 5979TIP3   OH217900   3.449   4.593   5.207
 5979TIP3    H117901   3.411   4.535   5.141
 5979TIP3    H217902   3.497   4.535   5.266
 5980TIP3   OH217903   6.635   4.582   3.175
 5980TIP3    H117904   6.690   4.533   3.114
 5980TIP3    H217905   6.556   4.603   3.124
 5981TIP3   OH217906   5.026   0.620   5.886
 5981TIP3    H117907   5.090   0.665   5.942
 5981TIP3    H217908   5.078   0.560   5.833
 5982TIP3   OH217909   6.532   4.981   4.713
 5982TIP3    H117910   6.578   4.901   4.737
 5982TIP3    H217911   6.482   4.959   4.635
 5983TIP3   OH217912   1.243   4.186   4.300
 5983TIP3    H117913   1.197   4.113   4.258
 5983TIP3    H217914   1.243   4.255   4.233
 5984TIP3   OH217915   3.533   4.936   3.576
 5984TIP3    H117916   3.517   5.027   3.603
 5984TIP3    H217917   3.475   4.884   3.632
 5985TIP3   OH217918   3.204   6.555   0.840
 5985TIP3    H117919   3.112   6.581   0.834
 5985TIP3    H217920   3.242   6.615   0.904
 5986TIP3   OH217921   6.694   4.824   5.194
 5986TIP3    H117922   6.636   4.748   5.200
 5986TIP3    H217923   6.682   4.857   5.105
 5987TIP3   OH217924   6.477   2.902   3.035
 5987TIP3    H117925   6.558   2.882   3.082
 5987TIP3    H217926   6.506   2.952   2.959
 5988TIP3   OH217927   6.066   4.881   5.114
 5988TIP3    H117928   5.977   4.868   5.079
 5988TIP3    H217929   6.086   4.973   5.092
 5989TIP3   OH217930   6.056   5.260   2.450
 5989TIP3    H117931   6.020   5.320   2.384
 5989TIP3    H217932   6.138   5.229   2.412
 5990TIP3   OH217933   3.791   4.028   3.786
 5990TIP3    H117934   3.724   4.060   3.725
 5990TIP3    H217935   3.764   4.063   3.871
 5991TIP3   OH217936   4.944   4.903   1.554
 5991TIP3    H117937   4.922   4.818   1.591
 5991TIP3    H217938   4.978   4.884   1.467
 5992TIP3   OH217939   5.395   1.892   1.350
 5992TIP3    H117940   5.391   1.843   1.268
 5992TIP3    H217941   5.444   1.971   1.328
 5993TIP3   OH217942   4.423   5.141   2.911
 5993TIP3    H117943   4.430   5.201   2.985
 5993TIP3    H217944   4.359   5.076   2.939
 5994TIP3   OH217945   2.634   4.903   5.446
 5994TIP3    H117946   2.676   4.879   5.364
 5994TIP3    H217947   2.630   4.999   5.444
 5995TIP3   OH217948   7.170   0.571   1.796
 5995TIP3    H117949   7.215   0.612   1.870
 5995TIP3    H217950   7.209   0.612   1.719
 5996TIP3   OH217951   6.497   2.096   5.814
 5996TIP3    H117952   6.501   2.183   5.854
 5996TIP3    H217953   6.404   2.073   5.817
 5997TIP3   OH217954   6.277   6.083   1.122
 5997TIP3    H117955   6.246   6.022   1.189
 5997TIP3    H217956   6.307   6.027   1.050
 5998TIP3   OH217957   0.874   2.861   1.358
 5998TIP3    H117958   0.901   2.919   1.287
 5998TIP3    H217959   0.791   2.898   1.389
 5999TIP3   OH217960   1.543   1.929   4.295
 5999TIP3    H117961   1.623   1.948   4.245
 5999TIP3    H217962   1.484   2.002   4.274
 6000TIP3   OH217963   1.152   1.360   3.419
 6000TIP3    H117964   1.182   1.413   3.493
 6000TIP3    H217965   1.163   1.417   3.343
 6001TIP3   OH217966   6.923   1.361   4.880
 6001TIP3    H117967   6.841   1.381   4.925
 6001TIP3    H217968   6.919   1.267   4.862
 6002TIP3   OH217969   6.220   5.950   0.033
 6002TIP3    H117970   6.178   6.034   0.016
 6002TIP3    H217971   6.313   5.966   0.017
 6003TIP3   OH217972   5.986   6.627   3.270
 6003TIP3    H117973   6.072   6.659   3.296
 6003TIP3    H217974   5.936   6.623   3.352
 6004TIP3   OH217975   7.219   5.873   4.661
 6004TIP3    H117976   7.271   5.916   4.728
 6004TIP3    H217977   7.227   5.929   4.584
 6005TIP3   OH217978   4.937   5.519   0.841
 6005TIP3    H117979   4.889   5.587   0.795
 6005TIP3    H217980   4.873   5.481   0.901
 6006TIP3   OH217981   2.602   4.828   0.616
 6006TIP3    H117982   2.532   4.790   0.669
 6006TIP3    H217983   2.655   4.753   0.589
 6007TIP3   OH217984   6.939   1.374   3.600
 6007TIP3    H117985   6.877   1.447   3.595
 6007TIP3    H217986   7.023   1.416   3.618
 6008TIP3   OH217987   3.750   2.972   5.221
 6008TIP3    H117988   3.783   3.042   5.278
 6008TIP3    H217989   3.777   2.891   5.264
 6009TIP3   OH217990   7.087   0.858   0.655
 6009TIP3    H117991   7.103   0.837   0.563
 6009TIP3    H217992   7.133   0.941   0.669
 6010TIP3   OH217993   5.915   6.046   3.555
 6010TIP3    H117994   6.010   6.036   3.554
 6010TIP3    H217995   5.899   6.118   3.494
 6011TIP3   OH217996   3.088   3.276   3.397
 6011TIP3    H117997   3.175   3.308   3.419
 6011TIP3    H217998   3.048   3.347   3.346
 6012TIP3   OH217999   2.574   0.374   0.596
 6012TIP3    H118000   2.606   0.342   0.681
 6012TIP3    H218001   2.623   0.324   0.531
 6013TIP3   OH218002   2.201   4.509   0.716
 6013TIP3    H118003   2.229   4.484   0.804
 6013TIP3    H218004   2.188   4.426   0.670
 6014TIP3   OH218005   5.499   4.524   1.617
 6014TIP3    H118006   5.571   4.586   1.607
 6014TIP3    H218007   5.457   4.549   1.700
 6015TIP3   OH218008   1.604   6.639   3.308
 6015TIP3    H118009   1.567   6.718   3.347
 6015TIP3    H218010   1.696   6.661   3.292
 6016TIP3   OH218011   0.485   2.335   3.020
 6016TIP3    H118012   0.505   2.297   2.935
 6016TIP3    H218013   0.409   2.287   3.052
 6017TIP3   OH218014   5.314   5.854   3.017
 6017TIP3    H118015   5.369   5.851   2.939
 6017TIP3    H218016   5.365   5.808   3.084
 6018TIP3   OH218017   1.585   5.422   3.741
 6018TIP3    H118018   1.649   5.410   3.671
 6018TIP3    H218019   1.524   5.349   3.730
 6019TIP3   OH218020   4.091   2.334   3.426
 6019TIP3    H118021   4.025   2.273   3.394
 6019TIP3    H218022   4.170   2.281   3.437
 6020TIP3   OH218023   0.890   0.782   3.642
 6020TIP3    H118024   0.961   0.788   3.705
 6020TIP3    H218025   0.879   0.871   3.610
 6021TIP3   OH218026   2.906   0.214   5.367
 6021TIP3    H118027   2.987   0.253   5.336
 6021TIP3    H218028   2.930   0.125   5.393
 6022TIP3   OH218029   5.748   6.175   2.699
 6022TIP3    H118030   5.758   6.112   2.771
 6022TIP3    H218031   5.678   6.139   2.645
 6023TIP3   OH218032   6.073   2.279   3.597
 6023TIP3    H118033   6.126   2.233   3.532
 6023TIP3    H218034   5.984   2.272   3.565
 6024TIP3   OH218035   3.213   4.263   2.572
 6024TIP3    H118036   3.235   4.354   2.551
 6024TIP3    H218037   3.127   4.249   2.532
 6025TIP3   OH218038   2.379   4.506   2.387
 6025TIP3    H118039   2.468   4.485   2.357
 6025TIP3    H218040   2.326   4.508   2.307
 6026TIP3   OH218041   5.602   4.653   1.222
 6026TIP3    H118042   5.544   4.725   1.247
 6026TIP3    H218043   5.690   4.690   1.228
 6027TIP3   OH218044   2.909   3.177   0.175
 6027TIP3    H118045   2.986   3.233   0.183
 6027TIP3    H218046   2.918   3.113   0.245
 6028TIP3   OH218047   1.389   4.063   5.544
 6028TIP3    H118048   1.362   4.045   5.454
 6028TIP3    H218049   1.403   4.158   5.546
 6029TIP3   OH218050   5.690   2.278   4.183
 6029TIP3    H118051   5.712   2.189   4.210
 6029TIP3    H218052   5.744   2.334   4.239
 6030TIP3   OH218053   2.507   6.060   5.710
 6030TIP3    H118054   2.535   6.064   5.618
 6030TIP3    H218055   2.478   6.149   5.730
 6031TIP3   OH218056   0.119   2.647   1.454
 6031TIP3    H118057   0.033   2.619   1.422
 6031TIP3    H218058   0.107   2.664   1.547
 6032TIP3   OH218059   2.446   3.066   5.600
 6032TIP3    H118060   2.452   3.063   5.696
 6032TIP3    H218061   2.533   3.038   5.570
 6033TIP3   OH218062   5.366   2.774   3.615
 6033TIP3    H118063   5.324   2.705   3.565
 6033TIP3    H218064   5.454   2.741   3.632
 6034TIP3   OH218065   1.937   5.767   1.553
 6034TIP3    H118066   1.939   5.861   1.533
 6034TIP3    H218067   2.005   5.757   1.621
 6035TIP3   OH218068   6.660   6.545   0.778
 6035TIP3    H118069   6.749   6.510   0.772
 6035TIP3    H218070   6.670   6.639   0.763
 6036TIP3   OH218071   3.384   0.805   3.341
 6036TIP3    H118072   3.410   0.712   3.337
 6036TIP3    H218073   3.396   0.829   3.433
 6037TIP3   OH218074   6.824   0.718   2.158
 6037TIP3    H118075   6.840   0.804   2.197
 6037TIP3    H218076   6.806   0.661   2.233
 6038TIP3   OH218077   3.282   2.501   0.607
 6038TIP3    H118078   3.249   2.575   0.659
 6038TIP3    H218079   3.311   2.541   0.525
 6039TIP3   OH218080   2.485   3.591   4.601
 6039TIP3    H118081   2.397   3.557   4.619
 6039TIP3    H218082   2.470   3.681   4.573
 6040TIP3   OH218083   4.909   1.963   3.582
 6040TIP3    H118084   4.959   1.930   3.658
 6040TIP3    H218085   4.969   1.952   3.508
 6041TIP3   OH218086   3.854   3.628   1.676
 6041TIP3    H118087   3.839   3.695   1.743
 6041TIP3    H218088   3.949   3.615   1.676
 6042TIP3   OH218089   1.508   4.088   0.388
 6042TIP3    H118090   1.598   4.105   0.361
 6042TIP3    H218091   1.474   4.172   0.417
 6043TIP3   OH218092   0.667   5.131   4.044
 6043TIP3    H118093   0.669   5.226   4.035
 6043TIP3    H218094   0.627   5.100   3.963
 6044TIP3   OH218095   5.012   0.569   0.577
 6044TIP3    H118096   4.997   0.475   0.566
 6044TIP3    H218097   4.951   0.595   0.647
 6045TIP3   OH218098   0.818   2.231   4.610
 6045TIP3    H118099   0.857   2.145   4.627
 6045TIP3    H218100   0.804   2.269   4.697
 6046TIP3   OH218101   3.499   2.158   0.579
 6046TIP3    H118102   3.495   2.065   0.557
 6046TIP3    H218103   3.475   2.203   0.498
 6047TIP3   OH218104   6.391   3.930   1.747
 6047TIP3    H118105   6.466   3.940   1.805
 6047TIP3    H218106   6.427   3.939   1.659
 6048TIP3   OH218107   5.968   0.880   5.201
 6048TIP3    H118108   6.004   0.833   5.126
 6048TIP3    H218109   5.993   0.971   5.187
 6049TIP3   OH218110   3.168   5.666   0.094
 6049TIP3    H118111   3.152   5.683   0.001
 6049TIP3    H218112   3.134   5.743   0.139
 6050TIP3   OH218113   1.032   5.496   0.723
 6050TIP3    H118114   1.021   5.409   0.760
 6050TIP3    H218115   1.038   5.555   0.799
 6051TIP3   OH218116   4.674   1.161   2.293
 6051TIP3    H118117   4.583   1.183   2.313
 6051TIP3    H218118   4.707   1.238   2.247
 6052TIP3   OH218119   4.737   3.468   0.325
 6052TIP3    H118120   4.686   3.439   0.250
 6052TIP3    H218121   4.813   3.512   0.288
 6053TIP3   OH218122   1.594   5.312   4.208
 6053TIP3    H118123   1.648   5.269   4.142
 6053TIP3    H218124   1.522   5.351   4.158
 6054TIP3   OH218125   2.272   4.697   3.886
 6054TIP3    H118126   2.192   4.740   3.916
 6054TIP3    H218127   2.282   4.726   3.795
 6055TIP3   OH218128   3.754   4.140   5.311
 6055TIP3    H118129   3.699   4.183   5.376
 6055TIP3    H218130   3.839   4.184   5.318
 6056TIP3   OH218131   1.540   4.170   2.393
 6056TIP3    H118132   1.556   4.242   2.454
 6056TIP3    H218133   1.547   4.210   2.306
 6057TIP3   OH218134   4.508   2.236   3.521
 6057TIP3    H118135   4.421   2.202   3.501
 6057TIP3    H218136   4.541   2.178   3.590
 6058TIP3   OH218137   2.390   6.496   1.471
 6058TIP3    H118138   2.422   6.427   1.414
 6058TIP3    H218139   2.387   6.457   1.559
 6059TIP3   OH218140   3.148   0.021   2.166
 6059TIP3    H118141   3.082   0.032   2.235
 6059TIP3    H218142   3.161   0.109   2.131
 6060TIP3   OH218143   2.998   3.282   2.776
 6060TIP3    H118144   3.020   3.258   2.866
 6060TIP3    H218145   2.964   3.371   2.783
 6061TIP3   OH218146   1.699   0.577   5.400
 6061TIP3    H118147   1.739   0.609   5.320
 6061TIP3    H218148   1.667   0.489   5.379
 6062TIP3   OH218149   1.642   1.421   2.637
 6062TIP3    H118150   1.669   1.357   2.570
 6062TIP3    H218151   1.615   1.367   2.712
 6063TIP3   OH218152   4.064   4.809   2.450
 6063TIP3    H118153   4.152   4.819   2.485
 6063TIP3    H218154   4.007   4.843   2.519
 6064TIP3   OH218155   0.226   2.163   2.711
 6064TIP3    H118156   0.255   2.244   2.669
 6064TIP3    H218157   0.201   2.105   2.639
 6065TIP3   OH218158   5.003   3.008   2.415
 6065TIP3    H118159   4.996   3.102   2.401
 6065TIP3    H218160   4.948   2.970   2.346
 6066TIP3   OH218161   4.662   4.428   5.302
 6066TIP3    H118162   4.679   4.521   5.288
 6066TIP3    H218163   4.657   4.418   5.397
 6067TIP3   OH218164   2.821   2.700   2.291
 6067TIP3    H118165   2.756   2.719   2.224
 6067TIP3    H218166   2.900   2.746   2.261
 6068TIP3   OH218167   4.551   0.165   1.876
 6068TIP3    H118168   4.525   0.236   1.935
 6068TIP3    H218169   4.581   0.209   1.797
 6069TIP3   OH218170   5.367   2.275   2.007
 6069TIP3    H118171   5.356   2.181   2.018
 6069TIP3    H218172   5.453   2.294   2.045
 6070TIP3   OH218173   2.433   5.755   5.386
 6070TIP3    H118174   2.479   5.838   5.393
 6070TIP3    H218175   2.343   5.775   5.414
 6071TIP3   OH218176   2.996   3.430   5.791
 6071TIP3    H118177   3.055   3.376   5.844
 6071TIP3    H218178   2.927   3.456   5.852
 6072TIP3   OH218179   5.489   5.896   4.452
 6072TIP3    H118180   5.542   5.822   4.422
 6072TIP3    H218181   5.457   5.936   4.371
 6073TIP3   OH218182   3.027   4.884   2.164
 6073TIP3    H118183   3.000   4.814   2.105
 6073TIP3    H218184   3.055   4.839   2.244
 6074TIP3   OH218185   2.299   4.024   1.664
 6074TIP3    H118186   2.231   4.042   1.598
 6074TIP3    H218187   2.266   3.947   1.710
 6075TIP3   OH218188   2.115   0.415   3.838
 6075TIP3    H118189   2.181   0.366   3.789
 6075TIP3    H218190   2.120   0.379   3.927
 6076TIP3   OH218191   4.048   2.033   4.799
 6076TIP3    H118192   3.991   2.089   4.852
 6076TIP3    H218193   4.104   2.094   4.751
 6077TIP3   OH218194   6.779   6.732   4.179
 6077TIP3    H118195   6.843   6.768   4.239
 6077TIP3    H218196   6.760   6.644   4.214
 6078TIP3   OH218197   3.557   6.679   0.874
 6078TIP3    H118198   3.538   6.747   0.810
 6078TIP3    H218199   3.652   6.670   0.872
 6079TIP3   OH218200   5.915   0.735   5.747
 6079TIP3    H118201   5.929   0.676   5.674
 6079TIP3    H218202   6.002   0.749   5.784
 6080TIP3   OH218203   4.255   2.642   1.845
 6080TIP3    H118204   4.335   2.680   1.810
 6080TIP3    H218205   4.235   2.695   1.922
 6081TIP3   OH218206   1.724   0.079   0.513
 6081TIP3    H118207   1.755   0.074   0.603
 6081TIP3    H218208   1.628   0.079   0.521
 6082TIP3   OH218209   3.733   3.383   1.706
 6082TIP3    H118210   3.782   3.465   1.697
 6082TIP3    H218211   3.754   3.334   1.627
 6083TIP3   OH218212   5.281   6.574   2.754
 6083TIP3    H118213   5.359   6.520   2.760
 6083TIP3    H218214   5.281   6.607   2.664
 6084TIP3   OH218215   2.035   3.838   3.593
 6084TIP3    H118216   2.024   3.743   3.588
 6084TIP3    H218217   1.961   3.868   3.646
 6085TIP3   OH218218   7.112   3.302   0.958
 6085TIP3    H118219   7.205   3.323   0.956
 6085TIP3    H218220   7.110   3.207   0.970
 6086TIP3   OH218221   5.441   5.467   1.302
 6086TIP3    H118222   5.384   5.544   1.307
 6086TIP3    H218223   5.418   5.415   1.379
 6087TIP3   OH218224   2.582   0.868   0.378
 6087TIP3    H118225   2.669   0.898   0.402
 6087TIP3    H218226   2.540   0.945   0.338
 6088TIP3   OH218227   6.026   4.799   2.929
 6088TIP3    H118228   6.094   4.804   2.996
 6088TIP3    H218229   5.949   4.837   2.970
 6089TIP3   OH218230   0.778   6.607   1.978
 6089TIP3    H118231   0.699   6.580   1.932
 6089TIP3    H218232   0.766   6.700   1.995
 6090TIP3   OH218233   0.603   6.770   5.450
 6090TIP3    H118234   0.595   6.796   5.541
 6090TIP3    H218235   0.697   6.769   5.433
 6091TIP3   OH218236   2.470   5.874   3.837
 6091TIP3    H118237   2.387   5.884   3.791
 6091TIP3    H218238   2.484   5.779   3.840
 6092TIP3   OH218239   6.899   2.529   1.558
 6092TIP3    H118240   6.868   2.450   1.514
 6092TIP3    H218241   6.975   2.557   1.507
 6093TIP3   OH218242   0.308   0.835   3.952
 6093TIP3    H118243   0.317   0.748   3.913
 6093TIP3    H218244   0.339   0.895   3.884
 6094TIP3   OH218245   2.697   0.653   3.977
 6094TIP3    H118246   2.770   0.601   3.942
 6094TIP3    H218247   2.731   0.693   4.057
 6095TIP3   OH218248   6.057   2.051   0.439
 6095TIP3    H118249   6.005   2.032   0.361
 6095TIP3    H218250   6.078   1.964   0.475
 6096TIP3   OH218251   1.503   3.330   1.569
 6096TIP3    H118252   1.512   3.413   1.616
 6096TIP3    H218253   1.589   3.313   1.532
 6097TIP3   OH218254   1.087   3.191   2.934
 6097TIP3    H118255   1.060   3.156   2.850
 6097TIP3    H218256   1.019   3.254   2.957
 6098TIP3   OH218257   0.587   1.586   2.080
 6098TIP3    H118258   0.661   1.595   2.140
 6098TIP3    H218259   0.627   1.586   1.993
 6099TIP3   OH218260   6.950   4.714   3.489
 6099TIP3    H118261   6.871   4.754   3.525
 6099TIP3    H218262   7.009   4.788   3.472
 6100TIP3   OH218263   7.203   2.258   2.081
 6100TIP3    H118264   7.110   2.255   2.103
 6100TIP3    H218265   7.215   2.342   2.036
 6101TIP3   OH218266   3.498   0.338   3.486
 6101TIP3    H118267   3.465   0.250   3.504
 6101TIP3    H218268   3.527   0.371   3.571
 6102TIP3   OH218269   1.812   2.523   0.345
 6102TIP3    H118270   1.877   2.452   0.347
 6102TIP3    H218271   1.735   2.484   0.304
 6103TIP3   OH218272   2.938   6.108   4.313
 6103TIP3    H118273   2.966   6.182   4.367
 6103TIP3    H218274   2.933   6.143   4.224
 6104TIP3   OH218275   3.947   1.260   2.779
 6104TIP3    H118276   3.870   1.261   2.836
 6104TIP3    H218277   4.019   1.290   2.835
 6105TIP3   OH218278   4.901   3.595   1.829
 6105TIP3    H118279   4.874   3.520   1.882
 6105TIP3    H218280   4.845   3.590   1.752
 6106TIP3   OH218281   3.618   2.537   3.920
 6106TIP3    H118282   3.568   2.612   3.888
 6106TIP3    H218283   3.662   2.503   3.842
 6107TIP3   OH218284   3.739   1.723   3.958
 6107TIP3    H118285   3.681   1.719   4.033
 6107TIP3    H218286   3.681   1.725   3.882
 6108TIP3   OH218287   7.083   5.091   0.803
 6108TIP3    H118288   7.106   5.038   0.880
 6108TIP3    H218289   6.993   5.067   0.783
 6109TIP3   OH218290   1.263   4.426   2.526
 6109TIP3    H118291   1.321   4.431   2.603
 6109TIP3    H218292   1.249   4.517   2.501
 6110TIP3   OH218293   6.207   5.810   2.942
 6110TIP3    H118294   6.144   5.820   2.871
 6110TIP3    H218295   6.164   5.848   3.019
 6111TIP3   OH218296   4.688   2.254   0.870
 6111TIP3    H118297   4.662   2.336   0.911
 6111TIP3    H218298   4.713   2.278   0.781
 6112TIP3   OH218299   0.708   5.301   0.583
 6112TIP3    H118300   0.761   5.319   0.506
 6112TIP3    H218301   0.641   5.370   0.582
 6113TIP3   OH218302   3.585   5.950   3.786
 6113TIP3    H118303   3.554   5.860   3.795
 6113TIP3    H218304   3.612   5.975   3.874
 6114TIP3   OH218305   4.348   4.860   2.189
 6114TIP3    H118306   4.431   4.850   2.142
 6114TIP3    H218307   4.320   4.770   2.207
 6115TIP3   OH218308   0.479   6.341   1.274
 6115TIP3    H118309   0.575   6.337   1.272
 6115TIP3    H218310   0.451   6.254   1.302
 6116TIP3   OH218311   0.138   1.527   2.863
 6116TIP3    H118312   0.052   1.569   2.853
 6116TIP3    H218313   0.200   1.593   2.832
 6117TIP3   OH218314   7.175   3.564   3.177
 6117TIP3    H118315   7.196   3.574   3.084
 6117TIP3    H218316   7.100   3.621   3.191
 6118TIP3   OH218317   6.930   5.366   1.155
 6118TIP3    H118318   6.945   5.372   1.061
 6118TIP3    H218319   6.842   5.329   1.163
 6119TIP3   OH218320   5.043   1.168   3.504
 6119TIP3    H118321   5.129   1.198   3.475
 6119TIP3    H218322   5.057   1.135   3.593
 6120TIP3   OH218323   6.911   1.700   2.935
 6120TIP3    H118324   6.981   1.636   2.949
 6120TIP3    H218325   6.831   1.647   2.931
 6121TIP3   OH218326   6.411   4.617   1.724
 6121TIP3    H118327   6.366   4.676   1.784
 6121TIP3    H218328   6.497   4.656   1.711
 6122TIP3   OH218329   3.034   5.600   4.116
 6122TIP3    H118330   3.086   5.643   4.048
 6122TIP3    H218331   2.959   5.658   4.128
 6123TIP3   OH218332   5.079   2.348   4.814
 6123TIP3    H118333   5.036   2.292   4.750
 6123TIP3    H218334   5.166   2.310   4.825
 6124TIP3   OH218335   2.178   0.559   0.842
 6124TIP3    H118336   2.161   0.479   0.892
 6124TIP3    H218337   2.195   0.528   0.753
 6125TIP3   OH218338   2.935   3.143   1.073
 6125TIP3    H118339   2.900   3.203   1.139
 6125TIP3    H218340   3.022   3.179   1.053
 6126TIP3   OH218341   7.145   1.867   2.581
 6126TIP3    H118342   7.169   1.947   2.535
 6126TIP3    H218343   7.115   1.897   2.667
 6127TIP3   OH218344   6.018   5.781   4.864
 6127TIP3    H118345   6.024   5.810   4.773
 6127TIP3    H218346   5.991   5.859   4.913
 6128TIP3   OH218347   2.522   1.596   1.129
 6128TIP3    H118348   2.427   1.588   1.136
 6128TIP3    H218349   2.539   1.690   1.135
 6129TIP3   OH218350   6.334   6.769   4.551
 6129TIP3    H118351   6.262   6.735   4.499
 6129TIP3    H218352   6.403   6.703   4.543
 6130TIP3   OH218353   3.531   2.739   3.753
 6130TIP3    H118354   3.535   2.828   3.719
 6130TIP3    H218355   3.451   2.702   3.714
 6131TIP3   OH218356   0.046   6.009   3.708
 6131TIP3    H118357  -0.002   5.987   3.787
 6131TIP3    H218358   0.080   5.925   3.676
 6132TIP3   OH218359   6.251   0.428   5.704
 6132TIP3    H118360   6.294   0.505   5.741
 6132TIP3    H218361   6.191   0.399   5.773
 6133TIP3   OH218362   6.421   3.215   5.565
 6133TIP3    H118363   6.445   3.147   5.502
 6133TIP3    H218364   6.379   3.169   5.636
 6134TIP3   OH218365   4.084   3.300   1.620
 6134TIP3    H118366   4.008   3.279   1.566
 6134TIP3    H218367   4.102   3.392   1.602
 6135TIP3   OH218368   0.078   2.866   2.724
 6135TIP3    H118369   0.066   2.867   2.819
 6135TIP3    H218370   0.010   2.924   2.690
 6136TIP3   OH218371   5.296   4.214   5.782
 6136TIP3    H118372   5.280   4.156   5.856
 6136TIP3    H218373   5.384   4.248   5.797
 6137TIP3   OH218374   0.037   3.801   2.014
 6137TIP3    H118375   0.054   3.861   1.942
 6137TIP3    H218376   0.122   3.764   2.036
 6138TIP3   OH218377   4.892   0.324   1.853
 6138TIP3    H118378   4.857   0.319   1.942
 6138TIP3    H218379   4.814   0.337   1.799
 6139TIP3   OH218380   3.716   1.505   0.704
 6139TIP3    H118381   3.637   1.511   0.757
 6139TIP3    H218382   3.697   1.557   0.626
 6140TIP3   OH218383   1.775   4.322   3.667
 6140TIP3    H118384   1.732   4.238   3.650
 6140TIP3    H218385   1.803   4.317   3.758
 6141TIP3   OH218386   4.213   4.524   2.470
 6141TIP3    H118387   4.201   4.596   2.532
 6141TIP3    H218388   4.135   4.528   2.414
 6142TIP3   OH218389   4.555   1.160   1.869
 6142TIP3    H118390   4.577   1.246   1.835
 6142TIP3    H218391   4.459   1.157   1.866
 6143TIP3   OH218392   1.945   1.005   5.630
 6143TIP3    H118393   1.881   1.073   5.654
 6143TIP3    H218394   1.917   0.928   5.680
 6144TIP3   OH218395   1.932   0.287   0.541
 6144TIP3    H118396   1.857   0.229   0.527
 6144TIP3    H218397   2.007   0.229   0.552
 6145TIP3   OH218398   3.099   2.234   3.223
 6145TIP3    H118399   3.135   2.185   3.149
 6145TIP3    H218400   3.138   2.320   3.216
 6146TIP3   OH218401   6.427   4.646   4.437
 6146TIP3    H118402   6.505   4.592   4.431
 6146TIP3    H218403   6.386   4.620   4.520
 6147TIP3   OH218404   2.503   1.838   1.308
 6147TIP3    H118405   2.589   1.866   1.339
 6147TIP3    H218406   2.479   1.766   1.367
 6148TIP3   OH218407   4.324   5.484   2.942
 6148TIP3    H118408   4.262   5.421   2.978
 6148TIP3    H218409   4.353   5.534   3.019
 6149TIP3   OH218410   5.878   5.430   1.724
 6149TIP3    H118411   5.830   5.371   1.781
 6149TIP3    H218412   5.929   5.485   1.783
 6150TIP3   OH218413   3.590   1.974   4.428
 6150TIP3    H118414   3.528   2.005   4.494
 6150TIP3    H218415   3.596   2.045   4.365
 6151TIP3   OH218416   2.435   5.160   3.975
 6151TIP3    H118417   2.398   5.093   3.918
 6151TIP3    H218418   2.524   5.173   3.942
 6152TIP3   OH218419   2.940   0.578   4.936
 6152TIP3    H118420   2.924   0.487   4.963
 6152TIP3    H218421   3.023   0.575   4.888
 6153TIP3   OH218422   4.883   0.813   5.137
 6153TIP3    H118423   4.973   0.833   5.162
 6153TIP3    H218424   4.831   0.834   5.214
 6154TIP3   OH218425   6.065   0.916   0.221
 6154TIP3    H118426   6.096   0.992   0.171
 6154TIP3    H218427   6.029   0.857   0.154
 6155TIP3   OH218428   5.457   2.960   4.812
 6155TIP3    H118429   5.383   2.969   4.753
 6155TIP3    H218430   5.517   2.900   4.768
 6156TIP3   OH218431   6.724   1.205   3.748
 6156TIP3    H118432   6.704   1.131   3.691
 6156TIP3    H218433   6.724   1.281   3.689
 6157TIP3   OH218434   5.075   3.235   4.027
 6157TIP3    H118435   4.995   3.230   4.080
 6157TIP3    H218436   5.116   3.149   4.037
 6158TIP3   OH218437   5.335   5.294   5.431
 6158TIP3    H118438   5.419   5.309   5.387
 6158TIP3    H218439   5.360   5.265   5.519
 6159TIP3   OH218440   4.114   2.635   3.973
 6159TIP3    H118441   4.045   2.696   4.000
 6159TIP3    H218442   4.158   2.678   3.900
 6160TIP3   OH218443   6.662   3.324   3.435
 6160TIP3    H118444   6.684   3.409   3.395
 6160TIP3    H218445   6.687   3.334   3.527
 6161TIP3   OH218446   6.446   1.037   1.046
 6161TIP3    H118447   6.368   0.981   1.046
 6161TIP3    H218448   6.432   1.098   1.119
 6162TIP3   OH218449   1.220   2.909   1.284
 6162TIP3    H118450   1.233   2.999   1.314
 6162TIP3    H218451   1.145   2.915   1.224
 6163TIP3   OH218452   2.131   4.377   4.146
 6163TIP3    H118453   2.158   4.379   4.054
 6163TIP3    H218454   2.058   4.439   4.150
 6164TIP3   OH218455   5.257   6.135   1.677
 6164TIP3    H118456   5.249   6.228   1.702
 6164TIP3    H218457   5.192   6.123   1.608
 6165TIP3   OH218458   5.650   3.657   1.735
 6165TIP3    H118459   5.717   3.696   1.791
 6165TIP3    H218460   5.634   3.723   1.668
 6166TIP3   OH218461   5.670   1.228   0.148
 6166TIP3    H118462   5.654   1.139   0.117
 6166TIP3    H218463   5.605   1.281   0.102
 6167TIP3   OH218464   1.160   1.827   0.242
 6167TIP3    H118465   1.225   1.891   0.270
 6167TIP3    H218466   1.181   1.810   0.150
 6168TIP3   OH218467   2.075   5.923   0.303
 6168TIP3    H118468   2.090   5.836   0.266
 6168TIP3    H218469   2.151   5.974   0.276
 6169TIP3   OH218470   5.268   4.046   3.703
 6169TIP3    H118471   5.241   3.970   3.755
 6169TIP3    H218472   5.217   4.119   3.739
 6170TIP3   OH218473   6.591   6.025   1.170
 6170TIP3    H118474   6.545   6.086   1.113
 6170TIP3    H218475   6.649   6.080   1.223
 6171TIP3   OH218476   2.754   6.527   2.802
 6171TIP3    H118477   2.701   6.523   2.723
 6171TIP3    H218478   2.713   6.464   2.862
 6172TIP3   OH218479   2.037   6.232   1.196
 6172TIP3    H118480   2.016   6.139   1.182
 6172TIP3    H218481   2.047   6.268   1.109
 6173TIP3   OH218482   4.504   5.553   3.895
 6173TIP3    H118483   4.459   5.484   3.847
 6173TIP3    H218484   4.592   5.555   3.858
 6174TIP3   OH218485   4.971   3.639   2.290
 6174TIP3    H118486   4.889   3.592   2.274
 6174TIP3    H218487   5.038   3.571   2.294
 6175TIP3   OH218488   4.544   2.486   1.861
 6175TIP3    H118489   4.621   2.484   1.918
 6175TIP3    H218490   4.535   2.578   1.837
 6176TIP3   OH218491   6.514   0.532   3.598
 6176TIP3    H118492   6.541   0.497   3.683
 6176TIP3    H218493   6.589   0.586   3.570
 6177TIP3   OH218494   3.748   6.497   3.328
 6177TIP3    H118495   3.728   6.523   3.238
 6177TIP3    H218496   3.663   6.476   3.367
 6178TIP3   OH218497   5.802   2.656   3.865
 6178TIP3    H118498   5.862   2.730   3.876
 6178TIP3    H218499   5.859   2.579   3.862
 6179TIP3   OH218500   5.343   4.969   2.385
 6179TIP3    H118501   5.363   5.052   2.430
 6179TIP3    H218502   5.367   4.902   2.449
 6180TIP3   OH218503   6.661   6.156   5.667
 6180TIP3    H118504   6.681   6.107   5.588
 6180TIP3    H218505   6.597   6.222   5.640
 6181TIP3   OH218506   4.915   6.779   1.945
 6181TIP3    H118507   4.935   6.686   1.953
 6181TIP3    H218508   4.999   6.823   1.954
 6182TIP3   OH218509   0.047   0.421   5.688
 6182TIP3    H118510   0.099   0.428   5.607
 6182TIP3    H218511   0.100   0.466   5.754
 6183TIP3   OH218512   1.336   3.396   4.826
 6183TIP3    H118513   1.391   3.337   4.877
 6183TIP3    H218514   1.246   3.372   4.850
 6184TIP3   OH218515   0.379   6.619   2.982
 6184TIP3    H118516   0.464   6.577   2.967
 6184TIP3    H218517   0.337   6.619   2.896
 6185TIP3   OH218518   7.083   5.487   2.043
 6185TIP3    H118519   7.018   5.525   2.101
 6185TIP3    H218520   7.095   5.553   1.974
 6186TIP3   OH218521   1.304   2.903   3.708
 6186TIP3    H118522   1.398   2.889   3.704
 6186TIP3    H218523   1.293   2.997   3.693
 6187TIP3   OH218524   2.228   0.394   1.230
 6187TIP3    H118525   2.164   0.361   1.293
 6187TIP3    H218526   2.270   0.316   1.196
 6188TIP3   OH218527   7.009   0.308   1.843
 6188TIP3    H118528   6.934   0.306   1.785
 6188TIP3    H218529   7.009   0.396   1.880
 6189TIP3   OH218530   2.862   2.543   3.819
 6189TIP3    H118531   2.899   2.593   3.746
 6189TIP3    H218532   2.780   2.507   3.784
 6190TIP3   OH218533   2.925   3.608   0.267
 6190TIP3    H118534   2.871   3.679   0.302
 6190TIP3    H218535   3.014   3.631   0.292
 6191TIP3   OH218536   1.864   0.086   5.226
 6191TIP3    H118537   1.915   0.092   5.306
 6191TIP3    H218538   1.783   0.043   5.252
 6192TIP3   OH218539   3.517   4.831   3.177
 6192TIP3    H118540   3.572   4.753   3.168
 6192TIP3    H218541   3.557   4.895   3.119
 6193TIP3   OH218542   0.163   5.545   5.343
 6193TIP3    H118543   0.184   5.452   5.338
 6193TIP3    H218544   0.084   5.554   5.289
 6194TIP3   OH218545   4.298   3.026   4.014
 6194TIP3    H118546   4.243   3.050   4.088
 6194TIP3    H218547   4.266   3.078   3.941
 6195TIP3   OH218548   4.568   1.896   0.266
 6195TIP3    H118549   4.507   1.888   0.193
 6195TIP3    H218550   4.518   1.869   0.343
 6196TIP3   OH218551   1.521   6.658   2.315
 6196TIP3    H118552   1.429   6.637   2.331
 6196TIP3    H218553   1.529   6.659   2.220
 6197TIP3   OH218554   2.031   1.819   3.309
 6197TIP3    H118555   2.054   1.749   3.370
 6197TIP3    H218556   2.115   1.849   3.275
 6198TIP3   OH218557   3.873   3.636   0.084
 6198TIP3    H118558   3.968   3.624   0.087
 6198TIP3    H218559   3.837   3.551   0.110
 6199TIP3   OH218560   6.358   1.766   4.785
 6199TIP3    H118561   6.304   1.836   4.749
 6199TIP3    H218562   6.424   1.811   4.838
 6200TIP3   OH218563   5.875   4.978   3.076
 6200TIP3    H118564   5.922   5.001   3.156
 6200TIP3    H218565   5.785   5.005   3.092
 6201TIP3   OH218566   4.188   2.451   4.214
 6201TIP3    H118567   4.198   2.478   4.305
 6201TIP3    H218568   4.175   2.533   4.166
 6202TIP3   OH218569   1.998   3.682   0.232
 6202TIP3    H118570   2.060   3.752   0.213
 6202TIP3    H218571   2.042   3.603   0.201
 6203TIP3   OH218572   4.648   3.379   0.581
 6203TIP3    H118573   4.570   3.433   0.564
 6203TIP3    H218574   4.700   3.388   0.501
 6204TIP3   OH218575   0.471   3.518   0.836
 6204TIP3    H118576   0.481   3.585   0.904
 6204TIP3    H218577   0.505   3.559   0.757
 6205TIP3   OH218578   4.931   2.290   1.348
 6205TIP3    H118579   5.010   2.250   1.384
 6205TIP3    H218580   4.882   2.319   1.424
 6206TIP3   OH218581   2.475   6.251   0.072
 6206TIP3    H118582   2.519   6.183   0.123
 6206TIP3    H218583   2.456   6.210  -0.012
 6207TIP3   OH218584   4.416   4.395   1.806
 6207TIP3    H118585   4.437   4.484   1.834
 6207TIP3    H218586   4.485   4.340   1.843
 6208TIP3   OH218587   4.947   2.202   1.072
 6208TIP3    H118588   4.925   2.240   1.157
 6208TIP3    H218589   4.962   2.277   1.015
 6209TIP3   OH218590   0.589   4.025   2.648
 6209TIP3    H118591   0.678   4.009   2.619
 6209TIP3    H218592   0.561   4.103   2.599
 6210TIP3   OH218593   5.877   3.935   1.679
 6210TIP3    H118594   5.885   3.881   1.600
 6210TIP3    H218595   5.968   3.956   1.703
 6211TIP3   OH218596   5.529   3.561   0.137
 6211TIP3    H118597   5.558   3.648   0.107
 6211TIP3    H218598   5.449   3.579   0.185
 6212TIP3   OH218599   4.606   4.036   5.750
 6212TIP3    H118600   4.683   4.090   5.768
 6212TIP3    H218601   4.538   4.073   5.807
 6213TIP3   OH218602   3.506   1.428   4.439
 6213TIP3    H118603   3.546   1.343   4.421
 6213TIP3    H218604   3.574   1.477   4.484
 6214TIP3   OH218605   1.346   2.252   5.142
 6214TIP3    H118606   1.349   2.171   5.092
 6214TIP3    H218607   1.259   2.288   5.124
 6215TIP3   OH218608   3.589   3.012   5.550
 6215TIP3    H118609   3.674   3.018   5.507
 6215TIP3    H218610   3.554   3.101   5.548
 6216TIP3   OH218611   1.379   4.694   3.712
 6216TIP3    H118612   1.302   4.645   3.738
 6216TIP3    H218613   1.431   4.703   3.792
 6217TIP3   OH218614   3.509   4.033   5.646
 6217TIP3    H118615   3.480   4.004   5.732
 6217TIP3    H218616   3.544   3.954   5.604
 6218TIP3   OH218617   2.619   0.152   2.442
 6218TIP3    H118618   2.545   0.155   2.381
 6218TIP3    H218619   2.647   0.060   2.441
 6219TIP3   OH218620   6.204   6.472   0.298
 6219TIP3    H118621   6.178   6.562   0.280
 6219TIP3    H218622   6.298   6.476   0.312
 6220TIP3   OH218623   5.173   1.732   2.801
 6220TIP3    H118624   5.192   1.642   2.775
 6220TIP3    H218625   5.258   1.776   2.799
 6221TIP3   OH218626   5.352   1.086   4.512
 6221TIP3    H118627   5.307   1.017   4.561
 6221TIP3    H218628   5.446   1.067   4.524
 6222TIP3   OH218629   1.290   5.433   0.623
 6222TIP3    H118630   1.195   5.423   0.633
 6222TIP3    H218631   1.307   5.525   0.644
 6223TIP3   OH218632   1.465   1.834   0.361
 6223TIP3    H118633   1.511   1.759   0.397
 6223TIP3    H218634   1.420   1.873   0.436
 6224TIP3   OH218635   0.297   6.292   5.098
 6224TIP3    H118636   0.291   6.198   5.080
 6224TIP3    H218637   0.388   6.306   5.124
 6225TIP3   OH218638   0.984   1.083   5.039
 6225TIP3    H118639   1.006   1.141   4.967
 6225TIP3    H218640   0.895   1.107   5.064
 6226TIP3   OH218641   5.642   0.772   4.712
 6226TIP3    H118642   5.713   0.723   4.671
 6226TIP3    H218643   5.564   0.720   4.693
 6227TIP3   OH218644   5.683   4.158   0.808
 6227TIP3    H118645   5.731   4.139   0.889
 6227TIP3    H218646   5.635   4.078   0.790
 6228TIP3   OH218647   0.375   6.349   3.124
 6228TIP3    H118648   0.421   6.409   3.066
 6228TIP3    H218649   0.339   6.282   3.066
 6229TIP3   OH218650   6.791   1.723   4.791
 6229TIP3    H118651   6.806   1.704   4.884
 6229TIP3    H218652   6.708   1.679   4.771
 6230TIP3   OH218653   3.983   2.025   3.886
 6230TIP3    H118654   3.999   1.932   3.872
 6230TIP3    H218655   3.971   2.061   3.798
 6231TIP3   OH218656   4.528   0.755   1.255
 6231TIP3    H118657   4.519   0.713   1.340
 6231TIP3    H218658   4.441   0.746   1.214
 6232TIP3   OH218659   4.353   0.679   2.128
 6232TIP3    H118660   4.401   0.752   2.090
 6232TIP3    H218661   4.420   0.614   2.150
 6233TIP3   OH218662   1.040   2.056   4.947
 6233TIP3    H118663   0.974   1.986   4.943
 6233TIP3    H218664   0.990   2.137   4.940
 6234TIP3   OH218665   6.458   6.690   0.155
 6234TIP3    H118666   6.491   6.732   0.075
 6234TIP3    H218667   6.529   6.634   0.184
 6235TIP3   OH218668   7.018   4.109   1.231
 6235TIP3    H118669   7.108   4.089   1.204
 6235TIP3    H218670   6.987   4.173   1.167
 6236TIP3   OH218671   5.830   2.904   5.232
 6236TIP3    H118672   5.905   2.854   5.266
 6236TIP3    H218673   5.754   2.865   5.274
 6237TIP3   OH218674   1.746   5.619   1.854
 6237TIP3    H118675   1.831   5.662   1.847
 6237TIP3    H218676   1.768   5.526   1.866
 6238TIP3   OH218677   2.406   3.482   2.852
 6238TIP3    H118678   2.445   3.456   2.769
 6238TIP3    H218679   2.404   3.578   2.848
 6239TIP3   OH218680   5.178   0.101   5.250
 6239TIP3    H118681   5.243   0.034   5.272
 6239TIP3    H218682   5.196   0.173   5.310
 6240TIP3   OH218683   6.493   3.117   0.323
 6240TIP3    H118684   6.559   3.185   0.315
 6240TIP3    H218685   6.414   3.164   0.352
 6241TIP3   OH218686   1.978   5.888   3.543
 6241TIP3    H118687   1.897   5.905   3.495
 6241TIP3    H218688   1.962   5.804   3.586
 6242TIP3   OH218689   5.749   1.368   1.028
 6242TIP3    H118690   5.756   1.296   0.966
 6242TIP3    H218691   5.784   1.444   0.981
 6243TIP3   OH218692   2.014   3.106   2.079
 6243TIP3    H118693   1.992   3.047   2.151
 6243TIP3    H218694   2.108   3.121   2.087
 6244TIP3   OH218695   0.674   0.115   0.954
 6244TIP3    H118696   0.653   0.202   0.987
 6244TIP3    H218697   0.770   0.109   0.960
 6245TIP3   OH218698   2.893   4.607   4.108
 6245TIP3    H118699   2.910   4.641   4.196
 6245TIP3    H218700   2.978   4.574   4.079
 6246TIP3   OH218701   3.176   5.713   1.297
 6246TIP3    H118702   3.239   5.646   1.270
 6246TIP3    H218703   3.230   5.789   1.321
 6247TIP3   OH218704   4.041   3.126   1.027
 6247TIP3    H118705   4.111   3.081   1.074
 6247TIP3    H218706   3.965   3.068   1.034
 6248TIP3   OH218707   7.111   2.756   1.142
 6248TIP3    H118708   7.064   2.830   1.104
 6248TIP3    H218709   7.170   2.727   1.072
 6249TIP3   OH218710   4.092   1.385   5.797
 6249TIP3    H118711   4.014   1.441   5.799
 6249TIP3    H218712   4.071   1.313   5.856
 6250TIP3   OH218713   7.087   4.079   4.660
 6250TIP3    H118714   7.099   3.996   4.613
 6250TIP3    H218715   7.174   4.117   4.665
 6251TIP3   OH218716   5.391   5.476   3.646
 6251TIP3    H118717   5.325   5.517   3.702
 6251TIP3    H218718   5.474   5.515   3.675
 6252TIP3   OH218719   3.264   3.124   5.389
 6252TIP3    H118720   3.205   3.172   5.447
 6252TIP3    H218721   3.228   3.139   5.302
 6253TIP3   OH218722   4.963   1.240   4.312
 6253TIP3    H118723   4.880   1.196   4.335
 6253TIP3    H218724   4.936   1.326   4.280
 6254TIP3   OH218725   3.114   3.413   1.103
 6254TIP3    H118726   3.105   3.502   1.137
 6254TIP3    H218727   3.047   3.407   1.035
 6255TIP3   OH218728   5.068   5.525   5.378
 6255TIP3    H118729   5.140   5.526   5.316
 6255TIP3    H218730   5.000   5.580   5.339
 6256TIP3   OH218731   0.526   1.100   0.358
 6256TIP3    H118732   0.567   1.029   0.308
 6256TIP3    H218733   0.580   1.177   0.338
 6257TIP3   OH218734   4.773   0.978   1.765
 6257TIP3    H118735   4.790   1.043   1.832
 6257TIP3    H218736   4.783   0.894   1.809
 6258TIP3   OH218737   6.937   4.582   1.803
 6258TIP3    H118738   6.918   4.667   1.764
 6258TIP3    H218739   6.997   4.540   1.741
 6259TIP3   OH218740   5.903   3.714   5.356
 6259TIP3    H118741   5.873   3.704   5.447
 6259TIP3    H218742   5.946   3.799   5.355
 6260TIP3   OH218743   6.564   2.061   2.265
 6260TIP3    H118744   6.531   2.115   2.194
 6260TIP3    H218745   6.489   2.049   2.323
 6261TIP3   OH218746   3.741   6.616   3.059
 6261TIP3    H118747   3.759   6.707   3.083
 6261TIP3    H218748   3.826   6.578   3.040
 6262TIP3   OH218749   0.878   4.812   3.869
 6262TIP3    H118750   0.809   4.850   3.814
 6262TIP3    H218751   0.838   4.806   3.956
 6263TIP3   OH218752   2.446   0.340   5.358
 6263TIP3    H118753   2.432   0.363   5.450
 6263TIP3    H218754   2.520   0.394   5.331
 6264TIP3   OH218755   5.627   5.915   2.180
 6264TIP3    H118756   5.596   5.949   2.096
 6264TIP3    H218757   5.551   5.870   2.216
 6265TIP3   OH218758   3.196   2.641   1.038
 6265TIP3    H118759   3.224   2.655   0.948
 6265TIP3    H218760   3.268   2.594   1.080
 6266TIP3   OH218761   6.814   4.069   3.886
 6266TIP3    H118762   6.724   4.098   3.900
 6266TIP3    H218763   6.825   4.069   3.791
 6267TIP3   OH218764   0.462   4.486   0.833
 6267TIP3    H118765   0.551   4.464   0.860
 6267TIP3    H218766   0.409   4.476   0.913
 6268TIP3   OH218767   3.534   4.688   5.535
 6268TIP3    H118768   3.504   4.623   5.599
 6268TIP3    H218769   3.579   4.637   5.468
 6269TIP3   OH218770   1.456   1.539   1.567
 6269TIP3    H118771   1.473   1.556   1.475
 6269TIP3    H218772   1.419   1.451   1.569
 6270TIP3   OH218773   3.353   0.938   0.268
 6270TIP3    H118774   3.353   0.988   0.350
 6270TIP3    H218775   3.422   0.873   0.280
 6271TIP3   OH218776   3.090   6.362   2.462
 6271TIP3    H118777   3.172   6.356   2.511
 6271TIP3    H218778   3.116   6.352   2.371
 6272TIP3   OH218779   7.136   4.222   1.847
 6272TIP3    H118780   7.069   4.291   1.848
 6272TIP3    H218781   7.137   4.188   1.936
 6273TIP3   OH218782   7.182   6.049   0.975
 6273TIP3    H118783   7.157   6.139   0.995
 6273TIP3    H218784   7.115   5.995   1.017
 6274TIP3   OH218785   5.040   2.635   5.248
 6274TIP3    H118786   5.105   2.607   5.185
 6274TIP3    H218787   4.985   2.697   5.199
 6275TIP3   OH218788   2.283   6.080   2.758
 6275TIP3    H118789   2.311   6.125   2.678
 6275TIP3    H218790   2.243   5.999   2.727
 6276TIP3   OH218791   4.276   0.315   0.048
 6276TIP3    H118792   4.211   0.333   0.115
 6276TIP3    H218793   4.231   0.332  -0.035
 6277TIP3   OH218794   4.494   6.628   4.478
 6277TIP3    H118795   4.400   6.613   4.487
 6277TIP3    H218796   4.529   6.611   4.566
 6278TIP3   OH218797   3.774   6.697   3.847
 6278TIP3    H118798   3.753   6.605   3.826
 6278TIP3    H218799   3.870   6.698   3.852
 6279TIP3   OH218800   4.780   3.152   0.256
 6279TIP3    H118801   4.835   3.149   0.178
 6279TIP3    H218802   4.727   3.231   0.245
 6280TIP3   OH218803   6.193   5.343   0.799
 6280TIP3    H118804   6.136   5.379   0.730
 6280TIP3    H218805   6.258   5.411   0.814
 6281TIP3   OH218806   5.403   2.505   5.644
 6281TIP3    H118807   5.369   2.451   5.715
 6281TIP3    H218808   5.325   2.538   5.599
 6282TIP3   OH218809   4.497   0.188   0.306
 6282TIP3    H118810   4.454   0.110   0.340
 6282TIP3    H218811   4.440   0.260   0.332
 6283TIP3   OH218812   0.417   4.887   1.786
 6283TIP3    H118813   0.395   4.967   1.834
 6283TIP3    H218814   0.351   4.882   1.717
 6284TIP3   OH218815   0.947   3.724   4.084
 6284TIP3    H118816   0.859   3.692   4.066
 6284TIP3    H218817   0.953   3.727   4.180
 6285TIP3   OH218818   1.996   5.048   3.266
 6285TIP3    H118819   1.929   5.114   3.285
 6285TIP3    H218820   1.978   5.019   3.177
 6286TIP3   OH218821   5.032   5.403   1.401
 6286TIP3    H118822   5.093   5.432   1.468
 6286TIP3    H218823   5.059   5.314   1.379
 6287TIP3   OH218824   1.581   6.625   1.150
 6287TIP3    H118825   1.494   6.603   1.117
 6287TIP3    H218826   1.618   6.540   1.176
 6288TIP3   OH218827   2.035   6.602   2.510
 6288TIP3    H118828   1.990   6.650   2.579
 6288TIP3    H218829   1.977   6.610   2.434
 6289TIP3   OH218830   7.214   1.273   1.121
 6289TIP3    H118831   7.211   1.180   1.097
 6289TIP3    H218832   7.131   1.288   1.167
 6290TIP3   OH218833   1.553   4.335   5.721
 6290TIP3    H118834   1.495   4.339   5.645
 6290TIP3    H218835   1.635   4.298   5.687
 6291TIP3   OH218836   1.743   2.781   3.954
 6291TIP3    H118837   1.831   2.799   3.987
 6291TIP3    H218838   1.684   2.812   4.023
 6292TIP3   OH218839   4.857   1.397   2.704
 6292TIP3    H118840   4.927   1.419   2.765
 6292TIP3    H218841   4.903   1.376   2.622
 6293TIP3   OH218842   2.322   5.297   1.314
 6293TIP3    H118843   2.348   5.334   1.229
 6293TIP3    H218844   2.312   5.374   1.371
 6294TIP3   OH218845   2.356   2.248   3.250
 6294TIP3    H118846   2.293   2.291   3.308
 6294TIP3    H218847   2.316   2.252   3.163
 6295TIP3   OH218848   1.938   4.156   2.350
 6295TIP3    H118849   1.985   4.219   2.404
 6295TIP3    H218850   1.923   4.081   2.407
 6296TIP3   OH218851   5.734   6.095   3.769
 6296TIP3    H118852   5.739   6.070   3.677
 6296TIP3    H218853   5.736   6.011   3.816
 6297TIP3   OH218854   1.122   0.259   3.915
 6297TIP3    H118855   1.046   0.200   3.909
 6297TIP3    H218856   1.105   0.325   3.848
 6298TIP3   OH218857   5.497   4.075   2.632
 6298TIP3    H118858   5.554   4.063   2.708
 6298TIP3    H218859   5.459   4.163   2.645
 6299TIP3   OH218860   6.570   2.114   1.482
 6299TIP3    H118861   6.586   2.020   1.494
 6299TIP3    H218862   6.490   2.119   1.429
 6300TIP3   OH218863   1.975   4.939   4.811
 6300TIP3    H118864   2.040   4.868   4.815
 6300TIP3    H218865   2.020   5.011   4.768
 6301TIP3   OH218866   6.955   2.804   3.159
 6301TIP3    H118867   6.926   2.793   3.068
 6301TIP3    H218868   6.883   2.849   3.202
 6302TIP3   OH218869   0.143   6.482   3.228
 6302TIP3    H118870   0.220   6.442   3.186
 6302TIP3    H218871   0.098   6.410   3.271
 6303TIP3   OH218872   1.922   6.520   3.199
 6303TIP3    H118873   1.970   6.450   3.155
 6303TIP3    H218874   1.955   6.600   3.158
 6304TIP3   OH218875   5.899   4.934   2.424
 6304TIP3    H118876   5.992   4.947   2.405
 6304TIP3    H218877   5.862   5.022   2.428
 6305TIP3   OH218878   1.380   5.447   2.619
 6305TIP3    H118879   1.353   5.528   2.663
 6305TIP3    H218880   1.330   5.378   2.662
 6306TIP3   OH218881   6.482   4.348   4.997
 6306TIP3    H118882   6.514   4.265   5.034
 6306TIP3    H218883   6.474   4.329   4.903
 6307TIP3   OH218884   6.254   2.715   1.087
 6307TIP3    H118885   6.313   2.727   1.012
 6307TIP3    H218886   6.308   2.675   1.155
 6308TIP3   OH218887   5.352   5.053   1.199
 6308TIP3    H118888   5.394   5.002   1.268
 6308TIP3    H218889   5.325   4.988   1.134
 6309TIP3   OH218890   2.169   2.753   2.940
 6309TIP3    H118891   2.201   2.837   2.909
 6309TIP3    H218892   2.247   2.707   2.971
 6310TIP3   OH218893   1.045   4.675   3.094
 6310TIP3    H118894   1.137   4.651   3.086
 6310TIP3    H218895   1.031   4.686   3.188
 6311TIP3   OH218896   1.511   4.147   5.060
 6311TIP3    H118897   1.579   4.208   5.089
 6311TIP3    H218898   1.526   4.068   5.111
 6312TIP3   OH218899   3.365   4.566   1.777
 6312TIP3    H118900   3.394   4.590   1.689
 6312TIP3    H218901   3.447   4.556   1.827
 6313TIP3   OH218902   3.463   0.609   0.740
 6313TIP3    H118903   3.486   0.637   0.829
 6313TIP3    H218904   3.434   0.690   0.697
 6314TIP3   OH218905   7.116   4.363   4.529
 6314TIP3    H118906   7.114   4.267   4.525
 6314TIP3    H218907   7.062   4.385   4.605
 6315TIP3   OH218908   1.238   5.658   1.386
 6315TIP3    H118909   1.324   5.694   1.364
 6315TIP3    H218910   1.254   5.565   1.404
 6316TIP3   OH218911   6.203   5.119   2.690
 6316TIP3    H118912   6.293   5.129   2.721
 6316TIP3    H218913   6.150   5.119   2.769
 6317TIP3   OH218914   1.655   2.369   3.081
 6317TIP3    H118915   1.670   2.419   3.162
 6317TIP3    H218916   1.630   2.282   3.111
 6318TIP3   OH218917   6.151   0.558   0.255
 6318TIP3    H118918   6.198   0.598   0.182
 6318TIP3    H218919   6.061   0.589   0.245
 6319TIP3   OH218920   5.739   0.752   2.050
 6319TIP3    H118921   5.646   0.732   2.057
 6319TIP3    H218922   5.771   0.693   1.981
 6320TIP3   OH218923   3.599   1.727   3.006
 6320TIP3    H118924   3.682   1.765   2.976
 6320TIP3    H218925   3.562   1.686   2.928
 6321TIP3   OH218926   1.567   1.029   1.995
 6321TIP3    H118927   1.480   1.052   1.964
 6321TIP3    H218928   1.579   0.938   1.968
 6322TIP3   OH218929   5.065   5.738   0.984
 6322TIP3    H118930   4.970   5.747   0.977
 6322TIP3    H218931   5.091   5.699   0.900
 6323TIP3   OH218932   4.043   6.381   3.689
 6323TIP3    H118933   4.128   6.367   3.646
 6323TIP3    H218934   3.994   6.436   3.628
 6324TIP3   OH218935   6.351   5.830   5.686
 6324TIP3    H118936   6.436   5.864   5.714
 6324TIP3    H218937   6.347   5.741   5.721
 6325TIP3   OH218938   2.642   3.667   5.296
 6325TIP3    H118939   2.601   3.737   5.346
 6325TIP3    H218940   2.592   3.589   5.318
 6326TIP3   OH218941   0.232   0.560   5.111
 6326TIP3    H118942   0.216   0.654   5.116
 6326TIP3    H218943   0.304   0.551   5.049
 6327TIP3   OH218944   2.584   0.532   5.824
 6327TIP3    H118945   2.529   0.508   5.750
 6327TIP3    H218946   2.522   0.550   5.895
 6328TIP3   OH218947   4.489   3.005   1.544
 6328TIP3    H118948   4.482   3.015   1.639
 6328TIP3    H218949   4.430   2.933   1.523
 6329TIP3   OH218950   4.137   3.678   0.024
 6329TIP3    H118951   4.223   3.684   0.066
 6329TIP3    H218952   4.156   3.681  -0.070
 6330TIP3   OH218953   5.756   4.380   2.530
 6330TIP3    H118954   5.740   4.393   2.623
 6330TIP3    H218955   5.689   4.433   2.486
 6331TIP3   OH218956   3.363   5.842   4.171
 6331TIP3    H118957   3.328   5.904   4.236
 6331TIP3    H218958   3.427   5.790   4.221
 6332TIP3   OH218959   1.931   4.034   1.069
 6332TIP3    H118960   1.882   3.960   1.032
 6332TIP3    H218961   2.019   3.999   1.086
 6333TIP3   OH218962   2.023   0.877   4.125
 6333TIP3    H118963   2.040   0.802   4.182
 6333TIP3    H218964   2.076   0.860   4.047
 6334TIP3   OH218965   4.007   5.312   1.131
 6334TIP3    H118966   3.912   5.317   1.120
 6334TIP3    H218967   4.019   5.259   1.210
 6335TIP3   OH218968   0.710   6.478   5.326
 6335TIP3    H118969   0.733   6.459   5.235
 6335TIP3    H218970   0.774   6.544   5.354
 6336TIP3   OH218971   7.198   6.103   2.232
 6336TIP3    H118972   7.123   6.163   2.238
 6336TIP3    H218973   7.274   6.158   2.253
 6337TIP3   OH218974   7.191   4.741   4.316
 6337TIP3    H118975   7.120   4.693   4.359
 6337TIP3    H218976   7.210   4.814   4.376
 6338TIP3   OH218977   4.238   5.285   2.182
 6338TIP3    H118978   4.159   5.274   2.235
 6338TIP3    H218979   4.235   5.212   2.121
 6339TIP3   OH218980   0.167   4.165   0.540
 6339TIP3    H118981   0.088   4.196   0.584
 6339TIP3    H218982   0.189   4.082   0.585
 6340TIP3   OH218983   2.120   0.858   2.176
 6340TIP3    H118984   2.138   0.805   2.098
 6340TIP3    H218985   2.203   0.858   2.224
 6341TIP3   OH218986   4.747   4.402   3.845
 6341TIP3    H118987   4.757   4.416   3.751
 6341TIP3    H218988   4.652   4.394   3.858
 6342TIP3   OH218989   6.049   4.658   4.066
 6342TIP3    H118990   6.136   4.688   4.090
 6342TIP3    H218991   6.008   4.633   4.148
 6343TIP3   OH218992   3.733   4.681   0.304
 6343TIP3    H118993   3.654   4.733   0.287
 6343TIP3    H218994   3.768   4.662   0.217
 6344TIP3   OH218995   4.877   6.011   2.840
 6344TIP3    H118996   4.928   6.053   2.909
 6344TIP3    H218997   4.943   5.977   2.779
 6345TIP3   OH218998   5.350   0.458   3.321
 6345TIP3    H118999   5.299   0.392   3.274
 6345TIP3    H219000   5.373   0.417   3.403
 6346TIP3   OH219001   5.429   5.251   3.511
 6346TIP3    H119002   5.519   5.259   3.482
 6346TIP3    H219003   5.417   5.323   3.574
 6347TIP3   OH219004   0.822   2.846   5.781
 6347TIP3    H119005   0.898   2.790   5.796
 6347TIP3    H219006   0.858   2.925   5.740
 6348TIP3   OH219007   6.264   2.891   2.702
 6348TIP3    H119008   6.242   2.804   2.736
 6348TIP3    H219009   6.358   2.886   2.685
 6349TIP3   OH219010   0.855   0.323   4.298
 6349TIP3    H119011   0.799   0.398   4.318
 6349TIP3    H219012   0.932   0.361   4.256
 6350TIP3   OH219013   1.243   2.974   1.748
 6350TIP3    H119014   1.223   2.920   1.824
 6350TIP3    H219015   1.258   2.912   1.677
 6351TIP3   OH219016   3.766   4.220   2.943
 6351TIP3    H119017   3.773   4.131   2.978
 6351TIP3    H219018   3.707   4.265   3.004
 6352TIP3   OH219019   3.524   1.374   2.388
 6352TIP3    H119020   3.504   1.425   2.309
 6352TIP3    H219021   3.576   1.300   2.356
 6353TIP3   OH219022   5.706   3.426   2.948
 6353TIP3    H119023   5.633   3.438   3.009
 6353TIP3    H219024   5.743   3.514   2.937
 6354TIP3   OH219025   4.321   1.909   5.481
 6354TIP3    H119026   4.398   1.891   5.534
 6354TIP3    H219027   4.309   1.831   5.427
 6355TIP3   OH219028   5.780   5.161   0.974
 6355TIP3    H119029   5.867   5.121   0.973
 6355TIP3    H219030   5.725   5.098   0.927
 6356TIP3   OH219031   0.728   1.264   4.216
 6356TIP3    H119032   0.811   1.223   4.239
 6356TIP3    H219033   0.688   1.204   4.153
 6357TIP3   OH219034   6.162   6.094   4.540
 6357TIP3    H119035   6.109   6.139   4.474
 6357TIP3    H219036   6.174   6.159   4.609
 6358TIP3   OH219037   1.942   2.712   3.298
 6358TIP3    H119038   1.978   2.696   3.211
 6358TIP3    H219039   2.018   2.731   3.353
 6359TIP3   OH219040   1.476   1.544   2.961
 6359TIP3    H119041   1.427   1.624   2.944
 6359TIP3    H219042   1.529   1.564   3.038
 6360TIP3   OH219043   0.502   1.261   2.388
 6360TIP3    H119044   0.459   1.181   2.418
 6360TIP3    H219045   0.583   1.266   2.438
 6361TIP3   OH219046   0.381   1.608   1.136
 6361TIP3    H119047   0.427   1.590   1.054
 6361TIP3    H219048   0.342   1.524   1.161
 6362TIP3   OH219049   5.927   5.338   5.788
 6362TIP3    H119050   5.902   5.403   5.722
 6362TIP3    H219051   5.862   5.268   5.777
 6363TIP3   OH219052   4.665   4.638   2.218
 6363TIP3    H119053   4.691   4.676   2.133
 6363TIP3    H219054   4.621   4.556   2.195
 6364TIP3   OH219055   2.181   3.908   1.097
 6364TIP3    H119056   2.185   3.820   1.136
 6364TIP3    H219057   2.263   3.915   1.048
 6365TIP3   OH219058   5.590   6.534   2.902
 6365TIP3    H119059   5.530   6.481   2.956
 6365TIP3    H219060   5.567   6.511   2.812
 6366TIP3   OH219061   5.467   0.257   4.720
 6366TIP3    H119062   5.471   0.288   4.811
 6366TIP3    H219063   5.502   0.168   4.724
 6367TIP3   OH219064   6.830   5.097   4.937
 6367TIP3    H119065   6.880   5.179   4.940
 6367TIP3    H219066   6.740   5.124   4.956
 6368TIP3   OH219067   6.243   5.746   3.387
 6368TIP3    H119068   6.265   5.718   3.476
 6368TIP3    H219069   6.263   5.670   3.332
 6369TIP3   OH219070   3.010   5.020   3.131
 6369TIP3    H119071   3.030   4.971   3.211
 6369TIP3    H219072   3.065   4.979   3.064
 6370TIP3   OH219073   6.255   2.452   1.895
 6370TIP3    H119074   6.198   2.529   1.890
 6370TIP3    H219075   6.316   2.462   1.822
 6371TIP3   OH219076   1.620   6.518   5.618
 6371TIP3    H119077   1.539   6.482   5.656
 6371TIP3    H219078   1.681   6.520   5.691
 6372TIP3   OH219079   0.575   4.872   3.505
 6372TIP3    H119080   0.565   4.891   3.412
 6372TIP3    H219081   0.509   4.927   3.548
 6373TIP3   OH219082   5.547   5.294   5.177
 6373TIP3    H119083   5.592   5.335   5.251
 6373TIP3    H219084   5.577   5.344   5.101
 6374TIP3   OH219085   7.182   1.448   2.575
 6374TIP3    H119086   7.247   1.442   2.646
 6374TIP3    H219087   7.220   1.511   2.514
 6375TIP3   OH219088   1.775   3.212   1.989
 6375TIP3    H119089   1.854   3.178   2.031
 6375TIP3    H219090   1.746   3.141   1.932
 6376TIP3   OH219091   4.405   2.366   4.061
 6376TIP3    H119092   4.371   2.319   3.984
 6376TIP3    H219093   4.326   2.397   4.106
 6377TIP3   OH219094   5.388   5.722   4.689
 6377TIP3    H119095   5.391   5.762   4.775
 6377TIP3    H219096   5.400   5.794   4.628
 6378TIP3   OH219097   4.218   0.596   3.694
 6378TIP3    H119098   4.279   0.545   3.641
 6378TIP3    H219099   4.249   0.584   3.784
 6379TIP3   OH219100   3.670   3.579   5.285
 6379TIP3    H119101   3.673   3.674   5.274
 6379TIP3    H219102   3.577   3.557   5.275
 6380TIP3   OH219103   3.895   2.796   3.791
 6380TIP3    H119104   3.866   2.791   3.700
 6380TIP3    H219105   3.915   2.888   3.805
 6381TIP3   OH219106   0.676   5.000   2.635
 6381TIP3    H119107   0.727   4.949   2.697
 6381TIP3    H219108   0.643   5.074   2.687
 6382TIP3   OH219109   4.677   5.947   2.669
 6382TIP3    H119110   4.733   5.980   2.600
 6382TIP3    H219111   4.730   5.953   2.748
 6383TIP3   OH219112   6.494   1.020   4.082
 6383TIP3    H119113   6.423   1.061   4.131
 6383TIP3    H219114   6.574   1.054   4.123
 6384TIP3   OH219115   6.600   3.355   2.957
 6384TIP3    H119116   6.644   3.337   3.040
 6384TIP3    H219117   6.645   3.431   2.922
 6385TIP3   OH219118   3.377   6.290   3.828
 6385TIP3    H119119   3.375   6.301   3.923
 6385TIP3    H219120   3.373   6.195   3.815
 6386TIP3   OH219121   6.059   6.212   1.192
 6386TIP3    H119122   6.143   6.180   1.160
 6386TIP3    H219123   6.061   6.306   1.179
 6387TIP3   OH219124   5.813   5.393   1.223
 6387TIP3    H119125   5.844   5.419   1.309
 6387TIP3    H219126   5.810   5.474   1.172
 6388TIP3   OH219127   3.682   3.145   3.693
 6388TIP3    H119128   3.661   3.236   3.672
 6388TIP3    H219129   3.632   3.126   3.772
 6389TIP3   OH219130   1.601   4.941   1.517
 6389TIP3    H119131   1.545   4.875   1.476
 6389TIP3    H219132   1.684   4.935   1.470
 6390TIP3   OH219133   6.831   1.748   5.474
 6390TIP3    H119134   6.776   1.826   5.464
 6390TIP3    H219135   6.774   1.675   5.454
 6391TIP3   OH219136   5.094   2.379   2.454
 6391TIP3    H119137   5.116   2.311   2.390
 6391TIP3    H219138   5.173   2.433   2.460
 6392TIP3   OH219139   4.044   1.047   5.571
 6392TIP3    H119140   4.116   1.095   5.529
 6392TIP3    H219141   4.023   0.977   5.508
 6393TIP3   OH219142   3.127   5.901   1.537
 6393TIP3    H119143   3.186   5.834   1.571
 6393TIP3    H219144   3.044   5.885   1.581
 6394TIP3   OH219145   0.746   4.113   0.785
 6394TIP3    H119146   0.759   4.197   0.828
 6394TIP3    H219147   0.755   4.132   0.691
 6395TIP3   OH219148   2.820   4.118   3.200
 6395TIP3    H119149   2.784   4.035   3.170
 6395TIP3    H219150   2.743   4.174   3.212
 6396TIP3   OH219151   6.380   3.971   4.187
 6396TIP3    H119152   6.393   4.030   4.261
 6396TIP3    H219153   6.356   4.029   4.114
 6397TIP3   OH219154   0.689   0.735   2.589
 6397TIP3    H119155   0.596   0.720   2.575
 6397TIP3    H219156   0.730   0.650   2.575
 6398TIP3   OH219157   3.058   1.662   2.897
 6398TIP3    H119158   3.129   1.681   2.957
 6398TIP3    H219159   3.086   1.585   2.848
 6399TIP3   OH219160   0.864   5.824   2.746
 6399TIP3    H119161   0.784   5.875   2.758
 6399TIP3    H219162   0.848   5.742   2.792
 6400TIP3   OH219163   4.914   6.164   1.443
 6400TIP3    H119164   4.939   6.111   1.520
 6400TIP3    H219165   4.997   6.187   1.402
 6401TIP3   OH219166   4.525   0.972   5.576
 6401TIP3    H119167   4.559   0.895   5.623
 6401TIP3    H219168   4.473   1.019   5.641
 6402TIP3   OH219169   7.061   5.380   0.888
 6402TIP3    H119170   7.140   5.401   0.939
 6402TIP3    H219171   7.064   5.284   0.879
 6403TIP3   OH219172   3.072   5.897   1.140
 6403TIP3    H119173   3.112   5.873   1.056
 6403TIP3    H219174   3.109   5.836   1.203
 6404TIP3   OH219175   5.289   3.772   2.808
 6404TIP3    H119176   5.214   3.712   2.805
 6404TIP3    H219177   5.350   3.738   2.743
 6405TIP3   OH219178   5.877   5.565   3.365
 6405TIP3    H119179   5.802   5.621   3.345
 6405TIP3    H219180   5.915   5.604   3.444
 6406TIP3   OH219181   6.723   1.207   4.032
 6406TIP3    H119182   6.732   1.206   3.937
 6406TIP3    H219183   6.793   1.149   4.064
 6407TIP3   OH219184   6.032   2.402   2.747
 6407TIP3    H119185   5.958   2.346   2.724
 6407TIP3    H219186   6.058   2.372   2.835
 6408TIP3   OH219187   4.922   1.542   0.870
 6408TIP3    H119188   4.930   1.621   0.817
 6408TIP3    H219189   4.834   1.546   0.907
 6409TIP3   OH219190   3.843   3.752   4.977
 6409TIP3    H119191   3.814   3.733   5.066
 6409TIP3    H219192   3.923   3.804   4.989
 6410TIP3   OH219193   5.320   2.871   3.110
 6410TIP3    H119194   5.404   2.918   3.110
 6410TIP3    H219195   5.257   2.934   3.076
 6411TIP3   OH219196   2.049   0.666   3.781
 6411TIP3    H119197   2.058   0.573   3.802
 6411TIP3    H219198   2.125   0.708   3.820
 6412TIP3   OH219199   1.899   0.492   3.337
 6412TIP3    H119200   1.882   0.574   3.290
 6412TIP3    H219201   1.964   0.516   3.403
 6413TIP3   OH219202   3.923   4.413   1.847
 6413TIP3    H119203   4.004   4.368   1.820
 6413TIP3    H219204   3.910   4.386   1.938
 6414TIP3   OH219205   6.355   5.302   5.006
 6414TIP3    H119206   6.328   5.247   5.079
 6414TIP3    H219207   6.389   5.382   5.047
 6415TIP3   OH219208   2.474   2.423   2.314
 6415TIP3    H119209   2.480   2.332   2.285
 6415TIP3    H219210   2.483   2.474   2.233
 6416TIP3   OH219211   4.358   0.462   4.755
 6416TIP3    H119212   4.300   0.538   4.760
 6416TIP3    H219213   4.420   0.484   4.685
 6417TIP3   OH219214   0.179   6.039   3.140
 6417TIP3    H119215   0.184   6.081   3.054
 6417TIP3    H219216   0.220   5.953   3.128
 6418TIP3   OH219217   3.168   2.797   5.833
 6418TIP3    H119218   3.178   2.821   5.741
 6418TIP3    H219219   3.257   2.795   5.868
 6419TIP3   OH219220   4.260   4.179   0.802
 6419TIP3    H119221   4.330   4.221   0.851
 6419TIP3    H219222   4.190   4.244   0.799
 6420TIP3   OH219223   0.159   0.197   5.142
 6420TIP3    H119224   0.216   0.267   5.111
 6420TIP3    H219225   0.149   0.139   5.066
 6421TIP3   OH219226   4.158   0.290   2.342
 6421TIP3    H119227   4.151   0.203   2.381
 6421TIP3    H219228   4.067   0.317   2.328
 6422TIP3   OH219229   6.363   2.276   2.836
 6422TIP3    H119230   6.392   2.347   2.779
 6422TIP3    H219231   6.438   2.216   2.839
 6423TIP3   OH219232   6.229   4.834   0.414
 6423TIP3    H119233   6.149   4.846   0.363
 6423TIP3    H219234   6.233   4.911   0.470
 6424TIP3   OH219235   0.721   4.420   0.607
 6424TIP3    H119236   0.709   4.417   0.702
 6424TIP3    H219237   0.788   4.354   0.589
 6425TIP3   OH219238   2.768   2.063   5.273
 6425TIP3    H119239   2.737   2.142   5.229
 6425TIP3    H219240   2.772   1.997   5.204
 6426TIP3   OH219241   6.782   1.852   0.076
 6426TIP3    H119242   6.850   1.800   0.034
 6426TIP3    H219243   6.722   1.876   0.004
 6427TIP3   OH219244   7.186   1.169   3.569
 6427TIP3    H119245   7.222   1.183   3.481
 6427TIP3    H219246   7.200   1.252   3.614
 6428TIP3   OH219247   3.627   4.500   0.682
 6428TIP3    H119248   3.641   4.406   0.673
 6428TIP3    H219249   3.572   4.509   0.760
 6429TIP3   OH219250   2.421   1.897   3.458
 6429TIP3    H119251   2.407   1.864   3.369
 6429TIP3    H219252   2.516   1.906   3.466
 6430TIP3   OH219253   6.522   0.473   3.014
 6430TIP3    H119254   6.525   0.550   2.958
 6430TIP3    H219255   6.442   0.428   2.988
 6431TIP3   OH219256   6.400   0.216   2.228
 6431TIP3    H119257   6.451   0.265   2.162
 6431TIP3    H219258   6.401   0.126   2.196
 6432TIP3   OH219259   6.668   2.855   5.768
 6432TIP3    H119260   6.636   2.796   5.699
 6432TIP3    H219261   6.737   2.805   5.811
 6433TIP3   OH219262   3.858   2.177   3.120
 6433TIP3    H119263   3.946   2.211   3.105
 6433TIP3    H219264   3.802   2.254   3.124
 6434TIP3   OH219265   6.202   2.232   0.199
 6434TIP3    H119266   6.109   2.214   0.197
 6434TIP3    H219267   6.237   2.169   0.263
 6435TIP3   OH219268   2.306   4.725   1.355
 6435TIP3    H119269   2.315   4.666   1.430
 6435TIP3    H219270   2.395   4.755   1.337
 6436TIP3   OH219271   3.594   5.069   4.488
 6436TIP3    H119272   3.648   5.113   4.422
 6436TIP3    H219273   3.506   5.069   4.451
 6437TIP3   OH219274   2.707   6.703   5.038
 6437TIP3    H119275   2.802   6.699   5.051
 6437TIP3    H219276   2.679   6.777   5.092
 6438TIP3   OH219277   1.171   2.585   2.990
 6438TIP3    H119278   1.108   2.604   2.920
 6438TIP3    H219279   1.135   2.628   3.067
 6439TIP3   OH219280   0.245   1.912   4.687
 6439TIP3    H119281   0.160   1.951   4.707
 6439TIP3    H219282   0.242   1.825   4.727
 6440TIP3   OH219283   1.955   1.114   0.308
 6440TIP3    H119284   1.905   1.037   0.284
 6440TIP3    H219285   1.972   1.104   0.402
 6441TIP3   OH219286   4.806   3.997   0.143
 6441TIP3    H119287   4.856   4.078   0.143
 6441TIP3    H219288   4.769   3.991   0.232
 6442TIP3   OH219289   2.313   0.406   0.650
 6442TIP3    H119290   2.408   0.400   0.639
 6442TIP3    H219291   2.278   0.334   0.598
 6443TIP3   OH219292   1.445   3.927   3.274
 6443TIP3    H119293   1.474   3.882   3.353
 6443TIP3    H219294   1.349   3.926   3.280
 6444TIP3   OH219295   6.664   3.890   0.314
 6444TIP3    H119296   6.748   3.908   0.272
 6444TIP3    H219297   6.602   3.946   0.269
 6445TIP3   OH219298   2.856   0.945   0.438
 6445TIP3    H119299   2.871   0.949   0.344
 6445TIP3    H219300   2.843   1.037   0.464
 6446TIP3   OH219301   7.081   2.413   1.043
 6446TIP3    H119302   7.021   2.484   1.022
 6446TIP3    H219303   7.101   2.373   0.959
 6447TIP3   OH219304   3.486   1.947   0.815
 6447TIP3    H119305   3.482   2.041   0.834
 6447TIP3    H219306   3.565   1.917   0.859
 6448TIP3   OH219307   6.549   1.915   4.897
 6448TIP3    H119308   6.639   1.902   4.865
 6448TIP3    H219309   6.529   2.007   4.876
 6449TIP3   OH219310  -0.009   2.573   5.860
 6449TIP3    H119311  -0.098   2.590   5.829
 6449TIP3    H219312   0.008   2.483   5.835
 6450TIP3   OH219313   1.096   1.035   1.081
 6450TIP3    H119314   1.079   1.128   1.096
 6450TIP3    H219315   1.074   1.021   0.989
 6451TIP3   OH219316   6.205   0.570   2.507
 6451TIP3    H119317   6.231   0.536   2.421
 6451TIP3    H219318   6.129   0.518   2.532
 6452TIP3   OH219319   0.226   5.393   4.716
 6452TIP3    H119320   0.207   5.481   4.749
 6452TIP3    H219321   0.297   5.361   4.772
 6453TIP3   OH219322   1.047   5.085   2.047
 6453TIP3    H119323   1.128   5.040   2.071
 6453TIP3    H219324   0.980   5.017   2.049
 6454TIP3   OH219325   7.192   3.031   4.375
 6454TIP3    H119326   7.122   2.967   4.380
 6454TIP3    H219327   7.270   2.981   4.353
 6455TIP3   OH219328   0.031   6.402   1.168
 6455TIP3    H119329   0.086   6.457   1.224
 6455TIP3    H219330   0.092   6.365   1.104
 6456TIP3   OH219331   2.881   0.857   2.569
 6456TIP3    H119332   2.897   0.891   2.657
 6456TIP3    H219333   2.791   0.884   2.549
 6457TIP3   OH219334   1.692   5.140   5.532
 6457TIP3    H119335   1.640   5.148   5.452
 6457TIP3    H219336   1.647   5.072   5.583
 6458TIP3   OH219337   0.434   5.827   0.687
 6458TIP3    H119338   0.451   5.882   0.764
 6458TIP3    H219339   0.505   5.764   0.686
 6459TIP3   OH219340   4.188   4.608   1.555
 6459TIP3    H119341   4.253   4.671   1.585
 6459TIP3    H219342   4.239   4.533   1.525
 6460TIP3   OH219343   5.921   3.101   3.493
 6460TIP3    H119344   5.955   3.036   3.431
 6460TIP3    H219345   5.844   3.138   3.449
 6461TIP3   OH219346   1.069   1.417   4.645
 6461TIP3    H119347   1.021   1.494   4.614
 6461TIP3    H219348   1.025   1.393   4.727
 6462TIP3   OH219349   1.298   2.256   0.173
 6462TIP3    H119350   1.330   2.342   0.198
 6462TIP3    H219351   1.249   2.271   0.092
 6463TIP3   OH219352   5.912   1.738   4.866
 6463TIP3    H119353   5.863   1.668   4.908
 6463TIP3    H219354   5.995   1.698   4.841
 6464TIP3   OH219355   4.092   2.096   0.497
 6464TIP3    H119356   4.109   2.153   0.422
 6464TIP3    H219357   4.178   2.057   0.517
 6465TIP3   OH219358   4.392   0.845   3.045
 6465TIP3    H119359   4.338   0.835   3.123
 6465TIP3    H219360   4.455   0.913   3.069
 6466TIP3   OH219361   5.885   2.534   0.528
 6466TIP3    H119362   5.941   2.581   0.467
 6466TIP3    H219363   5.858   2.455   0.481
 6467TIP3   OH219364   6.812   4.299   4.904
 6467TIP3    H119365   6.823   4.312   4.998
 6467TIP3    H219366   6.760   4.219   4.896
 6468TIP3   OH219367   6.877   4.282   1.018
 6468TIP3    H119368   6.857   4.228   0.942
 6468TIP3    H219369   6.791   4.303   1.055
 6469TIP3   OH219370   7.020   6.608   1.381
 6469TIP3    H119371   6.953   6.600   1.312
 6469TIP3    H219372   6.994   6.543   1.446
 6470TIP3   OH219373   3.889   0.097   1.312
 6470TIP3    H119374   3.975   0.112   1.274
 6470TIP3    H219375   3.834   0.166   1.277
 6471TIP3   OH219376   6.924   2.242   5.601
 6471TIP3    H119377   6.977   2.286   5.534
 6471TIP3    H219378   6.889   2.164   5.557
 6472TIP3   OH219379   3.705   0.074   2.652
 6472TIP3    H119380   3.672   0.102   2.567
 6472TIP3    H219381   3.800   0.071   2.642
 6473TIP3   OH219382   5.263   1.566   1.777
 6473TIP3    H119383   5.258   1.521   1.861
 6473TIP3    H219384   5.194   1.527   1.724
 6474TIP3   OH219385   2.386   4.437   0.294
 6474TIP3    H119386   2.340   4.500   0.350
 6474TIP3    H219387   2.321   4.368   0.279
 6475TIP3   OH219388   2.506   6.075   2.969
 6475TIP3    H119389   2.414   6.095   2.947
 6475TIP3    H219390   2.501   6.034   3.055
 6476TIP3   OH219391   2.672   4.932   5.709
 6476TIP3    H119392   2.680   4.914   5.616
 6476TIP3    H219393   2.760   4.918   5.745
 6477TIP3   OH219394   5.920   1.290   2.394
 6477TIP3    H119395   5.919   1.208   2.443
 6477TIP3    H219396   5.997   1.283   2.338
 6478TIP3   OH219397   0.435   3.786   1.240
 6478TIP3    H119398   0.466   3.809   1.327
 6478TIP3    H219399   0.339   3.784   1.249
 6479TIP3   OH219400   0.326   2.210   5.678
 6479TIP3    H119401   0.378   2.132   5.699
 6479TIP3    H219402   0.266   2.181   5.610
 6480TIP3   OH219403   1.321   0.517   0.841
 6480TIP3    H119404   1.234   0.520   0.881
 6480TIP3    H219405   1.315   0.573   0.764
 6481TIP3   OH219406   5.428   1.825   0.005
 6481TIP3    H119407   5.516   1.795  -0.014
 6481TIP3    H219408   5.389   1.755   0.057
 6482TIP3   OH219409   3.310   1.280   2.181
 6482TIP3    H119410   3.335   1.356   2.234
 6482TIP3    H219411   3.350   1.297   2.096
 6483TIP3   OH219412   5.952   0.942   4.529
 6483TIP3    H119413   5.976   1.024   4.486
 6483TIP3    H219414   6.031   0.916   4.576
 6484TIP3   OH219415   4.151   0.021   2.972
 6484TIP3    H119416   4.120  -0.070   2.973
 6484TIP3    H219417   4.242   0.015   3.002
 6485TIP3   OH219418   2.864   0.955   3.749
 6485TIP3    H119419   2.928   1.019   3.718
 6485TIP3    H219420   2.827   0.995   3.829
 6486TIP3   OH219421   0.118   0.807   2.884
 6486TIP3    H119422   0.105   0.715   2.906
 6486TIP3    H219423   0.201   0.810   2.838
 6487TIP3   OH219424   5.000   0.742   5.643
 6487TIP3    H119425   4.940   0.692   5.588
 6487TIP3    H219426   4.993   0.702   5.729
 6488TIP3   OH219427   0.367   6.518   0.493
 6488TIP3    H119428   0.355   6.593   0.434
 6488TIP3    H219429   0.324   6.445   0.447
 6489TIP3   OH219430   5.994   0.136   2.548
 6489TIP3    H119431   6.050   0.084   2.490
 6489TIP3    H219432   6.020   0.109   2.636
 6490TIP3   OH219433   5.233   6.694   2.122
 6490TIP3    H119434   5.254   6.693   2.029
 6490TIP3    H219435   5.250   6.784   2.149
 6491TIP3   OH219436   3.927   6.524   1.351
 6491TIP3    H119437   3.980   6.445   1.353
 6491TIP3    H219438   3.952   6.569   1.271
 6492TIP3   OH219439   3.314   1.270   0.659
 6492TIP3    H119440   3.397   1.272   0.708
 6492TIP3    H219441   3.285   1.361   0.657
 6493TIP3   OH219442   3.215   2.710   0.762
 6493TIP3    H119443   3.172   2.787   0.799
 6493TIP3    H219444   3.299   2.743   0.729
 6494TIP3   OH219445   3.610   6.031   4.097
 6494TIP3    H119446   3.599   6.120   4.131
 6494TIP3    H219447   3.525   5.990   4.109
 6495TIP3   OH219448   5.392   3.868   2.472
 6495TIP3    H119449   5.436   3.938   2.519
 6495TIP3    H219450   5.424   3.787   2.512
 6496TIP3   OH219451   2.897   2.725   4.971
 6496TIP3    H119452   2.961   2.760   5.034
 6496TIP3    H219453   2.916   2.631   4.968
 6497TIP3   OH219454   1.148   2.023   4.145
 6497TIP3    H119455   1.217   2.061   4.198
 6497TIP3    H219456   1.184   1.940   4.114
 6498TIP3   OH219457   1.456   5.228   0.694
 6498TIP3    H119458   1.510   5.192   0.625
 6498TIP3    H219459   1.393   5.284   0.649
 6499TIP3   OH219460   6.047   0.364   3.951
 6499TIP3    H119461   6.050   0.460   3.945
 6499TIP3    H219462   6.029   0.347   4.044
 6500TIP3   OH219463   3.200   6.234   5.787
 6500TIP3    H119464   3.106   6.223   5.795
 6500TIP3    H219465   3.212   6.318   5.743
 6501TIP3   OH219466   0.457   6.231   4.654
 6501TIP3    H119467   0.475   6.146   4.694
 6501TIP3    H219468   0.493   6.295   4.716
 6502TIP3   OH219469   6.975   4.031   3.597
 6502TIP3    H119470   7.017   4.036   3.683
 6502TIP3    H219471   7.039   4.071   3.538
 6503TIP3   OH219472   3.809   1.333   2.544
 6503TIP3    H119473   3.856   1.261   2.586
 6503TIP3    H219474   3.807   1.402   2.609
 6504TIP3   OH219475   2.786   0.335   3.687
 6504TIP3    H119476   2.716   0.331   3.753
 6504TIP3    H219477   2.789   0.427   3.661
 6505TIP3   OH219478   2.104   1.569   0.496
 6505TIP3    H119479   2.062   1.543   0.578
 6505TIP3    H219480   2.197   1.550   0.510
 6506TIP3   OH219481   1.524   3.334   5.317
 6506TIP3    H119482   1.491   3.253   5.280
 6506TIP3    H219483   1.447   3.390   5.325
 6507TIP3   OH219484   3.228   2.100   3.040
 6507TIP3    H119485   3.144   2.072   3.003
 6507TIP3    H219486   3.284   2.022   3.032
 6508TIP3   OH219487   6.358   2.592   4.676
 6508TIP3    H119488   6.404   2.671   4.646
 6508TIP3    H219489   6.426   2.539   4.718
 6509TIP3   OH219490   0.028   6.225   4.194
 6509TIP3    H119491   0.075   6.147   4.223
 6509TIP3    H219492  -0.058   6.218   4.235
 6510TIP3   OH219493   4.763   4.718   5.365
 6510TIP3    H119494   4.728   4.790   5.417
 6510TIP3    H219495   4.700   4.706   5.294
 6511TIP3   OH219496   2.215   4.970   5.382
 6511TIP3    H119497   2.292   4.933   5.338
 6511TIP3    H219498   2.249   5.047   5.427
 6512TIP3   OH219499   4.884   4.190   3.989
 6512TIP3    H119500   4.896   4.227   4.076
 6512TIP3    H219501   4.825   4.251   3.945
 6513TIP3   OH219502   4.636   3.326   0.090
 6513TIP3    H119503   4.677   3.324   0.003
 6513TIP3    H219504   4.544   3.304   0.073
 6514TIP3   OH219505   1.651   2.710   5.411
 6514TIP3    H119506   1.743   2.695   5.432
 6514TIP3    H219507   1.603   2.671   5.484
 6515TIP3   OH219508   6.969   4.527   2.287
 6515TIP3    H119509   7.011   4.457   2.338
 6515TIP3    H219510   7.033   4.548   2.220
 6516TIP3   OH219511   6.618   3.531   4.307
 6516TIP3    H119512   6.590   3.606   4.255
 6516TIP3    H219513   6.713   3.525   4.291
 6517TIP3   OH219514   4.851   2.614   4.376
 6517TIP3    H119515   4.859   2.700   4.417
 6517TIP3    H219516   4.898   2.623   4.293
 6518TIP3   OH219517   5.769   5.570   5.912
 6518TIP3    H119518   5.680   5.536   5.926
 6518TIP3    H219519   5.784   5.560   5.819
 6519TIP3   OH219520   1.336   0.794   0.020
 6519TIP3    H119521   1.414   0.778   0.073
 6519TIP3    H219522   1.263   0.788   0.082
 6520TIP3   OH219523   0.111   0.636   3.564
 6520TIP3    H119524   0.063   0.707   3.521
 6520TIP3    H219525   0.067   0.556   3.535
 6521TIP3   OH219526   5.786   0.237   4.433
 6521TIP3    H119527   5.696   0.205   4.437
 6521TIP3    H219528   5.779   0.332   4.444
 6522TIP3   OH219529   6.898   2.808   5.062
 6522TIP3    H119530   6.945   2.846   5.136
 6522TIP3    H219531   6.931   2.718   5.057
 6523TIP3   OH219532   4.641   5.843   5.462
 6523TIP3    H119533   4.731   5.850   5.492
 6523TIP3    H219534   4.617   5.752   5.481
 6524TIP3   OH219535   6.798   6.381   4.989
 6524TIP3    H119536   6.790   6.307   4.930
 6524TIP3    H219537   6.866   6.436   4.950
 6525TIP3   OH219538   7.078   2.117   1.105
 6525TIP3    H119539   7.091   2.104   1.011
 6525TIP3    H219540   7.081   2.212   1.116
 6526TIP3   OH219541   2.977   1.084   3.338
 6526TIP3    H119542   3.015   1.111   3.422
 6526TIP3    H219543   2.987   1.160   3.281
 6527TIP3   OH219544   2.887   1.050   0.136
 6527TIP3    H119545   2.918   0.998   0.062
 6527TIP3    H219546   2.792   1.040   0.133
 6528TIP3   OH219547   3.132   6.456   3.064
 6528TIP3    H119548   3.122   6.404   3.144
 6528TIP3    H219549   3.077   6.533   3.078
 6529TIP3   OH219550   1.864   3.352   4.054
 6529TIP3    H119551   1.862   3.362   4.149
 6529TIP3    H219552   1.857   3.441   4.020
 6530TIP3   OH219553   4.091   5.860   4.634
 6530TIP3    H119554   4.041   5.779   4.649
 6530TIP3    H219555   4.175   5.831   4.600
 6531TIP3   OH219556   0.164   5.782   4.279
 6531TIP3    H119557   0.071   5.761   4.267
 6531TIP3    H219558   0.171   5.807   4.371
 6532TIP3   OH219559   1.790   1.924   0.382
 6532TIP3    H119560   1.736   2.003   0.379
 6532TIP3    H219561   1.864   1.948   0.439
 6533TIP3   OH219562   3.019   2.089   5.436
 6533TIP3    H119563   3.036   2.009   5.386
 6533TIP3    H219564   2.958   2.139   5.381
 6534TIP3   OH219565   0.323   1.937   2.964
 6534TIP3    H119566   0.400   1.990   2.944
 6534TIP3    H219567   0.304   1.890   2.882
 6535TIP3   OH219568   3.236   3.019   3.352
 6535TIP3    H119569   3.159   3.073   3.370
 6535TIP3    H219570   3.268   2.993   3.438
 6536TIP3   OH219571   3.510   5.578   0.474
 6536TIP3    H119572   3.468   5.550   0.393
 6536TIP3    H219573   3.493   5.672   0.478
 6537TIP3   OH219574   4.103   0.180   4.085
 6537TIP3    H119575   4.154   0.201   4.163
 6537TIP3    H219576   4.037   0.249   4.080
 6538TIP3   OH219577   5.471   0.575   4.674
 6538TIP3    H119578   5.530   0.506   4.706
 6538TIP3    H219579   5.385   0.534   4.669
 6539TIP3   OH219580   4.475   2.326   1.637
 6539TIP3    H119581   4.498   2.364   1.722
 6539TIP3    H219582   4.380   2.317   1.640
 6540TIP3   OH219583   5.528   2.034   4.218
 6540TIP3    H119584   5.509   1.948   4.257
 6540TIP3    H219585   5.618   2.028   4.189
 6541TIP3   OH219586   5.513   6.401   2.674
 6541TIP3    H119587   5.505   6.306   2.679
 6541TIP3    H219588   5.484   6.423   2.586
 6542TIP3   OH219589   2.894   1.880   2.220
 6542TIP3    H119590   2.981   1.901   2.255
 6542TIP3    H219591   2.841   1.957   2.241
 6543TIP3   OH219592   2.384   3.801   2.375
 6543TIP3    H119593   2.405   3.708   2.369
 6543TIP3    H219594   2.288   3.804   2.369
 6544TIP3   OH219595   4.116   3.733   5.461
 6544TIP3    H119596   4.059   3.798   5.502
 6544TIP3    H219597   4.177   3.707   5.530
 6545TIP3   OH219598   6.607   4.123   1.094
 6545TIP3    H119599   6.608   4.072   1.013
 6545TIP3    H219600   6.568   4.064   1.158
 6546TIP3   OH219601   6.025   2.359   2.114
 6546TIP3    H119602   6.020   2.264   2.118
 6546TIP3    H219603   6.079   2.377   2.036
 6547TIP3   OH219604   1.952   0.590   0.564
 6547TIP3    H119605   1.870   0.633   0.588
 6547TIP3    H219606   1.933   0.496   0.569
 6548TIP3   OH219607   1.802   2.339   1.933
 6548TIP3    H119608   1.760   2.291   2.004
 6548TIP3    H219609   1.816   2.427   1.967
 6549TIP3   OH219610   5.188   3.914   0.134
 6549TIP3    H119611   5.260   3.852   0.134
 6549TIP3    H219612   5.141   3.897   0.053
 6550TIP3   OH219613   4.268   2.526   4.473
 6550TIP3    H119614   4.356   2.563   4.470
 6550TIP3    H219615   4.218   2.589   4.525
 6551TIP3   OH219616   2.505   2.594   1.324
 6551TIP3    H119617   2.537   2.646   1.398
 6551TIP3    H219618   2.431   2.545   1.359
 6552TIP3   OH219619   1.215   0.532   1.840
 6552TIP3    H119620   1.167   0.473   1.897
 6552TIP3    H219621   1.154   0.603   1.822
 6553TIP3   OH219622   0.945   6.241   1.587
 6553TIP3    H119623   0.975   6.325   1.621
 6553TIP3    H219624   0.905   6.197   1.662
 6554TIP3   OH219625   6.150   1.406   1.488
 6554TIP3    H119626   6.090   1.417   1.562
 6554TIP3    H219627   6.214   1.342   1.518
 6555TIP3   OH219628   4.909   6.272   1.746
 6555TIP3    H119629   4.847   6.292   1.676
 6555TIP3    H219630   4.922   6.177   1.740
 6556TIP3   OH219631   5.978   0.558   0.592
 6556TIP3    H119632   5.987   0.639   0.543
 6556TIP3    H219633   6.047   0.501   0.559
 6557TIP3   OH219634   1.417   5.492   4.753
 6557TIP3    H119635   1.340   5.435   4.755
 6557TIP3    H219636   1.491   5.432   4.749
 6558TIP3   OH219637   4.266   0.277   1.056
 6558TIP3    H119638   4.276   0.299   1.148
 6558TIP3    H219639   4.240   0.185   1.056
 6559TIP3   OH219640   3.456   6.444   0.946
 6559TIP3    H119641   3.496   6.530   0.931
 6559TIP3    H219642   3.362   6.461   0.942
 6560TIP3   OH219643   1.944   2.638   1.104
 6560TIP3    H119644   1.954   2.715   1.159
 6560TIP3    H219645   2.027   2.630   1.058
 6561TIP3   OH219646   0.801   6.259   0.184
 6561TIP3    H119647   0.723   6.233   0.234
 6561TIP3    H219648   0.781   6.346   0.151
 6562TIP3   OH219649   1.268   3.160   4.566
 6562TIP3    H119650   1.212   3.135   4.492
 6562TIP3    H219651   1.280   3.079   4.615
 6563TIP3   OH219652   2.591   6.489   5.681
 6563TIP3    H119653   2.575   6.571   5.633
 6563TIP3    H219654   2.663   6.447   5.634
 6564TIP3   OH219655   6.832   3.045   3.635
 6564TIP3    H119656   6.909   3.032   3.690
 6564TIP3    H219657   6.804   3.135   3.653
 6565TIP3   OH219658   0.781   2.281   5.418
 6565TIP3    H119659   0.821   2.241   5.495
 6565TIP3    H219660   0.797   2.375   5.429
 6566TIP3   OH219661   1.688   1.612   5.620
 6566TIP3    H119662   1.644   1.654   5.694
 6566TIP3    H219663   1.649   1.525   5.615
 6567TIP3   OH219664   3.789   6.626   1.571
 6567TIP3    H119665   3.862   6.621   1.633
 6567TIP3    H219666   3.820   6.578   1.494
 6568TIP3   OH219667   3.265   2.724   0.116
 6568TIP3    H119668   3.173   2.748   0.107
 6568TIP3    H219669   3.313   2.802   0.090
 6569TIP3   OH219670   3.938   1.542   4.526
 6569TIP3    H119671   3.850   1.556   4.491
 6569TIP3    H219672   3.927   1.473   4.591
 6570TIP3   OH219673   5.327   5.050   0.456
 6570TIP3    H119674   5.301   4.960   0.475
 6570TIP3    H219675   5.324   5.094   0.542
 6571TIP3   OH219676   0.624   6.060   4.019
 6571TIP3    H119677   0.538   6.103   4.021
 6571TIP3    H219678   0.669   6.095   4.096
 6572TIP3   OH219679   1.299   6.197   4.507
 6572TIP3    H119680   1.315   6.291   4.515
 6572TIP3    H219681   1.218   6.182   4.555
 6573TIP3   OH219682   5.204   0.487   4.118
 6573TIP3    H119683   5.121   0.516   4.156
 6573TIP3    H219684   5.260   0.468   4.193
 6574TIP3   OH219685   0.141   1.008   2.559
 6574TIP3    H119686   0.086   1.050   2.492
 6574TIP3    H219687   0.094   1.024   2.641
 6575TIP3   OH219688   3.378   1.052   1.789
 6575TIP3    H119689   3.326   0.985   1.834
 6575TIP3    H219690   3.380   1.024   1.698
 6576TIP3   OH219691   4.399   2.212   0.085
 6576TIP3    H119692   4.384   2.267   0.162
 6576TIP3    H219693   4.322   2.155   0.080
 6577TIP3   OH219694   1.616   0.686   5.629
 6577TIP3    H119695   1.521   0.695   5.630
 6577TIP3    H219696   1.638   0.680   5.536
 6578TIP3   OH219697   3.198   4.653   5.316
 6578TIP3    H119698   3.278   4.626   5.273
 6578TIP3    H219699   3.170   4.578   5.368
 6579TIP3   OH219700   2.980   0.034   0.018
 6579TIP3    H119701   2.945   0.105   0.071
 6579TIP3    H219702   3.040   0.078  -0.043
 6580TIP3   OH219703   3.879   0.991   1.877
 6580TIP3    H119704   3.796   1.035   1.863
 6580TIP3    H219705   3.916   1.034   1.954
 6581TIP3   OH219706   4.796   0.149   2.414
 6581TIP3    H119707   4.822   0.241   2.402
 6581TIP3    H219708   4.824   0.106   2.333
 6582TIP3   OH219709   5.513   2.669   0.398
 6582TIP3    H119710   5.468   2.590   0.366
 6582TIP3    H219711   5.447   2.738   0.392
 6583TIP3   OH219712   0.843   0.071   3.077
 6583TIP3    H119713   0.838  -0.007   3.132
 6583TIP3    H219714   0.901   0.046   3.005
 6584TIP3   OH219715   2.804   5.994   5.086
 6584TIP3    H119716   2.808   6.084   5.121
 6584TIP3    H219717   2.886   5.954   5.113
 6585TIP3   OH219718   3.752   1.054   3.745
 6585TIP3    H119719   3.804   0.992   3.694
 6585TIP3    H219720   3.774   1.140   3.708
 6586TIP3   OH219721   3.285   5.142   0.337
 6586TIP3    H119722   3.247   5.109   0.256
 6586TIP3    H219723   3.212   5.144   0.399
 6587TIP3   OH219724   1.130   4.864   0.163
 6587TIP3    H119725   1.049   4.886   0.210
 6587TIP3    H219726   1.195   4.851   0.232
 6588TIP3   OH219727   4.831   2.422   4.002
 6588TIP3    H119728   4.926   2.410   4.013
 6588TIP3    H219729   4.820   2.442   3.909
 6589TIP3   OH219730   4.236   3.720   3.989
 6589TIP3    H119731   4.219   3.751   3.900
 6589TIP3    H219732   4.184   3.640   3.997
 6590TIP3   OH219733   4.541   5.726   2.275
 6590TIP3    H119734   4.601   5.734   2.200
 6590TIP3    H219735   4.599   5.720   2.351
 6591TIP3   OH219736   3.146   0.950   4.100
 6591TIP3    H119737   3.185   0.870   4.067
 6591TIP3    H219738   3.091   0.981   4.028
 6592TIP3   OH219739   2.197   5.818   4.934
 6592TIP3    H119740   2.191   5.829   4.839
 6592TIP3    H219741   2.258   5.746   4.947
 6593TIP3   OH219742   3.841   3.600   1.356
 6593TIP3    H119743   3.872   3.691   1.351
 6593TIP3    H219744   3.912   3.553   1.400
 6594TIP3   OH219745   0.253   5.693   0.918
 6594TIP3    H119746   0.323   5.628   0.908
 6594TIP3    H219747   0.289   5.758   0.978
 6595TIP3   OH219748   4.713   6.429   4.777
 6595TIP3    H119749   4.641   6.486   4.750
 6595TIP3    H219750   4.772   6.428   4.702
 6596TIP3   OH219751   4.649   1.414   1.752
 6596TIP3    H119752   4.606   1.451   1.828
 6596TIP3    H219753   4.714   1.479   1.726
 6597TIP3   OH219754   1.386   5.783   5.846
 6597TIP3    H119755   1.359   5.712   5.788
 6597TIP3    H219756   1.394   5.742   5.932
 6598TIP3   OH219757   0.194   1.788   2.730
 6598TIP3    H119758   0.283   1.773   2.700
 6598TIP3    H219759   0.151   1.830   2.655
 6599TIP3   OH219760   6.745   0.587   3.160
 6599TIP3    H119761   6.795   0.507   3.139
 6599TIP3    H219762   6.661   0.574   3.117
 6600TIP3   OH219763   0.148   1.284   3.113
 6600TIP3    H119764   0.184   1.204   3.075
 6600TIP3    H219765   0.223   1.343   3.121
 6601TIP3   OH219766   1.815   6.550   0.621
 6601TIP3    H119767   1.767   6.616   0.571
 6601TIP3    H219768   1.780   6.466   0.590
 6602TIP3   OH219769   5.159   5.676   2.361
 6602TIP3    H119770   5.109   5.754   2.381
 6602TIP3    H219771   5.210   5.659   2.440
 6603TIP3   OH219772   1.993   2.202   5.436
 6603TIP3    H119773   1.934   2.128   5.453
 6603TIP3    H219774   2.081   2.162   5.436
 6604TIP3   OH219775   4.368   4.913   3.540
 6604TIP3    H119776   4.379   4.823   3.569
 6604TIP3    H219777   4.447   4.933   3.490
 6605TIP3   OH219778   2.260   1.067   4.942
 6605TIP3    H119779   2.286   1.004   5.010
 6605TIP3    H219780   2.306   1.037   4.864
 6606TIP3   OH219781   4.706   2.407   5.123
 6606TIP3    H119782   4.656   2.465   5.065
 6606TIP3    H219783   4.719   2.327   5.072
 6607TIP3   OH219784   1.986   2.583   0.024
 6607TIP3    H119785   1.945   2.519   0.082
 6607TIP3    H219786   1.956   2.560  -0.063
 6608TIP3   OH219787   1.923   2.864   2.966
 6608TIP3    H119788   2.007   2.817   2.965
 6608TIP3    H219789   1.861   2.804   2.925
 6609TIP3   OH219790   5.419   3.599   5.628
 6609TIP3    H119791   5.485   3.625   5.563
 6609TIP3    H219792   5.416   3.673   5.688
 6610TIP3   OH219793   2.811   0.597   4.618
 6610TIP3    H119794   2.751   0.659   4.577
 6610TIP3    H219795   2.892   0.603   4.568
 6611TIP3   OH219796   0.991   5.769   0.133
 6611TIP3    H119797   0.934   5.828   0.085
 6611TIP3    H219798   0.961   5.681   0.110
 6612TIP3   OH219799   2.812   0.871   3.134
 6612TIP3    H119800   2.865   0.902   3.208
 6612TIP3    H219801   2.759   0.801   3.171
 6613TIP3   OH219802   1.012   3.298   1.782
 6613TIP3    H119803   1.073   3.262   1.717
 6613TIP3    H219804   1.059   3.370   1.822
 6614TIP3   OH219805   6.330   6.246   4.723
 6614TIP3    H119806   6.402   6.198   4.763
 6614TIP3    H219807   6.299   6.304   4.793
 6615TIP3   OH219808   1.314   0.619   1.588
 6615TIP3    H119809   1.316   0.578   1.674
 6615TIP3    H219810   1.405   0.647   1.572
 6616TIP3   OH219811   0.299   0.283   4.012
 6616TIP3    H119812   0.391   0.290   3.987
 6616TIP3    H219813   0.252   0.279   3.928
 6617TIP3   OH219814   2.073   4.343   2.487
 6617TIP3    H119815   2.079   4.381   2.575
 6617TIP3    H219816   2.084   4.418   2.429
 6618TIP3   OH219817   5.401   0.935   5.018
 6618TIP3    H119818   5.325   0.918   4.961
 6618TIP3    H219819   5.448   1.006   4.974
 6619TIP3   OH219820   3.511   3.533   0.639
 6619TIP3    H119821   3.599   3.572   0.642
 6619TIP3    H219822   3.524   3.449   0.595
 6620TIP3   OH219823   6.345   1.896   2.102
 6620TIP3    H119824   6.310   1.853   2.024
 6620TIP3    H219825   6.296   1.858   2.175
 6621TIP3   OH219826   4.107   3.275   3.026
 6621TIP3    H119827   4.179   3.334   3.045
 6621TIP3    H219828   4.145   3.208   2.970
 6622TIP3   OH219829   4.307   3.664   4.268
 6622TIP3    H119830   4.338   3.634   4.182
 6622TIP3    H219831   4.386   3.667   4.322
 6623TIP3   OH219832   5.669   2.883   4.107
 6623TIP3    H119833   5.718   2.801   4.105
 6623TIP3    H219834   5.624   2.882   4.191
 6624TIP3   OH219835   0.946   3.196   2.100
 6624TIP3    H119836   0.996   3.253   2.043
 6624TIP3    H219837   0.870   3.171   2.048
 6625TIP3   OH219838   5.896   0.987   3.150
 6625TIP3    H119839   5.976   0.936   3.138
 6625TIP3    H219840   5.825   0.924   3.140
 6626TIP3   OH219841   0.345   2.000   5.040
 6626TIP3    H119842   0.312   2.083   5.076
 6626TIP3    H219843   0.276   1.936   5.060
 6627TIP3   OH219844   2.754   4.610   0.534
 6627TIP3    H119845   2.803   4.538   0.574
 6627TIP3    H219846   2.733   4.579   0.446
 6628TIP3   OH219847   5.360   3.214   2.161
 6628TIP3    H119848   5.390   3.290   2.112
 6628TIP3    H219849   5.367   3.240   2.253
 6629TIP3   OH219850   5.721  -0.055   2.255
 6629TIP3    H119851   5.701   0.028   2.212
 6629TIP3    H219852   5.722  -0.034   2.349
 6630TIP3   OH219853   6.777   2.127   4.406
 6630TIP3    H119854   6.818   2.201   4.450
 6630TIP3    H219855   6.797   2.052   4.462
 6631TIP3   OH219856   1.864   4.956   0.688
 6631TIP3    H119857   1.844   5.039   0.644
 6631TIP3    H219858   1.906   4.903   0.620
 6632TIP3   OH219859   3.939   1.168   5.130
 6632TIP3    H119860   3.854   1.141   5.164
 6632TIP3    H219861   4.001   1.105   5.166
 6633TIP3   OH219862   4.828   3.128   4.916
 6633TIP3    H119863   4.738   3.110   4.887
 6633TIP3    H219864   4.821   3.207   4.969
 6634TIP3   OH219865   0.262   6.031   1.981
 6634TIP3    H119866   0.262   6.091   2.055
 6634TIP3    H219867   0.198   5.964   2.004
 6635TIP3   OH219868   4.724   1.645   3.324
 6635TIP3    H119869   4.676   1.704   3.382
 6635TIP3    H219870   4.670   1.640   3.245
 6636TIP3   OH219871   5.681   1.140   3.604
 6636TIP3    H119872   5.726   1.075   3.658
 6636TIP3    H219873   5.665   1.213   3.663
 6637TIP3   OH219874   5.495   6.542   1.382
 6637TIP3    H119875   5.501   6.621   1.329
 6637TIP3    H219876   5.474   6.573   1.470
 6638TIP3   OH219877   1.154   5.150   4.562
 6638TIP3    H119878   1.247   5.165   4.580
 6638TIP3    H219879   1.115   5.131   4.647
 6639TIP3   OH219880   4.973   1.158   4.855
 6639TIP3    H119881   4.986   1.190   4.944
 6639TIP3    H219882   4.891   1.108   4.859
 6640TIP3   OH219883   3.874   5.092   2.371
 6640TIP3    H119884   3.967   5.086   2.349
 6640TIP3    H219885   3.864   5.035   2.448
 6641TIP3   OH219886   2.760   2.418   1.978
 6641TIP3    H119887   2.746   2.390   2.068
 6641TIP3    H219888   2.818   2.494   1.986
 6642TIP3   OH219889   6.566   4.974   0.559
 6642TIP3    H119890   6.549   5.068   0.571
 6642TIP3    H219891   6.661   4.965   0.569
 6643TIP3   OH219892   5.170   0.878   4.922
 6643TIP3    H119893   5.080   0.850   4.909
 6643TIP3    H219894   5.175   0.904   5.014
 6644TIP3   OH219895   2.199   5.673   3.294
 6644TIP3    H119896   2.207   5.581   3.317
 6644TIP3    H219897   2.105   5.692   3.304
 6645TIP3   OH219898   4.379   0.102   3.603
 6645TIP3    H119899   4.287   0.121   3.621
 6645TIP3    H219900   4.376   0.026   3.544
 6646TIP3   OH219901   6.199   0.255   2.009
 6646TIP3    H119902   6.136   0.269   2.080
 6646TIP3    H219903   6.265   0.323   2.022
 6647TIP3   OH219904   0.268   3.060   0.074
 6647TIP3    H119905   0.337   3.126   0.069
 6647TIP3    H219906   0.223   3.066  -0.010
 6648TIP3   OH219907   4.185   3.965   3.501
 6648TIP3    H119908   4.092   3.964   3.521
 6648TIP3    H219909   4.228   3.958   3.586
 6649TIP3   OH219910   3.221   3.058   4.958
 6649TIP3    H119911   3.208   3.103   4.875
 6649TIP3    H219912   3.308   3.018   4.950
 6650TIP3   OH219913   4.253   4.038   3.226
 6650TIP3    H119914   4.240   4.017   3.318
 6650TIP3    H219915   4.166   4.063   3.194
 6651TIP3   OH219916   0.821   3.752   5.165
 6651TIP3    H119917   0.895   3.796   5.208
 6651TIP3    H219918   0.837   3.659   5.179
 6652TIP3   OH219919   2.445   2.254   5.674
 6652TIP3    H119920   2.507   2.198   5.628
 6652TIP3    H219921   2.458   2.341   5.636
 6653TIP3   OH219922   5.347   2.831   5.154
 6653TIP3    H119923   5.359   2.926   5.154
 6653TIP3    H219924   5.278   2.816   5.219
 6654TIP3   OH219925   0.294   3.775   2.880
 6654TIP3    H119926   0.250   3.691   2.871
 6654TIP3    H219927   0.376   3.765   2.831
 6655TIP3   OH219928   5.578   2.334   0.231
 6655TIP3    H119929   5.519   2.306   0.161
 6655TIP3    H219930   5.658   2.359   0.186
 6656TIP3   OH219931   3.100   0.483   3.332
 6656TIP3    H119932   3.169   0.417   3.327
 6656TIP3    H219933   3.103   0.526   3.246
 6657TIP3   OH219934   1.521   2.692   5.001
 6657TIP3    H119935   1.526   2.602   5.033
 6657TIP3    H219936   1.612   2.721   4.997
 6658TIP3   OH219937   0.121   3.756   4.941
 6658TIP3    H119938   0.135   3.771   5.034
 6658TIP3    H219939   0.048   3.693   4.938
 6659TIP3   OH219940   6.841   5.426   5.303
 6659TIP3    H119941   6.874   5.337   5.315
 6659TIP3    H219942   6.834   5.461   5.393
 6660TIP3   OH219943   6.100   3.655   3.397
 6660TIP3    H119944   6.047   3.577   3.381
 6660TIP3    H219945   6.040   3.729   3.383
 6661TIP3   OH219946   7.055   3.794   2.581
 6661TIP3    H119947   7.025   3.716   2.628
 6661TIP3    H219948   7.120   3.760   2.519
 6662TIP3   OH219949   4.978   4.490   3.975
 6662TIP3    H119950   4.888   4.472   3.948
 6662TIP3    H219951   4.988   4.442   4.057
 6663TIP3   OH219952   1.637   2.310   2.161
 6663TIP3    H119953   1.547   2.315   2.129
 6663TIP3    H219954   1.629   2.287   2.254
 6664TIP3   OH219955   3.318   5.267   5.724
 6664TIP3    H119956   3.290   5.176   5.714
 6664TIP3    H219957   3.414   5.263   5.724
 6665TIP3   OH219958   6.317   5.227   2.382
 6665TIP3    H119959   6.325   5.245   2.476
 6665TIP3    H219960   6.341   5.310   2.340
 6666TIP3   OH219961   0.915   3.529   3.097
 6666TIP3    H119962   0.837   3.583   3.083
 6666TIP3    H219963   0.918   3.516   3.192
 6667TIP3   OH219964   3.921   0.541   4.660
 6667TIP3    H119965   3.858   0.594   4.611
 6667TIP3    H219966   4.000   0.594   4.664
 6668TIP3   OH219967   4.434   1.163   1.273
 6668TIP3    H119968   4.432   1.231   1.340
 6668TIP3    H219969   4.387   1.089   1.312
 6669TIP3   OH219970   5.366   1.696   0.699
 6669TIP3    H119971   5.432   1.660   0.757
 6669TIP3    H219972   5.414   1.719   0.619
 6670TIP3   OH219973   5.063   6.558   1.513
 6670TIP3    H119974   4.971   6.570   1.537
 6670TIP3    H219975   5.098   6.647   1.508
 6671TIP3   OH219976   0.910   0.512   0.297
 6671TIP3    H119977   0.878   0.475   0.215
 6671TIP3    H219978   0.952   0.438   0.341
 6672TIP3   OH219979   4.451   6.020   0.359
 6672TIP3    H119980   4.407   5.992   0.279
 6672TIP3    H219981   4.380   6.036   0.422
 6673TIP3   OH219982   2.741   1.631   2.245
 6673TIP3    H119983   2.663   1.660   2.292
 6673TIP3    H219984   2.810   1.691   2.273
 6674TIP3   OH219985   5.765   5.264   0.136
 6674TIP3    H119986   5.712   5.306   0.069
 6674TIP3    H219987   5.793   5.181   0.097
 6675TIP3   OH219988   3.570   2.340   0.219
 6675TIP3    H119989   3.628   2.411   0.249
 6675TIP3    H219990   3.517   2.381   0.151
 6676TIP3   OH219991   5.752   5.856   1.235
 6676TIP3    H119992   5.776   5.839   1.326
 6676TIP3    H219993   5.804   5.932   1.210
 6677TIP3   OH219994   1.938   6.334   4.072
 6677TIP3    H119995   2.034   6.335   4.063
 6677TIP3    H219996   1.916   6.422   4.102
 6678TIP3   OH219997   3.880   6.593   5.300
 6678TIP3    H119998   3.829   6.543   5.364
 6678TIP3    H219999   3.883   6.681   5.336
 6679TIP3   OH220000   5.139   5.925   2.719
 6679TIP3    H120001   5.231   5.931   2.697
 6679TIP3    H220002   5.126   5.834   2.747
 6680TIP3   OH220003   4.589   5.284   2.376
 6680TIP3    H120004   4.548   5.199   2.360
 6680TIP3    H220005   4.539   5.323   2.448
 6681TIP3   OH220006   4.146   0.386   0.299
 6681TIP3    H120007   4.079   0.410   0.364
 6681TIP3    H220008   4.210   0.456   0.304
 6682TIP3   OH220009   3.339   5.031   1.790
 6682TIP3    H120010   3.284   5.000   1.862
 6682TIP3    H220011   3.316   4.974   1.716
 6683TIP3   OH220012   5.733   1.226   4.319
 6683TIP3    H120013   5.655   1.195   4.365
 6683TIP3    H220014   5.763   1.301   4.371
 6684TIP3   OH220015   2.519   0.868   3.429
 6684TIP3    H120016   2.523   0.838   3.338
 6684TIP3    H220017   2.610   0.873   3.457
 6685TIP3   OH220018   6.120   5.936   5.797
 6685TIP3    H120019   6.202   5.938   5.749
 6685TIP3    H220020   6.096   5.843   5.800
 6686TIP3   OH220021   3.452   1.595   2.830
 6686TIP3    H120022   3.512   1.542   2.778
 6686TIP3    H220023   3.401   1.532   2.879
 6687TIP3   OH220024   2.918   2.007   5.765
 6687TIP3    H120025   2.956   2.067   5.828
 6687TIP3    H220026   2.843   1.968   5.810
 6688TIP3   OH220027   3.949   4.057   2.763
 6688TIP3    H120028   3.883   4.114   2.803
 6688TIP3    H220029   3.977   4.000   2.834
 6689TIP3   OH220030   4.866   0.915   0.961
 6689TIP3    H120031   4.923   0.849   1.000
 6689TIP3    H220032   4.814   0.948   1.034
 6690TIP3   OH220033   1.851   3.233   3.785
 6690TIP3    H120034   1.783   3.292   3.754
 6690TIP3    H220035   1.891   3.278   3.859
 6691TIP3   OH220036   3.343   0.503   5.219
 6691TIP3    H120037   3.267   0.560   5.226
 6691TIP3    H220038   3.418   0.563   5.212
 6692TIP3   OH220039   0.671   0.930   4.237
 6692TIP3    H120040   0.641   0.982   4.163
 6692TIP3    H220041   0.756   0.895   4.210
 6693TIP3   OH220042   2.433   0.653   3.585
 6693TIP3    H120043   2.468   0.731   3.542
 6693TIP3    H220044   2.408   0.683   3.672
 6694TIP3   OH220045   6.131   5.462   3.843
 6694TIP3    H120046   6.220   5.480   3.811
 6694TIP3    H220047   6.122   5.367   3.835
 6695TIP3   OH220048   4.364   4.665   2.927
 6695TIP3    H120049   4.405   4.614   2.996
 6695TIP3    H220050   4.437   4.688   2.868
 6696TIP3   OH220051   0.019   2.627   3.463
 6696TIP3    H120052  -0.064   2.658   3.498
 6696TIP3    H220053   0.013   2.644   3.369
 6697TIP3   OH220054   1.602   0.400   0.895
 6697TIP3    H120055   1.676   0.348   0.927
 6697TIP3    H220056   1.608   0.483   0.943
 6698TIP3   OH220057   0.539   1.999   3.503
 6698TIP3    H120058   0.513   1.987   3.411
 6698TIP3    H220059   0.492   1.930   3.550
 6699TIP3   OH220060   5.738   0.225   0.060
 6699TIP3    H120061   5.696   0.264  -0.017
 6699TIP3    H220062   5.778   0.299   0.106
 6700TIP3   OH220063   4.300   4.544   0.685
 6700TIP3    H120064   4.258   4.537   0.599
 6700TIP3    H220065   4.393   4.546   0.666
 6701TIP3   OH220066   3.777   4.042   1.687
 6701TIP3    H120067   3.788   4.021   1.780
 6701TIP3    H220068   3.748   4.133   1.686
 6702TIP3   OH220069   0.064   3.359   3.694
 6702TIP3    H120070   0.034   3.440   3.654
 6702TIP3    H220071   0.031   3.290   3.636
 6703TIP3   OH220072   4.959   6.075   3.519
 6703TIP3    H120073   5.041   6.039   3.553
 6703TIP3    H220074   4.959   6.050   3.426
 6704TIP3   OH220075   2.420   4.975   1.172
 6704TIP3    H120076   2.475   4.937   1.104
 6704TIP3    H220077   2.465   4.954   1.254
 6705TIP3   OH220078   4.815   2.872   4.418
 6705TIP3    H120079   4.863   2.953   4.436
 6705TIP3    H220080   4.763   2.891   4.341
 6706TIP3   OH220081   5.965   4.272   2.773
 6706TIP3    H120082   5.879   4.313   2.781
 6706TIP3    H220083   5.952   4.200   2.712
 6707TIP3   OH220084   1.482   0.192   5.009
 6707TIP3    H120085   1.526   0.275   5.028
 6707TIP3    H220086   1.518   0.165   4.924
 6708TIP3   OH220087   1.051   5.380   5.259
 6708TIP3    H120088   0.964   5.354   5.230
 6708TIP3    H220089   1.083   5.438   5.191
 6709TIP3   OH220090   0.196   3.782   5.233
 6709TIP3    H120091   0.243   3.857   5.196
 6709TIP3    H220092   0.130   3.822   5.291
 6710TIP3   OH220093   1.845   4.907   4.550
 6710TIP3    H120094   1.900   4.910   4.628
 6710TIP3    H220095   1.786   4.833   4.565
 6711TIP3   OH220096   3.164   5.019   5.644
 6711TIP3    H120097   3.113   4.986   5.718
 6711TIP3    H220098   3.108   5.086   5.605
 6712TIP3   OH220099   3.287   1.858   0.646
 6712TIP3    H120100   3.311   1.819   0.730
 6712TIP3    H220101   3.369   1.895   0.612
 6713TIP3   OH220102   2.158   2.302   0.958
 6713TIP3    H120103   2.190   2.241   0.891
 6713TIP3    H220104   2.065   2.283   0.966
 6714TIP3   OH220105   0.057   5.084   0.363
 6714TIP3    H120106   0.086   5.086   0.454
 6714TIP3    H220107   0.085   5.168   0.327
 6715TIP3   OH220108   2.107   4.464   5.246
 6715TIP3    H120109   2.145   4.385   5.206
 6715TIP3    H220110   2.096   4.525   5.173
 6716TIP3   OH220111   3.517   1.615   0.465
 6716TIP3    H120112   3.605   1.580   0.449
 6716TIP3    H220113   3.463   1.574   0.397
 6717TIP3   OH220114   2.015   0.707   5.323
 6717TIP3    H120115   2.024   0.651   5.401
 6717TIP3    H220116   2.051   0.791   5.350
 6718TIP3   OH220117   5.657   3.347   2.251
 6718TIP3    H120118   5.638   3.383   2.337
 6718TIP3    H220119   5.651   3.422   2.192
 6719TIP3   OH220120   4.159   2.392   5.430
 6719TIP3    H120121   4.223   2.458   5.401
 6719TIP3    H220122   4.184   2.312   5.385
 6720TIP3   OH220123   1.539   0.615   3.239
 6720TIP3    H120124   1.560   0.533   3.284
 6720TIP3    H220125   1.451   0.638   3.271
 6721TIP3   OH220126   5.275   4.862   4.142
 6721TIP3    H120127   5.368   4.878   4.154
 6721TIP3    H220128   5.234   4.948   4.147
 6722TIP3   OH220129   3.485   3.403   0.129
 6722TIP3    H120130   3.422   3.375   0.063
 6722TIP3    H220131   3.471   3.498   0.136
 6723TIP3   OH220132   6.306   5.117   1.130
 6723TIP3    H120133   6.319   5.061   1.206
 6723TIP3    H220134   6.352   5.072   1.059
 6724TIP3   OH220135   3.611   2.718   2.220
 6724TIP3    H120136   3.683   2.778   2.205
 6724TIP3    H220137   3.560   2.721   2.139
 6725TIP3   OH220138   5.579   6.066   0.176
 6725TIP3    H120139   5.584   6.097   0.086
 6725TIP3    H220140   5.563   6.145   0.228
 6726TIP3   OH220141   3.260   4.650   0.364
 6726TIP3    H120142   3.277   4.581   0.299
 6726TIP3    H220143   3.292   4.613   0.446
 6727TIP3   OH220144   5.471   5.756   5.055
 6727TIP3    H120145   5.452   5.680   5.110
 6727TIP3    H220146   5.415   5.826   5.091
 6728TIP3   OH220147   6.654   0.109   3.850
 6728TIP3    H120148   6.661   0.111   3.946
 6728TIP3    H220149   6.609   0.190   3.827
 6729TIP3   OH220150   2.476   1.025   3.785
 6729TIP3    H120151   2.523   0.948   3.755
 6729TIP3    H220152   2.430   1.057   3.708
 6730TIP3   OH220153   2.209   6.156   4.839
 6730TIP3    H120154   2.168   6.195   4.915
 6730TIP3    H220155   2.136   6.119   4.789
 6731TIP3   OH220156   5.861   0.494   3.130
 6731TIP3    H120157   5.789   0.439   3.098
 6731TIP3    H220158   5.841   0.509   3.222
 6732TIP3   OH220159   6.057   4.386   0.424
 6732TIP3    H120160   6.032   4.462   0.477
 6732TIP3    H220161   5.996   4.387   0.350
 6733TIP3   OH220162   0.752   1.876   3.792
 6733TIP3    H120163   0.785   1.862   3.704
 6733TIP3    H220164   0.728   1.788   3.823
 6734TIP3   OH220165   2.348   5.360   5.760
 6734TIP3    H120166   2.437   5.366   5.796
 6734TIP3    H220167   2.318   5.451   5.759
 6735TIP3   OH220168   3.334   0.887   5.685
 6735TIP3    H120169   3.312   0.910   5.594
 6735TIP3    H220170   3.249   0.868   5.725
 6736TIP3   OH220171   1.131   6.033   1.131
 6736TIP3    H120172   1.104   6.076   1.213
 6736TIP3    H220173   1.107   5.941   1.143
 6737TIP3   OH220174   6.623   1.472   2.720
 6737TIP3    H120175   6.635   1.533   2.792
 6737TIP3    H220176   6.538   1.432   2.736
 6738TIP3   OH220177   5.849   0.969   1.414
 6738TIP3    H120178   5.778   1.028   1.440
 6738TIP3    H220179   5.857   0.980   1.320
 6739TIP3   OH220180   6.550   1.663   4.621
 6739TIP3    H120181   6.480   1.722   4.648
 6739TIP3    H220182   6.567   1.685   4.529
 6740TIP3   OH220183   5.653   2.542   4.082
 6740TIP3    H120184   5.694   2.546   3.996
 6740TIP3    H220185   5.670   2.453   4.113
 6741TIP3   OH220186   0.209   1.785   0.938
 6741TIP3    H120187   0.185   1.704   0.982
 6741TIP3    H220188   0.290   1.813   0.982
 6742TIP3   OH220189   6.063   1.992   1.155
 6742TIP3    H120190   6.103   1.910   1.183
 6742TIP3    H220191   5.969   1.980   1.170
 6743TIP3   OH220192   2.393   1.925   5.443
 6743TIP3    H120193   2.458   1.857   5.425
 6743TIP3    H220194   2.348   1.939   5.360
 6744TIP3   OH220195   5.589   6.359   3.343
 6744TIP3    H120196   5.568   6.452   3.341
 6744TIP3    H220197   5.617   6.338   3.254
 6745TIP3   OH220198   6.150   2.242   1.367
 6745TIP3    H120199   6.070   2.249   1.419
 6745TIP3    H220200   6.182   2.332   1.360
 6746TIP3   OH220201   6.095   2.453   5.633
 6746TIP3    H120202   6.108   2.369   5.678
 6746TIP3    H220203   6.104   2.518   5.702
 6747TIP3   OH220204   6.841   4.159   0.396
 6747TIP3    H120205   6.903   4.231   0.387
 6747TIP3    H220206   6.756   4.201   0.407
 6748TIP3   OH220207   4.661   0.881   2.762
 6748TIP3    H120208   4.754   0.903   2.764
 6748TIP3    H220209   4.643   0.858   2.671
 6749TIP3   OH220210   1.600   1.774   4.735
 6749TIP3    H120211   1.572   1.714   4.665
 6749TIP3    H220212   1.554   1.856   4.716
 6750TIP3   OH220213   4.907   5.268   0.635
 6750TIP3    H120214   4.839   5.261   0.569
 6750TIP3    H220215   4.860   5.269   0.719
 6751TIP3   OH220216   1.925   6.737   5.490
 6751TIP3    H120217   1.966   6.654   5.518
 6751TIP3    H220218   1.872   6.763   5.566
 6752TIP3   OH220219   5.847   4.515   4.873
 6752TIP3    H120220   5.882   4.444   4.927
 6752TIP3    H220221   5.760   4.533   4.911
 6753TIP3   OH220222   4.521   0.611   5.518
 6753TIP3    H120223   4.463   0.542   5.551
 6753TIP3    H220224   4.477   0.645   5.441
 6754TIP3   OH220225   5.751   1.468   5.211
 6754TIP3    H120226   5.774   1.491   5.121
 6754TIP3    H220227   5.765   1.548   5.261
 6755TIP3   OH220228   2.882   1.878   4.621
 6755TIP3    H120229   2.877   1.827   4.702
 6755TIP3    H220230   2.970   1.861   4.588
 6756TIP3   OH220231   0.076   5.198   1.299
 6756TIP3    H120232   0.041   5.165   1.381
 6756TIP3    H220233   0.164   5.228   1.321
 6757TIP3   OH220234   2.506   2.218   4.322
 6757TIP3    H120235   2.543   2.273   4.392
 6757TIP3    H220236   2.568   2.227   4.250
 6758TIP3   OH220237   0.754   2.549   0.345
 6758TIP3    H120238   0.704   2.567   0.266
 6758TIP3    H220239   0.801   2.631   0.364
 6759TIP3   OH220240   1.425   4.553   2.213
 6759TIP3    H120241   1.397   4.592   2.296
 6759TIP3    H220242   1.431   4.626   2.152
 6760TIP3   OH220243   4.899   5.628   3.293
 6760TIP3    H120244   4.901   5.598   3.385
 6760TIP3    H220245   4.980   5.678   3.283
 6761TIP3   OH220246   2.646   1.985   4.653
 6761TIP3    H120247   2.602   1.924   4.711
 6761TIP3    H220248   2.729   1.942   4.631
 6762TIP3   OH220249   4.409   6.286   2.006
 6762TIP3    H120250   4.433   6.194   2.009
 6762TIP3    H220251   4.444   6.323   2.087
 6763TIP3   OH220252   2.606   5.184   1.126
 6763TIP3    H120253   2.591   5.105   1.074
 6763TIP3    H220254   2.576   5.256   1.071
 6764TIP3   OH220255   5.912   0.209   4.192
 6764TIP3    H120256   5.885   0.198   4.283
 6764TIP3    H220257   5.842   0.261   4.152
 6765TIP3   OH220258   6.503   1.113   0.268
 6765TIP3    H120259   6.454   1.032   0.252
 6765TIP3    H220260   6.595   1.086   0.266
 6766TIP3   OH220261   4.981   5.164   2.232
 6766TIP3    H120262   4.985   5.106   2.308
 6766TIP3    H220263   4.954   5.248   2.267
 6767TIP3   OH220264   4.210   1.932   5.822
 6767TIP3    H120265   4.116   1.926   5.807
 6767TIP3    H220266   4.243   1.844   5.806
 6768TIP3   OH220267   5.592   0.766   4.081
 6768TIP3    H120268   5.534   0.787   4.154
 6768TIP3    H220269   5.532   0.745   4.009
 6769TIP3   OH220270   6.940   2.443  -0.005
 6769TIP3    H120271   6.993   2.382   0.047
 6769TIP3    H220272   6.881   2.483   0.058
 6770TIP3   OH220273   2.169   2.459   0.451
 6770TIP3    H120274   2.187   2.385   0.393
 6770TIP3    H220275   2.078   2.447   0.478
 6771TIP3   OH220276   6.001   1.794   0.868
 6771TIP3    H120277   5.992   1.799   0.773
 6771TIP3    H220278   6.060   1.721   0.883
 6772TIP3   OH220279   0.706   3.627   0.364
 6772TIP3    H120280   0.697   3.683   0.287
 6772TIP3    H220281   0.797   3.640   0.393
 6773TIP3   OH220282   2.430   3.705   4.255
 6773TIP3    H120283   2.510   3.725   4.303
 6773TIP3    H220284   2.361   3.750   4.303
 6774TIP3   OH220285   6.048   3.297   1.745
 6774TIP3    H120286   5.982   3.234   1.717
 6774TIP3    H220287   6.000   3.359   1.799
 6775TIP3   OH220288   5.351   1.728   4.585
 6775TIP3    H120289   5.343   1.712   4.679
 6775TIP3    H220290   5.303   1.656   4.544
 6776TIP3   OH220291   5.763   1.348   3.412
 6776TIP3    H120292   5.705   1.302   3.351
 6776TIP3    H220293   5.762   1.294   3.491
 6777TIP3   OH220294   6.380   1.832   2.546
 6777TIP3    H120295   6.474   1.815   2.545
 6777TIP3    H220296   6.346   1.777   2.617
 6778TIP3   OH220297   2.972   3.115   1.631
 6778TIP3    H120298   3.023   3.112   1.550
 6778TIP3    H220299   3.009   3.189   1.680
 6779TIP3   OH220300   3.788   3.342   0.525
 6779TIP3    H120301   3.743   3.325   0.608
 6779TIP3    H220302   3.835   3.260   0.507
 6780TIP3   OH220303   2.170   5.113   2.956
 6780TIP3    H120304   2.087   5.068   2.971
 6780TIP3    H220305   2.227   5.082   3.026
 6781TIP3   OH220306   3.058   4.460   2.256
 6781TIP3    H120307   3.107   4.502   2.185
 6781TIP3    H220308   3.105   4.487   2.335
 6782TIP3   OH220309   4.813   1.506   1.569
 6782TIP3    H120310   4.760   1.553   1.505
 6782TIP3    H220311   4.801   1.413   1.547
 6783TIP3   OH220312   2.455   6.330   4.864
 6783TIP3    H120313   2.366   6.296   4.855
 6783TIP3    H220314   2.482   6.349   4.774
 6784TIP3   OH220315   1.989   2.707   5.811
 6784TIP3    H120316   2.036   2.762   5.748
 6784TIP3    H220317   2.050   2.636   5.830
 6785TIP3   OH220318   4.156   5.055   3.472
 6785TIP3    H120319   4.237   5.012   3.498
 6785TIP3    H220320   4.184   5.139   3.436
 6786TIP3   OH220321   4.716   6.054   1.311
 6786TIP3    H120322   4.689   6.123   1.249
 6786TIP3    H220323   4.799   6.085   1.347
 6787TIP3   OH220324   6.649   5.681   2.101
 6787TIP3    H120325   6.639   5.754   2.040
 6787TIP3    H220326   6.633   5.603   2.048
 6788TIP3   OH220327   1.185   2.100   1.418
 6788TIP3    H120328   1.124   2.125   1.488
 6788TIP3    H220329   1.174   2.168   1.352
 6789TIP3   OH220330   4.715   1.170   0.517
 6789TIP3    H120331   4.764   1.153   0.598
 6789TIP3    H220332   4.755   1.250   0.482
 6790TIP3   OH220333   5.948   5.415   2.248
 6790TIP3    H120334   5.962   5.505   2.277
 6790TIP3    H220335   5.992   5.410   2.163
 6791TIP3   OH220336   6.132   0.113   3.066
 6791TIP3    H120337   6.039   0.127   3.083
 6791TIP3    H220338   6.176   0.154   3.141
 6792TIP3   OH220339   5.035   3.145   3.324
 6792TIP3    H120340   5.092   3.130   3.399
 6792TIP3    H220341   5.093   3.142   3.248
 6793TIP3   OH220342   6.413   3.526   1.958
 6793TIP3    H120343   6.468   3.512   2.034
 6793TIP3    H220344   6.387   3.618   1.963
 6794TIP3   OH220345   7.029   5.882   5.901
 6794TIP3    H120346   7.098   5.919   5.845
 6794TIP3    H220347   7.061   5.896   5.990
 6795TIP3   OH220348   0.586   0.301   2.629
 6795TIP3    H120349   0.664   0.301   2.574
 6795TIP3    H220350   0.614   0.340   2.711
 6796TIP3   OH220351   4.800   3.431   4.743
 6796TIP3    H120352   4.719   3.477   4.720
 6796TIP3    H220353   4.807   3.362   4.677
 6797TIP3   OH220354   4.880   0.352   4.150
 6797TIP3    H120355   4.933   0.285   4.193
 6797TIP3    H220356   4.891   0.335   4.056
 6798TIP3   OH220357   3.328   2.995   1.495
 6798TIP3    H120358   3.240   2.972   1.465
 6798TIP3    H220359   3.313   3.064   1.560
 6799TIP3   OH220360   2.918   5.223   5.126
 6799TIP3    H120361   2.920   5.211   5.031
 6799TIP3    H220362   2.987   5.166   5.159
 6800TIP3   OH220363   4.193   0.252   4.633
 6800TIP3    H120364   4.244   0.314   4.685
 6800TIP3    H220365   4.257   0.189   4.601
 6801TIP3   OH220366   3.601   0.554   5.369
 6801TIP3    H120367   3.556   0.583   5.449
 6801TIP3    H220368   3.579   0.461   5.362
 6802TIP3   OH220369   7.064   3.668   1.720
 6802TIP3    H120370   7.056   3.728   1.795
 6802TIP3    H220371   7.077   3.725   1.645
 6803TIP3   OH220372   3.378   5.511   0.198
 6803TIP3    H120373   3.336   5.432   0.164
 6803TIP3    H220374   3.323   5.583   0.168
 6804TIP3   OH220375   6.789   6.612   2.030
 6804TIP3    H120376   6.839   6.571   1.961
 6804TIP3    H220377   6.725   6.546   2.057
 6805TIP3   OH220378   2.213   2.114   2.793
 6805TIP3    H120379   2.208   2.035   2.739
 6805TIP3    H220380   2.269   2.174   2.743
 6806TIP3   OH220381   0.478   2.135   1.684
 6806TIP3    H120382   0.503   2.166   1.771
 6806TIP3    H220383   0.562   2.122   1.638
 6807TIP3   OH220384   5.581   4.772   3.311
 6807TIP3    H120385   5.671   4.793   3.336
 6807TIP3    H220386   5.587   4.685   3.272
 6808TIP3   OH220387   3.651   3.297   4.168
 6808TIP3    H120388   3.725   3.315   4.226
 6808TIP3    H220389   3.614   3.383   4.148
 6809TIP3   OH220390   6.945   5.240   0.269
 6809TIP3    H120391   7.007   5.248   0.197
 6809TIP3    H220392   6.860   5.228   0.227
 6810TIP3   OH220393   3.055   1.626   2.078
 6810TIP3    H120394   3.097   1.705   2.043
 6810TIP3    H220395   3.022   1.653   2.164
 6811TIP3   OH220396   4.662   6.765   2.696
 6811TIP3    H120397   4.737   6.707   2.706
 6811TIP3    H220398   4.605   6.745   2.770
 6812TIP3   OH220399   4.248   5.049   4.468
 6812TIP3    H120400   4.160   5.086   4.478
 6812TIP3    H220401   4.241   4.960   4.502
 6813TIP3   OH220402   1.530   5.610   5.202
 6813TIP3    H120403   1.593   5.681   5.187
 6813TIP3    H220404   1.490   5.595   5.117
 6814TIP3   OH220405   0.547   3.645   0.590
 6814TIP3    H120406   0.482   3.712   0.611
 6814TIP3    H220407   0.596   3.681   0.516
 6815TIP3   OH220408   1.814   3.947   2.139
 6815TIP3    H120409   1.786   3.951   2.230
 6815TIP3    H220410   1.733   3.930   2.090
 6816TIP3   OH220411   6.820  -0.029   1.224
 6816TIP3    H120412   6.767   0.036   1.179
 6816TIP3    H220413   6.773  -0.112   1.213
 6817TIP3   OH220414   5.837   6.219   4.019
 6817TIP3    H120415   5.928   6.248   4.008
 6817TIP3    H220416   5.807   6.202   3.930
 6818TIP3   OH220417   5.828   1.036   2.862
 6818TIP3    H120418   5.849   1.038   2.955
 6818TIP3    H220419   5.909   1.065   2.819
 6819TIP3   OH220420   4.110   1.043   2.291
 6819TIP3    H120421   4.077   1.077   2.374
 6819TIP3    H220422   4.064   1.093   2.224
 6820TIP3   OH220423   4.313   5.585   1.487
 6820TIP3    H120424   4.252   5.519   1.522
 6820TIP3    H220425   4.400   5.550   1.508
 6821TIP3   OH220426   4.878   6.485   2.714
 6821TIP3    H120427   4.828   6.434   2.777
 6821TIP3    H220428   4.837   6.467   2.630
 6822TIP3   OH220429   2.545   4.980   0.916
 6822TIP3    H120430   2.607   5.027   0.860
 6822TIP3    H220431   2.477   4.950   0.855
 6823TIP3   OH220432   2.274   1.045   4.286
 6823TIP3    H120433   2.223   0.964   4.282
 6823TIP3    H220434   2.311   1.055   4.198
 6824TIP3   OH220435   5.783   3.760   1.960
 6824TIP3    H120436   5.832   3.785   2.038
 6824TIP3    H220437   5.847   3.764   1.889
 6825TIP3   OH220438   5.658   5.767   1.737
 6825TIP3    H120439   5.607   5.692   1.706
 6825TIP3    H220440   5.594   5.837   1.746
 6826TIP3   OH220441   2.498   2.554   1.043
 6826TIP3    H120442   2.518   2.537   1.135
 6826TIP3    H220443   2.535   2.480   0.996
 6827TIP3   OH220444   2.696   5.560   0.082
 6827TIP3    H120445   2.661   5.619   0.148
 6827TIP3    H220446   2.703   5.614   0.003
 6828TIP3   OH220447   0.726   5.599   2.853
 6828TIP3    H120448   0.776   5.518   2.863
 6828TIP3    H220449   0.721   5.635   2.942
 6829TIP3   OH220450   0.687   2.788   3.814
 6829TIP3    H120451   0.610   2.739   3.788
 6829TIP3    H220452   0.748   2.722   3.846
 6830TIP3   OH220453   6.088   5.935   3.225
 6830TIP3    H120454   6.135   5.905   3.303
 6830TIP3    H220455   6.114   6.027   3.216
 6831TIP3   OH220456   5.068   2.351   5.557
 6831TIP3    H120457   5.104   2.439   5.552
 6831TIP3    H220458   5.123   2.306   5.621
 6832TIP3   OH220459   6.589   5.765   1.842
 6832TIP3    H120460   6.671   5.740   1.801
 6832TIP3    H220461   6.523   5.710   1.799
 6833TIP3   OH220462   1.524   5.511   5.463
 6833TIP3    H120463   1.611   5.516   5.502
 6833TIP3    H220464   1.531   5.559   5.380
 6834TIP3   OH220465   4.429   3.277   0.952
 6834TIP3    H120466   4.343   3.241   0.927
 6834TIP3    H220467   4.461   3.218   1.020
 6835TIP3   OH220468   2.602   2.896   4.230
 6835TIP3    H120469   2.634   2.983   4.209
 6835TIP3    H220470   2.522   2.911   4.280
 6836TIP3   OH220471   3.201   1.963   4.896
 6836TIP3    H120472   3.178   1.962   4.803
 6836TIP3    H220473   3.129   2.010   4.938
 6837TIP3   OH220474   4.752   0.958   0.321
 6837TIP3    H120475   4.738   1.028   0.385
 6837TIP3    H220476   4.769   1.004   0.239
 6838TIP3   OH220477   6.388   0.559   1.907
 6838TIP3    H120478   6.468   0.592   1.948
 6838TIP3    H220479   6.417   0.484   1.856
 6839TIP3   OH220480   0.280   6.213   2.180
 6839TIP3    H120481   0.243   6.301   2.175
 6839TIP3    H220482   0.349   6.220   2.246
 6840TIP3   OH220483   3.585   3.825   5.888
 6840TIP3    H120484   3.596   3.781   5.803
 6840TIP3    H220485   3.673   3.853   5.912
 6841TIP3   OH220486   1.450   3.377   1.210
 6841TIP3    H120487   1.484   3.377   1.299
 6841TIP3    H220488   1.408   3.463   1.200
 6842TIP3   OH220489   2.925   5.443   4.767
 6842TIP3    H120490   2.951   5.435   4.675
 6842TIP3    H220491   2.837   5.406   4.771
 6843TIP3   OH220492   0.499   2.828   0.723
 6843TIP3    H120493   0.529   2.872   0.643
 6843TIP3    H220494   0.505   2.894   0.791
 6844TIP3   OH220495   1.646   0.592   4.754
 6844TIP3    H120496   1.632   0.613   4.662
 6844TIP3    H220497   1.678   0.502   4.754
 6845TIP3   OH220498   3.649   2.266   5.300
 6845TIP3    H120499   3.647   2.251   5.395
 6845TIP3    H220500   3.562   2.300   5.280
 6846TIP3   OH220501   5.758   4.273   5.893
 6846TIP3    H120502   5.695   4.327   5.846
 6846TIP3    H220503   5.740   4.290   5.986
 6847TIP3   OH220504   0.109   4.748   1.694
 6847TIP3    H120505   0.055   4.754   1.615
 6847TIP3    H220506   0.151   4.663   1.688
 6848TIP3   OH220507   1.989   3.276   4.706
 6848TIP3    H120508   1.990   3.213   4.634
 6848TIP3    H220509   2.078   3.273   4.741
 6849TIP3   OH220510   5.888   1.255   2.044
 6849TIP3    H120511   5.983   1.270   2.044
 6849TIP3    H220512   5.879   1.163   2.017
 6850TIP3   OH220513   2.024   5.608   0.591
 6850TIP3    H120514   2.014   5.702   0.603
 6850TIP3    H220515   2.117   5.595   0.576
 6851TIP3   OH220516   6.096   3.845   3.677
 6851TIP3    H120517   6.004   3.823   3.665
 6851TIP3    H220518   6.123   3.795   3.755
 6852TIP3   OH220519   2.109   3.753   3.865
 6852TIP3    H120520   2.166   3.760   3.941
 6852TIP3    H220521   2.160   3.790   3.793
 6853TIP3   OH220522   0.656   1.190   1.870
 6853TIP3    H120523   0.621   1.173   1.958
 6853TIP3    H220524   0.629   1.280   1.851
 6854TIP3   OH220525   6.177   2.074   5.074
 6854TIP3    H120526   6.238   2.068   5.148
 6854TIP3    H220527   6.231   2.060   4.997
 6855TIP3   OH220528   4.015   2.735   5.078
 6855TIP3    H120529   4.059   2.723   5.162
 6855TIP3    H220530   3.957   2.659   5.070
 6856TIP3   OH220531   1.058   4.381   0.865
 6856TIP3    H120532   0.963   4.395   0.867
 6856TIP3    H220533   1.095   4.465   0.894
 6857TIP3   OH220534   2.307   6.700   0.429
 6857TIP3    H120535   2.326   6.621   0.479
 6857TIP3    H220536   2.313   6.673   0.337
 6858TIP3   OH220537   4.306   3.864   4.969
 6858TIP3    H120538   4.345   3.918   5.039
 6858TIP3    H220539   4.366   3.875   4.895
 6859TIP3   OH220540   6.721   5.070   1.891
 6859TIP3    H120541   6.784   5.092   1.959
 6859TIP3    H220542   6.697   4.979   1.909
 6860TIP3   OH220543   3.728   1.307   5.793
 6860TIP3    H120544   3.742   1.400   5.811
 6860TIP3    H220545   3.643   1.287   5.834
 6861TIP3   OH220546   0.062   4.028   5.367
 6861TIP3    H120547  -0.008   3.965   5.353
 6861TIP3    H220548   0.026   4.091   5.430
 6862TIP3   OH220549   2.205   5.760   1.698
 6862TIP3    H120550   2.216   5.854   1.686
 6862TIP3    H220551   2.249   5.721   1.623
 6863TIP3   OH220552   6.838   1.891   4.553
 6863TIP3    H120553   6.826   1.820   4.490
 6863TIP3    H220554   6.813   1.853   4.637
 6864TIP3   OH220555   5.256   6.416   1.707
 6864TIP3    H120556   5.307   6.477   1.655
 6864TIP3    H220557   5.170   6.415   1.665
 6865TIP3   OH220558   6.951   0.785   0.897
 6865TIP3    H120559   6.894   0.856   0.928
 6865TIP3    H220560   7.007   0.826   0.832
 6866TIP3   OH220561   6.405   2.608   4.104
 6866TIP3    H120562   6.361   2.567   4.178
 6866TIP3    H220563   6.475   2.660   4.143
 6867TIP3   OH220564   0.632   0.547   5.359
 6867TIP3    H120565   0.669   0.560   5.446
 6867TIP3    H220566   0.602   0.634   5.332
 6868TIP3   OH220567   6.761   2.345   3.995
 6868TIP3    H120568   6.728   2.281   4.059
 6868TIP3    H220569   6.691   2.410   3.989
 6869TIP3   OH220570   6.054   3.679   5.679
 6869TIP3    H120571   6.119   3.626   5.633
 6869TIP3    H220572   6.027   3.625   5.754
 6870TIP3   OH220573   0.114   4.115   5.839
 6870TIP3    H120574   0.037   4.094   5.892
 6870TIP3    H220575   0.173   4.041   5.852
 6871TIP3   OH220576   4.358   2.141   5.332
 6871TIP3    H120577   4.351   2.060   5.382
 6871TIP3    H220578   4.351   2.114   5.241
 6872TIP3   OH220579   3.136   1.341   1.446
 6872TIP3    H120580   3.206   1.288   1.406
 6872TIP3    H220581   3.064   1.336   1.383
 6873TIP3   OH220582   4.606   3.111   2.500
 6873TIP3    H120583   4.676   3.088   2.561
 6873TIP3    H220584   4.648   3.106   2.414
 6874TIP3   OH220585   3.550   0.936   5.853
 6874TIP3    H120586   3.467   0.933   5.804
 6874TIP3    H220587   3.605   0.995   5.802
 6875TIP3   OH220588   5.733   4.148   4.604
 6875TIP3    H120589   5.725   4.150   4.508
 6875TIP3    H220590   5.653   4.190   4.636
 6876TIP3   OH220591   1.156   4.811   4.636
 6876TIP3    H120592   1.102   4.870   4.689
 6876TIP3    H220593   1.225   4.867   4.600
 6877TIP3   OH220594   4.313   5.937   1.261
 6877TIP3    H120595   4.290   6.005   1.197
 6877TIP3    H220596   4.345   5.864   1.208
 6878TIP3   OH220597   3.724   4.771   3.493
 6878TIP3    H120598   3.750   4.808   3.408
 6878TIP3    H220599   3.666   4.837   3.531
 6879TIP3   OH220600   5.884   3.675   3.927
 6879TIP3    H120601   5.846   3.704   4.011
 6879TIP3    H220602   5.811   3.681   3.865
 6880TIP3   OH220603   5.440   0.374   4.217
 6880TIP3    H120604   5.454   0.455   4.267
 6880TIP3    H220605   5.414   0.309   4.283
 6881TIP3   OH220606   6.275   0.223   4.661
 6881TIP3    H120607   6.305   0.132   4.655
 6881TIP3    H220608   6.205   0.229   4.596
 6882TIP3   OH220609   5.305   2.562   1.969
 6882TIP3    H120610   5.313   2.473   2.003
 6882TIP3    H220611   5.357   2.615   2.029
 6883TIP3   OH220612   6.019   3.869   4.775
 6883TIP3    H120613   6.099   3.829   4.740
 6883TIP3    H220614   6.038   3.884   4.867
 6884TIP3   OH220615   3.344   1.973   1.060
 6884TIP3    H120616   3.392   2.045   1.101
 6884TIP3    H220617   3.315   2.009   0.976
 6885TIP3   OH220618   4.389   2.225   4.955
 6885TIP3    H120619   4.483   2.209   4.949
 6885TIP3    H220620   4.349   2.143   4.927
 6886TIP3   OH220621   2.116   1.647   0.924
 6886TIP3    H120622   2.139   1.574   0.866
 6886TIP3    H220623   2.044   1.615   0.977
 6887TIP3   OH220624   0.703   1.182   3.119
 6887TIP3    H120625   0.752   1.264   3.107
 6887TIP3    H220626   0.768   1.113   3.104
 6888TIP3   OH220627   6.689   5.762   3.466
 6888TIP3    H120628   6.728   5.760   3.379
 6888TIP3    H220629   6.595   5.752   3.450
 6889TIP3   OH220630   6.667   6.331   3.113
 6889TIP3    H120631   6.660   6.247   3.157
 6889TIP3    H220632   6.727   6.382   3.167
 6890TIP3   OH220633   1.947   2.981   3.707
 6890TIP3    H120634   2.019   3.014   3.654
 6890TIP3    H220635   1.904   3.059   3.741
 6891TIP3   OH220636   2.091   2.726   4.309
 6891TIP3    H120637   2.002   2.694   4.323
 6891TIP3    H220638   2.079   2.816   4.278
 6892TIP3   OH220639   6.009   4.922   1.371
 6892TIP3    H120640   6.037   4.936   1.462
 6892TIP3    H220641   6.077   4.867   1.333
 6893TIP3   OH220642   7.027   2.582   5.133
 6893TIP3    H120643   7.020   2.487   5.144
 6893TIP3    H220644   7.109   2.595   5.086
 6894TIP3   OH220645   0.165   2.142   3.389
 6894TIP3    H120646   0.205   2.186   3.464
 6894TIP3    H220647   0.133   2.213   3.333
 6895TIP3   OH220648   4.918   4.042   4.377
 6895TIP3    H120649   4.908   4.002   4.290
 6895TIP3    H220650   4.948   3.970   4.432
 6896TIP3   OH220651   4.050   2.521   5.804
 6896TIP3    H120652   4.123   2.529   5.743
 6896TIP3    H220653   4.064   2.437   5.848
 6897TIP3   OH220654   0.556   1.312   2.122
 6897TIP3    H120655   0.579   1.398   2.086
 6897TIP3    H220656   0.555   1.326   2.217
 6898TIP3   OH220657   1.242   0.474   4.789
 6898TIP3    H120658   1.180   0.422   4.840
 6898TIP3    H220659   1.310   0.499   4.851
 6899TIP3   OH220660   2.098   1.733   5.322
 6899TIP3    H120661   2.075   1.737   5.415
 6899TIP3    H220662   2.145   1.651   5.312
 6900TIP3   OH220663   2.642   3.201   4.162
 6900TIP3    H120664   2.715   3.258   4.185
 6900TIP3    H220665   2.567   3.238   4.209
 6901TIP3   OH220666   2.696   5.163   3.875
 6901TIP3    H120667   2.763   5.153   3.807
 6901TIP3    H220668   2.730   5.232   3.932
 6902TIP3   OH220669   4.553   3.620   1.959
 6902TIP3    H120670   4.585   3.566   1.886
 6902TIP3    H220671   4.461   3.635   1.938
 6903TIP3   OH220672   3.656   6.152   5.442
 6903TIP3    H120673   3.672   6.177   5.533
 6903TIP3    H220674   3.675   6.058   5.439
 6904TIP3   OH220675   4.677   2.887   3.681
 6904TIP3    H120676   4.597   2.880   3.733
 6904TIP3    H220677   4.745   2.910   3.744
 6905TIP3   OH220678   0.146   4.766   5.024
 6905TIP3    H120679   0.077   4.812   5.072
 6905TIP3    H220680   0.133   4.792   4.933
 6906TIP3   OH220681   4.979   4.640   1.894
 6906TIP3    H120682   5.046   4.583   1.931
 6906TIP3    H220683   4.897   4.592   1.908
 6907TIP3   OH220684   0.043   2.494   0.497
 6907TIP3    H120685   0.136   2.489   0.520
 6907TIP3    H220686   0.005   2.413   0.530
 6908TIP3   OH220687   2.855   2.374   5.334
 6908TIP3    H120688   2.920   2.330   5.280
 6908TIP3    H220689   2.771   2.352   5.294
 6909TIP3   OH220690   0.719   2.979   2.305
 6909TIP3    H120691   0.706   2.945   2.394
 6909TIP3    H220692   0.721   2.902   2.250
 6910TIP3   OH220693   1.671   0.893   0.381
 6910TIP3    H120694   1.677   0.941   0.463
 6910TIP3    H220695   1.708   0.807   0.400
 6911TIP3   OH220696   3.755   0.773   2.527
 6911TIP3    H120697   3.771   0.679   2.525
 6911TIP3    H220698   3.838   0.811   2.556
 6912TIP3   OH220699   5.450   0.362   5.812
 6912TIP3    H120700   5.518   0.367   5.745
 6912TIP3    H220701   5.465   0.278   5.855
 6913TIP3   OH220702   1.300   6.406   3.450
 6913TIP3    H120703   1.361   6.460   3.501
 6913TIP3    H220704   1.235   6.377   3.514
 6914TIP3   OH220705   3.362   3.388   5.363
 6914TIP3    H120706   3.383   3.342   5.444
 6914TIP3    H220707   3.281   3.435   5.382
 6915TIP3   OH220708   0.416   0.568   4.908
 6915TIP3    H120709   0.417   0.490   4.853
 6915TIP3    H220710   0.331   0.608   4.889
 6916TIP3   OH220711   0.222   1.795   1.280
 6916TIP3    H120712   0.277   1.735   1.230
 6916TIP3    H220713   0.202   1.748   1.361
 6917TIP3   OH220714   5.623   4.556   5.048
 6917TIP3    H120715   5.534   4.592   5.051
 6917TIP3    H220716   5.629   4.500   5.126
 6918TIP3   OH220717   1.261   2.784   2.553
 6918TIP3    H120718   1.310   2.845   2.609
 6918TIP3    H220719   1.302   2.699   2.570
 6919TIP3   OH220720   3.186   3.905   5.687
 6919TIP3    H120721   3.155   3.970   5.750
 6919TIP3    H220722   3.215   3.956   5.612
 6920TIP3   OH220723   2.766   1.092   3.955
 6920TIP3    H120724   2.704   1.024   3.981
 6920TIP3    H220725   2.711   1.168   3.934
 6921TIP3   OH220726   6.883   5.829   2.472
 6921TIP3    H120727   6.975   5.856   2.480
 6921TIP3    H220728   6.884   5.755   2.412
 6922TIP3   OH220729   4.600   5.664   1.706
 6922TIP3    H120730   4.588   5.641   1.798
 6922TIP3    H220731   4.556   5.594   1.658
 6923TIP3   OH220732   7.006   3.988   5.621
 6923TIP3    H120733   6.922   4.009   5.580
 6923TIP3    H220734   6.998   3.896   5.647
 6924TIP3   OH220735   0.439   3.789   1.939
 6924TIP3    H120736   0.373   3.730   1.975
 6924TIP3    H220737   0.489   3.819   2.015
 6925TIP3   OH220738   2.694   2.222   1.796
 6925TIP3    H120739   2.723   2.293   1.853
 6925TIP3    H220740   2.656   2.158   1.856
 6926TIP3   OH220741   1.410   6.132   2.188
 6926TIP3    H120742   1.447   6.119   2.276
 6926TIP3    H220743   1.456   6.208   2.153
 6927TIP3   OH220744   1.914   3.534   1.676
 6927TIP3    H120745   1.861   3.587   1.616
 6927TIP3    H220746   1.889   3.564   1.763
 6928TIP3   OH220747   0.176   0.989   4.720
 6928TIP3    H120748   0.185   1.012   4.812
 6928TIP3    H220749   0.091   0.946   4.714
 6929TIP3   OH220750   6.763   0.926   2.647
 6929TIP3    H120751   6.840   0.911   2.702
 6929TIP3    H220752   6.706   0.981   2.700
 6930TIP3   OH220753   2.055   5.169   5.568
 6930TIP3    H120754   1.980   5.116   5.594
 6930TIP3    H220755   2.122   5.150   5.635
 6931TIP3   OH220756   5.180   2.894   1.052
 6931TIP3    H120757   5.199   2.801   1.063
 6931TIP3    H220758   5.259   2.939   1.081
 6932TIP3   OH220759   4.302   2.102   4.674
 6932TIP3    H120760   4.332   2.186   4.639
 6932TIP3    H220761   4.226   2.079   4.620
 6933TIP3   OH220762   0.712   5.785   4.022
 6933TIP3    H120763   0.795   5.794   3.976
 6933TIP3    H220764   0.675   5.873   4.022
 6934TIP3   OH220765   2.365   4.693   5.145
 6934TIP3    H120766   2.411   4.729   5.069
 6934TIP3    H220767   2.285   4.744   5.152
 6935TIP3   OH220768   1.026   3.498   5.630
 6935TIP3    H120769   0.944   3.460   5.598
 6935TIP3    H220770   1.014   3.592   5.619
 6936TIP3   OH220771   6.540   6.743   2.075
 6936TIP3    H120772   6.519   6.669   2.018
 6936TIP3    H220773   6.615   6.713   2.126
 6937TIP3   OH220774   0.213   1.023   0.658
 6937TIP3    H120775   0.128   1.039   0.698
 6937TIP3    H220776   0.193   0.990   0.570
 6938TIP3   OH220777   1.816   5.618   0.369
 6938TIP3    H120778   1.866   5.627   0.450
 6938TIP3    H220779   1.736   5.574   0.395
 6939TIP3   OH220780   6.099   2.705  -0.006
 6939TIP3    H120781   6.149   2.767  -0.059
 6939TIP3    H220782   6.009   2.714  -0.036
 6940TIP3   OH220783   0.801   5.432   1.751
 6940TIP3    H120784   0.855   5.368   1.706
 6940TIP3    H220785   0.846   5.447   1.834
 6941TIP3   OH220786   6.518   0.578   2.520
 6941TIP3    H120787   6.503   0.617   2.434
 6941TIP3    H220788   6.495   0.485   2.509
 6942TIP3   OH220789   6.789   0.541   2.376
 6942TIP3    H120790   6.754   0.452   2.369
 6942TIP3    H220791   6.727   0.586   2.433
 6943TIP3   OH220792   7.052   4.421   3.298
 6943TIP3    H120793   7.136   4.451   3.332
 6943TIP3    H220794   7.013   4.499   3.257
 6944TIP3   OH220795   2.487   1.002   4.470
 6944TIP3    H120796   2.416   1.012   4.407
 6944TIP3    H220797   2.450   1.031   4.554
 6945TIP3   OH220798   6.120   1.662   4.450
 6945TIP3    H120799   6.190   1.634   4.390
 6945TIP3    H220800   6.144   1.751   4.475
 6946TIP3   OH220801   4.473   6.255   2.618
 6946TIP3    H120802   4.468   6.242   2.713
 6946TIP3    H220803   4.389   6.295   2.595
 6947TIP3   OH220804   5.630   4.354   2.098
 6947TIP3    H120805   5.545   4.392   2.121
 6947TIP3    H220806   5.669   4.331   2.182
 6948TIP3   OH220807   1.737   0.865   3.336
 6948TIP3    H120808   1.659   0.921   3.344
 6948TIP3    H220809   1.707   0.788   3.287
 6949TIP3   OH220810   0.346   3.228   3.183
 6949TIP3    H120811   0.434   3.201   3.209
 6949TIP3    H220812   0.307   3.149   3.146
 6950TIP3   OH220813   0.563   5.828   2.446
 6950TIP3    H120814   0.487   5.785   2.408
 6950TIP3    H220815   0.638   5.780   2.410
 6951TIP3   OH220816   5.563   1.553   0.867
 6951TIP3    H120817   5.540   1.501   0.943
 6951TIP3    H220818   5.610   1.628   0.902
 6952TIP3   OH220819   1.803   3.506   2.027
 6952TIP3    H120820   1.816   3.411   2.023
 6952TIP3    H220821   1.871   3.537   2.087
 6953TIP3   OH220822   2.038   2.265   4.570
 6953TIP3    H120823   1.950   2.229   4.576
 6953TIP3    H220824   2.069   2.239   4.483
 6954TIP3   OH220825   5.637   1.654   1.465
 6954TIP3    H120826   5.566   1.684   1.521
 6954TIP3    H220827   5.612   1.565   1.440
 6955TIP3   OH220828   2.608   5.294   0.126
 6955TIP3    H120829   2.644   5.269   0.211
 6955TIP3    H220830   2.642   5.382   0.109
 6956TIP3   OH220831   2.692   3.715   2.489
 6956TIP3    H120832   2.759   3.649   2.508
 6956TIP3    H220833   2.655   3.689   2.405
 6957TIP3   OH220834   0.280   3.278   2.562
 6957TIP3    H120835   0.197   3.301   2.520
 6957TIP3    H220836   0.313   3.204   2.511
 6958TIP3   OH220837   6.015   2.563   3.606
 6958TIP3    H120838   5.950   2.548   3.538
 6958TIP3    H220839   6.068   2.483   3.606
 6959TIP3   OH220840   2.941   2.967   0.384
 6959TIP3    H120841   3.031   2.994   0.362
 6959TIP3    H220842   2.932   2.988   0.477
 6960TIP3   OH220843   1.248   0.081   4.499
 6960TIP3    H120844   1.220   0.117   4.415
 6960TIP3    H220845   1.298   0.151   4.540
 6961TIP3   OH220846   4.225   2.163   5.664
 6961TIP3    H120847   4.281   2.088   5.644
 6961TIP3    H220848   4.285   2.238   5.661
 6962TIP3   OH220849   2.835   3.592   3.335
 6962TIP3    H120850   2.770   3.642   3.286
 6962TIP3    H220851   2.919   3.618   3.297
 6963TIP3   OH220852   4.810   1.505   5.702
 6963TIP3    H120853   4.877   1.437   5.707
 6963TIP3    H220854   4.767   1.503   5.788
 6964TIP3   OH220855   5.819   2.509   5.367
 6964TIP3    H120856   5.725   2.525   5.374
 6964TIP3    H220857   5.834   2.433   5.423
 6965TIP3   OH220858   1.048   1.427   3.929
 6965TIP3    H120859   0.979   1.490   3.942
 6965TIP3    H220860   1.120   1.458   3.983
 6966TIP3   OH220861   5.612   1.235   5.542
 6966TIP3    H120862   5.604   1.156   5.595
 6966TIP3    H220863   5.706   1.243   5.524
 6967TIP3   OH220864   3.252   1.557   2.396
 6967TIP3    H120865   3.291   1.604   2.469
 6967TIP3    H220866   3.264   1.616   2.321
 6968TIP3   OH220867   2.885   4.897   3.751
 6968TIP3    H120868   2.853   4.875   3.663
 6968TIP3    H220869   2.889   4.993   3.751
 6969TIP3   OH220870   2.038   5.080   1.613
 6969TIP3    H120871   2.098   5.089   1.538
 6969TIP3    H220872   1.970   5.021   1.581
 6970TIP3   OH220873   2.381   0.717   0.931
 6970TIP3    H120874   2.323   0.652   0.892
 6970TIP3    H220875   2.350   0.801   0.898
 6971TIP3   OH220876   1.048   5.420   3.688
 6971TIP3    H120877   0.978   5.378   3.738
 6971TIP3    H220878   1.090   5.479   3.751
 6972TIP3   OH220879   5.052   2.782   5.674
 6972TIP3    H120880   5.075   2.848   5.740
 6972TIP3    H220881   5.007   2.831   5.606
 6973TIP3   OH220882   0.217   3.989   4.139
 6973TIP3    H120883   0.125   3.981   4.161
 6973TIP3    H220884   0.262   3.991   4.223
 6974TIP3   OH220885   6.574   6.164   4.811
 6974TIP3    H120886   6.668   6.171   4.795
 6974TIP3    H220887   6.566   6.115   4.893
 6975TIP3   OH220888   5.597   6.789   2.405
 6975TIP3    H120889   5.664   6.730   2.439
 6975TIP3    H220890   5.618   6.798   2.312
 6976TIP3   OH220891   5.390   1.754   1.079
 6976TIP3    H120892   5.435   1.798   1.007
 6976TIP3    H220893   5.299   1.746   1.050
 6977TIP3   OH220894   5.439   4.532   2.122
 6977TIP3    H120895   5.454   4.619   2.086
 6977TIP3    H220896   5.396   4.548   2.207
 6978TIP3   OH220897   1.064   4.916   5.266
 6978TIP3    H120898   1.127   4.844   5.269
 6978TIP3    H220899   1.117   4.994   5.249
 6979TIP3   OH220900   6.056   1.183   3.914
 6979TIP3    H120901   5.983   1.227   3.957
 6979TIP3    H220902   6.048   1.092   3.943
 6980TIP3   OH220903   3.090   3.376   2.294
 6980TIP3    H120904   3.102   3.467   2.266
 6980TIP3    H220905   3.126   3.324   2.223
 6981TIP3   OH220906   0.833   5.882   4.719
 6981TIP3    H120907   0.855   5.895   4.811
 6981TIP3    H220908   0.860   5.963   4.676
 6982TIP3   OH220909   0.949   2.798   0.405
 6982TIP3    H120910   0.969   2.857   0.332
 6982TIP3    H220911   0.907   2.854   0.470
 6983TIP3   OH220912   0.068   3.590   4.066
 6983TIP3    H120913   0.093   3.679   4.042
 6983TIP3    H220914   0.120   3.571   4.143
 6984TIP3   OH220915   2.367   0.541   4.131
 6984TIP3    H120916   2.382   0.636   4.136
 6984TIP3    H220917   2.450   0.502   4.157
 6985TIP3   OH220918   6.733   0.691   3.608
 6985TIP3    H120919   6.750   0.723   3.697
 6985TIP3    H220920   6.745   0.768   3.552
 6986TIP3   OH220921   3.483   4.722   2.506
 6986TIP3    H120922   3.519   4.661   2.571
 6986TIP3    H220923   3.560   4.763   2.466
 6987TIP3   OH220924   0.424   4.092   1.424
 6987TIP3    H120925   0.364   4.165   1.410
 6987TIP3    H220926   0.391   4.048   1.502
 6988TIP3   OH220927   7.030   3.660   5.267
 6988TIP3    H120928   7.043   3.749   5.236
 6988TIP3    H220929   6.939   3.658   5.296
 6989TIP3   OH220930   6.487   6.259   2.512
 6989TIP3    H120931   6.582   6.271   2.517
 6989TIP3    H220932   6.451   6.323   2.574
 6990TIP3   OH220933   4.093   0.870   1.746
 6990TIP3    H120934   4.012   0.918   1.763
 6990TIP3    H220935   4.102   0.811   1.821
 6991TIP3   OH220936   4.251   1.998   1.374
 6991TIP3    H120937   4.172   2.050   1.391
 6991TIP3    H220938   4.321   2.044   1.419
 6992TIP3   OH220939   4.751   5.206   3.787
 6992TIP3    H120940   4.666   5.162   3.783
 6992TIP3    H220941   4.753   5.246   3.874
 6993TIP3   OH220942   1.034   2.855   2.893
 6993TIP3    H120943   1.012   2.778   2.841
 6993TIP3    H220944   0.977   2.849   2.970
 6994TIP3   OH220945   4.098   2.307   1.145
 6994TIP3    H120946   4.009   2.302   1.108
 6994TIP3    H220947   4.155   2.276   1.074
 6995TIP3   OH220948   4.050   6.670   4.153
 6995TIP3    H120949   4.146   6.674   4.158
 6995TIP3    H220950   4.032   6.591   4.102
 6996TIP3   OH220951   4.799   6.617   1.530
 6996TIP3    H120952   4.753   6.660   1.603
 6996TIP3    H220953   4.771   6.526   1.535
 6997TIP3   OH220954   1.428   6.132   3.584
 6997TIP3    H120955   1.370   6.158   3.513
 6997TIP3    H220956   1.371   6.085   3.646
 6998TIP3   OH220957   4.333   5.489   4.378
 6998TIP3    H120958   4.382   5.503   4.297
 6998TIP3    H220959   4.368   5.408   4.414
 6999TIP3   OH220960   5.792   1.843   3.157
 6999TIP3    H120961   5.795   1.849   3.061
 6999TIP3    H220962   5.800   1.750   3.175
 7000TIP3   OH220963   3.553   1.275   3.264
 7000TIP3    H120964   3.554   1.354   3.317
 7000TIP3    H220965   3.580   1.205   3.325
 7001TIP3   OH220966   4.531   0.278   0.627
 7001TIP3    H120967   4.559   0.361   0.590
 7001TIP3    H220968   4.612   0.233   0.651
 7002TIP3   OH220969   0.958   2.989   3.977
 7002TIP3    H120970   0.892   2.924   3.953
 7002TIP3    H220971   1.025   2.981   3.909
 7003TIP3   OH220972   2.893   4.520   5.004
 7003TIP3    H120973   2.916   4.583   5.072
 7003TIP3    H220974   2.860   4.573   4.932
 7004TIP3   OH220975   1.886   0.679   2.098
 7004TIP3    H120976   1.841   0.701   2.180
 7004TIP3    H220977   1.883   0.760   2.047
 7005TIP3   OH220978   4.101   3.968   0.461
 7005TIP3    H120979   4.161   4.042   0.466
 7005TIP3    H220980   4.107   3.939   0.370
 7006TIP3   OH220981   4.748   6.375   0.699
 7006TIP3    H120982   4.702   6.293   0.719
 7006TIP3    H220983   4.728   6.432   0.772
 7007TIP3   OH220984   6.120   0.553   1.786
 7007TIP3    H120985   6.200   0.572   1.836
 7007TIP3    H220986   6.150   0.502   1.711
 7008TIP3   OH220987   6.323   5.415   3.507
 7008TIP3    H120988   6.370   5.446   3.584
 7008TIP3    H220989   6.367   5.456   3.433
 7009TIP3   OH220990   7.033   3.517   2.591
 7009TIP3    H120991   6.942   3.498   2.616
 7009TIP3    H220992   7.051   3.456   2.520
 7010TIP3   OH220993   1.558   4.132   3.133
 7010TIP3    H120994   1.538   4.052   3.182
 7010TIP3    H220995   1.639   4.164   3.172
 7011TIP3   OH220996   0.406   5.787   1.866
 7011TIP3    H120997   0.372   5.782   1.955
 7011TIP3    H220998   0.499   5.804   1.877
 7012TIP3   OH220999   3.283   6.565   5.854
 7012TIP3    H121000   3.261   6.638   5.912
 7012TIP3    H221001   3.283   6.603   5.766
 7013TIP3   OH221002   6.174   0.023   3.584
 7013TIP3    H121003   6.248   0.080   3.560
 7013TIP3    H221004   6.204  -0.023   3.662
 7014TIP3   OH221005   3.313   2.646   1.463
 7014TIP3    H121006   3.374   2.715   1.438
 7014TIP3    H221007   3.234   2.693   1.489
 7015TIP3   OH221008   1.604   3.199   2.947
 7015TIP3    H121009   1.544   3.125   2.934
 7015TIP3    H221010   1.678   3.181   2.889
 7016TIP3   OH221011   5.126   2.623   4.957
 7016TIP3    H121012   5.103   2.536   4.924
 7016TIP3    H221013   5.137   2.676   4.879
 7017TIP3   OH221014   1.615   2.411   0.158
 7017TIP3    H121015   1.669   2.366   0.094
 7017TIP3    H221016   1.530   2.423   0.115
 7018TIP3   OH221017   1.307   4.080   0.729
 7018TIP3    H121018   1.353   3.997   0.720
 7018TIP3    H221019   1.279   4.102   0.640
 7019TIP3   OH221020   6.387   3.000   2.170
 7019TIP3    H121021   6.428   3.029   2.089
 7019TIP3    H221022   6.461   2.976   2.227
 7020TIP3   OH221023   1.351   1.757   2.012
 7020TIP3    H121024   1.373   1.849   2.000
 7020TIP3    H221025   1.435   1.713   2.023
 7021TIP3   OH221026   4.249   1.845   3.283
 7021TIP3    H121027   4.228   1.854   3.190
 7021TIP3    H221028   4.175   1.797   3.319
 7022TIP3   OH221029   1.123   1.955   5.295
 7022TIP3    H121030   1.089   1.921   5.213
 7022TIP3    H221031   1.218   1.954   5.285
 7023TIP3   OH221032   0.239   0.359   1.679
 7023TIP3    H121033   0.184   0.284   1.700
 7023TIP3    H221034   0.178   0.433   1.676
 7024TIP3   OH221035   5.800   5.185   4.188
 7024TIP3    H121036   5.765   5.257   4.240
 7024TIP3    H221037   5.796   5.216   4.098
 7025TIP3   OH221038   4.364   3.848   0.429
 7025TIP3    H121039   4.290   3.876   0.483
 7025TIP3    H221040   4.401   3.773   0.475
 7026TIP3   OH221041   3.648   0.767   3.985
 7026TIP3    H121042   3.622   0.678   3.963
 7026TIP3    H221043   3.566   0.814   3.996
 7027TIP3   OH221044   3.452   1.979   3.649
 7027TIP3    H121045   3.358   1.996   3.645
 7027TIP3    H221046   3.459   1.885   3.666
 7028TIP3   OH221047   0.728   3.099   3.052
 7028TIP3    H121048   0.808   3.057   3.085
 7028TIP3    H221049   0.760   3.173   3.000
 7029TIP3   OH221050   5.244   4.618   2.376
 7029TIP3    H121051   5.174   4.552   2.368
 7029TIP3    H221052   5.249   4.636   2.470
 7030TIP3   OH221053   1.739   4.665   1.604
 7030TIP3    H121054   1.759   4.746   1.558
 7030TIP3    H221055   1.746   4.688   1.697
 7031TIP3   OH221056   6.813   5.520   0.411
 7031TIP3    H121057   6.862   5.549   0.334
 7031TIP3    H221058   6.868   5.544   0.485
 7032TIP3   OH221059   0.431   6.602   0.064
 7032TIP3    H121060   0.401   6.636   0.148
 7032TIP3    H221061   0.460   6.679   0.015
 7033TIP3   OH221062   6.824   3.567   2.129
 7033TIP3    H121063   6.892   3.504   2.152
 7033TIP3    H221064   6.842   3.643   2.185
 7034TIP3   OH221065   5.742   2.701   2.405
 7034TIP3    H121066   5.756   2.648   2.484
 7034TIP3    H221067   5.666   2.755   2.426
 7035TIP3   OH221068   4.461   4.656   0.268
 7035TIP3    H121069   4.390   4.591   0.266
 7035TIP3    H221070   4.482   4.665   0.361
 7036TIP3   OH221071   4.509   5.624   4.899
 7036TIP3    H121072   4.418   5.625   4.868
 7036TIP3    H221073   4.554   5.567   4.838
 7037TIP3   OH221074   1.350   6.464   4.554
 7037TIP3    H121075   1.280   6.524   4.527
 7037TIP3    H221076   1.430   6.516   4.549
 7038TIP3   OH221077   5.758   0.982   5.376
 7038TIP3    H121078   5.820   0.929   5.326
 7038TIP3    H221079   5.802   0.998   5.459
 7039TIP3   OH221080   6.053   5.160   0.998
 7039TIP3    H121081   6.124   5.164   1.063
 7039TIP3    H221082   6.075   5.227   0.934
 7040TIP3   OH221083   4.615   5.129   4.641
 7040TIP3    H121084   4.646   5.171   4.721
 7040TIP3    H221085   4.530   5.170   4.623
 7041TIP3   OH221086   3.820   6.206   0.985
 7041TIP3    H121087   3.891   6.154   0.949
 7041TIP3    H221088   3.740   6.161   0.957
 7042TIP3   OH221089   2.498   1.535   5.612
 7042TIP3    H121090   2.425   1.505   5.557
 7042TIP3    H221091   2.574   1.489   5.578
 7043TIP3   OH221092   3.801   3.765   3.779
 7043TIP3    H121093   3.760   3.745   3.863
 7043TIP3    H221094   3.786   3.858   3.766
 7044TIP3   OH221095   5.568   0.188   4.016
 7044TIP3    H121096   5.538   0.265   4.064
 7044TIP3    H221097   5.635   0.149   4.071
 7045TIP3   OH221098   4.106   0.774   2.201
 7045TIP3    H121099   4.193   0.744   2.175
 7045TIP3    H221100   4.120   0.863   2.235
 7046TIP3   OH221101   4.714   2.291   3.352
 7046TIP3    H121102   4.643   2.278   3.415
 7046TIP3    H221103   4.762   2.209   3.352
 7047TIP3   OH221104   2.024   2.405   0.722
 7047TIP3    H121105   2.054   2.411   0.813
 7047TIP3    H221106   1.930   2.389   0.729
 7048TIP3   OH221107   5.832   4.161   0.356
 7048TIP3    H121108   5.831   4.074   0.398
 7048TIP3    H221109   5.832   4.222   0.429
 7049TIP3   OH221110   2.178   3.461   3.034
 7049TIP3    H121111   2.116   3.533   3.032
 7049TIP3    H221112   2.234   3.476   2.957
 7050TIP3   OH221113   1.166   3.236   3.985
 7050TIP3    H121114   1.174   3.229   3.890
 7050TIP3    H221115   1.157   3.330   4.002
 7051TIP3   OH221116   6.951   4.270   0.054
 7051TIP3    H121117   7.027   4.295   0.001
 7051TIP3    H221118   6.971   4.305   0.141
 7052TIP3   OH221119   0.179   0.854   5.226
 7052TIP3    H121120   0.215   0.882   5.310
 7052TIP3    H221121   0.085   0.845   5.242
 7053TIP3   OH221122   6.538   1.690   0.523
 7053TIP3    H121123   6.571   1.706   0.435
 7053TIP3    H221124   6.590   1.617   0.556
 7054TIP3   OH221125   3.041   1.139   0.837
 7054TIP3    H121126   3.072   1.106   0.753
 7054TIP3    H221127   3.103   1.104   0.902
 7055TIP3   OH221128   5.574   1.921   5.791
 7055TIP3    H121129   5.548   1.933   5.882
 7055TIP3    H221130   5.529   1.842   5.763
 7056TIP3   OH221131   1.092   0.723   0.450
 7056TIP3    H121132   1.002   0.755   0.456
 7056TIP3    H221133   1.085   0.628   0.459
 7057TIP3   OH221134   5.712   3.981   3.080
 7057TIP3    H121135   5.700   3.934   3.163
 7057TIP3    H221136   5.790   4.035   3.094
 7058TIP3   OH221137   2.175   6.555   3.049
 7058TIP3    H121138   2.238   6.488   3.022
 7058TIP3    H221139   2.220   6.638   3.033
 7059TIP3   OH221140   7.098   1.673   4.506
 7059TIP3    H121141   7.178   1.659   4.455
 7059TIP3    H221142   7.029   1.683   4.440
 7060TIP3   OH221143   5.188   0.462   5.720
 7060TIP3    H121144   5.191   0.530   5.653
 7060TIP3    H221145   5.278   0.429   5.724
 7061TIP3   OH221146   5.563   4.236   3.127
 7061TIP3    H121147   5.607   4.277   3.202
 7061TIP3    H221148   5.622   4.166   3.100
 7062TIP3   OH221149   1.403   3.926   1.722
 7062TIP3    H121150   1.309   3.941   1.715
 7062TIP3    H221151   1.442   4.011   1.702
 7063TIP3   OH221152   4.531   0.144   3.985
 7063TIP3    H121153   4.565   0.204   4.052
 7063TIP3    H221154   4.599   0.141   3.918
 7064TIP3   OH221155   2.684   5.361   4.433
 7064TIP3    H121156   2.628   5.303   4.485
 7064TIP3    H221157   2.637   5.373   4.351
 7065TIP3   OH221158   5.863   3.191   1.308
 7065TIP3    H121159   5.777   3.228   1.327
 7065TIP3    H221160   5.845   3.112   1.258
 7066TIP3   OH221161   2.450   3.351   4.436
 7066TIP3    H121162   2.484   3.405   4.507
 7066TIP3    H221163   2.489   3.265   4.451
 7067TIP3   OH221164   3.536   3.708   1.750
 7067TIP3    H121165   3.459   3.762   1.769
 7067TIP3    H221166   3.577   3.750   1.674
 7068TIP3   OH221167   1.658   4.731   4.249
 7068TIP3    H121168   1.688   4.710   4.337
 7068TIP3    H221169   1.731   4.778   4.209
 7069TIP3   OH221170   1.002   6.104   1.353
 7069TIP3    H121171   0.951   6.034   1.393
 7069TIP3    H221172   1.003   6.174   1.419
 7070TIP3   OH221173   1.764   2.121   4.645
 7070TIP3    H121174   1.795   2.045   4.596
 7070TIP3    H221175   1.701   2.163   4.586
 7071TIP3   OH221176   5.381   2.342   3.072
 7071TIP3    H121177   5.450   2.312   3.013
 7071TIP3    H221178   5.401   2.435   3.086
 7072TIP3   OH221179   3.613   2.294   3.121
 7072TIP3    H121180   3.530   2.328   3.155
 7072TIP3    H221181   3.597   2.201   3.105
 7073TIP3   OH221182   5.957   4.408   1.605
 7073TIP3    H121183   5.963   4.385   1.698
 7073TIP3    H221184   5.882   4.357   1.573
 7074TIP3   OH221185   1.107   5.711   1.641
 7074TIP3    H121186   1.144   5.768   1.575
 7074TIP3    H221187   1.170   5.639   1.650
 7075TIP3   OH221188   2.096   2.922   5.624
 7075TIP3    H121189   2.106   2.951   5.534
 7075TIP3    H221190   2.108   3.001   5.676
 7076TIP3   OH221191   5.028   4.769   0.730
 7076TIP3    H121192   5.020   4.831   0.803
 7076TIP3    H221193   4.938   4.758   0.699
 7077TIP3   OH221194   4.077   5.026   1.348
 7077TIP3    H121195   3.996   4.980   1.373
 7077TIP3    H221196   4.102   4.986   1.265
 7078TIP3   OH221197   0.644   0.671   3.651
 7078TIP3    H121198   0.627   0.661   3.557
 7078TIP3    H221199   0.720   0.730   3.655
 7079TIP3   OH221200   4.087   1.069   0.799
 7079TIP3    H121201   4.097   0.995   0.740
 7079TIP3    H221202   4.046   1.137   0.746
 7080TIP3   OH221203   2.011   2.904   1.584
 7080TIP3    H121204   2.042   2.815   1.571
 7080TIP3    H221205   2.032   2.925   1.675
 7081TIP3   OH221206   0.822   3.922   0.507
 7081TIP3    H121207   0.773   4.005   0.507
 7081TIP3    H221208   0.885   3.932   0.435
 7082TIP3   OH221209   6.748   0.197   4.471
 7082TIP3    H121210   6.757   0.170   4.380
 7082TIP3    H221211   6.676   0.144   4.505
 7083TIP3   OH221212   1.241   1.349   5.287
 7083TIP3    H121213   1.266   1.315   5.201
 7083TIP3    H221214   1.276   1.438   5.287
 7084TIP3   OH221215   0.410   1.508   5.287
 7084TIP3    H121216   0.500   1.532   5.312
 7084TIP3    H221217   0.378   1.457   5.361
 7085TIP3   OH221218   2.100   5.178   2.303
 7085TIP3    H121219   2.041   5.185   2.228
 7085TIP3    H221220   2.076   5.251   2.360
 7086TIP3   OH221221   4.625   4.781   3.025
 7086TIP3    H121222   4.588   4.836   3.094
 7086TIP3    H221223   4.635   4.839   2.950
 7087TIP3   OH221224   1.760   2.980   1.613
 7087TIP3    H121225   1.846   2.952   1.583
 7087TIP3    H221226   1.745   3.064   1.569
 7088TIP3   OH221227   2.097   5.837   2.788
 7088TIP3    H121228   2.035   5.878   2.727
 7088TIP3    H221229   2.071   5.872   2.874
 7089TIP3   OH221230   1.725   5.091   5.184
 7089TIP3    H121231   1.786   5.024   5.215
 7089TIP3    H221232   1.644   5.074   5.233
 7090TIP3   OH221233   1.212   6.069   3.758
 7090TIP3    H121234   1.245   6.088   3.846
 7090TIP3    H221235   1.117   6.085   3.764
 7091TIP3   OH221236   4.107   4.442   5.089
 7091TIP3    H121237   4.149   4.495   5.157
 7091TIP3    H221238   4.128   4.487   5.007
 7092TIP3   OH221239   6.129   6.237   5.080
 7092TIP3    H121240   6.087   6.220   5.164
 7092TIP3    H221241   6.209   6.185   5.082
 7093TIP3   OH221242   2.333   2.053   1.953
 7093TIP3    H121243   2.294   2.093   1.875
 7093TIP3    H221244   2.297   2.104   2.026
 7094TIP3   OH221245   1.473   4.359   3.678
 7094TIP3    H121246   1.415   4.399   3.613
 7094TIP3    H221247   1.498   4.275   3.640
 7095TIP3   OH221248   2.714   6.175   5.466
 7095TIP3    H121249   2.793   6.194   5.518
 7095TIP3    H221250   2.731   6.219   5.382
 7096TIP3   OH221251   0.414   1.861   5.388
 7096TIP3    H121252   0.486   1.915   5.420
 7096TIP3    H221253   0.450   1.772   5.386
 7097TIP3   OH221254   1.748   0.678  -0.013
 7097TIP3    H121255   1.671   0.708   0.036
 7097TIP3    H221256   1.765   0.590   0.021
 7098TIP3   OH221257   6.993   5.387   1.743
 7098TIP3    H121258   6.984   5.395   1.838
 7098TIP3    H221259   7.087   5.379   1.729
 7099TIP3   OH221260   1.143   6.148   2.931
 7099TIP3    H121261   1.220   6.203   2.951
 7099TIP3    H221262   1.085   6.162   3.006
 7100TIP3   OH221263   1.821   6.719   2.243
 7100TIP3    H121264   1.876   6.787   2.283
 7100TIP3    H221265   1.790   6.759   2.162
 7101TIP3   OH221266   3.988   4.607   3.982
 7101TIP3    H121267   4.013   4.559   3.904
 7101TIP3    H221268   4.037   4.689   3.976
 7102TIP3   OH221269   1.339   1.966   0.556
 7102TIP3    H121270   1.360   1.995   0.645
 7102TIP3    H221271   1.262   2.016   0.531
 7103TIP3   OH221272   1.984   0.991   0.541
 7103TIP3    H121273   1.956   1.019   0.628
 7103TIP3    H221274   2.053   0.927   0.557
 7104TIP3   OH221275   7.020   2.867   2.169
 7104TIP3    H121276   7.023   2.946   2.223
 7104TIP3    H221277   6.950   2.883   2.107
 7105TIP3   OH221278   1.622   0.401   3.395
 7105TIP3    H121279   1.596   0.333   3.333
 7105TIP3    H221280   1.717   0.400   3.394
 7106TIP3   OH221281   4.474   2.070   1.526
 7106TIP3    H121282   4.561   2.030   1.527
 7106TIP3    H221283   4.491   2.164   1.516
 7107TIP3   OH221284   4.406   0.317   3.058
 7107TIP3    H121285   4.442   0.356   3.138
 7107TIP3    H221286   4.362   0.389   3.013
 7108TIP3   OH221287   3.067   0.838   2.361
 7108TIP3    H121288   3.015   0.830   2.281
 7108TIP3    H221289   3.006   0.816   2.432
 7109TIP3   OH221290   3.594   3.489   2.811
 7109TIP3    H121291   3.518   3.536   2.775
 7109TIP3    H221292   3.597   3.407   2.762
 7110TIP3   OH221293   5.876   2.850   0.835
 7110TIP3    H121294   5.788   2.817   0.817
 7110TIP3    H221295   5.923   2.841   0.752
 7111TIP3   OH221296   5.084   3.368   4.345
 7111TIP3    H121297   5.151   3.337   4.284
 7111TIP3    H221298   5.112   3.335   4.430
 7112TIP3   OH221299   0.752   0.416   2.836
 7112TIP3    H121300   0.781   0.474   2.906
 7112TIP3    H221301   0.828   0.362   2.816
 7113TIP3   OH221302   3.047   6.292   4.491
 7113TIP3    H121303   3.118   6.280   4.555
 7113TIP3    H221304   3.035   6.386   4.486
 7114TIP3   OH221305   1.909   4.011   5.181
 7114TIP3    H121306   1.872   4.058   5.106
 7114TIP3    H221307   1.898   3.919   5.159
 7115TIP3   OH221308   1.599   0.049   3.989
 7115TIP3    H121309   1.583   0.143   3.995
 7115TIP3    H221310   1.515   0.009   4.013
 7116TIP3   OH221311   4.657   4.644   3.336
 7116TIP3    H121312   4.689   4.556   3.357
 7116TIP3    H221313   4.727   4.703   3.363
 7117TIP3   OH221314   2.423   4.152   1.848
 7117TIP3    H121315   2.391   4.242   1.844
 7117TIP3    H221316   2.389   4.110   1.769
 7118TIP3   OH221317   4.621   4.056   1.365
 7118TIP3    H121318   4.677   4.071   1.289
 7118TIP3    H221319   4.604   4.144   1.400
 7119TIP3   OH221320   7.023   2.984   4.786
 7119TIP3    H121321   7.029   2.889   4.777
 7119TIP3    H221322   6.933   3.000   4.812
 7120TIP3   OH221323   2.173   0.825   0.235
 7120TIP3    H121324   2.114   0.816   0.161
 7120TIP3    H221325   2.139   0.765   0.302
 7121TIP3   OH221326   4.587   3.552   4.341
 7121TIP3    H121327   4.536   3.562   4.422
 7121TIP3    H221328   4.592   3.457   4.328
 7122TIP3   OH221329   0.667   6.773   2.640
 7122TIP3    H121330   0.683   6.702   2.578
 7122TIP3    H221331   0.688   6.736   2.725
 7123TIP3   OH221332   1.840   4.840   2.179
 7123TIP3    H121333   1.934   4.854   2.181
 7123TIP3    H221334   1.821   4.788   2.257
 7124TIP3   OH221335   1.626   4.332   5.259
 7124TIP3    H121336   1.609   4.413   5.307
 7124TIP3    H221337   1.705   4.350   5.208
 7125TIP3   OH221338   5.673   1.946   5.209
 7125TIP3    H121339   5.743   1.971   5.148
 7125TIP3    H221340   5.629   2.029   5.231
 7126TIP3   OH221341   3.294   5.539   5.617
 7126TIP3    H121342   3.306   5.448   5.646
 7126TIP3    H221343   3.333   5.542   5.530
 7127TIP3   OH221344   5.272   0.898   3.271
 7127TIP3    H121345   5.215   0.901   3.348
 7127TIP3    H221346   5.222   0.850   3.206
 7128TIP3   OH221347   1.875   0.006   0.744
 7128TIP3    H121348   1.848   0.051   0.823
 7128TIP3    H221349   1.970   0.018   0.740
 7129TIP3   OH221350   2.628   0.597   0.967
 7129TIP3    H121351   2.619   0.583   1.062
 7129TIP3    H221352   2.543   0.632   0.941
 7130TIP3   OH221353   0.923   4.101   1.206
 7130TIP3    H121354   0.908   4.015   1.167
 7130TIP3    H221355   0.844   4.150   1.187
 7131TIP3   OH221356   3.358   1.689   0.962
 7131TIP3    H121357   3.369   1.774   1.005
 7131TIP3    H221358   3.442   1.646   0.972
 7132TIP3   OH221359   1.707   6.083   0.583
 7132TIP3    H121360   1.624   6.111   0.545
 7132TIP3    H221361   1.761   6.060   0.508
 7133TIP3   OH221362   3.104   2.142   4.680
 7133TIP3    H121363   3.048   2.187   4.617
 7133TIP3    H221364   3.127   2.210   4.744
 7134TIP3   OH221365   4.373   0.857   5.389
 7134TIP3    H121366   4.422   0.891   5.464
 7134TIP3    H221367   4.429   0.873   5.313
 7135TIP3   OH221368   3.752   2.053   4.864
 7135TIP3    H121369   3.659   2.034   4.875
 7135TIP3    H221370   3.781   2.082   4.951
 7136TIP3   OH221371   5.379   6.020   5.697
 7136TIP3    H121372   5.350   6.041   5.608
 7136TIP3    H221373   5.373   6.102   5.744
 7137TIP3   OH221374   5.017   0.675   2.372
 7137TIP3    H121375   5.064   0.609   2.422
 7137TIP3    H221376   5.044   0.758   2.410
 7138TIP3   OH221377   0.771   4.627   3.036
 7138TIP3    H121378   0.783   4.532   3.039
 7138TIP3    H221379   0.860   4.663   3.042
 7139TIP3   OH221380   5.530   0.011   1.474
 7139TIP3    H121381   5.573  -0.020   1.394
 7139TIP3    H221382   5.571  -0.040   1.544
 7140TIP3   OH221383   5.902   3.124   5.080
 7140TIP3    H121384   5.994   3.146   5.092
 7140TIP3    H221385   5.875   3.087   5.164
 7141TIP3   OH221386   3.998   5.671   3.695
 7141TIP3    H121387   4.084   5.633   3.676
 7141TIP3    H221388   4.002   5.760   3.661
 7142TIP3   OH221389   2.352   5.783   1.435
 7142TIP3    H121390   2.275   5.826   1.398
 7142TIP3    H221391   2.416   5.783   1.364
 7143TIP3   OH221392   3.065   6.449   1.381
 7143TIP3    H121393   3.011   6.421   1.307
 7143TIP3    H221394   3.070   6.544   1.371
 7144TIP3   OH221395   0.078   5.648   1.155
 7144TIP3    H121396   0.063   5.737   1.188
 7144TIP3    H221397   0.068   5.656   1.061
 7145TIP3   OH221398   1.100   5.743   2.545
 7145TIP3    H121399   1.025   5.765   2.601
 7145TIP3    H221400   1.074   5.660   2.503
 7146TIP3   OH221401   5.840   4.810   2.054
 7146TIP3    H121402   5.928   4.836   2.081
 7146TIP3    H221403   5.853   4.761   1.973
 7147TIP3   OH221404   4.709   2.214   2.205
 7147TIP3    H121405   4.759   2.197   2.285
 7147TIP3    H221406   4.628   2.254   2.235
 7148TIP3   OH221407   4.669   0.679   2.285
 7148TIP3    H121408   4.682   0.653   2.194
 7148TIP3    H221409   4.758   0.690   2.320
 7149TIP3   OH221410   4.446   2.996   1.820
 7149TIP3    H121411   4.480   3.011   1.908
 7149TIP3    H221412   4.361   3.039   1.819
 7150TIP3   OH221413   6.427   2.983   4.890
 7150TIP3    H121414   6.388   2.999   4.804
 7150TIP3    H221415   6.404   3.060   4.941
 7151TIP3   OH221416   3.314   3.548   5.651
 7151TIP3    H121417   3.394   3.578   5.693
 7151TIP3    H221418   3.316   3.453   5.660
 7152TIP3   OH221419   1.825   1.464   2.174
 7152TIP3    H121420   1.872   1.434   2.097
 7152TIP3    H221421   1.883   1.441   2.248
 7153TIP3   OH221422   1.901   5.980   1.860
 7153TIP3    H121423   1.891   5.970   1.954
 7153TIP3    H221424   1.893   5.892   1.825
 7154TIP3   OH221425   6.263   3.406   3.909
 7154TIP3    H121426   6.298   3.471   3.848
 7154TIP3    H221427   6.286   3.439   3.996
 7155TIP3   OH221428   6.046   0.467   5.077
 7155TIP3    H121429   5.955   0.492   5.060
 7155TIP3    H221430   6.086   0.466   4.990
 7156TIP3   OH221431   2.622   0.255   2.698
 7156TIP3    H121432   2.653   0.171   2.731
 7156TIP3    H221433   2.634   0.249   2.603
 7157TIP3   OH221434   3.121   3.323   4.171
 7157TIP3    H121435   3.183   3.310   4.099
 7157TIP3    H221436   3.070   3.242   4.173
 7158TIP3   OH221437   1.655   1.637   3.992
 7158TIP3    H121438   1.632   1.632   3.899
 7158TIP3    H221439   1.631   1.725   4.018
 7159TIP3   OH221440   0.711  -0.043   1.234
 7159TIP3    H121441   0.771  -0.045   1.309
 7159TIP3    H221442   0.675   0.046   1.234
 7160TIP3   OH221443   6.641   6.119   3.287
 7160TIP3    H121444   6.691   6.152   3.361
 7160TIP3    H221445   6.560   6.086   3.325
 7161TIP3   OH221446   4.722   5.824   3.200
 7161TIP3    H121447   4.669   5.790   3.128
 7161TIP3    H221448   4.777   5.750   3.227
 7162TIP3   OH221449   1.293   0.630   3.364
 7162TIP3    H121450   1.259   0.719   3.376
 7162TIP3    H221451   1.298   0.595   3.453
 7163TIP3   OH221452   3.950   2.677   2.303
 7163TIP3    H121453   4.042   2.671   2.330
 7163TIP3    H221454   3.943   2.763   2.262
 7164TIP3   OH221455   4.026   3.399   1.030
 7164TIP3    H121456   4.037   3.435   1.118
 7164TIP3    H221457   4.056   3.308   1.037
 7165TIP3   OH221458   0.489   1.145   1.642
 7165TIP3    H121459   0.565   1.100   1.606
 7165TIP3    H221460   0.525   1.222   1.685
 7166TIP3   OH221461   5.415   5.568   0.075
 7166TIP3    H121462   5.441   5.659   0.060
 7166TIP3    H221463   5.486   5.530   0.127
 7167TIP3   OH221464   6.221   0.941   4.609
 7167TIP3    H121465   6.207   0.939   4.704
 7167TIP3    H221466   6.299   0.886   4.595
 7168TIP3   OH221467   5.157   5.618   4.612
 7168TIP3    H121468   5.240   5.650   4.647
 7168TIP3    H221469   5.112   5.696   4.579
 7169TIP3   OH221470   2.381   1.564   0.422
 7169TIP3    H121471   2.438   1.595   0.352
 7169TIP3    H221472   2.411   1.609   0.500
 7170TIP3   OH221473   5.157   4.329   5.146
 7170TIP3    H121474   5.083   4.339   5.206
 7170TIP3    H221475   5.117   4.327   5.059
 7171TIP3   OH221476   5.025   2.563   2.183
 7171TIP3    H121477   4.957   2.563   2.250
 7171TIP3    H221478   5.049   2.655   2.172
 7172TIP3   OH221479   0.175   3.422   4.806
 7172TIP3    H121480   0.115   3.408   4.732
 7172TIP3    H221481   0.165   3.514   4.828
 7173TIP3   OH221482   1.798   1.230   5.564
 7173TIP3    H121483   1.707   1.214   5.541
 7173TIP3    H221484   1.846   1.223   5.481
 7174TIP3   OH221485   2.809   6.420   0.082
 7174TIP3    H121486   2.762   6.400   0.163
 7174TIP3    H221487   2.861   6.342   0.065
 7175TIP3   OH221488   3.679   5.616   4.053
 7175TIP3    H121489   3.643   5.672   4.122
 7175TIP3    H221490   3.769   5.646   4.043
 7176TIP3   OH221491   4.157   0.659   4.082
 7176TIP3    H121492   4.162   0.749   4.050
 7176TIP3    H221493   4.241   0.620   4.056
 7177TIP3   OH221494   5.359   2.258   1.746
 7177TIP3    H121495   5.374   2.275   1.839
 7177TIP3    H221496   5.416   2.321   1.700
 7178TIP3   OH221497   6.401   4.333   4.727
 7178TIP3    H121498   6.306   4.321   4.720
 7178TIP3    H221499   6.438   4.267   4.669
 7179TIP3   OH221500   7.075   0.469   4.309
 7179TIP3    H121501   7.124   0.398   4.350
 7179TIP3    H221502   7.134   0.544   4.312
 7180TIP3   OH221503   2.758   1.348   1.714
 7180TIP3    H121504   2.842   1.304   1.715
 7180TIP3    H221505   2.774   1.430   1.667
 7181TIP3   OH221506   0.562   6.506   1.842
 7181TIP3    H121507   0.601   6.496   1.755
 7181TIP3    H221508   0.469   6.489   1.829
 7182TIP3   OH221509   3.763   4.323   3.398
 7182TIP3    H121510   3.774   4.410   3.436
 7182TIP3    H221511   3.846   4.305   3.354
 7183TIP3   OH221512   2.276   2.200   5.446
 7183TIP3    H121513   2.293   2.293   5.457
 7183TIP3    H221514   2.338   2.157   5.505
 7184TIP3   OH221515   0.484   6.369   5.399
 7184TIP3    H121516   0.578   6.384   5.390
 7184TIP3    H221517   0.452   6.445   5.448
 7185TIP3   OH221518   6.227   2.986   1.217
 7185TIP3    H121519   6.265   2.903   1.187
 7185TIP3    H221520   6.185   3.023   1.140
 7186TIP3   OH221521   1.938   1.846   0.839
 7186TIP3    H121522   1.847   1.847   0.869
 7186TIP3    H221523   1.967   1.755   0.854
 7187TIP3   OH221524   5.143   4.973   3.645
 7187TIP3    H121525   5.215   4.991   3.707
 7187TIP3    H221526   5.164   4.887   3.609
 7188TIP3   OH221527   5.666   2.735   0.717
 7188TIP3    H121528   5.675   2.650   0.674
 7188TIP3    H221529   5.590   2.775   0.676
 7189TIP3   OH221530   2.898   3.083   5.801
 7189TIP3    H121531   2.908   2.988   5.807
 7189TIP3    H221532   2.818   3.102   5.851
 7190TIP3   OH221533   3.655   3.281   1.240
 7190TIP3    H121534   3.691   3.224   1.171
 7190TIP3    H221535   3.574   3.238   1.265
 7191TIP3   OH221536   4.916   6.476   4.589
 7191TIP3    H121537   4.988   6.450   4.647
 7191TIP3    H221538   4.904   6.569   4.607
 7192TIP3   OH221539   4.145   1.320   1.215
 7192TIP3    H121540   4.188   1.295   1.297
 7192TIP3    H221541   4.167   1.413   1.203
 7193TIP3   OH221542   3.505   0.163   0.352
 7193TIP3    H121543   3.549   0.214   0.420
 7193TIP3    H221544   3.417   0.202   0.346
 7194TIP3   OH221545   6.310   3.999   3.206
 7194TIP3    H121546   6.244   3.943   3.165
 7194TIP3    H221547   6.291   3.994   3.299
 7195TIP3   OH221548   7.058   2.413   3.033
 7195TIP3    H121549   7.129   2.475   3.019
 7195TIP3    H221550   7.001   2.422   2.957
 7196TIP3   OH221551   3.073   1.414   0.250
 7196TIP3    H121552   2.993   1.432   0.300
 7196TIP3    H221553   3.086   1.320   0.259
 7197TIP3   OH221554   5.839   2.357   3.033
 7197TIP3    H121555   5.928   2.325   3.046
 7197TIP3    H221556   5.792   2.329   3.111
 7198TIP3   OH221557   0.638   1.964   5.072
 7198TIP3    H121558   0.558   2.012   5.049
 7198TIP3    H221559   0.698   2.031   5.102
 7199TIP3   OH221560   0.852   2.141   5.631
 7199TIP3    H121561   0.938   2.168   5.600
 7199TIP3    H221562   0.870   2.071   5.694
 7200TIP3   OH221563   5.838   2.837   1.612
 7200TIP3    H121564   5.836   2.928   1.641
 7200TIP3    H221565   5.766   2.830   1.549
 7201TIP3   OH221566   0.354   0.996   3.367
 7201TIP3    H121567   0.415   0.951   3.308
 7201TIP3    H221568   0.272   0.999   3.318
 7202TIP3   OH221569   1.829   0.378   3.951
 7202TIP3    H121570   1.865   0.292   3.975
 7202TIP3    H221571   1.896   0.419   3.898
 7203TIP3   OH221572   5.339   0.059   3.537
 7203TIP3    H121573   5.398  -0.016   3.524
 7203TIP3    H221574   5.332   0.067   3.632
 7204TIP3   OH221575   1.983   2.749   0.694
 7204TIP3    H121576   1.973   2.792   0.779
 7204TIP3    H221577   2.073   2.769   0.667
 7205TIP3   OH221578   4.945   6.408   3.540
 7205TIP3    H121579   5.031   6.368   3.546
 7205TIP3    H221580   4.905   6.368   3.463
 7206TIP3   OH221581   6.205   0.480   2.986
 7206TIP3    H121582   6.228   0.475   2.893
 7206TIP3    H221583   6.137   0.547   2.991
 7207TIP3   OH221584   6.278   1.176   1.576
 7207TIP3    H121585   6.191   1.139   1.592
 7207TIP3    H221586   6.339   1.113   1.615
 7208TIP3   OH221587   3.637   0.015   3.506
 7208TIP3    H121588   3.567   0.045   3.564
 7208TIP3    H221589   3.606   0.036   3.418
 7209TIP3   OH221590   3.643   4.843   2.329
 7209TIP3    H121591   3.717   4.830   2.269
 7209TIP3    H221592   3.603   4.925   2.301
 7210TIP3   OH221593   6.512   1.363   4.117
 7210TIP3    H121594   6.566   1.416   4.175
 7210TIP3    H221595   6.574   1.306   4.072
 7211TIP3   OH221596   2.659   2.132   4.115
 7211TIP3    H121597   2.707   2.103   4.037
 7211TIP3    H221598   2.726   2.137   4.183
 7212TIP3   OH221599   3.618   1.647   5.609
 7212TIP3    H121600   3.524   1.631   5.601
 7212TIP3    H221601   3.642   1.605   5.691
 7213TIP3   OH221602   2.603   1.174   4.745
 7213TIP3    H121603   2.614   1.228   4.823
 7213TIP3    H221604   2.572   1.235   4.677
 7214TIP3   OH221605   3.698   2.078   0.242
 7214TIP3    H121606   3.646   2.155   0.221
 7214TIP3    H221607   3.732   2.048   0.158
 7215TIP3   OH221608   6.024   3.782   2.791
 7215TIP3    H121609   6.011   3.877   2.795
 7215TIP3    H221610   6.039   3.764   2.698
 7216TIP3   OH221611   0.989   3.037   1.180
 7216TIP3    H121612   0.907   3.065   1.139
 7216TIP3    H221613   1.044   3.115   1.179
 7217TIP3   OH221614   4.503   2.729   1.758
 7217TIP3    H121615   4.499   2.823   1.776
 7217TIP3    H221616   4.592   2.715   1.724
 7218TIP3   OH221617   1.140   3.722   3.136
 7218TIP3    H121618   1.225   3.721   3.090
 7218TIP3    H221619   1.075   3.721   3.065
 7219TIP3   OH221620   5.896   4.332   2.306
 7219TIP3    H121621   5.882   4.361   2.396
 7219TIP3    H221622   5.841   4.254   2.296
 7220TIP3   OH221623   2.356   6.059   2.110
 7220TIP3    H121624   2.426   6.078   2.172
 7220TIP3    H221625   2.316   6.144   2.091
 7221TIP3   OH221626   1.687   0.417   5.021
 7221TIP3    H121627   1.729   0.493   5.061
 7221TIP3    H221628   1.760   0.365   4.986
 7222TIP3   OH221629   5.445   1.747   1.673
 7222TIP3    H121630   5.403   1.833   1.680
 7222TIP3    H221631   5.384   1.687   1.716
 7223TIP3   OH221632   4.098   3.537   4.136
 7223TIP3    H121633   4.024   3.507   4.190
 7223TIP3    H221634   4.135   3.610   4.185
 7224TIP3   OH221635   1.851   1.899   5.630
 7224TIP3    H121636   1.843   1.890   5.725
 7224TIP3    H221637   1.933   1.854   5.609
 7225TIP3   OH221638   7.015   3.111   3.142
 7225TIP3    H121639   7.025   3.206   3.131
 7225TIP3    H221640   7.029   3.097   3.236
 7226TIP3   OH221641   5.920   6.321   2.502
 7226TIP3    H121642   5.846   6.292   2.555
 7226TIP3    H221643   5.962   6.240   2.473
 7227TIP3   OH221644   3.612   2.578   0.722
 7227TIP3    H121645   3.657   2.581   0.806
 7227TIP3    H221646   3.637   2.494   0.685
 7228TIP3   OH221647   1.655   4.808   3.082
 7228TIP3    H121648   1.748   4.803   3.105
 7228TIP3    H221649   1.644   4.743   3.013
 7229TIP3   OH221650   6.490   2.835   4.493
 7229TIP3    H121651   6.414   2.861   4.442
 7229TIP3    H221652   6.524   2.917   4.529
 7230TIP3   OH221653   7.072   2.949   5.230
 7230TIP3    H121654   7.073   2.984   5.318
 7230TIP3    H221655   7.127   3.009   5.180
 7231TIP3   OH221656   4.556   3.291   3.786
 7231TIP3    H121657   4.570   3.259   3.697
 7231TIP3    H221658   4.576   3.385   3.781
 7232TIP3   OH221659   4.453   2.341   5.516
 7232TIP3    H121660   4.446   2.262   5.462
 7232TIP3    H221661   4.443   2.414   5.454
 7233TIP3   OH221662   0.934   4.244   0.580
 7233TIP3    H121663   0.993   4.215   0.510
 7233TIP3    H221664   0.992   4.283   0.645
 7234TIP3   OH221665   4.419   2.965  -0.006
 7234TIP3    H121666   4.475   2.933  -0.077
 7234TIP3    H221667   4.402   3.057  -0.030
 7235TIP3   OH221668   3.812   5.061   3.344
 7235TIP3    H121669   3.742   5.086   3.284
 7235TIP3    H221670   3.781   5.086   3.430
 7236TIP3   OH221671   2.821   1.452   0.340
 7236TIP3    H121672   2.770   1.414   0.268
 7236TIP3    H221673   2.802   1.546   0.336
 7237TIP3   OH221674   0.160   5.690   0.633
 7237TIP3    H121675   0.182   5.665   0.723
 7237TIP3    H221676   0.219   5.763   0.613
 7238TIP3   OH221677   2.884   4.867   2.797
 7238TIP3    H121678   2.896   4.947   2.746
 7238TIP3    H221679   2.794   4.873   2.830
 7239TIP3   OH221680   3.330   1.653   5.625
 7239TIP3    H121681   3.248   1.624   5.586
 7239TIP3    H221682   3.329   1.617   5.713
 7240TIP3   OH221683   2.781   3.959   4.477
 7240TIP3    H121684   2.728   3.904   4.421
 7240TIP3    H221685   2.765   4.048   4.446
 7241TIP3   OH221686   6.039   5.866   2.675
 7241TIP3    H121687   6.130   5.856   2.647
 7241TIP3    H221688   5.997   5.784   2.648
 7242TIP3   OH221689   6.641   3.140   5.788
 7242TIP3    H121690   6.548   3.132   5.767
 7242TIP3    H221691   6.681   3.060   5.751
 7243TIP3   OH221692   0.222   5.326   5.592
 7243TIP3    H121693   0.128   5.307   5.588
 7243TIP3    H221694   0.227   5.415   5.627
 7244TIP3   OH221695   1.518   4.877   3.308
 7244TIP3    H121696   1.577   4.840   3.373
 7244TIP3    H221697   1.570   4.881   3.228
 7245TIP3   OH221698   0.938   1.824   4.278
 7245TIP3    H121699   1.020   1.871   4.287
 7245TIP3    H221700   0.871   1.886   4.306
 7246TIP3   OH221701   6.427   0.874   0.606
 7246TIP3    H121702   6.444   0.817   0.530
 7246TIP3    H221703   6.491   0.847   0.671
 7247TIP3   OH221704   2.125   1.380   1.933
 7247TIP3    H121705   2.143   1.452   1.872
 7247TIP3    H221706   2.199   1.381   1.993
 7248TIP3   OH221707   3.729   5.312   4.002
 7248TIP3    H121708   3.694   5.401   4.003
 7248TIP3    H221709   3.808   5.317   4.056
 7249TIP3   OH221710   0.287   4.913   5.806
 7249TIP3    H121711   0.359   4.937   5.748
 7249TIP3    H221712   0.268   4.993   5.856
 7250TIP3   OH221713   5.461   3.114   1.644
 7250TIP3    H121714   5.437   3.162   1.564
 7250TIP3    H221715   5.506   3.036   1.612
 7251TIP3   OH221716   5.956   1.867   1.779
 7251TIP3    H121717   6.007   1.851   1.700
 7251TIP3    H221718   5.866   1.874   1.748
 7252TIP3   OH221719   5.182   6.106   1.971
 7252TIP3    H121720   5.156   6.082   1.882
 7252TIP3    H221721   5.250   6.172   1.960
 7253TIP3   OH221722   0.237   6.412   3.849
 7253TIP3    H121723   0.193   6.494   3.826
 7253TIP3    H221724   0.216   6.353   3.776
 7254TIP3   OH221725   1.371   4.782   1.405
 7254TIP3    H121726   1.322   4.814   1.482
 7254TIP3    H221727   1.318   4.711   1.371
 7255TIP3   OH221728   0.337   2.866   0.218
 7255TIP3    H121729   0.293   2.937   0.172
 7255TIP3    H221730   0.304   2.870   0.308
 7256TIP3   OH221731   5.833   6.795   4.098
 7256TIP3    H121732   5.869   6.723   4.048
 7256TIP3    H221733   5.741   6.800   4.071
 7257TIP3   OH221734   6.417   5.882   4.567
 7257TIP3    H121735   6.362   5.961   4.568
 7257TIP3    H221736   6.433   5.866   4.474
 7258TIP3   OH221737   0.837   4.956   2.298
 7258TIP3    H121738   0.895   4.881   2.303
 7258TIP3    H221739   0.760   4.924   2.251
 7259TIP3   OH221740   3.698   0.643   4.845
 7259TIP3    H121741   3.753   0.566   4.837
 7259TIP3    H221742   3.758   0.717   4.831
 7260TIP3   OH221743   4.078   2.403   3.726
 7260TIP3    H121744   3.999   2.458   3.726
 7260TIP3    H221745   4.092   2.381   3.634
 7261TIP3   OH221746   3.589   4.800   5.106
 7261TIP3    H121747   3.531   4.740   5.152
 7261TIP3    H221748   3.652   4.743   5.062
 7262TIP3   OH221749   6.263   3.591   0.763
 7262TIP3    H121750   6.301   3.506   0.785
 7262TIP3    H221751   6.181   3.594   0.812
 7263TIP3   OH221752   6.579   4.554   5.502
 7263TIP3    H121753   6.655   4.533   5.556
 7263TIP3    H221754   6.516   4.486   5.522
 7264TIP3   OH221755   1.433   3.344   0.174
 7264TIP3    H121756   1.390   3.332   0.258
 7264TIP3    H221757   1.487   3.423   0.185
 7265TIP3   OH221758   5.744   0.509   0.423
 7265TIP3    H121759   5.827   0.504   0.470
 7265TIP3    H221760   5.764   0.558   0.343
 7266TIP3   OH221761   5.047   0.565   1.085
 7266TIP3    H121762   5.021   0.657   1.092
 7266TIP3    H221763   5.143   0.568   1.081
 7267TIP3   OH221764   1.561   4.602   0.047
 7267TIP3    H121765   1.573   4.693   0.075
 7267TIP3    H221766   1.526   4.557   0.123
 7268TIP3   OH221767   0.250   6.729   2.214
 7268TIP3    H121768   0.302   6.729   2.295
 7268TIP3    H221769   0.186   6.659   2.227
 7269TIP3   OH221770   6.591   1.965   5.179
 7269TIP3    H121771   6.563   1.934   5.093
 7269TIP3    H221772   6.518   1.943   5.237
 7270TIP3   OH221773   4.937   3.138   4.486
 7270TIP3    H121774   4.970   3.137   4.576
 7270TIP3    H221775   5.015   3.125   4.432
 7271TIP3   OH221776   0.685   5.794   1.863
 7271TIP3    H121777   0.752   5.839   1.914
 7271TIP3    H221778   0.731   5.757   1.788
 7272TIP3   OH221779   4.450   4.040   4.453
 7272TIP3    H121780   4.379   3.983   4.424
 7272TIP3    H221781   4.472   4.092   4.376
 7273TIP3   OH221782   1.064   5.255   0.033
 7273TIP3    H121783   1.044   5.163   0.016
 7273TIP3    H221784   1.012   5.276   0.111
 7274TIP3   OH221785   0.406   0.119   0.112
 7274TIP3    H121786   0.313   0.104   0.096
 7274TIP3    H221787   0.428   0.196   0.061
 7275TIP3   OH221788   3.685   0.781   1.251
 7275TIP3    H121789   3.681   0.794   1.156
 7275TIP3    H221790   3.689   0.869   1.287
 7276TIP3   OH221791   2.065   3.956   0.031
 7276TIP3    H121792   1.972   3.979   0.028
 7276TIP3    H221793   2.100   4.007   0.104
 7277TIP3   OH221794   1.758   6.200   2.290
 7277TIP3    H121795   1.721   6.279   2.329
 7277TIP3    H221796   1.699   6.130   2.315
 7278TIP3   OH221797   2.360   6.466   0.579
 7278TIP3    H121798   2.294   6.445   0.645
 7278TIP3    H221799   2.364   6.388   0.524
 7279TIP3   OH221800   1.461   3.664   0.361
 7279TIP3    H121801   1.481   3.671   0.454
 7279TIP3    H221802   1.539   3.626   0.321
 7280TIP3   OH221803   6.337   1.047   2.639
 7280TIP3    H121804   6.342   0.981   2.569
 7280TIP3    H221805   6.345   0.996   2.720
 7281TIP3   OH221806   4.510   5.842   4.319
 7281TIP3    H121807   4.502   5.936   4.338
 7281TIP3    H221808   4.577   5.838   4.251
 7282TIP3   OH221809   4.466   1.412   1.535
 7282TIP3    H121810   4.510   1.401   1.619
 7282TIP3    H221811   4.376   1.385   1.551
 7283TIP3   OH221812   3.352   4.188   1.682
 7283TIP3    H121813   3.340   4.108   1.733
 7283TIP3    H221814   3.410   4.163   1.610
 7284TIP3   OH221815   0.307   3.345   0.326
 7284TIP3    H121816   0.282   3.257   0.356
 7284TIP3    H221817   0.401   3.338   0.308
 7285TIP3   OH221818   4.563   3.754   5.839
 7285TIP3    H121819   4.638   3.699   5.860
 7285TIP3    H221820   4.600   3.826   5.787
 7286TIP3   OH221821   2.880   2.338   1.466
 7286TIP3    H121822   2.815   2.373   1.405
 7286TIP3    H221823   2.962   2.379   1.441
 7287TIP3   OH221824   1.063   4.503   0.140
 7287TIP3    H121825   1.139   4.521   0.194
 7287TIP3    H221826   1.094   4.512   0.050
 7288TIP3   OH221827   3.355   3.798   3.254
 7288TIP3    H121828   3.294   3.855   3.300
 7288TIP3    H221829   3.431   3.791   3.313
 7289TIP3   OH221830   4.856   2.960   4.132
 7289TIP3    H121831   4.775   2.917   4.107
 7289TIP3    H221832   4.835   3.054   4.130
 7290TIP3   OH221833   4.919   0.059   5.310
 7290TIP3    H121834   4.993   0.092   5.259
 7290TIP3    H221835   4.873   0.137   5.341
 7291TIP3   OH221836   2.575   6.159   1.496
 7291TIP3    H121837   2.526   6.085   1.533
 7291TIP3    H221838   2.643   6.118   1.443
 7292TIP3   OH221839   4.053   1.661   3.132
 7292TIP3    H121840   3.987   1.591   3.135
 7292TIP3    H221841   4.128   1.620   3.089
 7293TIP3   OH221842   3.795   2.643   2.532
 7293TIP3    H121843   3.828   2.670   2.446
 7293TIP3    H221844   3.709   2.605   2.513
 7294TIP3   OH221845   6.091   1.339   1.101
 7294TIP3    H121846   6.039   1.343   1.020
 7294TIP3    H221847   6.100   1.431   1.127
 7295TIP3   OH221848   4.519   3.933   1.740
 7295TIP3    H121849   4.575   3.937   1.817
 7295TIP3    H221850   4.566   3.985   1.674
 7296TIP3   OH221851   1.323   4.963   0.783
 7296TIP3    H121852   1.375   5.042   0.780
 7296TIP3    H221853   1.352   4.918   0.863
 7297TIP3   OH221854   7.137   5.492   3.087
 7297TIP3    H121855   7.185   5.410   3.075
 7297TIP3    H221856   7.170   5.550   3.018
 7298TIP3   OH221857   2.872   4.081   5.622
 7298TIP3    H121858   2.791   4.091   5.671
 7298TIP3    H221859   2.941   4.096   5.687
 7299TIP3   OH221860   6.322   6.335   3.346
 7299TIP3    H121861   6.383   6.399   3.310
 7299TIP3    H221862   6.357   6.314   3.432
 7300TIP3   OH221863   1.767   2.384   2.523
 7300TIP3    H121864   1.697   2.323   2.501
 7300TIP3    H221865   1.824   2.335   2.583
 7301TIP3   OH221866   5.361   4.629   5.069
 7301TIP3    H121867   5.327   4.702   5.018
 7301TIP3    H221868   5.321   4.638   5.155
 7302TIP3   OH221869   6.650   4.821   3.360
 7302TIP3    H121870   6.652   4.743   3.304
 7302TIP3    H221871   6.695   4.888   3.309
 7303TIP3   OH221872   4.334   2.419   5.837
 7303TIP3    H121873   4.249   2.377   5.852
 7303TIP3    H221874   4.389   2.389   5.909
 7304TIP3   OH221875   0.115   0.580   5.405
 7304TIP3    H121876   0.097   0.488   5.387
 7304TIP3    H221877   0.179   0.605   5.339
 7305TIP3   OH221878   1.228   4.590   1.231
 7305TIP3    H121879   1.179   4.510   1.246
 7305TIP3    H221880   1.251   4.588   1.137
 7306TIP3   OH221881   3.176   0.531   0.558
 7306TIP3    H121882   3.180   0.626   0.549
 7306TIP3    H221883   3.147   0.517   0.649
 7307TIP3   OH221884   1.755   6.486   0.211
 7307TIP3    H121885   1.817   6.558   0.226
 7307TIP3    H221886   1.801   6.426   0.153
 7308TIP3   OH221887   5.729   6.770   2.148
 7308TIP3    H121888   5.725   6.685   2.103
 7308TIP3    H221889   5.822   6.785   2.164
 7309TIP3   OH221890   3.548   4.390   4.479
 7309TIP3    H121891   3.599   4.461   4.441
 7309TIP3    H221892   3.609   4.343   4.535
 7310TIP3   OH221893   2.370   6.624   2.800
 7310TIP3    H121894   2.333   6.544   2.761
 7310TIP3    H221895   2.401   6.675   2.726
 7311TIP3   OH221896   3.921   4.354   5.499
 7311TIP3    H121897   3.917   4.273   5.550
 7311TIP3    H221898   3.956   4.327   5.414
 7312TIP3   OH221899   0.372   6.754   1.939
 7312TIP3    H121900   0.349   6.716   2.023
 7312TIP3    H221901   0.456   6.798   1.955
 7313TIP3   OH221902   6.875   4.109   3.044
 7313TIP3    H121903   6.805   4.138   3.103
 7313TIP3    H221904   6.830   4.076   2.967
 7314TIP3   OH221905   4.931   6.011   5.218
 7314TIP3    H121906   4.890   6.076   5.276
 7314TIP3    H221907   4.873   6.007   5.142
 7315TIP3   OH221908   0.675   2.919   2.849
 7315TIP3    H121909   0.693   2.991   2.910
 7315TIP3    H221910   0.704   2.840   2.896
 7316TIP3   OH221911   0.262   5.986   1.575
 7316TIP3    H121912   0.290   5.907   1.622
 7316TIP3    H221913   0.173   6.001   1.605
 7317TIP3   OH221914   4.155   4.811   5.213
 7317TIP3    H121915   4.109   4.770   5.141
 7317TIP3    H221916   4.161   4.903   5.188
 7318TIP3   OH221917   6.824   3.170   0.790
 7318TIP3    H121918   6.799   3.219   0.712
 7318TIP3    H221919   6.911   3.137   0.770
 7319TIP3   OH221920   2.861   0.548   5.728
 7319TIP3    H121921   2.879   0.530   5.636
 7319TIP3    H221922   2.768   0.572   5.731
 7320TIP3   OH221923   0.769   0.481   2.446
 7320TIP3    H121924   0.797   0.390   2.454
 7320TIP3    H221925   0.744   0.491   2.354
 7321TIP3   OH221926   4.786   4.001   5.313
 7321TIP3    H121927   4.743   3.978   5.396
 7321TIP3    H221928   4.749   3.941   5.249
 7322TIP3   OH221929   0.661   5.819   4.292
 7322TIP3    H121930   0.665   5.797   4.199
 7322TIP3    H221931   0.721   5.893   4.302
 7323TIP3   OH221932   6.952   0.882   1.814
 7323TIP3    H121933   6.984   0.966   1.783
 7323TIP3    H221934   7.031   0.830   1.829
 7324TIP3   OH221935   6.053   6.453   5.316
 7324TIP3    H121936   6.005   6.380   5.277
 7324TIP3    H221937   6.098   6.415   5.391
 7325TIP3   OH221938   5.018   6.593   4.881
 7325TIP3    H121939   5.087   6.550   4.831
 7325TIP3    H221940   5.025   6.686   4.859
 7326TIP3   OH221941   3.408   3.221   4.376
 7326TIP3    H121942   3.443   3.201   4.463
 7326TIP3    H221943   3.485   3.226   4.320
 7327TIP3   OH221944   5.277   3.543   4.567
 7327TIP3    H121945   5.324   3.593   4.634
 7327TIP3    H221946   5.316   3.570   4.484
 7328TIP3   OH221947   6.382   3.374   0.848
 7328TIP3    H121948   6.366   3.280   0.834
 7328TIP3    H221949   6.433   3.401   0.771
 7329TIP3   OH221950   0.918   1.427   1.932
 7329TIP3    H121951   1.000   1.474   1.943
 7329TIP3    H221952   0.943   1.343   1.896
 7330TIP3   OH221953   3.702   6.314   1.610
 7330TIP3    H121954   3.688   6.372   1.685
 7330TIP3    H221955   3.648   6.352   1.541
 7331TIP3   OH221956   7.183   1.425   4.953
 7331TIP3    H121957   7.161   1.455   5.041
 7331TIP3    H221958   7.099   1.415   4.910
 7332TIP3   OH221959   5.840   2.073   5.770
 7332TIP3    H121960   5.861   1.986   5.804
 7332TIP3    H221961   5.764   2.100   5.821
 7333TIP3   OH221962   5.238   5.154   4.987
 7333TIP3    H121963   5.189   5.208   4.924
 7333TIP3    H221964   5.224   5.196   5.071
 7334TIP3   OH221965   4.865   2.418   1.722
 7334TIP3    H121966   4.957   2.397   1.734
 7334TIP3    H221967   4.832   2.432   1.811
 7335TIP3   OH221968   6.333   4.887   4.510
 7335TIP3    H121969   6.238   4.878   4.502
 7335TIP3    H221970   6.368   4.817   4.455
 7336TIP3   OH221971   1.839   5.549   1.413
 7336TIP3    H121972   1.871   5.616   1.473
 7336TIP3    H221973   1.904   5.545   1.344
 7337TIP3   OH221974   0.342   1.644   4.038
 7337TIP3    H121975   0.323   1.726   3.992
 7337TIP3    H221976   0.266   1.589   4.021
 7338TIP3   OH221977   6.070   5.343   3.421
 7338TIP3    H121978   6.020   5.419   3.389
 7338TIP3    H221979   6.156   5.380   3.443
 7339TIP3   OH221980   5.971   4.221   5.726
 7339TIP3    H121981   5.892   4.227   5.781
 7339TIP3    H221982   5.955   4.281   5.654
 7340TIP3   OH221983   1.608   0.968   4.838
 7340TIP3    H121984   1.634   1.018   4.761
 7340TIP3    H221985   1.540   0.909   4.805
 7341TIP3   OH221986   6.385   5.022   1.923
 7341TIP3    H121987   6.332   5.056   1.851
 7341TIP3    H221988   6.324   5.018   1.997
 7342TIP3   OH221989   6.037   4.090   2.562
 7342TIP3    H121990   6.115   4.145   2.560
 7342TIP3    H221991   6.057   4.017   2.503
 7343TIP3   OH221992   1.597   0.032   1.022
 7343TIP3    H121993   1.560   0.117   0.999
 7343TIP3    H221994   1.523  -0.017   1.059
 7344TIP3   OH221995   6.550   6.138   2.101
 7344TIP3    H121996   6.524   6.049   2.127
 7344TIP3    H221997   6.645   6.132   2.088
 7345TIP3   OH221998   5.438   5.153   0.053
 7345TIP3    H121999   5.445   5.213   0.127
 7345TIP3    H222000   5.344   5.140   0.041
 7346TIP3   OH222001   4.633   4.010   4.784
 7346TIP3    H122002   4.668   3.949   4.719
 7346TIP3    H222003   4.552   4.043   4.746
 7347TIP3   OH222004   5.470   0.767   5.843
 7347TIP3    H122005   5.405   0.734   5.906
 7347TIP3    H222006   5.431   0.751   5.758
 7348TIP3   OH222007   1.413   5.497   2.364
 7348TIP3    H122008   1.343   5.443   2.328
 7348TIP3    H222009   1.409   5.482   2.458
 7349TIP3   OH222010   0.836   1.733   3.408
 7349TIP3    H122011   0.817   1.670   3.340
 7349TIP3    H222012   0.827   1.684   3.490
 7350TIP3   OH222013   2.788   3.690   0.882
 7350TIP3    H122014   2.841   3.740   0.821
 7350TIP3    H222015   2.827   3.603   0.884
 7351TIP3   OH222016   4.603   4.507   0.786
 7351TIP3    H122017   4.552   4.572   0.834
 7351TIP3    H222018   4.682   4.495   0.839
 7352TIP3   OH222019   2.377   4.756   3.309
 7352TIP3    H122020   2.427   4.689   3.263
 7352TIP3    H222021   2.439   4.791   3.373
 7353TIP3   OH222022   6.527   0.386   0.692
 7353TIP3    H122023   6.533   0.387   0.596
 7353TIP3    H222024   6.545   0.294   0.715
 7354TIP3   OH222025   6.147   1.383   3.754
 7354TIP3    H122026   6.132   1.312   3.816
 7354TIP3    H222027   6.212   1.348   3.693
 7355TIP3   OH222028   3.439   4.472   0.891
 7355TIP3    H122029   3.489   4.423   0.956
 7355TIP3    H222030   3.349   4.468   0.921
 7356TIP3   OH222031   2.887   5.906   2.160
 7356TIP3    H122032   2.857   5.876   2.245
 7356TIP3    H222033   2.808   5.907   2.106
 7357TIP3   OH222034   5.906   0.701   4.927
 7357TIP3    H122035   5.835   0.764   4.917
 7357TIP3    H222036   5.872   0.620   4.890
 7358TIP3   OH222037   5.299   5.580   5.811
 7358TIP3    H122038   5.338   5.611   5.729
 7358TIP3    H222039   5.287   5.659   5.863
 7359TIP3   OH222040   5.630   6.451   1.699
 7359TIP3    H122041   5.671   6.386   1.642
 7359TIP3    H222042   5.690   6.525   1.699
 7360TIP3   OH222043   0.134   0.698   1.981
 7360TIP3    H122044   0.177   0.781   1.962
 7360TIP3    H222045   0.148   0.683   2.074
 7361TIP3   OH222046   1.471   3.170   2.438
 7361TIP3    H122047   1.481   3.186   2.344
 7361TIP3    H222048   1.495   3.078   2.450
 7362TIP3   OH222049   3.716   2.323   0.635
 7362TIP3    H122050   3.643   2.265   0.614
 7362TIP3    H222051   3.776   2.270   0.688
 7363TIP3   OH222052   3.745   4.745   5.875
 7363TIP3    H122053   3.734   4.650   5.863
 7363TIP3    H222054   3.749   4.780   5.786
 7364TIP3   OH222055   3.615   3.753   1.004
 7364TIP3    H122056   3.645   3.831   1.052
 7364TIP3    H222057   3.660   3.680   1.046
 7365TIP3   OH222058   2.695   4.407   2.960
 7365TIP3    H122059   2.779   4.393   3.004
 7365TIP3    H222060   2.681   4.326   2.910
 7366TIP3   OH222061   0.276   0.036   0.749
 7366TIP3    H122062   0.285   0.130   0.767
 7366TIP3    H222063   0.361  -0.001   0.770
 7367TIP3   OH222064   1.545   2.914   2.412
 7367TIP3    H122065   1.510   2.829   2.386
 7367TIP3    H222066   1.607   2.938   2.343
 7368TIP3   OH222067   4.493   5.989   1.465
 7368TIP3    H122068   4.568   6.006   1.408
 7368TIP3    H222069   4.420   5.975   1.405
 7369TIP3   OH222070   1.486   1.939   1.684
 7369TIP3    H122071   1.554   1.917   1.748
 7369TIP3    H222072   1.418   1.983   1.736
 7370TIP3   OH222073   1.000   3.064   2.714
 7370TIP3    H122074   1.042   3.042   2.631
 7370TIP3    H222075   1.016   2.988   2.770
 7371TIP3   OH222076   0.668   5.629   0.637
 7371TIP3    H122077   0.754   5.663   0.614
 7371TIP3    H222078   0.633   5.594   0.555
 7372TIP3   OH222079   0.357   6.211   3.992
 7372TIP3    H122080   0.313   6.284   3.948
 7372TIP3    H222081   0.303   6.195   4.070
 7373TIP3   OH222082   5.834   4.394   5.330
 7373TIP3    H122083   5.742   4.414   5.347
 7373TIP3    H222084   5.879   4.478   5.336
 7374TIP3   OH222085   3.673   6.240   5.687
 7374TIP3    H122086   3.624   6.206   5.762
 7374TIP3    H222087   3.737   6.300   5.725
 7375TIP3   OH222088   0.094   6.502   4.183
 7375TIP3    H122089   0.046   6.539   4.109
 7375TIP3    H222090   0.070   6.409   4.184
 7376TIP3   OH222091   2.795   6.244   5.184
 7376TIP3    H122092   2.868   6.303   5.201
 7376TIP3    H222093   2.734   6.296   5.131
 7377TIP3   OH222094   2.537   3.617   5.765
 7377TIP3    H122095   2.463   3.669   5.797
 7377TIP3    H222096   2.614   3.663   5.798
 7378TIP3   OH222097   6.508   6.442   0.487
 7378TIP3    H122098   6.479   6.353   0.505
 7378TIP3    H222099   6.532   6.478   0.572
 7379TIP3   OH222100   4.916   6.498   5.540
 7379TIP3    H122101   4.861   6.575   5.525
 7379TIP3    H222102   5.005   6.530   5.527
 7380TIP3   OH222103   5.004   6.232   5.832
 7380TIP3    H122104   4.909   6.239   5.842
 7380TIP3    H222105   5.035   6.322   5.846
 7381TIP3   OH222106   5.331   1.009   3.570
 7381TIP3    H122107   5.348   1.077   3.505
 7381TIP3    H222108   5.307   1.057   3.649
 7382TIP3   OH222109   4.598   3.356   1.204
 7382TIP3    H122110   4.609   3.296   1.278
 7382TIP3    H222111   4.646   3.316   1.132
 7383TIP3   OH222112   1.558   5.855   4.905
 7383TIP3    H122113   1.636   5.808   4.873
 7383TIP3    H222114   1.571   5.945   4.876
 7384TIP3   OH222115   0.286   5.132   1.876
 7384TIP3    H122116   0.242   5.215   1.893
 7384TIP3    H222117   0.327   5.109   1.959
 7385TIP3   OH222118   6.857   3.990   4.815
 7385TIP3    H122119   6.909   4.020   4.741
 7385TIP3    H222120   6.845   3.896   4.800
 7386TIP3   OH222121   3.306   2.775   4.696
 7386TIP3    H122122   3.221   2.761   4.737
 7386TIP3    H222123   3.366   2.718   4.745
 7387TIP3   OH222124   5.219   5.879   0.095
 7387TIP3    H122125   5.222   5.908   0.004
 7387TIP3    H222126   5.310   5.861   0.119
 7388TIP3   OH222127   5.733   0.256   0.933
 7388TIP3    H122128   5.711   0.210   0.852
 7388TIP3    H222129   5.813   0.303   0.913
 7389TIP3   OH222130   3.673   5.351   0.306
 7389TIP3    H122131   3.712   5.438   0.300
 7389TIP3    H222132   3.665   5.335   0.400
 7390TIP3   OH222133   2.190   3.320   4.311
 7390TIP3    H122134   2.151   3.349   4.394
 7390TIP3    H222135   2.284   3.322   4.326
 7391TIP3   OH222136   4.918   4.248   5.361
 7391TIP3    H122137   4.848   4.229   5.298
 7391TIP3    H222138   4.939   4.163   5.399
 7392TIP3   OH222139   2.201   1.096   0.089
 7392TIP3    H122140   2.181   1.023   0.148
 7392TIP3    H222141   2.120   1.111   0.040
 7393TIP3   OH222142   3.873   1.813   5.716
 7393TIP3    H122143   3.947   1.826   5.657
 7393TIP3    H222144   3.815   1.887   5.700
 7394TIP3   OH222145   0.694   4.639   2.027
 7394TIP3    H122146   0.681   4.592   2.109
 7394TIP3    H222147   0.713   4.570   1.963
 7395TIP3   OH222148   5.926   2.801   2.876
 7395TIP3    H122149   5.856   2.852   2.836
 7395TIP3    H222150   5.946   2.847   2.958
 7396TIP3   OH222151   0.858   6.240   4.111
 7396TIP3    H122152   0.824   6.327   4.090
 7396TIP3    H222153   0.942   6.236   4.065
 7397TIP3   OH222154   2.395   4.800   4.713
 7397TIP3    H122155   2.316   4.751   4.733
 7397TIP3    H222156   2.445   4.741   4.656
 7398TIP3   OH222157   6.736   2.678   2.571
 7398TIP3    H122158   6.690   2.677   2.487
 7398TIP3    H222159   6.680   2.732   2.628
 7399TIP3   OH222160   6.417   3.092   0.738
 7399TIP3    H122161   6.352   3.026   0.763
 7399TIP3    H222162   6.489   3.079   0.799
 7400TIP3   OH222163   5.784   5.387   2.923
 7400TIP3    H122164   5.714   5.428   2.872
 7400TIP3    H222165   5.856   5.377   2.860
 7401TIP3   OH222166   3.649   5.255   3.180
 7401TIP3    H122167   3.659   5.347   3.207
 7401TIP3    H222168   3.555   5.245   3.166
 7402TIP3   OH222169   6.813   4.305   5.225
 7402TIP3    H122170   6.763   4.375   5.183
 7402TIP3    H222171   6.748   4.240   5.250
 7403TIP3   OH222172   6.587   2.738   4.273
 7403TIP3    H122173   6.653   2.800   4.242
 7403TIP3    H222174   6.559   2.772   4.357
 7404TIP3   OH222175   4.568   6.024   3.721
 7404TIP3    H122176   4.611   6.061   3.798
 7404TIP3    H222177   4.490   6.078   3.709
 7405TIP3   OH222178   4.869   0.306   3.095
 7405TIP3    H122179   4.848   0.237   3.032
 7405TIP3    H222180   4.845   0.387   3.049
 7406TIP3   OH222181   2.300   4.081   0.841
 7406TIP3    H122182   2.302   4.047   0.751
 7406TIP3    H222183   2.207   4.082   0.864
 7407TIP3   OH222184   6.108   3.436   5.868
 7407TIP3    H122185   6.076   3.417   5.957
 7407TIP3    H222186   6.124   3.350   5.830
 7408TIP3   OH222187   0.452   4.755   0.376
 7408TIP3    H122188   0.515   4.777   0.308
 7408TIP3    H222189   0.367   4.761   0.333
 7409TIP3   OH222190   2.599   3.819   4.844
 7409TIP3    H122191   2.532   3.767   4.889
 7409TIP3    H222192   2.552   3.897   4.814
 7410TIP3   OH222193   5.932   2.289   1.533
 7410TIP3    H122194   5.862   2.354   1.521
 7410TIP3    H222195   5.936   2.276   1.628
 7411TIP3   OH222196   4.562   0.772   3.737
 7411TIP3    H122197   4.603   0.830   3.673
 7411TIP3    H222198   4.592   0.685   3.713
 7412TIP3   OH222199   1.696   5.055   2.114
 7412TIP3    H122200   1.759   5.117   2.079
 7412TIP3    H222201   1.748   4.977   2.134
 7413TIP3   OH222202   4.114   5.819   5.163
 7413TIP3    H122203   4.174   5.880   5.121
 7413TIP3    H222204   4.170   5.752   5.201
 7414TIP3   OH222205   0.946   2.555   0.907
 7414TIP3    H122206   0.895   2.475   0.922
 7414TIP3    H222207   0.917   2.586   0.821
 7415TIP3   OH222208   6.956   5.141   5.325
 7415TIP3    H122209   6.895   5.073   5.353
 7415TIP3    H222210   7.035   5.126   5.376
 7416TIP3   OH222211   1.984   5.415   2.919
 7416TIP3    H122212   1.911   5.474   2.939
 7416TIP3    H222213   1.942   5.332   2.897
 7417TIP3   OH222214   7.217   3.680   2.363
 7417TIP3    H122215   7.287   3.719   2.310
 7417TIP3    H222216   7.146   3.665   2.301
 7418TIP3   OH222217   0.678   0.795   5.803
 7418TIP3    H122218   0.740   0.751   5.861
 7418TIP3    H222219   0.725   0.872   5.770
 7419TIP3   OH222220   2.604   6.788   0.868
 7419TIP3    H122221   2.530   6.840   0.900
 7419TIP3    H222222   2.670   6.853   0.842
 7420TIP3   OH222223   0.989   6.147   3.524
 7420TIP3    H122224   1.010   6.180   3.611
 7420TIP3    H222225   0.980   6.225   3.469
 7421TIP3   OH222226   4.388   3.242   2.683
 7421TIP3    H122227   4.413   3.334   2.671
 7421TIP3    H222228   4.450   3.193   2.629
 7422TIP3   OH222229   5.359   4.140   5.021
 7422TIP3    H122230   5.407   4.118   4.941
 7422TIP3    H222231   5.360   4.236   5.024
 7423TIP3   OH222232   1.479   1.811   2.749
 7423TIP3    H122233   1.407   1.795   2.811
 7423TIP3    H222234   1.453   1.890   2.702
 7424TIP3   OH222235   0.576   1.193   3.586
 7424TIP3    H122236   0.624   1.134   3.527
 7424TIP3    H222237   0.500   1.222   3.534
 7425TIP3   OH222238   2.014   4.104   2.962
 7425TIP3    H122239   1.960   4.137   2.889
 7425TIP3    H222240   1.955   4.108   3.038
 7426TIP3   OH222241   3.988   1.698   5.050
 7426TIP3    H122242   4.010   1.721   5.140
 7426TIP3    H222243   3.902   1.657   5.056
 7427TIP3   OH222244   2.904   2.809   5.296
 7427TIP3    H122245   2.987   2.818   5.249
 7427TIP3    H222246   2.862   2.895   5.287
 7428TIP3   OH222247   4.513   5.923   1.723
 7428TIP3    H122248   4.501   5.950   1.632
 7428TIP3    H222249   4.554   5.837   1.717
 7429TIP3   OH222250   6.463   0.531   1.294
 7429TIP3    H122251   6.556   0.540   1.275
 7429TIP3    H222252   6.429   0.620   1.286
 7430TIP3   OH222253   3.999   1.749   3.898
 7430TIP3    H122254   4.036   1.727   3.983
 7430TIP3    H222255   3.904   1.739   3.909
 7431TIP3   OH222256   4.430   2.865   4.351
 7431TIP3    H122257   4.338   2.838   4.344
 7431TIP3    H222258   4.429   2.959   4.335
 7432TIP3   OH222259   2.676   1.490   1.326
 7432TIP3    H122260   2.640   1.541   1.253
 7432TIP3    H222261   2.622   1.411   1.330
 7433TIP3   OH222262   4.018   4.746   4.982
 7433TIP3    H122263   4.013   4.756   4.887
 7433TIP3    H222264   3.933   4.709   5.007
 7434TIP3   OH222265   2.655   6.394   1.633
 7434TIP3    H122266   2.692   6.430   1.553
 7434TIP3    H222267   2.620   6.309   1.607
 7435TIP3   OH222268   2.393   1.079   3.534
 7435TIP3    H122269   2.305   1.086   3.498
 7435TIP3    H222270   2.432   1.006   3.486
 7436TIP3   OH222271   6.846   1.015   3.174
 7436TIP3    H122272   6.926   0.973   3.141
 7436TIP3    H222273   6.779   0.994   3.109
 7437TIP3   OH222274   5.811   0.737   2.536
 7437TIP3    H122275   5.754   0.806   2.500
 7437TIP3    H222276   5.753   0.687   2.594
 7438TIP3   OH222277   2.050   4.121   0.296
 7438TIP3    H122278   2.142   4.127   0.320
 7438TIP3    H222279   2.017   4.045   0.346
 7439TIP3   OH222280   6.197   6.238   0.076
 7439TIP3    H122281   6.272   6.275   0.030
 7439TIP3    H222282   6.226   6.229   0.167
 7440TIP3   OH222283   0.583   5.639   4.805
 7440TIP3    H122284   0.612   5.655   4.715
 7440TIP3    H222285   0.652   5.583   4.842
 7441TIP3   OH222286   5.415   4.073   4.149
 7441TIP3    H122287   5.390   4.137   4.215
 7441TIP3    H222288   5.417   4.123   4.067
 7442TIP3   OH222289   2.834   3.323   1.318
 7442TIP3    H122290   2.789   3.387   1.372
 7442TIP3    H222291   2.800   3.239   1.347
 7443TIP3   OH222292   2.707   5.695   1.473
 7443TIP3    H122293   2.667   5.620   1.428
 7443TIP3    H222294   2.799   5.672   1.479
 7444TIP3   OH222295   2.650   4.697   2.910
 7444TIP3    H122296   2.556   4.695   2.929
 7444TIP3    H222297   2.674   4.606   2.895
 7445TIP3   OH222298   0.570   2.211   4.271
 7445TIP3    H122299   0.521   2.227   4.352
 7445TIP3    H222300   0.653   2.173   4.301
 7446TIP3   OH222301   1.220   4.716   4.960
 7446TIP3    H122302   1.230   4.811   4.951
 7446TIP3    H222303   1.240   4.682   4.873
 7447TIP3   OH222304   1.917   0.878   3.664
 7447TIP3    H122305   1.949   0.876   3.574
 7447TIP3    H222306   1.951   0.797   3.703
 7448TIP3   OH222307   0.081   3.540   0.727
 7448TIP3    H122308   0.012   3.474   0.733
 7448TIP3    H222309   0.082   3.566   0.635
 7449TIP3   OH222310   0.026   5.561   0.259
 7449TIP3    H122311   0.047   5.651   0.234
 7449TIP3    H222312  -0.018   5.569   0.344
 7450TIP3   OH222313   2.522   4.834   4.939
 7450TIP3    H122314   2.557   4.924   4.941
 7450TIP3    H222315   2.473   4.830   4.856
 7451TIP3   OH222316   1.335   1.598   0.998
 7451TIP3    H122317   1.402   1.598   0.929
 7451TIP3    H222318   1.274   1.668   0.973
 7452TIP3   OH222319   5.527   2.868   2.402
 7452TIP3    H122320   5.582   2.928   2.352
 7452TIP3    H222321   5.437   2.894   2.380
 7453TIP3   OH222322   2.841   6.017   4.019
 7453TIP3    H122323   2.821   5.960   3.944
 7453TIP3    H222324   2.763   6.011   4.075
 7454TIP3   OH222325   1.279   3.929   5.762
 7454TIP3    H122326   1.279   3.997   5.695
 7454TIP3    H222327   1.360   3.880   5.747
 7455TIP3   OH222328   6.693   1.892   5.875
 7455TIP3    H122329   6.628   1.958   5.850
 7455TIP3    H222330   6.769   1.911   5.820
 7456TIP3   OH222331   1.691   1.832   5.386
 7456TIP3    H122332   1.604   1.811   5.421
 7456TIP3    H222333   1.739   1.866   5.462
 7457TIP3   OH222334   0.408   1.782   1.631
 7457TIP3    H122335   0.343   1.826   1.685
 7457TIP3    H222336   0.492   1.803   1.672
 7458TIP3   OH222337   5.546   4.563   2.405
 7458TIP3    H122338   5.479   4.623   2.438
 7458TIP3    H222339   5.607   4.621   2.358
 7459TIP3   OH222340   5.165   0.543   2.927
 7459TIP3    H122341   5.137   0.474   2.866
 7459TIP3    H222342   5.159   0.624   2.876
 7460TIP3   OH222343   0.077   4.844   1.236
 7460TIP3    H122344   0.034   4.928   1.246
 7460TIP3    H222345   0.170   4.865   1.227
 7461TIP3   OH222346   4.315   2.443   4.780
 7461TIP3    H122347   4.351   2.388   4.850
 7461TIP3    H222348   4.232   2.400   4.756
 7462TIP3   OH222349   6.421   5.874   1.345
 7462TIP3    H122350   6.467   5.913   1.271
 7462TIP3    H222351   6.484   5.878   1.417
 7463TIP3   OH222352   3.591   1.407   5.078
 7463TIP3    H122353   3.506   1.381   5.112
 7463TIP3    H222354   3.571   1.465   5.005
 7464TIP3   OH222355   5.087   6.377   2.861
 7464TIP3    H122356   5.042   6.444   2.810
 7464TIP3    H222357   5.177   6.410   2.870
 7465TIP3   OH222358   4.314   5.744   1.040
 7465TIP3    H122359   4.362   5.690   1.103
 7465TIP3    H222360   4.335   5.706   0.955
 7466TIP3   OH222361   2.902   4.549   1.689
 7466TIP3    H122362   2.980   4.513   1.648
 7466TIP3    H222363   2.893   4.500   1.771
 7467TIP3   OH222364   0.784   6.514   2.237
 7467TIP3    H122365   0.774   6.563   2.155
 7467TIP3    H222366   0.807   6.425   2.208
 7468TIP3   OH222367   3.906   2.883   1.154
 7468TIP3    H122368   3.916   2.788   1.145
 7468TIP3    H222369   3.988   2.911   1.196
 7469TIP3   OH222370   5.676   4.476   4.015
 7469TIP3    H122371   5.681   4.537   4.088
 7469TIP3    H222372   5.612   4.410   4.042
 7470TIP3   OH222373   0.761   3.164   2.659
 7470TIP3    H122374   0.853   3.159   2.684
 7470TIP3    H222375   0.739   3.076   2.628
 7471TIP3   OH222376   6.613   3.081   4.516
 7471TIP3    H122377   6.536   3.136   4.503
 7471TIP3    H222378   6.681   3.123   4.464
 7472TIP3   OH222379   5.901   0.720   2.273
 7472TIP3    H122380   5.848   0.725   2.352
 7472TIP3    H222381   5.843   0.749   2.203
 7473TIP3   OH222382   4.628   1.579   4.327
 7473TIP3    H122383   4.658   1.526   4.401
 7473TIP3    H222384   4.632   1.669   4.358
 7474TIP3   OH222385   5.559   3.609   3.500
 7474TIP3    H122386   5.472   3.642   3.517
 7474TIP3    H222387   5.568   3.533   3.557
 7475TIP3   OH222388   5.364   0.297   1.837
 7475TIP3    H122389   5.406   0.381   1.857
 7475TIP3    H222390   5.382   0.283   1.744
 7476TIP3   OH222391   5.874   0.459   5.903
 7476TIP3    H122392   5.906   0.534   5.853
 7476TIP3    H222393   5.835   0.401   5.838
 7477TIP3   OH222394   3.090   0.596   4.156
 7477TIP3    H122395   3.140   0.541   4.216
 7477TIP3    H222396   3.152   0.619   4.087
 7478TIP3   OH222397   0.969   4.681   5.752
 7478TIP3    H122398   0.949   4.691   5.845
 7478TIP3    H222399   0.903   4.733   5.707
 7479TIP3   OH222400   6.415   2.366   5.802
 7479TIP3    H122401   6.423   2.360   5.897
 7479TIP3    H222402   6.501   2.396   5.773
 7480TIP3   OH222403   0.755   1.253   1.432
 7480TIP3    H122404   0.796   1.181   1.385
 7480TIP3    H222405   0.665   1.254   1.398
 7481TIP3   OH222406   2.298   1.757   4.557
 7481TIP3    H122407   2.205   1.738   4.567
 7481TIP3    H222408   2.313   1.757   4.462
 7482TIP3   OH222409   2.436   1.044   3.181
 7482TIP3    H122410   2.517   1.065   3.229
 7482TIP3    H222411   2.466   1.012   3.096
 7483TIP3   OH222412   1.650   0.923   1.576
 7483TIP3    H122413   1.696   0.954   1.654
 7483TIP3    H222414   1.703   0.954   1.502
 7484TIP3   OH222415   6.136   0.646   5.300
 7484TIP3    H122416   6.120   0.583   5.229
 7484TIP3    H222417   6.071   0.715   5.285
 7485TIP3   OH222418   6.233   1.057   0.622
 7485TIP3    H122419   6.231   1.067   0.527
 7485TIP3    H222420   6.292   0.983   0.638
 7486TIP3   OH222421   6.006   0.173   4.812
 7486TIP3    H122422   6.070   0.230   4.768
 7486TIP3    H222423   6.049   0.148   4.894
 7487TIP3   OH222424   3.272   0.998   0.988
 7487TIP3    H122425   3.300   0.971   1.075
 7487TIP3    H222426   3.319   1.080   0.972
 7488TIP3   OH222427   0.553   0.760   1.127
 7488TIP3    H122428   0.566   0.854   1.116
 7488TIP3    H222429   0.486   0.752   1.195
 7489TIP3   OH222430   1.930   3.213   3.382
 7489TIP3    H122431   1.993   3.171   3.441
 7489TIP3    H222432   1.982   3.237   3.305
 7490TIP3   OH222433   4.116   4.250   1.550
 7490TIP3    H122434   4.114   4.242   1.645
 7490TIP3    H222435   4.206   4.276   1.530
 7491TIP3   OH222436   6.078   1.168   0.827
 7491TIP3    H122437   6.108   1.097   0.770
 7491TIP3    H222438   6.145   1.236   0.819
 7492TIP3   OH222439   6.587   5.267   3.796
 7492TIP3    H122440   6.651   5.278   3.866
 7492TIP3    H222441   6.545   5.184   3.815
 7493TIP3   OH222442   2.456   2.645   1.722
 7493TIP3    H122443   2.467   2.736   1.748
 7493TIP3    H222444   2.390   2.648   1.652
 7494TIP3   OH222445   3.505   3.249   4.630
 7494TIP3    H122446   3.565   3.215   4.696
 7494TIP3    H222447   3.529   3.341   4.621
 7495TIP3   OH222448   5.876   4.119   5.338
 7495TIP3    H122449   5.847   4.206   5.363
 7495TIP3    H222450   5.810   4.060   5.374
 7496TIP3   OH222451   5.027   5.744   4.077
 7496TIP3    H122452   5.115   5.741   4.113
 7496TIP3    H222453   5.034   5.802   4.000
 7497TIP3   OH222454   4.232   0.885   3.652
 7497TIP3    H122455   4.297   0.825   3.615
 7497TIP3    H222456   4.200   0.839   3.730
 7498TIP3   OH222457   3.829   0.035   4.750
 7498TIP3    H122458   3.853   0.113   4.701
 7498TIP3    H222459   3.911   0.001   4.785
 7499TIP3   OH222460   2.006   3.681   3.042
 7499TIP3    H122461   1.912   3.683   3.063
 7499TIP3    H222462   2.014   3.734   2.963
 7500TIP3   OH222463   5.124   4.881   2.642
 7500TIP3    H122464   5.180   4.927   2.704
 7500TIP3    H222465   5.107   4.796   2.683
 7501TIP3   OH222466   1.584   5.936   0.909
 7501TIP3    H122467   1.620   5.958   0.823
 7501TIP3    H222468   1.613   5.846   0.925
 7502TIP3   OH222469   5.691   0.153   3.448
 7502TIP3    H122470   5.636   0.118   3.378
 7502TIP3    H222471   5.738   0.077   3.483
 7503TIP3   OH222472   7.103   4.009   2.755
 7503TIP3    H122473   7.186   4.039   2.718
 7503TIP3    H222474   7.087   3.925   2.711
 7504TIP3   OH222475   2.330   2.082   4.056
 7504TIP3    H122476   2.368   2.160   4.096
 7504TIP3    H222477   2.400   2.017   4.058
 7505TIP3   OH222478   5.077   5.273   3.799
 7505TIP3    H122479   5.129   5.195   3.779
 7505TIP3    H222480   4.989   5.240   3.813
 7506TIP3   OH222481   0.235   4.728   2.813
 7506TIP3    H122482   0.159   4.701   2.866
 7506TIP3    H222483   0.252   4.819   2.839
 7507TIP3   OH222484   4.827   6.368   4.302
 7507TIP3    H122485   4.886   6.375   4.226
 7507TIP3    H222486   4.885   6.377   4.378
 7508TIP3   OH222487   1.009   0.199   0.767
 7508TIP3    H122488   1.007   0.293   0.750
 7508TIP3    H222489   0.956   0.160   0.697
 7509TIP3   OH222490   5.149   3.419   1.839
 7509TIP3    H122491   5.224   3.412   1.898
 7509TIP3    H222492   5.079   3.456   1.893
 7510TIP3   OH222493   4.210   1.959   5.019
 7510TIP3    H122494   4.157   1.966   4.939
 7510TIP3    H222495   4.153   1.915   5.082
 7511TIP3   OH222496   1.179   5.907   4.974
 7511TIP3    H122497   1.242   5.902   4.902
 7511TIP3    H222498   1.116   5.837   4.956
 7512TIP3   OH222499   3.862   2.102   0.777
 7512TIP3    H122500   3.859   2.090   0.682
 7512TIP3    H222501   3.834   2.018   0.813
 7513TIP3   OH222502   5.546   2.552   2.890
 7513TIP3    H122503   5.460   2.556   2.849
 7513TIP3    H222504   5.530   2.572   2.982
 7514TIP3   OH222505   6.362   6.098   5.121
 7514TIP3    H122506   6.434   6.060   5.072
 7514TIP3    H222507   6.377   6.070   5.212
 7515TIP3   OH222508   6.106   6.443   2.786
 7515TIP3    H122509   6.037   6.398   2.834
 7515TIP3    H222510   6.063   6.518   2.745
 7516TIP3   OH222511   2.615   6.084   2.256
 7516TIP3    H122512   2.687   6.124   2.206
 7516TIP3    H222513   2.652   6.071   2.344
 7517TIP3   OH222514   0.421   5.112   2.110
 7517TIP3    H122515   0.459   5.155   2.186
 7517TIP3    H222516   0.462   5.026   2.107
 7518TIP3   OH222517   5.244   1.877   5.639
 7518TIP3    H122518   5.276   1.898   5.726
 7518TIP3    H222519   5.167   1.821   5.654
 7519TIP3   OH222520   5.378   3.306   2.870
 7519TIP3    H122521   5.321   3.304   2.946
 7519TIP3    H222522   5.467   3.304   2.906
 7520TIP3   OH222523   0.955   6.637   4.907
 7520TIP3    H122524   0.886   6.603   4.851
 7520TIP3    H222525   1.015   6.681   4.847
 7521TIP3   OH222526   0.542   5.109  -0.033
 7521TIP3    H122527   0.582   5.135   0.049
 7521TIP3    H222528   0.455   5.149  -0.031
 7522TIP3   OH222529   5.721   5.190   0.395
 7522TIP3    H122530   5.811   5.199   0.428
 7522TIP3    H222531   5.725   5.223   0.305
 7523TIP3   OH222532   1.820   5.636   4.178
 7523TIP3    H122533   1.872   5.562   4.208
 7523TIP3    H222534   1.884   5.707   4.168
 7524TIP3   OH222535   5.177   5.937   4.859
 7524TIP3    H122536   5.165   5.866   4.922
 7524TIP3    H222537   5.159   6.017   4.909
 7525TIP3   OH222538   0.780   2.486   4.506
 7525TIP3    H122539   0.872   2.506   4.490
 7525TIP3    H222540   0.777   2.390   4.512
 7526TIP3   OH222541   1.487   0.819   1.776
 7526TIP3    H122542   1.553   0.841   1.711
 7526TIP3    H222543   1.406   0.859   1.742
 7527TIP3   OH222544   7.198   2.313   5.762
 7527TIP3    H122545   7.215   2.235   5.710
 7527TIP3    H222546   7.169   2.280   5.847
 7528TIP3   OH222547   3.016   5.813   4.816
 7528TIP3    H122548   3.020   5.903   4.848
 7528TIP3    H222549   3.088   5.768   4.860
 7529TIP3   OH222550   6.957   4.646   5.097
 7529TIP3    H122551   6.866   4.625   5.116
 7529TIP3    H222552   6.953   4.731   5.051
 7530TIP3   OH222553   2.246   4.030   2.850
 7530TIP3    H122554   2.287   4.117   2.849
 7530TIP3    H222555   2.184   4.034   2.923
 7531TIP3   OH222556   1.197   2.305   4.845
 7531TIP3    H122557   1.104   2.290   4.862
 7531TIP3    H222558   1.206   2.292   4.750
 7532TIP3   OH222559   3.361   3.943   5.147
 7532TIP3    H122560   3.342   4.025   5.193
 7532TIP3    H222561   3.442   3.961   5.099
 7533TIP3   OH222562   5.103   0.311   2.789
 7533TIP3    H122563   5.116   0.237   2.730
 7533TIP3    H222564   5.186   0.321   2.835
 7534TIP3   OH222565   2.799   3.022   0.870
 7534TIP3    H122566   2.849   3.053   0.945
 7534TIP3    H222567   2.817   3.086   0.801
 7535TIP3   OH222568   1.729   3.857   4.399
 7535TIP3    H122569   1.777   3.842   4.481
 7535TIP3    H222570   1.656   3.795   4.401
 7536TIP3   OH222571   5.139   0.405   2.056
 7536TIP3    H122572   5.095   0.388   1.972
 7536TIP3    H222573   5.107   0.491   2.082
 7537TIP3   OH222574   1.249   3.661   1.603
 7537TIP3    H122575   1.235   3.578   1.558
 7537TIP3    H222576   1.319   3.642   1.666
 7538TIP3   OH222577   2.025   6.272   2.235
 7538TIP3    H122578   1.937   6.242   2.256
 7538TIP3    H222579   2.020   6.367   2.238
 7539TIP3   OH222580   3.638   3.483   4.534
 7539TIP3    H122581   3.715   3.464   4.480
 7539TIP3    H222582   3.666   3.462   4.623
 7540TIP3   OH222583   5.361   4.848   3.046
 7540TIP3    H122584   5.322   4.806   3.122
 7540TIP3    H222585   5.403   4.927   3.081
 7541TIP3   OH222586   0.035   5.358   1.674
 7541TIP3    H122587   0.118   5.311   1.664
 7541TIP3    H222588   0.033   5.419   1.600
 7542TIP3   OH222589   2.799   0.956   1.611
 7542TIP3    H122590   2.749   0.962   1.530
 7542TIP3    H222591   2.749   1.006   1.674
 7543TIP3   OH222592   6.327   4.635   5.006
 7543TIP3    H122593   6.257   4.617   4.943
 7543TIP3    H222594   6.294   4.601   5.089
 7544TIP3   OH222595   0.248   3.401   3.911
 7544TIP3    H122596   0.216   3.369   3.826
 7544TIP3    H222597   0.183   3.465   3.938
 7545TIP3   OH222598   1.313   3.093   0.330
 7545TIP3    H122599   1.330   3.003   0.301
 7545TIP3    H222600   1.295   3.084   0.424
 7546TIP3   OH222601   3.716   1.015   1.347
 7546TIP3    H122602   3.667   1.097   1.359
 7546TIP3    H222603   3.790   1.022   1.407
 7547TIP3   OH222604   7.162   4.800   3.188
 7547TIP3    H122605   7.196   4.719   3.226
 7547TIP3    H222606   7.153   4.859   3.262
 7548TIP3   OH222607   2.363   1.417   2.059
 7548TIP3    H122608   2.452   1.451   2.052
 7548TIP3    H222609   2.373   1.326   2.087
 7549TIP3   OH222610   0.492   2.793   2.353
 7549TIP3    H122611   0.459   2.733   2.287
 7549TIP3    H222612   0.429   2.789   2.424
 7550TIP3   OH222613   1.739   4.470   0.272
 7550TIP3    H122614   1.800   4.527   0.319
 7550TIP3    H222615   1.674   4.530   0.234
 7551TIP3   OH222616   2.641   5.701   2.553
 7551TIP3    H122617   2.562   5.656   2.524
 7551TIP3    H222618   2.709   5.672   2.492
 7552TIP3   OH222619   2.342   0.169   4.607
 7552TIP3    H122620   2.281   0.133   4.542
 7552TIP3    H222621   2.425   0.126   4.587
 7553TIP3   OH222622   6.474   3.164   2.789
 7553TIP3    H122623   6.531   3.194   2.860
 7553TIP3    H222624   6.386   3.172   2.824
 7554TIP3   OH222625   2.445   4.153   3.526
 7554TIP3    H122626   2.418   4.069   3.488
 7554TIP3    H222627   2.364   4.192   3.559
 7555TIP3   OH222628   5.118   2.330   4.056
 7555TIP3    H122629   5.124   2.401   4.120
 7555TIP3    H222630   5.203   2.286   4.062
 7556TIP3   OH222631   5.758   0.487   5.191
 7556TIP3    H122632   5.750   0.576   5.156
 7556TIP3    H222633   5.668   0.461   5.213
 7557TIP3   OH222634   1.210   5.514   3.890
 7557TIP3    H122635   1.294   5.525   3.934
 7557TIP3    H222636   1.156   5.464   3.952
 7558TIP3   OH222637   1.658   0.926   0.749
 7558TIP3    H122638   1.746   0.964   0.753
 7558TIP3    H222639   1.601   0.994   0.786
 7559TIP3   OH222640   6.001   2.571   1.092
 7559TIP3    H122641   6.082   2.620   1.102
 7559TIP3    H222642   5.938   2.616   1.148
 7560TIP3   OH222643   6.217   0.428   0.847
 7560TIP3    H122644   6.252   0.501   0.796
 7560TIP3    H222645   6.245   0.350   0.799
 7561TIP3   OH222646   4.001   0.869   2.648
 7561TIP3    H122647   4.060   0.804   2.610
 7561TIP3    H222648   4.044   0.896   2.729
 7562TIP3   OH222649   2.509   3.669   0.344
 7562TIP3    H122650   2.536   3.578   0.348
 7562TIP3    H222651   2.460   3.684   0.425
 7563TIP3   OH222652   2.936   6.255   5.842
 7563TIP3    H122653   2.864   6.313   5.865
 7563TIP3    H222654   2.907   6.211   5.762
 7564TIP3   OH222655   3.524   1.926   2.166
 7564TIP3    H122656   3.561   1.951   2.251
 7564TIP3    H222657   3.600   1.900   2.114
 7565TIP3   OH222658   6.458   6.188   5.881
 7565TIP3    H122659   6.493   6.217   5.797
 7565TIP3    H222660   6.488   6.097   5.889
 7566TIP3   OH222661   1.529   4.028   1.277
 7566TIP3    H122662   1.467   4.099   1.261
 7566TIP3    H222663   1.476   3.949   1.276
 7567TIP3   OH222664   0.698   4.537   1.244
 7567TIP3    H122665   0.691   4.598   1.171
 7567TIP3    H222666   0.747   4.585   1.311
 7568TIP3   OH222667   4.124   6.803   4.417
 7568TIP3    H122668   4.054   6.822   4.355
 7568TIP3    H222669   4.147   6.712   4.400
 7569TIP3   OH222670   4.502   4.697   2.666
 7569TIP3    H122671   4.569   4.765   2.673
 7569TIP3    H222672   4.460   4.713   2.582
 7570TIP3   OH222673   4.039   0.200   4.922
 7570TIP3    H122674   3.999   0.125   4.967
 7570TIP3    H222675   4.118   0.165   4.882
 7571TIP3   OH222676   5.676   0.678   0.907
 7571TIP3    H122677   5.696   0.682   0.814
 7571TIP3    H222678   5.626   0.597   0.918
 7572TIP3   OH222679   3.996   2.552   2.724
 7572TIP3    H122680   3.920   2.563   2.668
 7572TIP3    H222681   3.959   2.530   2.810
 7573TIP3   OH222682   6.711   4.916   2.486
 7573TIP3    H122683   6.725   4.825   2.459
 7573TIP3    H222684   6.689   4.962   2.405
 7574TIP3   OH222685   2.257   2.087   0.460
 7574TIP3    H122686   2.247   2.138   0.380
 7574TIP3    H222687   2.297   2.005   0.431
 7575TIP3   OH222688   6.838   0.714   4.299
 7575TIP3    H122689   6.929   0.730   4.273
 7575TIP3    H222690   6.833   0.620   4.316
 7576TIP3   OH222691   6.356   5.416   0.440
 7576TIP3    H122692   6.352   5.322   0.425
 7576TIP3    H222693   6.396   5.425   0.527
 7577TIP3   OH222694   1.649   4.792   0.731
 7577TIP3    H122695   1.632   4.762   0.821
 7577TIP3    H222696   1.742   4.813   0.730
 7578TIP3   OH222697   5.151   5.254   5.244
 7578TIP3    H122698   5.092   5.184   5.272
 7578TIP3    H222699   5.213   5.263   5.316
 7579TIP3   OH222700   1.135   3.469   2.622
 7579TIP3    H122701   1.187   3.434   2.695
 7579TIP3    H222702   1.148   3.407   2.551
 7580TIP3   OH222703   3.456   1.287   1.629
 7580TIP3    H122704   3.362   1.306   1.630
 7580TIP3    H222705   3.486   1.314   1.716
 7581TIP3   OH222706   1.339   5.260   3.782
 7581TIP3    H122707   1.274   5.228   3.845
 7581TIP3    H222708   1.293   5.260   3.698
 7582TIP3   OH222709   5.933   3.805   2.194
 7582TIP3    H122710   6.027   3.785   2.194
 7582TIP3    H222711   5.910   3.813   2.286
 7583TIP3   OH222712   2.355   5.387   0.289
 7583TIP3    H122713   2.416   5.387   0.216
 7583TIP3    H222714   2.403   5.427   0.362
 7584TIP3   OH222715   7.153   0.091   3.388
 7584TIP3    H122716   7.150   0.075   3.293
 7584TIP3    H222717   7.217   0.029   3.421
 7585TIP3   OH222718   4.382   4.505   5.839
 7585TIP3    H122719   4.405   4.579   5.783
 7585TIP3    H222720   4.289   4.518   5.859
 7586TIP3   OH222721   0.719   4.706   5.195
 7586TIP3    H122722   0.708   4.793   5.234
 7586TIP3    H222723   0.783   4.720   5.124
 7587TIP3   OH222724   1.893   1.247   1.977
 7587TIP3    H122725   1.913   1.190   2.051
 7587TIP3    H222726   1.978   1.278   1.947
 7588TIP3   OH222727   3.463   0.513   4.636
 7588TIP3    H122728   3.437   0.447   4.701
 7588TIP3    H222729   3.450   0.597   4.682
 7589TIP3   OH222730   3.004   1.431   1.026
 7589TIP3    H122731   2.990   1.383   1.108
 7589TIP3    H222732   2.928   1.488   1.018
 7590TIP3   OH222733   3.182  -0.005   1.723
 7590TIP3    H122734   3.115   0.051   1.764
 7590TIP3    H222735   3.132  -0.077   1.684
 7591TIP3   OH222736   0.926   6.281   5.277
 7591TIP3    H122737   0.873   6.328   5.341
 7591TIP3    H222738   0.971   6.350   5.227
 7592TIP3   OH222739   5.750   1.842   5.576
 7592TIP3    H122740   5.805   1.917   5.555
 7592TIP3    H222741   5.697   1.872   5.650
 7593TIP3   OH222742   3.609   5.333   0.608
 7593TIP3    H122743   3.565   5.389   0.544
 7593TIP3    H222744   3.674   5.390   0.649
 7594TIP3   OH222745   3.356   1.522   0.266
 7594TIP3    H122746   3.316   1.588   0.210
 7594TIP3    H222747   3.283   1.467   0.294
 7595TIP3   OH222748   2.200   2.617   4.010
 7595TIP3    H122749   2.148   2.633   4.089
 7595TIP3    H222750   2.146   2.557   3.958
 7596TIP3   OH222751   5.151   0.154   0.208
 7596TIP3    H122752   5.221   0.173   0.270
 7596TIP3    H222753   5.121   0.066   0.231
 7597TIP3   OH222754   6.017   4.445   1.287
 7597TIP3    H122755   5.967   4.431   1.206
 7597TIP3    H222756   5.962   4.502   1.340
 7598TIP3   OH222757   0.714   0.427   0.874
 7598TIP3    H122758   0.734   0.362   0.807
 7598TIP3    H222759   0.705   0.509   0.825
 7599TIP3   OH222760   0.834   5.173   1.460
 7599TIP3    H122761   0.755   5.174   1.515
 7599TIP3    H222762   0.820   5.100   1.400
 7600TIP3   OH222763   3.372   6.429   1.318
 7600TIP3    H122764   3.324   6.382   1.387
 7600TIP3    H222765   3.464   6.410   1.336
 7601TIP3   OH222766   6.658   6.340   1.815
 7601TIP3    H122767   6.690   6.375   1.732
 7601TIP3    H222768   6.725   6.276   1.841
 7602TIP3   OH222769   2.031   0.708   3.003
 7602TIP3    H122770   2.045   0.658   3.083
 7602TIP3    H222771   2.109   0.691   2.950
 7603TIP3   OH222772   1.130   6.354   3.663
 7603TIP3    H122773   1.163   6.359   3.753
 7603TIP3    H222774   1.057   6.416   3.661
 7604TIP3   OH222775   6.199   4.130   5.826
 7604TIP3    H122776   6.210   4.041   5.792
 7604TIP3    H222777   6.117   4.161   5.787
 7605TIP3   OH222778   3.374   0.908   5.015
 7605TIP3    H122779   3.407   0.961   4.942
 7605TIP3    H222780   3.403   0.819   4.994
 7606TIP3   OH222781   4.156   5.273   2.974
 7606TIP3    H122782   4.203   5.191   2.991
 7606TIP3    H222783   4.083   5.272   3.036
 7607TIP3   OH222784   3.768   5.721   0.880
 7607TIP3    H122785   3.672   5.721   0.878
 7607TIP3    H222786   3.792   5.646   0.824
 7608TIP3   OH222787   4.823   5.538   2.894
 7608TIP3    H122788   4.756   5.549   2.827
 7608TIP3    H222789   4.898   5.501   2.847
 7609TIP3   OH222790   4.508   1.235   3.818
 7609TIP3    H122791   4.599   1.223   3.791
 7609TIP3    H222792   4.493   1.330   3.812
 7610TIP3   OH222793   1.909   0.397   2.085
 7610TIP3    H122794   1.888   0.491   2.089
 7610TIP3    H222795   1.826   0.356   2.061
 7611TIP3   OH222796   4.749   5.958   2.078
 7611TIP3    H122797   4.812   6.024   2.050
 7611TIP3    H222798   4.757   5.955   2.173
 7612TIP3   OH222799   5.231   6.240   4.460
 7612TIP3    H122800   5.238   6.232   4.555
 7612TIP3    H222801   5.209   6.152   4.431
 7613TIP3   OH222802   1.334   3.929   0.236
 7613TIP3    H122803   1.343   3.834   0.226
 7613TIP3    H222804   1.400   3.953   0.301
 7614TIP3   OH222805   0.913   6.099   2.751
 7614TIP3    H122806   0.981   6.123   2.815
 7614TIP3    H222807   0.911   6.004   2.753
 7615TIP3   OH222808   4.387   0.408   1.920
 7615TIP3    H122809   4.304   0.365   1.944
 7615TIP3    H222810   4.399   0.386   1.828
 7616TIP3   OH222811   6.589   2.628   5.046
 7616TIP3    H122812   6.614   2.592   5.131
 7616TIP3    H222813   6.526   2.696   5.067
 7617TIP3   OH222814   5.963   6.675   2.684
 7617TIP3    H122815   5.932   6.690   2.773
 7617TIP3    H222816   5.957   6.761   2.641
 7618TIP3   OH222817   4.640   0.731   0.417
 7618TIP3    H122818   4.671   0.805   0.366
 7618TIP3    H222819   4.656   0.757   0.508
 7619TIP3   OH222820   6.387   5.999   0.803
 7619TIP3    H122821   6.463   5.940   0.807
 7619TIP3    H222822   6.422   6.079   0.763
 7620TIP3   OH222823   6.513   3.721   0.742
 7620TIP3    H122824   6.425   3.685   0.736
 7620TIP3    H222825   6.536   3.744   0.652
 7621TIP3   OH222826   5.638   2.746   3.242
 7621TIP3    H122827   5.625   2.841   3.239
 7621TIP3    H222828   5.681   2.725   3.159
 7622TIP3   OH222829   2.714   4.115   0.913
 7622TIP3    H122830   2.653   4.070   0.971
 7622TIP3    H222831   2.661   4.145   0.840
 7623TIP3   OH222832   4.836   3.452   5.048
 7623TIP3    H122833   4.827   3.474   4.955
 7623TIP3    H222834   4.808   3.530   5.095
 7624TIP3   OH222835   2.838   2.427   0.083
 7624TIP3    H122836   2.915   2.469   0.045
 7624TIP3    H222837   2.767   2.490   0.070
 7625TIP3   OH222838   2.806   4.008   4.928
 7625TIP3    H122839   2.837   4.039   4.842
 7625TIP3    H222840   2.774   3.919   4.911
 7626TIP3   OH222841   6.058   1.087   3.372
 7626TIP3    H122842   6.015   1.043   3.299
 7626TIP3    H222843   6.062   1.021   3.441
 7627TIP3   OH222844   5.222   4.820   2.179
 7627TIP3    H122845   5.257   4.885   2.239
 7627TIP3    H222846   5.233   4.737   2.225
 7628TIP3   OH222847   4.883   4.412   5.630
 7628TIP3    H122848   4.858   4.348   5.696
 7628TIP3    H222849   4.867   4.369   5.547
 7629TIP3   OH222850   7.021   5.081   0.482
 7629TIP3    H122851   6.994   5.156   0.429
 7629TIP3    H222852   7.098   5.046   0.436
 7630TIP3   OH222853   2.114   5.563   5.815
 7630TIP3    H122854   2.149   5.513   5.890
 7630TIP3    H222855   2.021   5.574   5.835
 7631TIP3   OH222856   1.223   5.607   5.230
 7631TIP3    H122857   1.261   5.529   5.190
 7631TIP3    H222858   1.298   5.656   5.264
 7632TIP3   OH222859   2.752   1.921   1.389
 7632TIP3    H122860   2.829   1.866   1.408
 7632TIP3    H222861   2.782   2.010   1.403
 7633TIP3   OH222862   5.242   6.373   4.202
 7633TIP3    H122863   5.210   6.336   4.283
 7633TIP3    H222864   5.296   6.304   4.163
 7634TIP3   OH222865   0.979   2.247   4.338
 7634TIP3    H122866   0.908   2.253   4.401
 7634TIP3    H222867   1.053   2.214   4.388
 7635TIP3   OH222868   5.088   0.915   2.076
 7635TIP3    H122869   5.023   0.952   2.135
 7635TIP3    H222870   5.120   0.990   2.025
 7636TIP3   OH222871   6.456   2.253   1.705
 7636TIP3    H122872   6.479   2.346   1.709
 7636TIP3    H222873   6.519   2.215   1.644
 7637TIP3   OH222874   2.129   6.103   0.628
 7637TIP3    H122875   2.145   6.184   0.580
 7637TIP3    H222876   2.063   6.126   0.693
 7638TIP3   OH222877   5.756   5.823   3.494
 7638TIP3    H122878   5.818   5.894   3.482
 7638TIP3    H222879   5.773   5.790   3.582
 7639TIP3   OH222880   6.566   6.655   4.469
 7639TIP3    H122881   6.638   6.715   4.483
 7639TIP3    H222882   6.588   6.577   4.519
 7640TIP3   OH222883   0.619   2.335   0.102
 7640TIP3    H122884   0.594   2.313   0.012
 7640TIP3    H222885   0.611   2.430   0.107
 7641TIP3   OH222886   7.053   3.389   0.087
 7641TIP3    H122887   7.095   3.430   0.012
 7641TIP3    H222888   7.095   3.429   0.163
 7642TIP3   OH222889   4.597   2.717   5.507
 7642TIP3    H122890   4.504   2.694   5.499
 7642TIP3    H222891   4.635   2.692   5.423
 7643TIP3   OH222892   5.101   2.714   0.744
 7643TIP3    H122893   5.047   2.763   0.806
 7643TIP3    H222894   5.094   2.763   0.662
 7644TIP3   OH222895   6.792   2.249   1.094
 7644TIP3    H122896   6.823   2.159   1.100
 7644TIP3    H222897   6.727   2.248   1.023
 7645TIP3   OH222898   5.885   5.472   5.276
 7645TIP3    H122899   5.868   5.544   5.215
 7645TIP3    H222900   5.901   5.396   5.219
 7646TIP3   OH222901   2.866   1.708   4.828
 7646TIP3    H122902   2.958   1.696   4.853
 7646TIP3    H222903   2.817   1.666   4.898
 7647TIP3   OH222904   4.192   5.025   2.050
 7647TIP3    H122905   4.253   4.961   2.085
 7647TIP3    H222906   4.105   4.986   2.062
 7648TIP3   OH222907   2.290   0.595   1.668
 7648TIP3    H122908   2.198   0.620   1.664
 7648TIP3    H222909   2.290   0.501   1.646
 7649TIP3   OH222910   6.963   1.766   2.201
 7649TIP3    H122911   6.906   1.724   2.136
 7649TIP3    H222912   7.029   1.811   2.150
 7650TIP3   OH222913   1.161   1.653   5.580
 7650TIP3    H122914   1.153   1.563   5.610
 7650TIP3    H222915   1.095   1.661   5.510
 7651TIP3   OH222916   6.339   4.467   3.366
 7651TIP3    H122917   6.327   4.394   3.427
 7651TIP3    H222918   6.261   4.521   3.378
 7652TIP3   OH222919   3.327   1.384   2.964
 7652TIP3    H122920   3.339   1.390   3.059
 7652TIP3    H222921   3.319   1.290   2.946
 7653TIP3   OH222922   5.141   1.545   5.240
 7653TIP3    H122923   5.170   1.479   5.178
 7653TIP3    H222924   5.112   1.495   5.317
 7654TIP3   OH222925   1.444   0.478   0.108
 7654TIP3    H122926   1.449   0.464   0.203
 7654TIP3    H222927   1.535   0.469   0.078
 7655TIP3   OH222928   1.483   0.312   2.893
 7655TIP3    H122929   1.444   0.306   2.981
 7655TIP3    H222930   1.556   0.373   2.904
 7656TIP3   OH222931   1.399   6.128   1.399
 7656TIP3    H122932   1.465   6.062   1.420
 7656TIP3    H222933   1.359   6.149   1.484
 7657TIP3   OH222934   3.115   1.944   4.204
 7657TIP3    H122935   3.151   1.956   4.292
 7657TIP3    H222936   3.186   1.972   4.146
 7658TIP3   OH222937   2.374   5.759   2.692
 7658TIP3    H122938   2.401   5.794   2.607
 7658TIP3    H222939   2.284   5.789   2.703
 7659TIP3   OH222940   3.954   2.351   4.480
 7659TIP3    H122941   3.879   2.303   4.445
 7659TIP3    H222942   3.927   2.442   4.477
 7660TIP3   OH222943   1.215   0.598   1.321
 7660TIP3    H122944   1.222   0.625   1.413
 7660TIP3    H222945   1.191   0.679   1.275
 7661TIP3   OH222946   6.871   4.445   4.678
 7661TIP3    H122947   6.853   4.376   4.742
 7661TIP3    H222948   6.915   4.514   4.729
 7662TIP3   OH222949   6.676   5.100   5.260
 7662TIP3    H122950   6.720   5.019   5.235
 7662TIP3    H222951   6.634   5.131   5.179
 7663TIP3   OH222952   2.422   1.676   1.531
 7663TIP3    H122953   2.330   1.673   1.503
 7663TIP3    H222954   2.416   1.678   1.627
 7664TIP3   OH222955   4.581   4.443   5.569
 7664TIP3    H122956   4.544   4.527   5.596
 7664TIP3    H222957   4.524   4.378   5.609
 7665TIP3   OH222958   5.686   2.069   0.387
 7665TIP3    H122959   5.763   2.029   0.347
 7665TIP3    H222960   5.720   2.146   0.433
 7666TIP3   OH222961   5.007   3.393   3.750
 7666TIP3    H122962   5.033   3.383   3.842
 7666TIP3    H222963   4.966   3.309   3.727
 7667TIP3   OH222964   3.892   0.276   4.588
 7667TIP3    H122965   3.984   0.252   4.598
 7667TIP3    H222966   3.888   0.368   4.615
 7668TIP3   OH222967   2.675   5.971   2.518
 7668TIP3    H122968   2.663   5.879   2.543
 7668TIP3    H222969   2.769   5.987   2.529
 7669TIP3   OH222970   1.801   2.370   3.320
 7669TIP3    H122971   1.846   2.329   3.394
 7669TIP3    H222972   1.767   2.452   3.356
 7670TIP3   OH222973   0.497   3.904   2.199
 7670TIP3    H122974   0.589   3.890   2.179
 7670TIP3    H222975   0.491   3.998   2.217
 7671TIP3   OH222976   2.966   4.178   2.497
 7671TIP3    H122977   2.934   4.089   2.510
 7671TIP3    H222978   2.919   4.210   2.420
 7672TIP3   OH222979   0.735   4.443   1.866
 7672TIP3    H122980   0.807   4.389   1.835
 7672TIP3    H222981   0.656   4.395   1.841
 7673TIP3   OH222982   5.962   1.494   0.871
 7673TIP3    H122983   6.045   1.520   0.832
 7673TIP3    H222984   5.920   1.439   0.806
 7674TIP3   OH222985   1.854   4.886   5.316
 7674TIP3    H122986   1.846   4.836   5.397
 7674TIP3    H222987   1.783   4.853   5.261
 7675TIP3   OH222988   3.128   2.909   0.940
 7675TIP3    H122989   3.065   2.975   0.970
 7675TIP3    H222990   3.129   2.844   1.010
 7676TIP3   OH222991   4.445   5.355   2.042
 7676TIP3    H122992   4.386   5.335   2.116
 7676TIP3    H222993   4.390   5.343   1.965
 7677TIP3   OH222994   6.102   2.662   5.832
 7677TIP3    H122995   6.116   2.606   5.908
 7677TIP3    H222996   6.064   2.742   5.868
 7678TIP3   OH222997   4.761   2.686   3.533
 7678TIP3    H122998   4.806   2.635   3.600
 7678TIP3    H222999   4.720   2.758   3.580
 7679TIP3   OH223000   1.713   2.916   0.204
 7679TIP3    H123001   1.739   2.839   0.256
 7679TIP3    H223002   1.691   2.982   0.270
 7680TIP3   OH223003   7.061   3.636   4.705
 7680TIP3    H123004   7.086   3.616   4.795
 7680TIP3    H223005   7.104   3.568   4.653
 7681TIP3   OH223006   5.578   2.481   3.398
 7681TIP3    H123007   5.588   2.432   3.480
 7681TIP3    H223008   5.487   2.512   3.400
 7682TIP3   OH223009   2.075   2.048   4.156
 7682TIP3    H123010   2.043   2.137   4.147
 7682TIP3    H223011   2.162   2.049   4.116
 7683TIP3   OH223012   6.557   6.793   1.699
 7683TIP3    H123013   6.516   6.714   1.734
 7683TIP3    H223014   6.616   6.822   1.769
 7684TIP3   OH223015   5.621   3.575   4.713
 7684TIP3    H123016   5.658   3.650   4.666
 7684TIP3    H223017   5.529   3.598   4.727
 7685TIP3   OH223018   1.047   1.407   5.799
 7685TIP3    H123019   1.004   1.385   5.717
 7685TIP3    H223020   1.037   1.329   5.853
 7686TIP3   OH223021   5.393   5.167   2.605
 7686TIP3    H123022   5.360   5.113   2.677
 7686TIP3    H223023   5.487   5.175   2.621
 7687TIP3   OH223024   2.894   5.128   1.661
 7687TIP3    H123025   2.905   5.162   1.750
 7687TIP3    H223026   2.915   5.035   1.668
 7688TIP3   OH223027   1.003   5.316   0.936
 7688TIP3    H123028   0.973   5.232   0.969
 7688TIP3    H223029   1.035   5.363   1.014
 7689TIP3   OH223030   3.072   2.694   1.604
 7689TIP3    H123031   3.138   2.694   1.674
 7689TIP3    H223032   3.018   2.618   1.622
 7690TIP3   OH223033   6.024   1.787   5.560
 7690TIP3    H123034   6.033   1.879   5.537
 7690TIP3    H223035   5.930   1.775   5.574
 7691TIP3   OH223036   3.609   2.019   1.457
 7691TIP3    H123037   3.529   1.994   1.504
 7691TIP3    H223038   3.665   2.056   1.525
 7692TIP3   OH223039   4.535   4.521   3.076
 7692TIP3    H123040   4.590   4.502   3.001
 7692TIP3    H223041   4.577   4.595   3.120
 7693TIP3   OH223042   4.233   5.581   4.866
 7693TIP3    H123043   4.186   5.641   4.808
 7693TIP3    H223044   4.166   5.523   4.900
 7694TIP3   OH223045   2.974   5.807   3.140
 7694TIP3    H123046   3.032   5.780   3.069
 7694TIP3    H223047   2.887   5.776   3.114
 7695TIP3   OH223048   2.559   0.123   2.065
 7695TIP3    H123049   2.616   0.054   2.099
 7695TIP3    H223050   2.491   0.133   2.131
 7696TIP3   OH223051   6.232   0.214   0.667
 7696TIP3    H123052   6.223   0.272   0.591
 7696TIP3    H223053   6.308   0.160   0.647
 7697TIP3   OH223054   7.114   3.272   4.284
 7697TIP3    H123055   7.063   3.236   4.211
 7697TIP3    H223056   7.165   3.198   4.317
 7698TIP3   OH223057   5.046   1.929   2.589
 7698TIP3    H123058   5.140   1.916   2.598
 7698TIP3    H223059   5.019   1.969   2.672
 7699TIP3   OH223060   2.370   3.618   1.809
 7699TIP3    H123061   2.403   3.698   1.850
 7699TIP3    H223062   2.280   3.610   1.840
 7700TIP3   OH223063   1.732   6.571   5.882
 7700TIP3    H123064   1.672   6.525   5.940
 7700TIP3    H223065   1.803   6.599   5.940
 7701TIP3   OH223066   3.108   4.811   3.307
 7701TIP3    H123067   3.139   4.791   3.395
 7701TIP3    H223068   3.182   4.792   3.250
 7702TIP3   OH223069   1.389   4.772   5.882
 7702TIP3    H123070   1.482   4.775   5.903
 7702TIP3    H223071   1.350   4.839   5.937
 7703TIP3   OH223072   3.518   3.544   4.193
 7703TIP3    H123073   3.429   3.557   4.158
 7703TIP3    H223074   3.508   3.555   4.288
 7704TIP3   OH223075   3.161   5.208   3.471
 7704TIP3    H123076   3.221   5.253   3.412
 7704TIP3    H223077   3.074   5.240   3.447
 7705TIP3   OH223078   2.618   0.086   4.518
 7705TIP3    H123079   2.596   0.008   4.570
 7705TIP3    H223080   2.574   0.072   4.435
 7706TIP3   OH223081   0.955   0.240   2.775
 7706TIP3    H123082   1.050   0.239   2.790
 7706TIP3    H223083   0.928   0.150   2.787
 7707TIP3   OH223084   7.008   5.251   5.070
 7707TIP3    H123085   7.088   5.202   5.049
 7707TIP3    H223086   6.974   5.209   5.149
 7708TIP3   OH223087   3.211   2.156   0.855
 7708TIP3    H123088   3.186   2.160   0.763
 7708TIP3    H223089   3.264   2.234   0.870
 7709TIP3   OH223090   4.226   0.382   5.426
 7709TIP3    H123091   4.149   0.439   5.428
 7709TIP3    H223092   4.219   0.335   5.342
 7710TIP3   OH223093   6.072   6.033   0.361
 7710TIP3    H123094   6.094   6.120   0.393
 7710TIP3    H223095   6.133   6.016   0.290
 7711TIP3   OH223096   6.739   4.174   0.766
 7711TIP3    H123097   6.669   4.133   0.816
 7711TIP3    H223098   6.773   4.104   0.710
 7712TIP3   OH223099   4.036   3.504   2.735
 7712TIP3    H123100   4.103   3.436   2.727
 7712TIP3    H223101   3.954   3.456   2.747
 7713TIP3   OH223102   7.082   2.112   0.154
 7713TIP3    H123103   7.041   2.079   0.234
 7713TIP3    H223104   7.166   2.067   0.150
 7714TIP3   OH223105   3.156   6.176   4.115
 7714TIP3    H123106   3.236   6.229   4.110
 7714TIP3    H223107   3.159   6.137   4.202
 7715TIP3   OH223108   4.591   5.396   0.190
 7715TIP3    H123109   4.648   5.466   0.159
 7715TIP3    H223110   4.507   5.439   0.206
 7716TIP3   OH223111  -0.009   2.185   4.019
 7716TIP3    H123112  -0.027   2.231   3.937
 7716TIP3    H223113   0.084   2.161   4.013
 7717TIP3   OH223114   6.614   3.678   0.145
 7717TIP3    H123115   6.646   3.760   0.185
 7717TIP3    H223116   6.693   3.627   0.130
 7718TIP3   OH223117   4.596   2.503   0.955
 7718TIP3    H123118   4.549   2.494   1.038
 7718TIP3    H223119   4.576   2.593   0.927
 7719TIP3   OH223120   0.245   3.764   2.245
 7719TIP3    H123121   0.297   3.833   2.204
 7719TIP3    H223122   0.304   3.722   2.307
 7720TIP3   OH223123   0.530   5.472   1.436
 7720TIP3    H123124   0.482   5.553   1.452
 7720TIP3    H223125   0.605   5.499   1.384
 7721TIP3   OH223126   3.962   1.245   0.413
 7721TIP3    H123127   3.941   1.286   0.329
 7721TIP3    H223128   4.049   1.207   0.399
 7722TIP3   OH223129   3.640   0.811   0.185
 7722TIP3    H123130   3.616   0.884   0.128
 7722TIP3    H223131   3.701   0.758   0.133
 7723TIP3   OH223132   5.847   3.447   1.869
 7723TIP3    H123133   5.763   3.469   1.828
 7723TIP3    H223134   5.892   3.531   1.879
 7724TIP3   OH223135   5.531   5.307   2.341
 7724TIP3    H123136   5.468   5.279   2.407
 7724TIP3    H223137   5.484   5.374   2.290
 7725TIP3   OH223138   1.456   3.154   0.746
 7725TIP3    H123139   1.412   3.081   0.705
 7725TIP3    H223140   1.465   3.219   0.677
 7726TIP3   OH223141   0.161   4.811   2.287
 7726TIP3    H123142   0.145   4.816   2.381
 7726TIP3    H223143   0.074   4.815   2.248
 7727TIP3   OH223144   3.528   0.226   4.016
 7727TIP3    H123145   3.591   0.191   3.953
 7727TIP3    H223146   3.525   0.160   4.086
 7728TIP3   OH223147   0.239   6.464   1.346
 7728TIP3    H123148   0.307   6.407   1.310
 7728TIP3    H223149   0.277   6.551   1.346
 7729TIP3   OH223150   3.272   5.421   3.268
 7729TIP3    H123151   3.191   5.452   3.228
 7729TIP3    H223152   3.311   5.364   3.201
 7730TIP3   OH223153   6.157   4.717   1.342
 7730TIP3    H123154   6.164   4.655   1.269
 7730TIP3    H223155   6.176   4.665   1.420
 7731TIP3   OH223156   3.296   4.511   4.479
 7731TIP3    H123157   3.344   4.429   4.470
 7731TIP3    H223158   3.352   4.566   4.534
 7732TIP3   OH223159   6.534   4.409   3.996
 7732TIP3    H123160   6.530   4.450   4.083
 7732TIP3    H223161   6.500   4.476   3.936
 7733TIP3   OH223162   5.671   2.568   1.129
 7733TIP3    H123163   5.687   2.588   1.221
 7733TIP3    H223164   5.607   2.634   1.101
 7734TIP3   OH223165   6.915   6.452   0.737
 7734TIP3    H123166   7.001   6.494   0.727
 7734TIP3    H223167   6.922   6.372   0.685
 7735TIP3   OH223168   0.760   6.255   2.580
 7735TIP3    H123169   0.735   6.216   2.496
 7735TIP3    H223170   0.807   6.184   2.626
 7736TIP3   OH223171   7.144   0.191   5.647
 7736TIP3    H123172   7.049   0.204   5.645
 7736TIP3    H223173   7.180   0.276   5.670
 7737TIP3   OH223174   6.660   4.372   1.221
 7737TIP3    H123175   6.660   4.278   1.207
 7737TIP3    H223176   6.616   4.385   1.305
 7738TIP3   OH223177   1.304   4.848   0.381
 7738TIP3    H123178   1.258   4.895   0.451
 7738TIP3    H223179   1.396   4.870   0.394
 7739TIP3   OH223180   5.017   5.447   2.747
 7739TIP3    H123181   5.055   5.419   2.663
 7739TIP3    H223182   5.081   5.508   2.782
 7740TIP3   OH223183   4.912   5.007   2.478
 7740TIP3    H123184   4.874   5.044   2.557
 7740TIP3    H223185   4.964   4.933   2.509
 7741TIP3   OH223186   6.513   5.408   0.661
 7741TIP3    H123187   6.568   5.331   0.649
 7741TIP3    H223188   6.537   5.441   0.747
 7742TIP3   OH223189   3.968   1.355   3.802
 7742TIP3    H123190   4.031   1.287   3.826
 7742TIP3    H223191   3.939   1.391   3.886
 7743TIP3   OH223192   5.021   4.439   2.342
 7743TIP3    H123193   4.929   4.416   2.329
 7743TIP3    H223194   5.067   4.355   2.345
 7744TIP3   OH223195   5.487   3.665   2.665
 7744TIP3    H123196   5.555   3.704   2.719
 7744TIP3    H223197   5.510   3.572   2.662
 7745TIP3   OH223198   3.460   3.722   2.656
 7745TIP3    H123199   3.387   3.744   2.715
 7745TIP3    H223200   3.443   3.772   2.577
 7746TIP3   OH223201   0.427   4.561   1.281
 7746TIP3    H123202   0.420   4.496   1.350
 7746TIP3    H223203   0.521   4.577   1.272
 7747TIP3   OH223204   3.764   6.508   1.872
 7747TIP3    H123205   3.836   6.568   1.854
 7747TIP3    H223206   3.685   6.557   1.851
 7748TIP3   OH223207   5.003   3.395   3.461
 7748TIP3    H123208   4.961   3.413   3.546
 7748TIP3    H223209   4.991   3.301   3.448
 7749TIP3   OH223210   4.288   6.791   0.137
 7749TIP3    H123211   4.242   6.709   0.156
 7749TIP3    H223212   4.285   6.798   0.041
 7750TIP3   OH223213   4.587   1.677   2.369
 7750TIP3    H123214   4.641   1.706   2.443
 7750TIP3    H223215   4.643   1.690   2.292
 7751TIP3   OH223216   1.753   2.955   1.873
 7751TIP3    H123217   1.842   2.928   1.850
 7751TIP3    H223218   1.722   3.004   1.797
 7752TIP3   OH223219   5.153   5.751   3.281
 7752TIP3    H123220   5.185   5.686   3.218
 7752TIP3    H223221   5.192   5.724   3.365
 7753TIP3   OH223222   0.366   5.714   1.427
 7753TIP3    H123223   0.304   5.668   1.484
 7753TIP3    H223224   0.311   5.773   1.375
 7754TIP3   OH223225   2.819   6.776   2.932
 7754TIP3    H123226   2.798   6.713   2.862
 7754TIP3    H223227   2.793   6.732   3.012
 7755TIP3   OH223228   1.451   5.372  -0.047
 7755TIP3    H123229   1.427   5.411   0.037
 7755TIP3    H223230   1.499   5.293  -0.023
 7756TIP3   OH223231   1.763   6.834   1.083
 7756TIP3    H123232   1.688   6.782   1.111
 7756TIP3    H223233   1.786   6.800   0.997
 7757TIP3   OH223234   6.995   3.193   1.856
 7757TIP3    H123235   6.907   3.157   1.863
 7757TIP3    H223236   6.998   3.234   1.770
 7758TIP3   OH223237   5.452   5.834   2.789
 7758TIP3    H123238   5.536   5.799   2.820
 7758TIP3    H223239   5.416   5.765   2.734
 7759TIP3   OH223240   1.867   1.524   4.813
 7759TIP3    H123241   1.792   1.467   4.830
 7759TIP3    H223242   1.873   1.529   4.717
 7760TIP3   OH223243   3.733   5.096   1.555
 7760TIP3    H123244   3.762   5.020   1.605
 7760TIP3    H223245   3.802   5.162   1.569
 7761TIP3   OH223246   0.037   5.349   1.071
 7761TIP3    H123247   0.060   5.441   1.081
 7761TIP3    H223248   0.038   5.313   1.159
 7762TIP3   OH223249   1.538   6.711   2.036
 7762TIP3    H123250   1.535   6.663   1.953
 7762TIP3    H223251   1.612   6.771   2.026
 7763TIP3   OH223252   3.725   4.475   5.902
 7763TIP3    H123253   3.750   4.385   5.880
 7763TIP3    H223254   3.646   4.465   5.956
 7764TIP3   OH223255   6.571   1.799   1.838
 7764TIP3    H123256   6.550   1.887   1.870
 7764TIP3    H223257   6.540   1.740   1.907
 7765TIP3   OH223258   1.912   5.982   1.128
 7765TIP3    H123259   1.884   5.923   1.058
 7765TIP3    H223260   1.834   6.032   1.150
 7766TIP3   OH223261   3.753   1.846   2.063
 7766TIP3    H123262   3.764   1.797   1.982
 7766TIP3    H223263   3.820   1.810   2.122
 7767TIP3   OH223264   4.479   5.276   2.686
 7767TIP3    H123265   4.449   5.229   2.764
 7767TIP3    H223266   4.405   5.271   2.626
 7768TIP3   OH223267   6.685   2.257   2.363
 7768TIP3    H123268   6.655   2.330   2.310
 7768TIP3    H223269   6.657   2.179   2.315
 7769TIP3   OH223270   2.163   0.241   5.350
 7769TIP3    H123271   2.119   0.225   5.434
 7769TIP3    H223272   2.256   0.240   5.371
 7770TIP3   OH223273   3.377   4.688   1.183
 7770TIP3    H123274   3.424   4.675   1.100
 7770TIP3    H223275   3.317   4.760   1.165
 7771TIP3   OH223276   6.487   5.918   2.339
 7771TIP3    H123277   6.461   5.880   2.255
 7771TIP3    H223278   6.441   6.002   2.342
 7772TIP3   OH223279   3.759   6.457   0.248
 7772TIP3    H123280   3.778   6.421   0.335
 7772TIP3    H223281   3.699   6.395   0.208
 7773TIP3   OH223282   1.870   6.682   3.421
 7773TIP3    H123283   1.865   6.613   3.487
 7773TIP3    H223284   1.869   6.635   3.337
 7774TIP3   OH223285   0.631   3.636   4.365
 7774TIP3    H123286   0.603   3.547   4.388
 7774TIP3    H223287   0.727   3.633   4.366
 7775TIP3   OH223288   1.726   4.548   4.978
 7775TIP3    H123289   1.633   4.542   5.000
 7775TIP3    H223290   1.732   4.508   4.891
 7776TIP3   OH223291   4.409   5.149   5.693
 7776TIP3    H123292   4.388   5.210   5.764
 7776TIP3    H223293   4.437   5.069   5.737
 7777TIP3   OH223294   5.961   5.053   3.973
 7777TIP3    H123295   6.036   5.112   3.985
 7777TIP3    H223296   5.894   5.087   4.032
 7778TIP3   OH223297   1.720   3.671   5.192
 7778TIP3    H123298   1.814   3.689   5.203
 7778TIP3    H223299   1.714   3.632   5.104
 7779TIP3   OH223300   1.777   3.100   4.099
 7779TIP3    H123301   1.719   3.096   4.023
 7779TIP3    H223302   1.840   3.169   4.078
 7780TIP3   OH223303   2.365   0.955   1.154
 7780TIP3    H123304   2.309   0.879   1.169
 7780TIP3    H223305   2.319   1.027   1.196
 7781TIP3   OH223306   5.399   3.331   4.865
 7781TIP3    H123307   5.398   3.266   4.936
 7781TIP3    H223308   5.460   3.296   4.801
 7782TIP3   OH223309   3.097   2.745   2.220
 7782TIP3    H123310   3.116   2.813   2.154
 7782TIP3    H223311   3.151   2.670   2.193
 7783TIP3   OH223312   2.043   2.277   2.362
 7783TIP3    H123313   1.962   2.327   2.352
 7783TIP3    H223314   2.041   2.247   2.453
 7784TIP3   OH223315   1.499   3.073   3.935
 7784TIP3    H123316   1.407   3.093   3.921
 7784TIP3    H223317   1.527   3.027   3.856
 7785TIP3   OH223318   2.985   0.199   4.047
 7785TIP3    H123319   2.965   0.106   4.058
 7785TIP3    H223320   2.932   0.243   4.114
 7786TIP3   OH223321   2.470   3.012   4.838
 7786TIP3    H123322   2.556   3.003   4.880
 7786TIP3    H223323   2.442   2.922   4.822
 7787TIP3   OH223324   1.594   3.289   2.192
 7787TIP3    H123325   1.647   3.292   2.112
 7787TIP3    H223326   1.545   3.372   2.192
 7788TIP3   OH223327   6.239   3.154   2.407
 7788TIP3    H123328   6.261   3.110   2.325
 7788TIP3    H223329   6.160   3.204   2.387
 7789TIP3   OH223330   1.195   3.244   2.426
 7789TIP3    H123331   1.275   3.192   2.417
 7789TIP3    H223332   1.124   3.181   2.422
 7790TIP3   OH223333   5.779   2.091   2.930
 7790TIP3    H123334   5.844   2.021   2.924
 7790TIP3    H223335   5.812   2.147   3.001
 7791TIP3   OH223336   4.817   1.823   1.810
 7791TIP3    H123337   4.903   1.794   1.778
 7791TIP3    H223338   4.838   1.883   1.882
 7792TIP3   OH223339   7.043   3.393   0.688
 7792TIP3    H123340   7.033   3.357   0.776
 7792TIP3    H223341   7.046   3.316   0.631
 7793TIP3   OH223342   1.898   5.817   0.860
 7793TIP3    H123343   1.990   5.834   0.840
 7793TIP3    H223344   1.851   5.842   0.780
 7794TIP3   OH223345   5.337   3.337   4.215
 7794TIP3    H123346   5.339   3.424   4.173
 7794TIP3    H223347   5.422   3.298   4.193
 7795TIP3   OH223348   0.647   1.028   1.093
 7795TIP3    H123349   0.699   1.053   1.017
 7795TIP3    H223350   0.634   1.110   1.142
 7796TIP3   OH223351   5.788   1.783   4.356
 7796TIP3    H123352   5.754   1.694   4.348
 7796TIP3    H223353   5.761   1.811   4.444
 7797TIP3   OH223354   1.544   0.648   0.993
 7797TIP3    H123355   1.553   0.740   0.970
 7797TIP3    H223356   1.461   0.621   0.952
 7798TIP3   OH223357   4.232   6.757   2.006
 7798TIP3    H123358   4.268   6.675   1.970
 7798TIP3    H223359   4.235   6.819   1.933
 7799TIP3   OH223360   0.839   3.320   2.929
 7799TIP3    H123361   0.852   3.409   2.960
 7799TIP3    H223362   0.832   3.329   2.834
 7800TIP3   OH223363   1.898   1.722   1.133
 7800TIP3    H123364   1.814   1.755   1.100
 7800TIP3    H223365   1.949   1.800   1.153
 7801TIP3   OH223366   4.393   5.814   3.632
 7801TIP3    H123367   4.337   5.879   3.588
 7801TIP3    H223368   4.435   5.863   3.703
 7802TIP3   OH223369   6.814   1.151   0.618
 7802TIP3    H123370   6.731   1.180   0.580
 7802TIP3    H223371   6.822   1.059   0.591
 7803TIP3   OH223372   2.864   4.277   2.264
 7803TIP3    H123373   2.925   4.351   2.253
 7803TIP3    H223374   2.780   4.312   2.235
 7804TIP3   OH223375   4.067   1.792   4.703
 7804TIP3    H123376   4.042   1.882   4.724
 7804TIP3    H223377   4.080   1.793   4.608
 7805TIP3   OH223378   1.278   2.725   3.408
 7805TIP3    H123379   1.348   2.680   3.455
 7805TIP3    H223380   1.314   2.740   3.320
 7806TIP3   OH223381   1.696   1.282   2.919
 7806TIP3    H123382   1.649   1.317   2.994
 7806TIP3    H223383   1.769   1.233   2.956
 7807TIP3   OH223384   2.980   5.596   4.473
 7807TIP3    H123385   2.931   5.638   4.544
 7807TIP3    H223386   2.960   5.650   4.396
 7808TIP3   OH223387   3.220   1.791   1.945
 7808TIP3    H123388   3.237   1.885   1.952
 7808TIP3    H223389   3.197   1.777   1.853
 7809TIP3   OH223390   6.862   3.901   4.392
 7809TIP3    H123391   6.819   3.843   4.455
 7809TIP3    H223392   6.911   3.841   4.335
 7810TIP3   OH223393   0.981   0.636   5.415
 7810TIP3    H123394   1.018   0.690   5.345
 7810TIP3    H223395   1.017   0.549   5.401
 7811TIP3   OH223396   6.164   0.679   4.168
 7811TIP3    H123397   6.183   0.772   4.179
 7811TIP3    H223398   6.233   0.634   4.216
 7812TIP3   OH223399   0.246   5.470   5.043
 7812TIP3    H123400   0.243   5.408   5.116
 7812TIP3    H223401   0.332   5.458   5.004
 7813TIP3   OH223402   3.409   4.382   1.261
 7813TIP3    H123403   3.332   4.342   1.301
 7813TIP3    H223404   3.379   4.467   1.231
 7814TIP3   OH223405   2.168   3.085   5.835
 7814TIP3    H123406   2.164   3.145   5.910
 7814TIP3    H223407   2.259   3.057   5.832
 7815TIP3   OH223408   3.968   2.864   1.489
 7815TIP3    H123409   3.926   2.786   1.453
 7815TIP3    H223410   4.014   2.904   1.415
 7816TIP3   OH223411   1.719   2.707   1.634
 7816TIP3    H123412   1.733   2.800   1.614
 7816TIP3    H223413   1.716   2.703   1.730
 7817TIP3   OH223414   3.923   1.616   3.654
 7817TIP3    H123415   3.973   1.657   3.724
 7817TIP3    H223416   3.883   1.539   3.694
 7818TIP3   OH223417   0.164   2.163   2.304
 7818TIP3    H123418   0.088   2.169   2.247
 7818TIP3    H223419   0.211   2.245   2.290
 7819TIP3   OH223420   4.121   0.241   3.659
 7819TIP3    H123421   4.040   0.290   3.670
 7819TIP3    H223422   4.191   0.304   3.676
 7820TIP3   OH223423   3.352   1.926   5.531
 7820TIP3    H123424   3.436   1.966   5.506
 7820TIP3    H223425   3.377   1.846   5.578
 7821TIP3   OH223426   2.667   2.597   4.814
 7821TIP3    H123427   2.633   2.596   4.904
 7821TIP3    H223428   2.603   2.647   4.764
 7822TIP3   OH223429   2.593   0.407   4.164
 7822TIP3    H123430   2.673   0.459   4.168
 7822TIP3    H223431   2.568   0.395   4.256
 7823TIP3   OH223432   6.222   0.080   4.987
 7823TIP3    H123433   6.199   0.071   5.080
 7823TIP3    H223434   6.263   0.166   4.981
 7824TIP3   OH223435   4.346   3.992   1.501
 7824TIP3    H123436   4.367   3.913   1.551
 7824TIP3    H223437   4.429   4.018   1.461
 7825TIP3   OH223438   2.807   2.267   1.146
 7825TIP3    H123439   2.747   2.222   1.205
 7825TIP3    H223440   2.792   2.360   1.162
 7826TIP3   OH223441   1.715   1.488   0.067
 7826TIP3    H123442   1.747   1.575   0.089
 7826TIP3    H223443   1.714   1.486  -0.029
 7827TIP3   OH223444   3.655   3.569   1.186
 7827TIP3    H123445   3.646   3.474   1.199
 7827TIP3    H223446   3.719   3.596   1.252
 7828TIP3   OH223447   4.148   2.168   3.043
 7828TIP3    H123448   4.184   2.161   3.132
 7828TIP3    H223449   4.131   2.077   3.018
 7829TIP3   OH223450   4.718   2.342   1.513
 7829TIP3    H123451   4.628   2.344   1.547
 7829TIP3    H223452   4.768   2.391   1.578
 7830TIP3   OH223453   6.824   3.939   2.501
 7830TIP3    H123454   6.794   4.006   2.562
 7830TIP3    H223455   6.903   3.904   2.541
 7831TIP3   OH223456   3.893   4.545   4.223
 7831TIP3    H123457   3.836   4.471   4.202
 7831TIP3    H223458   3.916   4.582   4.138
 7832TIP3   OH223459   5.421   3.852   5.728
 7832TIP3    H123460   5.385   3.921   5.674
 7832TIP3    H223461   5.477   3.897   5.792
 7833TIP3   OH223462   6.725   5.776   4.420
 7833TIP3    H123463   6.801   5.718   4.421
 7833TIP3    H223464   6.652   5.720   4.395
 7834TIP3   OH223465   5.103   3.917   2.524
 7834TIP3    H123466   5.196   3.924   2.544
 7834TIP3    H223467   5.083   3.824   2.536
 7835TIP3   OH223468   6.728   0.535   1.282
 7835TIP3    H123469   6.761   0.547   1.193
 7835TIP3    H223470   6.806   0.524   1.336
 7836TIP3   OH223471   6.213   4.369   5.039
 7836TIP3    H123472   6.166   4.305   4.985
 7836TIP3    H223473   6.305   4.345   5.028
 7837TIP3   OH223474   1.689   2.607   3.294
 7837TIP3    H123475   1.649   2.661   3.226
 7837TIP3    H223476   1.760   2.659   3.328
 7838TIP3   OH223477   1.939   6.600   1.254
 7838TIP3    H123478   2.015   6.618   1.309
 7838TIP3    H223479   1.867   6.589   1.315
 7839TIP3   OH223480   7.176   0.312   0.044
 7839TIP3    H123481   7.101   0.322   0.104
 7839TIP3    H223482   7.248   0.283   0.100
 7840TIP3   OH223483   1.592   4.929   0.475
 7840TIP3    H123484   1.669   4.952   0.423
 7840TIP3    H223485   1.627   4.905   0.561
 7841TIP3   OH223486   4.523   1.953   4.700
 7841TIP3    H123487   4.433   1.985   4.695
 7841TIP3    H223488   4.575   2.021   4.658
 7842TIP3   OH223489   4.003   5.294   5.248
 7842TIP3    H123490   3.958   5.221   5.291
 7842TIP3    H223491   4.049   5.340   5.318
 7843TIP3   OH223492   3.796   5.527   1.528
 7843TIP3    H123493   3.763   5.600   1.580
 7843TIP3    H223494   3.863   5.565   1.471
 7844TIP3   OH223495   6.362   2.778   1.543
 7844TIP3    H123496   6.400   2.723   1.611
 7844TIP3    H223497   6.268   2.780   1.563
 7845TIP3   OH223498   2.867   2.871   1.647
 7845TIP3    H123499   2.930   2.805   1.618
 7845TIP3    H223500   2.907   2.955   1.626
 7846TIP3   OH223501   6.636   0.809   0.765
 7846TIP3    H123502   6.661   0.875   0.830
 7846TIP3    H223503   6.711   0.802   0.707
 7847TIP3   OH223504   4.399   6.093   4.829
 7847TIP3    H123505   4.313   6.117   4.792
 7847TIP3    H223506   4.394   6.121   4.920
 7848TIP3   OH223507   7.000   0.554   2.052
 7848TIP3    H123508   6.942   0.619   2.092
 7848TIP3    H223509   7.040   0.598   1.978
 7849TIP3   OH223510   6.210   4.628   5.315
 7849TIP3    H123511   6.194   4.721   5.297
 7849TIP3    H223512   6.123   4.590   5.325
 7850TIP3   OH223513   1.629   0.162   3.227
 7850TIP3    H123514   1.619   0.130   3.138
 7850TIP3    H223515   1.674   0.091   3.273
 7851TIP3   OH223516   5.413   3.932   3.263
 7851TIP3    H123517   5.453   3.846   3.266
 7851TIP3    H223518   5.389   3.944   3.171
 7852TIP3   OH223519   4.963   3.198   0.039
 7852TIP3    H123520   4.900   3.136   0.001
 7852TIP3    H223521   5.048   3.159   0.022
 7853TIP3   OH223522   3.670   5.310   5.883
 7853TIP3    H123523   3.741   5.247   5.899
 7853TIP3    H223524   3.640   5.289   5.795
 7854TIP3   OH223525   4.988   0.066   1.837
 7854TIP3    H123526   5.042   0.056   1.915
 7854TIP3    H223527   4.926   0.136   1.860
 7855TIP3   OH223528   6.997   1.255   3.872
 7855TIP3    H123529   6.934   1.256   3.800
 7855TIP3    H223530   7.067   1.314   3.843
 7856TIP3   OH223531   3.461   0.935   5.262
 7856TIP3    H123532   3.382   0.925   5.315
 7856TIP3    H223533   3.432   0.916   5.173
 7857TIP3   OH223534   1.093   4.200   1.476
 7857TIP3    H123535   1.157   4.222   1.543
 7857TIP3    H223536   1.079   4.282   1.428
 7858TIP3   OH223537   2.393   0.478   0.354
 7858TIP3    H123538   2.468   0.451   0.408
 7858TIP3    H223539   2.420   0.561   0.315
 7859TIP3   OH223540   3.360   1.118   2.870
 7859TIP3    H123541   3.410   1.169   2.806
 7859TIP3    H223542   3.419   1.048   2.897
 7860TIP3   OH223543   0.377   0.648   0.855
 7860TIP3    H123544   0.393   0.739   0.879
 7860TIP3    H223545   0.293   0.627   0.895
 7861TIP3   OH223546   5.796   5.514   4.610
 7861TIP3    H123547   5.819   5.421   4.603
 7861TIP3    H223548   5.878   5.558   4.631
 7862TIP3   OH223549   2.065   6.584   0.710
 7862TIP3    H123550   1.981   6.553   0.675
 7862TIP3    H223551   2.102   6.639   0.640
 7863TIP3   OH223552   0.380   2.807   3.747
 7863TIP3    H123553   0.361   2.886   3.698
 7863TIP3    H223554   0.396   2.837   3.837
 7864TIP3   OH223555   0.260   1.280   2.552
 7864TIP3    H123556   0.189   1.286   2.616
 7864TIP3    H223557   0.252   1.191   2.516
 7865TIP3   OH223558   4.801   5.845   3.631
 7865TIP3    H123559   4.710   5.862   3.656
 7865TIP3    H223560   4.827   5.922   3.581
 7866TIP3   OH223561   6.729   4.132   1.631
 7866TIP3    H123562   6.773   4.209   1.667
 7866TIP3    H223563   6.785   4.105   1.559
 7867TIP3   OH223564   5.959   6.446   5.812
 7867TIP3    H123565   5.878   6.476   5.770
 7867TIP3    H223566   5.938   6.359   5.845
 7868TIP3   OH223567   3.364   4.958   3.358
 7868TIP3    H123568   3.422   4.960   3.434
 7868TIP3    H223569   3.411   4.906   3.293
 7869TIP3   OH223570   6.487   1.871   5.580
 7869TIP3    H123571   6.565   1.904   5.536
 7869TIP3    H223572   6.425   1.944   5.577
 7870TIP3   OH223573   1.505   5.964   0.143
 7870TIP3    H123574   1.438   5.924   0.087
 7870TIP3    H223575   1.479   6.056   0.149
 7871TIP3   OH223576   4.948   0.941   2.791
 7871TIP3    H123577   4.951   1.029   2.828
 7871TIP3    H223578   4.911   0.886   2.860
 7872TIP3   OH223579   7.183   4.047   3.769
 7872TIP3    H123580   7.272   4.022   3.744
 7872TIP3    H223581   7.193   4.136   3.804
 7873TIP3   OH223582   2.165   1.873   2.622
 7873TIP3    H123583   2.107   1.817   2.674
 7873TIP3    H223584   2.155   1.842   2.532
 7874TIP3   OH223585   3.850   4.786   5.329
 7874TIP3    H123586   3.939   4.756   5.310
 7874TIP3    H223587   3.794   4.711   5.310
 7875TIP3   OH223588   7.165   5.857   3.958
 7875TIP3    H123589   7.130   5.833   4.043
 7875TIP3    H223590   7.249   5.811   3.952
 7876TIP3   OH223591   2.819   4.613   0.861
 7876TIP3    H123592   2.815   4.661   0.778
 7876TIP3    H223593   2.764   4.536   0.848
 7877TIP3   OH223594   5.706   0.743   1.200
 7877TIP3    H123595   5.614   0.727   1.222
 7877TIP3    H223596   5.755   0.698   1.268
 7878TIP3   OH223597   2.223   4.332   1.600
 7878TIP3    H123598   2.243   4.340   1.693
 7878TIP3    H223599   2.283   4.393   1.557
 7879TIP3   OH223600   4.225   3.096   2.063
 7879TIP3    H123601   4.237   3.120   1.971
 7879TIP3    H223602   4.145   3.142   2.089
 7880TIP3   OH223603   0.932   5.602   3.177
 7880TIP3    H123604   0.935   5.625   3.270
 7880TIP3    H223605   0.841   5.577   3.161
 7881TIP3   OH223606   4.385   1.766   1.473
 7881TIP3    H123607   4.480   1.780   1.470
 7881TIP3    H223608   4.349   1.839   1.423
 7882TIP3   OH223609   6.602   4.391   3.378
 7882TIP3    H123610   6.506   4.386   3.382
 7882TIP3    H223611   6.620   4.473   3.334
 7883TIP3   OH223612   4.184   6.729   0.469
 7883TIP3    H123613   4.125   6.715   0.395
 7883TIP3    H223614   4.258   6.671   0.452
 7884TIP3   OH223615   0.126   0.199   2.429
 7884TIP3    H123616   0.088   0.248   2.502
 7884TIP3    H223617   0.202   0.252   2.403
 7885TIP3   OH223618   0.350   4.803   3.140
 7885TIP3    H123619   0.311   4.868   3.081
 7885TIP3    H223620   0.439   4.836   3.154
 7886TIP3   OH223621   6.513   5.162   1.397
 7886TIP3    H123622   6.570   5.135   1.469
 7886TIP3    H223623   6.445   5.094   1.395
 7887TIP3   OH223624   3.818   4.157   0.216
 7887TIP3    H123625   3.870   4.211   0.157
 7887TIP3    H223626   3.797   4.079   0.166
 7888TIP3   OH223627   0.699   1.340   1.130
 7888TIP3    H123628   0.770   1.395   1.162
 7888TIP3    H223629   0.700   1.353   1.035
 7889TIP3   OH223630   1.244   4.620   0.928
 7889TIP3    H123631   1.301   4.675   0.874
 7889TIP3    H223632   1.287   4.535   0.929
 7890TIP3   OH223633   1.950   4.535   0.833
 7890TIP3    H123634   1.959   4.541   0.928
 7890TIP3    H223635   2.040   4.528   0.800
 7891TIP3   OH223636   4.103   4.649   5.531
 7891TIP3    H123637   4.015   4.658   5.569
 7891TIP3    H223638   4.116   4.555   5.523
 7892TIP3   OH223639   6.932   0.616   3.371
 7892TIP3    H123640   6.885   0.608   3.289
 7892TIP3    H223641   6.898   0.544   3.425
 7893TIP3   OH223642   6.954   3.108   2.600
 7893TIP3    H123643   6.864   3.128   2.627
 7893TIP3    H223644   6.946   3.026   2.550
 7894TIP3   OH223645   0.728   1.279   0.495
 7894TIP3    H123646   0.718   1.252   0.587
 7894TIP3    H223647   0.662   1.346   0.482
 7895TIP3   OH223648   3.333   5.516   3.518
 7895TIP3    H123649   3.357   5.604   3.488
 7895TIP3    H223650   3.289   5.477   3.443
 7896TIP3   OH223651   4.989   3.181   0.674
 7896TIP3    H123652   4.895   3.196   0.665
 7896TIP3    H223653   5.025   3.267   0.697
 7897TIP3   OH223654   1.234   6.179   5.047
 7897TIP3    H123655   1.298   6.182   5.118
 7897TIP3    H223656   1.216   6.086   5.034
 7898TIP3   OH223657   2.194   5.092   5.096
 7898TIP3    H123658   2.283   5.072   5.125
 7898TIP3    H223659   2.138   5.043   5.156
 7899TIP3   OH223660   6.921   5.314   0.645
 7899TIP3    H123661   6.974   5.385   0.684
 7899TIP3    H223662   6.986   5.254   0.609
 7900TIP3   OH223663   2.367   5.540   4.432
 7900TIP3    H123664   2.461   5.553   4.448
 7900TIP3    H223665   2.354   5.568   4.341
 7901TIP3   OH223666   0.616   3.093   3.552
 7901TIP3    H123667   0.636   3.178   3.513
 7901TIP3    H223668   0.631   3.030   3.481
 7902TIP3   OH223669   4.695   5.691   2.513
 7902TIP3    H123670   4.660   5.622   2.568
 7902TIP3    H223671   4.661   5.772   2.551
 7903TIP3   OH223672   4.242   0.747   1.211
 7903TIP3    H123673   4.149   0.772   1.216
 7903TIP3    H223674   4.242   0.664   1.165
 7904TIP3   OH223675   1.383   3.059  -0.015
 7904TIP3    H123676   1.356   2.993   0.050
 7904TIP3    H223677   1.478   3.062  -0.008
 7905TIP3   OH223678   3.764   5.773   1.198
 7905TIP3    H123679   3.819   5.775   1.120
 7905TIP3    H223680   3.822   5.738   1.267
 7906TIP3   OH223681   2.064   4.348   0.162
 7906TIP3    H123682   2.122   4.329   0.089
 7906TIP3    H223683   2.051   4.264   0.205
 7907TIP3   OH223684   3.877   0.298   2.882
 7907TIP3    H123685   3.881   0.251   2.799
 7907TIP3    H223686   3.880   0.229   2.949
 7908TIP3   OH223687   6.095   1.871   0.211
 7908TIP3    H123688   6.135   1.910   0.289
 7908TIP3    H223689   6.150   1.900   0.139
 7909TIP3   OH223690   3.520   3.201   0.517
 7909TIP3    H123691   3.507   3.116   0.476
 7909TIP3    H223692   3.498   3.187   0.609
 7910TIP3   OH223693   5.476   0.593   4.387
 7910TIP3    H123694   5.456   0.682   4.358
 7910TIP3    H223695   5.441   0.588   4.476
 7911TIP3   OH223696   6.932   1.898   1.530
 7911TIP3    H123697   7.017   1.896   1.486
 7911TIP3    H223698   6.938   1.971   1.591
 7912TIP3   OH223699   4.137   1.189   4.430
 7912TIP3    H123700   4.144   1.152   4.342
 7912TIP3    H223701   4.223   1.228   4.446
 7913TIP3   OH223702   5.661   4.503   1.884
 7913TIP3    H123703   5.572   4.534   1.867
 7913TIP3    H223704   5.651   4.436   1.951
 7914TIP3   OH223705   6.478   2.462   2.142
 7914TIP3    H123706   6.449   2.371   2.154
 7914TIP3    H223707   6.404   2.505   2.098
 7915TIP3   OH223708   2.541   1.328   4.231
 7915TIP3    H123709   2.635   1.327   4.247
 7915TIP3    H223710   2.501   1.328   4.318
 7916TIP3   OH223711   3.643   4.877   0.095
 7916TIP3    H123712   3.578   4.862   0.026
 7916TIP3    H223713   3.644   4.972   0.106
 7917TIP3   OH223714   4.845   3.500   3.990
 7917TIP3    H123715   4.922   3.530   4.037
 7917TIP3    H223716   4.849   3.543   3.905
 7918TIP3   OH223717   4.373   5.245   4.625
 7918TIP3    H123718   4.298   5.299   4.649
 7918TIP3    H223719   4.335   5.165   4.588
 7919TIP3   OH223720   1.147   0.441   4.223
 7919TIP3    H123721   1.211   0.389   4.174
 7919TIP3    H223722   1.181   0.444   4.312
 7920TIP3   OH223723   6.980   4.098   4.107
 7920TIP3    H123724   6.914   4.157   4.143
 7920TIP3    H223725   6.931   4.037   4.051
 7921TIP3   OH223726   1.879   2.575   5.088
 7921TIP3    H123727   1.930   2.511   5.137
 7921TIP3    H223728   1.852   2.528   5.009
 7922TIP3   OH223729   1.889   0.919   2.400
 7922TIP3    H123730   1.962   0.922   2.337
 7922TIP3    H223731   1.849   0.833   2.386
 7923TIP3   OH223732   1.340   3.574   0.878
 7923TIP3    H123733   1.349   3.527   0.960
 7923TIP3    H223734   1.262   3.629   0.890
 7924TIP3   OH223735   4.244   0.660   0.243
 7924TIP3    H123736   4.311   0.644   0.310
 7924TIP3    H223737   4.201   0.741   0.271
 7925TIP3   OH223738   0.578   0.823   5.510
 7925TIP3    H123739   0.647   0.877   5.548
 7925TIP3    H223740   0.606   0.809   5.419
 7926TIP3   OH223741   5.222   4.186   0.061
 7926TIP3    H123742   5.257   4.199   0.149
 7926TIP3    H223743   5.218   4.091   0.050
 7927TIP3   OH223744   2.466   1.310   0.369
 7927TIP3    H123745   2.380   1.270   0.380
 7927TIP3    H223746   2.473   1.373   0.440
 7928TIP3   OH223747   2.810   2.805   0.203
 7928TIP3    H123748   2.721   2.782   0.231
 7928TIP3    H223749   2.840   2.869   0.268
 7929TIP3   OH223750   3.172   4.259   0.649
 7929TIP3    H123751   3.213   4.289   0.730
 7929TIP3    H223752   3.236   4.199   0.611
 7930TIP3   OH223753   4.236   2.812   2.090
 7930TIP3    H123754   4.141   2.803   2.089
 7930TIP3    H223755   4.252   2.904   2.069
 7931TIP3   OH223756   5.498   5.650   3.140
 7931TIP3    H123757   5.519   5.662   3.233
 7931TIP3    H223758   5.499   5.555   3.128
 7932TIP3   OH223759   0.707   2.122   1.530
 7932TIP3    H123760   0.675   2.196   1.478
 7932TIP3    H223761   0.673   2.045   1.485
 7933TIP3   OH223762   2.693   0.519   2.339
 7933TIP3    H123763   2.661   0.475   2.259
 7933TIP3    H223764   2.736   0.450   2.388
 7934TIP3   OH223765   1.762   0.847   1.072
 7934TIP3    H123766   1.834   0.861   1.133
 7934TIP3    H223767   1.785   0.896   0.994
 7935TIP3   OH223768   6.965   6.119   5.252
 7935TIP3    H123769   6.954   6.097   5.345
 7935TIP3    H223770   6.951   6.214   5.248
 7936TIP3   OH223771   0.929   6.680   4.125
 7936TIP3    H123772   0.901   6.761   4.167
 7936TIP3    H223773   1.019   6.696   4.097
 7937TIP3   OH223774   1.429   6.360   0.819
 7937TIP3    H123775   1.397   6.428   0.760
 7937TIP3    H223776   1.355   6.301   0.831
 7938TIP3   OH223777   4.260   1.444   0.244
 7938TIP3    H123778   4.225   1.466   0.331
 7938TIP3    H223779   4.348   1.410   0.262
 7939TIP3   OH223780   6.289   2.285   4.319
 7939TIP3    H123781   6.340   2.277   4.239
 7939TIP3    H223782   6.307   2.374   4.351
 7940TIP3   OH223783   1.830   3.475   3.328
 7940TIP3    H123784   1.798   3.441   3.244
 7940TIP3    H223785   1.888   3.407   3.361
 7941TIP3   OH223786   6.523   3.749   3.301
 7941TIP3    H123787   6.552   3.839   3.315
 7941TIP3    H223788   6.453   3.736   3.365
 7942TIP3   OH223789   0.858   4.953   4.633
 7942TIP3    H123790   0.852   5.027   4.694
 7942TIP3    H223791   0.858   4.993   4.546
 7943TIP3   OH223792   2.420   3.998   5.769
 7943TIP3    H123793   2.384   3.966   5.686
 7943TIP3    H223794   2.357   3.971   5.835
 7944TIP3   OH223795   6.543   5.363   5.635
 7944TIP3    H123796   6.492   5.380   5.556
 7944TIP3    H223797   6.595   5.286   5.615
 7945TIP3   OH223798   6.621   4.486   4.585
 7945TIP3    H123799   6.577   4.502   4.668
 7945TIP3    H223800   6.710   4.459   4.609
 7946TIP3   OH223801   7.044   4.452   5.485
 7946TIP3    H123802   7.002   4.407   5.412
 7946TIP3    H223803   7.127   4.485   5.450
 7947TIP3   OH223804   0.086   2.909   3.656
 7947TIP3    H123805   0.060   2.835   3.600
 7947TIP3    H223806   0.169   2.939   3.618
 7948TIP3   OH223807   0.650   0.468   0.407
 7948TIP3    H123808   0.726   0.516   0.438
 7948TIP3    H223809   0.658   0.470   0.312
 7949TIP3   OH223810   1.125   6.041   1.783
 7949TIP3    H123811   1.100   6.053   1.875
 7949TIP3    H223812   1.042   6.022   1.738
 7950TIP3   OH223813   5.143   3.227   1.608
 7950TIP3    H123814   5.164   3.257   1.520
 7950TIP3    H223815   5.161   3.303   1.664
 7951TIP3   OH223816   3.161   1.109   1.318
 7951TIP3    H123817   3.118   1.080   1.237
 7951TIP3    H223818   3.189   1.028   1.361
 7952TIP3   OH223819   2.078   3.106   1.405
 7952TIP3    H123820   2.083   3.031   1.464
 7952TIP3    H223821   1.994   3.148   1.427
 7953TIP3   OH223822   1.707   0.686   0.578
 7953TIP3    H123823   1.659   0.757   0.620
 7953TIP3    H223824   1.658   0.607   0.598
 7954TIP3   OH223825   3.345   4.385   0.258
 7954TIP3    H123826   3.418   4.339   0.301
 7954TIP3    H223827   3.267   4.336   0.284
 7955TIP3   OH223828   2.940   3.382   0.893
 7955TIP3    H123829   2.989   3.364   0.813
 7955TIP3    H223830   2.857   3.335   0.881
 7956TIP3   OH223831   1.295   0.746   2.128
 7956TIP3    H123832   1.287   0.716   2.218
 7956TIP3    H223833   1.368   0.808   2.129
 7957TIP3   OH223834   2.980   2.491   0.376
 7957TIP3    H123835   3.016   2.550   0.441
 7957TIP3    H223836   2.919   2.435   0.424
 7958TIP3   OH223837   5.474   3.585   0.884
 7958TIP3    H123838   5.454   3.552   0.972
 7958TIP3    H223839   5.568   3.604   0.886
 7959TIP3   OH223840   3.047   4.294   0.278
 7959TIP3    H123841   3.027   4.346   0.357
 7959TIP3    H223842   2.963   4.287   0.233
 7960TIP3   OH223843   1.022   4.424   5.486
 7960TIP3    H123844   0.962   4.470   5.544
 7960TIP3    H223845   1.013   4.332   5.510
 7961TIP3   OH223846   6.869   4.768   5.732
 7961TIP3    H123847   6.898   4.678   5.747
 7961TIP3    H223848   6.949   4.816   5.710
 7962TIP3   OH223849   4.467   5.781   0.540
 7962TIP3    H123850   4.476   5.762   0.446
 7962TIP3    H223851   4.533   5.848   0.558
 7963TIP3   OH223852   5.954   6.017   1.355
 7963TIP3    H123853   6.026   5.954   1.362
 7963TIP3    H223854   5.985   6.082   1.292
 7964TIP3   OH223855   5.716   5.097   3.275
 7964TIP3    H123856   5.782   5.040   3.314
 7964TIP3    H223857   5.695   5.161   3.343
 7965TIP3   OH223858   5.690   2.777   5.810
 7965TIP3    H123859   5.658   2.795   5.898
 7965TIP3    H223860   5.738   2.695   5.819
 7966TIP3   OH223861   3.458   6.225   3.522
 7966TIP3    H123862   3.414   6.157   3.573
 7966TIP3    H223863   3.551   6.206   3.531
 7967TIP3   OH223864   3.934   1.119   4.120
 7967TIP3    H123865   3.901   1.054   4.059
 7967TIP3    H223866   4.020   1.085   4.147
 7968TIP3   OH223867   6.320   4.657   0.681
 7968TIP3    H123868   6.324   4.747   0.712
 7968TIP3    H223869   6.411   4.633   0.665
 7969TIP3   OH223870   0.835   2.142   5.164
 7969TIP3    H123871   0.793   2.192   5.235
 7969TIP3    H223872   0.929   2.147   5.184
 7970TIP3   OH223873   4.111   5.810   2.616
 7970TIP3    H123874   4.072   5.795   2.702
 7970TIP3    H223875   4.100   5.903   2.600
 7971TIP3   OH223876   5.420   1.825   4.345
 7971TIP3    H123877   5.372   1.797   4.267
 7971TIP3    H223878   5.398   1.761   4.412
 7972TIP3   OH223879   1.336   1.939   3.218
 7972TIP3    H123880   1.268   1.917   3.282
 7972TIP3    H223881   1.401   1.987   3.268
 7973TIP3   OH223882   6.741   2.836   3.815
 7973TIP3    H123883   6.777   2.876   3.894
 7973TIP3    H223884   6.756   2.901   3.747
 7974TIP3   OH223885   5.403   1.057   1.362
 7974TIP3    H123886   5.389   1.123   1.431
 7974TIP3    H223887   5.455   1.103   1.296
 7975TIP3   OH223888   5.683   4.103   2.828
 7975TIP3    H123889   5.679   4.195   2.855
 7975TIP3    H223890   5.724   4.059   2.903
 7976TIP3   OH223891   5.271   1.259   4.775
 7976TIP3    H123892   5.349   1.207   4.793
 7976TIP3    H223893   5.198   1.197   4.785
 7977TIP3   OH223894   0.926   0.650   1.621
 7977TIP3    H123895   0.953   0.672   1.711
 7977TIP3    H223896   0.976   0.710   1.566
 7978TIP3   OH223897   4.990   0.261   1.572
 7978TIP3    H123898   4.979   0.267   1.667
 7978TIP3    H223899   4.977   0.350   1.541
 7979TIP3   OH223900   5.470   6.158   2.915
 7979TIP3    H123901   5.555   6.113   2.915
 7979TIP3    H223902   5.428   6.129   2.834
 7980TIP3   OH223903   2.031   5.677   1.884
 7980TIP3    H123904   2.091   5.709   1.816
 7980TIP3    H223905   2.065   5.715   1.965
 7981TIP3   OH223906   3.927   5.092   5.709
 7981TIP3    H123907   3.893   5.093   5.798
 7981TIP3    H223908   3.887   5.015   5.669
 7982TIP3   OH223909   6.683   0.230   3.065
 7982TIP3    H123910   6.645   0.315   3.041
 7982TIP3    H223911   6.772   0.252   3.094
 7983TIP3   OH223912   3.349   5.768   2.799
 7983TIP3    H123913   3.390   5.853   2.815
 7983TIP3    H223914   3.284   5.785   2.731
 7984TIP3   OH223915   4.016   5.444   4.997
 7984TIP3    H123916   3.948   5.383   4.966
 7984TIP3    H223917   4.059   5.397   5.069
 7985TIP3   OH223918   2.959   3.601   3.000
 7985TIP3    H123919   3.028   3.591   2.935
 7985TIP3    H223920   3.006   3.610   3.083
 7986TIP3   OH223921   0.323   0.507   4.202
 7986TIP3    H123922   0.368   0.446   4.144
 7986TIP3    H223923   0.394   0.555   4.246
 7987TIP3   OH223924   5.872   0.544   1.588
 7987TIP3    H123925   5.777   0.543   1.600
 7987TIP3    H223926   5.886   0.592   1.507
 7988TIP3   OH223927   5.410   6.609   0.431
 7988TIP3    H123928   5.412   6.523   0.389
 7988TIP3    H223929   5.453   6.595   0.515
 7989TIP3   OH223930   4.156   1.482   1.660
 7989TIP3    H123931   4.209   1.558   1.682
 7989TIP3    H223932   4.101   1.512   1.587
 7990TIP3   OH223933   3.163   1.717   0.438
 7990TIP3    H123934   3.166   1.632   0.481
 7990TIP3    H223935   3.197   1.701   0.350
 7991TIP3   OH223936   4.630   4.851   0.143
 7991TIP3    H123937   4.636   4.898   0.227
 7991TIP3    H223938   4.554   4.793   0.154
 7992TIP3   OH223939   4.900   4.265   0.829
 7992TIP3    H123940   4.970   4.232   0.885
 7992TIP3    H223941   4.855   4.331   0.882
 7993TIP3   OH223942   5.703   5.710   4.921
 7993TIP3    H123943   5.708   5.753   4.836
 7993TIP3    H223944   5.620   5.738   4.958
 7994TIP3   OH223945   4.896   6.660   3.540
 7994TIP3    H123946   4.977   6.694   3.502
 7994TIP3    H223947   4.914   6.567   3.554
 7995TIP3   OH223948   1.070   2.171   3.453
 7995TIP3    H123949   1.011   2.114   3.404
 7995TIP3    H223950   1.032   2.258   3.443
 7996TIP3   OH223951   4.802   2.884   1.923
 7996TIP3    H123952   4.828   2.932   1.844
 7996TIP3    H223953   4.758   2.806   1.889
 7997TIP3   OH223954   0.870   2.249   2.005
 7997TIP3    H123955   0.872   2.344   2.019
 7997TIP3    H223956   0.822   2.214   2.080
 7998TIP3   OH223957   0.971   5.580   2.326
 7998TIP3    H123958   0.961   5.487   2.305
 7998TIP3    H223959   0.886   5.619   2.305
 7999TIP3   OH223960   3.241   3.513   0.494
 7999TIP3    H123961   3.325   3.509   0.540
 7999TIP3    H223962   3.241   3.437   0.436
 8000TIP3   OH223963   3.379   0.910   1.251
 8000TIP3    H123964   3.347   0.909   1.341
 8000TIP3    H223965   3.424   0.826   1.240
 8001TIP3   OH223966   4.474   2.378   2.545
 8001TIP3    H123967   4.388   2.417   2.559
 8001TIP3    H223968   4.467   2.333   2.461
 8002TIP3   OH223969   5.009   1.246   2.515
 8002TIP3    H123970   5.074   1.184   2.549
 8002TIP3    H223971   4.926   1.201   2.523
 8003TIP3   OH223972   2.210   4.694   1.669
 8003TIP3    H123973   2.156   4.652   1.736
 8003TIP3    H223974   2.151   4.708   1.595
 8004TIP3   OH223975   5.517   6.063   4.644
 8004TIP3    H123976   5.573   6.134   4.615
 8004TIP3    H223977   5.507   6.007   4.567
 8005TIP3   OH223978   2.014   2.532   2.802
 8005TIP3    H123979   2.067   2.608   2.825
 8005TIP3    H223980   1.973   2.504   2.884
 8006TIP3   OH223981   1.521   5.081   3.942
 8006TIP3    H123982   1.448   5.134   3.909
 8006TIP3    H223983   1.549   5.029   3.867
 8007TIP3   OH223984   1.264   5.821   0.095
 8007TIP3    H123985   1.185   5.788   0.137
 8007TIP3    H223986   1.287   5.754   0.031
 8008TIP3   OH223987   1.293   3.071   4.856
 8008TIP3    H123988   1.275   2.981   4.882
 8008TIP3    H223989   1.242   3.124   4.917
 8009TIP3   OH223990   0.586   5.999   0.328
 8009TIP3    H123991   0.666   5.964   0.367
 8009TIP3    H223992   0.517   5.974   0.389
 8010TIP3   OH223993   4.436   3.296   4.620
 8010TIP3    H123994   4.457   3.385   4.648
 8010TIP3    H223995   4.382   3.307   4.542
 8011TIP3   OH223996   0.562   2.354   3.502
 8011TIP3    H123997   0.521   2.438   3.524
 8011TIP3    H223998   0.638   2.349   3.559
 8012TIP3   OH223999   4.750   0.123   0.969
 8012TIP3    H124000   4.800   0.199   0.999
 8012TIP3    H224001   4.729   0.143   0.878
 8013TIP3   OH224002   4.854   4.372   5.111
 8013TIP3    H124003   4.798   4.377   5.189
 8013TIP3    H224004   4.841   4.283   5.078
 8014TIP3   OH224005   5.522   2.148   2.873
 8014TIP3    H124006   5.615   2.134   2.891
 8014TIP3    H224007   5.519   2.178   2.783
 8015TIP3   OH224008   4.693   4.534   2.871
 8015TIP3    H124009   4.695   4.572   2.783
 8015TIP3    H224010   4.706   4.608   2.930
 8016TIP3   OH224011   6.404   4.542   3.772
 8016TIP3    H124012   6.310   4.551   3.787
 8016TIP3    H224013   6.426   4.614   3.712
 8017TIP3   OH224014   3.819   2.081   0.496
 8017TIP3    H124015   3.772   2.082   0.413
 8017TIP3    H224016   3.911   2.089   0.472
 8018TIP3   OH224017   5.563   0.560   1.557
 8018TIP3    H124018   5.491   0.563   1.619
 8018TIP3    H224019   5.569   0.649   1.522
 8019TIP3   OH224020   7.033   4.504   0.900
 8019TIP3    H124021   6.957   4.520   0.955
 8019TIP3    H224022   7.005   4.437   0.838
 8020TIP3   OH224023   0.140   3.586   4.337
 8020TIP3    H124024   0.216   3.627   4.378
 8020TIP3    H224025   0.153   3.492   4.350
 8021TIP3   OH224026   6.104   4.768   2.627
 8021TIP3    H124027   6.198   4.781   2.618
 8021TIP3    H224028   6.065   4.824   2.560
 8022TIP3   OH224029   2.533   5.451   3.591
 8022TIP3    H124030   2.594   5.385   3.624
 8022TIP3    H224031   2.589   5.525   3.567
 8023TIP3   OH224032   4.933   0.495   1.342
 8023TIP3    H124033   4.848   0.450   1.344
 8023TIP3    H224034   4.936   0.535   1.255
 8024TIP3   OH224035   4.053   3.404   4.728
 8024TIP3    H124036   4.057   3.439   4.639
 8024TIP3    H224037   3.959   3.401   4.748
 8025TIP3   OH224038   2.123   4.664   4.471
 8025TIP3    H124039   2.054   4.610   4.431
 8025TIP3    H224040   2.150   4.614   4.548
 8026TIP3   OH224041   3.308   2.390   5.133
 8026TIP3    H124042   3.350   2.476   5.132
 8026TIP3    H224043   3.330   2.353   5.219
 8027TIP3   OH224044   2.623   1.549   5.863
 8027TIP3    H124045   2.666   1.634   5.856
 8027TIP3    H224046   2.612   1.520   5.772
 8028TIP3   OH224047   2.956   3.596   1.986
 8028TIP3    H124048   3.044   3.593   2.022
 8028TIP3    H224049   2.907   3.652   2.046
 8029TIP3   OH224050   4.860   1.312   1.059
 8029TIP3    H124051   4.934   1.299   1.000
 8029TIP3    H224052   4.811   1.385   1.020
 8030TIP3   OH224053   0.450   0.115   5.081
 8030TIP3    H124054   0.502   0.195   5.088
 8030TIP3    H224055   0.442   0.101   4.986
 8031TIP3   OH224056   0.950   5.197   0.670
 8031TIP3    H124057   0.877   5.254   0.647
 8031TIP3    H224058   0.965   5.213   0.764
 8032TIP3   OH224059   1.828   6.033   0.351
 8032TIP3    H124060   1.914   6.008   0.318
 8032TIP3    H224061   1.783   6.071   0.275
 8033TIP3   OH224062   3.948   0.493   5.614
 8033TIP3    H124063   3.938   0.409   5.568
 8033TIP3    H224064   3.977   0.554   5.547
 8034TIP3   OH224065   3.504   2.460   4.164
 8034TIP3    H124066   3.523   2.458   4.071
 8034TIP3    H224067   3.419   2.503   4.171
 8035TIP3   OH224068   4.549   0.356   4.178
 8035TIP3    H124069   4.571   0.449   4.190
 8035TIP3    H224070   4.456   0.351   4.201
 8036TIP3   OH224071   5.986   2.305   0.433
 8036TIP3    H124072   6.055   2.368   0.454
 8036TIP3    H224073   6.023   2.220   0.455
 8037TIP3   OH224074   0.410   4.904   3.997
 8037TIP3    H124075   0.316   4.898   4.009
 8037TIP3    H224076   0.447   4.838   4.056
 8038TIP3   OH224077   0.893   2.734   2.033
 8038TIP3    H124078   0.970   2.790   2.033
 8038TIP3    H224079   0.922   2.652   2.074
 8039TIP3   OH224080   1.900   2.576   4.080
 8039TIP3    H124081   1.887   2.617   4.166
 8039TIP3    H224082   1.862   2.639   4.018
 8040TIP3   OH224083   5.727   0.490   1.344
 8040TIP3    H124084   5.634   0.497   1.366
 8040TIP3    H224085   5.759   0.419   1.399
 8041TIP3   OH224086   4.676   1.908   1.590
 8041TIP3    H124087   4.698   1.875   1.678
 8041TIP3    H224088   4.758   1.902   1.542
 8042TIP3   OH224089   5.346   6.724   2.525
 8042TIP3    H124090   5.396   6.789   2.474
 8042TIP3    H224091   5.368   6.640   2.484
 8043TIP3   OH224092   3.669   3.160   1.851
 8043TIP3    H124093   3.727   3.225   1.810
 8043TIP3    H224094   3.721   3.080   1.856
 8044TIP3   OH224095   5.530   0.439   0.928
 8044TIP3    H124096   5.593   0.372   0.954
 8044TIP3    H224097   5.516   0.425   0.834
 8045TIP3   OH224098   1.509   3.822   4.009
 8045TIP3    H124099   1.602   3.811   4.031
 8045TIP3    H224100   1.495   3.763   3.935
 8046TIP3   OH224101   1.128   5.743   2.126
 8046TIP3    H124102   1.124   5.670   2.187
 8046TIP3    H224103   1.079   5.813   2.169
 8047TIP3   OH224104   3.291   3.271   3.964
 8047TIP3    H124105   3.305   3.187   3.921
 8047TIP3    H224106   3.244   3.324   3.900
 8048TIP3   OH224107   1.352   2.807   5.490
 8048TIP3    H124108   1.412   2.791   5.563
 8048TIP3    H224109   1.282   2.859   5.528
 8049TIP3   OH224110   0.265   1.707   0.532
 8049TIP3    H124111   0.252   1.629   0.586
 8049TIP3    H224112   0.183   1.755   0.538
 8050TIP3   OH224113   3.249   6.668   4.410
 8050TIP3    H124114   3.204   6.749   4.435
 8050TIP3    H224115   3.270   6.680   4.318
 8051TIP3   OH224116   0.819   1.624   2.211
 8051TIP3    H124117   0.825   1.543   2.263
 8051TIP3    H224118   0.838   1.694   2.274
 8052TIP3   OH224119   1.884   0.593   1.003
 8052TIP3    H124120   1.841   0.678   0.996
 8052TIP3    H224121   1.934   0.585   0.922
 8053TIP3   OH224122   5.962   0.773   1.045
 8053TIP3    H124123   6.023   0.845   1.059
 8053TIP3    H224124   6.003   0.697   1.086
 8054TIP3   OH224125   1.539   5.657   4.580
 8054TIP3    H124126   1.565   5.600   4.508
 8054TIP3    H224127   1.477   5.605   4.631
 8055TIP3   OH224128   4.434   5.084   0.044
 8055TIP3    H124129   4.528   5.068   0.052
 8055TIP3    H224130   4.405   5.020  -0.022
 8056TIP3   OH224131   3.288   4.039   0.066
 8056TIP3    H124132   3.373   4.038   0.110
 8056TIP3    H224133   3.286   3.959   0.014
 8057TIP3   OH224134   0.967   4.629   5.025
 8057TIP3    H124135   1.060   4.634   5.007
 8057TIP3    H224136   0.931   4.710   4.988
 8058TIP3   OH224137   0.075   0.532   2.954
 8058TIP3    H124138   0.030   0.488   2.882
 8058TIP3    H224139   0.005   0.557   3.014
 8059TIP3   OH224140   6.606   2.437   0.563
 8059TIP3    H124141   6.695   2.469   0.578
 8059TIP3    H224142   6.551   2.494   0.616
 8060TIP3   OH224143   4.639   3.077   1.290
 8060TIP3    H124144   4.615   3.027   1.368
 8060TIP3    H224145   4.735   3.076   1.289
 8061TIP3   OH224146   6.751   0.375   5.072
 8061TIP3    H124147   6.749   0.326   5.154
 8061TIP3    H224148   6.844   0.384   5.051
 8062TIP3   OH224149   2.842   2.271   2.197
 8062TIP3    H124150   2.899   2.218   2.141
 8062TIP3    H224151   2.857   2.237   2.285
 8063TIP3   OH224152   6.028   0.108   4.497
 8063TIP3    H124153   5.945   0.154   4.486
 8063TIP3    H224154   6.093   0.162   4.452
 8064TIP3   OH224155   6.497   5.767   3.207
 8064TIP3    H124156   6.548   5.809   3.138
 8064TIP3    H224157   6.461   5.839   3.258
 8065TIP3   OH224158   0.892   4.982   3.232
 8065TIP3    H124159   0.904   5.050   3.299
 8065TIP3    H224160   0.916   4.901   3.276
 8066TIP3   OH224161   6.468   4.826   1.092
 8066TIP3    H124162   6.534   4.894   1.079
 8066TIP3    H224163   6.426   4.849   1.175
 8067TIP3   OH224164   2.417   5.104   0.378
 8067TIP3    H124165   2.397   5.185   0.331
 8067TIP3    H224166   2.463   5.049   0.314
 8068TIP3   OH224167   4.018   5.674   1.434
 8068TIP3    H124168   4.081   5.612   1.397
 8068TIP3    H224169   4.069   5.754   1.449
 8069TIP3   OH224170   0.834   1.889   4.896
 8069TIP3    H124171   0.760   1.940   4.927
 8069TIP3    H224172   0.797   1.804   4.872
 8070TIP3   OH224173   4.767   1.956   2.416
 8070TIP3    H124174   4.790   1.922   2.330
 8070TIP3    H224175   4.828   2.028   2.430
 8071TIP3   OH224176   5.881   6.055   1.015
 8071TIP3    H124177   5.812   6.075   0.952
 8071TIP3    H224178   5.887   6.134   1.069
 8072TIP3   OH224179   4.522   3.075   2.855
 8072TIP3    H124180   4.484   3.160   2.836
 8072TIP3    H224181   4.494   3.054   2.944
 8073TIP3   OH224182   2.499   1.368   4.568
 8073TIP3    H124183   2.551   1.448   4.560
 8073TIP3    H224184   2.410   1.395   4.546
 8074TIP3   OH224185   5.000   1.688   1.676
 8074TIP3    H124186   5.075   1.731   1.634
 8074TIP3    H224187   4.946   1.657   1.603
 8075TIP3   OH224188   1.729   0.420   0.080
 8075TIP3    H124189   1.770   0.424  -0.006
 8075TIP3    H224190   1.759   0.337   0.117
 8076TIP3   OH224191   5.164   0.418   3.730
 8076TIP3    H124192   5.123   0.372   3.657
 8076TIP3    H224193   5.108   0.494   3.746
 8077TIP3   OH224194   4.203   6.054   3.221
 8077TIP3    H124195   4.141   5.981   3.225
 8077TIP3    H224196   4.255   6.037   3.143
 8078TIP3   OH224197   0.890   2.612   3.862
 8078TIP3    H124198   0.981   2.639   3.874
 8078TIP3    H224199   0.892   2.517   3.870
 8079TIP3   OH224200   2.924   4.786   4.596
 8079TIP3    H124201   2.844   4.760   4.643
 8079TIP3    H224202   2.910   4.753   4.507
 8080TIP3   OH224203   2.917   1.691   1.094
 8080TIP3    H124204   2.933   1.751   1.021
 8080TIP3    H224205   2.828   1.711   1.122
 8081TIP3   OH224206   1.687   3.580   1.493
 8081TIP3    H124207   1.647   3.603   1.408
 8081TIP3    H224208   1.722   3.492   1.480
 8082TIP3   OH224209   0.468   3.026   2.051
 8082TIP3    H124210   0.520   3.081   2.109
 8082TIP3    H224211   0.528   3.000   1.982
 8083TIP3   OH224212   6.065   5.085   5.721
 8083TIP3    H124213   6.149   5.125   5.699
 8083TIP3    H224214   6.014   5.089   5.640
 8084TIP3   OH224215   0.504   1.441   3.961
 8084TIP3    H124216   0.461   1.523   3.988
 8084TIP3    H224217   0.436   1.375   3.966
 8085TIP3   OH224218   0.284   6.263   0.388
 8085TIP3    H124219   0.232   6.229   0.316
 8085TIP3    H224220   0.301   6.187   0.443
 8086TIP3   OH224221   5.456   5.893   3.799
 8086TIP3    H124222   5.433   5.977   3.760
 8086TIP3    H224223   5.416   5.895   3.886
 8087TIP3   OH224224   5.273   1.041   0.070
 8087TIP3    H124225   5.261   1.135   0.078
 8087TIP3    H224226   5.190   1.008   0.037
 8088TIP3   OH224227   6.563   3.895   2.421
 8088TIP3    H124228   6.656   3.898   2.439
 8088TIP3    H224229   6.530   3.822   2.473
 8089TIP3   OH224230   0.701   0.555   4.921
 8089TIP3    H124231   0.710   0.512   5.006
 8089TIP3    H224232   0.606   0.563   4.909
 8090TIP3   OH224233   3.150   0.101   3.474
 8090TIP3    H124234   3.055   0.107   3.487
 8090TIP3    H224235   3.165   0.010   3.448
 8091TIP3   OH224236   1.215   2.532   0.966
 8091TIP3    H124237   1.201   2.445   1.003
 8091TIP3    H224238   1.129   2.557   0.931
 8092TIP3   OH224239   2.367   4.471   4.939
 8092TIP3    H124240   2.460   4.455   4.923
 8092TIP3    H224241   2.367   4.538   5.008
 8093TIP3   OH224242   2.483   4.698   5.530
 8093TIP3    H124243   2.526   4.782   5.513
 8093TIP3    H224244   2.503   4.645   5.453
 8094TIP3   OH224245   6.446   1.304   0.081
 8094TIP3    H124246   6.439   1.237   0.149
 8094TIP3    H224247   6.538   1.303   0.056
 8095TIP3   OH224248   4.365   1.726   5.718
 8095TIP3    H124249   4.450   1.706   5.678
 8095TIP3    H224250   4.352   1.658   5.783
 8096TIP3   OH224251   2.585   0.115   5.526
 8096TIP3    H124252   2.612   0.182   5.464
 8096TIP3    H224253   2.659   0.107   5.586
 8097TIP3   OH224254   6.588   2.283   4.590
 8097TIP3    H124255   6.624   2.343   4.655
 8097TIP3    H224256   6.580   2.336   4.511
 8098TIP3   OH224257   0.494   1.431   0.455
 8098TIP3    H124258   0.459   1.437   0.366
 8098TIP3    H224259   0.431   1.374   0.501
 8099TIP3   OH224260   5.587   2.184   5.258
 8099TIP3    H124261   5.558   2.254   5.200
 8099TIP3    H224262   5.572   2.218   5.346
 8100TIP3   OH224263   1.470   2.351   0.807
 8100TIP3    H124264   1.419   2.343   0.888
 8100TIP3    H224265   1.405   2.375   0.741
 8101TIP3   OH224266   4.875   6.149   5.464
 8101TIP3    H124267   4.918   6.187   5.541
 8101TIP3    H224268   4.824   6.220   5.427
 8102TIP3   OH224269   4.242   2.369   1.789
 8102TIP3    H124270   4.286   2.330   1.865
 8102TIP3    H224271   4.272   2.460   1.789
 8103TIP3   OH224272   6.029   0.479   2.069
 8103TIP3    H124273   6.013   0.486   1.975
 8103TIP3    H224274   5.971   0.544   2.109
 8104TIP3   OH224275   4.379   4.390   2.803
 8104TIP3    H124276   4.380   4.486   2.800
 8104TIP3    H224277   4.366   4.369   2.895
 8105TIP3   OH224278   2.659   2.457   3.683
 8105TIP3    H124279   2.567   2.477   3.664
 8105TIP3    H224280   2.663   2.361   3.686
 8106TIP3   OH224281   1.649   6.711   4.842
 8106TIP3    H124282   1.615   6.658   4.915
 8106TIP3    H224283   1.744   6.712   4.856
 8107TIP3   OH224284   0.233   2.496   5.622
 8107TIP3    H124285   0.172   2.433   5.660
 8107TIP3    H224286   0.292   2.518   5.694
 8108TIP3   OH224287   1.306   0.678   0.609
 8108TIP3    H124288   1.332   0.615   0.542
 8108TIP3    H224289   1.233   0.726   0.570
 8109TIP3   OH224290   6.346   4.912   0.745
 8109TIP3    H124291   6.340   4.985   0.806
 8109TIP3    H224292   6.424   4.929   0.693
 8110TIP3   OH224293   3.097   4.393   5.814
 8110TIP3    H124294   3.177   4.398   5.762
 8110TIP3    H224295   3.054   4.477   5.800
 8111TIP3   OH224296   3.541   1.629   1.897
 8111TIP3    H124297   3.628   1.661   1.875
 8111TIP3    H224298   3.486   1.658   1.824
 8112TIP3   OH224299   3.625   1.006   2.610
 8112TIP3    H124300   3.656   0.917   2.595
 8112TIP3    H224301   3.642   1.021   2.703
 8113TIP3   OH224302   7.212   4.988   2.989
 8113TIP3    H124303   7.202   4.920   3.055
 8113TIP3    H224304   7.141   4.973   2.927
 8114TIP3   OH224305   2.174   2.935   0.955
 8114TIP3    H124306   2.084   2.913   0.931
 8114TIP3    H224307   2.175   2.929   1.051
 8115TIP3   OH224308   6.244   0.282   5.447
 8115TIP3    H124309   6.275   0.331   5.370
 8115TIP3    H224310   6.289   0.323   5.521
 8116TIP3   OH224311   2.878   2.678   0.935
 8116TIP3    H124312   2.830   2.596   0.933
 8116TIP3    H224313   2.823   2.740   0.887
 8117TIP3   OH224314   2.704   0.746   5.506
 8117TIP3    H124315   2.687   0.799   5.428
 8117TIP3    H224316   2.617   0.733   5.545
 8118TIP3   OH224317   7.212   3.967   1.814
 8118TIP3    H124318   7.207   4.059   1.790
 8118TIP3    H224319   7.194   3.920   1.733
 8119TIP3   OH224320   2.848   2.235   5.639
 8119TIP3    H124321   2.892   2.231   5.554
 8119TIP3    H224322   2.882   2.160   5.687
 8120TIP3   OH224323   2.052   5.815   4.230
 8120TIP3    H124324   2.136   5.851   4.202
 8120TIP3    H224325   2.005   5.891   4.265
 8121TIP3   OH224326   0.941   1.361   0.873
 8121TIP3    H124327   1.001   1.354   0.799
 8121TIP3    H224328   0.867   1.304   0.850
 8122TIP3   OH224329   4.503   2.600   2.147
 8122TIP3    H124330   4.480   2.565   2.061
 8122TIP3    H224331   4.440   2.671   2.161
 8123TIP3   OH224332   0.539   6.271   2.825
 8123TIP3    H124333   0.604   6.315   2.880
 8123TIP3    H224334   0.590   6.226   2.758
 8124TIP3   OH224335   5.559   5.163   0.621
 8124TIP3    H124336   5.635   5.180   0.564
 8124TIP3    H224337   5.547   5.244   0.670
 8125TIP3   OH224338   6.481   0.715   4.016
 8125TIP3    H124339   6.542   0.642   4.004
 8125TIP3    H224340   6.456   0.711   4.108
 8126TIP3   OH224341   0.416   3.897   3.914
 8126TIP3    H124342   0.357   3.934   3.979
 8126TIP3    H224343   0.497   3.878   3.962
 8127TIP3   OH224344   3.507   3.999   2.085
 8127TIP3    H124345   3.462   3.968   2.164
 8127TIP3    H224346   3.591   4.033   2.117
 8128TIP3   OH224347   4.769   3.464   2.500
 8128TIP3    H124348   4.819   3.543   2.520
 8128TIP3    H224349   4.759   3.420   2.584
 8129TIP3   OH224350   1.569   2.836   4.202
 8129TIP3    H124351   1.511   2.775   4.156
 8129TIP3    H224352   1.511   2.884   4.261
 8130TIP3   OH224353   2.214   2.791   2.350
 8130TIP3    H124354   2.228   2.697   2.358
 8130TIP3    H224355   2.241   2.827   2.435
 8131TIP3   OH224356   5.932   4.349   3.901
 8131TIP3    H124357   5.938   4.411   3.973
 8131TIP3    H224358   5.920   4.264   3.943
 8132TIP3   OH224359   0.493   4.232   3.308
 8132TIP3    H124360   0.566   4.272   3.357
 8132TIP3    H224361   0.481   4.288   3.232
 8133TIP3   OH224362   5.023   1.841   5.010
 8133TIP3    H124363   5.098   1.808   5.059
 8133TIP3    H224364   4.976   1.897   5.072
 8134TIP3   OH224365   5.543   5.356   3.104
 8134TIP3    H124366   5.612   5.345   3.038
 8134TIP3    H224367   5.518   5.266   3.127
 8135TIP3   OH224368   0.238   2.773   2.529
 8135TIP3    H124369   0.194   2.798   2.610
 8135TIP3    H224370   0.175   2.792   2.460
 8136TIP3   OH224371   2.026   0.810  -0.001
 8136TIP3    H124372   2.043   0.902  -0.022
 8136TIP3    H224373   1.931   0.802   0.003
 8137TIP3   OH224374   6.143   2.155   0.789
 8137TIP3    H124375   6.165   2.238   0.831
 8137TIP3    H224376   6.179   2.163   0.700
 8138TIP3   OH224377   6.028   6.058   2.916
 8138TIP3    H124378   6.120   6.083   2.923
 8138TIP3    H224379   6.020   6.021   2.828
 8139TIP3   OH224380   3.877   0.290   2.292
 8139TIP3    H124381   3.818   0.222   2.325
 8139TIP3    H224382   3.825   0.338   2.228
 8140TIP3   OH224383   2.006   4.383   3.502
 8140TIP3    H124384   1.944   4.368   3.573
 8140TIP3    H224385   2.092   4.384   3.545
 8141TIP3   OH224386   2.666   0.778   2.878
 8141TIP3    H124387   2.670   0.718   2.803
 8141TIP3    H224388   2.604   0.737   2.939
 8142TIP3   OH224389   2.464   0.213   1.424
 8142TIP3    H124390   2.409   0.135   1.435
 8142TIP3    H224391   2.485   0.214   1.330
 8143TIP3   OH224392   0.357   5.492   2.424
 8143TIP3    H124393   0.349   5.564   2.361
 8143TIP3    H224394   0.267   5.466   2.444
 8144TIP3   OH224395   2.499   1.247   1.370
 8144TIP3    H124396   2.419   1.295   1.351
 8144TIP3    H224397   2.477   1.194   1.447
 8145TIP3   OH224398   4.300   6.008   5.127
 8145TIP3    H124399   4.390   5.992   5.157
 8145TIP3    H224400   4.254   6.038   5.206
 8146TIP3   OH224401   2.389   1.635   1.803
 8146TIP3    H124402   2.424   1.560   1.754
 8146TIP3    H224403   2.331   1.595   1.868
 8147TIP3   OH224404   4.193   3.382   5.830
 8147TIP3    H124405   4.148   3.431   5.761
 8147TIP3    H224406   4.256   3.444   5.867
 8148TIP3   OH224407   2.010   0.074   3.732
 8148TIP3    H124408   1.945   0.105   3.669
 8148TIP3    H224409   1.979   0.107   3.816
 8149TIP3   OH224410   4.989   3.623   4.399
 8149TIP3    H124411   5.010   3.632   4.492
 8149TIP3    H224412   4.998   3.530   4.381
 8150TIP3   OH224413   2.889   5.269   2.911
 8150TIP3    H124414   2.899   5.361   2.935
 8150TIP3    H224415   2.957   5.223   2.960
 8151TIP3   OH224416   3.383   4.958   2.618
 8151TIP3    H124417   3.405   4.875   2.575
 8151TIP3    H224418   3.465   4.990   2.654
 8152TIP3   OH224419   5.820   5.247   4.665
 8152TIP3    H124420   5.779   5.161   4.650
 8152TIP3    H224421   5.781   5.278   4.746
 8153TIP3   OH224422   3.308   2.246   4.491
 8153TIP3    H124423   3.302   2.213   4.402
 8153TIP3    H224424   3.330   2.339   4.481
 8154TIP3   OH224425   5.245   1.372   5.029
 8154TIP3    H124426   5.230   1.389   4.936
 8154TIP3    H224427   5.339   1.351   5.034
 8155TIP3   OH224428   4.319   3.759   1.850
 8155TIP3    H124429   4.361   3.801   1.776
 8155TIP3    H224430   4.282   3.832   1.901
 8156TIP3   OH224431   1.542   0.743   0.183
 8156TIP3    H124432   1.471   0.715   0.242
 8156TIP3    H224433   1.585   0.815   0.229
 8157TIP3   OH224434   2.985   2.679   0.573
 8157TIP3    H124435   2.984   2.772   0.595
 8157TIP3    H224436   3.064   2.645   0.615
 8158TIP3   OH224437   2.915   0.944   2.829
 8158TIP3    H124438   2.956   1.024   2.797
 8158TIP3    H224439   2.988   0.886   2.849
 8159TIP3   OH224440   1.209   0.204   5.223
 8159TIP3    H124441   1.299   0.225   5.197
 8159TIP3    H224442   1.213   0.110   5.244
 8160TIP3   OH224443   2.267   4.479   3.653
 8160TIP3    H124444   2.258   4.574   3.652
 8160TIP3    H224445   2.345   4.462   3.601
 8161TIP3   OH224446   5.765   4.800   3.917
 8161TIP3    H124447   5.809   4.720   3.887
 8161TIP3    H224448   5.836   4.861   3.936
 8162TIP3   OH224449   4.127   2.987   1.286
 8162TIP3    H124450   4.213   2.956   1.256
 8162TIP3    H224451   4.143   3.076   1.316
 8163TIP3   OH224452   1.980   5.670   2.591
 8163TIP3    H124453   1.979   5.751   2.540
 8163TIP3    H224454   2.032   5.692   2.669
 8164TIP3   OH224455   6.036   1.052   1.611
 8164TIP3    H124456   6.025   0.981   1.675
 8164TIP3    H224457   5.966   1.037   1.547
 8165TIP3   OH224458   5.038   2.198   5.050
 8165TIP3    H124459   4.958   2.146   5.057
 8165TIP3    H224460   5.029   2.244   4.967
 8166TIP3   OH224461   4.496   1.104   2.758
 8166TIP3    H124462   4.526   1.015   2.775
 8166TIP3    H224463   4.427   1.094   2.692
 8167TIP3   OH224464   4.433   6.563   1.933
 8167TIP3    H124465   4.485   6.560   2.013
 8167TIP3    H224466   4.417   6.471   1.911
 8168TIP3   OH224467   2.227   6.622   0.929
 8168TIP3    H124468   2.161   6.587   0.870
 8168TIP3    H224469   2.244   6.710   0.897
 8169TIP3   OH224470   3.255   1.603   1.457
 8169TIP3    H124471   3.237   1.590   1.364
 8169TIP3    H224472   3.200   1.539   1.501
 8170TIP3   OH224473   2.179   3.551   4.628
 8170TIP3    H124474   2.150   3.626   4.680
 8170TIP3    H224475   2.204   3.485   4.693
 8171TIP3   OH224476   0.350   4.459   4.055
 8171TIP3    H124477   0.361   4.365   4.038
 8171TIP3    H224478   0.346   4.465   4.151
 8172TIP3   OH224479   5.892   5.633   3.881
 8172TIP3    H124480   5.985   5.612   3.889
 8172TIP3    H224481   5.860   5.633   3.972
 8173TIP3   OH224482   1.646   6.054   2.816
 8173TIP3    H124483   1.613   6.056   2.906
 8173TIP3    H224484   1.617   5.970   2.782
 8174TIP3   OH224485   3.593   3.518   5.775
 8174TIP3    H124486   3.627   3.497   5.863
 8174TIP3    H224487   3.670   3.513   5.718
 8175TIP3   OH224488   5.121   4.003   0.595
 8175TIP3    H124489   5.050   3.957   0.640
 8175TIP3    H224490   5.078   4.050   0.524
 8176TIP3   OH224491   5.574   5.515   3.963
 8176TIP3    H124492   5.482   5.490   3.968
 8176TIP3    H224493   5.596   5.543   4.052
 8177TIP3   OH224494   0.400   4.771   4.355
 8177TIP3    H124495   0.409   4.720   4.274
 8177TIP3    H224496   0.325   4.828   4.339
 8178TIP3   OH224497   1.641   4.579   3.601
 8178TIP3    H124498   1.668   4.492   3.629
 8178TIP3    H224499   1.549   4.585   3.627
 8179TIP3   OH224500   1.743   6.344   4.777
 8179TIP3    H124501   1.823   6.389   4.750
 8179TIP3    H224502   1.728   6.279   4.708
 8180TIP3   OH224503   4.033   5.863   3.131
 8180TIP3    H124504   3.953   5.909   3.105
 8180TIP3    H224505   4.006   5.773   3.145
 8181TIP3   OH224506   5.107   6.008   3.900
 8181TIP3    H124507   5.157   6.031   3.822
 8181TIP3    H224508   5.031   6.066   3.898
 8182TIP3   OH224509   0.363   4.158   3.545
 8182TIP3    H124510   0.402   4.162   3.458
 8182TIP3    H224511   0.300   4.230   3.547
 8183TIP3   OH224512   4.551   2.979   5.389
 8183TIP3    H124513   4.604   3.040   5.337
 8183TIP3    H224514   4.614   2.916   5.423
 8184TIP3   OH224515   4.487   5.541   3.404
 8184TIP3    H124516   4.510   5.546   3.312
 8184TIP3    H224517   4.476   5.632   3.432
 8185TIP3   OH224518   2.360   4.771   0.771
 8185TIP3    H124519   2.289   4.814   0.722
 8185TIP3    H224520   2.316   4.733   0.847
 8186TIP3   OH224521   6.214   3.746   4.612
 8186TIP3    H124522   6.206   3.715   4.522
 8186TIP3    H224523   6.219   3.667   4.665
 8187TIP3   OH224524   4.776   0.059   2.951
 8187TIP3    H124525   4.788  -0.018   2.896
 8187TIP3    H224526   4.686   0.087   2.935
 8188TIP3   OH224527   7.170   3.498   0.303
 8188TIP3    H124528   7.243   3.534   0.354
 8188TIP3    H224529   7.121   3.575   0.274
 8189TIP3   OH224530   2.298   1.480   0.756
 8189TIP3    H124531   2.367   1.530   0.712
 8189TIP3    H224532   2.340   1.398   0.781
 8190TIP3   OH224533   3.582   5.685   1.354
 8190TIP3    H124534   3.648   5.729   1.301
 8190TIP3    H224535   3.557   5.750   1.420
 8191TIP3   OH224536   6.081   4.529   3.527
 8191TIP3    H124537   6.120   4.593   3.587
 8191TIP3    H224538   6.066   4.578   3.446
 8192TIP3   OH224539   2.118   6.271   0.190
 8192TIP3    H124540   2.143   6.339   0.127
 8192TIP3    H224541   2.091   6.197   0.135
 8193TIP3   OH224542   2.797   1.170   2.277
 8193TIP3    H124543   2.866   1.188   2.214
 8193TIP3    H224544   2.786   1.075   2.275
 8194TIP3   OH224545   5.026   3.002   2.696
 8194TIP3    H124546   4.942   3.043   2.719
 8194TIP3    H224547   5.029   3.005   2.601
 8195TIP3   OH224548   0.468   6.462   0.739
 8195TIP3    H124549   0.500   6.533   0.794
 8195TIP3    H224550   0.460   6.502   0.652
 8196TIP3   OH224551   3.755   2.740   5.352
 8196TIP3    H124552   3.768   2.650   5.379
 8196TIP3    H224553   3.665   2.761   5.380
 8197TIP3   OH224554   2.920   5.395   5.376
 8197TIP3    H124555   2.922   5.381   5.281
 8197TIP3    H224556   2.886   5.484   5.387
 8198TIP3   OH224557   2.155   2.991   4.276
 8198TIP3    H124558   2.135   3.078   4.309
 8198TIP3    H224559   2.205   3.007   4.196
 8199TIP3   OH224560   6.121   0.955   4.214
 8199TIP3    H124561   6.126   1.001   4.298
 8199TIP3    H224562   6.028   0.960   4.190
 8200TIP3   OH224563   6.496   0.708   0.378
 8200TIP3    H124564   6.555   0.680   0.308
 8200TIP3    H224565   6.433   0.766   0.334
 8201TIP3   OH224566   1.960   0.594   1.356
 8201TIP3    H124567   1.967   0.565   1.447
 8201TIP3    H224568   2.028   0.544   1.310
 8202TIP3   OH224569   0.647   5.082   4.353
 8202TIP3    H124570   0.660   5.084   4.259
 8202TIP3    H224571   0.717   5.137   4.388
 8203TIP3   OH224572   6.712   2.766   0.300
 8203TIP3    H124573   6.744   2.843   0.346
 8203TIP3    H224574   6.737   2.693   0.356
 8204TIP3   OH224575   0.644   6.625   3.672
 8204TIP3    H124576   0.627   6.717   3.651
 8204TIP3    H224577   0.596   6.576   3.604
 8205TIP3   OH224578   1.890   0.711   0.290
 8205TIP3    H124579   1.880   0.688   0.382
 8205TIP3    H224580   1.919   0.630   0.248
 8206TIP3   OH224581   4.929   2.427   2.950
 8206TIP3    H124582   4.986   2.371   3.002
 8206TIP3    H224583   4.987   2.492   2.911
 8207TIP3   OH224584   1.786   0.208   0.231
 8207TIP3    H124585   1.874   0.192   0.198
 8207TIP3    H224586   1.788   0.176   0.322
 8208TIP3   OH224587   4.496   5.068   3.783
 8208TIP3    H124588   4.426   5.016   3.822
 8208TIP3    H224589   4.494   5.045   3.691
 8209TIP3   OH224590   4.783   4.748   4.787
 8209TIP3    H124591   4.848   4.688   4.825
 8209TIP3    H224592   4.799   4.831   4.831
 8210TIP3   OH224593   6.715   6.700   1.495
 8210TIP3    H124594   6.776   6.632   1.521
 8210TIP3    H224595   6.688   6.741   1.578
 8211TIP3   OH224596   5.473   6.437   3.646
 8211TIP3    H124597   5.454   6.478   3.730
 8211TIP3    H224598   5.503   6.509   3.591
 8212TIP3   OH224599   1.574   4.109   3.636
 8212TIP3    H124600   1.635   4.063   3.578
 8212TIP3    H224601   1.517   4.041   3.671
 8213TIP3   OH224602   1.123   5.185   5.650
 8213TIP3    H124603   1.217   5.201   5.646
 8213TIP3    H224604   1.105   5.125   5.578
 8214TIP3   OH224605   0.246   5.216   3.577
 8214TIP3    H124606   0.171   5.270   3.601
 8214TIP3    H224607   0.310   5.233   3.645
 8215TIP3   OH224608   5.621   2.966   1.483
 8215TIP3    H124609   5.604   3.049   1.440
 8215TIP3    H224610   5.598   2.900   1.418
 8216TIP3   OH224611   5.171   5.982   1.037
 8216TIP3    H124612   5.218   5.988   0.954
 8216TIP3    H224613   5.144   5.891   1.043
 8217TIP3   OH224614   2.039   0.870   2.733
 8217TIP3    H124615   2.038   0.791   2.787
 8217TIP3    H224616   2.108   0.855   2.669
 8218TIP3   OH224617   4.446   1.220   0.465
 8218TIP3    H124618   4.533   1.194   0.497
 8218TIP3    H224619   4.456   1.226   0.370
 8219TIP3   OH224620   2.375   6.575   4.118
 8219TIP3    H124621   2.377   6.516   4.193
 8219TIP3    H224622   2.357   6.661   4.155
 8220TIP3   OH224623   0.854   3.585   2.265
 8220TIP3    H124624   0.807   3.548   2.190
 8220TIP3    H224625   0.823   3.534   2.340
 8221TIP3   OH224626   1.439   3.014   3.313
 8221TIP3    H124627   1.524   3.055   3.329
 8221TIP3    H224628   1.459   2.920   3.306
 8222TIP3   OH224629   0.133   1.449   5.720
 8222TIP3    H124630   0.094   1.374   5.764
 8222TIP3    H224631   0.211   1.469   5.771
 8223TIP3   OH224632   1.726   6.212   5.812
 8223TIP3    H124633   1.669   6.139   5.834
 8223TIP3    H224634   1.743   6.256   5.895
 8224TIP3   OH224635   6.124   1.620   3.217
 8224TIP3    H124636   6.028   1.623   3.207
 8224TIP3    H224637   6.140   1.543   3.272
 8225TIP3   OH224638   2.730   0.845   4.182
 8225TIP3    H124639   2.777   0.928   4.192
 8225TIP3    H224640   2.686   0.833   4.267
 8226TIP3   OH224641   2.693   5.031   5.010
 8226TIP3    H124642   2.768   5.038   4.950
 8226TIP3    H224643   2.679   5.120   5.041
 8227TIP3   OH224644   3.001   0.867   1.207
 8227TIP3    H124645   2.964   0.824   1.130
 8227TIP3    H224646   3.030   0.794   1.262
 8228TIP3   OH224647   2.575   6.140   3.798
 8228TIP3    H124648   2.574   6.186   3.715
 8228TIP3    H224649   2.484   6.112   3.811
 8229TIP3   OH224650   1.530   0.901   2.260
 8229TIP3    H124651   1.603   0.871   2.314
 8229TIP3    H224652   1.563   0.978   2.215
 8230TIP3   OH224653   5.823   2.388   0.139
 8230TIP3    H124654   5.837   2.471   0.185
 8230TIP3    H224655   5.869   2.400   0.056
 8231TIP3   OH224656   2.908   1.333   1.269
 8231TIP3    H124657   2.863   1.249   1.272
 8231TIP3    H224658   2.839   1.398   1.279
 8232TIP3   OH224659   3.655   6.382   0.722
 8232TIP3    H124660   3.610   6.402   0.805
 8232TIP3    H224661   3.675   6.468   0.685
 8233TIP3   OH224662   2.081   4.780   1.921
 8233TIP3    H124663   2.068   4.686   1.926
 8233TIP3    H224664   2.113   4.805   2.008
 8234TIP3   OH224665   6.571   4.519   4.232
 8234TIP3    H124666   6.580   4.613   4.249
 8234TIP3    H224667   6.647   4.480   4.275
 8235TIP3   OH224668   4.896   0.267   4.607
 8235TIP3    H124669   4.832   0.197   4.617
 8235TIP3    H224670   4.962   0.249   4.674
 8236TIP3   OH224671   1.136   3.468   5.157
 8236TIP3    H124672   1.208   3.509   5.205
 8236TIP3    H224673   1.081   3.429   5.225
 8237TIP3   OH224674   5.774   1.709   1.951
 8237TIP3    H124675   5.804   1.619   1.942
 8237TIP3    H224676   5.830   1.759   1.892
 8238TIP3   OH224677   5.711   3.467   0.538
 8238TIP3    H124678   5.622   3.479   0.572
 8238TIP3    H224679   5.742   3.556   0.523
 8239TIP3   OH224680   4.456   4.156   3.616
 8239TIP3    H124681   4.488   4.094   3.550
 8239TIP3    H224682   4.532   4.172   3.672
 8240TIP3   OH224683   6.558   4.127   3.940
 8240TIP3    H124684   6.473   4.107   3.978
 8240TIP3    H224685   6.559   4.222   3.931
 8241TIP3   OH224686   4.400   4.594   3.407
 8241TIP3    H124687   4.429   4.504   3.393
 8241TIP3    H224688   4.479   4.646   3.399
 8242TIP3   OH224689   3.947   5.649   3.978
 8242TIP3    H124690   3.951   5.657   3.882
 8242TIP3    H224691   4.025   5.598   4.000
 8243TIP3   OH224692   3.143   0.801   0.826
 8243TIP3    H124693   3.177   0.874   0.877
 8243TIP3    H224694   3.141   0.728   0.887
 8244TIP3   OH224695   3.017   0.404   1.648
 8244TIP3    H124696   3.019   0.497   1.673
 8244TIP3    H224697   2.983   0.359   1.725
 8245TIP3   OH224698   3.814   1.963   2.960
 8245TIP3    H124699   3.804   2.041   3.015
 8245TIP3    H224700   3.743   1.970   2.897
 8246TIP3   OH224701   2.628   4.034   0.591
 8246TIP3    H124702   2.556   4.093   0.568
 8246TIP3    H224703   2.707   4.083   0.571
 8247TIP3   OH224704   6.189   4.478   0.844
 8247TIP3    H124705   6.258   4.413   0.827
 8247TIP3    H224706   6.196   4.541   0.772
 8248TIP3   OH224707   3.233   3.576   2.011
 8248TIP3    H124708   3.302   3.585   2.076
 8248TIP3    H224709   3.269   3.517   1.945
 8249TIP3   OH224710   4.994   1.105   5.386
 8249TIP3    H124711   5.038   1.072   5.464
 8249TIP3    H224712   4.927   1.040   5.367
 8250TIP3   OH224713   4.022   2.615   3.531
 8250TIP3    H124714   3.970   2.535   3.527
 8250TIP3    H224715   4.066   2.620   3.446
 8251TIP3   OH224716   4.338   5.552   2.354
 8251TIP3    H124717   4.422   5.580   2.317
 8251TIP3    H224718   4.304   5.487   2.292
 8252TIP3   OH224719   6.276   2.761   2.114
 8252TIP3    H124720   6.235   2.693   2.167
 8252TIP3    H224721   6.297   2.831   2.177
 8253TIP3   OH224722   0.111   6.218   1.789
 8253TIP3    H124723   0.159   6.136   1.772
 8253TIP3    H224724   0.062   6.234   1.708
 8254TIP3   OH224725   0.714   2.986   4.216
 8254TIP3    H124726   0.757   2.909   4.176
 8254TIP3    H224727   0.787   3.045   4.236
 8255TIP3   OH224728   4.435   3.129   4.360
 8255TIP3    H124729   4.516   3.178   4.376
 8255TIP3    H224730   4.368   3.197   4.355
 8256TIP3   OH224731   5.365   6.457   2.420
 8256TIP3    H124732   5.358   6.399   2.344
 8256TIP3    H224733   5.275   6.465   2.451
 8257TIP3   OH224734   2.559   2.379   2.941
 8257TIP3    H124735   2.592   2.376   2.851
 8257TIP3    H224736   2.510   2.297   2.951
 8258TIP3   OH224737   4.101   2.086   2.104
 8258TIP3    H124738   4.138   2.005   2.070
 8258TIP3    H224739   4.078   2.066   2.194
 8259TIP3   OH224740   4.351   4.636   3.888
 8259TIP3    H124741   4.409   4.646   3.812
 8259TIP3    H224742   4.407   4.604   3.958
 8260TIP3   OH224743   1.625   1.192   1.146
 8260TIP3    H124744   1.533   1.219   1.141
 8260TIP3    H224745   1.674   1.268   1.113
 8261TIP3   OH224746   5.235   4.812   0.536
 8261TIP3    H124747   5.258   4.722   0.511
 8261TIP3    H224748   5.149   4.805   0.577
 8262TIP3   OH224749   5.862   1.497   1.601
 8262TIP3    H124750   5.785   1.471   1.550
 8262TIP3    H224751   5.841   1.470   1.691
 8263TIP3   OH224752   5.217   3.511   0.431
 8263TIP3    H124753   5.135   3.478   0.392
 8263TIP3    H224754   5.188   3.573   0.498
 8264TIP3   OH224755   1.520   4.263   3.940
 8264TIP3    H124756   1.468   4.185   3.960
 8264TIP3    H224757   1.487   4.293   3.855
 8265TIP3   OH224758   7.215   2.972   2.985
 8265TIP3    H124759   7.209   3.041   2.919
 8265TIP3    H224760   7.138   2.986   3.041
 8266TIP3   OH224761   0.042   6.293   2.041
 8266TIP3    H124762   0.062   6.278   1.949
 8266TIP3    H224763  -0.009   6.217   2.068
 8267TIP3   OH224764   1.442   4.448   4.539
 8267TIP3    H124765   1.451   4.401   4.621
 8267TIP3    H224766   1.518   4.420   4.487
 8268TIP3   OH224767   3.008   1.199   1.632
 8268TIP3    H124768   3.057   1.255   1.572
 8268TIP3    H224769   2.961   1.138   1.574
 8269TIP3   OH224770   2.264   5.146   1.000
 8269TIP3    H124771   2.226   5.227   1.032
 8269TIP3    H224772   2.312   5.110   1.074
 8270TIP3   OH224773   2.614   6.733   4.512
 8270TIP3    H124774   2.657   6.694   4.588
 8270TIP3    H224775   2.547   6.791   4.549
 8271TIP3   OH224776   0.501   1.238   2.722
 8271TIP3    H124777   0.576   1.259   2.666
 8271TIP3    H224778   0.427   1.282   2.680
 8272TIP3   OH224779   2.802   1.337   4.279
 8272TIP3    H124780   2.810   1.244   4.303
 8272TIP3    H224781   2.843   1.384   4.351
 8273TIP3   OH224782   5.524   4.414   1.346
 8273TIP3    H124783   5.490   4.428   1.435
 8273TIP3    H224784   5.573   4.493   1.326
 8274TIP3   OH224785   5.472   6.351   0.973
 8274TIP3    H124786   5.464   6.436   1.016
 8274TIP3    H224787   5.401   6.350   0.908
 8275TIP3   OH224788   5.469   0.782   5.358
 8275TIP3    H124789   5.557   0.770   5.321
 8275TIP3    H224790   5.484   0.790   5.453
 8276TIP3   OH224791   1.781   4.310   0.771
 8276TIP3    H124792   1.727   4.262   0.834
 8276TIP3    H224793   1.790   4.398   0.808
 8277TIP3   OH224794   3.784   4.872   5.608
 8277TIP3    H124795   3.833   4.845   5.530
 8277TIP3    H224796   3.693   4.850   5.587
 8278TIP3   OH224797   1.714   0.291   2.365
 8278TIP3    H124798   1.700   0.197   2.364
 8278TIP3    H224799   1.667   0.323   2.288
 8279TIP3   OH224800   1.102   3.465   2.913
 8279TIP3    H124801   1.188   3.427   2.928
 8279TIP3    H224802   1.063   3.470   3.000
 8280TIP3   OH224803   2.937   4.593   5.725
 8280TIP3    H124804   2.963   4.655   5.658
 8280TIP3    H224805   2.842   4.607   5.735
 8281TIP3   OH224806   1.376   1.245   4.376
 8281TIP3    H124807   1.426   1.321   4.346
 8281TIP3    H224808   1.433   1.201   4.439
 8282TIP3   OH224809   0.588   1.720   4.236
 8282TIP3    H124810   0.636   1.778   4.178
 8282TIP3    H224811   0.514   1.689   4.183
 8283TIP3   OH224812   5.292   3.325   3.634
 8283TIP3    H124813   5.288   3.239   3.592
 8283TIP3    H224814   5.208   3.335   3.678
 8284TIP3   OH224815   3.090   3.678   5.570
 8284TIP3    H124816   3.169   3.626   5.587
 8284TIP3    H224817   3.105   3.760   5.617
 8285TIP3   OH224818   3.992   1.177   2.057
 8285TIP3    H124819   3.924   1.241   2.074
 8285TIP3    H224820   4.023   1.197   1.969
 8286TIP3   OH224821   5.582   6.696   4.009
 8286TIP3    H124822   5.563   6.614   3.962
 8286TIP3    H224823   5.591   6.669   4.101
 8287TIP3   OH224824   2.791   4.360   5.221
 8287TIP3    H124825   2.820   4.396   5.138
 8287TIP3    H224826   2.816   4.268   5.218
 8288TIP3   OH224827   3.225   0.842   1.903
 8288TIP3    H124828   3.293   0.788   1.863
 8288TIP3    H224829   3.155   0.844   1.836
 8289TIP3   OH224830   0.632   1.295   0.145
 8289TIP3    H124831   0.639   1.257   0.058
 8289TIP3    H224832   0.685   1.374   0.142
 8290TIP3   OH224833   2.082   1.262   4.857
 8290TIP3    H124834   2.072   1.316   4.935
 8290TIP3    H224835   2.144   1.194   4.882
 8291TIP3   OH224836   1.901   4.151   2.671
 8291TIP3    H124837   1.994   4.166   2.659
 8291TIP3    H224838   1.862   4.239   2.668
 8292TIP3   OH224839   4.086   3.341   0.358
 8292TIP3    H124840   4.151   3.410   0.344
 8292TIP3    H224841   4.135   3.270   0.399
 8293TIP3   OH224842   2.670   1.163   2.619
 8293TIP3    H124843   2.685   1.166   2.525
 8293TIP3    H224844   2.728   1.230   2.655
 8294TIP3   OH224845   4.412   3.610   0.119
 8294TIP3    H124846   4.462   3.584   0.042
 8294TIP3    H224847   4.444   3.698   0.140
 8295TIP3   OH224848   0.832   2.291   0.478
 8295TIP3    H124849   0.813   2.209   0.432
 8295TIP3    H224850   0.841   2.356   0.409
 8296TIP3   OH224851   6.595   4.111   5.088
 8296TIP3    H124852   6.641   4.039   5.131
 8296TIP3    H224853   6.587   4.083   4.997
 8297TIP3   OH224854   6.050   5.657   5.853
 8297TIP3    H124855   5.970   5.641   5.902
 8297TIP3    H224856   6.068   5.575   5.808
 8298TIP3   OH224857   6.782   0.998   2.050
 8298TIP3    H124858   6.872   0.972   2.071
 8298TIP3    H224859   6.792   1.065   1.982
 8299TIP3   OH224860   6.905   2.917   0.019
 8299TIP3    H124861   6.875   2.846  -0.038
 8299TIP3    H224862   6.957   2.974  -0.037
 8300TIP3   OH224863   3.316   5.445   3.864
 8300TIP3    H124864   3.317   5.483   3.776
 8300TIP3    H224865   3.268   5.508   3.917
 8301TIP3   OH224866   1.790   5.538   3.875
 8301TIP3    H124867   1.700   5.526   3.844
 8301TIP3    H224868   1.780   5.575   3.963
 8302TIP3   OH224869   1.864   5.310   1.646
 8302TIP3    H124870   1.918   5.232   1.660
 8302TIP3    H224871   1.867   5.324   1.551
 8303TIP3   OH224872   7.099   4.916   3.778
 8303TIP3    H124873   7.096   4.837   3.831
 8303TIP3    H224874   7.157   4.895   3.705
 8304TIP3   OH224875   0.948   4.453   4.691
 8304TIP3    H124876   0.982   4.424   4.606
 8304TIP3    H224877   1.002   4.529   4.714
 8305TIP3   OH224878   1.059   3.394   5.900
 8305TIP3    H124879   1.018   3.476   5.926
 8305TIP3    H224880   1.059   3.396   5.804
 8306TIP3   OH224881   2.506   3.455   5.391
 8306TIP3    H124882   2.464   3.370   5.400
 8306TIP3    H224883   2.445   3.516   5.432
 8307TIP3   OH224884   0.250   1.210   3.571
 8307TIP3    H124885   0.273   1.124   3.535
 8307TIP3    H224886   0.174   1.193   3.626
 8308TIP3   OH224887   3.377   0.166   1.353
 8308TIP3    H124888   3.322   0.088   1.353
 8308TIP3    H224889   3.407   0.175   1.443
 8309TIP3   OH224890   1.509   0.381   3.647
 8309TIP3    H124891   1.537   0.383   3.556
 8309TIP3    H224892   1.449   0.456   3.655
 8310TIP3   OH224893   1.949   0.621   4.599
 8310TIP3    H124894   1.985   0.650   4.682
 8310TIP3    H224895   1.935   0.701   4.549
 8311TIP3   OH224896   2.893   1.904   1.955
 8311TIP3    H124897   2.920   1.876   2.043
 8311TIP3    H224898   2.904   1.999   1.955
 8312TIP3   OH224899   2.876   4.845   1.715
 8312TIP3    H124900   2.794   4.873   1.756
 8312TIP3    H224901   2.867   4.750   1.706
 8313TIP3   OH224902   3.596   2.972   1.180
 8313TIP3    H124903   3.531   2.986   1.110
 8313TIP3    H224904   3.674   3.018   1.149
 8314TIP3   OH224905   6.566   5.108   5.518
 8314TIP3    H124906   6.618   5.040   5.562
 8314TIP3    H224907   6.591   5.103   5.426
 8315TIP3   OH224908   4.610   1.280   4.774
 8315TIP3    H124909   4.522   1.306   4.803
 8315TIP3    H224910   4.668   1.306   4.845
 8316TIP3   OH224911   5.377   0.697   2.359
 8316TIP3    H124912   5.463   0.674   2.324
 8316TIP3    H224913   5.321   0.622   2.337
 8317TIP3   OH224914   6.692   5.305   3.276
 8317TIP3    H124915   6.626   5.320   3.344
 8317TIP3    H224916   6.726   5.393   3.257
 8318TIP3   OH224917   3.713   5.732   1.698
 8318TIP3    H124918   3.635   5.786   1.710
 8318TIP3    H224919   3.731   5.696   1.785
 8319TIP3   OH224920   2.194   0.431   1.921
 8319TIP3    H124921   2.219   0.406   1.832
 8319TIP3    H224922   2.163   0.349   1.960
 8320TIP3   OH224923   0.638   0.540   3.371
 8320TIP3    H124924   0.697   0.480   3.416
 8320TIP3    H224925   0.559   0.489   3.353
 8321TIP3   OH224926   4.914   1.176   2.935
 8321TIP3    H124927   4.948   1.180   3.024
 8321TIP3    H224928   4.859   1.254   2.927
 8322TIP3   OH224929   1.292   4.425   3.494
 8322TIP3    H124930   1.262   4.501   3.443
 8322TIP3    H224931   1.274   4.350   3.438
 8323TIP3   OH224932   3.379   5.920   3.144
 8323TIP3    H124933   3.406   5.931   3.053
 8323TIP3    H224934   3.461   5.911   3.192
 8324TIP3   OH224935   3.427   2.840   4.458
 8324TIP3    H124936   3.398   2.839   4.549
 8324TIP3    H224937   3.349   2.867   4.408
 8325TIP3   OH224938   3.836   2.113   3.645
 8325TIP3    H124939   3.821   2.018   3.648
 8325TIP3    H224940   3.874   2.128   3.559
 8326TIP3   OH224941   3.093   1.170   5.707
 8326TIP3    H124942   3.007   1.157   5.746
 8326TIP3    H224943   3.152   1.114   5.759
 8327TIP3   OH224944   3.181   3.846   2.598
 8327TIP3    H124945   3.162   3.799   2.679
 8327TIP3    H224946   3.111   3.821   2.538
 8328TIP3   OH224947   7.093   0.642   3.132
 8328TIP3    H124948   7.101   0.631   3.226
 8328TIP3    H224949   7.029   0.576   3.105
 8329TIP3   OH224950   4.720   6.508   0.932
 8329TIP3    H124951   4.696   6.570   1.002
 8329TIP3    H224952   4.812   6.487   0.950
 8330TIP3   OH224953   1.235   4.556   4.415
 8330TIP3    H124954   1.301   4.507   4.463
 8330TIP3    H224955   1.284   4.601   4.346
 8331TIP3   OH224956   1.042   5.670   0.949
 8331TIP3    H124957   1.126   5.703   0.982
 8331TIP3    H224958   0.985   5.746   0.952
 8332TIP3   OH224959   2.004   5.114   3.692
 8332TIP3    H124960   1.968   5.187   3.742
 8332TIP3    H224961   1.932   5.052   3.684
 8333TIP3   OH224962   6.958   0.431   5.470
 8333TIP3    H124963   7.029   0.378   5.434
 8333TIP3    H224964   6.907   0.458   5.394
 8334TIP3   OH224965   1.993   4.275   1.471
 8334TIP3    H124966   2.075   4.303   1.511
 8334TIP3    H224967   2.016   4.199   1.418
 8335TIP3   OH224968   0.753   4.430   5.583
 8335TIP3    H124969   0.682   4.451   5.522
 8335TIP3    H224970   0.740   4.338   5.605
 8336TIP3   OH224971   4.551   6.377   3.887
 8336TIP3    H124972   4.543   6.360   3.981
 8336TIP3    H224973   4.594   6.463   3.882
 8337TIP3   OH224974   6.306   2.570   3.752
 8337TIP3    H124975   6.286   2.504   3.819
 8337TIP3    H224976   6.331   2.648   3.802
 8338TIP3   OH224977   5.771   1.442   1.862
 8338TIP3    H124978   5.689   1.488   1.878
 8338TIP3    H224979   5.767   1.365   1.919
 8339TIP3   OH224980   5.064   3.880   3.192
 8339TIP3    H124981   5.101   3.932   3.263
 8339TIP3    H224982   5.131   3.881   3.124
 8340TIP3   OH224983   2.627   3.223   0.481
 8340TIP3    H124984   2.621   3.138   0.437
 8340TIP3    H224985   2.654   3.284   0.413
 8341TIP3   OH224986   3.095   1.772   3.913
 8341TIP3    H124987   3.066   1.684   3.938
 8341TIP3    H224988   3.187   1.775   3.940
 8342TIP3   OH224989   2.273   6.745   1.161
 8342TIP3    H124990   2.284   6.821   1.104
 8342TIP3    H224991   2.252   6.674   1.101
 8343TIP3   OH224992   5.860   4.519   0.710
 8343TIP3    H124993   5.793   4.586   0.698
 8343TIP3    H224994   5.935   4.550   0.660
 8344TIP3   OH224995   6.068   5.509   0.638
 8344TIP3    H124996   6.010   5.577   0.671
 8344TIP3    H224997   6.145   5.557   0.606
 8345TIP3   OH224998   6.229   0.049   0.908
 8345TIP3    H124999   6.205   0.113   0.974
 8345TIP3    H225000   6.261   0.101   0.834
 8346TIP3   OH225001   4.225   6.369   4.651
 8346TIP3    H125002   4.156   6.400   4.710
 8346TIP3    H225003   4.209   6.275   4.642
 8347TIP3   OH225004   6.589   1.656   5.300
 8347TIP3    H125005   6.565   1.720   5.366
 8347TIP3    H225006   6.557   1.573   5.334
 8348TIP3   OH225007   3.827   4.423   2.768
 8348TIP3    H125008   3.809   4.363   2.840
 8348TIP3    H225009   3.879   4.493   2.807
 8349TIP3   OH225010   0.073   3.959   3.284
 8349TIP3    H125011   0.106   3.902   3.354
 8349TIP3    H225012   0.076   4.047   3.322
 8350TIP3   OH225013   6.499   1.374   3.069
 8350TIP3    H125014   6.583   1.329   3.079
 8350TIP3    H225015   6.445   1.340   3.140
 8351TIP3   OH225016   5.944   1.025   2.522
 8351TIP3    H125017   5.870   0.966   2.510
 8351TIP3    H225018   6.014   0.969   2.556
 8352TIP3   OH225019   0.914   4.274   0.171
 8352TIP3    H125020   0.954   4.360   0.154
 8352TIP3    H225021   0.822   4.286   0.150
 8353TIP3   OH225022   2.427   3.461   3.475
 8353TIP3    H125023   2.511   3.439   3.515
 8353TIP3    H225024   2.442   3.452   3.381
 8354TIP3   OH225025   6.080   1.082   2.797
 8354TIP3    H125026   6.116   0.997   2.821
 8354TIP3    H225027   6.148   1.122   2.742
 8355TIP3   OH225028   1.080   2.655   3.228
 8355TIP3    H125029   1.050   2.564   3.225
 8355TIP3    H225030   1.147   2.656   3.296
 8356TIP3   OH225031   2.758   2.471   4.229
 8356TIP3    H125032   2.827   2.405   4.225
 8356TIP3    H225033   2.706   2.456   4.151
 8357TIP3   OH225034   1.317   0.138   3.173
 8357TIP3    H125035   1.353   0.225   3.190
 8357TIP3    H225036   1.393   0.082   3.161
 8358TIP3   OH225037   0.253   2.709   2.180
 8358TIP3    H125038   0.167   2.709   2.224
 8358TIP3    H225039   0.255   2.792   2.132
 8359TIP3   OH225040   1.397   5.559   0.929
 8359TIP3    H125041   1.362   5.640   0.968
 8359TIP3    H225042   1.407   5.579   0.836
 8360TIP3   OH225043   3.603   0.809   4.289
 8360TIP3    H125044   3.566   0.819   4.201
 8360TIP3    H225045   3.528   0.790   4.345
 8361TIP3   OH225046   6.144   0.255   1.043
 8361TIP3    H125047   6.128   0.298   1.127
 8361TIP3    H225048   6.181   0.324   0.988
 8362TIP3   OH225049   6.465   2.014   0.089
 8362TIP3    H125050   6.395   1.979   0.034
 8362TIP3    H225051   6.507   2.081   0.035
 8363TIP3   OH225052   4.506   5.714   0.807
 8363TIP3    H125053   4.524   5.711   0.713
 8363TIP3    H225054   4.578   5.764   0.844
 8364TIP3   OH225055   0.048   2.570   0.209
 8364TIP3    H125056  -0.042   2.587   0.182
 8364TIP3    H225057   0.043   2.562   0.305
 8365TIP3   OH225058   1.005   6.751   2.111
 8365TIP3    H125059   1.062   6.809   2.060
 8365TIP3    H225060   0.925   6.744   2.059
 8366TIP3   OH225061   2.347   3.225   1.453
 8366TIP3    H125062   2.317   3.313   1.473
 8366TIP3    H225063   2.273   3.168   1.478
 8367TIP3   OH225064   0.263   5.468   3.719
 8367TIP3    H125065   0.270   5.415   3.798
 8367TIP3    H225066   0.340   5.524   3.719
 8368TIP3   OH225067   2.526   0.759   3.162
 8368TIP3    H125068   2.440   0.721   3.147
 8368TIP3    H225069   2.587   0.686   3.151
 8369TIP3   OH225070   4.697   0.556   3.646
 8369TIP3    H125071   4.776   0.607   3.668
 8369TIP3    H225072   4.728   0.491   3.582
 8370TIP3   OH225073   3.157   5.865   5.324
 8370TIP3    H125074   3.075   5.889   5.367
 8370TIP3    H225075   3.225   5.898   5.383
 8371TIP3   OH225076   3.685   5.984   0.900
 8371TIP3    H125077   3.737   5.906   0.881
 8371TIP3    H225078   3.595   5.951   0.905
 8372TIP3   OH225079   1.844   4.508   4.142
 8372TIP3    H125080   1.762   4.558   4.139
 8372TIP3    H225081   1.818   4.418   4.123
 8373TIP3   OH225082   1.149   4.033   1.709
 8373TIP3    H125083   1.072   4.005   1.659
 8373TIP3    H225084   1.151   4.128   1.699
 8374TIP3   OH225085   3.394   3.498   2.508
 8374TIP3    H125086   3.352   3.425   2.554
 8374TIP3    H225087   3.397   3.569   2.572
 8375TIP3   OH225088   2.669   4.414   0.764
 8375TIP3    H125089   2.587   4.387   0.804
 8375TIP3    H225090   2.678   4.357   0.687
 8376TIP3   OH225091   5.544   5.662   5.644
 8376TIP3    H125092   5.552   5.575   5.605
 8376TIP3    H225093   5.501   5.714   5.576
 8377TIP3   OH225094   0.191   1.830   1.820
 8377TIP3    H125095   0.152   1.915   1.840
 8377TIP3    H225096   0.257   1.817   1.888
 8378TIP3   OH225097   5.844   5.547   5.634
 8378TIP3    H125098   5.923   5.523   5.585
 8378TIP3    H225099   5.806   5.619   5.583
 8379TIP3   OH225100   1.475   5.980   3.265
 8379TIP3    H125101   1.499   5.889   3.281
 8379TIP3    H225102   1.396   5.994   3.318
 8380TIP3   OH225103   3.153   5.229   2.319
 8380TIP3    H125104   3.178   5.139   2.340
 8380TIP3    H225105   3.059   5.225   2.302
 8381TIP3   OH225106   5.931   6.171   1.762
 8381TIP3    H125107   5.893   6.149   1.677
 8381TIP3    H225108   5.992   6.242   1.743
 8382TIP3   OH225109   4.690   2.817   0.105
 8382TIP3    H125110   4.622   2.810   0.171
 8382TIP3    H225111   4.649   2.865   0.033
 8383TIP3   OH225112   2.481   1.027   0.178
 8383TIP3    H125113   2.511   1.002   0.090
 8383TIP3    H225114   2.409   1.088   0.162
 8384TIP3   OH225115   1.451   5.651   1.893
 8384TIP3    H125116   1.413   5.729   1.935
 8384TIP3    H225117   1.532   5.635   1.941
 8385TIP3   OH225118   1.254   0.926   1.708
 8385TIP3    H125119   1.280   1.001   1.761
 8385TIP3    H225120   1.238   0.961   1.621
 8386TIP3   OH225121   3.571   4.275   3.159
 8386TIP3    H125122   3.628   4.277   3.237
 8386TIP3    H225123   3.486   4.306   3.191
 8387TIP3   OH225124   0.821   3.888   1.711
 8387TIP3    H125125   0.853   3.933   1.633
 8387TIP3    H225126   0.867   3.804   1.711
 8388TIP3   OH225127   5.075   4.418   0.605
 8388TIP3    H125128   5.150   4.425   0.664
 8388TIP3    H225129   5.015   4.358   0.649
 8389TIP3   OH225130   5.476   1.328   2.070
 8389TIP3    H125131   5.384   1.345   2.054
 8389TIP3    H225132   5.510   1.409   2.108
 8390TIP3   OH225133   3.584   2.714   1.753
 8390TIP3    H125134   3.580   2.809   1.767
 8390TIP3    H225135   3.677   2.693   1.761
 8391TIP3   OH225136   5.316   3.127   0.353
 8391TIP3    H125137   5.373   3.182   0.299
 8391TIP3    H225138   5.228   3.160   0.335
 8392TIP3   OH225139   7.225   3.697   5.452
 8392TIP3    H125140   7.185   3.711   5.538
 8392TIP3    H225141   7.152   3.693   5.391
 8393TIP3   OH225142   5.029   5.063   1.972
 8393TIP3    H125143   4.998   5.117   2.044
 8393TIP3    H225144   5.084   4.997   2.013
 8394TIP3   OH225145   2.815   4.780   4.340
 8394TIP3    H125146   2.775   4.865   4.359
 8394TIP3    H225147   2.756   4.740   4.276
 8395TIP3   OH225148   3.577   0.509   4.023
 8395TIP3    H125149   3.520   0.434   4.005
 8395TIP3    H225150   3.604   0.498   4.114
 8396TIP3   OH225151   6.779   3.688   2.403
 8396TIP3    H125152   6.806   3.742   2.477
 8396TIP3    H225153   6.751   3.605   2.443
 8397TIP3   OH225154   4.429   0.052   4.690
 8397TIP3    H125155   4.401   0.009   4.771
 8397TIP3    H225156   4.377   0.010   4.622
 8398TIP3   OH225157   0.899   2.473   3.588
 8398TIP3    H125158   0.868   2.444   3.674
 8398TIP3    H225159   0.965   2.540   3.608
 8399TIP3   OH225160   1.043   1.835   1.605
 8399TIP3    H125161   1.130   1.810   1.638
 8399TIP3    H225162   1.042   1.931   1.613
 8400TIP3   OH225163   6.252   3.763   1.923
 8400TIP3    H125164   6.259   3.827   1.994
 8400TIP3    H225165   6.291   3.806   1.848
 8401TIP3   OH225166   3.306   5.302   1.817
 8401TIP3    H125167   3.230   5.249   1.844
 8401TIP3    H225168   3.272   5.361   1.750
 8402TIP3   OH225169   3.160   5.106   2.022
 8402TIP3    H125170   3.123   5.041   2.083
 8402TIP3    H225171   3.202   5.171   2.079
 8403TIP3   OH225172   3.946   2.654   1.961
 8403TIP3    H125173   3.949   2.607   1.878
 8403TIP3    H225174   3.919   2.588   2.025
 8404TIP3   OH225175   5.860   1.562   2.956
 8404TIP3    H125176   5.901   1.530   2.876
 8404TIP3    H225177   5.852   1.657   2.942
 8405TIP3   OH225178   6.601   0.383   5.493
 8405TIP3    H125179   6.586   0.365   5.586
 8405TIP3    H225180   6.514   0.400   5.457
 8406TIP3   OH225181   4.239   3.375   0.067
 8406TIP3    H125182   4.286   3.452   0.099
 8406TIP3    H225183   4.191   3.342   0.143
 8407TIP3   OH225184   7.147   2.659   5.428
 8407TIP3    H125185   7.102   2.695   5.352
 8407TIP3    H225186   7.195   2.583   5.394
 8408TIP3   OH225187   1.051   6.628   0.485
 8408TIP3    H125188   1.015   6.709   0.522
 8408TIP3    H225189   0.974   6.574   0.466
 8409TIP3   OH225190   6.174   2.491   2.517
 8409TIP3    H125191   6.125   2.457   2.592
 8409TIP3    H225192   6.257   2.443   2.519
 8410TIP3   OH225193   0.677   3.393   1.502
 8410TIP3    H125194   0.744   3.327   1.486
 8410TIP3    H225195   0.723   3.477   1.493
 8411TIP3   OH225196   3.060   3.339   1.775
 8411TIP3    H125197   3.071   3.364   1.867
 8411TIP3    H225198   3.018   3.415   1.734
 8412TIP3   OH225199   0.843   2.034   3.347
 8412TIP3    H125200   0.817   1.947   3.377
 8412TIP3    H225201   0.768   2.065   3.296
 8413TIP3   OH225202   6.059   2.828   4.743
 8413TIP3    H125203   6.005   2.849   4.819
 8413TIP3    H225204   6.005   2.854   4.668
 8414TIP3   OH225205   6.075   4.406   5.534
 8414TIP3    H125206   6.129   4.425   5.610
 8414TIP3    H225207   6.132   4.356   5.475
 8415TIP3   OH225208   0.799   0.456   5.162
 8415TIP3    H125209   0.803   0.362   5.179
 8415TIP3    H225210   0.776   0.495   5.247
 8416TIP3   OH225211   3.162   0.842   3.739
 8416TIP3    H125212   3.069   0.863   3.725
 8416TIP3    H225213   3.191   0.804   3.657
 8417TIP3   OH225214   1.940   4.972   3.018
 8417TIP3    H125215   1.851   4.977   2.984
 8417TIP3    H225216   1.980   4.898   2.972
 8418TIP3   OH225217   2.850   1.953   0.325
 8418TIP3    H125218   2.936   1.974   0.361
 8418TIP3    H225219   2.820   2.036   0.286
 8419TIP3   OH225220   4.086   0.916   2.902
 8419TIP3    H125221   4.027   0.870   2.962
 8419TIP3    H225222   4.173   0.882   2.924
 8420TIP3   OH225223   4.782   3.465   2.996
 8420TIP3    H125224   4.796   3.397   3.062
 8420TIP3    H225225   4.830   3.541   3.029
 8421TIP3   OH225226   0.261   1.424   5.026
 8421TIP3    H125227   0.166   1.430   5.019
 8421TIP3    H225228   0.278   1.432   5.120
 8422TIP3   OH225229   3.541   0.119   1.948
 8422TIP3    H125230   3.604   0.081   1.887
 8422TIP3    H225231   3.497   0.187   1.897
 8423TIP3   OH225232   4.989   1.644   2.596
 8423TIP3    H125233   5.028   1.727   2.570
 8423TIP3    H225234   5.063   1.588   2.621
 8424TIP3   OH225235   5.661   3.010   2.842
 8424TIP3    H125236   5.656   2.923   2.803
 8424TIP3    H225237   5.634   2.998   2.932
 8425TIP3   OH225238   6.142   2.071   2.738
 8425TIP3    H125239   6.197   2.149   2.743
 8425TIP3    H225240   6.161   2.023   2.818
 8426TIP3   OH225241   5.572   3.910   0.778
 8426TIP3    H125242   5.551   3.876   0.865
 8426TIP3    H225243   5.631   3.845   0.740
 8427TIP3   OH225244   6.316   2.028   1.374
 8427TIP3    H125245   6.303   1.944   1.329
 8427TIP3    H225246   6.247   2.085   1.339
 8428TIP3   OH225247   6.700   2.556   0.110
 8428TIP3    H125248   6.687   2.602   0.192
 8428TIP3    H225249   6.623   2.578   0.057
 8429TIP3   OH225250   0.373   4.467   4.310
 8429TIP3    H125251   0.344   4.535   4.370
 8429TIP3    H225252   0.317   4.392   4.330
 8430TIP3   OH225253   3.939   5.933   3.644
 8430TIP3    H125254   3.928   5.993   3.718
 8430TIP3    H225255   4.000   5.978   3.586
 8431TIP3   OH225256   6.969   2.845   4.333
 8431TIP3    H125257   6.907   2.888   4.274
 8431TIP3    H225258   6.916   2.791   4.391
 8432TIP3   OH225259   0.899   4.009   3.751
 8432TIP3    H125260   0.863   3.963   3.675
 8432TIP3    H225261   0.828   4.064   3.782
 8433TIP3   OH225262   6.879   2.682   5.889
 8433TIP3    H125263   6.895   2.692   5.795
 8433TIP3    H225264   6.866   2.588   5.902
 8434TIP3   OH225265   3.910   6.564   3.533
 8434TIP3    H125266   3.868   6.649   3.550
 8434TIP3    H225267   3.858   6.525   3.463
 8435TIP3   OH225268   1.763   5.950   5.572
 8435TIP3    H125269   1.743   6.022   5.632
 8435TIP3    H225270   1.822   5.893   5.621
 8436TIP3   OH225271   3.738   5.340   2.425
 8436TIP3    H125272   3.749   5.375   2.513
 8436TIP3    H225273   3.781   5.254   2.427
 8437TIP3   OH225274   2.727   6.260   0.834
 8437TIP3    H125275   2.683   6.324   0.778
 8437TIP3    H225276   2.819   6.288   0.834
 8438TIP3   OH225277   4.418   3.053   0.263
 8438TIP3    H125278   4.511   3.064   0.281
 8438TIP3    H225279   4.414   3.021   0.173
 8439TIP3   OH225280   1.247   6.060   5.363
 8439TIP3    H125281   1.328   6.010   5.362
 8439TIP3    H225282   1.186   6.008   5.310
 8440TIP3   OH225283   0.476   6.106   0.078
 8440TIP3    H125284   0.517   6.075   0.158
 8440TIP3    H225285   0.456   6.026   0.029
 8441TIP3   OH225286   6.621   3.761   2.728
 8441TIP3    H125287   6.565   3.702   2.678
 8441TIP3    H225288   6.583   3.763   2.816
 8442TIP3   OH225289   2.166   3.367   3.926
 8442TIP3    H125290   2.101   3.417   3.975
 8442TIP3    H225291   2.242   3.362   3.984
 8443TIP3   OH225292   4.978   1.773   5.354
 8443TIP3    H125293   5.002   1.700   5.298
 8443TIP3    H225294   5.013   1.850   5.310
 8444TIP3   OH225295   0.851   0.735   1.135
 8444TIP3    H125296   0.804   0.729   1.219
 8444TIP3    H225297   0.782   0.741   1.069
 8445TIP3   OH225298   3.633   0.235   0.887
 8445TIP3    H125299   3.667   0.147   0.873
 8445TIP3    H225300   3.595   0.232   0.975
 8446TIP3   OH225301   2.807   4.149   1.249
 8446TIP3    H125302   2.886   4.124   1.201
 8446TIP3    H225303   2.784   4.070   1.299
 8447TIP3   OH225304   4.455   0.540   0.095
 8447TIP3    H125305   4.442   0.448   0.073
 8447TIP3    H225306   4.382   0.562   0.153
 8448TIP3   OH225307   1.137   4.985   0.560
 8448TIP3    H125308   1.076   5.042   0.607
 8448TIP3    H225309   1.197   4.955   0.628
 8449TIP3   OH225310   6.505   3.634   2.523
 8449TIP3    H125311   6.467   3.636   2.435
 8449TIP3    H225312   6.504   3.541   2.547
 8450TIP3   OH225313   3.233   1.545   4.575
 8450TIP3    H125314   3.165   1.605   4.546
 8450TIP3    H225315   3.307   1.600   4.598
 8451TIP3   OH225316   5.576   1.942   2.390
 8451TIP3    H125317   5.614   1.933   2.478
 8451TIP3    H225318   5.618   1.873   2.339
 8452TIP3   OH225319   1.202   4.090   4.781
 8452TIP3    H125320   1.129   4.036   4.813
 8452TIP3    H225321   1.232   4.045   4.702
 8453TIP3   OH225322   4.221   0.771   3.260
 8453TIP3    H125323   4.296   0.743   3.312
 8453TIP3    H225324   4.169   0.825   3.319
 8454TIP3   OH225325   2.864   3.205   5.548
 8454TIP3    H125326   2.778   3.210   5.589
 8454TIP3    H225327   2.921   3.171   5.617
 8455TIP3   OH225328   1.545   0.359   0.352
 8455TIP3    H125329   1.609   0.298   0.315
 8455TIP3    H225330   1.587   0.391   0.432
 8456TIP3   OH225331   1.871   5.592   5.314
 8456TIP3    H125332   1.830   5.602   5.400
 8456TIP3    H225333   1.882   5.497   5.305
 8457TIP3   OH225334   1.578   1.120   0.268
 8457TIP3    H125335   1.489   1.084   0.271
 8457TIP3    H225336   1.629   1.060   0.322
 8458TIP3   OH225337   4.941   4.746   2.261
 8458TIP3    H125338   5.028   4.764   2.226
 8458TIP3    H225339   4.943   4.654   2.285
 8459TIP3   OH225340   4.934   4.961   0.916
 8459TIP3    H125341   4.975   5.023   0.977
 8459TIP3    H225342   4.873   5.015   0.866
 8460TIP3   OH225343   5.490   0.415   4.922
 8460TIP3    H125344   5.456   0.369   4.999
 8460TIP3    H225345   5.477   0.508   4.942
 8461TIP3   OH225346   4.768   1.107   0.093
 8461TIP3    H125347   4.797   1.190   0.131
 8461TIP3    H225348   4.724   1.133   0.011
 8462TIP3   OH225349   0.764   2.022   0.081
 8462TIP3    H125350   0.833   1.990   0.023
 8462TIP3    H225351   0.756   2.115   0.060
 8463TIP3   OH225352   6.052   3.470   1.103
 8463TIP3    H125353   6.022   3.495   1.191
 8463TIP3    H225354   6.068   3.554   1.059
 8464TIP3   OH225355   0.735   3.090   0.337
 8464TIP3    H125356   0.795   3.053   0.271
 8464TIP3    H225357   0.785   3.158   0.380
 8465TIP3   OH225358   5.753   3.184   1.937
 8465TIP3    H125359   5.802   3.148   2.011
 8465TIP3    H225360   5.800   3.264   1.914
 8466TIP3   OH225361   7.000   4.738   0.735
 8466TIP3    H125362   7.073   4.749   0.673
 8466TIP3    H225363   7.026   4.665   0.790
 8467TIP3   OH225364   1.496   4.320   4.801
 8467TIP3    H125365   1.548   4.241   4.788
 8467TIP3    H225366   1.456   4.308   4.887
 8468TIP3   OH225367   3.553   0.611   1.474
 8468TIP3    H125368   3.582   0.553   1.405
 8468TIP3    H225369   3.613   0.686   1.470
 8469TIP3   OH225370   2.492   1.797   4.768
 8469TIP3    H125371   2.462   1.861   4.833
 8469TIP3    H225372   2.414   1.778   4.716
 8470TIP3   OH225373   2.682   4.828   2.199
 8470TIP3    H125374   2.677   4.903   2.140
 8470TIP3    H225375   2.753   4.849   2.259
 8471TIP3   OH225376   5.955   5.540   4.970
 8471TIP3    H125377   5.870   5.532   4.927
 8471TIP3    H225378   5.982   5.630   4.954
 8472TIP3   OH225379   2.990   1.409   1.946
 8472TIP3    H125380   3.008   1.472   2.016
 8472TIP3    H225381   2.976   1.462   1.868
 8473TIP3   OH225382   0.978   4.253   5.027
 8473TIP3    H125383   1.011   4.176   5.073
 8473TIP3    H225384   1.050   4.282   4.971
 8474TIP3   OH225385   6.698   0.104   1.792
 8474TIP3    H125386   6.727   0.039   1.728
 8474TIP3    H225387   6.730   0.188   1.757
 8475TIP3   OH225388   4.000   2.785   4.270
 8475TIP3    H125389   3.942   2.792   4.194
 8475TIP3    H225390   4.023   2.876   4.290
 8476TIP3   OH225391   3.583   5.225   5.630
 8476TIP3    H125392   3.573   5.270   5.546
 8476TIP3    H225393   3.541   5.140   5.618
 8477TIP3   OH225394   3.035   1.965   0.990
 8477TIP3    H125395   2.988   1.993   0.912
 8477TIP3    H225396   3.124   2.000   0.979
 8478TIP3   OH225397   1.694   5.737   0.151
 8478TIP3    H125398   1.649   5.807   0.200
 8478TIP3    H225399   1.747   5.693   0.217
 8479TIP3   OH225400   3.839   3.412   4.369
 8479TIP3    H125401   3.859   3.321   4.394
 8479TIP3    H225402   3.922   3.459   4.382
 8480TIP3   OH225403   5.322   1.628   4.823
 8480TIP3    H125404   5.283   1.678   4.895
 8480TIP3    H225405   5.403   1.592   4.860
 8481TIP3   OH225406   4.113   2.828   2.718
 8481TIP3    H125407   4.022   2.840   2.692
 8481TIP3    H225408   4.134   2.738   2.694
 8482TIP3   OH225409   0.002   2.331   1.246
 8482TIP3    H125410  -0.051   2.388   1.191
 8482TIP3    H225411  -0.008   2.366   1.334
 8483TIP3   OH225412   6.067   5.860   4.632
 8483TIP3    H125413   6.090   5.946   4.596
 8483TIP3    H225414   6.100   5.798   4.567
 8484TIP3   OH225415   0.133   0.273   3.135
 8484TIP3    H125416   0.054   0.264   3.082
 8484TIP3    H225417   0.120   0.354   3.184
 8485TIP3   OH225418   6.776   5.540   2.573
 8485TIP3    H125419   6.689   5.562   2.541
 8485TIP3    H225420   6.829   5.527   2.494
 8486TIP3   OH225421   5.886   2.799   1.326
 8486TIP3    H125422   5.842   2.848   1.257
 8486TIP3    H225423   5.963   2.852   1.348
 8487TIP3   OH225424   3.549   0.856   1.954
 8487TIP3    H125425   3.623   0.818   1.907
 8487TIP3    H225426   3.506   0.912   1.890
 8488TIP3   OH225427   1.204   5.231   2.743
 8488TIP3    H125428   1.195   5.157   2.683
 8488TIP3    H225429   1.224   5.191   2.828
 8489TIP3   OH225430   1.995   0.175   3.239
 8489TIP3    H125431   1.984   0.179   3.144
 8489TIP3    H225432   1.949   0.252   3.272
 8490TIP3   OH225433   6.803   2.754   4.538
 8490TIP3    H125434   6.787   2.683   4.600
 8490TIP3    H225435   6.748   2.826   4.568
 8491TIP3   OH225436   4.348   1.147   3.148
 8491TIP3    H125437   4.326   1.236   3.175
 8491TIP3    H225438   4.379   1.157   3.058
 8492TIP3   OH225439   4.204   6.537   4.419
 8492TIP3    H125440   4.244   6.482   4.352
 8492TIP3    H225441   4.187   6.477   4.492
 8493TIP3   OH225442   1.308   2.537   1.466
 8493TIP3    H125443   1.344   2.584   1.391
 8493TIP3    H225444   1.382   2.524   1.525
 8494TIP3   OH225445   4.467   4.256   2.429
 8494TIP3    H125446   4.409   4.285   2.499
 8494TIP3    H225447   4.522   4.189   2.470
 8495TIP3   OH225448   6.196   0.282   4.369
 8495TIP3    H125449   6.136   0.351   4.340
 8495TIP3    H225450   6.275   0.294   4.315
 8496TIP3   OH225451   2.502   4.509   3.495
 8496TIP3    H125452   2.545   4.510   3.580
 8496TIP3    H225453   2.551   4.572   3.443
 8497TIP3   OH225454   5.848   0.390   2.363
 8497TIP3    H125455   5.915   0.343   2.314
 8497TIP3    H225456   5.891   0.415   2.445
 8498TIP3   OH225457   5.317   3.919   1.396
 8498TIP3    H125458   5.362   3.968   1.328
 8498TIP3    H225459   5.244   3.876   1.351
 8499TIP3   OH225460   5.578   5.574   0.602
 8499TIP3    H125461   5.541   5.510   0.662
 8499TIP3    H225462   5.627   5.635   0.658
 8500TIP3   OH225463   6.058   3.717   1.594
 8500TIP3    H125464   6.107   3.776   1.537
 8500TIP3    H225465   6.095   3.631   1.577
 8501TIP3   OH225466   0.312   2.590   0.155
 8501TIP3    H125467   0.216   2.585   0.154
 8501TIP3    H225468   0.331   2.674   0.195
 8502TIP3   OH225469   3.402   6.065   0.760
 8502TIP3    H125470   3.386   5.983   0.713
 8502TIP3    H225471   3.479   6.103   0.717
 8503TIP3   OH225472   2.138   5.010   2.516
 8503TIP3    H125473   2.208   5.054   2.565
 8503TIP3    H225474   2.112   5.074   2.450
 8504TIP3   OH225475   0.510   0.891   3.176
 8504TIP3    H125476   0.491   0.827   3.108
 8504TIP3    H225477   0.567   0.955   3.134
 8505TIP3   OH225478   0.899   3.258   5.336
 8505TIP3    H125479   0.904   3.203   5.258
 8505TIP3    H225480   0.809   3.249   5.366
 8506TIP3   OH225481   6.371   4.392   5.587
 8506TIP3    H125482   6.327   4.409   5.671
 8506TIP3    H225483   6.427   4.316   5.605
 8507TIP3   OH225484   4.703   6.495   5.724
 8507TIP3    H125485   4.632   6.499   5.661
 8507TIP3    H225486   4.758   6.422   5.693
 8508TIP3   OH225487   4.189   0.640   1.906
 8508TIP3    H125488   4.265   0.638   1.963
 8508TIP3    H225489   4.147   0.555   1.918
 8509TIP3   OH225490   0.696   0.920   5.049
 8509TIP3    H125491   0.737   0.852   4.994
 8509TIP3    H225492   0.659   0.982   4.986
 8510TIP3   OH225493   0.936   3.570   1.917
 8510TIP3    H125494   0.882   3.522   1.979
 8510TIP3    H225495   1.021   3.526   1.919
 8511TIP3   OH225496   1.305   1.247   2.516
 8511TIP3    H125497   1.302   1.342   2.508
 8511TIP3    H225498   1.367   1.230   2.587
 8512TIP3   OH225499   7.187   5.330   5.663
 8512TIP3    H125500   7.117   5.270   5.691
 8512TIP3    H225501   7.145   5.416   5.658
 8513TIP3   OH225502   1.759   2.584   0.665
 8513TIP3    H125503   1.846   2.622   0.675
 8513TIP3    H225504   1.699   2.658   0.677
 8514TIP3   OH225505   5.913   4.156   1.276
 8514TIP3    H125506   5.982   4.208   1.318
 8514TIP3    H225507   5.858   4.220   1.231
 8515TIP3   OH225508   5.380   2.024   2.129
 8515TIP3    H125509   5.466   1.995   2.097
 8515TIP3    H225510   5.325   1.946   2.127
 8516TIP3   OH225511   4.267   2.104   3.462
 8516TIP3    H125512   4.299   2.124   3.374
 8516TIP3    H225513   4.236   2.013   3.456
 8517TIP3   OH225514   5.238   6.334   0.859
 8517TIP3    H125515   5.178   6.379   0.798
 8517TIP3    H225516   5.180   6.290   0.921
 8518TIP3   OH225517   2.467   1.370   1.716
 8518TIP3    H125518   2.557   1.398   1.698
 8518TIP3    H225519   2.459   1.285   1.674
 8519TIP3   OH225520   5.092   5.373   4.117
 8519TIP3    H125521   5.029   5.416   4.059
 8519TIP3    H225522   5.078   5.414   4.202
 8520TIP3   OH225523   0.930   1.407   5.523
 8520TIP3    H125524   0.945   1.334   5.462
 8520TIP3    H225525   0.952   1.485   5.472
 8521TIP3   OH225526   1.124   0.105   2.531
 8521TIP3    H125527   1.175   0.166   2.584
 8521TIP3    H225528   1.073   0.160   2.472
 8522TIP3   OH225529   1.386   2.344   3.537
 8522TIP3    H125530   1.314   2.381   3.587
 8522TIP3    H225531   1.437   2.419   3.508
 8523TIP3   OH225532   0.367   1.146   4.256
 8523TIP3    H125533   0.350   1.060   4.293
 8523TIP3    H225534   0.378   1.203   4.332
 8524TIP3   OH225535   3.908   2.996   5.512
 8524TIP3    H125536   3.933   2.905   5.532
 8524TIP3    H225537   3.913   3.040   5.597
 8525TIP3   OH225538   1.345   2.092   3.479
 8525TIP3    H125539   1.357   2.183   3.506
 8525TIP3    H225540   1.258   2.089   3.440
 8526TIP3   OH225541   0.536   3.919   4.834
 8526TIP3    H125542   0.594   3.976   4.884
 8526TIP3    H225543   0.595   3.863   4.785
 8527TIP3   OH225544   1.663   5.520   4.359
 8527TIP3    H125545   1.626   5.451   4.304
 8527TIP3    H225546   1.719   5.571   4.300
 8528TIP3   OH225547   1.292   5.787   1.046
 8528TIP3    H125548   1.273   5.877   1.072
 8528TIP3    H225549   1.379   5.770   1.083
 8529TIP3   OH225550   0.573   5.853   3.465
 8529TIP3    H125551   0.558   5.862   3.370
 8529TIP3    H225552   0.641   5.919   3.484
 8530TIP3   OH225553   4.599   6.699   2.443
 8530TIP3    H125554   4.640   6.715   2.528
 8530TIP3    H225555   4.627   6.772   2.388
 8531TIP3   OH225556   1.262   1.111   3.482
 8531TIP3    H125557   1.353   1.141   3.487
 8531TIP3    H225558   1.210   1.191   3.474
 8532TIP3   OH225559   3.446   6.273   5.311
 8532TIP3    H125560   3.523   6.251   5.363
 8532TIP3    H225561   3.443   6.207   5.242
 8533TIP3   OH225562   3.250   2.637   5.374
 8533TIP3    H125563   3.327   2.631   5.431
 8533TIP3    H225564   3.285   2.659   5.288
 8534TIP3   OH225565   7.006   2.262   4.937
 8534TIP3    H125566   6.951   2.191   4.972
 8534TIP3    H225567   7.092   2.247   4.976
 8535TIP3   OH225568   1.023   4.055   2.966
 8535TIP3    H125569   1.047   3.965   2.987
 8535TIP3    H225570   1.050   4.066   2.875
 8536TIP3   OH225571   0.577   4.214   1.638
 8536TIP3    H125572   0.644   4.187   1.575
 8536TIP3    H225573   0.575   4.143   1.702
 8537TIP3   OH225574   5.726   4.494   3.741
 8537TIP3    H125575   5.798   4.431   3.730
 8537TIP3    H225576   5.701   4.486   3.833
 8538TIP3   OH225577   6.648   6.561   5.112
 8538TIP3    H125578   6.586   6.538   5.181
 8538TIP3    H225579   6.679   6.477   5.078
 8539TIP3   OH225580   3.897   5.005   5.077
 8539TIP3    H125581   3.924   4.918   5.046
 8539TIP3    H225582   3.967   5.032   5.136
 8540TIP3   OH225583   1.988   1.241   3.976
 8540TIP3    H125584   2.015   1.194   3.897
 8540TIP3    H225585   2.052   1.311   3.985
 8541TIP3   OH225586   3.901   1.333   4.279
 8541TIP3    H125587   3.903   1.248   4.234
 8541TIP3    H225588   3.925   1.312   4.370
 8542TIP3   OH225589   5.006   2.953   0.847
 8542TIP3    H125590   5.062   2.949   0.925
 8542TIP3    H225591   5.016   3.042   0.815
 8543TIP3   OH225592   2.220   6.329   4.031
 8543TIP3    H125593   2.293   6.281   4.072
 8543TIP3    H225594   2.226   6.417   4.068
 8544TIP3   OH225595   5.165   4.371   4.529
 8544TIP3    H125596   5.104   4.413   4.468
 8544TIP3    H225597   5.110   4.348   4.604
 8545TIP3   OH225598   6.685   0.870   1.794
 8545TIP3    H125599   6.680   0.945   1.734
 8545TIP3    H225600   6.773   0.875   1.830
 8546TIP3   OH225601   6.986   3.873   1.956
 8546TIP3    H125602   7.004   3.843   2.045
 8546TIP3    H225603   7.049   3.943   1.941
 8547TIP3   OH225604   0.527  -0.051   4.588
 8547TIP3    H125605   0.499   0.016   4.526
 8547TIP3    H225606   0.497  -0.133   4.548
 8548TIP3   OH225607   6.614   3.694   5.637
 8548TIP3    H125608   6.600   3.607   5.675
 8548TIP3    H225609   6.546   3.702   5.570
 8549TIP3   OH225610   0.845   2.192   2.346
 8549TIP3    H125611   0.885   2.268   2.388
 8549TIP3    H225612   0.790   2.153   2.414
 8550TIP3   OH225613   1.554   0.119   3.660
 8550TIP3    H125614   1.512   0.204   3.648
 8550TIP3    H225615   1.543   0.100   3.753
 8551TIP3   OH225616   2.856   5.330   0.600
 8551TIP3    H125617   2.831   5.387   0.673
 8551TIP3    H225618   2.913   5.385   0.545
 8552TIP3   OH225619   7.214   5.981   1.675
 8552TIP3    H125620   7.173   6.057   1.715
 8552TIP3    H225621   7.142   5.920   1.659
 8553TIP3   OH225622   2.024   1.502   1.449
 8553TIP3    H125623   1.932   1.513   1.471
 8553TIP3    H225624   2.066   1.583   1.477
 8554TIP3   OH225625   2.013   4.777   2.851
 8554TIP3    H125626   1.960   4.703   2.883
 8554TIP3    H225627   2.103   4.750   2.866
 8555TIP3   OH225628   2.452   5.568   4.719
 8555TIP3    H125629   2.385   5.587   4.653
 8555TIP3    H225630   2.428   5.621   4.795
 8556TIP3   OH225631   2.050   1.200   5.872
 8556TIP3    H125632   2.086   1.143   5.939
 8556TIP3    H225633   1.974   1.241   5.913
 8557TIP3   OH225634   1.344   5.686   0.673
 8557TIP3    H125635   1.394   5.736   0.609
 8557TIP3    H225636   1.289   5.751   0.718
 8558TIP3   OH225637   5.235   4.962   0.204
 8558TIP3    H125638   5.312   4.991   0.154
 8558TIP3    H225639   5.251   4.995   0.293
 8559TIP3   OH225640   0.623   0.250   4.584
 8559TIP3    H125641   0.688   0.207   4.640
 8559TIP3    H225642   0.632   0.205   4.500
 8560TIP3   OH225643   3.263   6.019   4.365
 8560TIP3    H125644   3.197   5.995   4.430
 8560TIP3    H225645   3.327   6.070   4.413
 8561TIP3   OH225646   4.952   6.387   4.073
 8561TIP3    H125647   5.046   6.381   4.057
 8561TIP3    H225648   4.917   6.429   3.994
 8562TIP3   OH225649   2.713   5.215   0.362
 8562TIP3    H125650   2.733   5.122   0.365
 8562TIP3    H225651   2.768   5.254   0.431
 8563TIP3   OH225652   3.718   4.757   0.794
 8563TIP3    H125653   3.710   4.675   0.744
 8563TIP3    H225654   3.812   4.773   0.799
 8564TIP3   OH225655   1.815   4.579   1.959
 8564TIP3    H125656   1.780   4.659   1.919
 8564TIP3    H225657   1.744   4.546   2.014
 8565TIP3   OH225658   2.661   4.327   4.858
 8565TIP3    H125659   2.660   4.371   4.773
 8565TIP3    H225660   2.659   4.234   4.837
 8566TIP3   OH225661   5.719   4.663   5.484
 8566TIP3    H125662   5.763   4.642   5.566
 8566TIP3    H225663   5.630   4.629   5.494
 8567TIP3   OH225664   6.212   0.606   1.117
 8567TIP3    H125665   6.299   0.645   1.122
 8567TIP3    H225666   6.210   0.564   1.031
 8568TIP3   OH225667   6.565   5.124   5.025
 8568TIP3    H125668   6.525   5.037   5.022
 8568TIP3    H225669   6.499   5.181   4.986
 8569TIP3   OH225670   6.805   3.720   4.587
 8569TIP3    H125671   6.769   3.636   4.560
 8569TIP3    H225672   6.857   3.700   4.665
 8570TIP3   OH225673   2.760   3.473   5.533
 8570TIP3    H125674   2.811   3.393   5.519
 8570TIP3    H225675   2.687   3.466   5.470
 8571TIP3   OH225676   2.052   5.651   0.188
 8571TIP3    H125677   2.058   5.556   0.191
 8571TIP3    H225678   1.986   5.673   0.254
 8572TIP3   OH225679   6.983   2.435   3.299
 8572TIP3    H125680   7.034   2.515   3.307
 8572TIP3    H225681   6.991   2.411   3.207
 8573TIP3   OH225682   1.898   2.161   0.913
 8573TIP3    H125683   1.910   2.143   0.820
 8573TIP3    H225684   1.807   2.192   0.920
 8574TIP3   OH225685   5.370   3.700   4.773
 8574TIP3    H125686   5.376   3.659   4.859
 8574TIP3    H225687   5.333   3.787   4.790
 8575TIP3   OH225688   3.698   1.612   3.267
 8575TIP3    H125689   3.765   1.554   3.230
 8575TIP3    H225690   3.636   1.626   3.196
 8576TIP3   OH225691   1.922   2.341   2.953
 8576TIP3    H125692   1.925   2.251   2.920
 8576TIP3    H225693   1.833   2.352   2.985
 8577TIP3   OH225694   3.538   6.706   2.084
 8577TIP3    H125695   3.464   6.718   2.143
 8577TIP3    H225696   3.508   6.640   2.021
 8578TIP3   OH225697   5.478   3.776   2.229
 8578TIP3    H125698   5.455   3.823   2.309
 8578TIP3    H225699   5.476   3.842   2.161
 8579TIP3   OH225700   3.616   3.121   1.548
 8579TIP3    H125701   3.616   3.093   1.640
 8579TIP3    H225702   3.530   3.095   1.515
 8580TIP3   OH225703   3.113   6.741   2.988
 8580TIP3    H125704   3.024   6.760   2.960
 8580TIP3    H225705   3.167   6.758   2.911
 8581TIP3   OH225706   2.105   6.411   4.741
 8581TIP3    H125707   2.124   6.340   4.802
 8581TIP3    H225708   2.163   6.482   4.769
 8582TIP3   OH225709   3.772   4.125   4.412
 8582TIP3    H125710   3.850   4.134   4.357
 8582TIP3    H225711   3.703   4.101   4.352
 8583TIP3   OH225712   6.156   1.596   4.720
 8583TIP3    H125713   6.138   1.625   4.630
 8583TIP3    H225714   6.233   1.646   4.746
 8584TIP3   OH225715   1.775   0.862   2.969
 8584TIP3    H125716   1.825   0.791   3.011
 8584TIP3    H225717   1.715   0.816   2.910
 8585TIP3   OH225718   6.296   4.577   4.665
 8585TIP3    H125719   6.248   4.604   4.744
 8585TIP3    H225720   6.347   4.501   4.694
 8586TIP3   OH225721   5.317   2.173   2.395
 8586TIP3    H125722   5.317   2.152   2.302
 8586TIP3    H225723   5.290   2.091   2.438
 8587TIP3   OH225724   3.931   3.915   2.481
 8587TIP3    H125725   3.926   3.824   2.449
 8587TIP3    H225726   3.846   3.952   2.461
 8588TIP3   OH225727   0.446   4.440   2.127
 8588TIP3    H125728   0.362   4.396   2.140
 8588TIP3    H225729   0.425   4.520   2.079
 8589TIP3   OH225730   5.394   4.032   0.608
 8589TIP3    H125731   5.306   4.009   0.635
 8589TIP3    H225732   5.449   4.011   0.684
 8590TIP3   OH225733   3.270   1.552   3.243
 8590TIP3    H125734   3.280   1.510   3.329
 8590TIP3    H225735   3.244   1.642   3.264
 8591TIP3   OH225736   5.045   4.768   4.243
 8591TIP3    H125737   5.006   4.837   4.190
 8591TIP3    H225738   5.139   4.782   4.237
 8592TIP3   OH225739   5.186   3.484   3.965
 8592TIP3    H125740   5.172   3.389   3.970
 8592TIP3    H225741   5.180   3.513   4.056
 8593TIP3   OH225742   0.105   6.151   5.438
 8593TIP3    H125743   0.103   6.234   5.390
 8593TIP3    H225744   0.034   6.159   5.502
 8594TIP3   OH225745   3.510   1.211   1.380
 8594TIP3    H125746   3.432   1.156   1.387
 8594TIP3    H225747   3.524   1.245   1.468
 8595TIP3   OH225748   2.118   5.854   2.067
 8595TIP3    H125749   2.031   5.895   2.068
 8595TIP3    H225750   2.179   5.926   2.081
 8596TIP3   OH225751   4.792   3.980   1.822
 8596TIP3    H125752   4.845   3.940   1.892
 8596TIP3    H225753   4.771   4.067   1.855
 8597TIP3   OH225754   0.681   4.268   1.186
 8597TIP3    H125755   0.710   4.357   1.206
 8597TIP3    H225756   0.692   4.259   1.091
 8598TIP3   OH225757   5.195   4.307   2.565
 8598TIP3    H125758   5.156   4.220   2.563
 8598TIP3    H225759   5.243   4.310   2.647
 8599TIP3   OH225760   4.284   4.913   3.879
 8599TIP3    H125761   4.301   4.820   3.893
 8599TIP3    H225762   4.197   4.916   3.839
 8600TIP3   OH225763   3.933   0.877   4.515
 8600TIP3    H125764   3.954   0.868   4.422
 8600TIP3    H225765   3.855   0.823   4.528
 8601TIP3   OH225766   6.485   6.244   4.188
 8601TIP3    H125767   6.561   6.298   4.166
 8601TIP3    H225768   6.478   6.251   4.283
 8602TIP3   OH225769   0.662   6.461   1.025
 8602TIP3    H125770   0.690   6.523   0.957
 8602TIP3    H225771   0.625   6.516   1.093
 8603TIP3   OH225772   3.400   6.365   2.491
 8603TIP3    H125773   3.459   6.425   2.536
 8603TIP3    H225774   3.353   6.320   2.562
 8604TIP3   OH225775   1.325   0.972   3.914
 8604TIP3    H125776   1.379   1.020   3.976
 8604TIP3    H225777   1.367   0.886   3.906
 8605TIP3   OH225778   4.712   6.730   3.068
 8605TIP3    H125779   4.643   6.678   3.027
 8605TIP3    H225780   4.764   6.666   3.116
 8606TIP3   OH225781   4.241   6.108   4.532
 8606TIP3    H125782   4.323   6.079   4.491
 8606TIP3    H225783   4.175   6.048   4.497
 8607TIP3   OH225784  -0.031   6.344   0.209
 8607TIP3    H125785   0.025   6.271   0.180
 8607TIP3    H225786  -0.071   6.377   0.129
 8608TIP3   OH225787   2.377   5.173   4.425
 8608TIP3    H125788   2.351   5.082   4.442
 8608TIP3    H225789   2.460   5.183   4.472
 8609TIP3   OH225790   6.926   5.670   4.835
 8609TIP3    H125791   7.021   5.669   4.831
 8609TIP3    H225792   6.902   5.585   4.873
 8610TIP3   OH225793   6.382   0.610   4.978
 8610TIP3    H125794   6.306   0.666   4.989
 8610TIP3    H225795   6.362   0.555   4.902
 8611TIP3   OH225796   5.549   1.268   3.261
 8611TIP3    H125797   5.537   1.175   3.241
 8611TIP3    H225798   5.591   1.304   3.182
 8612TIP3   OH225799   4.786   3.067   2.164
 8612TIP3    H125800   4.824   3.027   2.086
 8612TIP3    H225801   4.691   3.060   2.152
 8613TIP3   OH225802   1.300   2.582   5.306
 8613TIP3    H125803   1.329   2.620   5.389
 8613TIP3    H225804   1.370   2.603   5.244
 8614TIP3   OH225805   5.782   0.514   3.400
 8614TIP3    H125806   5.719   0.586   3.393
 8614TIP3    H225807   5.810   0.517   3.492
 8615TIP3   OH225808   3.732   6.691   0.084
 8615TIP3    H125809   3.641   6.708   0.061
 8615TIP3    H225810   3.728   6.620   0.148
 8616TIP3   OH225811   4.290   3.584   5.627
 8616TIP3    H125812   4.342   3.558   5.703
 8616TIP3    H225813   4.349   3.573   5.553
 8617TIP3   OH225814   0.910   3.655   3.626
 8617TIP3    H125815   0.863   3.697   3.554
 8617TIP3    H225816   0.977   3.602   3.582
 8618TIP3   OH225817   5.666   0.391   1.776
 8618TIP3    H125818   5.689   0.324   1.711
 8618TIP3    H225819   5.600   0.445   1.733
 8619TIP3   OH225820   6.505   0.974   2.063
 8619TIP3    H125821   6.601   0.973   2.070
 8619TIP3    H225822   6.485   0.913   1.993
 8620TIP3   OH225823   4.798   1.904   5.657
 8620TIP3    H125824   4.812   1.984   5.707
 8620TIP3    H225825   4.882   1.858   5.661
 8621TIP3   OH225826   3.032   3.208   3.698
 8621TIP3    H125827   3.023   3.300   3.721
 8621TIP3    H225828   3.035   3.207   3.603
 8622TIP3   OH225829   6.751   1.702   5.071
 8622TIP3    H125830   6.694   1.715   5.147
 8622TIP3    H225831   6.819   1.768   5.081
 8623TIP3   OH225832   0.970   5.177   4.244
 8623TIP3    H125833   0.945   5.200   4.334
 8623TIP3    H225834   1.023   5.098   4.254
 8624TIP3   OH225835   0.371   6.512   2.726
 8624TIP3    H125836   0.295   6.480   2.677
 8624TIP3    H225837   0.420   6.433   2.748
 8625TIP3   OH225838   4.627   5.004   0.418
 8625TIP3    H125839   4.667   5.090   0.407
 8625TIP3    H225840   4.535   5.023   0.435
 8626TIP3   OH225841   6.856   2.147   0.626
 8626TIP3    H125842   6.911   2.100   0.688
 8626TIP3    H225843   6.814   2.078   0.574
 8627TIP3   OH225844   5.354   2.733   0.846
 8627TIP3    H125845   5.380   2.811   0.796
 8627TIP3    H225846   5.262   2.720   0.825
 8628TIP3   OH225847   6.230   0.680   0.694
 8628TIP3    H125848   6.283   0.754   0.666
 8628TIP3    H225849   6.142   0.700   0.665
 8629TIP3   OH225850   1.501   2.588   3.520
 8629TIP3    H125851   1.557   2.597   3.443
 8629TIP3    H225852   1.554   2.623   3.592
 8630TIP3   OH225853   4.347   4.078   2.794
 8630TIP3    H125854   4.428   4.127   2.806
 8630TIP3    H225855   4.286   4.142   2.756
 8631TIP3   OH225856   0.043   6.754   1.248
 8631TIP3    H125857  -0.029   6.700   1.281
 8631TIP3    H225858   0.029   6.757   1.153
 8632TIP3   OH225859   2.953   5.615   1.414
 8632TIP3    H125860   3.037   5.649   1.386
 8632TIP3    H225861   2.965   5.520   1.415
 8633TIP3   OH225862   2.427   3.449   3.156
 8633TIP3    H125863   2.357   3.447   3.090
 8633TIP3    H225864   2.493   3.508   3.119
 8634TIP3   OH225865   2.678   3.966   2.969
 8634TIP3    H125866   2.639   3.988   2.884
 8634TIP3    H225867   2.622   4.010   3.033
 8635TIP3   OH225868   2.148   6.636   1.437
 8635TIP3    H125869   2.237   6.649   1.405
 8635TIP3    H225870   2.144   6.543   1.460
 8636TIP3   OH225871   0.068   2.231   4.577
 8636TIP3    H125872   0.027   2.173   4.513
 8636TIP3    H225873   0.087   2.175   4.652
 8637TIP3   OH225874   0.932   1.139   1.839
 8637TIP3    H125875   0.974   1.064   1.882
 8637TIP3    H225876   0.839   1.129   1.860
 8638TIP3   OH225877   6.357   0.873   1.412
 8638TIP3    H125878   6.263   0.859   1.396
 8638TIP3    H225879   6.396   0.868   1.325
 8639TIP3   OH225880   1.107   0.678   4.108
 8639TIP3    H125881   1.172   0.732   4.151
 8639TIP3    H225882   1.120   0.590   4.144
 8640TIP3   OH225883   0.639   4.533   4.611
 8640TIP3    H125884   0.678   4.454   4.650
 8640TIP3    H225885   0.546   4.514   4.608
 8641TIP3   OH225886   0.978   3.872   5.360
 8641TIP3    H125887   0.906   3.931   5.383
 8641TIP3    H225888   0.995   3.822   5.440
 8642TIP3   OH225889   2.791   0.202   0.665
 8642TIP3    H125890   2.865   0.234   0.615
 8642TIP3    H225891   2.814   0.219   0.757
 8643TIP3   OH225892   2.947   5.278   4.411
 8643TIP3    H125893   2.857   5.312   4.406
 8643TIP3    H225894   2.936   5.185   4.430
 8644TIP3   OH225895   2.457   3.881   4.550
 8644TIP3    H125896   2.532   3.917   4.503
 8644TIP3    H225897   2.453   3.931   4.632
 8645TIP3   OH225898   3.014   1.707   3.484
 8645TIP3    H125899   3.047   1.637   3.540
 8645TIP3    H225900   3.057   1.786   3.516
 8646TIP3   OH225901   5.602   5.892   0.385
 8646TIP3    H125902   5.596   5.957   0.315
 8646TIP3    H225903   5.622   5.943   0.464
 8647TIP3   OH225904   4.750   4.035   0.867
 8647TIP3    H125905   4.795   4.118   0.853
 8647TIP3    H225906   4.679   4.036   0.803
 8648TIP3   OH225907   3.018   4.465   0.514
 8648TIP3    H125908   3.067   4.536   0.556
 8648TIP3    H225909   3.050   4.385   0.556
 8649TIP3   OH225910   0.566   4.015   0.979
 8649TIP3    H125911   0.626   4.043   0.910
 8649TIP3    H225912   0.506   4.089   0.990
 8650TIP3   OH225913   2.371   6.497   0.216
 8650TIP3    H125914   2.371   6.402   0.229
 8650TIP3    H225915   2.372   6.507   0.121
 8651TIP3   OH225916   4.753   4.923   4.546
 8651TIP3    H125917   4.716   5.005   4.576
 8651TIP3    H225918   4.753   4.866   4.623
 8652TIP3   OH225919   4.628   2.503   4.650
 8652TIP3    H125920   4.539   2.474   4.671
 8652TIP3    H225921   4.631   2.503   4.554
 8653TIP3   OH225922   1.534   5.272   0.424
 8653TIP3    H125923   1.610   5.303   0.374
 8653TIP3    H225924   1.485   5.218   0.362
 8654TIP3   OH225925   1.732   3.727   3.087
 8654TIP3    H125926   1.723   3.634   3.109
 8654TIP3    H225927   1.704   3.732   2.995
 8655TIP3   OH225928   2.066   6.173   5.306
 8655TIP3    H125929   2.082   6.111   5.235
 8655TIP3    H225930   2.120   6.141   5.379
 8656TIP3   OH225931   1.253   1.647   5.256
 8656TIP3    H125932   1.248   1.719   5.193
 8656TIP3    H225933   1.335   1.662   5.302
 8657TIP3   OH225934   0.149   6.423   5.539
 8657TIP3    H125935   0.239   6.457   5.541
 8657TIP3    H225936   0.123   6.430   5.447
 8658TIP3   OH225937   0.895   0.136   4.817
 8658TIP3    H125938   0.854   0.113   4.900
 8658TIP3    H225939   0.936   0.054   4.787
 8659TIP3   OH225940   7.016   0.145   1.315
 8659TIP3    H125941   6.995   0.170   1.405
 8659TIP3    H225942   6.943   0.090   1.288
 8660TIP3   OH225943   2.273   4.974   3.197
 8660TIP3    H125944   2.191   5.019   3.217
 8660TIP3    H225945   2.288   4.917   3.272
 8661TIP3   OH225946   5.531   3.374   2.644
 8661TIP3    H125947   5.604   3.314   2.628
 8661TIP3    H225948   5.481   3.333   2.714
 8662TIP3   OH225949   2.391   5.642   0.971
 8662TIP3    H125950   2.366   5.694   0.894
 8662TIP3    H225951   2.413   5.708   1.038
 8663TIP3   OH225952   5.635   0.297   2.231
 8663TIP3    H125953   5.678   0.279   2.148
 8663TIP3    H225954   5.698   0.352   2.279
 8664TIP3   OH225955   3.229   5.667   1.689
 8664TIP3    H125956   3.287   5.690   1.762
 8664TIP3    H225957   3.287   5.628   1.624
 8665TIP3   OH225958   4.793   1.741   2.139
 8665TIP3    H125959   4.788   1.831   2.108
 8665TIP3    H225960   4.813   1.690   2.061
 8666TIP3   OH225961   4.317   1.192   1.554
 8666TIP3    H125962   4.293   1.106   1.519
 8666TIP3    H225963   4.292   1.188   1.646
 8667TIP3   OH225964   5.054   0.696   4.312
 8667TIP3    H125965   5.039   0.767   4.375
 8667TIP3    H225966   5.002   0.720   4.236
 8668TIP3   OH225967   4.290   2.024   1.114
 8668TIP3    H125968   4.246   1.993   1.193
 8668TIP3    H225969   4.366   2.072   1.146
 8669TIP3   OH225970   6.226   6.327   4.065
 8669TIP3    H125971   6.211   6.330   4.159
 8669TIP3    H225972   6.317   6.353   4.054
 8670TIP3   OH225973   1.560   4.775   3.971
 8670TIP3    H125974   1.562   4.737   4.058
 8670TIP3    H225975   1.526   4.864   3.984
 8671TIP3   OH225976   6.684   5.951   2.785
 8671TIP3    H125977   6.733   5.949   2.702
 8671TIP3    H225978   6.596   5.923   2.762
 8672TIP3   OH225979   1.522   2.151   5.580
 8672TIP3    H125980   1.448   2.194   5.538
 8672TIP3    H225981   1.581   2.129   5.508
 8673TIP3   OH225982   5.851   5.069   3.612
 8673TIP3    H125983   5.913   4.999   3.595
 8673TIP3    H225984   5.765   5.028   3.603
 8674TIP3   OH225985   4.741   2.309   0.583
 8674TIP3    H125986   4.770   2.273   0.500
 8674TIP3    H225987   4.804   2.377   0.604
 8675TIP3   OH225988   0.724   1.124   4.524
 8675TIP3    H125989   0.782   1.141   4.450
 8675TIP3    H225990   0.636   1.134   4.489
 8676TIP3   OH225991   1.100   2.514   0.462
 8676TIP3    H125992   1.060   2.600   0.448
 8676TIP3    H225993   1.047   2.454   0.410
 8677TIP3   OH225994   7.120   0.911   1.334
 8677TIP3    H125995   7.029   0.913   1.363
 8677TIP3    H225996   7.161   0.984   1.380
 8678TIP3   OH225997   1.590   6.327   3.747
 8678TIP3    H125998   1.615   6.254   3.804
 8678TIP3    H225999   1.541   6.286   3.675
 8679TIP3   OH226000   7.003   0.323   5.927
 8679TIP3    H126001   6.963   0.404   5.896
 8679TIP3    H226002   6.990   0.261   5.856
 8680TIP3   OH226003   4.724   1.139   0.795
 8680TIP3    H126004   4.664   1.213   0.799
 8680TIP3    H226005   4.682   1.071   0.848
 8681TIP3   OH226006   6.125   4.043   1.704
 8681TIP3    H126007   6.164   4.130   1.702
 8681TIP3    H226008   6.199   3.984   1.723
 8682TIP3   OH226009   6.681   5.069   2.274
 8682TIP3    H126010   6.736   5.049   2.198
 8682TIP3    H226011   6.632   5.147   2.249
 8683TIP3   OH226012   0.175   4.600   5.729
 8683TIP3    H126013   0.081   4.598   5.710
 8683TIP3    H226014   0.187   4.529   5.793
 8684TIP3   OH226015   2.334   3.338   1.987
 8684TIP3    H126016   2.408   3.379   1.943
 8684TIP3    H226017   2.285   3.295   1.917
 8685TIP3   OH226018   6.456   6.314   4.487
 8685TIP3    H126019   6.408   6.276   4.560
 8685TIP3    H226020   6.389   6.348   4.429
 8686TIP3   OH226021   5.844   0.640   5.409
 8686TIP3    H126022   5.843   0.589   5.328
 8686TIP3    H226023   5.901   0.591   5.468
 8687TIP3   OH226024   3.696   3.801   1.538
 8687TIP3    H126025   3.754   3.730   1.564
 8687TIP3    H226026   3.720   3.875   1.594
 8688TIP3   OH226027   0.593   6.518   2.448
 8688TIP3    H126028   0.639   6.480   2.523
 8688TIP3    H226029   0.656   6.513   2.376
 8689TIP3   OH226030   5.044   1.398   1.276
 8689TIP3    H126031   5.024   1.393   1.183
 8689TIP3    H226032   5.041   1.307   1.307
 8690TIP3   OH226033   1.067   0.117   3.529
 8690TIP3    H126034   1.124   0.083   3.460
 8690TIP3    H226035   1.014   0.183   3.485
 8691TIP3   OH226036   2.412   2.006   1.047
 8691TIP3    H126037   2.478   2.070   1.021
 8691TIP3    H226038   2.379   1.971   0.964
 8692TIP3   OH226039   3.950   4.745   1.422
 8692TIP3    H126040   4.030   4.695   1.434
 8692TIP3    H226041   3.909   4.746   1.508
 8693TIP3   OH226042   2.765   4.808   1.156
 8693TIP3    H126043   2.784   4.771   1.242
 8693TIP3    H226044   2.690   4.757   1.124
 8694TIP3   OH226045   4.368   1.914   0.064
 8694TIP3    H126046   4.329   1.827   0.057
 8694TIP3    H226047   4.294   1.972   0.082
 8695TIP3   OH226048   0.618   5.865   5.562
 8695TIP3    H126049   0.522   5.859   5.558
 8695TIP3    H226050   0.638   5.855   5.655
 8696TIP3   OH226051   4.695   2.180   1.811
 8696TIP3    H126052   4.707   2.268   1.775
 8696TIP3    H226053   4.610   2.152   1.778
 8697TIP3   OH226054   7.091   1.397   5.312
 8697TIP3    H126055   7.018   1.356   5.267
 8697TIP3    H226056   7.087   1.363   5.401
 8698TIP3   OH226057   6.745   3.260   0.251
 8698TIP3    H126058   6.750   3.354   0.268
 8698TIP3    H226059   6.830   3.226   0.279
 8699TIP3   OH226060   5.897   4.807   3.391
 8699TIP3    H126061   5.970   4.842   3.442
 8699TIP3    H226062   5.909   4.712   3.393
 8700TIP3   OH226063   3.153   6.518   3.963
 8700TIP3    H126064   3.156   6.439   4.017
 8700TIP3    H226065   3.125   6.488   3.877
 8701TIP3   OH226066   1.823   5.240   0.538
 8701TIP3    H126067   1.910   5.206   0.517
 8701TIP3    H226068   1.790   5.274   0.454
 8702TIP3   OH226069   4.257   2.405   5.135
 8702TIP3    H126070   4.287   2.337   5.074
 8702TIP3    H226071   4.293   2.486   5.099
 8703TIP3   OH226072   5.786   5.157   1.552
 8703TIP3    H126073   5.691   5.147   1.543
 8703TIP3    H226074   5.798   5.248   1.578
 8704TIP3   OH226075   5.219   6.033   3.210
 8704TIP3    H126076   5.173   5.985   3.280
 8704TIP3    H226077   5.242   5.965   3.146
 8705TIP3   OH226078   0.788   2.428   2.883
 8705TIP3    H126079   0.821   2.338   2.888
 8705TIP3    H226080   0.776   2.455   2.974
 8706TIP3   OH226081   6.390   2.651   3.274
 8706TIP3    H126082   6.408   2.671   3.366
 8706TIP3    H226083   6.407   2.733   3.228
 8707TIP3   OH226084   5.380   5.653   0.427
 8707TIP3    H126085   5.436   5.617   0.496
 8707TIP3    H226086   5.402   5.746   0.424
 8708TIP3   OH226087   6.932   5.485   2.367
 8708TIP3    H126088   6.918   5.553   2.301
 8708TIP3    H226089   7.025   5.465   2.362
 8709TIP3   OH226090   2.783   4.673   3.603
 8709TIP3    H126091   2.721   4.642   3.669
 8709TIP3    H226092   2.851   4.607   3.601
 8710TIP3   OH226093   2.052   5.151   0.443
 8710TIP3    H126094   2.105   5.076   0.472
 8710TIP3    H226095   2.031   5.132   0.352
 8711TIP3   OH226096   1.638   4.632   2.878
 8711TIP3    H126097   1.659   4.691   2.806
 8711TIP3    H226098   1.552   4.596   2.856
 8712TIP3   OH226099   2.252   3.132   1.188
 8712TIP3    H126100   2.222   3.100   1.274
 8712TIP3    H226101   2.171   3.156   1.142
 8713TIP3   OH226102   6.324   5.180   5.654
 8713TIP3    H126103   6.406   5.149   5.614
 8713TIP3    H226104   6.353   5.242   5.721
 8714TIP3   OH226105   1.509   2.922   1.192
 8714TIP3    H126106   1.436   2.861   1.199
 8714TIP3    H226107   1.482   2.998   1.244
 8715TIP3   OH226108   0.891   3.473   3.846
 8715TIP3    H126109   0.901   3.521   3.928
 8715TIP3    H226110   0.910   3.539   3.778
 8716TIP3   OH226111   2.991   2.685   3.624
 8716TIP3    H126112   2.981   2.768   3.671
 8716TIP3    H226113   2.917   2.682   3.564
 8717TIP3   OH226114   1.423   6.605   3.581
 8717TIP3    H126115   1.349   6.656   3.547
 8717TIP3    H226116   1.481   6.669   3.621
 8718TIP3   OH226117   6.727   1.288   1.071
 8718TIP3    H126118   6.731   1.374   1.029
 8718TIP3    H226119   6.653   1.295   1.132
 8719TIP3   OH226120   5.387   2.857   2.683
 8719TIP3    H126121   5.476   2.823   2.674
 8719TIP3    H226122   5.336   2.808   2.619
 8720TIP3   OH226123   4.210   5.845   1.534
 8720TIP3    H126124   4.246   5.878   1.452
 8720TIP3    H226125   4.263   5.767   1.554
 8721TIP3   OH226126   2.046   0.442   0.316
 8721TIP3    H126127   2.014   0.371   0.371
 8721TIP3    H226128   2.138   0.421   0.300
 8722TIP3   OH226129   2.414   0.013   3.396
 8722TIP3    H126130   2.353   0.016   3.470
 8722TIP3    H226131   2.368  -0.038   3.330
 8723TIP3   OH226132   3.186   5.877   2.587
 8723TIP3    H126133   3.148   5.936   2.652
 8723TIP3    H226134   3.203   5.933   2.511
 8724TIP3   OH226135   2.157   4.090   3.557
 8724TIP3    H126136   2.121   4.121   3.640
 8724TIP3    H226137   2.149   3.995   3.562
 8725TIP3   OH226138   0.350   2.664   5.437
 8725TIP3    H126139   0.318   2.615   5.512
 8725TIP3    H226140   0.338   2.756   5.461
 8726TIP3   OH226141   2.103   6.105   5.723
 8726TIP3    H126142   2.182   6.127   5.673
 8726TIP3    H226143   2.121   6.018   5.759
 8727TIP3   OH226144   3.135   5.693   0.444
 8727TIP3    H126145   3.125   5.602   0.413
 8727TIP3    H226146   3.048   5.731   0.436
 8728TIP3   OH226147   5.285   5.414   3.921
 8728TIP3    H126148   5.272   5.415   4.016
 8728TIP3    H226149   5.208   5.368   3.887
 8729TIP3   OH226150   1.344   4.874   5.417
 8729TIP3    H126151   1.337   4.806   5.351
 8729TIP3    H226152   1.279   4.850   5.483
 8730TIP3   OH226153   4.029   1.708   3.402
 8730TIP3    H126154   3.969   1.676   3.335
 8730TIP3    H226155   3.989   1.682   3.485
 8731TIP3   OH226156   2.831   2.128   4.315
 8731TIP3    H126157   2.850   2.046   4.361
 8731TIP3    H226158   2.872   2.196   4.369
 8732TIP3   OH226159   2.973   5.180   0.835
 8732TIP3    H126160   2.910   5.150   0.769
 8732TIP3    H226161   2.923   5.243   0.888
 8733TIP3   OH226162   2.865   0.340   4.580
 8733TIP3    H126163   2.872   0.277   4.652
 8733TIP3    H226164   2.845   0.423   4.621
 8734TIP3   OH226165   5.316   3.396   3.352
 8734TIP3    H126166   5.320   3.373   3.445
 8734TIP3    H226167   5.223   3.409   3.334
 8735TIP3   OH226168   1.809   0.636   5.147
 8735TIP3    H126169   1.793   0.702   5.079
 8735TIP3    H226170   1.887   0.668   5.193
 8736TIP3   OH226171   5.015   0.696   4.712
 8736TIP3    H126172   5.014   0.637   4.787
 8736TIP3    H226173   4.928   0.687   4.673
 8737TIP3   OH226174   1.318   4.619   3.121
 8737TIP3    H126175   1.353   4.532   3.101
 8737TIP3    H226176   1.356   4.641   3.206
 8738TIP3   OH226177   5.404  -0.050   4.051
 8738TIP3    H126178   5.462  -0.126   4.058
 8738TIP3    H226179   5.462   0.025   4.059
 8739TIP3   OH226180   3.427   2.223   1.107
 8739TIP3    H126181   3.355   2.226   1.170
 8739TIP3    H226182   3.408   2.295   1.046
 8740TIP3   OH226183   6.112   2.321   3.010
 8740TIP3    H126184   6.123   2.392   3.074
 8740TIP3    H226185   6.201   2.301   2.980
 8741TIP3   OH226186   1.786   4.855   3.774
 8741TIP3    H126187   1.729   4.794   3.820
 8741TIP3    H226188   1.756   4.853   3.683
 8742TIP3   OH226189   6.317   1.602   4.242
 8742TIP3    H126190   6.386   1.536   4.237
 8742TIP3    H226191   6.249   1.570   4.182
 8743TIP3   OH226192   5.023   1.515   4.605
 8743TIP3    H126193   4.990   1.431   4.573
 8743TIP3    H226194   5.118   1.503   4.609
 8744TIP3   OH226195   2.055   3.639   4.913
 8744TIP3    H126196   2.047   3.572   4.982
 8744TIP3    H226197   2.148   3.660   4.911
 8745TIP3   OH226198   5.093   4.611   2.739
 8745TIP3    H126199   5.166   4.608   2.801
 8745TIP3    H226200   5.046   4.530   2.754
 8746TIP3   OH226201   6.404   5.473   3.775
 8746TIP3    H126202   6.415   5.534   3.848
 8746TIP3    H226203   6.476   5.411   3.785
 8747TIP3   OH226204   6.636   2.086   3.313
 8747TIP3    H126205   6.675   2.096   3.400
 8747TIP3    H226206   6.700   2.035   3.263
 8748TIP3   OH226207   6.344   4.902   5.817
 8748TIP3    H126208   6.335   4.881   5.724
 8748TIP3    H226209   6.422   4.853   5.845
 8749TIP3   OH226210   0.094   0.637   1.553
 8749TIP3    H126211   0.039   0.654   1.477
 8749TIP3    H226212   0.158   0.572   1.522
 8750TIP3   OH226213   5.064   2.678   2.975
 8750TIP3    H126214   5.084   2.771   2.977
 8750TIP3    H226215   4.984   2.669   3.027
 8751TIP3   OH226216   1.572   0.005   2.985
 8751TIP3    H126217   1.549   0.052   2.904
 8751TIP3    H226218   1.524  -0.077   2.980
 8752TIP3   OH226219   5.421   1.994   3.808
 8752TIP3    H126220   5.485   2.040   3.862
 8752TIP3    H226221   5.470   1.923   3.766
 8753TIP3   OH226222   4.596   0.869   1.554
 8753TIP3    H126223   4.680   0.853   1.511
 8753TIP3    H226224   4.619   0.918   1.633
 8754TIP3   OH226225   1.983   6.521   5.642
 8754TIP3    H126226   2.044   6.520   5.716
 8754TIP3    H226227   1.979   6.430   5.613
 8755TIP3   OH226228   2.677   2.754   2.058
 8755TIP3    H126229   2.592   2.720   2.085
 8755TIP3    H226230   2.657   2.827   2.001
 8756TIP3   OH226231   2.089   3.936   3.286
 8756TIP3    H126232   2.110   3.861   3.341
 8756TIP3    H226233   1.996   3.950   3.299
 8757TIP3   OH226234   2.099   2.126   5.770
 8757TIP3    H126235   2.121   2.063   5.701
 8757TIP3    H226236   2.003   2.123   5.775
 8758TIP3   OH226237   0.125   1.924   0.175
 8758TIP3    H126238   0.169   1.996   0.130
 8758TIP3    H226239   0.158   1.845   0.131
 8759TIP3   OH226240   5.698   5.969   5.675
 8759TIP3    H126241   5.612   6.007   5.695
 8759TIP3    H226242   5.730   5.937   5.759
 8760TIP3   OH226243   4.593   5.778   2.926
 8760TIP3    H126244   4.524   5.751   2.865
 8760TIP3    H226245   4.675   5.753   2.883
 8761TIP3   OH226246   2.334   0.611   4.925
 8761TIP3    H126247   2.420   0.580   4.954
 8761TIP3    H226248   2.311   0.555   4.851
 8762TIP3   OH226249   0.759   0.223   2.102
 8762TIP3    H126250   0.813   0.146   2.120
 8762TIP3    H226251   0.816   0.297   2.122
 8763TIP3   OH226252   4.796   0.249   5.450
 8763TIP3    H126253   4.791   0.301   5.530
 8763TIP3    H226254   4.720   0.191   5.454
 8764TIP3   OH226255   3.862   3.144   4.438
 8764TIP3    H126256   3.924   3.076   4.465
 8764TIP3    H226257   3.777   3.100   4.439
 8765TIP3   OH226258   1.197   1.939   4.536
 8765TIP3    H126259   1.135   1.918   4.606
 8765TIP3    H226260   1.208   2.034   4.541
 8766TIP3   OH226261   5.148   0.812   5.191
 8766TIP3    H126262   5.232   0.853   5.214
 8766TIP3    H226263   5.156   0.723   5.225
 8767TIP3   OH226264   4.327   0.410   0.790
 8767TIP3    H126265   4.395   0.347   0.763
 8767TIP3    H226266   4.341   0.422   0.884
 8768TIP3   OH226267   0.308   4.162   5.382
 8768TIP3    H126268   0.271   4.230   5.439
 8768TIP3    H226269   0.237   4.099   5.371
 8769TIP3   OH226270   5.443   4.049   4.782
 8769TIP3    H126271   5.406   3.996   4.711
 8769TIP3    H226272   5.530   4.012   4.797
 8770TIP3   OH226273   3.984   4.623   2.854
 8770TIP3    H126274   4.054   4.651   2.795
 8770TIP3    H226275   3.958   4.702   2.900
 8771TIP3   OH226276   6.802   0.820   3.854
 8771TIP3    H126277   6.898   0.817   3.855
 8771TIP3    H226278   6.779   0.870   3.932
 8772TIP3   OH226279   3.653   0.303   3.074
 8772TIP3    H126280   3.684   0.361   3.004
 8772TIP3    H226281   3.699   0.220   3.059
 8773TIP3   OH226282   0.278   6.675   5.261
 8773TIP3    H126283   0.305   6.679   5.352
 8773TIP3    H226284   0.339   6.612   5.221
 8774TIP3   OH226285   3.079   4.720   2.915
 8774TIP3    H126286   3.146   4.781   2.945
 8774TIP3    H226287   3.013   4.776   2.873
 8775TIP3   OH226288   6.611   4.430   0.431
 8775TIP3    H126289   6.541   4.366   0.439
 8775TIP3    H226290   6.594   4.474   0.347
 8776TIP3   OH226291   2.466   2.291   1.554
 8776TIP3    H126292   2.461   2.195   1.550
 8776TIP3    H226293   2.496   2.309   1.643
 8777TIP3   OH226294   0.720   4.249   3.927
 8777TIP3    H126295   0.659   4.190   3.884
 8777TIP3    H226296   0.769   4.194   3.987
 8778TIP3   OH226297   3.169   4.318   2.853
 8778TIP3    H126298   3.199   4.284   2.768
 8778TIP3    H226299   3.075   4.300   2.854
 8779TIP3   OH226300   3.312   1.760   3.035
 8779TIP3    H126301   3.289   1.795   3.121
 8779TIP3    H226302   3.404   1.736   3.043
 8780TIP3   OH226303   4.815   1.219   1.514
 8780TIP3    H126304   4.870   1.190   1.441
 8780TIP3    H226305   4.782   1.138   1.553
 8781TIP3   OH226306   3.165   4.455   0.925
 8781TIP3    H126307   3.117   4.534   0.948
 8781TIP3    H226308   3.103   4.384   0.941
 8782TIP3   OH226309   1.707   5.594   3.148
 8782TIP3    H126310   1.726   5.520   3.206
 8782TIP3    H226311   1.639   5.562   3.089
 8783TIP3   OH226312   6.094   4.103   3.759
 8783TIP3    H126313   6.100   4.012   3.729
 8783TIP3    H226314   6.028   4.101   3.828
 8784TIP3   OH226315   0.360   2.449   4.647
 8784TIP3    H126316   0.287   2.463   4.588
 8784TIP3    H226317   0.430   2.504   4.612
 8785TIP3   OH226318   0.186   0.140   4.213
 8785TIP3    H126319   0.233   0.186   4.144
 8785TIP3    H226320   0.253   0.088   4.258
 8786TIP3   OH226321   0.196   6.463   4.915
 8786TIP3    H126322   0.188   6.411   4.834
 8786TIP3    H226323   0.235   6.403   4.978
 8787TIP3   OH226324   2.583   6.495   0.728
 8787TIP3    H126325   2.590   6.588   0.745
 8787TIP3    H226326   2.537   6.489   0.644
 8788TIP3   OH226327   0.261   2.263   5.167
 8788TIP3    H126328   0.271   2.305   5.082
 8788TIP3    H226329   0.340   2.286   5.215
 8789TIP3   OH226330   3.502   5.946   1.228
 8789TIP3    H126331   3.431   5.994   1.187
 8789TIP3    H226332   3.541   5.895   1.157
 8790TIP3   OH226333   0.095   0.538   4.043
 8790TIP3    H126334   0.172   0.482   4.055
 8790TIP3    H226335   0.108   0.610   4.105
 8791TIP3   OH226336   2.822   2.762   3.009
 8791TIP3    H126337   2.841   2.669   2.992
 8791TIP3    H226338   2.897   2.793   3.060
 8792TIP3   OH226339   0.138   2.492   4.483
 8792TIP3    H126340   0.076   2.506   4.410
 8792TIP3    H226341   0.115   2.406   4.517
 8793TIP3   OH226342   6.612   1.572   4.251
 8793TIP3    H126343   6.628   1.637   4.319
 8793TIP3    H226344   6.634   1.617   4.169
 8794TIP3   OH226345   6.740   3.445   5.173
 8794TIP3    H126346   6.705   3.413   5.256
 8794TIP3    H226347   6.702   3.387   5.107
 8795TIP3   OH226348   1.784   1.562   4.220
 8795TIP3    H126349   1.868   1.608   4.223
 8795TIP3    H226350   1.745   1.588   4.137
 8796TIP3   OH226351   5.320   5.426   2.834
 8796TIP3    H126352   5.401   5.374   2.830
 8796TIP3    H226353   5.337   5.501   2.777
 8797TIP3   OH226354   3.780   3.951   3.048
 8797TIP3    H126355   3.690   3.933   3.022
 8797TIP3    H226356   3.774   3.977   3.140
 8798TIP3   OH226357   5.451   3.298   0.179
 8798TIP3    H126358   5.453   3.394   0.174
 8798TIP3    H226359   5.543   3.273   0.188
 8799TIP3   OH226360   1.027   2.437   1.569
 8799TIP3    H126361   1.118   2.455   1.543
 8799TIP3    H226362   0.974   2.468   1.496
 8800TIP3   OH226363   1.543   6.606   1.764
 8800TIP3    H126364   1.590   6.535   1.807
 8800TIP3    H226365   1.567   6.599   1.672
 8801TIP3   OH226366   6.170   4.368   3.044
 8801TIP3    H126367   6.083   4.388   3.078
 8801TIP3    H226368   6.212   4.318   3.114
 8802TIP3   OH226369   1.404   6.458   3.228
 8802TIP3    H126370   1.363   6.426   3.308
 8802TIP3    H226371   1.472   6.519   3.258
 8803TIP3   OH226372   0.598   0.258   5.402
 8803TIP3    H126373   0.587   0.348   5.371
 8803TIP3    H226374   0.554   0.256   5.487
 8804TIP3   OH226375   2.352   4.137   1.196
 8804TIP3    H126376   2.429   4.173   1.241
 8804TIP3    H226377   2.388   4.071   1.136
 8805TIP3   OH226378   1.967   6.594   2.783
 8805TIP3    H126379   2.053   6.609   2.823
 8805TIP3    H226380   1.934   6.683   2.765
 8806TIP3   OH226381   3.236   6.240   2.671
 8806TIP3    H126382   3.262   6.294   2.746
 8806TIP3    H226383   3.191   6.165   2.710
 8807TIP3   OH226384   0.967   3.665   1.651
 8807TIP3    H126385   1.061   3.675   1.639
 8807TIP3    H226386   0.959   3.600   1.721
 8808TIP3   OH226387   3.279   1.860   3.278
 8808TIP3    H126388   3.374   1.866   3.291
 8808TIP3    H226389   3.243   1.932   3.330
 8809TIP3   OH226390   1.611   2.998   5.410
 8809TIP3    H126391   1.613   2.904   5.391
 8809TIP3    H226392   1.654   3.038   5.335
 8810TIP3   OH226393   0.329   6.033   5.094
 8810TIP3    H126394   0.421   6.029   5.123
 8810TIP3    H226395   0.294   5.947   5.118
 8811TIP3   OH226396   4.858   1.456   2.396
 8811TIP3    H126397   4.917   1.387   2.425
 8811TIP3    H226398   4.881   1.532   2.449
 8812TIP3   OH226399   4.069   3.288   3.971
 8812TIP3    H126400   4.141   3.281   3.908
 8812TIP3    H226401   4.087   3.369   4.019
 8813TIP3   OH226402   1.086   0.294   0.454
 8813TIP3    H126403   1.032   0.216   0.446
 8813TIP3    H226404   1.107   0.299   0.547
 8814TIP3   OH226405   5.464   2.355   3.785
 8814TIP3    H126406   5.386   2.315   3.746
 8814TIP3    H226407   5.430   2.429   3.835
 8815TIP3   OH226408   1.996   3.600   0.599
 8815TIP3    H126409   1.905   3.569   0.602
 8815TIP3    H226410   2.017   3.622   0.690
 8816TIP3   OH226411   2.376   0.683   2.774
 8816TIP3    H126412   2.394   0.625   2.700
 8816TIP3    H226413   2.382   0.626   2.851
 8817TIP3   OH226414   5.617   0.118   0.732
 8817TIP3    H126415   5.609   0.030   0.694
 8817TIP3    H226416   5.600   0.177   0.659
 8818TIP3   OH226417   6.326   4.017   2.475
 8818TIP3    H126418   6.412   3.992   2.444
 8818TIP3    H226419   6.336   4.108   2.504
 8819TIP3   OH226420   5.212   4.801   1.895
 8819TIP3    H126421   5.138   4.744   1.875
 8819TIP3    H226422   5.223   4.795   1.990
 8820TIP3   OH226423   0.986   6.080   4.528
 8820TIP3    H126424   0.930   6.083   4.450
 8820TIP3    H226425   0.935   6.124   4.596
 8821TIP3   OH226426   1.621   1.218   3.803
 8821TIP3    H126427   1.668   1.135   3.790
 8821TIP3    H226428   1.658   1.254   3.884
 8822TIP3   OH226429   3.061   6.619   2.286
 8822TIP3    H126430   3.110   6.604   2.367
 8822TIP3    H226431   3.046   6.713   2.284
 8823TIP3   OH226432   2.616   3.591   2.204
 8823TIP3    H126433   2.665   3.663   2.165
 8823TIP3    H226434   2.606   3.528   2.132
 8824TIP3   OH226435   2.653   5.352   4.751
 8824TIP3    H126436   2.610   5.319   4.830
 8824TIP3    H226437   2.600   5.428   4.725
 8825TIP3   OH226438   0.590   5.619   4.519
 8825TIP3    H126439   0.611   5.658   4.434
 8825TIP3    H226440   0.513   5.565   4.503
 8826TIP3   OH226441   4.986   6.409   0.791
 8826TIP3    H126442   5.020   6.467   0.722
 8826TIP3    H226443   4.915   6.360   0.748
 8827TIP3   OH226444   2.009   1.635   1.811
 8827TIP3    H126445   2.000   1.726   1.838
 8827TIP3    H226446   1.927   1.616   1.764
 8828TIP3   OH226447   4.023   5.462   0.188
 8828TIP3    H126448   4.104   5.512   0.180
 8828TIP3    H226449   4.012   5.422   0.102
 8829TIP3   OH226450   6.653   4.881   5.596
 8829TIP3    H126451   6.593   4.808   5.580
 8829TIP3    H226452   6.721   4.844   5.652
 8830TIP3   OH226453   0.054   4.998   1.774
 8830TIP3    H126454   0.123   5.032   1.831
 8830TIP3    H226455   0.084   4.910   1.751
 8831TIP3   OH226456   3.161   5.380   4.517
 8831TIP3    H126457   3.134   5.472   4.519
 8831TIP3    H226458   3.086   5.333   4.481
 8832TIP3   OH226459   4.036   1.835   1.763
 8832TIP3    H126460   4.048   1.928   1.745
 8832TIP3    H226461   4.120   1.796   1.743
 8833TIP3   OH226462   5.809   3.730   4.194
 8833TIP3    H126463   5.879   3.792   4.215
 8833TIP3    H226464   5.730   3.784   4.193
 8834TIP3   OH226465   2.900   5.185   4.857
 8834TIP3    H126466   2.931   5.274   4.841
 8834TIP3    H226467   2.923   5.136   4.778
 8835TIP3   OH226468   3.496   6.364   0.193
 8835TIP3    H126469   3.452   6.448   0.207
 8835TIP3    H226470   3.522   6.366   0.101
 8836TIP3   OH226471   1.964   1.996   0.628
 8836TIP3    H126472   2.058   1.997   0.610
 8836TIP3    H226473   1.956   1.949   0.711
 8837TIP3   OH226474   1.541   3.118   4.752
 8837TIP3    H126475   1.457   3.096   4.793
 8837TIP3    H226476   1.572   3.036   4.714
 8838TIP3   OH226477   2.532   4.606   4.574
 8838TIP3    H126478   2.479   4.596   4.494
 8838TIP3    H226479   2.596   4.535   4.568
 8839TIP3   OH226480   4.207   2.219   3.876
 8839TIP3    H126481   4.134   2.173   3.917
 8839TIP3    H226482   4.166   2.290   3.827
 8840TIP3   OH226483   2.358   1.385   5.811
 8840TIP3    H126484   2.412   1.452   5.769
 8840TIP3    H226485   2.322   1.429   5.888
 8841TIP3   OH226486   2.885   6.455   1.825
 8841TIP3    H126487   2.813   6.476   1.765
 8841TIP3    H226488   2.880   6.522   1.893
 8842TIP3   OH226489   4.950   4.520   4.367
 8842TIP3    H126490   4.877   4.548   4.421
 8842TIP3    H226491   4.958   4.588   4.299
 8843TIP3   OH226492   2.394   3.096   0.107
 8843TIP3    H126493   2.327   3.124   0.170
 8843TIP3    H226494   2.351   3.102   0.022
 8844TIP3   OH226495   5.223   2.859   2.307
 8844TIP3    H126496   5.177   2.862   2.223
 8844TIP3    H226497   5.164   2.903   2.369
 8845TIP3   OH226498   4.139   4.588   3.531
 8845TIP3    H126499   4.222   4.619   3.495
 8845TIP3    H226500   4.074   4.611   3.464
 8846TIP3   OH226501   6.375   3.627   2.296
 8846TIP3    H126502   6.395   3.673   2.214
 8846TIP3    H226503   6.315   3.558   2.270
 8847TIP3   OH226504   3.260   4.900   3.032
 8847TIP3    H126505   3.275   4.950   2.952
 8847TIP3    H226506   3.345   4.900   3.076
 8848TIP3   OH226507   2.870   3.168   2.204
 8848TIP3    H126508   2.885   3.127   2.289
 8848TIP3    H226509   2.876   3.262   2.221
 8849TIP3   OH226510   3.890   0.830   4.244
 8849TIP3    H126511   3.911   0.840   4.151
 8849TIP3    H226512   3.796   0.817   4.246
 8850TIP3   OH226513   5.106   4.579   1.627
 8850TIP3    H126514   5.124   4.492   1.662
 8850TIP3    H226515   5.039   4.615   1.685
 8851TIP3   OH226516   1.085   3.665   4.600
 8851TIP3    H126517   1.038   3.628   4.675
 8851TIP3    H226518   1.174   3.632   4.608
 8852TIP3   OH226519   0.735   3.018   4.490
 8852TIP3    H126520   0.813   3.044   4.440
 8852TIP3    H226521   0.674   2.985   4.423
 8853TIP3   OH226522   2.069   0.820   0.881
 8853TIP3    H126523   2.121   0.863   0.813
 8853TIP3    H226524   2.099   0.729   0.881
 8854TIP3   OH226525   0.808   3.397   2.453
 8854TIP3    H126526   0.816   3.320   2.397
 8854TIP3    H226527   0.717   3.394   2.485
 8855TIP3   OH226528   5.818   0.982   5.657
 8855TIP3    H126529   5.849   0.899   5.694
 8855TIP3    H226530   5.754   1.013   5.722
 8856TIP3   OH226531   0.767   4.325   5.289
 8856TIP3    H126532   0.833   4.349   5.354
 8856TIP3    H226533   0.814   4.332   5.205
 8857TIP3   OH226534   6.824   3.600   1.234
 8857TIP3    H126535   6.891   3.564   1.292
 8857TIP3    H226536   6.833   3.695   1.243
 8858TIP3   OH226537   1.212   4.872   1.640
 8858TIP3    H126538   1.181   4.963   1.643
 8858TIP3    H226539   1.154   4.825   1.700
 8859TIP3   OH226540   1.962   1.312   3.578
 8859TIP3    H126541   1.982   1.245   3.644
 8859TIP3    H226542   1.957   1.393   3.628
 8860TIP3   OH226543   3.677   2.304   4.493
 8860TIP3    H126544   3.651   2.395   4.475
 8860TIP3    H226545   3.697   2.268   4.407
 8861TIP3   OH226546   1.584   1.423   4.347
 8861TIP3    H126547   1.635   1.342   4.358
 8861TIP3    H226548   1.649   1.488   4.320
 8862TIP3   OH226549   4.468   2.525   3.536
 8862TIP3    H126550   4.489   2.432   3.535
 8862TIP3    H226551   4.553   2.569   3.528
 8863TIP3   OH226552   0.366   2.697   4.273
 8863TIP3    H126553   0.421   2.618   4.270
 8863TIP3    H226554   0.280   2.666   4.244
 8864TIP3   OH226555   5.226   1.297   0.076
 8864TIP3    H126556   5.201   1.376   0.029
 8864TIP3    H226557   5.266   1.329   0.157
 8865TIP3   OH226558   1.445   5.996   1.766
 8865TIP3    H126559   1.397   5.925   1.808
 8865TIP3    H226560   1.391   6.074   1.781
 8866TIP3   OH226561   0.922   5.029   5.474
 8866TIP3    H126562   0.840   5.058   5.435
 8866TIP3    H226563   0.963   4.974   5.407
 8867TIP3   OH226564   4.110   1.344   4.918
 8867TIP3    H126565   4.143   1.400   4.988
 8867TIP3    H226566   4.015   1.348   4.927
 8868TIP3   OH226567   1.170   3.928   2.722
 8868TIP3    H126568   1.197   3.890   2.638
 8868TIP3    H226569   1.248   3.920   2.778
 8869TIP3   OH226570   5.338   1.440   4.154
 8869TIP3    H126571   5.318   1.363   4.207
 8869TIP3    H226572   5.273   1.506   4.182
 8870TIP3   OH226573   5.498   3.467   3.789
 8870TIP3    H126574   5.436   3.397   3.768
 8870TIP3    H226575   5.578   3.441   3.743
 8871TIP3   OH226576   3.533   2.586   2.894
 8871TIP3    H126577   3.492   2.565   2.978
 8871TIP3    H226578   3.557   2.678   2.901
 8872TIP3   OH226579   5.550   4.859   4.094
 8872TIP3    H126580   5.619   4.866   4.028
 8872TIP3    H226581   5.582   4.792   4.155
 8873TIP3   OH226582   1.246   4.570   4.730
 8873TIP3    H126583   1.330   4.558   4.685
 8873TIP3    H226584   1.207   4.646   4.687
 8874TIP3   OH226585   1.756   2.230   3.575
 8874TIP3    H126586   1.668   2.199   3.593
 8874TIP3    H226587   1.792   2.251   3.661
 8875TIP3   OH226588   1.589   2.248   4.470
 8875TIP3    H126589   1.611   2.265   4.378
 8875TIP3    H226590   1.494   2.237   4.471
 8876TIP3   OH226591   2.964   3.795   4.190
 8876TIP3    H126592   2.930   3.761   4.107
 8876TIP3    H226593   3.018   3.725   4.224
 8877TIP3   OH226594   0.375   4.855   5.192
 8877TIP3    H126595   0.403   4.793   5.259
 8877TIP3    H226596   0.296   4.816   5.155
 8878TIP3   OH226597   3.357   5.163   0.736
 8878TIP3    H126598   3.328   5.104   0.805
 8878TIP3    H226599   3.299   5.238   0.742
 8879TIP3   OH226600   5.539   5.385   0.793
 8879TIP3    H126601   5.470   5.396   0.859
 8879TIP3    H226602   5.620   5.383   0.843
 8880TIP3   OH226603   0.521   5.452   0.455
 8880TIP3    H126604   0.479   5.449   0.370
 8880TIP3    H226605   0.454   5.421   0.516
 8881TIP3   OH226606   3.652   4.678   2.729
 8881TIP3    H126607   3.733   4.631   2.711
 8881TIP3    H226608   3.622   4.642   2.813
 8882TIP3   OH226609   6.733   0.639   5.660
 8882TIP3    H126610   6.821   0.601   5.654
 8882TIP3    H226611   6.682   0.592   5.594
 8883TIP3   OH226612   6.890   4.634   0.128
 8883TIP3    H126613   6.953   4.679   0.184
 8883TIP3    H226614   6.808   4.635   0.177
 8884TIP3   OH226615   4.227   4.852   5.674
 8884TIP3    H126616   4.172   4.922   5.639
 8884TIP3    H226617   4.216   4.780   5.613
 8885TIP3   OH226618   6.209   6.458   1.438
 8885TIP3    H126619   6.151   6.506   1.496
 8885TIP3    H226620   6.297   6.484   1.464
 8886TIP3   OH226621   0.204   2.243   0.166
 8886TIP3    H126622   0.283   2.284   0.201
 8886TIP3    H226623   0.134   2.306   0.186
 8887TIP3   OH226624   0.559   6.684   0.829
 8887TIP3    H126625   0.561   6.765   0.881
 8887TIP3    H226626   0.598   6.709   0.745
 8888TIP3   OH226627   6.152   2.569   3.134
 8888TIP3    H126628   6.132   2.661   3.121
 8888TIP3    H226629   6.221   2.568   3.200
 8889TIP3   OH226630   1.029   5.791   5.373
 8889TIP3    H126631   0.969   5.743   5.430
 8889TIP3    H226632   1.073   5.724   5.322
 8890TIP3   OH226633   1.616   5.737   2.458
 8890TIP3    H126634   1.596   5.645   2.440
 8890TIP3    H226635   1.701   5.752   2.417
 8891TIP3   OH226636   4.973   5.785   1.350
 8891TIP3    H126637   4.931   5.831   1.424
 8891TIP3    H226638   5.048   5.840   1.328
 8892TIP3   OH226639   4.140   3.370   5.199
 8892TIP3    H126640   4.173   3.359   5.110
 8892TIP3    H226641   4.091   3.452   5.197
 8893TIP3   OH226642   2.824   2.210   0.248
 8893TIP3    H126643   2.840   2.280   0.184
 8893TIP3    H226644   2.813   2.256   0.331
 8894TIP3   OH226645   2.217   3.801   4.417
 8894TIP3    H126646   2.241   3.891   4.399
 8894TIP3    H226647   2.193   3.800   4.510
 8895TIP3   OH226648   2.944   5.458   0.148
 8895TIP3    H126649   2.867   5.505   0.117
 8895TIP3    H226650   3.016   5.492   0.094
 8896TIP3   OH226651   1.662   0.931   3.698
 8896TIP3    H126652   1.643   0.946   3.791
 8896TIP3    H226653   1.753   0.902   3.697
 8897TIP3   OH226654   0.176   0.182   3.776
 8897TIP3    H126655   0.083   0.199   3.760
 8897TIP3    H226656   0.176   0.118   3.848
 8898TIP3   OH226657   3.361   4.202   5.271
 8898TIP3    H126658   3.360   4.266   5.200
 8898TIP3    H226659   3.435   4.227   5.325
 8899TIP3   OH226660   3.905   0.680   5.816
 8899TIP3    H126661   3.895   0.760   5.765
 8899TIP3    H226662   3.927   0.613   5.751
 8900TIP3   OH226663   2.596   4.498   3.759
 8900TIP3    H126664   2.630   4.410   3.774
 8900TIP3    H226665   2.643   4.553   3.822
 8901TIP3   OH226666   5.166   5.972   1.313
 8901TIP3    H126667   5.166   5.970   1.218
 8901TIP3    H226668   5.177   6.064   1.335
 8902TIP3   OH226669   5.452   5.733   2.316
 8902TIP3    H126670   5.376   5.770   2.271
 8902TIP3    H226671   5.416   5.676   2.383
 8903TIP3   OH226672   6.929   2.318   1.780
 8903TIP3    H126673   6.879   2.293   1.703
 8903TIP3    H226674   6.885   2.274   1.853
 8904TIP3   OH226675   4.800   1.447   4.930
 8904TIP3    H126676   4.808   1.477   5.020
 8904TIP3    H226677   4.803   1.527   4.877
 8905TIP3   OH226678   3.532   6.134   0.331
 8905TIP3    H126679   3.526   6.170   0.419
 8905TIP3    H226680   3.513   6.209   0.273
 8906TIP3   OH226681   5.549   2.797   1.029
 8906TIP3    H126682   5.466   2.780   0.984
 8906TIP3    H226683   5.587   2.870   0.980
 8907TIP3   OH226684   1.933   1.826   3.730
 8907TIP3    H126685   2.028   1.815   3.729
 8907TIP3    H226686   1.915   1.872   3.813
 8908TIP3   OH226687   6.875   5.103   1.319
 8908TIP3    H126688   6.893   5.052   1.398
 8908TIP3    H226689   6.864   5.193   1.351
 8909TIP3   OH226690   4.862   0.027   4.193
 8909TIP3    H126691   4.938   0.040   4.250
 8909TIP3    H226692   4.884   0.074   4.113
 8910TIP3   OH226693   0.990   5.412   3.401
 8910TIP3    H126694   0.969   5.453   3.485
 8910TIP3    H226695   1.080   5.439   3.382
 8911TIP3   OH226696   5.523   6.653   3.393
 8911TIP3    H126697   5.517   6.728   3.452
 8911TIP3    H226698   5.462   6.673   3.322
 8912TIP3   OH226699   2.020   5.353   1.216
 8912TIP3    H126700   2.105   5.317   1.191
 8912TIP3    H226701   2.013   5.434   1.165
 8913TIP3   OH226702   1.576   5.339   5.115
 8913TIP3    H126703   1.634   5.398   5.164
 8913TIP3    H226704   1.634   5.281   5.067
 8914TIP3   OH226705   5.877   1.513   3.723
 8914TIP3    H126706   5.956   1.459   3.711
 8914TIP3    H226707   5.890   1.588   3.664
 8915TIP3   OH226708   6.847   5.519   4.321
 8915TIP3    H126709   6.901   5.441   4.328
 8915TIP3    H226710   6.761   5.492   4.353
 8916TIP3   OH226711   6.630   4.158   3.206
 8916TIP3    H126712   6.580   4.089   3.249
 8916TIP3    H226713   6.633   4.229   3.270
 8917TIP3   OH226714   0.239   3.968   2.546
 8917TIP3    H126715   0.257   3.910   2.620
 8917TIP3    H226716   0.190   3.913   2.484
 8918TIP3   OH226717   5.964   6.698   2.997
 8918TIP3    H126718   5.992   6.789   3.004
 8918TIP3    H226719   5.949   6.671   3.088
 8919TIP3   OH226720   5.212   5.624   1.217
 8919TIP3    H126721   5.168   5.642   1.134
 8919TIP3    H226722   5.161   5.673   1.282
 8920TIP3   OH226723   0.166   4.494   2.323
 8920TIP3    H126724   0.233   4.478   2.389
 8920TIP3    H226725   0.179   4.585   2.297
 8921TIP3   OH226726   7.074   6.233   1.410
 8921TIP3    H126727   7.163   6.255   1.436
 8921TIP3    H226728   7.019   6.274   1.476
 8922TIP3   OH226729   3.421   6.020   5.173
 8922TIP3    H126730   3.330   5.994   5.183
 8922TIP3    H226731   3.431   6.037   5.080
 8923TIP3   OH226732   1.571   4.206   0.917
 8923TIP3    H126733   1.535   4.118   0.908
 8923TIP3    H226734   1.618   4.205   1.001
 8924TIP3   OH226735   3.904   6.609   5.010
 8924TIP3    H126736   3.933   6.612   5.102
 8924TIP3    H226737   3.894   6.701   4.986
 8925TIP3   OH226738   2.005   1.376   0.170
 8925TIP3    H126739   1.941   1.369   0.099
 8925TIP3    H226740   1.992   1.296   0.221
 8926TIP3   OH226741   6.174   3.860   1.398
 8926TIP3    H126742   6.148   3.879   1.308
 8926TIP3    H226743   6.212   3.942   1.430
 8927TIP3   OH226744   4.172   2.712   2.963
 8927TIP3    H126745   4.136   2.774   2.899
 8927TIP3    H226746   4.140   2.627   2.936
 8928TIP3   OH226747   4.144   6.373   5.365
 8928TIP3    H126748   4.214   6.321   5.404
 8928TIP3    H226749   4.132   6.336   5.278
 8929TIP3   OH226750   0.930   5.609   4.244
 8929TIP3    H126751   0.971   5.693   4.224
 8929TIP3    H226752   0.906   5.615   4.336
 8930TIP3   OH226753   0.494   1.332   4.902
 8930TIP3    H126754   0.410   1.354   4.941
 8930TIP3    H226755   0.489   1.238   4.886
 8931TIP3   OH226756   6.430   4.320   0.824
 8931TIP3    H126757   6.426   4.377   0.901
 8931TIP3    H226758   6.385   4.240   0.851
 8932TIP3   OH226759   1.659   0.339   2.019
 8932TIP3    H126760   1.605   0.418   2.027
 8932TIP3    H226761   1.653   0.315   1.926
 8933TIP3   OH226762   5.459   4.985   5.654
 8933TIP3    H126763   5.428   5.069   5.687
 8933TIP3    H226764   5.495   4.940   5.730
 8934TIP3   OH226765   6.191   3.839   2.290
 8934TIP3    H126766   6.248   3.762   2.290
 8934TIP3    H226767   6.239   3.904   2.341
 8935TIP3   OH226768   6.823   3.103   5.107
 8935TIP3    H126769   6.873   3.025   5.129
 8935TIP3    H226770   6.844   3.120   5.015
 8936TIP3   OH226771   0.419   3.608   4.075
 8936TIP3    H126772   0.379   3.612   3.987
 8936TIP3    H226773   0.426   3.515   4.094
 8937TIP3   OH226774   6.099   6.715   1.030
 8937TIP3    H126775   6.014   6.688   1.063
 8937TIP3    H226776   6.079   6.777   0.960
 8938TIP3   OH226777   2.157   4.722   2.562
 8938TIP3    H126778   2.143   4.814   2.539
 8938TIP3    H226779   2.134   4.674   2.483
 8939TIP3   OH226780   4.774   2.773   0.866
 8939TIP3    H126781   4.849   2.832   0.861
 8939TIP3    H226782   4.776   2.740   0.956
 8940TIP3   OH226783   4.091   0.403   1.978
 8940TIP3    H126784   4.056   0.438   2.060
 8940TIP3    H226785   4.013   0.376   1.929
 8941TIP3   OH226786   3.118   3.051   2.577
 8941TIP3    H126787   3.122   3.124   2.638
 8941TIP3    H226788   3.116   2.973   2.632
 8942TIP3   OH226789   6.107   1.555   5.629
 8942TIP3    H126790   6.089   1.647   5.609
 8942TIP3    H226791   6.116   1.552   5.724
 8943TIP3   OH226792   1.996   1.414   5.061
 8943TIP3    H126793   1.964   1.451   4.979
 8943TIP3    H226794   1.977   1.482   5.126
 8944TIP3   OH226795   5.331   2.234   1.209
 8944TIP3    H126796   5.287   2.257   1.291
 8944TIP3    H226797   5.424   2.227   1.232
 8945TIP3   OH226798   5.080   5.266   2.977
 8945TIP3    H126799   5.083   5.347   3.028
 8945TIP3    H226800   5.090   5.294   2.886
 8946TIP3   OH226801   2.423   2.631   3.823
 8946TIP3    H126802   2.372   2.593   3.751
 8946TIP3    H226803   2.361   2.642   3.894
 8947TIP3   OH226804   4.548   6.654   0.155
 8947TIP3    H126805   4.468   6.705   0.139
 8947TIP3    H226806   4.548   6.637   0.249
 8948TIP3   OH226807   3.768   5.610   1.960
 8948TIP3    H126808   3.847   5.657   1.986
 8948TIP3    H226809   3.717   5.602   2.041
 8949TIP3   OH226810   5.100   1.063   3.794
 8949TIP3    H126811   5.043   1.095   3.863
 8949TIP3    H226812   5.142   0.985   3.831
 8950TIP3   OH226813   0.456   0.355   5.614
 8950TIP3    H126814   0.437   0.343   5.707
 8950TIP3    H226815   0.445   0.449   5.599
 8951TIP3   OH226816   0.685   1.882   0.727
 8951TIP3    H126817   0.777   1.857   0.731
 8951TIP3    H226818   0.662   1.875   0.634
 8952TIP3   OH226819   5.302   6.173   5.491
 8952TIP3    H126820   5.336   6.230   5.421
 8952TIP3    H226821   5.280   6.233   5.562
 8953TIP3   OH226822   5.433   2.113   0.051
 8953TIP3    H126823   5.420   2.111   0.146
 8953TIP3    H226824   5.402   2.028   0.021
 8954TIP3   OH226825   3.938   4.634   3.305
 8954TIP3    H126826   3.991   4.637   3.226
 8954TIP3    H226827   3.855   4.596   3.277
 8955TIP3   OH226828   3.445   2.321   1.429
 8955TIP3    H126829   3.397   2.339   1.510
 8955TIP3    H226830   3.379   2.285   1.370
 8956TIP3   OH226831   0.562   0.468   4.002
 8956TIP3    H126832   0.656   0.471   4.023
 8956TIP3    H226833   0.558   0.487   3.909
 8957TIP3   OH226834   4.525   2.610   4.398
 8957TIP3    H126835   4.565   2.588   4.314
 8957TIP3    H226836   4.521   2.705   4.398
 8958TIP3   OH226837   1.678   1.691   0.475
 8958TIP3    H126838   1.746   1.639   0.433
 8958TIP3    H226839   1.688   1.779   0.438
 8959TIP3   OH226840   2.485   6.685   3.890
 8959TIP3    H126841   2.435   6.636   3.825
 8959TIP3    H226842   2.453   6.651   3.974
 8960TIP3   OH226843   6.966   2.521   3.903
 8960TIP3    H126844   6.907   2.446   3.917
 8960TIP3    H226845   6.928   2.567   3.828
 8961TIP3   OH226846   0.877   5.249   4.499
 8961TIP3    H126847   0.804   5.305   4.523
 8961TIP3    H226848   0.940   5.258   4.571
 8962TIP3   OH226849   4.901   3.731   3.801
 8962TIP3    H126850   4.835   3.727   3.732
 8962TIP3    H226851   4.905   3.824   3.825
 8963TIP3   OH226852   3.566   1.618   0.075
 8963TIP3    H126853   3.596   1.647  -0.012
 8963TIP3    H226854   3.513   1.691   0.107
 8964TIP3   OH226855   3.611   0.478   3.288
 8964TIP3    H126856   3.540   0.466   3.351
 8964TIP3    H226857   3.609   0.398   3.235
 8965TIP3   OH226858   2.921   0.517   3.941
 8965TIP3    H126859   2.974   0.528   4.021
 8965TIP3    H226860   2.927   0.423   3.922
 8966TIP3   OH226861   0.823   5.900   0.458
 8966TIP3    H126862   0.916   5.924   0.459
 8966TIP3    H226863   0.823   5.804   0.454
 8967TIP3   OH226864   5.569   0.316   2.536
 8967TIP3    H126865   5.573   0.227   2.573
 8967TIP3    H226866   5.612   0.309   2.451
 8968TIP3   OH226867   6.823   3.648   4.982
 8968TIP3    H126868   6.830   3.578   5.046
 8968TIP3    H226869   6.798   3.604   4.900
 8969TIP3   OH226870   4.322   5.400   1.106
 8969TIP3    H126871   4.246   5.433   1.154
 8969TIP3    H226872   4.365   5.339   1.165
 8970TIP3   OH226873   3.421   2.961   2.609
 8970TIP3    H126874   3.387   3.050   2.600
 8970TIP3    H226875   3.391   2.917   2.530
 8971TIP3   OH226876   6.949   0.092   1.583
 8971TIP3    H126877   7.012   0.041   1.633
 8971TIP3    H226878   6.892   0.027   1.541
 8972TIP3   OH226879   4.880   0.579   4.930
 8972TIP3    H126880   4.794   0.572   4.887
 8972TIP3    H226881   4.863   0.629   5.010
 8973TIP3   OH226882   6.366   3.233   5.008
 8973TIP3    H126883   6.345   3.274   5.093
 8973TIP3    H226884   6.282   3.200   4.976
 8974TIP3   OH226885   2.668   3.058   3.298
 8974TIP3    H126886   2.584   3.043   3.254
 8974TIP3    H226887   2.665   3.150   3.325
 8975TIP3   OH226888   1.352   5.573   5.676
 8975TIP3    H126889   1.413   5.530   5.617
 8975TIP3    H226890   1.269   5.574   5.629
 8976TIP3   OH226891   1.785   3.802   0.970
 8976TIP3    H126892   1.783   3.734   1.038
 8976TIP3    H226893   1.856   3.776   0.912
 8977TIP3   OH226894   3.635   2.933   3.493
 8977TIP3    H126895   3.584   2.991   3.548
 8977TIP3    H226896   3.703   2.989   3.455
 8978TIP3   OH226897   4.702   5.176   4.345
 8978TIP3    H126898   4.675   5.117   4.416
 8978TIP3    H226899   4.711   5.262   4.387
 8979TIP3   OH226900   0.947   1.197   3.804
 8979TIP3    H126901   0.853   1.215   3.800
 8979TIP3    H226902   0.982   1.266   3.860
 8980TIP3   OH226903   1.347   3.949   3.735
 8980TIP3    H126904   1.362   3.868   3.686
 8980TIP3    H226905   1.299   3.921   3.813
 8981TIP3   OH226906   0.455   3.348   4.176
 8981TIP3    H126907   0.478   3.265   4.136
 8981TIP3    H226908   0.412   3.323   4.258
 8982TIP3   OH226909   6.403   0.616   5.854
 8982TIP3    H126910   6.493   0.645   5.869
 8982TIP3    H226911   6.350   0.693   5.874
 8983TIP3   OH226912   7.009   6.463   3.495
 8983TIP3    H126913   7.072   6.445   3.564
 8983TIP3    H226914   7.062   6.496   3.422
 8984TIP3   OH226915   0.457   2.158   1.079
 8984TIP3    H126916   0.373   2.157   1.125
 8984TIP3    H226917   0.518   2.114   1.138
 8985TIP3   OH226918   2.406   2.939   2.529
 8985TIP3    H126919   2.389   2.855   2.486
 8985TIP3    H226920   2.493   2.929   2.567
 8986TIP3   OH226921   0.684   2.493   3.138
 8986TIP3    H126922   0.620   2.434   3.098
 8986TIP3    H226923   0.637   2.576   3.148
 8987TIP3   OH226924   5.982   6.001   5.053
 8987TIP3    H126925   6.042   6.069   5.024
 8987TIP3    H226926   6.017   5.972   5.137
 8988TIP3   OH226927   6.714   4.142   4.294
 8988TIP3    H126928   6.627   4.127   4.331
 8988TIP3    H226929   6.763   4.062   4.314
 8989TIP3   OH226930   5.675   2.350   4.682
 8989TIP3    H126931   5.767   2.329   4.699
 8989TIP3    H226932   5.642   2.275   4.633
 8990TIP3   OH226933   5.047   4.812   5.071
 8990TIP3    H126934   5.031   4.859   5.153
 8990TIP3    H226935   5.125   4.853   5.034
 8991TIP3   OH226936   6.027   6.744   5.288
 8991TIP3    H126937   5.993   6.654   5.297
 8991TIP3    H226938   6.080   6.756   5.366
 8992TIP3   OH226939   4.513   5.576   3.134
 8992TIP3    H126940   4.516   5.642   3.065
 8992TIP3    H226941   4.588   5.519   3.116
 8993TIP3   OH226942   7.115   6.821   1.535
 8993TIP3    H126943   7.083   6.763   1.466
 8993TIP3    H226944   7.090   6.778   1.616
 8994TIP3   OH226945   2.932   0.267   2.129
 8994TIP3    H126946   2.940   0.350   2.176
 8994TIP3    H226947   2.939   0.200   2.198
 8995TIP3   OH226948   2.136   3.423   1.559
 8995TIP3    H126949   2.052   3.461   1.584
 8995TIP3    H226950   2.139   3.340   1.607
 8996TIP3   OH226951   3.950   4.908   3.600
 8996TIP3    H126952   3.863   4.901   3.562
 8996TIP3    H226953   4.002   4.955   3.535
 8997TIP3   OH226954   1.996   3.464   1.312
 8997TIP3    H126955   2.058   3.466   1.386
 8997TIP3    H226956   1.934   3.395   1.335
 8998TIP3   OH226957   0.759   0.961   2.103
 8998TIP3    H126958   0.728   0.959   2.193
 8998TIP3    H226959   0.854   0.950   2.110
 8999TIP3   OH226960   5.924   6.717   0.261
 8999TIP3    H126961   6.018   6.710   0.246
 8999TIP3    H226962   5.913   6.711   0.356
 9000TIP3   OH226963   2.233   0.843   5.123
 9000TIP3    H126964   2.142   0.856   5.149
 9000TIP3    H226965   2.231   0.762   5.071
 9001TIP3   OH226966   5.213   5.728   3.844
 9001TIP3    H126967   5.207   5.822   3.857
 9001TIP3    H226968   5.294   5.702   3.888
 9002TIP3   OH226969   7.167   3.973   0.028
 9002TIP3    H126970   7.252   4.013   0.046
 9002TIP3    H226971   7.189   3.886  -0.006
 9003TIP3   OH226972   5.355   2.274   4.900
 9003TIP3    H126973   5.377   2.344   4.838
 9003TIP3    H226974   5.378   2.310   4.986
 9004TIP3   OH226975   1.708   4.475   4.699
 9004TIP3    H126976   1.647   4.422   4.750
 9004TIP3    H226977   1.774   4.413   4.669
 9005TIP3   OH226978   0.804   6.499   0.390
 9005TIP3    H126979   0.785   6.591   0.372
 9005TIP3    H226980   0.728   6.452   0.357
 9006TIP3   OH226981   1.091   1.355   0.102
 9006TIP3    H126982   1.099   1.261   0.113
 9006TIP3    H226983   1.172   1.381   0.059
 9007TIP3   OH226984   1.623   2.580   4.496
 9007TIP3    H126985   1.613   2.578   4.591
 9007TIP3    H226986   1.534   2.582   4.462
 9008TIP3   OH226987   0.017   6.768   1.877
 9008TIP3    H126988   0.071   6.824   1.933
 9008TIP3    H226989  -0.057   6.744   1.931
 9009TIP3   OH226990   2.620   6.437   5.059
 9009TIP3    H126991   2.619   6.529   5.034
 9009TIP3    H226992   2.574   6.392   4.988
 9010TIP3   OH226993   0.265   3.780   4.703
 9010TIP3    H126994   0.227   3.780   4.790
 9010TIP3    H226995   0.189   3.777   4.644
 9011TIP3   OH226996   6.560   3.303   5.350
 9011TIP3    H126997   6.570   3.210   5.329
 9011TIP3    H226998   6.480   3.308   5.402
 9012TIP3   OH226999   4.368   6.471   3.081
 9012TIP3    H127000   4.382   6.436   3.169
 9012TIP3    H227001   4.343   6.563   3.095
 9013TIP3   OH227002   0.335   3.525   5.215
 9013TIP3    H127003   0.357   3.601   5.269
 9013TIP3    H227004   0.242   3.533   5.198
 9014TIP3   OH227005   0.348   0.818   3.590
 9014TIP3    H127006   0.355   0.835   3.497
 9014TIP3    H227007   0.277   0.754   3.598
 9015TIP3   OH227008   1.376   0.294   1.534
 9015TIP3    H127009   1.421   0.313   1.452
 9015TIP3    H227010   1.294   0.341   1.529
 9016TIP3   OH227011   3.602   2.185   1.993
 9016TIP3    H127012   3.659   2.108   1.996
 9016TIP3    H227013   3.598   2.208   1.900
 9017TIP3   OH227014   6.580   0.761   4.380
 9017TIP3    H127015   6.675   0.758   4.374
 9017TIP3    H227016   6.560   0.853   4.396
 9018TIP3   OH227017   2.445   2.728   4.718
 9018TIP3    H127018   2.406   2.772   4.643
 9018TIP3    H227019   2.377   2.668   4.749
 9019TIP3   OH227020   4.988   3.940   4.119
 9019TIP3    H127021   4.963   4.018   4.068
 9019TIP3    H227022   5.045   3.891   4.060
 9020TIP3   OH227023   4.350   5.506   0.278
 9020TIP3    H127024   4.272   5.563   0.272
 9020TIP3    H227025   4.359   5.488   0.371
 9021TIP3   OH227026   0.587   3.390   0.364
 9021TIP3    H127027   0.639   3.465   0.390
 9021TIP3    H227028   0.557   3.352   0.447
 9022TIP3   OH227029   1.664   4.427   2.185
 9022TIP3    H127030   1.583   4.474   2.202
 9022TIP3    H227031   1.637   4.341   2.154
 9023TIP3   OH227032   4.632   1.005   3.095
 9023TIP3    H127033   4.693   0.956   3.039
 9023TIP3    H227034   4.669   1.092   3.101
 9024TIP3   OH227035   4.169   1.457   3.529
 9024TIP3    H127036   4.138   1.534   3.481
 9024TIP3    H227037   4.129   1.464   3.615
 9025TIP3   OH227038   6.299   6.442   4.940
 9025TIP3    H127039   6.306   6.518   4.998
 9025TIP3    H227040   6.253   6.376   4.992
 9026TIP3   OH227041   4.870   5.037   4.845
 9026TIP3    H127042   4.941   5.017   4.784
 9026TIP3    H227043   4.857   5.131   4.837
 9027TIP3   OH227044   5.802   5.092   1.264
 9027TIP3    H127045   5.879   5.037   1.253
 9027TIP3    H227046   5.791   5.099   1.359
 9028TIP3   OH227047   1.494   0.610   5.869
 9028TIP3    H127048   1.553   0.625   5.795
 9028TIP3    H227049   1.410   0.590   5.828
 9029TIP3   OH227050   5.631   5.429   5.462
 9029TIP3    H127051   5.709   5.380   5.486
 9029TIP3    H227052   5.664   5.510   5.422
 9030TIP3   OH227053   5.804   4.895   1.737
 9030TIP3    H127054   5.832   4.812   1.776
 9030TIP3    H227055   5.886   4.942   1.720
 9031TIP3   OH227056   3.768   0.309   5.772
 9031TIP3    H127057   3.776   0.394   5.729
 9031TIP3    H227058   3.857   0.287   5.800
 9032TIP3   OH227059   0.454   6.051   3.232
 9032TIP3    H127060   0.363   6.073   3.209
 9032TIP3    H227061   0.501   6.055   3.149
 9033TIP3   OH227062   3.151   4.331   3.440
 9033TIP3    H127063   3.156   4.327   3.536
 9033TIP3    H227064   3.086   4.264   3.418
 9034TIP3   OH227065   7.141   3.824   0.528
 9034TIP3    H127066   7.115   3.915   0.538
 9034TIP3    H227067   7.209   3.825   0.461
 9035TIP3   OH227068   3.924   3.934   0.653
 9035TIP3    H127069   4.002   3.960   0.604
 9035TIP3    H227070   3.947   3.948   0.745
 9036TIP3   OH227071   2.606   5.513   4.036
 9036TIP3    H127072   2.565   5.440   4.083
 9036TIP3    H227073   2.610   5.584   4.101
 9037TIP3   OH227074   4.290   1.722   1.710
 9037TIP3    H127075   4.327   1.728   1.622
 9037TIP3    H227076   4.357   1.758   1.767
 9038TIP3   OH227077   2.863   4.342   1.861
 9038TIP3    H127078   2.772   4.314   1.873
 9038TIP3    H227079   2.899   4.279   1.799
 9039TIP3   OH227080   4.069   0.341   0.714
 9039TIP3    H127081   4.145   0.370   0.764
 9039TIP3    H227082   4.095   0.255   0.680
 9040TIP3   OH227083   4.678   2.662   5.255
 9040TIP3    H127084   4.661   2.573   5.223
 9040TIP3    H227085   4.755   2.690   5.205
 9041TIP3   OH227086   5.479   0.837   3.761
 9041TIP3    H127087   5.490   0.893   3.684
 9041TIP3    H227088   5.503   0.749   3.731
 9042TIP3   OH227089   0.363   2.766   1.779
 9042TIP3    H127090   0.295   2.793   1.840
 9042TIP3    H227091   0.445   2.794   1.821
 9043TIP3   OH227092   2.588   5.961   0.518
 9043TIP3    H127093   2.599   6.037   0.461
 9043TIP3    H227094   2.577   5.888   0.457
 9044TIP3   OH227095   2.085   3.432   0.380
 9044TIP3    H127096   2.063   3.473   0.464
 9044TIP3    H227097   2.181   3.432   0.378
 9045TIP3   OH227098   4.532   5.635   1.263
 9045TIP3    H127099   4.457   5.603   1.313
 9045TIP3    H227100   4.600   5.569   1.276
 9046TIP3   OH227101   3.467   1.403   4.712
 9046TIP3    H127102   3.423   1.447   4.639
 9046TIP3    H227103   3.551   1.375   4.675
 9047TIP3   OH227104   6.918   1.674   0.719
 9047TIP3    H127105   6.964   1.672   0.803
 9047TIP3    H227106   6.890   1.584   0.705
 9048TIP3   OH227107   4.169   3.097   2.761
 9048TIP3    H127108   4.250   3.127   2.720
 9048TIP3    H227109   4.165   3.004   2.739
 9049TIP3   OH227110   3.173   4.539   2.696
 9049TIP3    H127111   3.128   4.586   2.767
 9049TIP3    H227112   3.194   4.454   2.734
 9050TIP3   OH227113   5.280   3.928   3.018
 9050TIP3    H127114   5.296   4.012   2.975
 9050TIP3    H227115   5.255   3.869   2.946
 9051TIP3   OH227116   0.115   2.757   0.618
 9051TIP3    H127117   0.152   2.820   0.556
 9051TIP3    H227118   0.092   2.681   0.565
 9052TIP3   OH227119   0.320   4.525   0.044
 9052TIP3    H127120   0.310   4.432   0.024
 9052TIP3    H227121   0.414   4.537   0.058
 9053TIP3   OH227122   0.662   4.658   2.610
 9053TIP3    H127123   0.604   4.729   2.583
 9053TIP3    H227124   0.604   4.594   2.651
 9054TIP3   OH227125   4.424   1.501   2.478
 9054TIP3    H127126   4.489   1.466   2.539
 9054TIP3    H227127   4.465   1.578   2.440
 9055TIP3   OH227128   1.879   0.831   4.422
 9055TIP3    H127129   1.813   0.790   4.365
 9055TIP3    H227130   1.936   0.879   4.362
 9056TIP3   OH227131   6.046   6.641   3.684
 9056TIP3    H127132   6.050   6.697   3.761
 9056TIP3    H227133   6.137   6.623   3.662
 9057TIP3   OH227134   2.480   0.650   2.461
 9057TIP3    H127135   2.561   0.610   2.428
 9057TIP3    H227136   2.436   0.578   2.507
 9058TIP3   OH227137   6.081   4.650   4.896
 9058TIP3    H127138   5.999   4.603   4.914
 9058TIP3    H227139   6.068   4.736   4.937
 9059TIP3   OH227140   5.884   1.724   2.636
 9059TIP3    H127141   5.801   1.681   2.618
 9059TIP3    H227142   5.950   1.664   2.600
 9060TIP3   OH227143   0.455   1.288   4.467
 9060TIP3    H127144   0.463   1.289   4.563
 9060TIP3    H227145   0.523   1.348   4.437
 9061TIP3   OH227146   2.623   2.004   5.758
 9061TIP3    H127147   2.630   2.035   5.668
 9061TIP3    H227148   2.604   2.083   5.809
 9062TIP3   OH227149   1.776   2.808   1.331
 9062TIP3    H127150   1.865   2.833   1.308
 9062TIP3    H227151   1.737   2.889   1.366
 9063TIP3   OH227152   0.451   3.614   3.746
 9063TIP3    H127153   0.364   3.620   3.785
 9063TIP3    H227154   0.493   3.541   3.792
 9064TIP3   OH227155   5.331   1.742   5.396
 9064TIP3    H127156   5.296   1.652   5.398
 9064TIP3    H227157   5.284   1.787   5.466
 9065TIP3   OH227158   2.300   3.243   5.447
 9065TIP3    H127159   2.316   3.176   5.514
 9065TIP3    H227160   2.213   3.277   5.466
 9066TIP3   OH227161   1.298   0.459   0.409
 9066TIP3    H127162   1.230   0.393   0.419
 9066TIP3    H227163   1.375   0.411   0.379
 9067TIP3   OH227164   3.272   5.815   0.677
 9067TIP3    H127165   3.232   5.780   0.597
 9067TIP3    H227166   3.311   5.739   0.719
 9068TIP3   OH227167   5.517   6.093   1.989
 9068TIP3    H127168   5.506   6.174   1.940
 9068TIP3    H227169   5.523   6.025   1.923
 9069TIP3   OH227170   2.149   3.409   2.646
 9069TIP3    H127171   2.135   3.314   2.641
 9069TIP3    H227172   2.225   3.424   2.590
 9070TIP3   OH227173   1.317   1.774   2.980
 9070TIP3    H127174   1.249   1.717   3.014
 9070TIP3    H227175   1.326   1.843   3.046
 9071TIP3   OH227176   6.945   3.961   0.225
 9071TIP3    H127177   6.915   4.036   0.276
 9071TIP3    H227178   6.998   3.998   0.155
 9072TIP3   OH227179   1.444   4.524   0.275
 9072TIP3    H127180   1.355   4.541   0.306
 9072TIP3    H227181   1.481   4.464   0.341
 9073TIP3   OH227182   6.212   0.436   4.832
 9073TIP3    H127183   6.169   0.486   4.763
 9073TIP3    H227184   6.264   0.370   4.785
 9074TIP3   OH227185   2.710   6.560   1.009
 9074TIP3    H127186   2.648   6.628   0.982
 9074TIP3    H227187   2.661   6.478   1.000
 9075TIP3   OH227188   3.374   3.293   0.810
 9075TIP3    H127189   3.411   3.368   0.857
 9075TIP3    H227190   3.440   3.225   0.818
 9076TIP3   OH227191   6.404   4.647   3.011
 9076TIP3    H127192   6.365   4.563   2.987
 9076TIP3    H227193   6.349   4.680   3.082
 9077TIP3   OH227194   6.786   5.341   2.847
 9077TIP3    H127195   6.795   5.390   2.765
 9077TIP3    H227196   6.785   5.249   2.820
 9078TIP3   OH227197   4.878   5.546   1.236
 9078TIP3    H127198   4.889   5.640   1.252
 9078TIP3    H227199   4.940   5.503   1.295
 9079TIP3   OH227200   3.809   5.873   0.093
 9079TIP3    H127201   3.725   5.828   0.102
 9079TIP3    H227202   3.797   5.954   0.141
 9080TIP3   OH227203   5.346   4.972   5.402
 9080TIP3    H127204   5.403   4.990   5.327
 9080TIP3    H227205   5.398   4.996   5.479
 9081TIP3   OH227206   5.086   2.601   3.922
 9081TIP3    H127207   5.117   2.691   3.906
 9081TIP3    H227208   5.107   2.584   4.014
 9082TIP3   OH227209   3.499   2.825   1.397
 9082TIP3    H127210   3.560   2.864   1.334
 9082TIP3    H227211   3.441   2.897   1.422
 9083TIP3   OH227212   6.678   2.146   4.154
 9083TIP3    H127213   6.690   2.053   4.135
 9083TIP3    H227214   6.693   2.153   4.248
 9084TIP3   OH227215   6.610   5.991   5.013
 9084TIP3    H127216   6.604   5.901   5.045
 9084TIP3    H227217   6.700   6.001   4.983
 9085TIP3   OH227218   1.807   1.177   2.477
 9085TIP3    H127219   1.776   1.092   2.509
 9085TIP3    H227220   1.880   1.156   2.419
 9086TIP3   OH227221   5.430   0.583   3.670
 9086TIP3    H127222   5.427   0.497   3.628
 9086TIP3    H227223   5.445   0.564   3.762
 9087TIP3   OH227224   2.038   4.824   3.887
 9087TIP3    H127225   2.084   4.907   3.872
 9087TIP3    H227226   1.960   4.830   3.831
 9088TIP3   OH227227   5.539   1.289   2.436
 9088TIP3    H127228   5.560   1.243   2.518
 9088TIP3    H227229   5.584   1.238   2.369
 9089TIP3   OH227230   4.652   3.991   2.959
 9089TIP3    H127231   4.620   4.056   2.896
 9089TIP3    H227232   4.747   3.999   2.956
 9090TIP3   OH227233   2.516   4.804   0.353
 9090TIP3    H127234   2.529   4.810   0.447
 9090TIP3    H227235   2.424   4.829   0.340
 9091TIP3   OH227236   4.204   1.199   5.392
 9091TIP3    H127237   4.164   1.286   5.391
 9091TIP3    H227238   4.289   1.211   5.349
 9092TIP3   OH227239   0.539   5.208   2.337
 9092TIP3    H127240   0.616   5.196   2.393
 9092TIP3    H227241   0.467   5.167   2.386
 9093TIP3   OH227242   0.550   2.748   1.322
 9093TIP3    H127243   0.591   2.754   1.236
 9093TIP3    H227244   0.460   2.720   1.304
 9094TIP3   OH227245   3.719   6.633   0.610
 9094TIP3    H127246   3.767   6.608   0.531
 9094TIP3    H227247   3.637   6.669   0.578
 9095TIP3   OH227248   7.004   5.750   4.512
 9095TIP3    H127249   7.084   5.775   4.557
 9095TIP3    H227250   6.981   5.665   4.549
 9096TIP3   OH227251   4.272   3.002   5.446
 9096TIP3    H127252   4.366   2.985   5.436
 9096TIP3    H227253   4.266   3.098   5.448
 9097TIP3   OH227254   0.099   2.929   0.949
 9097TIP3    H127255   0.120   2.837   0.968
 9097TIP3    H227256   0.122   2.975   1.030
 9098TIP3   OH227257   2.188   1.218   0.380
 9098TIP3    H127258   2.222   1.139   0.422
 9098TIP3    H227259   2.103   1.192   0.345
 9099TIP3   OH227260   4.950   5.610   1.862
 9099TIP3    H127261   4.976   5.532   1.812
 9099TIP3    H227262   5.008   5.679   1.829
 9100TIP3   OH227263   4.616   0.789   3.239
 9100TIP3    H127264   4.704   0.783   3.276
 9100TIP3    H227265   4.617   0.871   3.190
 9101TIP3   OH227266   4.257   5.346   1.865
 9101TIP3    H127267   4.219   5.341   1.778
 9101TIP3    H227268   4.191   5.390   1.918
 9102TIP3   OH227269   3.699   2.407   1.497
 9102TIP3    H127270   3.623   2.361   1.461
 9102TIP3    H227271   3.721   2.472   1.430
 9103TIP3   OH227272   3.420   3.230   5.872
 9103TIP3    H127273   3.324   3.225   5.874
 9103TIP3    H227274   3.444   3.270   5.956
 9104TIP3   OH227275   0.230   3.697   3.872
 9104TIP3    H127276   0.277   3.778   3.887
 9104TIP3    H227277   0.138   3.723   3.867
 9105TIP3   OH227278   3.518   4.021   3.020
 9105TIP3    H127279   3.537   4.109   3.051
 9105TIP3    H227280   3.424   4.021   3.003
 9106TIP3   OH227281   6.402   0.093   1.803
 9106TIP3    H127282   6.333   0.139   1.755
 9106TIP3    H227283   6.479   0.101   1.748
 9107TIP3   OH227284   0.577   3.180   5.762
 9107TIP3    H127285   0.525   3.132   5.697
 9107TIP3    H227286   0.548   3.145   5.846
 9108TIP3   OH227287   2.163   2.471   5.037
 9108TIP3    H127288   2.157   2.432   4.950
 9108TIP3    H227289   2.160   2.397   5.097
 9109TIP3   OH227290   0.752   1.562   0.642
 9109TIP3    H127291   0.847   1.568   0.628
 9109TIP3    H227292   0.716   1.639   0.598
 9110TIP3   OH227293   6.112   2.245   5.414
 9110TIP3    H127294   6.127   2.287   5.329
 9110TIP3    H227295   6.081   2.316   5.471
 9111TIP3   OH227296   3.066   1.496   3.651
 9111TIP3    H127297   3.007   1.453   3.713
 9111TIP3    H227298   3.151   1.496   3.696
 9112TIP3   OH227299   4.522   3.664   3.327
 9112TIP3    H127300   4.565   3.694   3.246
 9112TIP3    H227301   4.434   3.638   3.299
 9113TIP3   OH227302   3.642   5.337   1.351
 9113TIP3    H127303   3.676   5.390   1.423
 9113TIP3    H227304   3.685   5.373   1.273
 9114TIP3   OH227305   7.076   1.689   0.954
 9114TIP3    H127306   7.113   1.757   1.010
 9114TIP3    H227307   7.129   1.611   0.972
 9115TIP3   OH227308   2.948   6.634   5.338
 9115TIP3    H127309   3.034   6.677   5.347
 9115TIP3    H227310   2.964   6.560   5.280
 9116TIP3   OH227311   0.991   0.608   5.043
 9116TIP3    H127312   0.917   0.567   5.089
 9116TIP3    H227313   1.040   0.535   5.006
 9117TIP3   OH227314   2.605   0.791   3.769
 9117TIP3    H127315   2.627   0.733   3.843
 9117TIP3    H227316   2.685   0.794   3.716
 9118TIP3   OH227317   6.655   4.724   1.412
 9118TIP3    H127318   6.713   4.681   1.350
 9118TIP3    H227319   6.567   4.712   1.375
 9119TIP3   OH227320   0.570   1.454   4.678
 9119TIP3    H127321   0.648   1.507   4.695
 9119TIP3    H227322   0.538   1.430   4.764
 9120TIP3   OH227323   2.889   1.326   3.791
 9120TIP3    H127324   2.797   1.346   3.804
 9120TIP3    H227325   2.917   1.286   3.873
 9121TIP3   OH227326   3.466   0.521   2.552
 9121TIP3    H127327   3.522   0.467   2.607
 9121TIP3    H227328   3.513   0.603   2.542
 9122TIP3   OH227329   5.558   1.007   0.051
 9122TIP3    H127330   5.584   0.964  -0.031
 9122TIP3    H227331   5.463   1.014   0.045
 9123TIP3   OH227332   0.485   2.612   4.927
 9123TIP3    H127333   0.493   2.547   4.997
 9123TIP3    H227334   0.500   2.562   4.846
 9124TIP3   OH227335   0.901   5.020   2.975
 9124TIP3    H127336   0.888   5.017   3.070
 9124TIP3    H227337   0.837   4.958   2.940
 9125TIP3   OH227338   2.608   6.266   3.294
 9125TIP3    H127339   2.598   6.181   3.252
 9125TIP3    H227340   2.676   6.252   3.360
 9126TIP3   OH227341   6.121   5.534   4.698
 9126TIP3    H127342   6.084   5.610   4.741
 9126TIP3    H227343   6.177   5.570   4.629
 9127TIP3   OH227344   4.760   3.101   2.717
 9127TIP3    H127345   4.741   3.195   2.717
 9127TIP3    H227346   4.695   3.063   2.774
 9128TIP3   OH227347   1.430   1.655   3.373
 9128TIP3    H127348   1.387   1.589   3.319
 9128TIP3    H227349   1.363   1.680   3.437
 9129TIP3   OH227350   5.110   0.541   1.734
 9129TIP3    H127351   5.054   0.497   1.798
 9129TIP3    H227352   5.050   0.583   1.673
 9130TIP3   OH227353   2.991   5.036   4.635
 9130TIP3    H127354   2.958   4.947   4.627
 9130TIP3    H227355   3.086   5.025   4.644
 9131TIP3   OH227356   5.779   1.725   5.330
 9131TIP3    H127357   5.755   1.746   5.420
 9131TIP3    H227358   5.740   1.794   5.277
 9132TIP3   OH227359   6.064   0.649   3.444
 9132TIP3    H127360   6.053   0.675   3.352
 9132TIP3    H227361   6.100   0.561   3.439
 9133TIP3   OH227362   0.545   3.375   2.576
 9133TIP3    H127363   0.620   3.320   2.600
 9133TIP3    H227364   0.472   3.337   2.625
 9134TIP3   OH227365   6.471   1.622   2.016
 9134TIP3    H127366   6.386   1.608   2.060
 9134TIP3    H227367   6.514   1.536   2.019
 9135TIP3   OH227368   5.224   6.403   5.695
 9135TIP3    H127369   5.228   6.455   5.616
 9135TIP3    H227370   5.154   6.443   5.747
 9136TIP3   OH227371   2.999   0.832   5.510
 9136TIP3    H127372   3.025   0.797   5.595
 9136TIP3    H227373   2.916   0.790   5.490
 9137TIP3   OH227374   3.282   4.957   4.057
 9137TIP3    H127375   3.322   4.893   4.117
 9137TIP3    H227376   3.200   4.982   4.100
 9138TIP3   OH227377   4.964   2.638   0.174
 9138TIP3    H127378   5.055   2.617   0.193
 9138TIP3    H227379   4.939   2.703   0.240
 9139TIP3   OH227380   3.712   5.039   1.285
 9139TIP3    H127381   3.686   4.951   1.310
 9139TIP3    H227382   3.722   5.086   1.368
 9140TIP3   OH227383   1.708   3.555   0.264
 9140TIP3    H127384   1.707   3.624   0.197
 9140TIP3    H227385   1.793   3.512   0.252
 9141TIP3   OH227386   4.255   2.697   0.448
 9141TIP3    H127387   4.168   2.675   0.479
 9141TIP3    H227388   4.243   2.723   0.357
 9142TIP3   OH227389   3.851   4.565   1.609
 9142TIP3    H127390   3.771   4.514   1.618
 9142TIP3    H227391   3.909   4.533   1.678
 9143TIP3   OH227392   2.329   3.859   4.018
 9143TIP3    H127393   2.365   3.789   4.072
 9143TIP3    H227394   2.404   3.894   3.970
 9144TIP3   OH227395   5.284   6.209   0.412
 9144TIP3    H127396   5.199   6.251   0.398
 9144TIP3    H227397   5.342   6.249   0.346
 9145TIP3   OH227398   1.237   4.750   4.122
 9145TIP3    H127399   1.162   4.690   4.133
 9145TIP3    H227400   1.280   4.750   4.208
 9146TIP3   OH227401   3.239   6.590   5.225
 9146TIP3    H127402   3.323   6.575   5.268
 9146TIP3    H227403   3.239   6.684   5.205
 9147TIP3   OH227404   2.804   0.871   3.495
 9147TIP3    H127405   2.875   0.878   3.432
 9147TIP3    H227406   2.826   0.933   3.564
 9148TIP3   OH227407   3.916   3.876   4.489
 9148TIP3    H127408   3.910   3.961   4.533
 9148TIP3    H227409   3.825   3.844   4.487
 9149TIP3   OH227410   6.227   5.210   1.690
 9149TIP3    H127411   6.206   5.262   1.768
 9149TIP3    H227412   6.300   5.256   1.649
 9150TIP3   OH227413   4.567   0.424   2.738
 9150TIP3    H127414   4.613   0.424   2.653
 9150TIP3    H227415   4.545   0.516   2.753
 9151TIP3   OH227416   1.844   6.681   1.929
 9151TIP3    H127417   1.851   6.775   1.946
 9151TIP3    H227418   1.928   6.657   1.890
 9152TIP3   OH227419   7.173   6.365   2.366
 9152TIP3    H127420   7.087   6.337   2.335
 9152TIP3    H227421   7.183   6.454   2.334
 9153TIP3   OH227422   0.688   2.517   1.828
 9153TIP3    H127423   0.638   2.545   1.751
 9153TIP3    H227424   0.775   2.555   1.815
 9154TIP3   OH227425   1.337   2.054   4.927
 9154TIP3    H127426   1.424   2.076   4.895
 9154TIP3    H227427   1.279   2.118   4.885
 9155TIP3   OH227428   4.000   3.148   5.285
 9155TIP3    H127429   4.066   3.217   5.286
 9155TIP3    H227430   4.015   3.099   5.366
 9156TIP3   OH227431   0.663   4.238   4.668
 9156TIP3    H127432   0.713   4.175   4.720
 9156TIP3    H227433   0.695   4.225   4.578
 9157TIP3   OH227434   2.392   0.863   4.761
 9157TIP3    H127435   2.476   0.817   4.766
 9157TIP3    H227436   2.339   0.824   4.831
 9158TIP3   OH227437   1.410   3.802   1.089
 9158TIP3    H127438   1.344   3.868   1.068
 9158TIP3    H227439   1.476   3.812   1.020
 9159TIP3   OH227440   5.150   1.812   0.831
 9159TIP3    H127441   5.077   1.780   0.778
 9159TIP3    H227442   5.225   1.812   0.771
 9160TIP3   OH227443   6.608   1.789   2.243
 9160TIP3    H127444   6.532   1.744   2.207
 9160TIP3    H227445   6.578   1.878   2.261
 9161TIP3   OH227446   5.690   2.141   4.958
 9161TIP3    H127447   5.636   2.206   5.002
 9161TIP3    H227448   5.779   2.160   4.987
 9162TIP3   OH227449   0.754   3.344   3.629
 9162TIP3    H127450   0.792   3.399   3.699
 9162TIP3    H227451   0.739   3.259   3.671
 9163TIP3   OH227452   0.211   5.118   4.696
 9163TIP3    H127453   0.185   5.204   4.660
 9163TIP3    H227454   0.284   5.091   4.641
 9164TIP3   OH227455   6.128   1.394   1.834
 9164TIP3    H127456   6.172   1.468   1.793
 9164TIP3    H227457   6.054   1.433   1.881
 9165TIP3   OH227458   2.477   0.431   2.878
 9165TIP3    H127459   2.523   0.379   2.812
 9165TIP3    H227460   2.498   0.387   2.961
 9166TIP3   OH227461   4.663   1.726   0.676
 9166TIP3    H127462   4.644   1.792   0.743
 9166TIP3    H227463   4.758   1.732   0.662
 9167TIP3   OH227464   4.700   6.376   2.544
 9167TIP3    H127465   4.612   6.344   2.567
 9167TIP3    H227466   4.703   6.369   2.448
 9168TIP3   OH227467   3.577   6.264   4.755
 9168TIP3    H127468   3.668   6.236   4.753
 9168TIP3    H227469   3.577   6.346   4.805
 9169TIP3   OH227470   3.625   3.467   2.270
 9169TIP3    H127471   3.639   3.475   2.365
 9169TIP3    H227472   3.534   3.492   2.258
 9170TIP3   OH227473   3.656   1.505   3.532
 9170TIP3    H127474   3.630   1.572   3.596
 9170TIP3    H227475   3.667   1.553   3.450
 9171TIP3   OH227476   1.603   3.686   4.716
 9171TIP3    H127477   1.658   3.636   4.777
 9171TIP3    H227478   1.664   3.745   4.672
 9172TIP3   OH227479   0.529   3.113   0.837
 9172TIP3    H127480   0.531   3.178   0.907
 9172TIP3    H227481   0.522   3.165   0.757
 9173TIP3   OH227482   6.897   1.049   5.529
 9173TIP3    H127483   6.846   1.027   5.450
 9173TIP3    H227484   6.849   1.006   5.600
 9174TIP3   OH227485   3.285   6.162   2.094
 9174TIP3    H127486   3.192   6.157   2.071
 9174TIP3    H227487   3.298   6.254   2.118
 9175TIP3   OH227488   3.732   0.384   4.887
 9175TIP3    H127489   3.658   0.347   4.839
 9175TIP3    H227490   3.802   0.319   4.878
 9176TIP3   OH227491   4.822   4.884   1.879
 9176TIP3    H127492   4.881   4.959   1.876
 9176TIP3    H227493   4.879   4.808   1.882
 9177TIP3   OH227494   7.022   5.133   2.530
 9177TIP3    H127495   6.930   5.155   2.514
 9177TIP3    H227496   7.023   5.038   2.540
 9178TIP3   OH227497   4.093   5.223   3.681
 9178TIP3    H127498   4.120   5.147   3.629
 9178TIP3    H227499   4.005   5.203   3.710
 9179TIP3   OH227500   1.244   0.132   0.879
 9179TIP3    H127501   1.274   0.201   0.938
 9179TIP3    H227502   1.158   0.162   0.850
 9180TIP3   OH227503   4.401   3.091   3.228
 9180TIP3    H127504   4.366   3.014   3.184
 9180TIP3    H227505   4.409   3.064   3.320
 9181TIP3   OH227506   1.591   2.729   2.823
 9181TIP3    H127507   1.503   2.739   2.786
 9181TIP3    H227508   1.600   2.635   2.838
 9182TIP3   OH227509   3.742   2.503   0.411
 9182TIP3    H127510   3.678   2.545   0.470
 9182TIP3    H227511   3.758   2.418   0.451
 9183TIP3   OH227512   4.033   3.453   5.601
 9183TIP3    H127513   4.113   3.505   5.597
 9183TIP3    H227514   4.058   3.368   5.565
 9184TIP3   OH227515   1.332   4.212   1.202
 9184TIP3    H127516   1.299   4.188   1.115
 9184TIP3    H227517   1.324   4.308   1.205
 9185TIP3   OH227518   5.079   4.305   1.747
 9185TIP3    H127519   5.110   4.266   1.665
 9185TIP3    H227520   5.134   4.264   1.814
 9186TIP3   OH227521   3.595   3.453   3.175
 9186TIP3    H127522   3.590   3.371   3.225
 9186TIP3    H227523   3.561   3.520   3.235
 9187TIP3   OH227524   1.573   1.042   3.020
 9187TIP3    H127525   1.631   0.966   3.020
 9187TIP3    H227526   1.617   1.105   2.963
 9188TIP3   OH227527   5.832   6.505   3.763
 9188TIP3    H127528   5.751   6.547   3.732
 9188TIP3    H227529   5.902   6.550   3.716
 9189TIP3   OH227530   2.269   3.283   4.793
 9189TIP3    H127531   2.354   3.308   4.828
 9189TIP3    H227532   2.268   3.187   4.800
 9190TIP3   OH227533   6.093   1.188   5.184
 9190TIP3    H127534   6.100   1.207   5.090
 9190TIP3    H227535   6.183   1.168   5.211
 9191TIP3   OH227536   0.061   4.631   0.973
 9191TIP3    H127537   0.064   4.720   0.937
 9191TIP3    H227538  -0.015   4.591   0.931
 9192TIP3   OH227539   4.297   6.544   3.755
 9192TIP3    H127540   4.319   6.461   3.796
 9192TIP3    H227541   4.379   6.595   3.758
 9193TIP3   OH227542   4.183   5.921   3.476
 9193TIP3    H127543   4.175   5.832   3.440
 9193TIP3    H227544   4.210   5.975   3.402
 9194TIP3   OH227545   0.933   6.718   2.380
 9194TIP3    H127546   0.921   6.740   2.288
 9194TIP3    H227547   0.900   6.628   2.388
 9195TIP3   OH227548   4.532   6.325   0.330
 9195TIP3    H127549   4.507   6.320   0.238
 9195TIP3    H227550   4.467   6.271   0.376
 9196TIP3   OH227551   6.596   5.919   5.754
 9196TIP3    H127552   6.673   5.863   5.741
 9196TIP3    H227553   6.628   6.007   5.738
 9197TIP3   OH227554   5.501   0.836   1.501
 9197TIP3    H127555   5.543   0.872   1.579
 9197TIP3    H227556   5.481   0.913   1.447
 9198TIP3   OH227557   1.294   4.699   3.431
 9198TIP3    H127558   1.329   4.700   3.520
 9198TIP3    H227559   1.332   4.776   3.389
 9199TIP3   OH227560   5.507   3.073   5.534
 9199TIP3    H127561   5.419   3.090   5.567
 9199TIP3    H227562   5.563   3.131   5.586
 9200TIP3   OH227563   0.231   5.995   1.036
 9200TIP3    H127564   0.215   5.938   1.112
 9200TIP3    H227565   0.148   6.040   1.022
 9201TIP3   OH227566   3.457   2.446   2.632
 9201TIP3    H127567   3.362   2.444   2.620
 9201TIP3    H227568   3.490   2.487   2.552
 9202TIP3   OH227569   5.919   5.500   0.287
 9202TIP3    H127570   5.968   5.477   0.208
 9202TIP3    H227571   5.945   5.591   0.305
 9203TIP3   OH227572   3.780   3.383   4.762
 9203TIP3    H127573   3.757   3.290   4.759
 9203TIP3    H227574   3.780   3.406   4.855
 9204TIP3   OH227575   5.689   1.875   1.650
 9204TIP3    H127576   5.606   1.828   1.655
 9204TIP3    H227577   5.735   1.837   1.575
 9205TIP3   OH227578   2.278   0.413   2.212
 9205TIP3    H127579   2.292   0.477   2.142
 9205TIP3    H227580   2.218   0.457   2.272
 9206TIP3   OH227581   2.250   1.418   4.503
 9206TIP3    H127582   2.219   1.508   4.498
 9206TIP3    H227583   2.184   1.367   4.457
 9207TIP3   OH227584   2.177   4.779   4.906
 9207TIP3    H127585   2.125   4.706   4.939
 9207TIP3    H227586   2.157   4.851   4.965
 9208TIP3   OH227587   5.566   6.003   3.181
 9208TIP3    H127588   5.639   6.064   3.188
 9208TIP3    H227589   5.513   6.037   3.109
 9209TIP3   OH227590   1.498   4.836   4.770
 9209TIP3    H127591   1.538   4.757   4.734
 9209TIP3    H227592   1.474   4.813   4.859
 9210TIP3   OH227593   2.468   1.001   2.385
 9210TIP3    H127594   2.486   0.975   2.475
 9210TIP3    H227595   2.444   0.920   2.341
 9211TIP3   OH227596   2.262   3.586   5.362
 9211TIP3    H127597   2.259   3.661   5.303
 9211TIP3    H227598   2.205   3.610   5.435
 9212TIP3   OH227599   5.308   4.869   4.938
 9212TIP3    H127600   5.288   4.961   4.924
 9212TIP3    H227601   5.379   4.850   4.878
 9213TIP3   OH227602   1.552   2.649   2.165
 9213TIP3    H127603   1.596   2.627   2.247
 9213TIP3    H227604   1.459   2.636   2.184
 9214TIP3   OH227605   2.418   3.612   3.888
 9214TIP3    H127606   2.370   3.628   3.807
 9214TIP3    H227607   2.381   3.531   3.922
 9215TIP3   OH227608   2.010   2.439   3.191
 9215TIP3    H127609   2.015   2.395   3.106
 9215TIP3    H227610   1.923   2.418   3.224
 9216TIP3   OH227611   6.874   4.915   2.143
 9216TIP3    H127612   6.843   4.826   2.128
 9216TIP3    H227613   6.932   4.933   2.069
 9217TIP3   OH227614   4.211   6.600   2.754
 9217TIP3    H127615   4.253   6.580   2.671
 9217TIP3    H227616   4.259   6.675   2.788
 9218TIP3   OH227617   5.847   2.036   1.388
 9218TIP3    H127618   5.880   2.105   1.445
 9218TIP3    H227619   5.885   1.956   1.422
 9219TIP3   OH227620   0.639   4.317   2.554
 9219TIP3    H127621   0.673   4.331   2.642
 9219TIP3    H227622   0.709   4.271   2.508
 9220TIP3   OH227623   4.056   1.905   5.539
 9220TIP3    H127624   4.151   1.901   5.550
 9220TIP3    H227625   4.034   1.996   5.556
 9221TIP3   OH227626   2.008   3.753   2.107
 9221TIP3    H127627   1.991   3.700   2.185
 9221TIP3    H227628   1.943   3.823   2.111
 9222TIP3   OH227629   4.066   1.411   5.212
 9222TIP3    H127630   4.005   1.345   5.178
 9222TIP3    H227631   4.011   1.471   5.262
 9223TIP3   OH227632   4.703   2.514   2.581
 9223TIP3    H127633   4.739   2.507   2.669
 9223TIP3    H227634   4.616   2.475   2.587
 9224TIP3   OH227635   4.556   0.108   5.504
 9224TIP3    H127636   4.488   0.049   5.471
 9224TIP3    H227637   4.526   0.134   5.591
 9225TIP3   OH227638   0.029   2.213   1.509
 9225TIP3    H127639   0.028   2.122   1.538
 9225TIP3    H227640   0.114   2.247   1.536
 9226TIP3   OH227641   2.935   0.964   4.551
 9226TIP3    H127642   3.016   1.003   4.585
 9226TIP3    H227643   2.965   0.892   4.496
 9227TIP3   OH227644   2.796   4.219   0.182
 9227TIP3    H127645   2.796   4.266   0.099
 9227TIP3    H227646   2.766   4.131   0.160
 9228TIP3   OH227647   7.178   1.096   0.782
 9228TIP3    H127648   7.129   1.094   0.864
 9228TIP3    H227649   7.142   1.170   0.734
 9229TIP3   OH227650   4.395  -0.036   3.131
 9229TIP3    H127651   4.425   0.003   3.049
 9229TIP3    H227652   4.449   0.006   3.198
 9230TIP3   OH227653   2.768   6.064   2.781
 9230TIP3    H127654   2.788   6.158   2.780
 9230TIP3    H227655   2.673   6.060   2.768
 9231TIP3   OH227656   5.353   4.911   3.819
 9231TIP3    H127657   5.392   4.831   3.785
 9231TIP3    H227658   5.389   4.920   3.907
 9232TIP3   OH227659   0.289   5.223   2.866
 9232TIP3    H127660   0.275   5.284   2.938
 9232TIP3    H227661   0.239   5.259   2.793
 9233TIP3   OH227662   4.687   4.143   4.516
 9233TIP3    H127663   4.609   4.088   4.522
 9233TIP3    H227664   4.758   4.081   4.498
 9234TIP3   OH227665   4.386   5.684   5.250
 9234TIP3    H127666   4.440   5.644   5.318
 9234TIP3    H227667   4.446   5.742   5.203
 9235TIP3   OH227668   3.727   5.315   0.992
 9235TIP3    H127669   3.635   5.341   0.995
 9235TIP3    H227670   3.759   5.353   0.910
 9236TIP3   OH227671   4.314   4.054   1.048
 9236TIP3    H127672   4.383   4.067   0.983
 9236TIP3    H227673   4.282   4.142   1.067
 9237TIP3   OH227674   2.231   4.066   4.321
 9237TIP3    H127675   2.320   4.050   4.290
 9237TIP3    H227676   2.242   4.135   4.387
 9238TIP3   OH227677   4.899   5.531   4.003
 9238TIP3    H127678   4.954   5.593   4.051
 9238TIP3    H227679   4.844   5.587   3.947
 9239TIP3   OH227680   5.638   2.913   3.776
 9239TIP3    H127681   5.696   2.852   3.823
 9239TIP3    H227682   5.658   2.898   3.683
 9240TIP3   OH227683   0.316   3.939   5.052
 9240TIP3    H127684   0.408   3.914   5.058
 9240TIP3    H227685   0.283   3.890   4.976
 9241TIP3   OH227686   3.267   2.684   3.615
 9241TIP3    H127687   3.172   2.696   3.615
 9241TIP3    H227688   3.280   2.597   3.576
 9242TIP3   OH227689   6.767   1.466   5.710
 9242TIP3    H127690   6.714   1.388   5.724
 9242TIP3    H227691   6.709   1.539   5.729
 9243TIP3   OH227692   3.385   3.035   0.994
 9243TIP3    H127693   3.352   3.084   1.070
 9243TIP3    H227694   3.313   2.975   0.972
 9244TIP3   OH227695   1.692   1.732   5.000
 9244TIP3    H127696   1.661   1.728   4.910
 9244TIP3    H227697   1.788   1.727   4.993
 9245TIP3   OH227698   5.505   5.839   5.847
 9245TIP3    H127699   5.537   5.776   5.783
 9245TIP3    H227700   5.456   5.903   5.796
 9246TIP3   OH227701   6.182   3.051   5.439
 9246TIP3    H127702   6.141   3.023   5.521
 9246TIP3    H227703   6.273   3.023   5.446
 9247TIP3   OH227704   6.356   4.057   1.266
 9247TIP3    H127705   6.388   4.063   1.356
 9247TIP3    H227706   6.304   4.137   1.255
 9248TIP3   OH227707   4.694   0.392   5.673
 9248TIP3    H127708   4.601   0.372   5.668
 9248TIP3    H227709   4.719   0.367   5.761
 9249TIP3   OH227710   0.723   3.568   4.077
 9249TIP3    H127711   0.671   3.523   4.009
 9249TIP3    H227712   0.660   3.625   4.121
 9250TIP3   OH227713   3.832   0.189   4.193
 9250TIP3    H127714   3.791   0.115   4.148
 9250TIP3    H227715   3.866   0.151   4.274
 9251TIP3   OH227716   2.758   2.665   3.498
 9251TIP3    H127717   2.742   2.664   3.404
 9251TIP3    H227718   2.705   2.593   3.532
 9252TIP3   OH227719   1.516   2.042   1.120
 9252TIP3    H127720   1.460   2.120   1.113
 9252TIP3    H227721   1.500   2.010   1.208
 9253TIP3   OH227722   5.957   1.793   1.492
 9253TIP3    H127723   5.906   1.729   1.541
 9253TIP3    H227724   6.023   1.742   1.446
 9254TIP3   OH227725   4.221   5.702   5.886
 9254TIP3    H127726   4.290   5.681   5.823
 9254TIP3    H227727   4.245   5.653   5.965
 9255TIP3   OH227728   1.005   6.178   0.380
 9255TIP3    H127729   0.934   6.137   0.331
 9255TIP3    H227730   1.061   6.105   0.406
 9256TIP3   OH227731   3.072   3.647   2.252
 9256TIP3    H127732   3.166   3.659   2.265
 9256TIP3    H227733   3.033   3.729   2.284
 9257TIP3   OH227734   3.382   3.685   3.622
 9257TIP3    H127735   3.384   3.736   3.702
 9257TIP3    H227736   3.337   3.604   3.646
 9258TIP3   OH227737   5.897   3.178   4.484
 9258TIP3    H127738   5.883   3.183   4.390
 9258TIP3    H227739   5.849   3.252   4.520
 9259TIP3   OH227740   1.177   2.381   1.264
 9259TIP3    H127741   1.093   2.428   1.265
 9259TIP3    H227742   1.232   2.427   1.327
 9260TIP3   OH227743   2.541   5.567   1.976
 9260TIP3    H127744   2.505   5.547   1.890
 9260TIP3    H227745   2.598   5.492   1.996
 9261TIP3   OH227746   0.909   0.806   4.880
 9261TIP3    H127747   0.955   0.745   4.937
 9261TIP3    H227748   0.951   0.891   4.896
 9262TIP3   OH227749   5.582   6.284   0.347
 9262TIP3    H127750   5.597   6.302   0.439
 9262TIP3    H227751   5.651   6.332   0.301
 9263TIP3   OH227752   0.785   4.960   5.221
 9263TIP3    H127753   0.762   4.969   5.128
 9263TIP3    H227754   0.877   4.935   5.221
 9264TIP3   OH227755   3.548   5.482   5.129
 9264TIP3    H127756   3.501   5.461   5.049
 9264TIP3    H227757   3.634   5.512   5.099
 9265TIP3   OH227758   1.417   6.103   1.074
 9265TIP3    H127759   1.506   6.092   1.041
 9265TIP3    H227760   1.425   6.097   1.169
 9266TIP3   OH227761   0.566   5.852   2.114
 9266TIP3    H127762   0.555   5.947   2.117
 9266TIP3    H227763   0.606   5.835   2.029
 9267TIP3   OH227764   0.693   4.490   4.033
 9267TIP3    H127765   0.706   4.473   4.126
 9267TIP3    H227766   0.695   4.403   3.993
 9268TIP3   OH227767   2.125   1.658   2.127
 9268TIP3    H127768   2.083   1.622   2.049
 9268TIP3    H227769   2.212   1.685   2.097
 9269TIP3   OH227770   6.262   3.647   5.117
 9269TIP3    H127771   6.243   3.740   5.104
 9269TIP3    H227772   6.332   3.628   5.055
 9270TIP3   OH227773   0.202   1.991   2.512
 9270TIP3    H127774   0.290   1.968   2.481
 9270TIP3    H227775   0.170   2.054   2.447
 9271TIP3   OH227776   3.388   2.323   2.885
 9271TIP3    H127777   3.369   2.255   2.949
 9271TIP3    H227778   3.315   2.319   2.822
 9272TIP3   OH227779   5.769   1.718   1.056
 9272TIP3    H127780   5.765   1.804   1.098
 9272TIP3    H227781   5.841   1.726   0.993
 9273TIP3   OH227782   6.650   1.133   5.065
 9273TIP3    H127783   6.574   1.147   5.121
 9273TIP3    H227784   6.615   1.088   4.988
 9274TIP3   OH227785   6.481   5.327   2.599
 9274TIP3    H127786   6.561   5.303   2.551
 9274TIP3    H227787   6.481   5.270   2.675
 9275TIP3   OH227788   0.556   3.032   3.830
 9275TIP3    H127789   0.609   2.952   3.835
 9275TIP3    H227790   0.555   3.054   3.737
 9276TIP3   OH227791   2.773   6.156   3.490
 9276TIP3    H127792   2.838   6.090   3.469
 9276TIP3    H227793   2.823   6.233   3.515
 9277TIP3   OH227794   2.581   2.429   3.971
 9277TIP3    H127795   2.572   2.336   3.949
 9277TIP3    H227796   2.512   2.472   3.920
 9278TIP3   OH227797   2.756   5.042   4.385
 9278TIP3    H127798   2.710   5.055   4.467
 9278TIP3    H227799   2.688   5.048   4.318
 9279TIP3   OH227800   4.773   4.825   3.884
 9279TIP3    H127801   4.694   4.807   3.934
 9279TIP3    H227802   4.824   4.744   3.887
 9280TIP3   OH227803   2.232   5.237   2.718
 9280TIP3    H127804   2.273   5.307   2.769
 9280TIP3    H227805   2.233   5.161   2.775
 9281TIP3   OH227806   6.788   1.086   0.260
 9281TIP3    H127807   6.852   1.095   0.330
 9281TIP3    H227808   6.808   1.001   0.219
 9282TIP3   OH227809   0.563   3.437   5.868
 9282TIP3    H127810   0.469   3.448   5.856
 9282TIP3    H227811   0.581   3.349   5.835
 9283TIP3   OH227812   6.624   2.466   4.780
 9283TIP3    H127813   6.607   2.505   4.866
 9283TIP3    H227814   6.718   2.479   4.767
 9284TIP3   OH227815   2.726   4.734   4.777
 9284TIP3    H127816   2.659   4.680   4.736
 9284TIP3    H227817   2.687   4.762   4.860
 9285TIP3   OH227818   0.348   2.183   3.600
 9285TIP3    H127819   0.402   2.225   3.667
 9285TIP3    H227820   0.409   2.130   3.549
 9286TIP3   OH227821   1.393   4.711   0.702
 9286TIP3    H127822   1.483   4.725   0.670
 9286TIP3    H227823   1.357   4.799   0.710
 9287TIP3   OH227824   3.315   0.075   5.856
 9287TIP3    H127825   3.277   0.110   5.936
 9287TIP3    H227826   3.408   0.098   5.861
 9288TIP3   OH227827   6.084   2.084   2.109
 9288TIP3    H127828   6.149   2.019   2.083
 9288TIP3    H227829   6.016   2.033   2.153
 9289TIP3   OH227830   6.280   4.667   4.216
 9289TIP3    H127831   6.311   4.756   4.204
 9289TIP3    H227832   6.321   4.638   4.298
 9290TIP3   OH227833   0.126   4.517   4.483
 9290TIP3    H127834   0.138   4.518   4.388
 9290TIP3    H227835   0.047   4.465   4.497
 9291TIP3   OH227836   3.041   2.873   4.770
 9291TIP3    H127837   3.090   2.943   4.813
 9291TIP3    H227838   2.984   2.837   4.838
 9292TIP3   OH227839   6.521   3.761   3.003
 9292TIP3    H127840   6.436   3.749   2.960
 9292TIP3    H227841   6.501   3.812   3.081
 9293TIP3   OH227842   1.196   6.754   4.078
 9293TIP3    H127843   1.267   6.698   4.108
 9293TIP3    H227844   1.179   6.725   3.988
 9294TIP3   OH227845   5.251   1.744   5.092
 9294TIP3    H127846   5.344   1.721   5.101
 9294TIP3    H227847   5.207   1.690   5.158
 9295TIP3   OH227848   4.150   4.267   1.828
 9295TIP3    H127849   4.146   4.200   1.897
 9295TIP3    H227850   4.243   4.286   1.818
 9296TIP3   OH227851   0.781   6.074   4.303
 9296TIP3    H127852   0.711   6.096   4.364
 9296TIP3    H227853   0.791   6.152   4.249
 9297TIP3   OH227854   1.070   2.305   5.217
 9297TIP3    H127855   1.058   2.395   5.247
 9297TIP3    H227856   1.063   2.252   5.296
 9298TIP3   OH227857   3.973   1.242   3.383
 9298TIP3    H127858   3.914   1.220   3.456
 9298TIP3    H227859   4.041   1.175   3.386
 9299TIP3   OH227860   4.991   5.104   3.376
 9299TIP3    H127861   4.926   5.094   3.446
 9299TIP3    H227862   4.940   5.128   3.300
 9300TIP3   OH227863   4.558   5.540   4.184
 9300TIP3    H127864   4.586   5.501   4.101
 9300TIP3    H227865   4.550   5.633   4.166
 9301TIP3   OH227866   0.149   1.434   0.576
 9301TIP3    H127867   0.178   1.355   0.530
 9301TIP3    H227868   0.059   1.447   0.548
 9302TIP3   OH227869   1.753   4.178   0.311
 9302TIP3    H127870   1.759   4.272   0.296
 9302TIP3    H227871   1.823   4.159   0.373
 9303TIP3   OH227872   3.004   2.921   0.680
 9303TIP3    H127873   2.937   2.958   0.737
 9303TIP3    H227874   3.081   2.977   0.695
 9304TIP3   OH227875   2.379   0.772   2.213
 9304TIP3    H127876   2.400   0.705   2.278
 9304TIP3    H227877   2.374   0.723   2.130
 9305TIP3   OH227878   1.254   6.119   3.363
 9305TIP3    H127879   1.190   6.100   3.431
 9305TIP3    H227880   1.228   6.205   3.330
 9306TIP3   OH227881   3.205   1.308   5.505
 9306TIP3    H127882   3.288   1.266   5.525
 9306TIP3    H227883   3.139   1.250   5.542
 9307TIP3   OH227884   3.520   2.665   4.805
 9307TIP3    H127885   3.582   2.698   4.870
 9307TIP3    H227886   3.473   2.595   4.851
 9308TIP3   OH227887   1.421   6.415   1.304
 9308TIP3    H127888   1.473   6.336   1.318
 9308TIP3    H227889   1.331   6.388   1.323
 9309TIP3   OH227890   3.926   6.082   1.704
 9309TIP3    H127891   3.870   6.065   1.628
 9309TIP3    H227892   3.871   6.134   1.763
 9310TIP3   OH227893   1.965   1.436   2.423
 9310TIP3    H127894   1.938   1.365   2.480
 9310TIP3    H227895   2.038   1.478   2.469
 9311TIP3   OH227896   3.089   0.789   0.534
 9311TIP3    H127897   3.096   0.880   0.504
 9311TIP3    H227898   3.051   0.795   0.621
 9312TIP3   OH227899   4.111   5.914   1.811
 9312TIP3    H127900   4.032   5.951   1.773
 9312TIP3    H227901   4.170   5.901   1.736
 9313TIP3   OH227902   3.212   2.236   5.642
 9313TIP3    H127903   3.129   2.196   5.614
 9313TIP3    H227904   3.262   2.163   5.679
 9314TIP3   OH227905   4.669   5.455   4.427
 9314TIP3    H127906   4.751   5.502   4.441
 9314TIP3    H227907   4.640   5.482   4.339
 9315TIP3   OH227908   5.651   5.563   3.688
 9315TIP3    H127909   5.638   5.568   3.783
 9315TIP3    H227910   5.731   5.512   3.678
 9316TIP3   OH227911   3.908  -0.009   5.141
 9316TIP3    H127912   3.987   0.005   5.194
 9316TIP3    H227913   3.839  -0.027   5.204
 9317TIP3   OH227914   3.767   5.209   4.325
 9317TIP3    H127915   3.806   5.211   4.238
 9317TIP3    H227916   3.681   5.250   4.314
 9318TIP3   OH227917   3.502   5.465   2.981
 9318TIP3    H127918   3.419   5.457   2.935
 9318TIP3    H227919   3.537   5.376   2.982
 9319TIP3   OH227920   2.151   5.637   5.543
 9319TIP3    H127921   2.126   5.565   5.485
 9319TIP3    H227922   2.157   5.598   5.630
 9320TIP3   OH227923   5.705   3.776   0.576
 9320TIP3    H127924   5.627   3.771   0.521
 9320TIP3    H227925   5.768   3.826   0.524
 9321TIP3   OH227926   0.481   1.836   3.242
 9321TIP3    H127927   0.387   1.844   3.226
 9321TIP3    H227928   0.494   1.744   3.263
 9322TIP3   OH227929   5.914   6.408   0.672
 9322TIP3    H127930   5.819   6.400   0.665
 9322TIP3    H227931   5.930   6.420   0.766
 9323TIP3   OH227932   4.553   3.588   3.755
 9323TIP3    H127933   4.621   3.639   3.710
 9323TIP3    H227934   4.543   3.632   3.840
 9324TIP3   OH227935   7.272   6.398   5.785
 9324TIP3    H127936   7.306   6.398   5.696
 9324TIP3    H227937   7.204   6.331   5.786
 9325TIP3   OH227938   5.553   1.567   3.211
 9325TIP3    H127939   5.515   1.480   3.222
 9325TIP3    H227940   5.647   1.553   3.217
 9326TIP3   OH227941   6.877   5.331   1.464
 9326TIP3    H127942   6.823   5.410   1.471
 9326TIP3    H227943   6.951   5.348   1.522
 9327TIP3   OH227944   0.462   2.095   4.793
 9327TIP3    H127945   0.425   2.066   4.710
 9327TIP3    H227946   0.441   2.024   4.854
 9328TIP3   OH227947   1.505   6.637   1.422
 9328TIP3    H127948   1.501   6.704   1.353
 9328TIP3    H227949   1.448   6.567   1.390
 9329TIP3   OH227950   3.051   5.458   1.100
 9329TIP3    H127951   3.033   5.545   1.136
 9329TIP3    H227952   2.967   5.429   1.064
 9330TIP3   OH227953   5.881   6.250   5.600
 9330TIP3    H127954   5.833   6.325   5.634
 9330TIP3    H227955   5.815   6.196   5.558
 9331TIP3   OH227956   2.735   2.605   5.469
 9331TIP3    H127957   2.764   2.534   5.411
 9331TIP3    H227958   2.740   2.684   5.415
 9332TIP3   OH227959   2.193   4.925   4.435
 9332TIP3    H127960   2.153   4.848   4.474
 9332TIP3    H227961   2.120   4.988   4.427
 9333TIP3   OH227962   4.800   4.530   0.016
 9333TIP3    H127963   4.769   4.613  -0.019
 9333TIP3    H227964   4.885   4.516  -0.027
 9334TIP3   OH227965   3.479   0.631   4.984
 9334TIP3    H127966   3.464   0.546   5.024
 9334TIP3    H227967   3.568   0.626   4.950
 9335TIP3   OH227968   5.926   2.111   0.196
 9335TIP3    H127969   5.886   2.197   0.189
 9335TIP3    H227970   5.878   2.056   0.135
 9336TIP3   OH227971   0.126   2.668   1.017
 9336TIP3    H127972   0.179   2.713   1.084
 9336TIP3    H227973   0.143   2.575   1.031
 9337TIP3   OH227974   1.626   0.124   5.447
 9337TIP3    H127975   1.611   0.199   5.389
 9337TIP3    H227976   1.539   0.098   5.476
 9338TIP3   OH227977   7.156   2.452   1.669
 9338TIP3    H127978   7.180   2.382   1.607
 9338TIP3    H227979   7.063   2.437   1.686
 9339TIP3   OH227980   0.045   4.694   3.580
 9339TIP3    H127981   0.105   4.706   3.653
 9339TIP3    H227982  -0.004   4.615   3.602
 9340TIP3   OH227983   4.268   1.652   5.356
 9340TIP3    H127984   4.249   1.605   5.437
 9340TIP3    H227985   4.304   1.586   5.297
 9341TIP3   OH227986   2.934   5.832   2.471
 9341TIP3    H127987   3.000   5.800   2.532
 9341TIP3    H227988   2.963   5.919   2.446
 9342TIP3   OH227989   1.518   4.973   5.680
 9342TIP3    H127990   1.556   4.894   5.642
 9342TIP3    H227991   1.423   4.961   5.672
 9343TIP3   OH227992   2.245   4.754   3.593
 9343TIP3    H127993   2.176   4.737   3.529
 9343TIP3    H227994   2.304   4.816   3.549
 9344TIP3   OH227995   7.010   2.340   4.501
 9344TIP3    H127996   7.058   2.258   4.487
 9344TIP3    H227997   7.053   2.403   4.444
 9345TIP3   OH227998   7.035   0.248   2.627
 9345TIP3    H127999   7.057   0.156   2.646
 9345TIP3    H228000   7.043   0.255   2.532
 9346TIP3   OH228001   0.593   3.766   5.654
 9346TIP3    H128002   0.529   3.735   5.590
 9346TIP3    H228003   0.552   3.749   5.739
 9347TIP3   OH228004   2.322   3.664   4.950
 9347TIP3    H128005   2.337   3.728   5.020
 9347TIP3    H228006   2.340   3.579   4.991
 9348TIP3   OH228007   1.999   5.644   3.693
 9348TIP3    H128008   1.927   5.644   3.757
 9348TIP3    H228009   2.064   5.584   3.730
 9349TIP3   OH228010   6.344   1.320   4.551
 9349TIP3    H128011   6.366   1.393   4.609
 9349TIP3    H228012   6.357   1.242   4.605
 9350TIP3   OH228013   2.775   0.224   4.823
 9350TIP3    H128014   2.686   0.188   4.825
 9350TIP3    H228015   2.788   0.262   4.910
 9351TIP3   OH228016   1.437   3.654   2.676
 9351TIP3    H128017   1.453   3.563   2.701
 9351TIP3    H228018   1.347   3.655   2.645
 9352TIP3   OH228019   3.644   6.388   1.341
 9352TIP3    H128020   3.719   6.445   1.324
 9352TIP3    H228021   3.670   6.303   1.307
 9353TIP3   OH228022   2.212   5.358   3.105
 9353TIP3    H128023   2.228   5.315   3.021
 9353TIP3    H228024   2.122   5.389   3.099
 9354TIP3   OH228025   0.552   0.794   5.238
 9354TIP3    H128026   0.462   0.785   5.207
 9354TIP3    H228027   0.596   0.845   5.170
 9355TIP3   OH228028   4.942   4.830   3.357
 9355TIP3    H128029   4.958   4.865   3.444
 9355TIP3    H228030   4.940   4.907   3.300
 9356TIP3   OH228031   6.171   1.169   1.978
 9356TIP3    H128032   6.158   1.246   1.922
 9356TIP3    H228033   6.260   1.139   1.957
 9357TIP3   OH228034   2.855   2.038   3.921
 9357TIP3    H128035   2.843   2.046   3.827
 9357TIP3    H228036   2.919   1.968   3.932
 9358TIP3   OH228037   2.283   1.705   2.869
 9358TIP3    H128038   2.189   1.719   2.863
 9358TIP3    H228039   2.296   1.615   2.840
 9359TIP3   OH228040   1.721   2.325   5.411
 9359TIP3    H128041   1.813   2.300   5.404
 9359TIP3    H228042   1.716   2.378   5.490
 9360TIP3   OH228043   3.408   5.356   4.639
 9360TIP3    H128044   3.460   5.407   4.576
 9360TIP3    H228045   3.327   5.338   4.592
 9361TIP3   OH228046   1.896   0.468   2.787
 9361TIP3    H128047   1.835   0.402   2.754
 9361TIP3    H228048   1.847   0.514   2.856
 9362TIP3   OH228049   4.630   4.904   1.565
 9362TIP3    H128050   4.676   4.837   1.616
 9362TIP3    H228051   4.682   4.914   1.486
 9363TIP3   OH228052   5.730   2.374   2.782
 9363TIP3    H128053   5.652   2.422   2.810
 9363TIP3    H228054   5.772   2.347   2.865
 9364TIP3   OH228055   4.029   2.917   4.823
 9364TIP3    H128056   4.105   2.972   4.805
 9364TIP3    H228057   3.963   2.978   4.858
 9365TIP3   OH228058   3.817   5.347   2.690
 9365TIP3    H128059   3.904   5.355   2.729
 9365TIP3    H228060   3.772   5.428   2.714
 9366TIP3   OH228061   4.023   3.949   5.037
 9366TIP3    H128062   4.108   3.912   5.013
 9366TIP3    H228063   4.032   4.043   5.018
 9367TIP3   OH228064   1.306   2.651   1.205
 9367TIP3    H128065   1.278   2.623   1.117
 9367TIP3    H228066   1.263   2.736   1.217
 9368TIP3   OH228067   4.202   6.283   0.812
 9368TIP3    H128068   4.187   6.378   0.802
 9368TIP3    H228069   4.280   6.276   0.866
 9369TIP3   OH228070   4.975   0.153   2.116
 9369TIP3    H128071   4.932   0.237   2.102
 9369TIP3    H228072   4.903   0.093   2.137
 9370TIP3   OH228073   4.883   1.540   3.923
 9370TIP3    H128074   4.827   1.596   3.870
 9370TIP3    H228075   4.913   1.472   3.862
 9371TIP3   OH228076   5.137   2.418   1.032
 9371TIP3    H128077   5.186   2.428   0.951
 9371TIP3    H228078   5.174   2.340   1.073
 9372TIP3   OH228079   6.218   3.252   4.492
 9372TIP3    H128080   6.239   3.194   4.565
 9372TIP3    H228081   6.123   3.247   4.485
 9373TIP3   OH228082   5.357   5.495   2.144
 9373TIP3    H128083   5.345   5.561   2.212
 9373TIP3    H228084   5.291   5.429   2.163
 9374TIP3   OH228085   2.802   1.632   3.946
 9374TIP3    H128086   2.867   1.569   3.975
 9374TIP3    H228087   2.816   1.709   4.001
 9375TIP3   OH228088   5.773   5.328   3.955
 9375TIP3    H128089   5.690   5.376   3.964
 9375TIP3    H228090   5.794   5.335   3.862
 9376TIP3   OH228091   0.547   5.367   1.680
 9376TIP3    H128092   0.639   5.388   1.698
 9376TIP3    H228093   0.538   5.380   1.585
 9377TIP3   OH228094   4.658   6.336   3.623
 9377TIP3    H128095   4.664   6.353   3.717
 9377TIP3    H228096   4.729   6.274   3.606
 9378TIP3   OH228097   2.164   2.494   5.830
 9378TIP3    H128098   2.115   2.430   5.882
 9378TIP3    H228099   2.161   2.460   5.741
 9379TIP3   OH228100   0.762   6.501   4.765
 9379TIP3    H128101   0.738   6.521   4.675
 9379TIP3    H228102   0.681   6.470   4.806
 9380TIP3   OH228103   2.117   5.041   1.855
 9380TIP3    H128104   2.082   5.075   1.773
 9380TIP3    H228105   2.111   4.946   1.846
 9381TIP3   OH228106   3.007   1.448   5.835
 9381TIP3    H128107   3.000   1.371   5.777
 9381TIP3    H228108   2.970   1.520   5.784
 9382TIP3   OH228109   0.059   5.210   0.636
 9382TIP3    H128110  -0.021   5.184   0.680
 9382TIP3    H228111   0.129   5.165   0.684
 9383TIP3   OH228112   0.371   4.702   0.658
 9383TIP3    H128113   0.419   4.630   0.700
 9383TIP3    H228114   0.416   4.715   0.574
 9384TIP3   OH228115   3.270   6.744   3.724
 9384TIP3    H128116   3.267   6.649   3.733
 9384TIP3    H228117   3.344   6.760   3.666
 9385TIP3   OH228118   4.860   2.059   3.304
 9385TIP3    H128119   4.942   2.052   3.353
 9385TIP3    H228120   4.857   1.980   3.250
 9386TIP3   OH228121   0.995   6.530   0.106
 9386TIP3    H128122   0.912   6.534   0.153
 9386TIP3    H228123   0.983   6.586   0.029
 9387TIP3   OH228124   3.854   3.093   4.990
 9387TIP3    H128125   3.824   3.036   5.061
 9387TIP3    H228126   3.897   3.167   5.034
 9388TIP3   OH228127   3.881   6.726   5.796
 9388TIP3    H128128   3.891   6.632   5.783
 9388TIP3    H228129   3.860   6.735   5.889
 9389TIP3   OH228130   3.034   4.776   5.554
 9389TIP3    H128131   3.101   4.733   5.500
 9389TIP3    H228132   3.036   4.867   5.527
 9390TIP3   OH228133   5.070   3.472   3.211
 9390TIP3    H128134   5.027   3.452   3.295
 9390TIP3    H228135   5.019   3.544   3.175
 9391TIP3   OH228136   4.061   5.333   5.710
 9391TIP3    H128137   4.012   5.255   5.683
 9391TIP3    H228138   4.008   5.373   5.779
 9392TIP3   OH228139   6.870   2.675   2.906
 9392TIP3    H128140   6.839   2.604   2.963
 9392TIP3    H228141   6.916   2.630   2.835
 9393TIP3   OH228142   0.830   3.328   0.179
 9393TIP3    H128143   0.796   3.364   0.261
 9393TIP3    H228144   0.919   3.299   0.201
 9394TIP3   OH228145   0.367   2.486   1.388
 9394TIP3    H128146   0.289   2.538   1.408
 9394TIP3    H228147   0.373   2.423   1.460
 9395TIP3   OH228148   3.058   2.455   2.282
 9395TIP3    H128149   3.028   2.535   2.325
 9395TIP3    H228150   2.996   2.442   2.211
 9396TIP3   OH228151   0.352   0.565   2.994
 9396TIP3    H128152   0.259   0.576   2.974
 9396TIP3    H228153   0.353   0.526   3.081
 9397TIP3   OH228154   1.448   4.948   5.085
 9397TIP3    H128155   1.362   4.988   5.102
 9397TIP3    H228156   1.481   4.925   5.172
 9398TIP3   OH228157   2.262   6.787   5.228
 9398TIP3    H128158   2.311   6.725   5.174
 9398TIP3    H228159   2.329   6.841   5.269
 9399TIP3   OH228160   3.357   0.037   5.123
 9399TIP3    H128161   3.370  -0.036   5.063
 9399TIP3    H228162   3.317   0.105   5.069
 9400TIP3   OH228163   0.984   1.122   0.441
 9400TIP3    H128164   1.044   1.153   0.509
 9400TIP3    H228165   0.897   1.140   0.477
 9401TIP3   OH228166   2.344   5.918   0.644
 9401TIP3    H128167   2.282   5.991   0.636
 9401TIP3    H228168   2.427   5.954   0.614
 9402TIP3   OH228169   5.616   3.586   2.104
 9402TIP3    H128170   5.678   3.631   2.045
 9402TIP3    H228171   5.576   3.656   2.154
 9403TIP3   OH228172   2.480   5.337   2.557
 9403TIP3    H128173   2.464   5.399   2.628
 9403TIP3    H228174   2.410   5.273   2.565
 9404TIP3   OH228175   1.570   1.245   2.173
 9404TIP3    H128176   1.598   1.221   2.084
 9404TIP3    H228177   1.634   1.310   2.201
 9405TIP3   OH228178   3.153   0.697   3.504
 9405TIP3    H128179   3.116   0.759   3.440
 9405TIP3    H228180   3.141   0.611   3.463
 9406TIP3   OH228181   6.433   5.566   1.402
 9406TIP3    H128182   6.372   5.494   1.385
 9406TIP3    H228183   6.421   5.625   1.327
 9407TIP3   OH228184   3.448   6.446   5.017
 9407TIP3    H128185   3.451   6.483   5.105
 9407TIP3    H228186   3.529   6.474   4.976
 9408TIP3   OH228187   5.578   5.049   4.656
 9408TIP3    H128188   5.510   5.115   4.669
 9408TIP3    H228189   5.565   5.019   4.566
 9409TIP3   OH228190   6.061   1.168   4.403
 9409TIP3    H128191   6.048   1.261   4.385
 9409TIP3    H228192   6.139   1.166   4.458
 9410TIP3   OH228193   3.572   4.524   1.985
 9410TIP3    H128194   3.531   4.438   1.997
 9410TIP3    H228195   3.552   4.572   2.066
 9411TIP3   OH228196   1.958   4.803   0.482
 9411TIP3    H128197   1.953   4.707   0.481
 9411TIP3    H228198   2.030   4.823   0.422
 9412TIP3   OH228199   6.224   4.098   4.574
 9412TIP3    H128200   6.159   4.036   4.543
 9412TIP3    H228201   6.177   4.181   4.583
 9413TIP3   OH228202   1.648   1.340   4.826
 9413TIP3    H128203   1.618   1.290   4.750
 9413TIP3    H228204   1.701   1.279   4.876
 9414TIP3   OH228205   2.753   5.860   3.797
 9414TIP3    H128206   2.665   5.897   3.787
 9414TIP3    H228207   2.781   5.843   3.707
 9415TIP3   OH228208   5.096   4.725   3.632
 9415TIP3    H128209   5.180   4.678   3.628
 9415TIP3    H228210   5.086   4.749   3.724
 9416TIP3   OH228211   5.744   3.195   0.130
 9416TIP3    H128212   5.770   3.197   0.222
 9416TIP3    H228213   5.817   3.235   0.083
 9417TIP3   OH228214   5.858   0.668   4.578
 9417TIP3    H128215   5.948   0.636   4.576
 9417TIP3    H228216   5.866   0.764   4.576
 9418TIP3   OH228217   1.327   4.545   1.811
 9418TIP3    H128218   1.401   4.600   1.785
 9418TIP3    H228219   1.260   4.608   1.839
 9419TIP3   OH228220   0.557   4.488   5.204
 9419TIP3    H128221   0.630   4.428   5.216
 9419TIP3    H228222   0.597   4.575   5.202
 9420TIP3   OH228223   4.616   1.078   4.582
 9420TIP3    H128224   4.532   1.032   4.572
 9420TIP3    H228225   4.601   1.139   4.654
 9421TIP3   OH228226   1.437   2.737   4.722
 9421TIP3    H128227   1.353   2.691   4.725
 9421TIP3    H228228   1.478   2.718   4.806
 9422TIP3   OH228229   4.940   1.731   0.669
 9422TIP3    H128230   4.995   1.661   0.635
 9422TIP3    H228231   4.951   1.803   0.606
 9423TIP3   OH228232   6.614   2.674   2.289
 9423TIP3    H128233   6.708   2.659   2.286
 9423TIP3    H228234   6.576   2.588   2.270
 9424TIP3   OH228235   5.179   1.327   3.755
 9424TIP3    H128236   5.105   1.378   3.719
 9424TIP3    H228237   5.142   1.241   3.773
 9425TIP3   OH228238   4.709   3.848   2.398
 9425TIP3    H128239   4.693   3.819   2.309
 9425TIP3    H228240   4.623   3.876   2.430
 9426TIP3   OH228241   5.091   6.544   0.106
 9426TIP3    H128242   5.078   6.607   0.035
 9426TIP3    H228243   5.016   6.557   0.164
 9427TIP3   OH228244   2.131   1.311   5.634
 9427TIP3    H128245   2.180   1.390   5.656
 9427TIP3    H228246   2.106   1.274   5.719
 9428TIP3   OH228247   1.744   3.916   2.435
 9428TIP3    H128248   1.665   3.867   2.413
 9428TIP3    H228249   1.713   3.988   2.490
 9429TIP3   OH228250   1.217   4.431   5.284
 9429TIP3    H128251   1.214   4.356   5.226
 9429TIP3    H228252   1.143   4.418   5.344
 9430TIP3   OH228253   6.208   1.119   3.038
 9430TIP3    H128254   6.189   1.132   2.946
 9430TIP3    H228255   6.149   1.179   3.084
 9431TIP3   OH228256   3.831   4.311   2.113
 9431TIP3    H128257   3.901   4.349   2.167
 9431TIP3    H228258   3.764   4.380   2.109
 9432TIP3   OH228259   5.112   5.264   4.768
 9432TIP3    H128260   5.040   5.318   4.733
 9432TIP3    H228261   5.174   5.258   4.695
 9433TIP3   OH228262   3.687   2.149   1.221
 9433TIP3    H128263   3.655   2.106   1.300
 9433TIP3    H228264   3.611   2.196   1.186
 9434TIP3   OH228265   4.972   4.567   4.944
 9434TIP3    H128266   4.992   4.648   4.990
 9434TIP3    H228267   4.937   4.508   5.012
 9435TIP3   OH228268   1.252   1.494   4.077
 9435TIP3    H128269   1.224   1.491   4.168
 9435TIP3    H228270   1.326   1.433   4.072
 9436TIP3   OH228271   0.857   0.159   3.848
 9436TIP3    H128272   0.852   0.185   3.756
 9436TIP3    H228273   0.788   0.209   3.890
 9437TIP3   OH228274   6.732   6.144   3.749
 9437TIP3    H128275   6.676   6.068   3.735
 9437TIP3    H228276   6.818   6.117   3.715
 9438TIP3   OH228277   1.006   1.257   2.560
 9438TIP3    H128278   1.100   1.275   2.558
 9438TIP3    H228279   0.998   1.181   2.618
 9439TIP3   OH228280   2.065   6.360   4.483
 9439TIP3    H128281   2.083   6.371   4.576
 9439TIP3    H228282   1.970   6.360   4.476
 9440TIP3   OH228283   5.122   4.374   0.965
 9440TIP3    H128284   5.185   4.385   1.036
 9440TIP3    H228285   5.131   4.452   0.911
 9441TIP3   OH228286   3.929   2.706   0.773
 9441TIP3    H128287   3.889   2.639   0.829
 9441TIP3    H228288   3.969   2.768   0.835
 9442TIP3   OH228289   3.028   1.872   5.262
 9442TIP3    H128290   3.009   1.913   5.177
 9442TIP3    H228291   3.045   1.780   5.241
 9443TIP3   OH228292   3.239   6.173   0.508
 9443TIP3    H128293   3.270   6.258   0.539
 9443TIP3    H228294   3.173   6.147   0.572
 9444TIP3   OH228295   4.431   3.636   3.023
 9444TIP3    H128296   4.510   3.688   3.039
 9444TIP3    H228297   4.367   3.699   2.991
 9445TIP3   OH228298   4.434   0.823   3.428
 9445TIP3    H128299   4.477   0.874   3.496
 9445TIP3    H228300   4.499   0.818   3.357
 9446TIP3   OH228301   3.210   2.227   3.753
 9446TIP3    H128302   3.126   2.255   3.716
 9446TIP3    H228303   3.191   2.210   3.845
 9447TIP3   OH228304   5.697   5.679   4.400
 9447TIP3    H128305   5.743   5.763   4.402
 9447TIP3    H228306   5.726   5.633   4.479
 9448TIP3   OH228307   0.597   5.221   1.183
 9448TIP3    H128308   0.626   5.282   1.116
 9448TIP3    H228309   0.519   5.180   1.147
 9449TIP3   OH228310   3.280   3.473   3.437
 9449TIP3    H128311   3.276   3.528   3.515
 9449TIP3    H228312   3.373   3.457   3.424
 9450TIP3   OH228313   2.144   2.644   4.677
 9450TIP3    H128314   2.168   2.596   4.598
 9450TIP3    H228315   2.123   2.732   4.646
 9451TIP3   OH228316   3.751   2.963   2.253
 9451TIP3    H128317   3.773   2.966   2.346
 9451TIP3    H228318   3.763   3.053   2.223
 9452TIP3   OH228319   5.984  -0.086   4.698
 9452TIP3    H128320   5.973  -0.018   4.764
 9452TIP3    H228321   6.011  -0.039   4.619
 9453TIP3   OH228322   6.308   0.481   2.741
 9453TIP3    H128323   6.318   0.386   2.736
 9453TIP3    H228324   6.263   0.505   2.660
 9454TIP3   OH228325   5.311   4.905   4.606
 9454TIP3    H128326   5.237   4.909   4.666
 9454TIP3    H228327   5.284   4.959   4.531
 9455TIP3   OH228328   5.769   6.173   3.139
 9455TIP3    H128329   5.801   6.254   3.099
 9455TIP3    H228330   5.824   6.161   3.216
 9456TIP3   OH228331   2.792   0.234   1.226
 9456TIP3    H128332   2.818   0.163   1.166
 9456TIP3    H228333   2.859   0.234   1.294
 9457TIP3   OH228334   6.621   2.477   0.940
 9457TIP3    H128335   6.645   2.543   0.876
 9457TIP3    H228336   6.638   2.394   0.896
 9458TIP3   OH228337   4.322   2.247   3.236
 9458TIP3    H128338   4.345   2.340   3.245
 9458TIP3    H228339   4.384   2.214   3.171
 9459TIP3   OH228340   3.422   4.741   4.535
 9459TIP3    H128341   3.501   4.702   4.497
 9459TIP3    H228342   3.377   4.780   4.460
 9460TIP3   OH228343   4.867   2.128   5.447
 9460TIP3    H128344   4.923   2.087   5.381
 9460TIP3    H228345   4.826   2.054   5.493
 9461TIP3   OH228346   5.864   6.401   0.278
 9461TIP3    H128347   5.889   6.335   0.213
 9461TIP3    H228348   5.943   6.413   0.331
 9462TIP3   OH228349   0.951   1.667   1.007
 9462TIP3    H128350   0.870   1.661   1.058
 9462TIP3    H228351   0.968   1.577   0.979
 9463TIP3   OH228352   0.774   0.091   0.597
 9463TIP3    H128353   0.688   0.121   0.568
 9463TIP3    H228354   0.828   0.089   0.518
 9464TIP3   OH228355   1.089   4.388   5.781
 9464TIP3    H128356   1.025   4.458   5.794
 9464TIP3    H228357   1.165   4.433   5.743
 9465TIP3   OH228358   0.356   1.387   0.226
 9465TIP3    H128359   0.425   1.340   0.179
 9465TIP3    H228360   0.280   1.330   0.221
 9466TIP3   OH228361   3.076   3.390   0.149
 9466TIP3    H128362   3.150   3.450   0.144
 9466TIP3    H228363   3.014   3.433   0.207
 9467TIP3   OH228364   3.129   2.666   4.326
 9467TIP3    H128365   3.072   2.709   4.389
 9467TIP3    H228366   3.116   2.714   4.245
 9468TIP3   OH228367   2.964   5.447   5.664
 9468TIP3    H128368   2.997   5.536   5.677
 9468TIP3    H228369   2.999   5.421   5.578
 9469TIP3   OH228370   5.393   6.294   1.257
 9469TIP3    H128371   5.386   6.302   1.162
 9469TIP3    H228372   5.431   6.377   1.286
 9470TIP3   OH228373   0.398   3.401   1.473
 9470TIP3    H128374   0.365   3.467   1.534
 9470TIP3    H228375   0.493   3.403   1.483
 9471TIP3   OH228376   5.334   3.708   0.266
 9471TIP3    H128377   5.374   3.765   0.332
 9471TIP3    H228378   5.283   3.645   0.317
 9472TIP3   OH228379   4.938   6.718   2.399
 9472TIP3    H128380   4.919   6.811   2.410
 9472TIP3    H228381   4.958   6.709   2.306
 9473TIP3   OH228382   5.889   2.393   2.361
 9473TIP3    H128383   5.931   2.366   2.280
 9473TIP3    H228384   5.933   2.474   2.386
 9474TIP3   OH228385   5.305   2.083   4.671
 9474TIP3    H128386   5.385   2.059   4.718
 9474TIP3    H228387   5.243   2.012   4.691
 9475TIP3   OH228388   3.286   2.539   4.514
 9475TIP3    H128389   3.249   2.602   4.452
 9475TIP3    H228390   3.381   2.554   4.509
 9476TIP3   OH228391   5.927   2.306   4.759
 9476TIP3    H128392   5.988   2.374   4.730
 9476TIP3    H228393   5.939   2.302   4.854
 9477TIP3   OH228394   0.482   3.876   5.373
 9477TIP3    H128395   0.402   3.837   5.409
 9477TIP3    H228396   0.492   3.836   5.286
 9478TIP3   OH228397   4.444   4.307   0.968
 9478TIP3    H128398   4.458   4.349   1.053
 9478TIP3    H228399   4.491   4.364   0.906
 9479TIP3   OH228400   6.333   6.765   2.641
 9479TIP3    H128401   6.417   6.725   2.662
 9479TIP3    H228402   6.297   6.710   2.570
 9480TIP3   OH228403   1.946   5.600   4.767
 9480TIP3    H128404   1.851   5.610   4.775
 9480TIP3    H228405   1.961   5.506   4.768
 9481TIP3   OH228406   4.450   4.947   4.290
 9481TIP3    H128407   4.472   4.882   4.356
 9481TIP3    H228408   4.392   5.008   4.334
 9482TIP3   OH228409   2.899   5.498   3.459
 9482TIP3    H128410   2.836   5.499   3.388
 9482TIP3    H228411   2.946   5.415   3.449
 9483TIP3   OH228412   2.889   6.689   1.229
 9483TIP3    H128413   2.930   6.612   1.190
 9483TIP3    H228414   2.918   6.762   1.174
 9484TIP3   OH228415   7.080   2.302   0.782
 9484TIP3    H128416   7.147   2.277   0.719
 9484TIP3    H228417   7.038   2.219   0.806
 9485TIP3   OH228418   2.655   2.810   0.738
 9485TIP3    H128419   2.566   2.842   0.753
 9485TIP3    H228420   2.710   2.888   0.746
 9486TIP3   OH228421   5.553   4.704   3.756
 9486TIP3    H128422   5.593   4.730   3.839
 9486TIP3    H228423   5.599   4.624   3.732
 9487TIP3   OH228424   6.132   3.152   2.091
 9487TIP3    H128425   6.164   3.105   2.014
 9487TIP3    H228426   6.063   3.095   2.126
 9488TIP3   OH228427   3.583   6.665   1.284
 9488TIP3    H128428   3.641   6.653   1.360
 9488TIP3    H228429   3.575   6.577   1.246
 9489TIP3   OH228430   1.736   4.346   1.556
 9489TIP3    H128431   1.826   4.321   1.534
 9489TIP3    H228432   1.744   4.432   1.597
 9490TIP3   OH228433   5.110   5.559   0.594
 9490TIP3    H128434   5.048   5.569   0.521
 9490TIP3    H228435   5.054   5.545   0.670
 9491TIP3   OH228436   6.758   0.069   2.792
 9491TIP3    H128437   6.778   0.145   2.738
 9491TIP3    H228438   6.688   0.098   2.850
 9492TIP3   OH228439   4.967   5.362   2.399
 9492TIP3    H128440   5.046   5.343   2.449
 9492TIP3    H228441   4.979   5.453   2.369
 9493TIP3   OH228442   3.781   3.325   2.448
 9493TIP3    H128443   3.868   3.304   2.483
 9493TIP3    H228444   3.790   3.313   2.354
 9494TIP3   OH228445   3.771   2.521   4.795
 9494TIP3    H128446   3.697   2.555   4.845
 9494TIP3    H228447   3.760   2.556   4.707
 9495TIP3   OH228448   5.357   6.594   1.098
 9495TIP3    H128449   5.272   6.626   1.128
 9495TIP3    H228450   5.420   6.652   1.141
 9496TIP3   OH228451   4.002   5.291   0.426
 9496TIP3    H128452   4.009   5.349   0.350
 9496TIP3    H228453   4.056   5.333   0.493
 9497TIP3   OH228454   6.378   1.423   2.831
 9497TIP3    H128455   6.429   1.391   2.905
 9497TIP3    H228456   6.287   1.415   2.859
 9498TIP3   OH228457   4.316   3.197   0.472
 9498TIP3    H128458   4.312   3.131   0.402
 9498TIP3    H228459   4.377   3.263   0.439
 9499TIP3   OH228460   5.904   3.674   0.064
 9499TIP3    H128461   5.920   3.735   0.135
 9499TIP3    H228462   5.974   3.692   0.001
 9500TIP3   OH228463   2.986   6.639   5.018
 9500TIP3    H128464   3.069   6.655   4.974
 9500TIP3    H228465   2.950   6.562   4.975
 9501TIP3   OH228466   6.351   6.608   4.301
 9501TIP3    H128467   6.383   6.553   4.229
 9501TIP3    H228468   6.428   6.620   4.358
 9502TIP3   OH228469   2.979   1.811   2.590
 9502TIP3    H128470   3.040   1.840   2.522
 9502TIP3    H228471   2.999   1.866   2.666
 9503TIP3   OH228472   6.390   4.326   5.882
 9503TIP3    H128473   6.343   4.405   5.854
 9503TIP3    H228474   6.326   4.256   5.872
 9504TIP3   OH228475   1.662   1.772   1.491
 9504TIP3    H128476   1.723   1.845   1.479
 9504TIP3    H228477   1.586   1.811   1.533
 9505TIP3   OH228478   3.550  -0.021   2.867
 9505TIP3    H128479   3.618   0.008   2.806
 9505TIP3    H228480   3.507  -0.093   2.820
 9506TIP3   OH228481   7.108   1.478   3.321
 9506TIP3    H128482   7.174   1.522   3.268
 9506TIP3    H228483   7.124   1.509   3.410
 9507TIP3   OH228484   1.789   0.797   4.922
 9507TIP3    H128485   1.729   0.867   4.898
 9507TIP3    H228486   1.761   0.722   4.869
 9508TIP3   OH228487   4.371   3.466   0.384
 9508TIP3    H128488   4.393   3.507   0.468
 9508TIP3    H228489   4.421   3.515   0.319
 9509TIP3   OH228490   0.060   0.205   1.047
 9509TIP3    H128491   0.004   0.128   1.055
 9509TIP3    H228492   0.041   0.257   1.124
 9510TIP3   OH228493   1.420   6.320   4.790
 9510TIP3    H128494   1.401   6.414   4.790
 9510TIP3    H228495   1.391   6.290   4.704
 9511TIP3   OH228496   4.048   5.850   5.711
 9511TIP3    H128497   3.998   5.794   5.652
 9511TIP3    H228498   4.082   5.791   5.777
 9512TIP3   OH228499   2.018   6.074   3.726
 9512TIP3    H128500   2.010   6.138   3.655
 9512TIP3    H228501   2.002   5.990   3.684
 9513TIP3   OH228502   6.756   2.635   3.367
 9513TIP3    H128503   6.707   2.622   3.448
 9513TIP3    H228504   6.810   2.556   3.359
 9514TIP3   OH228505   5.594   4.108   1.695
 9514TIP3    H128506   5.507   4.072   1.676
 9514TIP3    H228507   5.655   4.038   1.674
 9515TIP3   OH228508   5.349   1.049   0.909
 9515TIP3    H128509   5.375   1.127   0.859
 9515TIP3    H228510   5.327   0.984   0.842
 9516TIP3   OH228511   4.882   1.517   1.912
 9516TIP3    H128512   4.959   1.466   1.887
 9516TIP3    H228513   4.891   1.598   1.862
 9517TIP3   OH228514   4.214   4.699   2.699
 9517TIP3    H128515   4.227   4.794   2.695
 9517TIP3    H228516   4.282   4.667   2.759
 9518TIP3   OH228517   0.647   0.252   3.656
 9518TIP3    H128518   0.583   0.317   3.685
 9518TIP3    H228519   0.595   0.183   3.615
 9519TIP3   OH228520   5.288   0.575   5.484
 9519TIP3    H128521   5.310   0.667   5.503
 9519TIP3    H228522   5.373   0.532   5.474
 9520TIP3   OH228523   5.286   4.412   5.387
 9520TIP3    H128524   5.286   4.506   5.406
 9520TIP3    H228525   5.229   4.403   5.311
 9521TIP3   OH228526   4.563   0.086   3.303
 9521TIP3    H128527   4.631   0.025   3.275
 9521TIP3    H228528   4.594   0.121   3.386
 9522TIP3   OH228529   3.048   4.702   0.697
 9522TIP3    H128530   2.995   4.651   0.758
 9522TIP3    H228531   3.113   4.746   0.752
 9523TIP3   OH228532   1.686   0.988   1.310
 9523TIP3    H128533   1.663   1.061   1.252
 9523TIP3    H228534   1.725   0.923   1.252
 9524TIP3   OH228535   4.013   3.981   1.540
 9524TIP3    H128536   4.071   4.057   1.530
 9524TIP3    H228537   3.938   4.016   1.588
 9525TIP3   OH228538   0.390   4.229   1.029
 9525TIP3    H128539   0.354   4.311   0.996
 9525TIP3    H228540   0.418   4.250   1.119
 9526TIP3   OH228541   6.031   0.483   4.335
 9526TIP3    H128542   5.943   0.501   4.370
 9526TIP3    H228543   6.044   0.549   4.267
 9527TIP3   OH228544   3.133   0.435   0.266
 9527TIP3    H128545   3.072   0.499   0.302
 9527TIP3    H228546   3.198   0.489   0.220
 9528TIP3   OH228547   5.372   3.437   2.018
 9528TIP3    H128548   5.427   3.437   1.940
 9528TIP3    H228549   5.412   3.501   2.077
 9529TIP3   OH228550   0.524   2.039   0.478
 9529TIP3    H128551   0.609   2.036   0.436
 9529TIP3    H228552   0.472   1.972   0.433
 9530TIP3   OH228553   1.384   5.597   3.657
 9530TIP3    H128554   1.308   5.564   3.704
 9530TIP3    H228555   1.457   5.546   3.691
 9531TIP3   OH228556   2.300   6.056   3.615
 9531TIP3    H128557   2.275   6.084   3.704
 9531TIP3    H228558   2.241   6.105   3.558
 9532TIP3   OH228559   4.626   2.822   4.124
 9532TIP3    H128560   4.550   2.822   4.182
 9532TIP3    H228561   4.639   2.730   4.101
 9533TIP3   OH228562   3.755   0.734   3.279
 9533TIP3    H128563   3.695   0.667   3.246
 9533TIP3    H228564   3.829   0.731   3.218
 9534TIP3   OH228565   2.907   6.142   1.047
 9534TIP3    H128566   2.942   6.053   1.051
 9534TIP3    H228567   2.899   6.160   0.953
 9535TIP3   OH228568   3.565   1.883   3.287
 9535TIP3    H128569   3.631   1.815   3.278
 9535TIP3    H228570   3.609   1.954   3.334
 9536TIP3   OH228571   1.691   4.855   0.088
 9536TIP3    H128572   1.682   4.934   0.034
 9536TIP3    H228573   1.714   4.888   0.175
 9537TIP3   OH228574   5.128   0.602   0.313
 9537TIP3    H128575   5.111   0.692   0.343
 9537TIP3    H228576   5.083   0.547   0.377
 9538TIP3   OH228577   3.779   4.864   1.672
 9538TIP3    H128578   3.830   4.818   1.738
 9538TIP3    H228579   3.717   4.798   1.639
 9539TIP3   OH228580   0.428   4.720   2.282
 9539TIP3    H128581   0.433   4.735   2.376
 9539TIP3    H228582   0.351   4.769   2.254
 9540TIP3   OH228583   0.474   6.555   3.461
 9540TIP3    H128584   0.446   6.494   3.393
 9540TIP3    H228585   0.402   6.619   3.467
 9541TIP3   OH228586   2.662   3.974   1.792
 9541TIP3    H128587   2.609   4.054   1.782
 9541TIP3    H228588   2.635   3.938   1.876
 9542TIP3   OH228589   7.066   0.774   3.861
 9542TIP3    H128590   7.037   0.685   3.876
 9542TIP3    H228591   7.106   0.801   3.943
 9543TIP3   OH228592   2.904   3.421   4.634
 9543TIP3    H128593   2.833   3.469   4.678
 9543TIP3    H228594   2.886   3.329   4.653
 9544TIP3   OH228595   2.997   6.127   2.042
 9544TIP3    H128596   2.961   6.135   1.954
 9544TIP3    H228597   2.972   6.040   2.071
 9545TIP3   OH228598   4.385   2.079   4.132
 9545TIP3    H128599   4.312   2.120   4.086
 9545TIP3    H228600   4.358   2.076   4.224
 9546TIP3   OH228601   3.351   0.023   0.129
 9546TIP3    H128602   3.426   0.008   0.187
 9546TIP3    H228603   3.384   0.001   0.042
 9547TIP3   OH228604   6.631   5.860   0.802
 9547TIP3    H128605   6.670   5.776   0.825
 9547TIP3    H228606   6.681   5.924   0.853
 9548TIP3   OH228607   1.411   1.954   1.429
 9548TIP3    H128608   1.343   2.019   1.411
 9548TIP3    H228609   1.433   1.967   1.521
 9549TIP3   OH228610   6.135   4.531   3.818
 9549TIP3    H128611   6.093   4.450   3.847
 9549TIP3    H228612   6.114   4.595   3.886
 9550TIP3   OH228613   4.118   0.987   5.819
 9550TIP3    H128614   4.060   1.037   5.877
 9550TIP3    H228615   4.085   1.006   5.731
 9551TIP3   OH228616   2.120   2.133   3.069
 9551TIP3    H128617   2.139   2.091   2.985
 9551TIP3    H228618   2.140   2.225   3.055
 9552TIP3   OH228619   3.194   1.843   3.652
 9552TIP3    H128620   3.257   1.777   3.624
 9552TIP3    H228621   3.145   1.800   3.723
 9553TIP3   OH228622   1.721   3.967   0.645
 9553TIP3    H128623   1.792   3.908   0.669
 9553TIP3    H228624   1.754   4.016   0.571
 9554TIP3   OH228625   0.606   1.517   3.420
 9554TIP3    H128626   0.592   1.573   3.497
 9554TIP3    H228627   0.692   1.477   3.436
 9555TIP3   OH228628   3.348   3.378   2.990
 9555TIP3    H128629   3.377   3.467   3.009
 9555TIP3    H228630   3.401   3.323   3.048
 9556TIP3   OH228631   4.627   1.811  -0.011
 9556TIP3    H128632   4.669   1.866   0.055
 9556TIP3    H228633   4.534   1.825   0.002
 9557TIP3   OH228634   7.081   3.278   3.471
 9557TIP3    H128635   7.016   3.322   3.525
 9557TIP3    H228636   7.144   3.346   3.449
 9558TIP3   OH228637   5.044   1.073   1.378
 9558TIP3    H128638   5.101   1.006   1.339
 9558TIP3    H228639   5.012   1.031   1.458
 9559TIP3   OH228640   1.881   5.977   2.138
 9559TIP3    H128641   1.847   6.057   2.178
 9559TIP3    H228642   1.874   5.911   2.206
 9560TIP3   OH228643   2.310   0.343   1.616
 9560TIP3    H128644   2.375   0.297   1.564
 9560TIP3    H228645   2.238   0.280   1.626
 9561TIP3   OH228646   4.514   3.330   1.533
 9561TIP3    H128647   4.606   3.329   1.505
 9561TIP3    H228648   4.477   3.250   1.497
 9562TIP3   OH228649   6.671   4.777   4.218
 9562TIP3    H128650   6.641   4.859   4.257
 9562TIP3    H228651   6.764   4.790   4.202
 9563TIP3   OH228652   3.929   3.031   3.662
 9563TIP3    H128653   3.987   3.105   3.647
 9563TIP3    H228654   3.842   3.070   3.670
 9564TIP3   OH228655   0.679   6.494   3.285
 9564TIP3    H128656   0.622   6.540   3.346
 9564TIP3    H228657   0.625   6.422   3.251
 9565TIP3   OH228658   6.869   5.993   3.491
 9565TIP3    H128659   6.958   5.970   3.463
 9565TIP3    H228660   6.814   5.923   3.456
 9566TIP3   OH228661   2.134   5.351   4.483
 9566TIP3    H128662   2.162   5.267   4.447
 9566TIP3    H228663   2.215   5.393   4.512
 9567TIP3   OH228664   1.515   1.070   5.461
 9567TIP3    H128665   1.566   1.005   5.412
 9567TIP3    H228666   1.479   1.021   5.535
 9568TIP3   OH228667   0.052   1.188   5.439
 9568TIP3    H128668   0.041   1.180   5.344
 9568TIP3    H228669  -0.030   1.227   5.469
 9569TIP3   OH228670   6.349   2.599   1.323
 9569TIP3    H128671   6.265   2.569   1.356
 9569TIP3    H228672   6.382   2.657   1.392
 9570TIP3   OH228673   2.129  -0.073   3.313
 9570TIP3    H128674   2.156  -0.046   3.401
 9570TIP3    H228675   2.062  -0.009   3.288
 9571TIP3   OH228676   3.685   6.496   5.499
 9571TIP3    H128677   3.747   6.426   5.514
 9571TIP3    H228678   3.657   6.523   5.586
 9572TIP3   OH228679   6.730   6.048   2.407
 9572TIP3    H128680   6.646   6.008   2.382
 9572TIP3    H228681   6.787   5.974   2.429
 9573TIP3   OH228682   2.559   4.194   1.527
 9573TIP3    H128683   2.583   4.102   1.511
 9573TIP3    H228684   2.465   4.196   1.510
 9574TIP3   OH228685   5.702   3.168   2.537
 9574TIP3    H128686   5.717   3.097   2.599
 9574TIP3    H228687   5.682   3.124   2.454
 9575TIP3   OH228688   2.078   6.019   4.641
 9575TIP3    H128689   2.007   5.975   4.594
 9575TIP3    H228690   2.126   6.067   4.574
 9576TIP3   OH228691   3.717   6.448   1.053
 9576TIP3    H128692   3.627   6.431   1.026
 9576TIP3    H228693   3.763   6.365   1.037
 9577TIP3   OH228694   0.678   5.376   4.612
 9577TIP3    H128695   0.628   5.445   4.569
 9577TIP3    H228696   0.706   5.415   4.695
 9578TIP3   OH228697   3.132   3.846   5.253
 9578TIP3    H128698   3.080   3.792   5.313
 9578TIP3    H228699   3.152   3.924   5.304
 9579TIP3   OH228700   1.842   4.018   3.410
 9579TIP3    H128701   1.792   3.939   3.432
 9579TIP3    H228702   1.900   4.032   3.485
 9580TIP3   OH228703   4.359   3.133   5.793
 9580TIP3    H128704   4.318   3.047   5.785
 9580TIP3    H228705   4.287   3.195   5.786
 9581TIP3   OH228706   5.028   4.040   5.642
 9581TIP3    H128707   5.025   3.953   5.602
 9581TIP3    H228708   5.109   4.078   5.609
 9582TIP3   OH228709   5.417   6.618   1.616
 9582TIP3    H128710   5.421   6.711   1.639
 9582TIP3    H228711   5.490   6.579   1.664
 9583TIP3   OH228712   3.639   1.382   2.783
 9583TIP3    H128713   3.632   1.347   2.872
 9583TIP3    H228714   3.599   1.316   2.727
 9584TIP3   OH228715   6.998   2.449   2.756
 9584TIP3    H128716   7.087   2.483   2.747
 9584TIP3    H228717   6.982   2.400   2.676
 9585TIP3   OH228718   4.094   3.588   3.567
 9585TIP3    H128719   4.108   3.609   3.474
 9585TIP3    H228720   4.174   3.542   3.593
 9586TIP3   OH228721   6.488   4.053   5.907
 9586TIP3    H128722   6.398   4.024   5.924
 9586TIP3    H228723   6.517   4.090   5.990
 9587TIP3   OH228724   5.400   2.004   0.810
 9587TIP3    H128725   5.392   1.961   0.725
 9587TIP3    H228726   5.311   2.035   0.830
 9588TIP3   OH228727   5.565   2.586   5.440
 9588TIP3    H128728   5.588   2.679   5.438
 9588TIP3    H228729   5.525   2.573   5.526
 9589TIP3   OH228730   6.357   5.568   2.971
 9589TIP3    H128731   6.395   5.561   2.883
 9589TIP3    H228732   6.316   5.655   2.973
 9590TIP3   OH228733   4.775   4.865   5.075
 9590TIP3    H128734   4.864   4.845   5.047
 9590TIP3    H228735   4.750   4.942   5.022
 9591TIP3   OH228736   6.937   4.382   0.684
 9591TIP3    H128737   6.866   4.319   0.694
 9591TIP3    H228738   6.903   4.446   0.622
 9592TIP3   OH228739   4.793   4.103   2.221
 9592TIP3    H128740   4.734   4.151   2.162
 9592TIP3    H228741   4.752   4.017   2.229
 9593TIP3   OH228742   3.753   2.539   3.493
 9593TIP3    H128743   3.702   2.459   3.483
 9593TIP3    H228744   3.742   2.562   3.585
 9594TIP3   OH228745   2.017   4.430   3.149
 9594TIP3    H128746   1.929   4.415   3.182
 9594TIP3    H228747   2.071   4.363   3.192
 9595TIP3   OH228748   6.267   2.066   5.527
 9595TIP3    H128749   6.257   2.068   5.623
 9595TIP3    H228750   6.205   2.131   5.495
 9596TIP3   OH228751   4.728   6.290   2.255
 9596TIP3    H128752   4.802   6.255   2.207
 9596TIP3    H228753   4.679   6.213   2.284
 9597TIP3   OH228754   1.388   5.517   0.187
 9597TIP3    H128755   1.317   5.520   0.252
 9597TIP3    H228756   1.467   5.540   0.236
 9598TIP3   OH228757   7.033   1.128   2.651
 9598TIP3    H128758   7.057   1.160   2.738
 9598TIP3    H228759   7.056   1.035   2.652
 9599TIP3   OH228760   5.214   2.552   4.208
 9599TIP3    H128761   5.271   2.535   4.283
 9599TIP3    H228762   5.179   2.639   4.224
 9600TIP3   OH228763   0.822   5.679   1.654
 9600TIP3    H128764   0.917   5.676   1.652
 9600TIP3    H228765   0.795   5.588   1.665
 9601TIP3   OH228766   3.793   3.858   5.311
 9601TIP3    H128767   3.829   3.925   5.253
 9601TIP3    H228768   3.783   3.903   5.395
 9602TIP3   OH228769   3.871   0.841   4.788
 9602TIP3    H128770   3.920   0.919   4.817
 9602TIP3    H228771   3.882   0.840   4.693
 9603TIP3   OH228772   0.256   6.263   1.056
 9603TIP3    H128773   0.345   6.295   1.071
 9603TIP3    H228774   0.263   6.168   1.062
 9604TIP3   OH228775   5.488   4.591   0.580
 9604TIP3    H128776   5.416   4.598   0.518
 9604TIP3    H228777   5.454   4.538   0.652
 9605TIP3   OH228778   4.808   2.579   2.322
 9605TIP3    H128779   4.725   2.579   2.276
 9605TIP3    H228780   4.787   2.546   2.409
 9606TIP3   OH228781   3.907   6.644   0.407
 9606TIP3    H128782   3.915   6.598   0.323
 9606TIP3    H228783   3.867   6.728   0.385
 9607TIP3   OH228784   6.150   6.441   0.878
 9607TIP3    H128785   6.105   6.490   0.947
 9607TIP3    H228786   6.243   6.446   0.902
 9608TIP3   OH228787   3.777   3.493   5.010
 9608TIP3    H128788   3.757   3.492   5.104
 9608TIP3    H228789   3.819   3.578   4.995
 9609TIP3   OH228790   4.584   0.631   5.135
 9609TIP3    H128791   4.648   0.585   5.190
 9609TIP3    H228792   4.558   0.566   5.069
 9610TIP3   OH228793   5.649   4.941   5.375
 9610TIP3    H128794   5.609   4.918   5.291
 9610TIP3    H228795   5.656   4.858   5.422
 9611TIP3   OH228796   3.677   0.468   1.266
 9611TIP3    H128797   3.731   0.410   1.320
 9611TIP3    H228798   3.739   0.530   1.229
 9612TIP3   OH228799   3.625   2.913   4.159
 9612TIP3    H128800   3.664   2.941   4.242
 9612TIP3    H228801   3.693   2.861   4.117
 9613TIP3   OH228802   5.333   4.627   2.859
 9613TIP3    H128803   5.335   4.703   2.917
 9613TIP3    H228804   5.329   4.552   2.918
 9614TIP3   OH228805   7.162   1.289   4.238
 9614TIP3    H128806   7.236   1.250   4.285
 9614TIP3    H228807   7.164   1.381   4.262
 9615TIP3   OH228808   1.226   5.562   3.384
 9615TIP3    H128809   1.248   5.628   3.449
 9615TIP3    H228810   1.250   5.601   3.300
 9616TIP3   OH228811   2.825   5.841   3.524
 9616TIP3    H128812   2.860   5.896   3.454
 9616TIP3    H228813   2.746   5.801   3.487
 9617TIP3   OH228814   4.362   6.591   3.457
 9617TIP3    H128815   4.339   6.573   3.549
 9617TIP3    H228816   4.457   6.584   3.454
 9618TIP3   OH228817   2.096   5.386   5.412
 9618TIP3    H128818   2.128   5.316   5.468
 9618TIP3    H228819   2.034   5.344   5.353
 9619TIP3   OH228820   0.807   5.820   5.800
 9619TIP3    H128821   0.852   5.739   5.825
 9619TIP3    H228822   0.875   5.887   5.804
 9620TIP3   OH228823   0.121   0.888   1.641
 9620TIP3    H128824   0.104   0.812   1.585
 9620TIP3    H228825   0.202   0.866   1.687
 9621TIP3   OH228826   4.661   5.304   5.828
 9621TIP3    H128827   4.755   5.311   5.839
 9621TIP3    H228828   4.625   5.314   5.916
 9622TIP3   OH228829   1.612   2.333   1.422
 9622TIP3    H128830   1.594   2.332   1.516
 9622TIP3    H228831   1.598   2.424   1.396
 9623TIP3   OH228832   0.597   3.858   4.115
 9623TIP3    H128833   0.542   3.791   4.154
 9623TIP3    H228834   0.590   3.933   4.174
 9624TIP3   OH228835   5.716   1.377   3.062
 9624TIP3    H128836   5.779   1.448   3.050
 9624TIP3    H228837   5.672   1.369   2.978
 9625TIP3   OH228838   0.432   3.061   5.524
 9625TIP3    H128839   0.508   3.002   5.530
 9625TIP3    H228840   0.440   3.102   5.438
 9626TIP3   OH228841   5.591   1.005   5.810
 9626TIP3    H128842   5.552   0.918   5.818
 9626TIP3    H228843   5.527   1.064   5.851
 9627TIP3   OH228844   4.159   6.517   0.206
 9627TIP3    H128845   4.102   6.469   0.266
 9627TIP3    H228846   4.226   6.454   0.181
 9628TIP3   OH228847   6.920   4.209   2.622
 9628TIP3    H128848   6.991   4.219   2.559
 9628TIP3    H228849   6.946   4.134   2.675
 9629TIP3   OH228850   4.183   4.651   0.069
 9629TIP3    H128851   4.126   4.617   0.138
 9629TIP3    H228852   4.145   4.735   0.045
 9630TIP3   OH228853   5.282   4.303   0.309
 9630TIP3    H128854   5.221   4.241   0.349
 9630TIP3    H228855   5.368   4.277   0.341
 9631TIP3   OH228856   0.696   5.437   2.158
 9631TIP3    H128857   0.630   5.387   2.109
 9631TIP3    H228858   0.738   5.372   2.214
 9632TIP3   OH228859   5.201   4.705   3.255
 9632TIP3    H128860   5.111   4.720   3.283
 9632TIP3    H228861   5.251   4.698   3.337
 9633TIP3   OH228862   6.648   3.683   0.984
 9633TIP3    H128863   6.617   3.697   0.894
 9633TIP3    H228864   6.587   3.733   1.038
 9634TIP3   OH228865   6.465   6.226   1.638
 9634TIP3    H128866   6.502   6.291   1.698
 9634TIP3    H228867   6.506   6.143   1.666
 9635TIP3   OH228868   1.748   4.344   0.014
 9635TIP3    H128869   1.653   4.340   0.019
 9635TIP3    H228870   1.774   4.399   0.089
 9636TIP3   OH228871   6.295   3.314   0.401
 9636TIP3    H128872   6.322   3.378   0.336
 9636TIP3    H228873   6.202   3.298   0.382
 9637TIP3   OH228874   3.249   6.622   4.897
 9637TIP3    H128875   3.318   6.597   4.959
 9637TIP3    H228876   3.289   6.609   4.811
 9638TIP3   OH228877   6.039   1.599   0.121
 9638TIP3    H128878   6.034   1.688   0.157
 9638TIP3    H228879   5.950   1.579   0.093
 9639TIP3   OH228880   1.731   2.260   1.665
 9639TIP3    H128881   1.694   2.172   1.659
 9639TIP3    H228882   1.749   2.272   1.758
 9640TIP3   OH228883   2.915   0.487   5.460
 9640TIP3    H128884   2.908   0.396   5.431
 9640TIP3    H228885   2.951   0.533   5.384
 9641TIP3   OH228886   2.566   4.143   5.383
 9641TIP3    H128887   2.566   4.221   5.438
 9641TIP3    H228888   2.655   4.136   5.350
 9642TIP3   OH228889   1.728   5.274   3.131
 9642TIP3    H128890   1.763   5.263   3.043
 9642TIP3    H228891   1.638   5.303   3.117
 9643TIP3   OH228892   4.590   1.597   5.584
 9643TIP3    H128893   4.678   1.566   5.604
 9643TIP3    H228894   4.533   1.524   5.607
 9644TIP3   OH228895   0.264   6.770   3.484
 9644TIP3    H128896   0.190   6.797   3.430
 9644TIP3    H228897   0.225   6.725   3.559
 9645TIP3   OH228898   3.553   4.326  -0.075
 9645TIP3    H128899   3.505   4.312   0.007
 9645TIP3    H228900   3.494   4.293  -0.143
 9646TIP3   OH228901   1.839   2.770   0.424
 9646TIP3    H128902   1.835   2.675   0.430
 9646TIP3    H228903   1.846   2.799   0.515
 9647TIP3   OH228904   5.222   6.370   3.566
 9647TIP3    H128905   5.264   6.376   3.480
 9647TIP3    H228906   5.276   6.309   3.615
 9648TIP3   OH228907   3.170   3.696   1.778
 9648TIP3    H128908   3.166   3.655   1.864
 9648TIP3    H228909   3.080   3.726   1.761
 9649TIP3   OH228910   2.253   1.903   1.304
 9649TIP3    H128911   2.218   1.973   1.249
 9649TIP3    H228912   2.343   1.891   1.273
 9650TIP3   OH228913   7.033   0.947   3.609
 9650TIP3    H128914   7.037   0.904   3.694
 9650TIP3    H228915   7.080   1.030   3.622
 9651TIP3   OH228916   5.980   3.304   0.033
 9651TIP3    H128917   6.012   3.364  -0.035
 9651TIP3    H228918   6.056   3.250   0.054
 9652TIP3   OH228919   6.783   1.042   0.881
 9652TIP3    H128920   6.749   1.102   0.947
 9652TIP3    H228921   6.767   1.086   0.798
 9653TIP3   OH228922   3.971   5.251   4.131
 9653TIP3    H128923   4.058   5.212   4.125
 9653TIP3    H228924   3.988   5.341   4.159
 9654TIP3   OH228925   2.143   4.325   4.434
 9654TIP3    H128926   2.060   4.367   4.454
 9654TIP3    H228927   2.147   4.324   4.338
 9655TIP3   OH228928   3.242   4.034   3.966
 9655TIP3    H128929   3.172   4.039   3.901
 9655TIP3    H228930   3.310   3.981   3.925
 9656TIP3   OH228931   5.038   6.726   4.585
 9656TIP3    H128932   4.987   6.800   4.619
 9656TIP3    H228933   5.121   6.765   4.557
 9657TIP3   OH228934   2.024   0.484   1.612
 9657TIP3    H128935   1.954   0.501   1.675
 9657TIP3    H228936   2.042   0.391   1.621
 9658TIP3   OH228937   5.559   4.959   0.347
 9658TIP3    H128938   5.494   4.983   0.413
 9658TIP3    H228939   5.620   5.034   0.346
 9659TIP3   OH228940   6.122   1.188   5.525
 9659TIP3    H128941   6.109   1.186   5.620
 9659TIP3    H228942   6.033   1.188   5.488
 9660TIP3   OH228943   5.045   2.961   2.967
 9660TIP3    H128944   5.061   2.983   2.875
 9660TIP3    H228945   4.984   3.029   2.996
 9661TIP3   OH228946   6.456   2.430   3.116
 9661TIP3    H128947   6.424   2.501   3.173
 9661TIP3    H228948   6.452   2.466   3.028
 9662TIP3   OH228949   5.562   0.412   2.903
 9662TIP3    H128950   5.478   0.367   2.897
 9662TIP3    H228951   5.592   0.396   2.992
 9663TIP3   OH228952   2.316   0.600   3.030
 9663TIP3    H128953   2.352   0.512   3.019
 9663TIP3    H228954   2.264   0.595   3.110
 9664TIP3   OH228955   4.030   6.554   3.001
 9664TIP3    H128956   4.019   6.465   3.035
 9664TIP3    H228957   4.120   6.555   2.966
 9665TIP3   OH228958   3.644   5.661   5.647
 9665TIP3    H128959   3.736   5.637   5.655
 9665TIP3    H228960   3.607   5.596   5.588
 9666TIP3   OH228961   6.854   3.599   0.509
 9666TIP3    H128962   6.877   3.619   0.600
 9666TIP3    H228963   6.938   3.587   0.465
 9667TIP3   OH228964   5.984   2.807   4.134
 9667TIP3    H128965   6.017   2.718   4.117
 9667TIP3    H228966   5.997   2.853   4.052
 9668TIP3   OH228967   6.365   2.832   1.877
 9668TIP3    H128968   6.321   2.821   1.961
 9668TIP3    H228969   6.319   2.906   1.837
 9669TIP3   OH228970   1.272   2.221   1.051
 9669TIP3    H128971   1.196   2.214   0.994
 9669TIP3    H228972   1.239   2.263   1.130
 9670TIP3   OH228973   3.472   0.794   3.626
 9670TIP3    H128974   3.437   0.706   3.639
 9670TIP3    H228975   3.565   0.786   3.645
 9671TIP3   OH228976   7.057   5.312   4.416
 9671TIP3    H128977   7.094   5.308   4.328
 9671TIP3    H228978   7.017   5.226   4.429
 9672TIP3   OH228979   3.884   6.068   4.001
 9672TIP3    H128980   3.813   6.045   4.062
 9672TIP3    H228981   3.842   6.119   3.933
 9673TIP3   OH228982   0.501   3.173   2.857
 9673TIP3    H128983   0.543   3.116   2.793
 9673TIP3    H228984   0.408   3.164   2.841
 9674TIP3   OH228985   2.070   2.900   4.613
 9674TIP3    H128986   2.046   2.970   4.553
 9674TIP3    H228987   2.096   2.945   4.694
 9675TIP3   OH228988   5.181   5.989   4.374
 9675TIP3    H128989   5.170   5.941   4.457
 9675TIP3    H228990   5.094   5.986   4.333
 9676TIP3   OH228991   5.581   2.934   0.082
 9676TIP3    H128992   5.651   2.876   0.050
 9676TIP3    H228993   5.627   3.002   0.130
 9677TIP3   OH228994   5.957   2.234   5.036
 9677TIP3    H128995   6.037   2.182   5.032
 9677TIP3    H228996   5.986   2.319   5.070
 9678TIP3   OH228997   1.670   3.694   2.818
 9678TIP3    H128998   1.699   3.783   2.799
 9678TIP3    H228999   1.587   3.684   2.772
 9679TIP3   OH229000   5.846   6.418   0.960
 9679TIP3    H129001   5.820   6.367   1.036
 9679TIP3    H229002   5.828   6.509   0.985
 9680TIP3   OH229003   7.120   2.532   4.320
 9680TIP3    H129004   7.113   2.595   4.248
 9680TIP3    H229005   7.125   2.447   4.277
 9681TIP3   OH229006   5.309   2.000   5.299
 9681TIP3    H129007   5.333   1.983   5.207
 9681TIP3    H229008   5.315   1.914   5.341
 9682TIP3   OH229009   5.541   4.465   5.882
 9682TIP3    H129010   5.610   4.529   5.896
 9682TIP3    H229011   5.473   4.512   5.835
 9683TIP3   OH229012   2.976   5.713   5.724
 9683TIP3    H129013   2.883   5.702   5.743
 9683TIP3    H229014   2.978   5.770   5.648
 9684TIP3   OH229015   6.621   4.596   0.214
 9684TIP3    H129016   6.548   4.599   0.151
 9684TIP3    H229017   6.619   4.682   0.257
 9685TIP3   OH229018   2.409   1.237   0.812
 9685TIP3    H129019   2.392   1.247   0.906
 9685TIP3    H229020   2.470   1.163   0.807
 9686TIP3   OH229021   2.445   0.815   4.103
 9686TIP3    H129022   2.438   0.906   4.073
 9686TIP3    H229023   2.539   0.796   4.098
 9687TIP3   OH229024   4.764   2.159   5.003
 9687TIP3    H129025   4.724   2.072   4.997
 9687TIP3    H229026   4.717   2.211   4.938
 9688TIP3   OH229027   0.852   0.207   5.286
 9688TIP3    H129028   0.924   0.178   5.342
 9688TIP3    H229029   0.782   0.229   5.346
 9689TIP3   OH229030   5.360   0.251   2.947
 9689TIP3    H129031   5.346   0.257   3.042
 9689TIP3    H229032   5.331   0.162   2.924
 9690TIP3   OH229033   6.817   0.446   4.217
 9690TIP3    H129034   6.803   0.355   4.189
 9690TIP3    H229035   6.912   0.452   4.231
 9691TIP3   OH229036   2.899   6.749   3.805
 9691TIP3    H129037   2.954   6.754   3.884
 9691TIP3    H229038   2.844   6.672   3.819
 9692TIP3   OH229039   6.777   4.161   5.557
 9692TIP3    H129040   6.711   4.117   5.502
 9692TIP3    H229041   6.764   4.123   5.644
 9693TIP3   OH229042   4.085   4.644   0.860
 9693TIP3    H129043   4.149   4.626   0.792
 9693TIP3    H229044   4.083   4.740   0.866
 9694TIP3   OH229045   1.017   3.783   2.893
 9694TIP3    H129046   1.000   3.692   2.871
 9694TIP3    H229047   1.050   3.822   2.812
 9695TIP3   OH229048   2.717   1.456   0.991
 9695TIP3    H129049   2.652   1.517   1.025
 9695TIP3    H229050   2.690   1.370   1.024
 9696TIP3   OH229051   5.379   2.168   0.371
 9696TIP3    H129052   5.364   2.255   0.410
 9696TIP3    H229053   5.474   2.158   0.373
 9697TIP3   OH229054   6.965   6.269   2.218
 9697TIP3    H129055   6.885   6.264   2.270
 9697TIP3    H229056   6.934   6.261   2.127
 9698TIP3   OH229057   3.248   0.912   1.512
 9698TIP3    H129058   3.170   0.902   1.566
 9698TIP3    H229059   3.315   0.860   1.556
 9699TIP3   OH229060   6.777   5.909   4.800
 9699TIP3    H129061   6.697   5.857   4.786
 9699TIP3    H229062   6.845   5.844   4.815
 9700TIP3   OH229063   5.644   3.965   0.235
 9700TIP3    H129064   5.592   3.985   0.157
 9700TIP3    H229065   5.626   4.037   0.295
 9701TIP3   OH229066   2.893   2.772   5.663
 9701TIP3    H129067   2.981   2.767   5.628
 9701TIP3    H229068   2.859   2.683   5.657
 9702TIP3   OH229069   0.288   0.972   4.465
 9702TIP3    H129070   0.380   0.950   4.469
 9702TIP3    H229071   0.259   0.974   4.556
 9703TIP3   OH229072   1.067   0.595   2.113
 9703TIP3    H129073   1.145   0.642   2.083
 9703TIP3    H229074   1.009   0.664   2.145
 9704TIP3   OH229075   6.678   4.602   2.730
 9704TIP3    H129076   6.620   4.671   2.761
 9704TIP3    H229077   6.688   4.621   2.636
 9705TIP3   OH229078   0.618   2.652   1.587
 9705TIP3    H129079   0.606   2.691   1.501
 9705TIP3    H229080   0.710   2.627   1.590
 9706TIP3   OH229081   0.321   5.122   2.467
 9706TIP3    H129082   0.300   5.213   2.489
 9706TIP3    H229083   0.241   5.088   2.429
 9707TIP3   OH229084   2.439   3.871   1.983
 9707TIP3    H129085   2.484   3.877   2.067
 9707TIP3    H229086   2.416   3.962   1.962
 9708TIP3   OH229087   5.730   5.862   4.706
 9708TIP3    H129088   5.805   5.909   4.671
 9708TIP3    H229089   5.654   5.911   4.676
 9709TIP3   OH229090   5.827   6.272   3.439
 9709TIP3    H129091   5.888   6.340   3.465
 9709TIP3    H229092   5.745   6.318   3.422
 9710TIP3   OH229093   1.507   4.164   1.574
 9710TIP3    H129094   1.570   4.227   1.539
 9710TIP3    H229095   1.475   4.116   1.497
 9711TIP3   OH229096   4.400   3.588   0.987
 9711TIP3    H129097   4.399   3.493   0.975
 9711TIP3    H229098   4.429   3.601   1.077
 9712TIP3   OH229099   6.692   4.507   5.075
 9712TIP3    H129100   6.626   4.557   5.123
 9712TIP3    H229101   6.641   4.451   5.015
 9713TIP3   OH229102   1.553   3.893   0.869
 9713TIP3    H129103   1.571   3.888   0.775
 9713TIP3    H229104   1.639   3.889   0.910
 9714TIP3   OH229105   0.307   3.558   1.682
 9714TIP3    H129106   0.317   3.608   1.763
 9714TIP3    H229107   0.213   3.539   1.678
 9715TIP3   OH229108   0.390   0.922   0.856
 9715TIP3    H129109   0.318   0.959   0.804
 9715TIP3    H229110   0.444   0.998   0.878
 9716TIP3   OH229111   4.358   1.172   4.047
 9716TIP3    H129112   4.393   1.168   4.136
 9716TIP3    H229113   4.423   1.224   3.999
 9717TIP3   OH229114   5.816   2.632   3.081
 9717TIP3    H129115   5.826   2.541   3.053
 9717TIP3    H229116   5.849   2.684   3.008
 9718TIP3   OH229117   1.229   3.492   0.355
 9718TIP3    H129118   1.188   3.550   0.419
 9718TIP3    H229119   1.281   3.550   0.299
 9719TIP3   OH229120   6.403   3.696   5.452
 9719TIP3    H129121   6.348   3.619   5.468
 9719TIP3    H229122   6.345   3.756   5.405
 9720TIP3   OH229123   4.278   5.669   4.007
 9720TIP3    H129124   4.347   5.625   3.958
 9720TIP3    H229125   4.245   5.736   3.946
 9721TIP3   OH229126   4.257   1.713   3.733
 9721TIP3    H129127   4.321   1.776   3.699
 9721TIP3    H229128   4.189   1.767   3.773
 9722TIP3   OH229129   5.886   4.927   5.559
 9722TIP3    H129130   5.877   4.920   5.464
 9722TIP3    H229131   5.917   4.841   5.587
 9723TIP3   OH229132   0.651   1.943   4.055
 9723TIP3    H129133   0.644   2.037   4.070
 9723TIP3    H229134   0.672   1.935   3.962
 9724TIP3   OH229135   0.089   1.665   5.575
 9724TIP3    H129136   0.105   1.590   5.633
 9724TIP3    H229137   0.114   1.635   5.488
 9725TIP3   OH229138   0.284   2.424   2.255
 9725TIP3    H129139   0.358   2.375   2.218
 9725TIP3    H229140   0.293   2.512   2.218
 9726TIP3   OH229141   0.969   2.422   5.758
 9726TIP3    H129142   1.032   2.444   5.690
 9726TIP3    H229143   1.005   2.460   5.838
 9727TIP3   OH229144   3.093   3.666   3.252
 9727TIP3    H129145   3.148   3.603   3.298
 9727TIP3    H229146   3.152   3.736   3.227
 9728TIP3   OH229147   0.168   6.667   4.673
 9728TIP3    H129148   0.165   6.577   4.642
 9728TIP3    H229149   0.241   6.668   4.735
 9729TIP3   OH229150   1.957   5.813   5.684
 9729TIP3    H129151   1.975   5.737   5.629
 9729TIP3    H229152   2.032   5.819   5.743
 9730TIP3   OH229153   5.585   2.603   3.697
 9730TIP3    H129154   5.672   2.590   3.735
 9730TIP3    H229155   5.538   2.522   3.717
 9731TIP3   OH229156   5.568   0.482   5.504
 9731TIP3    H129157   5.645   0.437   5.537
 9731TIP3    H229158   5.575   0.571   5.539
 9732TIP3   OH229159   1.896   0.111   4.530
 9732TIP3    H129160   1.803   0.125   4.511
 9732TIP3    H229161   1.920   0.184   4.587
 9733TIP3   OH229162   0.394   5.140   5.674
 9733TIP3    H129163   0.324   5.200   5.650
 9733TIP3    H229164   0.462   5.196   5.711
 9734TIP3   OH229165   6.161   1.754   2.967
 9734TIP3    H129166   6.158   1.834   3.020
 9734TIP3    H229167   6.155   1.683   3.031
 9735TIP3   OH229168   2.544   1.548   3.720
 9735TIP3    H129169   2.550   1.457   3.690
 9735TIP3    H229170   2.612   1.594   3.670
 9736TIP3   OH229171   1.808   3.007   3.204
 9736TIP3    H129172   1.832   3.064   3.277
 9736TIP3    H229173   1.889   2.992   3.156
 9737TIP3   OH229174   6.207   3.192   3.312
 9737TIP3    H129175   6.132   3.151   3.356
 9737TIP3    H229176   6.265   3.119   3.290
 9738TIP3   OH229177   7.005   2.832   1.782
 9738TIP3    H129178   6.978   2.892   1.712
 9738TIP3    H229179   6.952   2.859   1.858
 9739TIP3   OH229180   6.639   4.744   4.797
 9739TIP3    H129181   6.558   4.718   4.839
 9739TIP3    H229182   6.708   4.705   4.851
 9740TIP3   OH229183   2.117   4.699   3.130
 9740TIP3    H129184   2.193   4.758   3.135
 9740TIP3    H229185   2.155   4.611   3.134
 9741TIP3   OH229186   3.046   1.850   1.735
 9741TIP3    H129187   2.984   1.879   1.802
 9741TIP3    H229188   3.034   1.911   1.663
 9742TIP3   OH229189   2.504   2.134   2.442
 9742TIP3    H129190   2.431   2.072   2.439
 9742TIP3    H229191   2.533   2.141   2.351
 9743TIP3   OH229192   0.746   6.273   1.375
 9743TIP3    H129193   0.833   6.235   1.384
 9743TIP3    H229194   0.686   6.198   1.376
 9744TIP3   OH229195   3.793   4.980   3.982
 9744TIP3    H129196   3.710   5.021   4.006
 9744TIP3    H229197   3.840   4.971   4.065
 9745TIP3   OH229198   1.523   5.960   5.433
 9745TIP3    H129199   1.597   5.943   5.492
 9745TIP3    H229200   1.556   5.935   5.346
 9746TIP3   OH229201   4.081   5.016   5.498
 9746TIP3    H129202   4.012   4.994   5.434
 9746TIP3    H229203   4.033   5.051   5.573
 9747TIP3   OH229204   5.962   0.214   2.168
 9747TIP3    H129205   5.959   0.124   2.137
 9747TIP3    H229206   5.924   0.266   2.096
 9748TIP3   OH229207   1.049   2.515   4.425
 9748TIP3    H129208   1.073   2.563   4.346
 9748TIP3    H229209   1.112   2.442   4.428
 9749TIP3   OH229210   4.399   3.000   1.151
 9749TIP3    H129211   4.445   2.949   1.084
 9749TIP3    H229212   4.466   3.018   1.218
   7.21603   6.80334   5.89185   0.00000   0.00000  -2.40535   0.00000  -2.40535  -3.40166
