Title t= 175.00000 step= 87500
44434
    1GLY      N    1   4.896   4.112   5.073
    1GLY    HT1    2   4.973   4.169   5.112
    1GLY    HT2    3   4.868   4.143   4.978
    1GLY    HT3    4   4.926   4.013   5.064
    1GLY     CA    5   4.776   4.110   5.161
    1GLY    HA1    6   4.724   4.204   5.168
    1GLY    HA2    7   4.801   4.077   5.260
    1GLY      C    8   4.669   4.008   5.124
    1GLY      O    9   4.699   3.890   5.110
    2PRO      N   10   4.539   4.034   5.116
    2PRO     CD   11   4.481   4.168   5.138
    2PRO    HD1   12   4.509   4.237   5.055
    2PRO    HD2   13   4.509   4.214   5.235
    2PRO     CA   14   4.443   3.928   5.121
    2PRO     HA   15   4.474   3.853   5.191
    2PRO     CB   16   4.319   3.995   5.177
    2PRO    HB1   17   4.328   4.000   5.287
    2PRO    HB2   18   4.219   3.952   5.152
    2PRO     CG   19   4.330   4.142   5.134
    2PRO    HG1   20   4.285   4.163   5.035
    2PRO    HG2   21   4.290   4.219   5.203
    2PRO      C   22   4.413   3.874   4.982
    2PRO      O   23   4.436   3.945   4.885
    3GLY      N   24   4.364   3.755   4.966
    3GLY     HN   25   4.351   3.698   5.047
    3GLY     CA   26   4.331   3.688   4.841
    3GLY    HA1   27   4.270   3.758   4.786
    3GLY    HA2   28   4.282   3.596   4.868
    3GLY      C   29   4.446   3.653   4.745
    3GLY      O   30   4.565   3.685   4.769
    4ASP      N   31   4.419   3.580   4.631
    4ASP     HN   32   4.321   3.573   4.614
    4ASP     CA   33   4.523   3.517   4.541
    4ASP     HA   34   4.609   3.496   4.603
    4ASP     CB   35   4.462   3.388   4.486
    4ASP    HB1   36   4.524   3.338   4.408
    4ASP    HB2   37   4.361   3.405   4.445
    4ASP     CG   38   4.451   3.275   4.583
    4ASP    OD1   39   4.560   3.244   4.639
    4ASP    OD2   40   4.348   3.210   4.594
    4ASP      C   41   4.567   3.608   4.429
    4ASP      O   42   4.495   3.703   4.398
    5PRO      N   43   4.679   3.597   4.365
    5PRO     CD   44   4.759   3.473   4.367
    5PRO    HD1   45   4.709   3.375   4.349
    5PRO    HD2   46   4.825   3.464   4.456
    5PRO     CA   47   4.741   3.698   4.288
    5PRO     HA   48   4.750   3.787   4.349
    5PRO     CB   49   4.872   3.644   4.244
    5PRO    HB1   50   4.948   3.682   4.315
    5PRO    HB2   51   4.909   3.694   4.152
    5PRO     CG   52   4.851   3.492   4.247
    5PRO    HG1   53   4.795   3.462   4.157
    5PRO    HG2   54   4.936   3.420   4.249
    5PRO      C   55   4.655   3.743   4.168
    5PRO      O   56   4.590   3.660   4.103
    6GLY      N   57   4.653   3.873   4.135
    6GLY     HN   58   4.699   3.940   4.193
    6GLY     CA   59   4.571   3.923   4.027
    6GLY    HA1   60   4.528   4.017   4.058
    6GLY    HA2   61   4.492   3.849   4.020
    6GLY      C   62   4.641   3.949   3.894
    6GLY      O   63   4.744   3.891   3.857
    7SER      N   64   4.581   4.046   3.816
    7SER     HN   65   4.511   4.104   3.857
    7SER     CA   66   4.642   4.077   3.679
    7SER     HA   67   4.669   3.982   3.636
    7SER     CB   68   4.544   4.153   3.584
    7SER    HB1   69   4.607   4.179   3.496
    7SER    HB2   70   4.515   4.251   3.627
    7SER     OG   71   4.437   4.066   3.547
    7SER    HG1   72   4.470   4.012   3.475
    7SER      C   73   4.770   4.152   3.684
    7SER      O   74   4.791   4.226   3.777
    8GLY      N   75   4.865   4.133   3.592
    8GLY     HN   76   4.842   4.072   3.517
    8GLY     CA   77   4.999   4.197   3.587
    8GLY    HA1   78   5.043   4.148   3.501
    8GLY    HA2   79   5.042   4.166   3.681
    8GLY      C   80   5.002   4.351   3.574
    8GLY      O   81   4.906   4.419   3.543
    9ASN      N   82   5.116   4.412   3.588
    9ASN     HN   83   5.198   4.361   3.614
    9ASN     CA   84   5.150   4.549   3.549
    9ASN     HA   85   5.067   4.617   3.562
    9ASN     CB   86   5.258   4.602   3.648
    9ASN    HB1   87   5.361   4.561   3.636
    9ASN    HB2   88   5.227   4.589   3.754
    9ASN     CG   89   5.269   4.757   3.637
    9ASN    OD1   90   5.377   4.802   3.598
    9ASN    ND2   91   5.165   4.835   3.680
    9ASN   HD21   92   5.169   4.934   3.666
    9ASN   HD22   93   5.088   4.786   3.719
    9ASN      C   94   5.200   4.545   3.405
    9ASN      O   95   5.303   4.489   3.380
   10PRO      N   96   5.117   4.595   3.301
   10PRO     CD   97   4.994   4.668   3.320
   10PRO    HD1   98   5.025   4.771   3.348
   10PRO    HD2   99   4.924   4.619   3.392
   10PRO     CA  100   5.160   4.602   3.162
   10PRO     HA  101   5.154   4.499   3.130
   10PRO     CB  102   5.058   4.696   3.094
   10PRO    HB1  103   5.036   4.662   2.991
   10PRO    HB2  104   5.088   4.803   3.091
   10PRO     CG  105   4.932   4.690   3.189
   10PRO    HG1  106   4.880   4.788   3.184
   10PRO    HG2  107   4.875   4.604   3.147
   10PRO      C  108   5.302   4.644   3.140
   10PRO      O  109   5.355   4.712   3.230
   11GLY      N  110   5.368   4.606   3.020
   11GLY     HN  111   5.318   4.570   2.942
   11GLY     CA  112   5.509   4.639   2.996
   11GLY    HA1  113   5.557   4.554   2.951
   11GLY    HA2  114   5.555   4.670   3.089
   11GLY      C  115   5.524   4.751   2.892
   11GLY      O  116   5.427   4.812   2.850
   12SER      N  117   5.645   4.755   2.834
   12SER     HN  118   5.712   4.699   2.883
   12SER     CA  119   5.692   4.852   2.734
   12SER     HA  120   5.716   4.945   2.785
   12SER     CB  121   5.830   4.812   2.672
   12SER    HB1  122   5.873   4.880   2.595
   12SER    HB2  123   5.814   4.721   2.610
   12SER     OG  124   5.924   4.807   2.775
   12SER    HG1  125   5.903   4.722   2.815
   12SER      C  126   5.591   4.881   2.617
   12SER      O  127   5.546   4.797   2.539
   13GLY      N  128   5.543   5.006   2.607
   13GLY     HN  129   5.566   5.071   2.680
   13GLY     CA  130   5.467   5.057   2.493
   13GLY    HA1  131   5.433   5.155   2.521
   13GLY    HA2  132   5.381   4.992   2.476
   13GLY      C  133   5.542   5.072   2.366
   13GLY      O  134   5.642   5.007   2.339
   14ASP      N  135   5.486   5.155   2.277
   14ASP     HN  136   5.395   5.195   2.287
   14ASP     CA  137   5.537   5.169   2.147
   14ASP     HA  138   5.541   5.070   2.105
   14ASP     CB  139   5.435   5.248   2.056
   14ASP    HB1  140   5.480   5.281   1.960
   14ASP    HB2  141   5.401   5.337   2.113
   14ASP     CG  142   5.306   5.168   2.027
   14ASP    OD1  143   5.194   5.221   2.051
   14ASP    OD2  144   5.310   5.060   1.963
   14ASP      C  145   5.684   5.229   2.143
   14ASP      O  146   5.721   5.305   2.228
   15PRO      N  147   5.760   5.196   2.033
   15PRO     CD  148   5.716   5.094   1.940
   15PRO    HD1  149   5.636   5.141   1.877
   15PRO    HD2  150   5.682   5.000   1.989
   15PRO     CA  151   5.896   5.241   2.010
   15PRO     HA  152   5.962   5.211   2.090
   15PRO     CB  153   5.920   5.189   1.869
   15PRO    HB1  154   6.029   5.180   1.847
   15PRO    HB2  155   5.873   5.250   1.789
   15PRO     CG  156   5.846   5.055   1.875
   15PRO    HG1  157   5.831   5.015   1.772
   15PRO    HG2  158   5.903   4.989   1.944
   15PRO      C  159   5.912   5.393   1.999
   15PRO    OT1  160   5.818   5.455   1.942
   15PRO    OT2  161   6.010   5.459   2.049
   16LIT    LIT  162   4.420   3.089   4.710
   17LIT    LIT  163   5.871   3.825   2.465
   18LIT    LIT  164   5.396   0.893   2.060
   19LIT    LIT  165   3.538   4.743   3.968
   20LIT    LIT  166   6.249   5.570   4.328
   21LIT    LIT  167   0.911   2.308   5.220
   22LIT    LIT  168   6.882   0.794   5.442
   23LIT    LIT  169   4.599   2.006   0.786
   24LIT    LIT  170   2.255   0.191   2.946
   25LIT    LIT  171   7.042   0.741   4.700
   26LIT    LIT  172   2.449   3.949   3.206
   27LIT    LIT  173   6.883   7.697   4.192
   28LIT    LIT  174   6.667   2.536   1.551
   29LIT    LIT  175   7.942   0.677   2.787
   30LIT    LIT  176   5.964   6.677   5.528
   31LIT    LIT  177   1.312   0.715   2.674
   32LIT    LIT  178   1.307   2.798   4.795
   33LIT    LIT  179   1.894   7.760   0.965
   34LIT    LIT  180   5.378   4.043   6.626
   35LIT    LIT  181   4.884   2.902   1.466
   36LIT    LIT  182   3.885   7.310   2.104
   37LIT    LIT  183   0.028   4.737   0.950
   38LIT    LIT  184   4.276   4.990   5.082
   39LIT    LIT  185   3.124   1.243   4.361
   40LIT    LIT  186   6.727   5.985   3.076
   41LIT    LIT  187   5.939   5.601   1.936
   42LIT    LIT  188   2.639   1.402   6.152
   43LIT    LIT  189   0.447   0.672   2.038
   44LIT    LIT  190   6.618   7.738   2.178
   45LIT    LIT  191   0.423   1.949   3.068
   46LIT    LIT  192   7.456   7.213   6.773
   47LIT    LIT  193   3.942   1.943   1.256
   48LIT    LIT  194   7.667   6.039   4.398
   49LIT    LIT  195   5.089   5.093   1.955
   50LIT    LIT  196   4.765   1.732   2.139
   51LIT    LIT  197   7.731   7.529   0.455
   52LIT    LIT  198   6.395   1.765   5.875
   53LIT    LIT  199   3.210   5.427   1.672
   54LIT    LIT  200   1.085   7.029   4.010
   55LIT    LIT  201   2.473   0.153   4.210
   56LIT    LIT  202   0.154   1.169   5.843
   57LIT    LIT  203   7.918   0.450   2.096
   58LIT    LIT  204   7.614   4.383   1.019
   59LIT    LIT  205   3.892   4.046   0.864
   60CLA    CLA  206   2.498   1.111   2.287
   61CLA    CLA  207   5.705   4.685   4.798
   62CLA    CLA  208   6.663   3.908   0.887
   63CLA    CLA  209   0.633   1.663   1.274
   64CLA    CLA  210   7.065   7.700   2.652
   65CLA    CLA  211   2.942   0.814   1.419
   66CLA    CLA  212   4.001   1.557   4.604
   67CLA    CLA  213   0.693   1.080   6.734
   68CLA    CLA  214   6.511   1.128   5.316
   69CLA    CLA  215   1.286   0.636   4.873
   70CLA    CLA  216   4.156   5.751   0.799
   71CLA    CLA  217   1.827   0.900   3.790
   72CLA    CLA  218   0.236   2.909   2.476
   73CLA    CLA  219   3.526   5.170   4.182
   74CLA    CLA  220   4.450   5.319   0.834
   75CLA    CLA  221   3.686   2.312   3.936
   76CLA    CLA  222   3.995   5.415   4.237
   77CLA    CLA  223   3.893   3.399   5.952
   78CLA    CLA  224   8.294   1.974   0.740
   79CLA    CLA  225   6.735   7.414   0.776
   80CLA    CLA  226   2.383   7.244   0.693
   81CLA    CLA  227   7.811   0.352   2.292
   82CLA    CLA  228   7.976   0.651   6.238
   83CLA    CLA  229   7.121   3.507   5.263
   84CLA    CLA  230   5.368   1.403   5.765
   85CLA    CLA  231   0.722   4.229   5.969
   86CLA    CLA  232   5.999   4.255   2.580
   87CLA    CLA  233   0.131   5.503   2.246
   88CLA    CLA  234   0.815   6.932   2.890
   89CLA    CLA  235   7.574   3.882   5.864
   90CLA    CLA  236   2.487   0.080   2.606
   91CLA    CLA  237   5.172   0.245   1.794
   92CLA    CLA  238   1.979   4.074   6.405
   93CLA    CLA  239   4.812   1.521   3.950
   94CLA    CLA  240   4.623   4.794   6.140
   95CLA    CLA  241   7.821   4.290   1.027
   96CLA    CLA  242   7.131   0.564   4.843
   97CLA    CLA  243   5.149   4.411   2.511
   98CLA    CLA  244   1.223   4.345   5.835
   99CLA    CLA  245   4.776   3.965   0.086
  100CLA    CLA  246   1.995   5.372   2.568
  101CLA    CLA  247   5.940   1.791   1.296
  102TIP3   OH2  248   5.465   2.677   2.332
  102TIP3    H1  249   5.417   2.645   2.256
  102TIP3    H2  250   5.536   2.730   2.296
  103TIP3   OH2  251   7.890   0.460   5.498
  103TIP3    H1  252   7.810   0.513   5.500
  103TIP3    H2  253   7.953   0.510   5.549
  104TIP3   OH2  254   3.554   2.034   5.416
  104TIP3    H1  255   3.519   2.100   5.475
  104TIP3    H2  256   3.487   2.025   5.348
  105TIP3   OH2  257   3.262   5.981   0.571
  105TIP3    H1  258   3.198   6.029   0.519
  105TIP3    H2  259   3.347   6.005   0.533
  106TIP3   OH2  260   7.238   4.753   5.747
  106TIP3    H1  261   7.174   4.796   5.803
  106TIP3    H2  262   7.252   4.667   5.788
  107TIP3   OH2  263   5.445   2.876   0.530
  107TIP3    H1  264   5.507   2.808   0.504
  107TIP3    H2  265   5.462   2.888   0.624
  108TIP3   OH2  266   2.040   7.138   6.321
  108TIP3    H1  267   2.070   7.108   6.235
  108TIP3    H2  268   2.111   7.195   6.353
  109TIP3   OH2  269   3.886   1.797   1.364
  109TIP3    H1  270   3.896   1.805   1.459
  109TIP3    H2  271   3.796   1.769   1.352
  110TIP3   OH2  272   7.582   2.947   2.273
  110TIP3    H1  273   7.515   2.944   2.206
  110TIP3    H2  274   7.663   2.967   2.226
  111TIP3   OH2  275   7.119   3.256   4.864
  111TIP3    H1  276   7.122   3.185   4.800
  111TIP3    H2  277   7.056   3.228   4.930
  112TIP3   OH2  278   5.304   6.170   3.541
  112TIP3    H1  279   5.380   6.150   3.487
  112TIP3    H2  280   5.331   6.244   3.595
  113TIP3   OH2  281   6.115   3.786   1.964
  113TIP3    H1  282   6.147   3.710   1.916
  113TIP3    H2  283   6.194   3.834   1.989
  114TIP3   OH2  284   6.633   1.631   3.498
  114TIP3    H1  285   6.686   1.704   3.532
  114TIP3    H2  286   6.544   1.651   3.528
  115TIP3   OH2  287   6.007   1.242   1.607
  115TIP3    H1  288   5.953   1.168   1.578
  115TIP3    H2  289   6.070   1.253   1.536
  116TIP3   OH2  290   3.669   2.557   3.407
  116TIP3    H1  291   3.651   2.518   3.492
  116TIP3    H2  292   3.641   2.491   3.344
  117TIP3   OH2  293   3.030   6.025   5.019
  117TIP3    H1  294   3.073   6.074   4.949
  117TIP3    H2  295   2.948   5.994   4.981
  118TIP3   OH2  296   7.760   4.163   0.758
  118TIP3    H1  297   7.776   4.254   0.731
  118TIP3    H2  298   7.749   4.169   0.853
  119TIP3   OH2  299   2.447   3.126   1.451
  119TIP3    H1  300   2.476   3.214   1.473
  119TIP3    H2  301   2.488   3.107   1.366
  120TIP3   OH2  302   1.006   7.661   4.361
  120TIP3    H1  303   1.046   7.619   4.436
  120TIP3    H2  304   0.957   7.591   4.317
  121TIP3   OH2  305   0.497   0.970   3.954
  121TIP3    H1  306   0.581   1.015   3.963
  121TIP3    H2  307   0.488   0.954   3.860
  122TIP3   OH2  308   0.792   5.756   1.985
  122TIP3    H1  309   0.796   5.701   2.063
  122TIP3    H2  310   0.704   5.743   1.950
  123TIP3   OH2  311   6.407   6.271   2.424
  123TIP3    H1  312   6.402   6.276   2.519
  123TIP3    H2  313   6.413   6.363   2.395
  124TIP3   OH2  314   3.564   6.421   3.385
  124TIP3    H1  315   3.573   6.355   3.453
  124TIP3    H2  316   3.498   6.386   3.326
  125TIP3   OH2  317   7.487   5.195   4.911
  125TIP3    H1  318   7.543   5.237   4.846
  125TIP3    H2  319   7.481   5.257   4.983
  126TIP3   OH2  320   7.758   0.069   0.395
  126TIP3    H1  321   7.811  -0.007   0.370
  126TIP3    H2  322   7.668   0.044   0.373
  127TIP3   OH2  323   6.227   0.451   4.179
  127TIP3    H1  324   6.148   0.474   4.131
  127TIP3    H2  325   6.295   0.441   4.112
  128TIP3   OH2  326   2.341   3.121   5.731
  128TIP3    H1  327   2.374   3.191   5.787
  128TIP3    H2  328   2.334   3.161   5.644
  129TIP3   OH2  329   5.412   1.024   6.684
  129TIP3    H1  330   5.471   1.035   6.609
  129TIP3    H2  331   5.434   0.938   6.720
  130TIP3   OH2  332   1.795   4.620   6.537
  130TIP3    H1  333   1.882   4.657   6.556
  130TIP3    H2  334   1.813   4.530   6.509
  131TIP3   OH2  335   1.206   2.469   1.408
  131TIP3    H1  336   1.255   2.549   1.427
  131TIP3    H2  337   1.237   2.441   1.322
  132TIP3   OH2  338   1.085   5.901   5.160
  132TIP3    H1  339   1.172   5.921   5.124
  132TIP3    H2  340   1.087   5.936   5.249
  133TIP3   OH2  341   6.262   2.722   5.627
  133TIP3    H1  342   6.250   2.710   5.533
  133TIP3    H2  343   6.174   2.713   5.665
  134TIP3   OH2  344   3.654   1.735   5.512
  134TIP3    H1  345   3.621   1.702   5.595
  134TIP3    H2  346   3.603   1.690   5.446
  135TIP3   OH2  347   7.558   1.285   5.666
  135TIP3    H1  348   7.653   1.280   5.671
  135TIP3    H2  349   7.537   1.370   5.705
  136TIP3   OH2  350   5.216   3.001   3.913
  136TIP3    H1  351   5.133   3.048   3.929
  136TIP3    H2  352   5.203   2.958   3.829
  137TIP3   OH2  353   1.887   3.422   4.393
  137TIP3    H1  354   1.966   3.444   4.442
  137TIP3    H2  355   1.829   3.382   4.458
  138TIP3   OH2  356   6.596   0.697   5.135
  138TIP3    H1  357   6.522   0.747   5.101
  138TIP3    H2  358   6.596   0.714   5.229
  139TIP3   OH2  359   4.726   3.565   6.528
  139TIP3    H1  360   4.736   3.572   6.433
  139TIP3    H2  361   4.697   3.652   6.556
  140TIP3   OH2  362   2.407   6.570   6.164
  140TIP3    H1  363   2.323   6.563   6.119
  140TIP3    H2  364   2.450   6.645   6.122
  141TIP3   OH2  365   2.172   6.526   2.723
  141TIP3    H1  366   2.204   6.576   2.798
  141TIP3    H2  367   2.233   6.546   2.652
  142TIP3   OH2  368   1.442   4.477   2.959
  142TIP3    H1  369   1.463   4.404   3.017
  142TIP3    H2  370   1.441   4.439   2.871
  143TIP3   OH2  371   5.239   1.891   1.687
  143TIP3    H1  372   5.218   1.945   1.763
  143TIP3    H2  373   5.332   1.870   1.697
  144TIP3   OH2  374   6.305   6.966   4.880
  144TIP3    H1  375   6.345   6.910   4.946
  144TIP3    H2  376   6.241   6.910   4.836
  145TIP3   OH2  377   3.534   4.160   0.706
  145TIP3    H1  378   3.532   4.146   0.800
  145TIP3    H2  379   3.516   4.074   0.668
  146TIP3   OH2  380   5.407   1.015   1.344
  146TIP3    H1  381   5.445   1.003   1.431
  146TIP3    H2  382   5.441   1.099   1.315
  147TIP3   OH2  383   4.852   1.178   2.473
  147TIP3    H1  384   4.790   1.207   2.541
  147TIP3    H2  385   4.847   1.083   2.475
  148TIP3   OH2  386   7.252   2.826   2.481
  148TIP3    H1  387   7.312   2.899   2.497
  148TIP3    H2  388   7.296   2.750   2.521
  149TIP3   OH2  389   1.681   0.132   5.836
  149TIP3    H1  390   1.650   0.094   5.919
  149TIP3    H2  391   1.745   0.069   5.803
  150TIP3   OH2  392   7.301   1.243   6.341
  150TIP3    H1  393   7.339   1.313   6.288
  150TIP3    H2  394   7.349   1.246   6.424
  151TIP3   OH2  395   4.230   7.687   1.717
  151TIP3    H1  396   4.172   7.672   1.642
  151TIP3    H2  397   4.317   7.697   1.679
  152TIP3   OH2  398   0.068   7.407   0.158
  152TIP3    H1  399  -0.015   7.407   0.205
  152TIP3    H2  400   0.043   7.390   0.067
  153TIP3   OH2  401   7.581   3.757   1.728
  153TIP3    H1  402   7.612   3.794   1.646
  153TIP3    H2  403   7.493   3.793   1.738
  154TIP3   OH2  404   8.161   6.986   1.044
  154TIP3    H1  405   8.112   6.905   1.029
  154TIP3    H2  406   8.174   6.990   1.138
  155TIP3   OH2  407   2.885   6.666   1.284
  155TIP3    H1  408   2.818   6.638   1.346
  155TIP3    H2  409   2.843   6.732   1.230
  156TIP3   OH2  410   0.607   5.680   6.065
  156TIP3    H1  411   0.534   5.714   6.116
  156TIP3    H2  412   0.594   5.585   6.066
  157TIP3   OH2  413   5.733   4.101   0.526
  157TIP3    H1  414   5.680   4.140   0.596
  157TIP3    H2  415   5.716   4.158   0.451
  158TIP3   OH2  416   3.050   6.585   3.867
  158TIP3    H1  417   3.004   6.669   3.869
  158TIP3    H2  418   2.995   6.527   3.921
  159TIP3   OH2  419   7.646   1.489   0.699
  159TIP3    H1  420   7.724   1.494   0.644
  159TIP3    H2  421   7.676   1.516   0.785
  160TIP3   OH2  422   1.497   0.690   3.998
  160TIP3    H1  423   1.416   0.648   3.970
  160TIP3    H2  424   1.508   0.764   3.939
  161TIP3   OH2  425   1.742   1.240   5.066
  161TIP3    H1  426   1.769   1.278   4.983
  161TIP3    H2  427   1.698   1.311   5.112
  162TIP3   OH2  428   7.101   3.300   3.016
  162TIP3    H1  429   7.196   3.300   3.013
  162TIP3    H2  430   7.074   3.326   2.927
  163TIP3   OH2  431   1.395   3.003   1.842
  163TIP3    H1  432   1.485   3.020   1.815
  163TIP3    H2  433   1.372   3.076   1.899
  164TIP3   OH2  434   0.332   3.764   6.443
  164TIP3    H1  435   0.262   3.821   6.413
  164TIP3    H2  436   0.403   3.825   6.467
  165TIP3   OH2  437   0.679   7.742   1.935
  165TIP3    H1  438   0.709   7.832   1.951
  165TIP3    H2  439   0.622   7.750   1.859
  166TIP3   OH2  440   3.005   0.759   0.418
  166TIP3    H1  441   3.032   0.843   0.456
  166TIP3    H2  442   2.932   0.782   0.359
  167TIP3   OH2  443   0.891   0.199   1.511
  167TIP3    H1  444   0.908   0.274   1.453
  167TIP3    H2  445   0.825   0.147   1.465
  168TIP3   OH2  446   5.522   1.885   2.735
  168TIP3    H1  447   5.614   1.866   2.719
  168TIP3    H2  448   5.485   1.903   2.648
  169TIP3   OH2  449   2.613   6.467   6.624
  169TIP3    H1  450   2.661   6.495   6.702
  169TIP3    H2  451   2.668   6.496   6.551
  170TIP3   OH2  452   1.592   6.773   1.293
  170TIP3    H1  453   1.511   6.739   1.332
  170TIP3    H2  454   1.587   6.745   1.201
  171TIP3   OH2  455   1.526   6.819   6.446
  171TIP3    H1  456   1.577   6.899   6.441
  171TIP3    H2  457   1.436   6.848   6.462
  172TIP3   OH2  458   4.817   7.387   6.323
  172TIP3    H1  459   4.900   7.371   6.279
  172TIP3    H2  460   4.786   7.470   6.286
  173TIP3   OH2  461   3.781   0.358   1.126
  173TIP3    H1  462   3.803   0.442   1.167
  173TIP3    H2  463   3.743   0.382   1.042
  174TIP3   OH2  464   6.191   1.127   5.001
  174TIP3    H1  465   6.110   1.083   5.026
  174TIP3    H2  466   6.236   1.063   4.946
  175TIP3   OH2  467   4.982   1.450   6.709
  175TIP3    H1  468   5.012   1.360   6.701
  175TIP3    H2  469   5.031   1.498   6.642
  176TIP3   OH2  470   3.799   0.914   5.572
  176TIP3    H1  471   3.867   0.847   5.565
  176TIP3    H2  472   3.847   0.996   5.578
  177TIP3   OH2  473   6.850   1.165   2.486
  177TIP3    H1  474   6.827   1.227   2.417
  177TIP3    H2  475   6.903   1.099   2.442
  178TIP3   OH2  476   7.665   4.461   5.413
  178TIP3    H1  477   7.576   4.486   5.388
  178TIP3    H2  478   7.654   4.375   5.454
  179TIP3   OH2  479   4.326   4.763   1.290
  179TIP3    H1  480   4.395   4.697   1.294
  179TIP3    H2  481   4.325   4.791   1.199
  180TIP3   OH2  482   4.763   3.117   4.973
  180TIP3    H1  483   4.743   3.193   4.918
  180TIP3    H2  484   4.857   3.103   4.961
  181TIP3   OH2  485   2.457   3.184   3.389
  181TIP3    H1  486   2.513   3.213   3.461
  181TIP3    H2  487   2.510   3.196   3.311
  182TIP3   OH2  488   0.203   3.979   6.267
  182TIP3    H1  489   0.233   4.069   6.285
  182TIP3    H2  490   0.270   3.944   6.208
  183TIP3   OH2  491   5.585   2.625   3.881
  183TIP3    H1  492   5.542   2.542   3.859
  183TIP3    H2  493   5.548   2.688   3.819
  184TIP3   OH2  494   4.337   0.608   3.348
  184TIP3    H1  495   4.248   0.591   3.315
  184TIP3    H2  496   4.367   0.523   3.379
  185TIP3   OH2  497   1.789   5.416   5.854
  185TIP3    H1  498   1.825   5.400   5.767
  185TIP3    H2  499   1.694   5.403   5.844
  186TIP3   OH2  500   3.178   3.893   2.250
  186TIP3    H1  501   3.230   3.813   2.240
  186TIP3    H2  502   3.156   3.919   2.161
  187TIP3   OH2  503   2.170   4.341   5.658
  187TIP3    H1  504   2.127   4.427   5.662
  187TIP3    H2  505   2.099   4.279   5.646
  188TIP3   OH2  506   4.435   0.567   4.380
  188TIP3    H1  507   4.482   0.591   4.300
  188TIP3    H2  508   4.378   0.642   4.398
  189TIP3   OH2  509   3.814   1.058   1.546
  189TIP3    H1  510   3.736   1.007   1.567
  189TIP3    H2  511   3.782   1.149   1.542
  190TIP3   OH2  512   2.125   5.945   1.368
  190TIP3    H1  513   2.035   5.955   1.397
  190TIP3    H2  514   2.119   5.896   1.286
  191TIP3   OH2  515   7.738   0.982   5.908
  191TIP3    H1  516   7.710   0.924   5.979
  191TIP3    H2  517   7.657   1.020   5.875
  192TIP3   OH2  518   7.406   3.498  -0.024
  192TIP3    H1  519   7.370   3.545   0.050
  192TIP3    H2  520   7.432   3.567  -0.086
  193TIP3   OH2  521   2.221   5.290   5.114
  193TIP3    H1  522   2.311   5.315   5.136
  193TIP3    H2  523   2.203   5.214   5.169
  194TIP3   OH2  524   4.066   4.213   1.676
  194TIP3    H1  525   4.104   4.299   1.690
  194TIP3    H2  526   3.992   4.209   1.736
  195TIP3   OH2  527   2.537   1.644   3.478
  195TIP3    H1  528   2.493   1.634   3.393
  195TIP3    H2  529   2.624   1.677   3.457
  196TIP3   OH2  530   7.791   5.213   3.984
  196TIP3    H1  531   7.766   5.288   4.037
  196TIP3    H2  532   7.844   5.158   4.041
  197TIP3   OH2  533   6.244   7.149   0.457
  197TIP3    H1  534   6.305   7.075   0.465
  197TIP3    H2  535   6.177   7.117   0.397
  198TIP3   OH2  536   4.751   5.829   4.022
  198TIP3    H1  537   4.769   5.891   3.951
  198TIP3    H2  538   4.772   5.743   3.986
  199TIP3   OH2  539   1.676   6.429   5.338
  199TIP3    H1  540   1.744   6.363   5.336
  199TIP3    H2  541   1.649   6.432   5.430
  200TIP3   OH2  542   2.980   7.112   6.416
  200TIP3    H1  543   2.929   7.193   6.422
  200TIP3    H2  544   2.963   7.080   6.328
  201TIP3   OH2  545   1.514   5.495   1.898
  201TIP3    H1  546   1.440   5.557   1.899
  201TIP3    H2  547   1.569   5.523   1.971
  202TIP3   OH2  548   8.192   2.295   5.862
  202TIP3    H1  549   8.216   2.260   5.947
  202TIP3    H2  550   8.110   2.250   5.840
  203TIP3   OH2  551  -0.045   3.399   4.233
  203TIP3    H1  552  -0.067   3.311   4.204
  203TIP3    H2  553   0.049   3.397   4.251
  204TIP3   OH2  554   4.501   0.885   4.240
  204TIP3    H1  555   4.508   0.978   4.217
  204TIP3    H2  556   4.560   0.874   4.315
  205TIP3   OH2  557   2.296   1.052   4.642
  205TIP3    H1  558   2.354   1.006   4.582
  205TIP3    H2  559   2.243   0.982   4.681
  206TIP3   OH2  560   5.830   1.339   4.908
  206TIP3    H1  561   5.789   1.260   4.872
  206TIP3    H2  562   5.887   1.371   4.838
  207TIP3   OH2  563   5.649   0.810   4.714
  207TIP3    H1  564   5.718   0.801   4.648
  207TIP3    H2  565   5.617   0.721   4.728
  208TIP3   OH2  566   2.540   7.700   4.118
  208TIP3    H1  567   2.570   7.732   4.204
  208TIP3    H2  568   2.617   7.657   4.080
  209TIP3   OH2  569   3.140   4.144   2.385
  209TIP3    H1  570   3.077   4.125   2.454
  209TIP3    H2  571   3.170   4.058   2.356
  210TIP3   OH2  572   4.706   0.162   5.157
  210TIP3    H1  573   4.746   0.101   5.096
  210TIP3    H2  574   4.640   0.208   5.105
  211TIP3   OH2  575   2.831   1.657   4.617
  211TIP3    H1  576   2.743   1.620   4.613
  211TIP3    H2  577   2.853   1.676   4.525
  212TIP3   OH2  578   3.708   3.683   2.213
  212TIP3    H1  579   3.773   3.714   2.276
  212TIP3    H2  580   3.632   3.740   2.229
  213TIP3   OH2  581   6.251   2.715   3.218
  213TIP3    H1  582   6.290   2.773   3.153
  213TIP3    H2  583   6.307   2.638   3.219
  214TIP3   OH2  584   7.899   6.881   4.766
  214TIP3    H1  585   7.855   6.803   4.732
  214TIP3    H2  586   7.977   6.889   4.712
  215TIP3   OH2  587   6.261   6.239   3.788
  215TIP3    H1  588   6.199   6.256   3.717
  215TIP3    H2  589   6.228   6.290   3.861
  216TIP3   OH2  590   7.363   6.862   4.717
  216TIP3    H1  591   7.293   6.843   4.655
  216TIP3    H2  592   7.339   6.946   4.755
  217TIP3   OH2  593   5.704   3.940   5.143
  217TIP3    H1  594   5.744   3.884   5.210
  217TIP3    H2  595   5.631   3.982   5.188
  218TIP3   OH2  596   5.366   1.961   2.519
  218TIP3    H1  597   5.284   1.956   2.568
  218TIP3    H2  598   5.342   1.998   2.434
  219TIP3   OH2  599   6.979   4.496   4.391
  219TIP3    H1  600   7.045   4.521   4.326
  219TIP3    H2  601   7.023   4.433   4.447
  220TIP3   OH2  602   2.627   1.185   5.169
  220TIP3    H1  603   2.593   1.272   5.191
  220TIP3    H2  604   2.697   1.202   5.106
  221TIP3   OH2  605   6.573   3.023   4.440
  221TIP3    H1  606   6.585   3.071   4.358
  221TIP3    H2  607   6.479   3.004   4.443
  222TIP3   OH2  608   4.545   2.004   3.107
  222TIP3    H1  609   4.596   1.941   3.056
  222TIP3    H2  610   4.551   2.085   3.056
  223TIP3   OH2  611   5.768   7.116   2.389
  223TIP3    H1  612   5.712   7.165   2.329
  223TIP3    H2  613   5.831   7.072   2.332
  224TIP3   OH2  614   0.216   2.331   3.227
  224TIP3    H1  615   0.212   2.384   3.307
  224TIP3    H2  616   0.252   2.390   3.161
  225TIP3   OH2  617   6.936   0.376   0.785
  225TIP3    H1  618   7.008   0.397   0.726
  225TIP3    H2  619   6.931   0.451   0.844
  226TIP3   OH2  620   5.282   2.935   3.494
  226TIP3    H1  621   5.258   2.940   3.402
  226TIP3    H2  622   5.303   2.842   3.509
  227TIP3   OH2  623   7.140   6.614   0.578
  227TIP3    H1  624   7.190   6.659   0.509
  227TIP3    H2  625   7.052   6.605   0.541
  228TIP3   OH2  626   0.572   0.772   4.519
  228TIP3    H1  627   0.534   0.825   4.590
  228TIP3    H2  628   0.499   0.757   4.459
  229TIP3   OH2  629   8.332   0.597   5.478
  229TIP3    H1  630   8.266   0.650   5.523
  229TIP3    H2  631   8.309   0.605   5.385
  230TIP3   OH2  632   4.100   5.990   6.097
  230TIP3    H1  633   4.036   5.921   6.078
  230TIP3    H2  634   4.082   6.058   6.033
  231TIP3   OH2  635   1.848   6.138   2.295
  231TIP3    H1  636   1.822   6.209   2.236
  231TIP3    H2  637   1.942   6.126   2.279
  232TIP3   OH2  638   4.719   1.146   4.507
  232TIP3    H1  639   4.814   1.155   4.513
  232TIP3    H2  640   4.685   1.232   4.532
  233TIP3   OH2  641   0.306   4.337   3.799
  233TIP3    H1  642   0.317   4.292   3.716
  233TIP3    H2  643   0.253   4.414   3.777
  234TIP3   OH2  644   4.622   2.286   6.035
  234TIP3    H1  645   4.582   2.330   6.110
  234TIP3    H2  646   4.571   2.313   5.960
  235TIP3   OH2  647   7.124   5.619   2.257
  235TIP3    H1  648   7.152   5.679   2.325
  235TIP3    H2  649   7.045   5.658   2.220
  236TIP3   OH2  650   8.307   3.935   1.729
  236TIP3    H1  651   8.347   3.875   1.792
  236TIP3    H2  652   8.282   4.011   1.781
  237TIP3   OH2  653   4.154   4.173   5.926
  237TIP3    H1  654   4.142   4.128   5.843
  237TIP3    H2  655   4.149   4.104   5.992
  238TIP3   OH2  656   7.711   0.311   1.657
  238TIP3    H1  657   7.805   0.311   1.676
  238TIP3    H2  658   7.698   0.233   1.602
  239TIP3   OH2  659   1.498   4.440   5.222
  239TIP3    H1  660   1.439   4.446   5.147
  239TIP3    H2  661   1.480   4.520   5.273
  240TIP3   OH2  662   7.582   7.397   0.408
  240TIP3    H1  663   7.534   7.380   0.327
  240TIP3    H2  664   7.566   7.320   0.463
  241TIP3   OH2  665   6.850   3.166   1.549
  241TIP3    H1  666   6.833   3.239   1.608
  241TIP3    H2  667   6.909   3.108   1.597
  242TIP3   OH2  668   8.205   2.822   1.125
  242TIP3    H1  669   8.185   2.864   1.042
  242TIP3    H2  670   8.300   2.813   1.125
  243TIP3   OH2  671   6.512   5.885   4.567
  243TIP3    H1  672   6.607   5.880   4.570
  243TIP3    H2  673   6.491   5.905   4.476
  244TIP3   OH2  674   1.431   0.072   0.788
  244TIP3    H1  675   1.382  -0.005   0.816
  244TIP3    H2  676   1.367   0.142   0.785
  245TIP3   OH2  677   6.620   5.361   3.200
  245TIP3    H1  678   6.579   5.282   3.235
  245TIP3    H2  679   6.577   5.375   3.116
  246TIP3   OH2  680   2.726   3.450   2.480
  246TIP3    H1  681   2.739   3.544   2.466
  246TIP3    H2  682   2.734   3.439   2.575
  247TIP3   OH2  683   0.933   7.286   5.775
  247TIP3    H1  684   0.996   7.357   5.774
  247TIP3    H2  685   0.848   7.328   5.764
  248TIP3   OH2  686   4.225   3.713   2.721
  248TIP3    H1  687   4.274   3.648   2.771
  248TIP3    H2  688   4.159   3.662   2.673
  249TIP3   OH2  689   8.263   2.294   6.640
  249TIP3    H1  690   8.185   2.339   6.672
  249TIP3    H2  691   8.290   2.238   6.713
  250TIP3   OH2  692   7.478   6.487   5.110
  250TIP3    H1  693   7.478   6.530   5.024
  250TIP3    H2  694   7.391   6.506   5.146
  251TIP3   OH2  695   4.750   1.690   0.380
  251TIP3    H1  696   4.769   1.777   0.414
  251TIP3    H2  697   4.779   1.630   0.449
  252TIP3   OH2  698   2.893   6.457   4.090
  252TIP3    H1  699   2.881   6.411   4.173
  252TIP3    H2  700   2.805   6.468   4.055
  253TIP3   OH2  701   6.614   3.562   2.629
  253TIP3    H1  702   6.548   3.596   2.689
  253TIP3    H2  703   6.695   3.561   2.681
  254TIP3   OH2  704   6.769   5.749   1.410
  254TIP3    H1  705   6.692   5.708   1.372
  254TIP3    H2  706   6.791   5.819   1.348
  255TIP3   OH2  707   1.653   6.145   3.955
  255TIP3    H1  708   1.571   6.186   3.982
  255TIP3    H2  709   1.718   6.177   4.018
  256TIP3   OH2  710   6.809   0.544   3.630
  256TIP3    H1  711   6.770   0.488   3.563
  256TIP3    H2  712   6.898   0.560   3.600
  257TIP3   OH2  713   6.424   3.966   0.638
  257TIP3    H1  714   6.361   3.895   0.631
  257TIP3    H2  715   6.503   3.926   0.673
  258TIP3   OH2  716   3.173   6.054   3.493
  258TIP3    H1  717   3.223   6.036   3.413
  258TIP3    H2  718   3.102   5.990   3.492
  259TIP3   OH2  719   5.249   4.587   1.397
  259TIP3    H1  720   5.230   4.533   1.474
  259TIP3    H2  721   5.345   4.590   1.393
  260TIP3   OH2  722   2.135   2.212   2.907
  260TIP3    H1  723   2.186   2.200   2.826
  260TIP3    H2  724   2.087   2.293   2.893
  261TIP3   OH2  725   6.705   2.056   0.220
  261TIP3    H1  726   6.661   2.136   0.250
  261TIP3    H2  727   6.799   2.075   0.229
  262TIP3   OH2  728   1.280   3.853   5.603
  262TIP3    H1  729   1.268   3.945   5.628
  262TIP3    H2  730   1.196   3.812   5.622
  263TIP3   OH2  731   4.087   3.565   3.973
  263TIP3    H1  732   4.002   3.558   4.017
  263TIP3    H2  733   4.149   3.526   4.034
  264TIP3   OH2  734   8.122   7.030   0.501
  264TIP3    H1  735   8.176   7.004   0.426
  264TIP3    H2  736   8.041   7.062   0.462
  265TIP3   OH2  737   1.404   3.974   3.000
  265TIP3    H1  738   1.339   3.905   3.016
  265TIP3    H2  739   1.435   3.998   3.088
  266TIP3   OH2  740   7.002   2.013   4.244
  266TIP3    H1  741   7.012   1.963   4.163
  266TIP3    H2  742   6.944   1.959   4.298
  267TIP3   OH2  743   2.378   4.630   5.654
  267TIP3    H1  744   2.299   4.646   5.705
  267TIP3    H2  745   2.441   4.594   5.717
  268TIP3   OH2  746   7.121   6.093   5.224
  268TIP3    H1  747   7.106   6.002   5.247
  268TIP3    H2  748   7.110   6.141   5.306
  269TIP3   OH2  749   6.379   3.566   1.297
  269TIP3    H1  750   6.341   3.647   1.262
  269TIP3    H2  751   6.469   3.590   1.322
  270TIP3   OH2  752   5.251   2.305   0.977
  270TIP3    H1  753   5.223   2.321   0.887
  270TIP3    H2  754   5.203   2.369   1.029
  271TIP3   OH2  755   6.162   4.278   4.952
  271TIP3    H1  756   6.106   4.205   4.978
  271TIP3    H2  757   6.180   4.262   4.859
  272TIP3   OH2  758   3.736   0.742   4.003
  272TIP3    H1  759   3.735   0.655   3.962
  272TIP3    H2  760   3.819   0.746   4.049
  273TIP3   OH2  761   1.853   0.073   2.532
  273TIP3    H1  762   1.876  -0.020   2.540
  273TIP3    H2  763   1.895   0.100   2.450
  274TIP3   OH2  764   6.603   1.571   4.108
  274TIP3    H1  765   6.644   1.484   4.110
  274TIP3    H2  766   6.594   1.592   4.015
  275TIP3   OH2  767   3.039   2.311   5.165
  275TIP3    H1  768   3.117   2.365   5.176
  275TIP3    H2  769   2.990   2.354   5.095
  276TIP3   OH2  770   6.921   2.513   6.306
  276TIP3    H1  771   6.885   2.588   6.259
  276TIP3    H2  772   6.978   2.470   6.242
  277TIP3   OH2  773   1.934   0.225   3.508
  277TIP3    H1  774   2.010   0.274   3.540
  277TIP3    H2  775   1.893   0.190   3.586
  278TIP3   OH2  776   2.165   6.670   6.786
  278TIP3    H1  777   2.148   6.716   6.705
  278TIP3    H2  778   2.137   6.731   6.855
  279TIP3   OH2  779   3.112   1.369   1.820
  279TIP3    H1  780   3.039   1.358   1.759
  279TIP3    H2  781   3.166   1.291   1.807
  280TIP3   OH2  782   1.288   0.604   4.554
  280TIP3    H1  783   1.312   0.513   4.537
  280TIP3    H2  784   1.275   0.608   4.649
  281TIP3   OH2  785   2.363   1.473   5.431
  281TIP3    H1  786   2.286   1.419   5.414
  281TIP3    H2  787   2.363   1.486   5.526
  282TIP3   OH2  788   2.262   7.732   2.996
  282TIP3    H1  789   2.283   7.692   3.081
  282TIP3    H2  790   2.202   7.803   3.018
  283TIP3   OH2  791   7.228   1.850   1.348
  283TIP3    H1  792   7.268   1.785   1.290
  283TIP3    H2  793   7.276   1.931   1.330
  284TIP3   OH2  794   7.094   5.271   2.793
  284TIP3    H1  795   7.051   5.224   2.721
  284TIP3    H2  796   7.184   5.282   2.763
  285TIP3   OH2  797   1.722   3.384   0.465
  285TIP3    H1  798   1.706   3.393   0.559
  285TIP3    H2  799   1.811   3.418   0.453
  286TIP3   OH2  800   5.684   5.737   3.300
  286TIP3    H1  801   5.596   5.757   3.268
  286TIP3    H2  802   5.706   5.654   3.258
  287TIP3   OH2  803   7.591   0.871   5.497
  287TIP3    H1  804   7.506   0.907   5.470
  287TIP3    H2  805   7.614   0.920   5.576
  288TIP3   OH2  806   5.364   5.045   4.722
  288TIP3    H1  807   5.376   4.984   4.796
  288TIP3    H2  808   5.285   5.094   4.744
  289TIP3   OH2  809   5.291   6.412   0.592
  289TIP3    H1  810   5.295   6.493   0.643
  289TIP3    H2  811   5.202   6.411   0.555
  290TIP3   OH2  812   6.589   5.627   4.109
  290TIP3    H1  813   6.614   5.689   4.178
  290TIP3    H2  814   6.648   5.647   4.036
  291TIP3   OH2  815   6.752   3.397   1.730
  291TIP3    H1  816   6.802   3.476   1.714
  291TIP3    H2  817   6.781   3.367   1.816
  292TIP3   OH2  818   4.631   7.457   4.387
  292TIP3    H1  819   4.550   7.411   4.408
  292TIP3    H2  820   4.677   7.464   4.471
  293TIP3   OH2  821   0.558   6.192   2.677
  293TIP3    H1  822   0.473   6.216   2.641
  293TIP3    H2  823   0.560   6.096   2.671
  294TIP3   OH2  824   7.807   3.894   0.048
  294TIP3    H1  825   7.863   3.947   0.104
  294TIP3    H2  826   7.784   3.951  -0.025
  295TIP3   OH2  827   3.933   0.631   5.265
  295TIP3    H1  828   3.927   0.683   5.345
  295TIP3    H2  829   4.022   0.644   5.234
  296TIP3   OH2  830   4.330   0.977   3.143
  296TIP3    H1  831   4.252   1.032   3.136
  296TIP3    H2  832   4.309   0.914   3.212
  297TIP3   OH2  833   7.480   7.703   1.528
  297TIP3    H1  834   7.500   7.797   1.537
  297TIP3    H2  835   7.499   7.683   1.436
  298TIP3   OH2  836   4.147   7.836   4.619
  298TIP3    H1  837   4.064   7.875   4.646
  298TIP3    H2  838   4.201   7.839   4.697
  299TIP3   OH2  839   3.536   3.790   2.584
  299TIP3    H1  840   3.529   3.757   2.673
  299TIP3    H2  841   3.623   3.830   2.580
  300TIP3   OH2  842   1.912   6.332   0.820
  300TIP3    H1  843   1.847   6.275   0.778
  300TIP3    H2  844   1.985   6.335   0.758
  301TIP3   OH2  845   6.543   5.348   3.886
  301TIP3    H1  846   6.543   5.253   3.899
  301TIP3    H2  847   6.594   5.361   3.806
  302TIP3   OH2  848   4.764   7.669   4.080
  302TIP3    H1  849   4.836   7.732   4.071
  302TIP3    H2  850   4.807   7.584   4.089
  303TIP3   OH2  851   7.085   6.178   5.746
  303TIP3    H1  852   7.034   6.254   5.774
  303TIP3    H2  853   7.062   6.110   5.810
  304TIP3   OH2  854   4.130   4.000   0.124
  304TIP3    H1  855   4.198   4.018   0.189
  304TIP3    H2  856   4.093   4.086   0.105
  305TIP3   OH2  857   7.015   6.108   3.193
  305TIP3    H1  858   7.075   6.034   3.187
  305TIP3    H2  859   7.043   6.155   3.272
  306TIP3   OH2  860   0.729   6.058   6.740
  306TIP3    H1  861   0.640   6.093   6.735
  306TIP3    H2  862   0.742   6.041   6.833
  307TIP3   OH2  863   6.886   0.385   5.012
  307TIP3    H1  864   6.844   0.389   4.926
  307TIP3    H2  865   6.980   0.391   4.992
  308TIP3   OH2  866   7.607   4.206   4.415
  308TIP3    H1  867   7.670   4.234   4.482
  308TIP3    H2  868   7.618   4.270   4.344
  309TIP3   OH2  869   2.842   7.712   3.310
  309TIP3    H1  870   2.749   7.703   3.332
  309TIP3    H2  871   2.884   7.637   3.350
  310TIP3   OH2  872   5.513   5.856   1.515
  310TIP3    H1  873   5.602   5.880   1.490
  310TIP3    H2  874   5.493   5.912   1.589
  311TIP3   OH2  875   2.828   6.380   6.423
  311TIP3    H1  876   2.745   6.420   6.399
  311TIP3    H2  877   2.846   6.317   6.353
  312TIP3   OH2  878   7.866   0.835   1.020
  312TIP3    H1  879   7.799   0.807   0.957
  312TIP3    H2  880   7.832   0.806   1.105
  313TIP3   OH2  881   2.156   2.886   0.246
  313TIP3    H1  882   2.061   2.882   0.250
  313TIP3    H2  883   2.176   2.977   0.223
  314TIP3   OH2  884   3.777   5.154   0.237
  314TIP3    H1  885   3.782   5.143   0.332
  314TIP3    H2  886   3.737   5.240   0.225
  315TIP3   OH2  887   5.988   7.637   6.438
  315TIP3    H1  888   5.895   7.644   6.417
  315TIP3    H2  889   5.990   7.613   6.531
  316TIP3   OH2  890   4.242   6.537   0.155
  316TIP3    H1  891   4.324   6.489   0.170
  316TIP3    H2  892   4.205   6.548   0.242
  317TIP3   OH2  893   5.119   2.592   6.225
  317TIP3    H1  894   5.114   2.686   6.207
  317TIP3    H2  895   5.037   2.557   6.190
  318TIP3   OH2  896   6.707   3.444   5.669
  318TIP3    H1  897   6.679   3.505   5.736
  318TIP3    H2  898   6.791   3.479   5.637
  319TIP3   OH2  899   1.614   6.720   1.029
  319TIP3    H1  900   1.541   6.657   1.028
  319TIP3    H2  901   1.681   6.679   0.974
  320TIP3   OH2  902   3.106   0.995   3.336
  320TIP3    H1  903   3.100   0.960   3.247
  320TIP3    H2  904   3.149   0.926   3.386
  321TIP3   OH2  905   7.562   5.145   1.877
  321TIP3    H1  906   7.533   5.229   1.840
  321TIP3    H2  907   7.628   5.114   1.815
  322TIP3   OH2  908   1.525   7.354   3.736
  322TIP3    H1  909   1.569   7.359   3.651
  322TIP3    H2  910   1.555   7.431   3.784
  323TIP3   OH2  911   5.237   5.817   0.619
  323TIP3    H1  912   5.165   5.819   0.682
  323TIP3    H2  913   5.232   5.730   0.580
  324TIP3   OH2  914   6.296   1.383   0.723
  324TIP3    H1  915   6.358   1.313   0.744
  324TIP3    H2  916   6.228   1.376   0.790
  325TIP3   OH2  917   6.597   3.952   1.905
  325TIP3    H1  918   6.626   4.036   1.868
  325TIP3    H2  919   6.606   3.964   1.999
  326TIP3   OH2  920   6.921   0.393   0.149
  326TIP3    H1  921   6.887   0.461   0.091
  326TIP3    H2  922   6.944   0.321   0.092
  327TIP3   OH2  923   7.029   0.707   3.314
  327TIP3    H1  924   6.998   0.798   3.313
  327TIP3    H2  925   7.011   0.676   3.402
  328TIP3   OH2  926   0.677   1.248   1.873
  328TIP3    H1  927   0.633   1.167   1.845
  328TIP3    H2  928   0.625   1.279   1.947
  329TIP3   OH2  929   7.187   5.077   5.294
  329TIP3    H1  930   7.113   5.137   5.291
  329TIP3    H2  931   7.189   5.044   5.383
  330TIP3   OH2  932   4.084   2.453   3.547
  330TIP3    H1  933   4.119   2.504   3.474
  330TIP3    H2  934   4.058   2.519   3.612
  331TIP3   OH2  935   6.421   0.466   0.398
  331TIP3    H1  936   6.412   0.551   0.441
  331TIP3    H2  937   6.447   0.487   0.309
  332TIP3   OH2  938   8.200   5.973   1.626
  332TIP3    H1  939   8.184   5.913   1.699
  332TIP3    H2  940   8.294   5.991   1.629
  333TIP3   OH2  941   5.197   6.184   2.838
  333TIP3    H1  942   5.206   6.089   2.838
  333TIP3    H2  943   5.160   6.205   2.752
  334TIP3   OH2  944   4.783   1.086   3.102
  334TIP3    H1  945   4.704   1.041   3.130
  334TIP3    H2  946   4.853   1.050   3.157
  335TIP3   OH2  947   2.690   4.744   3.466
  335TIP3    H1  948   2.699   4.812   3.398
  335TIP3    H2  949   2.777   4.705   3.471
  336TIP3   OH2  950   7.232   0.334   6.386
  336TIP3    H1  951   7.301   0.304   6.327
  336TIP3    H2  952   7.234   0.430   6.378
  337TIP3   OH2  953   6.252   6.822   6.590
  337TIP3    H1  954   6.185   6.843   6.525
  337TIP3    H2  955   6.308   6.900   6.592
  338TIP3   OH2  956   1.728   7.096   2.137
  338TIP3    H1  957   1.700   7.086   2.228
  338TIP3    H2  958   1.654   7.065   2.085
  339TIP3   OH2  959   4.952   7.665   0.216
  339TIP3    H1  960   4.984   7.583   0.253
  339TIP3    H2  961   4.954   7.651   0.121
  340TIP3   OH2  962   5.108   2.798   6.009
  340TIP3    H1  963   5.151   2.808   5.924
  340TIP3    H2  964   5.021   2.834   5.997
  341TIP3   OH2  965   0.872   7.136   2.279
  341TIP3    H1  966   0.844   7.093   2.359
  341TIP3    H2  967   0.835   7.224   2.285
  342TIP3   OH2  968   8.010   4.754   6.651
  342TIP3    H1  969   8.102   4.728   6.651
  342TIP3    H2  970   8.009   4.840   6.694
  343TIP3   OH2  971   1.665   3.460   1.629
  343TIP3    H1  972   1.647   3.538   1.577
  343TIP3    H2  973   1.702   3.397   1.567
  344TIP3   OH2  974   4.798   2.557   2.847
  344TIP3    H1  975   4.840   2.471   2.843
  344TIP3    H2  976   4.782   2.571   2.940
  345TIP3   OH2  977   0.680   1.583   3.042
  345TIP3    H1  978   0.769   1.581   3.006
  345TIP3    H2  979   0.674   1.505   3.097
  346TIP3   OH2  980   6.423   7.526   5.116
  346TIP3    H1  981   6.351   7.475   5.155
  346TIP3    H2  982   6.501   7.496   5.162
  347TIP3   OH2  983   5.793   4.096   3.186
  347TIP3    H1  984   5.792   4.010   3.228
  347TIP3    H2  985   5.886   4.114   3.171
  348TIP3   OH2  986   6.477   1.864   5.446
  348TIP3    H1  987   6.468   1.912   5.364
  348TIP3    H2  988   6.511   1.929   5.508
  349TIP3   OH2  989   7.835   3.182   4.889
  349TIP3    H1  990   7.853   3.088   4.893
  349TIP3    H2  991   7.779   3.199   4.965
  350TIP3   OH2  992   1.414   0.116   6.037
  350TIP3    H1  993   1.377   0.028   6.043
  350TIP3    H2  994   1.344   0.170   6.000
  351TIP3   OH2  995   0.641   6.790   5.133
  351TIP3    H1  996   0.641   6.721   5.199
  351TIP3    H2  997   0.673   6.747   5.054
  352TIP3   OH2  998   3.185   4.063   6.523
  352TIP3    H1  999   3.169   4.050   6.616
  352TIP3    H2 1000   3.149   4.149   6.503
  353TIP3   OH2 1001   7.489   2.323   1.227
  353TIP3    H1 1002   7.472   2.414   1.202
  353TIP3    H2 1003   7.523   2.282   1.148
  354TIP3   OH2 1004   6.086   0.530   6.165
  354TIP3    H1 1005   6.043   0.515   6.081
  354TIP3    H2 1006   6.065   0.621   6.187
  355TIP3   OH2 1007   6.022   7.743   2.671
  355TIP3    H1 1008   6.094   7.761   2.732
  355TIP3    H2 1009   5.944   7.774   2.716
  356TIP3   OH2 1010   1.335   2.240   2.962
  356TIP3    H1 1011   1.314   2.251   3.055
  356TIP3    H2 1012   1.259   2.274   2.916
  357TIP3   OH2 1013   2.304   0.217   3.124
  357TIP3    H1 1014   2.386   0.238   3.170
  357TIP3    H2 1015   2.240   0.202   3.193
  358TIP3   OH2 1016   3.213   4.467   1.068
  358TIP3    H1 1017   3.129   4.431   1.041
  358TIP3    H2 1018   3.238   4.525   0.996
  359TIP3   OH2 1019   2.432   2.036   4.047
  359TIP3    H1 1020   2.421   2.131   4.044
  359TIP3    H2 1021   2.431   2.014   4.140
  360TIP3   OH2 1022   3.190   3.698   3.327
  360TIP3    H1 1023   3.253   3.718   3.258
  360TIP3    H2 1024   3.236   3.719   3.408
  361TIP3   OH2 1025   7.025   5.289   6.326
  361TIP3    H1 1026   7.085   5.335   6.384
  361TIP3    H2 1027   6.938   5.310   6.359
  362TIP3   OH2 1028   4.966   3.252   4.601
  362TIP3    H1 1029   4.973   3.347   4.610
  362TIP3    H2 1030   5.051   3.219   4.631
  363TIP3   OH2 1031   4.890   3.867   5.367
  363TIP3    H1 1032   4.928   3.785   5.336
  363TIP3    H2 1033   4.963   3.915   5.406
  364TIP3   OH2 1034   5.828   7.405   2.120
  364TIP3    H1 1035   5.920   7.423   2.098
  364TIP3    H2 1036   5.801   7.337   2.058
  365TIP3   OH2 1037   3.919   5.298   0.930
  365TIP3    H1 1038   3.993   5.350   0.900
  365TIP3    H2 1039   3.899   5.331   1.017
  366TIP3   OH2 1040   1.376   1.080   2.626
  366TIP3    H1 1041   1.393   1.167   2.663
  366TIP3    H2 1042   1.281   1.077   2.614
  367TIP3   OH2 1043   1.683   6.609   5.155
  367TIP3    H1 1044   1.707   6.696   5.186
  367TIP3    H2 1045   1.697   6.552   5.230
  368TIP3   OH2 1046   0.946   5.330   5.671
  368TIP3    H1 1047   1.019   5.343   5.732
  368TIP3    H2 1048   0.874   5.299   5.726
  369TIP3   OH2 1049   2.178   5.134   1.656
  369TIP3    H1 1050   2.142   5.118   1.744
  369TIP3    H2 1051   2.271   5.115   1.664
  370TIP3   OH2 1052   8.217   2.834   2.549
  370TIP3    H1 1053   8.240   2.748   2.584
  370TIP3    H2 1054   8.299   2.868   2.513
  371TIP3   OH2 1055   5.235   2.050   2.956
  371TIP3    H1 1056   5.181   1.986   2.909
  371TIP3    H2 1057   5.325   2.018   2.946
  372TIP3   OH2 1058   0.937   2.025   2.828
  372TIP3    H1 1059   0.848   2.047   2.801
  372TIP3    H2 1060   0.986   2.019   2.746
  373TIP3   OH2 1061   2.937   3.648   5.359
  373TIP3    H1 1062   2.901   3.583   5.299
  373TIP3    H2 1063   3.024   3.667   5.324
  374TIP3   OH2 1064   5.173   0.322   4.161
  374TIP3    H1 1065   5.132   0.284   4.239
  374TIP3    H2 1066   5.195   0.247   4.106
  375TIP3   OH2 1067   7.861   3.900   2.837
  375TIP3    H1 1068   7.911   3.818   2.837
  375TIP3    H2 1069   7.801   3.891   2.763
  376TIP3   OH2 1070   0.494   6.780   2.003
  376TIP3    H1 1071   0.529   6.723   2.071
  376TIP3    H2 1072   0.489   6.867   2.043
  377TIP3   OH2 1073   6.459   2.875   3.402
  377TIP3    H1 1074   6.493   2.807   3.344
  377TIP3    H2 1075   6.537   2.924   3.429
  378TIP3   OH2 1076   8.129   6.250   3.869
  378TIP3    H1 1077   8.221   6.247   3.842
  378TIP3    H2 1078   8.113   6.165   3.909
  379TIP3   OH2 1079   3.426   2.080   4.756
  379TIP3    H1 1080   3.359   2.130   4.710
  379TIP3    H2 1081   3.390   1.991   4.762
  380TIP3   OH2 1082   4.628   5.466   1.202
  380TIP3    H1 1083   4.617   5.371   1.199
  380TIP3    H2 1084   4.615   5.495   1.112
  381TIP3   OH2 1085   5.191   3.918   5.914
  381TIP3    H1 1086   5.252   3.986   5.885
  381TIP3    H2 1087   5.109   3.939   5.869
  382TIP3   OH2 1088   1.604   4.088   5.030
  382TIP3    H1 1089   1.627   4.172   5.069
  382TIP3    H2 1090   1.577   4.109   4.941
  383TIP3   OH2 1091   6.014   4.056   1.101
  383TIP3    H1 1092   6.047   4.131   1.150
  383TIP3    H2 1093   6.015   4.084   1.009
  384TIP3   OH2 1094   2.635   0.486   6.456
  384TIP3    H1 1095   2.679   0.435   6.388
  384TIP3    H2 1096   2.542   0.478   6.434
  385TIP3   OH2 1097   7.498   7.358   5.575
  385TIP3    H1 1098   7.534   7.411   5.646
  385TIP3    H2 1099   7.575   7.320   5.532
  386TIP3   OH2 1100   3.486   4.485   1.102
  386TIP3    H1 1101   3.391   4.499   1.104
  386TIP3    H2 1102   3.520   4.556   1.049
  387TIP3   OH2 1103   3.888   1.451   1.589
  387TIP3    H1 1104   3.807   1.431   1.542
  387TIP3    H2 1105   3.868   1.429   1.680
  388TIP3   OH2 1106   0.274   2.223   4.132
  388TIP3    H1 1107   0.183   2.249   4.147
  388TIP3    H2 1108   0.268   2.133   4.098
  389TIP3   OH2 1109   5.795   4.627   2.065
  389TIP3    H1 1110   5.738   4.697   2.098
  389TIP3    H2 1111   5.849   4.670   1.999
  390TIP3   OH2 1112   2.916   2.517   4.099
  390TIP3    H1 1113   2.886   2.539   4.010
  390TIP3    H2 1114   2.945   2.427   4.093
  391TIP3   OH2 1115   8.268   5.885   5.127
  391TIP3    H1 1116   8.277   5.977   5.103
  391TIP3    H2 1117   8.186   5.858   5.087
  392TIP3   OH2 1118   8.269   1.924   1.977
  392TIP3    H1 1119   8.205   1.915   1.907
  392TIP3    H2 1120   8.271   2.017   1.996
  393TIP3   OH2 1121   1.884   6.284   6.209
  393TIP3    H1 1122   1.973   6.250   6.211
  393TIP3    H2 1123   1.864   6.304   6.301
  394TIP3   OH2 1124   4.126   2.451   6.117
  394TIP3    H1 1125   4.161   2.374   6.071
  394TIP3    H2 1126   4.060   2.414   6.177
  395TIP3   OH2 1127   2.497   6.481   1.708
  395TIP3    H1 1128   2.568   6.418   1.718
  395TIP3    H2 1129   2.482   6.515   1.797
  396TIP3   OH2 1130   6.967   3.019   6.613
  396TIP3    H1 1131   6.983   3.079   6.685
  396TIP3    H2 1132   7.040   2.958   6.616
  397TIP3   OH2 1133   6.551   6.347   6.204
  397TIP3    H1 1134   6.633   6.344   6.253
  397TIP3    H2 1135   6.496   6.280   6.245
  398TIP3   OH2 1136   6.651   1.572   0.574
  398TIP3    H1 1137   6.632   1.642   0.636
  398TIP3    H2 1138   6.695   1.505   0.625
  399TIP3   OH2 1139   6.226   4.829   2.729
  399TIP3    H1 1140   6.138   4.804   2.704
  399TIP3    H2 1141   6.226   4.823   2.825
  400TIP3   OH2 1142   7.763   3.043   3.032
  400TIP3    H1 1143   7.740   2.974   3.094
  400TIP3    H2 1144   7.845   3.012   2.992
  401TIP3   OH2 1145   8.067   6.266   4.259
  401TIP3    H1 1146   8.028   6.281   4.345
  401TIP3    H2 1147   8.024   6.330   4.202
  402TIP3   OH2 1148   0.137   4.452   6.161
  402TIP3    H1 1149   0.206   4.387   6.149
  402TIP3    H2 1150   0.152   4.486   6.250
  403TIP3   OH2 1151   8.164   3.551   2.286
  403TIP3    H1 1152   8.240   3.545   2.344
  403TIP3    H2 1153   8.094   3.507   2.334
  404TIP3   OH2 1154   6.761   1.078   2.246
  404TIP3    H1 1155   6.693   1.128   2.291
  404TIP3    H2 1156   6.734   0.987   2.256
  405TIP3   OH2 1157   7.359   0.642   5.932
  405TIP3    H1 1158   7.411   0.720   5.949
  405TIP3    H2 1159   7.280   0.654   5.986
  406TIP3   OH2 1160   3.487   5.927   3.232
  406TIP3    H1 1161   3.533   5.903   3.312
  406TIP3    H2 1162   3.551   5.978   3.182
  407TIP3   OH2 1163   2.697   5.676   1.596
  407TIP3    H1 1164   2.647   5.674   1.515
  407TIP3    H2 1165   2.698   5.769   1.621
  408TIP3   OH2 1166   7.911   6.245   3.379
  408TIP3    H1 1167   7.961   6.170   3.411
  408TIP3    H2 1168   7.833   6.207   3.338
  409TIP3   OH2 1169   7.996   4.367   2.404
  409TIP3    H1 1170   8.011   4.359   2.498
  409TIP3    H2 1171   7.903   4.389   2.396
  410TIP3   OH2 1172   4.938   6.039   5.851
  410TIP3    H1 1173   4.948   5.944   5.838
  410TIP3    H2 1174   4.900   6.047   5.938
  411TIP3   OH2 1175   0.368   6.590   2.872
  411TIP3    H1 1176   0.377   6.509   2.922
  411TIP3    H2 1177   0.457   6.622   2.861
  412TIP3   OH2 1178   7.406   6.259   3.586
  412TIP3    H1 1179   7.475   6.240   3.649
  412TIP3    H2 1180   7.333   6.291   3.639
  413TIP3   OH2 1181   1.446   0.148   5.042
  413TIP3    H1 1182   1.426   0.212   4.974
  413TIP3    H2 1183   1.437   0.197   5.124
  414TIP3   OH2 1184   4.313   3.700   6.760
  414TIP3    H1 1185   4.263   3.773   6.798
  414TIP3    H2 1186   4.323   3.724   6.668
  415TIP3   OH2 1187   6.392   7.210   1.868
  415TIP3    H1 1188   6.457   7.142   1.883
  415TIP3    H2 1189   6.313   7.178   1.913
  416TIP3   OH2 1190   3.276   4.278  -0.013
  416TIP3    H1 1191   3.314   4.328  -0.085
  416TIP3    H2 1192   3.314   4.191  -0.021
  417TIP3   OH2 1193   0.228   1.453   6.478
  417TIP3    H1 1194   0.171   1.529   6.472
  417TIP3    H2 1195   0.313   1.484   6.447
  418TIP3   OH2 1196   7.886   5.217   2.154
  418TIP3    H1 1197   7.801   5.260   2.145
  418TIP3    H2 1198   7.929   5.265   2.225
  419TIP3   OH2 1199   1.032   2.945   6.189
  419TIP3    H1 1200   1.003   2.919   6.276
  419TIP3    H2 1201   0.952   2.965   6.141
  420TIP3   OH2 1202   3.164   7.553   0.450
  420TIP3    H1 1203   3.172   7.647   0.437
  420TIP3    H2 1204   3.234   7.515   0.397
  421TIP3   OH2 1205   5.113   5.100   6.325
  421TIP3    H1 1206   5.030   5.148   6.324
  421TIP3    H2 1207   5.113   5.051   6.407
  422TIP3   OH2 1208   0.796   7.396   5.443
  422TIP3    H1 1209   0.849   7.317   5.455
  422TIP3    H2 1210   0.723   7.368   5.389
  423TIP3   OH2 1211   1.280   7.804   3.158
  423TIP3    H1 1212   1.251   7.891   3.185
  423TIP3    H2 1213   1.202   7.749   3.164
  424TIP3   OH2 1214   5.675   0.533   4.795
  424TIP3    H1 1215   5.638   0.534   4.883
  424TIP3    H2 1216   5.737   0.460   4.796
  425TIP3   OH2 1217   7.099   1.862   0.787
  425TIP3    H1 1218   7.075   1.884   0.878
  425TIP3    H2 1219   7.146   1.780   0.794
  426TIP3   OH2 1220   6.489   0.181   2.565
  426TIP3    H1 1221   6.441   0.197   2.484
  426TIP3    H2 1222   6.440   0.112   2.610
  427TIP3   OH2 1223   3.055   1.244   2.177
  427TIP3    H1 1224   3.022   1.220   2.091
  427TIP3    H2 1225   2.982   1.290   2.219
  428TIP3   OH2 1226   7.357   4.515   1.823
  428TIP3    H1 1227   7.344   4.478   1.910
  428TIP3    H2 1228   7.335   4.443   1.763
  429TIP3   OH2 1229   7.507   4.728   6.775
  429TIP3    H1 1230   7.498   4.772   6.690
  429TIP3    H2 1231   7.472   4.640   6.760
  430TIP3   OH2 1232   5.215   5.252   2.315
  430TIP3    H1 1233   5.162   5.181   2.352
  430TIP3    H2 1234   5.204   5.243   2.221
  431TIP3   OH2 1235   6.361   4.632   2.307
  431TIP3    H1 1236   6.288   4.577   2.333
  431TIP3    H2 1237   6.357   4.707   2.366
  432TIP3   OH2 1238   3.565   4.106   2.715
  432TIP3    H1 1239   3.494   4.136   2.658
  432TIP3    H2 1240   3.582   4.180   2.773
  433TIP3   OH2 1241   6.099   7.675   5.017
  433TIP3    H1 1242   6.193   7.666   5.037
  433TIP3    H2 1243   6.056   7.669   5.102
  434TIP3   OH2 1244   2.826   3.559   0.533
  434TIP3    H1 1245   2.790   3.582   0.447
  434TIP3    H2 1246   2.774   3.610   0.595
  435TIP3   OH2 1247   7.170   1.024   6.306
  435TIP3    H1 1248   7.130   1.000   6.389
  435TIP3    H2 1249   7.216   1.107   6.325
  436TIP3   OH2 1250   6.533   5.320   5.714
  436TIP3    H1 1251   6.501   5.231   5.698
  436TIP3    H2 1252   6.458   5.377   5.694
  437TIP3   OH2 1253   5.617   0.479   2.141
  437TIP3    H1 1254   5.534   0.434   2.152
  437TIP3    H2 1255   5.617   0.509   2.050
  438TIP3   OH2 1256   0.880   2.799   0.307
  438TIP3    H1 1257   0.824   2.818   0.383
  438TIP3    H2 1258   0.859   2.709   0.284
  439TIP3   OH2 1259   3.764   3.691   0.170
  439TIP3    H1 1260   3.826   3.718   0.102
  439TIP3    H2 1261   3.735   3.774   0.209
  440TIP3   OH2 1262   0.812   4.152   2.169
  440TIP3    H1 1263   0.893   4.110   2.197
  440TIP3    H2 1264   0.742   4.097   2.207
  441TIP3   OH2 1265   1.124   6.869   5.645
  441TIP3    H1 1266   1.093   6.791   5.600
  441TIP3    H2 1267   1.198   6.900   5.592
  442TIP3   OH2 1268   7.458   2.311   2.352
  442TIP3    H1 1269   7.412   2.248   2.408
  442TIP3    H2 1270   7.510   2.363   2.413
  443TIP3   OH2 1271   2.748   4.208   2.178
  443TIP3    H1 1272   2.832   4.254   2.167
  443TIP3    H2 1273   2.745   4.186   2.271
  444TIP3   OH2 1274   6.208   7.452   1.787
  444TIP3    H1 1275   6.251   7.427   1.705
  444TIP3    H2 1276   6.239   7.540   1.805
  445TIP3   OH2 1277   1.861   2.058   6.742
  445TIP3    H1 1278   1.855   2.116   6.667
  445TIP3    H2 1279   1.771   2.028   6.757
  446TIP3   OH2 1280   7.312   3.848   0.070
  446TIP3    H1 1281   7.282   3.911   0.135
  446TIP3    H2 1282   7.360   3.900   0.006
  447TIP3   OH2 1283   7.553   7.810   3.748
  447TIP3    H1 1284   7.470   7.857   3.733
  447TIP3    H2 1285   7.540   7.765   3.831
  448TIP3   OH2 1286   2.716   0.840   3.270
  448TIP3    H1 1287   2.691   0.858   3.179
  448TIP3    H2 1288   2.744   0.748   3.269
  449TIP3   OH2 1289   5.624   6.058   4.125
  449TIP3    H1 1290   5.600   5.988   4.185
  449TIP3    H2 1291   5.660   6.013   4.048
  450TIP3   OH2 1292   7.612   0.342   1.399
  450TIP3    H1 1293   7.564   0.306   1.325
  450TIP3    H2 1294   7.592   0.284   1.472
  451TIP3   OH2 1295   1.377   4.723   6.443
  451TIP3    H1 1296   1.394   4.635   6.478
  451TIP3    H2 1297   1.427   4.782   6.500
  452TIP3   OH2 1298   5.581   2.712   3.073
  452TIP3    H1 1299   5.523   2.742   3.143
  452TIP3    H2 1300   5.524   2.663   3.014
  453TIP3   OH2 1301   4.054   1.725   2.511
  453TIP3    H1 1302   4.134   1.675   2.528
  453TIP3    H2 1303   3.991   1.693   2.575
  454TIP3   OH2 1304   5.289   0.311   5.090
  454TIP3    H1 1305   5.227   0.368   5.136
  454TIP3    H2 1306   5.373   0.355   5.100
  455TIP3   OH2 1307   2.627   6.858   4.663
  455TIP3    H1 1308   2.712   6.829   4.696
  455TIP3    H2 1309   2.572   6.862   4.742
  456TIP3   OH2 1310   4.658   2.633   0.448
  456TIP3    H1 1311   4.720   2.696   0.485
  456TIP3    H2 1312   4.613   2.596   0.523
  457TIP3   OH2 1313   6.094   0.536   2.979
  457TIP3    H1 1314   6.112   0.610   2.921
  457TIP3    H2 1315   6.177   0.490   2.986
  458TIP3   OH2 1316   4.945   0.697   6.632
  458TIP3    H1 1317   4.989   0.756   6.694
  458TIP3    H2 1318   4.917   0.754   6.560
  459TIP3   OH2 1319   0.700   6.311   0.361
  459TIP3    H1 1320   0.620   6.340   0.404
  459TIP3    H2 1321   0.744   6.392   0.335
  460TIP3   OH2 1322   2.246   3.576   6.375
  460TIP3    H1 1323   2.200   3.658   6.392
  460TIP3    H2 1324   2.337   3.602   6.362
  461TIP3   OH2 1325   1.635   2.162   4.895
  461TIP3    H1 1326   1.712   2.105   4.887
  461TIP3    H2 1327   1.566   2.105   4.926
  462TIP3   OH2 1328   7.132   4.323   0.809
  462TIP3    H1 1329   7.106   4.379   0.881
  462TIP3    H2 1330   7.197   4.374   0.761
  463TIP3   OH2 1331   3.342   3.921   5.217
  463TIP3    H1 1332   3.340   4.014   5.241
  463TIP3    H2 1333   3.272   3.912   5.152
  464TIP3   OH2 1334   7.451   6.262   2.255
  464TIP3    H1 1335   7.496   6.347   2.259
  464TIP3    H2 1336   7.458   6.227   2.343
  465TIP3   OH2 1337   2.159   1.622   3.204
  465TIP3    H1 1338   2.086   1.640   3.263
  465TIP3    H2 1339   2.119   1.603   3.120
  466TIP3   OH2 1340   6.108   1.561   0.089
  466TIP3    H1 1341   6.045   1.591   0.023
  466TIP3    H2 1342   6.188   1.611   0.070
  467TIP3   OH2 1343   5.982   5.430   0.387
  467TIP3    H1 1344   5.942   5.487   0.321
  467TIP3    H2 1345   5.929   5.350   0.384
  468TIP3   OH2 1346   3.625   0.742   6.123
  468TIP3    H1 1347   3.638   0.660   6.076
  468TIP3    H2 1348   3.679   0.734   6.202
  469TIP3   OH2 1349   2.220   3.858   5.622
  469TIP3    H1 1350   2.300   3.891   5.663
  469TIP3    H2 1351   2.171   3.938   5.599
  470TIP3   OH2 1352   3.411   2.579   3.137
  470TIP3    H1 1353   3.456   2.503   3.101
  470TIP3    H2 1354   3.363   2.616   3.063
  471TIP3   OH2 1355   7.309   5.784   1.017
  471TIP3    H1 1356   7.313   5.695   0.982
  471TIP3    H2 1357   7.233   5.785   1.075
  472TIP3   OH2 1358   1.251   0.264   1.619
  472TIP3    H1 1359   1.327   0.214   1.591
  472TIP3    H2 1360   1.247   0.338   1.559
  473TIP3   OH2 1361   2.236   2.095   3.663
  473TIP3    H1 1362   2.300   2.027   3.642
  473TIP3    H2 1363   2.288   2.171   3.689
  474TIP3   OH2 1364   4.336   7.229   3.115
  474TIP3    H1 1365   4.315   7.323   3.110
  474TIP3    H2 1366   4.402   7.216   3.047
  475TIP3   OH2 1367   2.548   4.659   1.013
  475TIP3    H1 1368   2.471   4.686   1.063
  475TIP3    H2 1369   2.583   4.740   0.976
  476TIP3   OH2 1370   1.535   5.931   0.566
  476TIP3    H1 1371   1.512   5.941   0.659
  476TIP3    H2 1372   1.454   5.952   0.519
  477TIP3   OH2 1373   4.317   6.792   6.798
  477TIP3    H1 1374   4.311   6.745   6.715
  477TIP3    H2 1375   4.406   6.827   6.799
  478TIP3   OH2 1376   7.014   3.843   1.939
  478TIP3    H1 1377   6.986   3.826   2.029
  478TIP3    H2 1378   7.106   3.869   1.948
  479TIP3   OH2 1379   0.856   0.066   3.105
  479TIP3    H1 1380   0.878   0.028   3.189
  479TIP3    H2 1381   0.843   0.159   3.123
  480TIP3   OH2 1382   3.129   1.140   2.772
  480TIP3    H1 1383   3.067   1.213   2.779
  480TIP3    H2 1384   3.077   1.063   2.796
  481TIP3   OH2 1385   7.272   3.089   3.265
  481TIP3    H1 1386   7.212   3.033   3.216
  481TIP3    H2 1387   7.215   3.147   3.316
  482TIP3   OH2 1388   5.291   4.223   3.721
  482TIP3    H1 1389   5.314   4.131   3.717
  482TIP3    H2 1390   5.221   4.227   3.786
  483TIP3   OH2 1391   6.151   4.526   1.749
  483TIP3    H1 1392   6.079   4.464   1.736
  483TIP3    H2 1393   6.207   4.513   1.672
  484TIP3   OH2 1394   2.245   0.639   1.885
  484TIP3    H1 1395   2.323   0.633   1.940
  484TIP3    H2 1396   2.267   0.589   1.806
  485TIP3   OH2 1397   4.205   5.061   3.443
  485TIP3    H1 1398   4.173   5.146   3.474
  485TIP3    H2 1399   4.206   5.006   3.522
  486TIP3   OH2 1400   5.928   0.204   5.585
  486TIP3    H1 1401   6.018   0.214   5.618
  486TIP3    H2 1402   5.896   0.125   5.627
  487TIP3   OH2 1403   4.357   2.093   4.306
  487TIP3    H1 1404   4.353   2.095   4.401
  487TIP3    H2 1405   4.430   2.150   4.283
  488TIP3   OH2 1406   0.855   7.434   4.305
  488TIP3    H1 1407   0.787   7.410   4.368
  488TIP3    H2 1408   0.817   7.414   4.220
  489TIP3   OH2 1409   7.042   5.449   4.697
  489TIP3    H1 1410   7.027   5.404   4.614
  489TIP3    H2 1411   7.125   5.413   4.728
  490TIP3   OH2 1412   1.937   3.545   2.273
  490TIP3    H1 1413   2.024   3.582   2.261
  490TIP3    H2 1414   1.949   3.476   2.339
  491TIP3   OH2 1415   4.250   2.010   1.060
  491TIP3    H1 1416   4.233   2.073   0.990
  491TIP3    H2 1417   4.165   1.968   1.076
  492TIP3   OH2 1418   5.769   3.226   3.168
  492TIP3    H1 1419   5.782   3.210   3.074
  492TIP3    H2 1420   5.855   3.253   3.200
  493TIP3   OH2 1421   4.203   5.770   4.097
  493TIP3    H1 1422   4.263   5.841   4.118
  493TIP3    H2 1423   4.225   5.745   4.007
  494TIP3   OH2 1424   4.325   2.533   2.315
  494TIP3    H1 1425   4.350   2.611   2.265
  494TIP3    H2 1426   4.266   2.486   2.257
  495TIP3   OH2 1427   0.510   0.145   2.002
  495TIP3    H1 1428   0.582   0.083   2.003
  495TIP3    H2 1429   0.531   0.205   1.931
  496TIP3   OH2 1430   4.609   0.183   4.884
  496TIP3    H1 1431   4.651   0.138   4.811
  496TIP3    H2 1432   4.568   0.260   4.845
  497TIP3   OH2 1433   4.735   2.704   2.334
  497TIP3    H1 1434   4.716   2.719   2.427
  497TIP3    H2 1435   4.792   2.777   2.310
  498TIP3   OH2 1436   8.078   6.609   0.173
  498TIP3    H1 1437   7.984   6.610   0.156
  498TIP3    H2 1438   8.112   6.684   0.124
  499TIP3   OH2 1439   5.921   4.989   1.132
  499TIP3    H1 1440   5.983   4.977   1.060
  499TIP3    H2 1441   5.862   5.058   1.101
  500TIP3   OH2 1442   0.402   0.501   2.099
  500TIP3    H1 1443   0.335   0.434   2.086
  500TIP3    H2 1444   0.421   0.498   2.193
  501TIP3   OH2 1445   5.635   0.849   2.761
  501TIP3    H1 1446   5.699   0.836   2.831
  501TIP3    H2 1447   5.610   0.760   2.735
  502TIP3   OH2 1448   2.176   5.627   1.635
  502TIP3    H1 1449   2.249   5.689   1.636
  502TIP3    H2 1450   2.137   5.638   1.548
  503TIP3   OH2 1451   1.415   0.672   0.355
  503TIP3    H1 1452   1.460   0.722   0.286
  503TIP3    H2 1453   1.324   0.703   0.351
  504TIP3   OH2 1454   2.805   1.937   2.243
  504TIP3    H1 1455   2.799   1.927   2.338
  504TIP3    H2 1456   2.715   1.923   2.212
  505TIP3   OH2 1457  -0.007   2.352   0.152
  505TIP3    H1 1458   0.024   2.441   0.132
  505TIP3    H2 1459  -0.053   2.324   0.072
  506TIP3   OH2 1460   6.211   1.550   3.740
  506TIP3    H1 1461   6.239   1.642   3.750
  506TIP3    H2 1462   6.150   1.536   3.813
  507TIP3   OH2 1463   3.538   3.220   5.536
  507TIP3    H1 1464   3.446   3.225   5.562
  507TIP3    H2 1465   3.587   3.249   5.613
  508TIP3   OH2 1466   0.486   6.339   1.181
  508TIP3    H1 1467   0.560   6.396   1.205
  508TIP3    H2 1468   0.429   6.341   1.258
  509TIP3   OH2 1469   0.871   5.820   6.028
  509TIP3    H1 1470   0.946   5.768   6.001
  509TIP3    H2 1471   0.799   5.757   6.035
  510TIP3   OH2 1472   3.707   3.278   1.755
  510TIP3    H1 1473   3.673   3.193   1.782
  510TIP3    H2 1474   3.741   3.317   1.835
  511TIP3   OH2 1475   6.402   3.172   5.363
  511TIP3    H1 1476   6.430   3.264   5.360
  511TIP3    H2 1477   6.459   3.132   5.429
  512TIP3   OH2 1478   5.617   4.676   3.401
  512TIP3    H1 1479   5.594   4.613   3.332
  512TIP3    H2 1480   5.566   4.647   3.477
  513TIP3   OH2 1481   0.932   4.584   0.569
  513TIP3    H1 1482   1.010   4.561   0.517
  513TIP3    H2 1483   0.934   4.680   0.573
  514TIP3   OH2 1484   6.156   6.302   2.254
  514TIP3    H1 1485   6.250   6.304   2.235
  514TIP3    H2 1486   6.132   6.394   2.269
  515TIP3   OH2 1487   3.909   7.189   6.663
  515TIP3    H1 1488   3.863   7.136   6.728
  515TIP3    H2 1489   3.908   7.136   6.583
  516TIP3   OH2 1490   6.133   1.721   6.680
  516TIP3    H1 1491   6.051   1.703   6.727
  516TIP3    H2 1492   6.125   1.812   6.652
  517TIP3   OH2 1493   2.047   3.672   1.434
  517TIP3    H1 1494   2.098   3.659   1.514
  517TIP3    H2 1495   2.112   3.688   1.366
  518TIP3   OH2 1496   0.026   6.820   3.510
  518TIP3    H1 1497  -0.030   6.799   3.584
  518TIP3    H2 1498   0.059   6.909   3.529
  519TIP3   OH2 1499   2.572   5.333   0.745
  519TIP3    H1 1500   2.583   5.368   0.657
  519TIP3    H2 1501   2.498   5.382   0.782
  520TIP3   OH2 1502   1.482   7.630   4.700
  520TIP3    H1 1503   1.459   7.598   4.787
  520TIP3    H2 1504   1.536   7.707   4.716
  521TIP3   OH2 1505   2.291   3.493   0.053
  521TIP3    H1 1506   2.234   3.565   0.078
  521TIP3    H2 1507   2.357   3.533  -0.004
  522TIP3   OH2 1508   2.264   1.864   3.092
  522TIP3    H1 1509   2.253   1.834   3.002
  522TIP3    H2 1510   2.231   1.793   3.146
  523TIP3   OH2 1511   2.740   0.411   4.346
  523TIP3    H1 1512   2.694   0.443   4.269
  523TIP3    H2 1513   2.694   0.452   4.420
  524TIP3   OH2 1514   3.269   5.583   1.784
  524TIP3    H1 1515   3.344   5.634   1.755
  524TIP3    H2 1516   3.294   5.551   1.871
  525TIP3   OH2 1517   6.864   3.130   2.951
  525TIP3    H1 1518   6.830   3.044   2.976
  525TIP3    H2 1519   6.943   3.141   3.004
  526TIP3   OH2 1520   1.690   5.759   4.394
  526TIP3    H1 1521   1.631   5.696   4.352
  526TIP3    H2 1522   1.634   5.833   4.415
  527TIP3   OH2 1523   2.354   6.397   4.936
  527TIP3    H1 1524   2.275   6.445   4.911
  527TIP3    H2 1525   2.371   6.338   4.863
  528TIP3   OH2 1526   1.084   2.554   6.104
  528TIP3    H1 1527   1.064   2.547   6.011
  528TIP3    H2 1528   1.009   2.512   6.147
  529TIP3   OH2 1529   0.013   0.522   4.698
  529TIP3    H1 1530  -0.062   0.475   4.736
  529TIP3    H2 1531   0.030   0.476   4.616
  530TIP3   OH2 1532   5.417   7.019   4.272
  530TIP3    H1 1533   5.503   7.058   4.255
  530TIP3    H2 1534   5.412   6.943   4.214
  531TIP3   OH2 1535   4.741   5.612   6.560
  531TIP3    H1 1536   4.781   5.526   6.571
  531TIP3    H2 1537   4.662   5.609   6.614
  532TIP3   OH2 1538   3.365   5.570   3.643
  532TIP3    H1 1539   3.317   5.609   3.570
  532TIP3    H2 1540   3.455   5.598   3.630
  533TIP3   OH2 1541   0.514   4.586   3.897
  533TIP3    H1 1542   0.531   4.506   3.849
  533TIP3    H2 1543   0.463   4.640   3.837
  534TIP3   OH2 1544   2.299   0.842   4.041
  534TIP3    H1 1545   2.222   0.898   4.031
  534TIP3    H2 1546   2.371   0.893   4.005
  535TIP3   OH2 1547   4.470   1.888   4.504
  535TIP3    H1 1548   4.429   1.825   4.446
  535TIP3    H2 1549   4.532   1.837   4.556
  536TIP3   OH2 1550   1.715   7.634   4.993
  536TIP3    H1 1551   1.727   7.572   5.066
  536TIP3    H2 1552   1.623   7.662   5.000
  537TIP3   OH2 1553   5.318   1.819   0.290
  537TIP3    H1 1554   5.240   1.785   0.246
  537TIP3    H2 1555   5.359   1.741   0.328
  538TIP3   OH2 1556   7.271   6.383   2.620
  538TIP3    H1 1557   7.256   6.292   2.643
  538TIP3    H2 1558   7.366   6.389   2.610
  539TIP3   OH2 1559   1.202   0.565   2.768
  539TIP3    H1 1560   1.212   0.485   2.716
  539TIP3    H2 1561   1.156   0.536   2.847
  540TIP3   OH2 1562   4.427   5.074   4.674
  540TIP3    H1 1563   4.522   5.075   4.687
  540TIP3    H2 1564   4.413   5.135   4.601
  541TIP3   OH2 1565   3.846   0.441   4.865
  541TIP3    H1 1566   3.852   0.347   4.848
  541TIP3    H2 1567   3.934   0.474   4.844
  542TIP3   OH2 1568   4.005   5.347   6.305
  542TIP3    H1 1569   3.911   5.364   6.314
  542TIP3    H2 1570   4.033   5.322   6.393
  543TIP3   OH2 1571   6.760   6.718   5.982
  543TIP3    H1 1572   6.693   6.676   6.036
  543TIP3    H2 1573   6.711   6.772   5.920
  544TIP3   OH2 1574   5.823   1.077   3.643
  544TIP3    H1 1575   5.849   1.151   3.589
  544TIP3    H2 1576   5.860   1.095   3.729
  545TIP3   OH2 1577   7.528   0.112   2.901
  545TIP3    H1 1578   7.443   0.093   2.941
  545TIP3    H2 1579   7.507   0.143   2.813
  546TIP3   OH2 1580   7.091   0.353   3.099
  546TIP3    H1 1581   7.157   0.422   3.086
  546TIP3    H2 1582   7.050   0.374   3.183
  547TIP3   OH2 1583   5.134   4.366   6.651
  547TIP3    H1 1584   5.157   4.420   6.727
  547TIP3    H2 1585   5.050   4.327   6.675
  548TIP3   OH2 1586   7.868   1.897   1.154
  548TIP3    H1 1587   7.901   1.981   1.121
  548TIP3    H2 1588   7.774   1.900   1.139
  549TIP3   OH2 1589   4.039   4.397   5.014
  549TIP3    H1 1590   4.131   4.422   5.000
  549TIP3    H2 1591   3.994   4.480   5.030
  550TIP3   OH2 1592   8.284   4.381   4.348
  550TIP3    H1 1593   8.336   4.304   4.372
  550TIP3    H2 1594   8.295   4.388   4.253
  551TIP3   OH2 1595   7.994   3.663   3.237
  551TIP3    H1 1596   7.925   3.728   3.252
  551TIP3    H2 1597   7.951   3.592   3.190
  552TIP3   OH2 1598   2.898   3.533   4.086
  552TIP3    H1 1599   2.871   3.615   4.044
  552TIP3    H2 1600   2.882   3.466   4.019
  553TIP3   OH2 1601   4.636   0.671   1.102
  553TIP3    H1 1602   4.656   0.637   1.189
  553TIP3    H2 1603   4.560   0.728   1.116
  554TIP3   OH2 1604   4.329   1.055   0.373
  554TIP3    H1 1605   4.391   1.103   0.317
  554TIP3    H2 1606   4.367   1.062   0.461
  555TIP3   OH2 1607   7.842   7.788   3.750
  555TIP3    H1 1608   7.838   7.773   3.655
  555TIP3    H2 1609   7.753   7.771   3.781
  556TIP3   OH2 1610   3.399   4.563   4.291
  556TIP3    H1 1611   3.325   4.599   4.339
  556TIP3    H2 1612   3.470   4.626   4.305
  557TIP3   OH2 1613   6.106   2.457   6.330
  557TIP3    H1 1614   6.132   2.371   6.364
  557TIP3    H2 1615   6.136   2.519   6.396
  558TIP3   OH2 1616   7.858   5.732   5.144
  558TIP3    H1 1617   7.810   5.687   5.214
  558TIP3    H2 1618   7.868   5.821   5.176
  559TIP3   OH2 1619   3.411   4.329   2.074
  559TIP3    H1 1620   3.324   4.369   2.073
  559TIP3    H2 1621   3.423   4.295   1.986
  560TIP3   OH2 1622   6.639   1.804   0.713
  560TIP3    H1 1623   6.705   1.799   0.783
  560TIP3    H2 1624   6.687   1.838   0.638
  561TIP3   OH2 1625   2.967   4.562   2.235
  561TIP3    H1 1626   2.933   4.651   2.230
  561TIP3    H2 1627   2.941   4.531   2.322
  562TIP3   OH2 1628   2.530   7.686   2.873
  562TIP3    H1 1629   2.436   7.701   2.885
  562TIP3    H2 1630   2.566   7.691   2.961
  563TIP3   OH2 1631   2.031   6.866   1.374
  563TIP3    H1 1632   1.969   6.837   1.442
  563TIP3    H2 1633   2.017   6.805   1.302
  564TIP3   OH2 1634   3.056   3.805   2.485
  564TIP3    H1 1635   3.091   3.832   2.400
  564TIP3    H2 1636   3.132   3.807   2.544
  565TIP3   OH2 1637   5.936   0.062   0.173
  565TIP3    H1 1638   5.954   0.073   0.267
  565TIP3    H2 1639   6.017   0.025   0.138
  566TIP3   OH2 1640   5.656   6.026   3.231
  566TIP3    H1 1641   5.623   6.030   3.320
  566TIP3    H2 1642   5.735   5.973   3.237
  567TIP3   OH2 1643   4.110   5.922   6.658
  567TIP3    H1 1644   4.071   5.836   6.674
  567TIP3    H2 1645   4.035   5.982   6.659
  568TIP3   OH2 1646   6.180   3.313   3.023
  568TIP3    H1 1647   6.274   3.324   3.040
  568TIP3    H2 1648   6.176   3.236   2.966
  569TIP3   OH2 1649   1.927   4.143   5.214
  569TIP3    H1 1650   1.894   4.112   5.299
  569TIP3    H2 1651   2.004   4.195   5.236
  570TIP3   OH2 1652   5.043   5.279   0.295
  570TIP3    H1 1653   5.044   5.183   0.292
  570TIP3    H2 1654   5.013   5.306   0.209
  571TIP3   OH2 1655   4.884   1.582   0.141
  571TIP3    H1 1656   4.830   1.597   0.218
  571TIP3    H2 1657   4.821   1.566   0.070
  572TIP3   OH2 1658   0.184   3.273   6.270
  572TIP3    H1 1659   0.241   3.311   6.336
  572TIP3    H2 1660   0.139   3.202   6.315
  573TIP3   OH2 1661   2.007   3.467   5.187
  573TIP3    H1 1662   2.093   3.494   5.218
  573TIP3    H2 1663   1.949   3.538   5.214
  574TIP3   OH2 1664   6.691   3.791   4.476
  574TIP3    H1 1665   6.763   3.847   4.506
  574TIP3    H2 1666   6.656   3.837   4.399
  575TIP3   OH2 1667   8.236   1.351   1.139
  575TIP3    H1 1668   8.267   1.347   1.230
  575TIP3    H2 1669   8.309   1.315   1.088
  576TIP3   OH2 1670   2.854   7.806   0.680
  576TIP3    H1 1671   2.858   7.718   0.642
  576TIP3    H2 1672   2.804   7.795   0.761
  577TIP3   OH2 1673   4.539   2.295   2.941
  577TIP3    H1 1674   4.508   2.385   2.952
  577TIP3    H2 1675   4.621   2.304   2.893
  578TIP3   OH2 1676   1.302   3.118   2.314
  578TIP3    H1 1677   1.392   3.091   2.293
  578TIP3    H2 1678   1.257   3.119   2.230
  579TIP3   OH2 1679   4.333   4.327   1.511
  579TIP3    H1 1680   4.340   4.372   1.427
  579TIP3    H2 1681   4.308   4.395   1.573
  580TIP3   OH2 1682   4.545   1.236   1.870
  580TIP3    H1 1683   4.543   1.208   1.961
  580TIP3    H2 1684   4.633   1.272   1.858
  581TIP3   OH2 1685   5.802   0.877   2.226
  581TIP3    H1 1686   5.708   0.866   2.221
  581TIP3    H2 1687   5.817   0.967   2.198
  582TIP3   OH2 1688   6.808   5.537   3.094
  582TIP3    H1 1689   6.887   5.486   3.115
  582TIP3    H2 1690   6.735   5.482   3.123
  583TIP3   OH2 1691   7.462   3.163   0.269
  583TIP3    H1 1692   7.442   3.172   0.176
  583TIP3    H2 1693   7.468   3.068   0.283
  584TIP3   OH2 1694   3.189   6.980   3.473
  584TIP3    H1 1695   3.146   6.899   3.500
  584TIP3    H2 1696   3.281   6.968   3.498
  585TIP3   OH2 1697   7.129   5.804   5.301
  585TIP3    H1 1698   7.060   5.741   5.324
  585TIP3    H2 1699   7.189   5.801   5.375
  586TIP3   OH2 1700   1.541   0.437   0.298
  586TIP3    H1 1701   1.472   0.498   0.325
  586TIP3    H2 1702   1.535   0.435   0.202
  587TIP3   OH2 1703   2.306   6.312   0.403
  587TIP3    H1 1704   2.360   6.356   0.337
  587TIP3    H2 1705   2.324   6.219   0.391
  588TIP3   OH2 1706   6.982   7.553   6.427
  588TIP3    H1 1707   6.968   7.507   6.344
  588TIP3    H2 1708   6.901   7.602   6.442
  589TIP3   OH2 1709   6.139   3.284   0.940
  589TIP3    H1 1710   6.207   3.245   0.884
  589TIP3    H2 1711   6.182   3.358   0.982
  590TIP3   OH2 1712   4.426   0.787   6.225
  590TIP3    H1 1713   4.456   0.858   6.281
  590TIP3    H2 1714   4.431   0.709   6.280
  591TIP3   OH2 1715   4.367   5.351   4.539
  591TIP3    H1 1716   4.356   5.346   4.444
  591TIP3    H2 1717   4.279   5.369   4.572
  592TIP3   OH2 1718   4.982   3.827   5.031
  592TIP3    H1 1719   4.988   3.798   4.941
  592TIP3    H2 1720   4.935   3.758   5.076
  593TIP3   OH2 1721   5.351   5.126   3.074
  593TIP3    H1 1722   5.425   5.156   3.020
  593TIP3    H2 1723   5.309   5.207   3.103
  594TIP3   OH2 1724   2.078   4.871   5.678
  594TIP3    H1 1725   2.119   4.851   5.762
  594TIP3    H2 1726   2.022   4.947   5.696
  595TIP3   OH2 1727   3.964   1.133   5.618
  595TIP3    H1 1728   4.053   1.098   5.623
  595TIP3    H2 1729   3.970   1.205   5.556
  596TIP3   OH2 1730   2.669   5.085   5.889
  596TIP3    H1 1731   2.651   5.036   5.969
  596TIP3    H2 1732   2.618   5.041   5.822
  597TIP3   OH2 1733   7.214   1.331   1.766
  597TIP3    H1 1734   7.298   1.329   1.812
  597TIP3    H2 1735   7.237   1.336   1.673
  598TIP3   OH2 1736   2.054   0.692   5.678
  598TIP3    H1 1737   2.093   0.634   5.613
  598TIP3    H2 1738   2.093   0.664   5.761
  599TIP3   OH2 1739   7.656   4.582   3.378
  599TIP3    H1 1740   7.659   4.677   3.370
  599TIP3    H2 1741   7.594   4.553   3.311
  600TIP3   OH2 1742   5.603   7.581   4.814
  600TIP3    H1 1743   5.553   7.500   4.820
  600TIP3    H2 1744   5.689   7.559   4.850
  601TIP3   OH2 1745   6.914   7.296   4.385
  601TIP3    H1 1746   6.911   7.276   4.291
  601TIP3    H2 1747   6.872   7.221   4.426
  602TIP3   OH2 1748   3.256   2.575   2.616
  602TIP3    H1 1749   3.219   2.599   2.532
  602TIP3    H2 1750   3.267   2.480   2.612
  603TIP3   OH2 1751   4.736   0.287   2.199
  603TIP3    H1 1752   4.649   0.281   2.239
  603TIP3    H2 1753   4.770   0.197   2.203
  604TIP3   OH2 1754   0.845   7.077   6.265
  604TIP3    H1 1755   0.891   7.082   6.182
  604TIP3    H2 1756   0.908   7.036   6.325
  605TIP3   OH2 1757   7.628   1.752   4.722
  605TIP3    H1 1758   7.544   1.708   4.717
  605TIP3    H2 1759   7.668   1.719   4.803
  606TIP3   OH2 1760   0.558   7.132   5.612
  606TIP3    H1 1761   0.589   7.169   5.695
  606TIP3    H2 1762   0.586   7.040   5.615
  607TIP3   OH2 1763   1.608   6.812   3.168
  607TIP3    H1 1764   1.553   6.806   3.246
  607TIP3    H2 1765   1.697   6.820   3.201
  608TIP3   OH2 1766   5.077   3.311   2.858
  608TIP3    H1 1767   5.135   3.286   2.786
  608TIP3    H2 1768   5.129   3.371   2.911
  609TIP3   OH2 1769   4.362   1.355   5.507
  609TIP3    H1 1770   4.395   1.324   5.592
  609TIP3    H2 1771   4.421   1.427   5.484
  610TIP3   OH2 1772   5.270   1.996   0.490
  610TIP3    H1 1773   5.288   1.934   0.420
  610TIP3    H2 1774   5.275   2.082   0.448
  611TIP3   OH2 1775   0.337   1.247   5.879
  611TIP3    H1 1776   0.362   1.248   5.787
  611TIP3    H2 1777   0.416   1.276   5.926
  612TIP3   OH2 1778   1.446   0.829   2.585
  612TIP3    H1 1779   1.419   0.920   2.579
  612TIP3    H2 1780   1.541   0.830   2.575
  613TIP3   OH2 1781   3.740   0.331   2.388
  613TIP3    H1 1782   3.834   0.330   2.369
  613TIP3    H2 1783   3.707   0.407   2.339
  614TIP3   OH2 1784   2.070   7.765   5.930
  614TIP3    H1 1785   2.131   7.692   5.942
  614TIP3    H2 1786   2.084   7.793   5.840
  615TIP3   OH2 1787   1.331   1.442   2.654
  615TIP3    H1 1788   1.341   1.451   2.559
  615TIP3    H2 1789   1.403   1.385   2.681
  616TIP3   OH2 1790   7.820   5.921   4.821
  616TIP3    H1 1791   7.779   6.007   4.814
  616TIP3    H2 1792   7.751   5.860   4.792
  617TIP3   OH2 1793   0.611   5.411   0.068
  617TIP3    H1 1794   0.566   5.485   0.108
  617TIP3    H2 1795   0.658   5.447  -0.007
  618TIP3   OH2 1796   0.624   2.941   5.913
  618TIP3    H1 1797   0.560   2.878   5.880
  618TIP3    H2 1798   0.574   3.022   5.924
  619TIP3   OH2 1799   1.877   5.066   3.016
  619TIP3    H1 1800   1.874   5.138   3.078
  619TIP3    H2 1801   1.925   5.101   2.940
  620TIP3   OH2 1802   6.702   0.496   5.832
  620TIP3    H1 1803   6.713   0.591   5.845
  620TIP3    H2 1804   6.785   0.468   5.794
  621TIP3   OH2 1805   1.111   2.543   5.538
  621TIP3    H1 1806   1.126   2.585   5.623
  621TIP3    H2 1807   1.176   2.584   5.480
  622TIP3   OH2 1808   1.188   6.350   2.678
  622TIP3    H1 1809   1.222   6.395   2.755
  622TIP3    H2 1810   1.265   6.333   2.624
  623TIP3   OH2 1811   6.015   7.739   1.723
  623TIP3    H1 1812   6.098   7.744   1.769
  623TIP3    H2 1813   5.971   7.663   1.761
  624TIP3   OH2 1814   0.141   1.290   0.973
  624TIP3    H1 1815   0.125   1.248   0.888
  624TIP3    H2 1816   0.117   1.382   0.959
  625TIP3   OH2 1817   0.380   3.289   5.758
  625TIP3    H1 1818   0.399   3.231   5.833
  625TIP3    H2 1819   0.466   3.317   5.727
  626TIP3   OH2 1820   1.136   7.673   6.359
  626TIP3    H1 1821   1.049   7.705   6.334
  626TIP3    H2 1822   1.176   7.645   6.276
  627TIP3   OH2 1823   1.459   6.128   1.567
  627TIP3    H1 1824   1.368   6.121   1.599
  627TIP3    H2 1825   1.473   6.047   1.519
  628TIP3   OH2 1826   2.149   5.657   0.861
  628TIP3    H1 1827   2.159   5.752   0.860
  628TIP3    H2 1828   2.088   5.641   0.933
  629TIP3   OH2 1829   3.909   1.985   3.174
  629TIP3    H1 1830   3.854   1.907   3.186
  629TIP3    H2 1831   3.929   2.014   3.263
  630TIP3   OH2 1832   4.931   0.183   3.433
  630TIP3    H1 1833   4.947   0.211   3.523
  630TIP3    H2 1834   4.981   0.245   3.379
  631TIP3   OH2 1835   5.884   4.266   6.187
  631TIP3    H1 1836   5.910   4.239   6.099
  631TIP3    H2 1837   5.943   4.218   6.245
  632TIP3   OH2 1838   2.181   0.285   6.255
  632TIP3    H1 1839   2.132   0.213   6.215
  632TIP3    H2 1840   2.216   0.248   6.336
  633TIP3   OH2 1841   3.074   4.036   5.531
  633TIP3    H1 1842   3.142   3.970   5.516
  633TIP3    H2 1843   2.994   3.997   5.494
  634TIP3   OH2 1844   0.135   2.162   0.298
  634TIP3    H1 1845   0.100   2.223   0.233
  634TIP3    H2 1846   0.213   2.206   0.333
  635TIP3   OH2 1847   3.262   6.695   3.101
  635TIP3    H1 1848   3.258   6.621   3.040
  635TIP3    H2 1849   3.341   6.679   3.153
  636TIP3   OH2 1850   3.316   2.552   4.129
  636TIP3    H1 1851   3.234   2.581   4.169
  636TIP3    H2 1852   3.345   2.480   4.184
  637TIP3   OH2 1853   0.268   0.457   5.824
  637TIP3    H1 1854   0.330   0.484   5.892
  637TIP3    H2 1855   0.196   0.416   5.871
  638TIP3   OH2 1856   3.742   6.857   2.781
  638TIP3    H1 1857   3.687   6.909   2.722
  638TIP3    H2 1858   3.827   6.901   2.780
  639TIP3   OH2 1859   3.103   3.215   6.420
  639TIP3    H1 1860   3.145   3.252   6.498
  639TIP3    H2 1861   3.017   3.257   6.417
  640TIP3   OH2 1862   3.683   5.673   4.601
  640TIP3    H1 1863   3.752   5.696   4.539
  640TIP3    H2 1864   3.720   5.692   4.687
  641TIP3   OH2 1865   0.314   4.892   6.723
  641TIP3    H1 1866   0.373   4.828   6.683
  641TIP3    H2 1867   0.313   4.966   6.662
  642TIP3   OH2 1868   1.984   1.373   6.641
  642TIP3    H1 1869   2.010   1.400   6.553
  642TIP3    H2 1870   1.965   1.280   6.633
  643TIP3   OH2 1871   6.722   0.302   2.889
  643TIP3    H1 1872   6.815   0.311   2.867
  643TIP3    H2 1873   6.707   0.207   2.888
  644TIP3   OH2 1874   0.510   2.039   0.384
  644TIP3    H1 1875   0.460   2.009   0.460
  644TIP3    H2 1876   0.486   1.979   0.314
  645TIP3   OH2 1877   1.328   7.865   4.372
  645TIP3    H1 1878   1.287   7.917   4.441
  645TIP3    H2 1879   1.351   7.783   4.414
  646TIP3   OH2 1880   7.849   1.167   1.475
  646TIP3    H1 1881   7.903   1.165   1.397
  646TIP3    H2 1882   7.911   1.163   1.548
  647TIP3   OH2 1883   4.890   6.069   0.407
  647TIP3    H1 1884   4.855   5.980   0.397
  647TIP3    H2 1885   4.984   6.056   0.425
  648TIP3   OH2 1886   3.843   4.597   1.259
  648TIP3    H1 1887   3.859   4.684   1.223
  648TIP3    H2 1888   3.908   4.589   1.330
  649TIP3   OH2 1889   7.036   4.048   3.128
  649TIP3    H1 1890   7.125   4.027   3.102
  649TIP3    H2 1891   7.046   4.107   3.203
  650TIP3   OH2 1892   2.507   2.315   1.086
  650TIP3    H1 1893   2.494   2.380   1.016
  650TIP3    H2 1894   2.591   2.338   1.124
  651TIP3   OH2 1895   6.267   3.921   4.732
  651TIP3    H1 1896   6.297   3.964   4.812
  651TIP3    H2 1897   6.172   3.929   4.734
  652TIP3   OH2 1898   3.358   3.206   2.606
  652TIP3    H1 1899   3.324   3.126   2.567
  652TIP3    H2 1900   3.412   3.176   2.679
  653TIP3   OH2 1901   6.806   1.147   5.163
  653TIP3    H1 1902   6.717   1.116   5.183
  653TIP3    H2 1903   6.799   1.183   5.074
  654TIP3   OH2 1904   1.896   1.957   1.606
  654TIP3    H1 1905   1.810   1.999   1.603
  654TIP3    H2 1906   1.933   1.970   1.519
  655TIP3   OH2 1907   1.102   3.518   1.339
  655TIP3    H1 1908   1.108   3.486   1.249
  655TIP3    H2 1909   1.063   3.446   1.389
  656TIP3   OH2 1910   2.445   4.427   1.592
  656TIP3    H1 1911   2.437   4.350   1.649
  656TIP3    H2 1912   2.443   4.501   1.652
  657TIP3   OH2 1913   4.213   4.233   4.600
  657TIP3    H1 1914   4.201   4.326   4.583
  657TIP3    H2 1915   4.304   4.215   4.578
  658TIP3   OH2 1916   4.941   7.121   3.394
  658TIP3    H1 1917   4.942   7.211   3.363
  658TIP3    H2 1918   4.993   7.122   3.475
  659TIP3   OH2 1919   0.638   5.773   0.924
  659TIP3    H1 1920   0.650   5.865   0.945
  659TIP3    H2 1921   0.655   5.727   1.006
  660TIP3   OH2 1922   6.885   5.396   1.137
  660TIP3    H1 1923   6.977   5.423   1.134
  660TIP3    H2 1924   6.867   5.362   1.049
  661TIP3   OH2 1925   5.786   3.157   2.890
  661TIP3    H1 1926   5.796   3.063   2.874
  661TIP3    H2 1927   5.765   3.194   2.804
  662TIP3   OH2 1928   0.211   1.021   0.053
  662TIP3    H1 1929   0.270   0.967   0.107
  662TIP3    H2 1930   0.185   1.093   0.110
  663TIP3   OH2 1931   8.131   3.176   6.385
  663TIP3    H1 1932   8.081   3.100   6.416
  663TIP3    H2 1933   8.118   3.176   6.290
  664TIP3   OH2 1934   4.919   1.999   4.737
  664TIP3    H1 1935   4.970   1.934   4.689
  664TIP3    H2 1936   4.832   1.995   4.697
  665TIP3   OH2 1937   6.501   0.619   2.175
  665TIP3    H1 1938   6.514   0.559   2.249
  665TIP3    H2 1939   6.408   0.615   2.157
  666TIP3   OH2 1940   0.531   5.658   2.645
  666TIP3    H1 1941   0.543   5.631   2.736
  666TIP3    H2 1942   0.583   5.737   2.636
  667TIP3   OH2 1943   1.253   0.872   0.110
  667TIP3    H1 1944   1.342   0.848   0.085
  667TIP3    H2 1945   1.260   0.963   0.140
  668TIP3   OH2 1946   3.551   7.775   6.232
  668TIP3    H1 1947   3.527   7.719   6.306
  668TIP3    H2 1948   3.486   7.845   6.234
  669TIP3   OH2 1949   6.722   6.373   0.405
  669TIP3    H1 1950   6.756   6.294   0.445
  669TIP3    H2 1951   6.629   6.372   0.425
  670TIP3   OH2 1952   1.854   1.600   0.404
  670TIP3    H1 1953   1.806   1.651   0.339
  670TIP3    H2 1954   1.796   1.526   0.423
  671TIP3   OH2 1955   0.078   1.528   2.650
  671TIP3    H1 1956   0.014   1.599   2.639
  671TIP3    H2 1957   0.039   1.471   2.716
  672TIP3   OH2 1958   4.379   2.311   2.447
  672TIP3    H1 1959   4.309   2.262   2.489
  672TIP3    H2 1960   4.348   2.401   2.445
  673TIP3   OH2 1961   6.924   4.585   4.705
  673TIP3    H1 1962   7.002   4.613   4.658
  673TIP3    H2 1963   6.851   4.623   4.656
  674TIP3   OH2 1964   2.392   2.761   5.304
  674TIP3    H1 1965   2.402   2.816   5.381
  674TIP3    H2 1966   2.381   2.672   5.338
  675TIP3   OH2 1967   6.262   3.579   2.499
  675TIP3    H1 1968   6.340   3.566   2.446
  675TIP3    H2 1969   6.278   3.528   2.579
  676TIP3   OH2 1970   6.006   0.503   4.020
  676TIP3    H1 1971   5.992   0.534   3.931
  676TIP3    H2 1972   5.934   0.542   4.070
  677TIP3   OH2 1973   4.740   4.398   6.049
  677TIP3    H1 1974   4.726   4.404   5.954
  677TIP3    H2 1975   4.656   4.368   6.084
  678TIP3   OH2 1976   1.279   2.036   6.346
  678TIP3    H1 1977   1.275   1.976   6.271
  678TIP3    H2 1978   1.203   2.013   6.399
  679TIP3   OH2 1979   3.181   1.860   2.715
  679TIP3    H1 1980   3.167   1.839   2.622
  679TIP3    H2 1981   3.175   1.955   2.718
  680TIP3   OH2 1982   7.194   3.643   3.556
  680TIP3    H1 1983   7.168   3.620   3.467
  680TIP3    H2 1984   7.118   3.688   3.593
  681TIP3   OH2 1985   2.686   3.216   4.946
  681TIP3    H1 1986   2.601   3.175   4.936
  681TIP3    H2 1987   2.726   3.211   4.859
  682TIP3   OH2 1988   0.975   1.269   1.468
  682TIP3    H1 1989   0.941   1.300   1.384
  682TIP3    H2 1990   1.031   1.340   1.500
  683TIP3   OH2 1991   3.656   7.826   4.212
  683TIP3    H1 1992   3.724   7.830   4.145
  683TIP3    H2 1993   3.648   7.915   4.244
  684TIP3   OH2 1994   3.701   6.273   4.939
  684TIP3    H1 1995   3.757   6.327   4.995
  684TIP3    H2 1996   3.670   6.333   4.871
  685TIP3   OH2 1997   3.920   2.226   5.532
  685TIP3    H1 1998   3.893   2.189   5.615
  685TIP3    H2 1999   3.838   2.258   5.492
  686TIP3   OH2 2000   2.373   4.278   6.345
  686TIP3    H1 2001   2.407   4.351   6.397
  686TIP3    H2 2002   2.311   4.235   6.403
  687TIP3   OH2 2003   6.469   6.886   6.138
  687TIP3    H1 2004   6.536   6.880   6.070
  687TIP3    H2 2005   6.419   6.965   6.116
  688TIP3   OH2 2006   4.704   5.168   4.679
  688TIP3    H1 2007   4.763   5.093   4.675
  688TIP3    H2 2008   4.744   5.227   4.744
  689TIP3   OH2 2009   6.736   4.713   1.245
  689TIP3    H1 2010   6.688   4.635   1.215
  689TIP3    H2 2011   6.736   4.771   1.168
  690TIP3   OH2 2012   0.223   5.525   5.406
  690TIP3    H1 2013   0.156   5.529   5.474
  690TIP3    H2 2014   0.296   5.479   5.446
  691TIP3   OH2 2015   2.811   5.557   2.344
  691TIP3    H1 2016   2.738   5.520   2.294
  691TIP3    H2 2017   2.807   5.512   2.429
  692TIP3   OH2 2018   1.357   2.507   6.128
  692TIP3    H1 2019   1.265   2.508   6.103
  692TIP3    H2 2020   1.363   2.566   6.203
  693TIP3   OH2 2021   5.603   1.399   1.727
  693TIP3    H1 2022   5.593   1.377   1.634
  693TIP3    H2 2023   5.696   1.420   1.736
  694TIP3   OH2 2024   4.480   2.946   1.587
  694TIP3    H1 2025   4.430   2.901   1.518
  694TIP3    H2 2026   4.445   3.035   1.586
  695TIP3   OH2 2027   7.547   1.625   5.498
  695TIP3    H1 2028   7.615   1.563   5.470
  695TIP3    H2 2029   7.594   1.689   5.552
  696TIP3   OH2 2030   6.378   5.509   6.017
  696TIP3    H1 2031   6.303   5.486   5.962
  696TIP3    H2 2032   6.419   5.425   6.038
  697TIP3   OH2 2033   4.929   3.584   0.318
  697TIP3    H1 2034   5.014   3.565   0.357
  697TIP3    H2 2035   4.949   3.617   0.230
  698TIP3   OH2 2036   1.908   1.855   4.628
  698TIP3    H1 2037   2.003   1.844   4.630
  698TIP3    H2 2038   1.890   1.895   4.542
  699TIP3   OH2 2039   7.260   0.015   0.706
  699TIP3    H1 2040   7.352   0.039   0.698
  699TIP3    H2 2041   7.226   0.070   0.777
  700TIP3   OH2 2042   6.695   4.341   5.199
  700TIP3    H1 2043   6.775   4.390   5.181
  700TIP3    H2 2044   6.662   4.315   5.113
  701TIP3   OH2 2045   2.153   3.731   2.254
  701TIP3    H1 2046   2.141   3.824   2.273
  701TIP3    H2 2047   2.214   3.729   2.180
  702TIP3   OH2 2048   4.547   4.590   3.060
  702TIP3    H1 2049   4.467   4.608   3.109
  702TIP3    H2 2050   4.562   4.496   3.071
  703TIP3   OH2 2051   1.352   2.833   2.037
  703TIP3    H1 2052   1.257   2.838   2.049
  703TIP3    H2 2053   1.370   2.885   1.958
  704TIP3   OH2 2054   8.064   2.455   2.030
  704TIP3    H1 2055   7.973   2.462   2.000
  704TIP3    H2 2056   8.115   2.487   1.955
  705TIP3   OH2 2057   0.539   0.962   2.891
  705TIP3    H1 2058   0.533   0.917   2.975
  705TIP3    H2 2059   0.623   1.008   2.895
  706TIP3   OH2 2060   7.300   5.955   0.339
  706TIP3    H1 2061   7.390   5.932   0.363
  706TIP3    H2 2062   7.289   6.044   0.372
  707TIP3   OH2 2063   0.799   7.355   2.808
  707TIP3    H1 2064   0.878   7.309   2.781
  707TIP3    H2 2065   0.755   7.376   2.726
  708TIP3   OH2 2066   2.176   6.958   2.919
  708TIP3    H1 2067   2.154   6.942   2.827
  708TIP3    H2 2068   2.118   7.028   2.947
  709TIP3   OH2 2069   1.450   0.349   3.037
  709TIP3    H1 2070   1.538   0.359   3.073
  709TIP3    H2 2071   1.463   0.306   2.953
  710TIP3   OH2 2072   2.559   4.288   0.547
  710TIP3    H1 2073   2.505   4.242   0.611
  710TIP3    H2 2074   2.633   4.322   0.598
  711TIP3   OH2 2075   2.565   2.839   2.719
  711TIP3    H1 2076   2.538   2.801   2.636
  711TIP3    H2 2077   2.608   2.768   2.766
  712TIP3   OH2 2078   7.705   1.322   3.699
  712TIP3    H1 2079   7.643   1.327   3.772
  712TIP3    H2 2080   7.789   1.301   3.741
  713TIP3   OH2 2081   5.994   6.798   2.596
  713TIP3    H1 2082   5.910   6.760   2.569
  713TIP3    H2 2083   5.996   6.786   2.691
  714TIP3   OH2 2084   3.295   3.999   5.791
  714TIP3    H1 2085   3.206   4.017   5.761
  714TIP3    H2 2086   3.350   4.056   5.738
  715TIP3   OH2 2087   5.888   6.458   1.309
  715TIP3    H1 2088   5.801   6.470   1.347
  715TIP3    H2 2089   5.940   6.529   1.345
  716TIP3   OH2 2090   2.479   0.554   0.799
  716TIP3    H1 2091   2.522   0.475   0.832
  716TIP3    H2 2092   2.493   0.620   0.867
  717TIP3   OH2 2093   0.975   2.991   3.265
  717TIP3    H1 2094   1.069   3.006   3.262
  717TIP3    H2 2095   0.937   3.078   3.277
  718TIP3   OH2 2096   2.584   2.581   6.512
  718TIP3    H1 2097   2.636   2.510   6.549
  718TIP3    H2 2098   2.592   2.653   6.575
  719TIP3   OH2 2099   5.365   2.877   6.087
  719TIP3    H1 2100   5.345   2.909   6.175
  719TIP3    H2 2101   5.286   2.832   6.059
  720TIP3   OH2 2102   2.553   2.146   3.400
  720TIP3    H1 2103   2.523   2.184   3.317
  720TIP3    H2 2104   2.573   2.222   3.455
  721TIP3   OH2 2105   4.921   5.811   2.839
  721TIP3    H1 2106   4.965   5.769   2.765
  721TIP3    H2 2107   4.909   5.902   2.811
  722TIP3   OH2 2108   5.664   1.615   0.116
  722TIP3    H1 2109   5.641   1.702   0.151
  722TIP3    H2 2110   5.748   1.595   0.157
  723TIP3   OH2 2111   7.210   4.946   2.950
  723TIP3    H1 2112   7.120   4.979   2.943
  723TIP3    H2 2113   7.265   5.021   2.927
  724TIP3   OH2 2114   8.002   6.022   6.289
  724TIP3    H1 2115   7.927   5.968   6.312
  724TIP3    H2 2116   8.051   5.969   6.225
  725TIP3   OH2 2117   6.524   4.668   4.225
  725TIP3    H1 2118   6.582   4.597   4.253
  725TIP3    H2 2119   6.451   4.665   4.288
  726TIP3   OH2 2120   2.256   1.233   2.886
  726TIP3    H1 2121   2.211   1.260   2.805
  726TIP3    H2 2122   2.321   1.169   2.857
  727TIP3   OH2 2123   7.621   6.115   5.749
  727TIP3    H1 2124   7.570   6.194   5.731
  727TIP3    H2 2125   7.557   6.049   5.775
  728TIP3   OH2 2126   6.432   6.619   0.279
  728TIP3    H1 2127   6.396   6.625   0.367
  728TIP3    H2 2128   6.381   6.551   0.236
  729TIP3   OH2 2129   3.119   3.843   4.353
  729TIP3    H1 2130   3.058   3.782   4.394
  729TIP3    H2 2131   3.184   3.862   4.421
  730TIP3   OH2 2132   6.423   7.761   2.206
  730TIP3    H1 2133   6.359   7.743   2.137
  730TIP3    H2 2134   6.370   7.791   2.280
  731TIP3   OH2 2135   6.255   0.604   5.220
  731TIP3    H1 2136   6.262   0.699   5.223
  731TIP3    H2 2137   6.328   0.573   5.274
  732TIP3   OH2 2138   2.966   3.390   0.844
  732TIP3    H1 2139   3.026   3.454   0.804
  732TIP3    H2 2140   3.010   3.306   0.834
  733TIP3   OH2 2141   5.815   1.493   4.588
  733TIP3    H1 2142   5.887   1.516   4.646
  733TIP3    H2 2143   5.816   1.397   4.586
  734TIP3   OH2 2144   6.266   5.202   2.058
  734TIP3    H1 2145   6.299   5.196   1.969
  734TIP3    H2 2146   6.338   5.239   2.108
  735TIP3   OH2 2147   0.208   2.243   2.176
  735TIP3    H1 2148   0.292   2.287   2.190
  735TIP3    H2 2149   0.228   2.173   2.114
  736TIP3   OH2 2150   7.626   7.476   3.867
  736TIP3    H1 2151   7.665   7.498   3.951
  736TIP3    H2 2152   7.660   7.389   3.847
  737TIP3   OH2 2153   1.248   7.315   5.523
  737TIP3    H1 2154   1.323   7.297   5.466
  737TIP3    H2 2155   1.279   7.292   5.611
  738TIP3   OH2 2156   4.524   7.112   6.804
  738TIP3    H1 2157   4.434   7.144   6.791
  738TIP3    H2 2158   4.547   7.070   6.721
  739TIP3   OH2 2159   5.145   5.161   6.035
  739TIP3    H1 2160   5.158   5.136   6.127
  739TIP3    H2 2161   5.081   5.098   6.002
  740TIP3   OH2 2162   3.356   6.717   5.860
  740TIP3    H1 2163   3.372   6.631   5.900
  740TIP3    H2 2164   3.418   6.720   5.786
  741TIP3   OH2 2165   5.743   3.915   1.609
  741TIP3    H1 2166   5.835   3.893   1.619
  741TIP3    H2 2167   5.699   3.831   1.597
  742TIP3   OH2 2168   4.373   4.715   0.987
  742TIP3    H1 2169   4.298   4.655   0.977
  742TIP3    H2 2170   4.366   4.774   0.912
  743TIP3   OH2 2171   2.884   1.871   4.822
  743TIP3    H1 2172   2.961   1.844   4.871
  743TIP3    H2 2173   2.857   1.793   4.774
  744TIP3   OH2 2174   2.322   6.744   2.155
  744TIP3    H1 2175   2.386   6.730   2.225
  744TIP3    H2 2176   2.266   6.814   2.188
  745TIP3   OH2 2177   7.685   6.494   4.857
  745TIP3    H1 2178   7.595   6.527   4.859
  745TIP3    H2 2179   7.676   6.400   4.844
  746TIP3   OH2 2180   6.113   4.034   5.859
  746TIP3    H1 2181   6.071   4.105   5.907
  746TIP3    H2 2182   6.122   4.067   5.770
  747TIP3   OH2 2183   5.488   0.013   0.049
  747TIP3    H1 2184   5.544  -0.025  -0.018
  747TIP3    H2 2185   5.534   0.093   0.076
  748TIP3   OH2 2186   7.824   0.115   6.204
  748TIP3    H1 2187   7.808   0.036   6.152
  748TIP3    H2 2188   7.826   0.186   6.140
  749TIP3   OH2 2189   4.147   5.264   2.097
  749TIP3    H1 2190   4.059   5.258   2.134
  749TIP3    H2 2191   4.193   5.189   2.134
  750TIP3   OH2 2192   6.361   5.825   5.696
  750TIP3    H1 2193   6.266   5.812   5.705
  750TIP3    H2 2194   6.398   5.738   5.709
  751TIP3   OH2 2195   5.856   2.649   2.398
  751TIP3    H1 2196   5.826   2.636   2.308
  751TIP3    H2 2197   5.846   2.742   2.414
  752TIP3   OH2 2198   4.581   0.602   2.752
  752TIP3    H1 2199   4.497   0.612   2.708
  752TIP3    H2 2200   4.590   0.680   2.806
  753TIP3   OH2 2201   3.855   2.000   2.042
  753TIP3    H1 2202   3.907   2.062   1.991
  753TIP3    H2 2203   3.829   2.048   2.120
  754TIP3   OH2 2204   2.229   1.628   2.233
  754TIP3    H1 2205   2.196   1.569   2.164
  754TIP3    H2 2206   2.152   1.651   2.284
  755TIP3   OH2 2207   2.858   2.959   0.545
  755TIP3    H1 2208   2.818   3.010   0.616
  755TIP3    H2 2209   2.938   2.922   0.584
  756TIP3   OH2 2210   4.853   5.063   0.684
  756TIP3    H1 2211   4.764   5.067   0.649
  756TIP3    H2 2212   4.844   5.096   0.774
  757TIP3   OH2 2213   2.792   3.113   6.310
  757TIP3    H1 2214   2.850   3.188   6.299
  757TIP3    H2 2215   2.704   3.151   6.318
  758TIP3   OH2 2216   5.496   0.072   4.223
  758TIP3    H1 2217   5.445   0.134   4.274
  758TIP3    H2 2218   5.490   0.104   4.133
  759TIP3   OH2 2219   3.202   4.696   5.883
  759TIP3    H1 2220   3.182   4.682   5.976
  759TIP3    H2 2221   3.250   4.779   5.881
  760TIP3   OH2 2222   8.260   4.034   0.944
  760TIP3    H1 2223   8.174   4.028   0.904
  760TIP3    H2 2224   8.266   3.957   1.000
  761TIP3   OH2 2225   5.946   1.152   1.903
  761TIP3    H1 2226   5.978   1.195   1.824
  761TIP3    H2 2227   5.994   1.069   1.906
  762TIP3   OH2 2228   8.264   2.012   1.068
  762TIP3    H1 2229   8.232   2.039   0.982
  762TIP3    H2 2230   8.266   1.917   1.064
  763TIP3   OH2 2231   1.851   0.548   3.333
  763TIP3    H1 2232   1.868   0.641   3.347
  763TIP3    H2 2233   1.820   0.515   3.417
  764TIP3   OH2 2234   5.431   0.722   4.183
  764TIP3    H1 2235   5.453   0.634   4.151
  764TIP3    H2 2236   5.440   0.715   4.278
  765TIP3   OH2 2237   7.991   1.048   0.800
  765TIP3    H1 2238   8.039   1.012   0.875
  765TIP3    H2 2239   8.031   1.134   0.785
  766TIP3   OH2 2240   2.676   4.009   0.438
  766TIP3    H1 2241   2.702   4.083   0.383
  766TIP3    H2 2242   2.648   4.049   0.520
  767TIP3   OH2 2243   6.199   3.565   6.153
  767TIP3    H1 2244   6.233   3.505   6.087
  767TIP3    H2 2245   6.170   3.642   6.103
  768TIP3   OH2 2246   5.967   0.376   6.381
  768TIP3    H1 2247   6.060   0.357   6.385
  768TIP3    H2 2248   5.948   0.386   6.287
  769TIP3   OH2 2249   6.331   4.844   2.478
  769TIP3    H1 2250   6.291   4.896   2.408
  769TIP3    H2 2251   6.280   4.864   2.556
  770TIP3   OH2 2252   7.277   1.029   3.909
  770TIP3    H1 2253   7.324   1.067   3.984
  770TIP3    H2 2254   7.185   1.043   3.930
  771TIP3   OH2 2255   5.719   5.750   2.103
  771TIP3    H1 2256   5.721   5.831   2.053
  771TIP3    H2 2257   5.658   5.694   2.054
  772TIP3   OH2 2258   3.058   3.360   4.946
  772TIP3    H1 2259   2.983   3.398   4.901
  772TIP3    H2 2260   3.030   3.271   4.968
  773TIP3   OH2 2261   3.758   1.872   0.105
  773TIP3    H1 2262   3.820   1.873   0.179
  773TIP3    H2 2263   3.733   1.780   0.097
  774TIP3   OH2 2264   1.244   7.600   4.228
  774TIP3    H1 2265   1.297   7.574   4.304
  774TIP3    H2 2266   1.209   7.686   4.252
  775TIP3   OH2 2267   6.653   4.450   1.257
  775TIP3    H1 2268   6.700   4.370   1.280
  775TIP3    H2 2269   6.612   4.431   1.173
  776TIP3   OH2 2270   3.115   4.504   4.920
  776TIP3    H1 2271   3.162   4.575   4.964
  776TIP3    H2 2272   3.026   4.509   4.955
  777TIP3   OH2 2273   5.389   6.610   5.497
  777TIP3    H1 2274   5.422   6.695   5.468
  777TIP3    H2 2275   5.300   6.627   5.528
  778TIP3   OH2 2276   4.226   5.807   3.572
  778TIP3    H1 2277   4.224   5.897   3.603
  778TIP3    H2 2278   4.276   5.810   3.490
  779TIP3   OH2 2279   4.274   0.430   5.994
  779TIP3    H1 2280   4.365   0.421   6.023
  779TIP3    H2 2281   4.253   0.346   5.955
  780TIP3   OH2 2282   5.949   4.371   5.223
  780TIP3    H1 2283   5.895   4.400   5.150
  780TIP3    H2 2284   6.023   4.433   5.224
  781TIP3   OH2 2285   6.281   6.335   0.653
  781TIP3    H1 2286   6.218   6.280   0.606
  781TIP3    H2 2287   6.318   6.277   0.719
  782TIP3   OH2 2288   6.771   1.404   4.465
  782TIP3    H1 2289   6.678   1.423   4.450
  782TIP3    H2 2290   6.798   1.354   4.388
  783TIP3   OH2 2291   7.757   2.562   4.387
  783TIP3    H1 2292   7.693   2.539   4.318
  783TIP3    H2 2293   7.823   2.614   4.342
  784TIP3   OH2 2294   4.731   7.208   2.022
  784TIP3    H1 2295   4.799   7.197   1.956
  784TIP3    H2 2296   4.750   7.142   2.088
  785TIP3   OH2 2297   1.791   5.614   1.501
  785TIP3    H1 2298   1.745   5.532   1.520
  785TIP3    H2 2299   1.822   5.644   1.587
  786TIP3   OH2 2300   4.392   4.404   6.383
  786TIP3    H1 2301   4.304   4.378   6.410
  786TIP3    H2 2302   4.377   4.472   6.317
  787TIP3   OH2 2303   0.728   1.110   6.444
  787TIP3    H1 2304   0.718   1.113   6.539
  787TIP3    H2 2305   0.688   1.191   6.413
  788TIP3   OH2 2306   0.746   0.086   1.306
  788TIP3    H1 2307   0.653   0.101   1.289
  788TIP3    H2 2308   0.765   0.004   1.260
  789TIP3   OH2 2309   7.475   4.140   0.370
  789TIP3    H1 2310   7.449   4.091   0.448
  789TIP3    H2 2311   7.566   4.115   0.355
  790TIP3   OH2 2312   0.822   7.554   4.609
  790TIP3    H1 2313   0.831   7.499   4.687
  790TIP3    H2 2314   0.776   7.500   4.546
  791TIP3   OH2 2315   1.570   1.680   6.063
  791TIP3    H1 2316   1.543   1.739   5.993
  791TIP3    H2 2317   1.647   1.635   6.029
  792TIP3   OH2 2318   1.696   4.541   3.730
  792TIP3    H1 2319   1.739   4.626   3.737
  792TIP3    H2 2320   1.603   4.560   3.740
  793TIP3   OH2 2321   0.929   5.742   1.164
  793TIP3    H1 2322   0.960   5.783   1.083
  793TIP3    H2 2323   0.855   5.688   1.136
  794TIP3   OH2 2324   6.016   1.858   5.023
  794TIP3    H1 2325   6.040   1.765   5.019
  794TIP3    H2 2326   5.922   1.858   5.040
  795TIP3   OH2 2327   2.941   1.680   4.339
  795TIP3    H1 2328   3.009   1.696   4.273
  795TIP3    H2 2329   2.900   1.599   4.311
  796TIP3   OH2 2330   2.101   4.003   2.248
  796TIP3    H1 2331   2.190   4.028   2.272
  796TIP3    H2 2332   2.045   4.068   2.291
  797TIP3   OH2 2333   2.291   1.723   4.894
  797TIP3    H1 2334   2.244   1.699   4.973
  797TIP3    H2 2335   2.290   1.645   4.840
  798TIP3   OH2 2336   4.451   7.378   2.253
  798TIP3    H1 2337   4.412   7.451   2.206
  798TIP3    H2 2338   4.386   7.354   2.319
  799TIP3   OH2 2339   1.413   2.015   4.900
  799TIP3    H1 2340   1.334   1.962   4.903
  799TIP3    H2 2341   1.401   2.073   4.825
  800TIP3   OH2 2342   2.340   4.449   6.568
  800TIP3    H1 2343   2.286   4.528   6.559
  800TIP3    H2 2344   2.328   4.422   6.659
  801TIP3   OH2 2345   6.490   7.624   4.219
  801TIP3    H1 2346   6.416   7.612   4.278
  801TIP3    H2 2347   6.549   7.551   4.239
  802TIP3   OH2 2348   7.033   6.350   6.235
  802TIP3    H1 2349   7.076   6.425   6.278
  802TIP3    H2 2350   6.989   6.388   6.159
  803TIP3   OH2 2351   2.062   5.265   0.731
  803TIP3    H1 2352   2.102   5.219   0.657
  803TIP3    H2 2353   2.004   5.330   0.689
  804TIP3   OH2 2354   2.609   5.207   0.020
  804TIP3    H1 2355   2.582   5.227  -0.069
  804TIP3    H2 2356   2.705   5.217   0.019
  805TIP3   OH2 2357   0.207   6.823   3.948
  805TIP3    H1 2358   0.224   6.731   3.967
  805TIP3    H2 2359   0.211   6.830   3.853
  806TIP3   OH2 2360   7.764   2.450   0.831
  806TIP3    H1 2361   7.763   2.469   0.924
  806TIP3    H2 2362   7.849   2.409   0.815
  807TIP3   OH2 2363   0.523   1.231   3.571
  807TIP3    H1 2364   0.458   1.162   3.560
  807TIP3    H2 2365   0.605   1.192   3.541
  808TIP3   OH2 2366   5.760   0.579   0.598
  808TIP3    H1 2367   5.796   0.589   0.686
  808TIP3    H2 2368   5.674   0.538   0.612
  809TIP3   OH2 2369   7.285   5.497   1.304
  809TIP3    H1 2370   7.236   5.550   1.241
  809TIP3    H2 2371   7.300   5.414   1.258
  810TIP3   OH2 2372   5.237   0.522   5.751
  810TIP3    H1 2373   5.295   0.508   5.826
  810TIP3    H2 2374   5.260   0.608   5.718
  811TIP3   OH2 2375   0.041   0.668   1.445
  811TIP3    H1 2376   0.052   0.721   1.524
  811TIP3    H2 2377  -0.036   0.614   1.463
  812TIP3   OH2 2378   5.510   2.441   4.106
  812TIP3    H1 2379   5.484   2.433   4.198
  812TIP3    H2 2380   5.603   2.463   4.110
  813TIP3   OH2 2381   3.461   1.793   4.545
  813TIP3    H1 2382   3.411   1.812   4.624
  813TIP3    H2 2383   3.522   1.724   4.571
  814TIP3   OH2 2384   1.138   7.422   4.567
  814TIP3    H1 2385   1.094   7.340   4.589
  814TIP3    H2 2386   1.179   7.450   4.649
  815TIP3   OH2 2387   3.888   5.700   3.462
  815TIP3    H1 2388   3.800   5.679   3.492
  815TIP3    H2 2389   3.898   5.794   3.479
  816TIP3   OH2 2390   7.037   1.754   2.268
  816TIP3    H1 2391   6.976   1.718   2.333
  816TIP3    H2 2392   7.118   1.706   2.282
  817TIP3   OH2 2393   2.847   3.323   6.128
  817TIP3    H1 2394   2.892   3.405   6.152
  817TIP3    H2 2395   2.770   3.352   6.079
  818TIP3   OH2 2396   6.734   4.890   1.993
  818TIP3    H1 2397   6.729   4.890   1.897
  818TIP3    H2 2398   6.651   4.851   2.022
  819TIP3   OH2 2399   3.297   4.791   4.515
  819TIP3    H1 2400   3.207   4.782   4.483
  819TIP3    H2 2401   3.312   4.885   4.518
  820TIP3   OH2 2402   7.354   3.880   3.523
  820TIP3    H1 2403   7.448   3.870   3.540
  820TIP3    H2 2404   7.318   3.792   3.532
  821TIP3   OH2 2405   7.127   3.743   3.104
  821TIP3    H1 2406   7.198   3.704   3.156
  821TIP3    H2 2407   7.161   3.747   3.015
  822TIP3   OH2 2408   2.316   5.207   6.679
  822TIP3    H1 2409   2.381   5.165   6.735
  822TIP3    H2 2410   2.361   5.283   6.642
  823TIP3   OH2 2411   6.067   1.760   2.657
  823TIP3    H1 2412   6.008   1.754   2.732
  823TIP3    H2 2413   6.035   1.694   2.596
  824TIP3   OH2 2414   1.161   5.573   4.059
  824TIP3    H1 2415   1.089   5.516   4.086
  824TIP3    H2 2416   1.211   5.590   4.139
  825TIP3   OH2 2417   5.081   0.529   0.145
  825TIP3    H1 2418   5.039   0.614   0.130
  825TIP3    H2 2419   5.117   0.506   0.059
  826TIP3   OH2 2420   6.434   4.991   6.250
  826TIP3    H1 2421   6.421   4.947   6.334
  826TIP3    H2 2422   6.350   5.032   6.231
  827TIP3   OH2 2423   7.341   1.338   4.394
  827TIP3    H1 2424   7.394   1.340   4.474
  827TIP3    H2 2425   7.281   1.412   4.403
  828TIP3   OH2 2426   2.590   0.841   2.778
  828TIP3    H1 2427   2.570   0.831   2.685
  828TIP3    H2 2428   2.641   0.763   2.800
  829TIP3   OH2 2429   1.438   3.661   0.860
  829TIP3    H1 2430   1.529   3.638   0.844
  829TIP3    H2 2431   1.435   3.756   0.845
  830TIP3   OH2 2432   5.252  -0.004   4.391
  830TIP3    H1 2433   5.233  -0.089   4.429
  830TIP3    H2 2434   5.264   0.054   4.466
  831TIP3   OH2 2435   5.416   2.945   5.697
  831TIP3    H1 2436   5.478   2.879   5.728
  831TIP3    H2 2437   5.461   2.987   5.624
  832TIP3   OH2 2438   6.354   4.504   4.033
  832TIP3    H1 2439   6.372   4.588   4.077
  832TIP3    H2 2440   6.441   4.470   4.012
  833TIP3   OH2 2441   6.830   2.327   2.879
  833TIP3    H1 2442   6.820   2.417   2.909
  833TIP3    H2 2443   6.923   2.308   2.891
  834TIP3   OH2 2444   8.045   2.609   4.326
  834TIP3    H1 2445   8.029   2.603   4.232
  834TIP3    H2 2446   8.141   2.617   4.333
  835TIP3   OH2 2447   6.360   5.788   0.221
  835TIP3    H1 2448   6.391   5.767   0.309
  835TIP3    H2 2449   6.402   5.723   0.165
  836TIP3   OH2 2450   7.535   0.563   1.201
  836TIP3    H1 2451   7.519   0.539   1.292
  836TIP3    H2 2452   7.570   0.483   1.161
  837TIP3   OH2 2453   7.752   4.124   3.988
  837TIP3    H1 2454   7.783   4.114   3.898
  837TIP3    H2 2455   7.740   4.034   4.019
  838TIP3   OH2 2456   0.450   1.106   0.882
  838TIP3    H1 2457   0.406   1.038   0.932
  838TIP3    H2 2458   0.391   1.125   0.809
  839TIP3   OH2 2459   5.558   7.781   2.398
  839TIP3    H1 2460   5.481   7.733   2.428
  839TIP3    H2 2461   5.566   7.758   2.306
  840TIP3   OH2 2462   7.975   1.780   2.370
  840TIP3    H1 2463   7.991   1.738   2.286
  840TIP3    H2 2464   8.062   1.797   2.406
  841TIP3   OH2 2465   7.571   7.321   4.634
  841TIP3    H1 2466   7.495   7.266   4.618
  841TIP3    H2 2467   7.572   7.382   4.560
  842TIP3   OH2 2468   7.910   2.355   0.264
  842TIP3    H1 2469   7.921   2.421   0.196
  842TIP3    H2 2470   7.966   2.385   0.335
  843TIP3   OH2 2471   5.880   3.609   3.934
  843TIP3    H1 2472   5.844   3.612   3.845
  843TIP3    H2 2473   5.935   3.531   3.936
  844TIP3   OH2 2474   1.671   7.725   6.410
  844TIP3    H1 2475   1.611   7.775   6.465
  844TIP3    H2 2476   1.620   7.649   6.382
  845TIP3   OH2 2477   3.330   4.362   4.135
  845TIP3    H1 2478   3.339   4.448   4.177
  845TIP3    H2 2479   3.391   4.305   4.182
  846TIP3   OH2 2480   5.827   0.566   1.794
  846TIP3    H1 2481   5.888   0.576   1.867
  846TIP3    H2 2482   5.883   0.552   1.718
  847TIP3   OH2 2483   6.139   1.508   3.265
  847TIP3    H1 2484   6.190   1.573   3.217
  847TIP3    H2 2485   6.048   1.529   3.245
  848TIP3   OH2 2486   5.320   0.208   6.715
  848TIP3    H1 2487   5.381   0.209   6.788
  848TIP3    H2 2488   5.282   0.296   6.713
  849TIP3   OH2 2489   7.660   7.294   1.205
  849TIP3    H1 2490   7.648   7.230   1.275
  849TIP3    H2 2491   7.703   7.244   1.135
  850TIP3   OH2 2492   2.942   1.616   2.663
  850TIP3    H1 2493   2.926   1.651   2.751
  850TIP3    H2 2494   3.003   1.544   2.676
  851TIP3   OH2 2495   6.407   2.781   4.706
  851TIP3    H1 2496   6.429   2.863   4.751
  851TIP3    H2 2497   6.433   2.797   4.615
  852TIP3   OH2 2498   0.164   3.614   5.693
  852TIP3    H1 2499   0.240   3.617   5.635
  852TIP3    H2 2500   0.092   3.650   5.640
  853TIP3   OH2 2501   5.325   4.518   2.051
  853TIP3    H1 2502   5.239   4.479   2.065
  853TIP3    H2 2503   5.306   4.608   2.024
  854TIP3   OH2 2504   3.711   0.220   2.634
  854TIP3    H1 2505   3.708   0.127   2.612
  854TIP3    H2 2506   3.716   0.264   2.548
  855TIP3   OH2 2507   7.607   4.423   2.582
  855TIP3    H1 2508   7.651   4.402   2.499
  855TIP3    H2 2509   7.523   4.461   2.555
  856TIP3   OH2 2510   8.081   4.312   0.805
  856TIP3    H1 2511   8.016   4.298   0.873
  856TIP3    H2 2512   8.103   4.224   0.774
  857TIP3   OH2 2513   6.409   2.198   3.173
  857TIP3    H1 2514   6.374   2.110   3.162
  857TIP3    H2 2515   6.347   2.241   3.232
  858TIP3   OH2 2516   0.281   1.395   3.198
  858TIP3    H1 2517   0.288   1.382   3.103
  858TIP3    H2 2518   0.372   1.401   3.227
  859TIP3   OH2 2519   6.508   6.642   3.715
  859TIP3    H1 2520   6.514   6.653   3.621
  859TIP3    H2 2521   6.502   6.547   3.729
  860TIP3   OH2 2522   4.511   1.075   2.929
  860TIP3    H1 2523   4.463   1.030   2.999
  860TIP3    H2 2524   4.479   1.165   2.932
  861TIP3   OH2 2525   0.429   0.061   4.893
  861TIP3    H1 2526   0.492  -0.010   4.908
  861TIP3    H2 2527   0.367   0.053   4.966
  862TIP3   OH2 2528   2.223   6.469   0.949
  862TIP3    H1 2529   2.284   6.532   0.912
  862TIP3    H2 2530   2.252   6.458   1.040
  863TIP3   OH2 2531   1.960   3.284   6.560
  863TIP3    H1 2532   1.866   3.272   6.546
  863TIP3    H2 2533   1.990   3.199   6.594
  864TIP3   OH2 2534   2.726   3.474   1.217
  864TIP3    H1 2535   2.664   3.546   1.208
  864TIP3    H2 2536   2.791   3.506   1.280
  865TIP3   OH2 2537   1.355   3.222   6.675
  865TIP3    H1 2538   1.284   3.266   6.722
  865TIP3    H2 2539   1.430   3.227   6.735
  866TIP3   OH2 2540   1.517   2.507   5.545
  866TIP3    H1 2541   1.544   2.553   5.625
  866TIP3    H2 2542   1.580   2.437   5.535
  867TIP3   OH2 2543   1.107   2.964   1.545
  867TIP3    H1 2544   1.184   3.021   1.543
  867TIP3    H2 2545   1.054   2.998   1.617
  868TIP3   OH2 2546   7.222   0.409   2.318
  868TIP3    H1 2547   7.155   0.427   2.253
  868TIP3    H2 2548   7.266   0.330   2.286
  869TIP3   OH2 2549   3.764   0.887   3.241
  869TIP3    H1 2550   3.851   0.878   3.280
  869TIP3    H2 2551   3.766   0.971   3.196
  870TIP3   OH2 2552   6.235   2.915   0.705
  870TIP3    H1 2553   6.271   2.845   0.760
  870TIP3    H2 2554   6.149   2.934   0.743
  871TIP3   OH2 2555   3.433   5.563   5.711
  871TIP3    H1 2556   3.357   5.567   5.769
  871TIP3    H2 2557   3.395   5.570   5.623
  872TIP3   OH2 2558   1.525   7.126   2.726
  872TIP3    H1 2559   1.510   7.220   2.715
  872TIP3    H2 2560   1.526   7.114   2.821
  873TIP3   OH2 2561   4.295   6.006   0.702
  873TIP3    H1 2562   4.358   5.967   0.641
  873TIP3    H2 2563   4.239   5.932   0.727
  874TIP3   OH2 2564   2.287   5.401   0.474
  874TIP3    H1 2565   2.252   5.312   0.471
  874TIP3    H2 2566   2.217   5.453   0.513
  875TIP3   OH2 2567   1.459   2.198   6.198
  875TIP3    H1 2568   1.399   2.182   6.271
  875TIP3    H2 2569   1.424   2.275   6.154
  876TIP3   OH2 2570   1.092   7.492   5.760
  876TIP3    H1 2571   1.048   7.543   5.693
  876TIP3    H2 2572   1.119   7.556   5.826
  877TIP3   OH2 2573   6.955   4.431   5.078
  877TIP3    H1 2574   7.003   4.510   5.053
  877TIP3    H2 2575   6.932   4.390   4.995
  878TIP3   OH2 2576   7.922   6.048   2.978
  878TIP3    H1 2577   7.883   6.080   2.897
  878TIP3    H2 2578   7.852   5.995   3.018
  879TIP3   OH2 2579   0.648   2.430   1.952
  879TIP3    H1 2580   0.559   2.426   1.986
  879TIP3    H2 2581   0.668   2.340   1.927
  880TIP3   OH2 2582   7.852   5.387   5.878
  880TIP3    H1 2583   7.936   5.358   5.844
  880TIP3    H2 2584   7.794   5.312   5.867
  881TIP3   OH2 2585   4.051   0.636   2.297
  881TIP3    H1 2586   3.990   0.707   2.276
  881TIP3    H2 2587   4.110   0.673   2.362
  882TIP3   OH2 2588   7.844   1.758   4.943
  882TIP3    H1 2589   7.935   1.774   4.919
  882TIP3    H2 2590   7.849   1.718   5.030
  883TIP3   OH2 2591   1.691   3.646   6.439
  883TIP3    H1 2592   1.708   3.738   6.420
  883TIP3    H2 2593   1.704   3.638   6.534
  884TIP3   OH2 2594   2.309   3.049   5.178
  884TIP3    H1 2595   2.304   2.988   5.251
  884TIP3    H2 2596   2.225   3.095   5.178
  885TIP3   OH2 2597   7.147   7.375   3.812
  885TIP3    H1 2598   7.104   7.329   3.741
  885TIP3    H2 2599   7.217   7.425   3.770
  886TIP3   OH2 2600   0.947   6.912   0.662
  886TIP3    H1 2601   0.874   6.924   0.723
  886TIP3    H2 2602   1.021   6.955   0.706
  887TIP3   OH2 2603   3.284   1.643   3.779
  887TIP3    H1 2604   3.303   1.733   3.754
  887TIP3    H2 2605   3.215   1.615   3.719
  888TIP3   OH2 2606   4.772   5.219   1.321
  888TIP3    H1 2607   4.691   5.211   1.271
  888TIP3    H2 2608   4.811   5.131   1.316
  889TIP3   OH2 2609   2.121   6.498   3.073
  889TIP3    H1 2610   2.130   6.420   3.018
  889TIP3    H2 2611   2.029   6.498   3.100
  890TIP3   OH2 2612   0.422   4.276   1.171
  890TIP3    H1 2613   0.430   4.181   1.173
  890TIP3    H2 2614   0.346   4.296   1.226
  891TIP3   OH2 2615   1.067   2.753   4.419
  891TIP3    H1 2616   0.981   2.722   4.450
  891TIP3    H2 2617   1.053   2.845   4.399
  892TIP3   OH2 2618   4.413   2.913   4.588
  892TIP3    H1 2619   4.440   2.824   4.609
  892TIP3    H2 2620   4.418   2.918   4.493
  893TIP3   OH2 2621   6.087   1.611   5.115
  893TIP3    H1 2622   6.097   1.517   5.131
  893TIP3    H2 2623   6.118   1.653   5.195
  894TIP3   OH2 2624   1.427   6.805   3.422
  894TIP3    H1 2625   1.388   6.888   3.395
  894TIP3    H2 2626   1.487   6.828   3.493
  895TIP3   OH2 2627   0.302   7.795   6.111
  895TIP3    H1 2628   0.388   7.752   6.113
  895TIP3    H2 2629   0.293   7.835   6.197
  896TIP3   OH2 2630   1.209   0.933   1.490
  896TIP3    H1 2631   1.254   0.912   1.408
  896TIP3    H2 2632   1.276   0.975   1.544
  897TIP3   OH2 2633   7.564   3.188   5.047
  897TIP3    H1 2634   7.519   3.137   4.979
  897TIP3    H2 2635   7.496   3.245   5.083
  898TIP3   OH2 2636   3.358   7.766   4.028
  898TIP3    H1 2637   3.372   7.772   4.122
  898TIP3    H2 2638   3.389   7.678   4.005
  899TIP3   OH2 2639   3.021   1.146   1.448
  899TIP3    H1 2640   3.006   1.174   1.358
  899TIP3    H2 2641   3.105   1.102   1.446
  900TIP3   OH2 2642   5.403   3.061   1.369
  900TIP3    H1 2643   5.453   2.996   1.319
  900TIP3    H2 2644   5.370   3.013   1.445
  901TIP3   OH2 2645   4.199   7.503   5.298
  901TIP3    H1 2646   4.199   7.576   5.360
  901TIP3    H2 2647   4.280   7.516   5.247
  902TIP3   OH2 2648   6.112   2.313   6.665
  902TIP3    H1 2649   6.140   2.292   6.576
  902TIP3    H2 2650   6.188   2.291   6.719
  903TIP3   OH2 2651   1.507   6.598   1.642
  903TIP3    H1 2652   1.494   6.518   1.590
  903TIP3    H2 2653   1.520   6.567   1.731
  904TIP3   OH2 2654   8.061   7.594   2.596
  904TIP3    H1 2655   8.062   7.687   2.572
  904TIP3    H2 2656   8.151   7.575   2.623
  905TIP3   OH2 2657   4.483   2.967   1.852
  905TIP3    H1 2658   4.557   2.931   1.900
  905TIP3    H2 2659   4.501   2.948   1.760
  906TIP3   OH2 2660   3.446   6.022   1.078
  906TIP3    H1 2661   3.493   5.992   1.000
  906TIP3    H2 2662   3.455   5.951   1.140
  907TIP3   OH2 2663   5.392   5.515   3.328
  907TIP3    H1 2664   5.450   5.468   3.387
  907TIP3    H2 2665   5.352   5.446   3.274
  908TIP3   OH2 2666   2.538   4.915   3.699
  908TIP3    H1 2667   2.572   4.849   3.638
  908TIP3    H2 2668   2.485   4.865   3.761
  909TIP3   OH2 2669   3.156   3.012   1.664
  909TIP3    H1 2670   3.068   3.050   1.665
  909TIP3    H2 2671   3.187   3.026   1.575
  910TIP3   OH2 2672   6.058   4.974   6.156
  910TIP3    H1 2673   6.097   4.898   6.198
  910TIP3    H2 2674   6.022   4.941   6.074
  911TIP3   OH2 2675   6.268   1.905   5.783
  911TIP3    H1 2676   6.218   1.855   5.719
  911TIP3    H2 2677   6.202   1.958   5.830
  912TIP3   OH2 2678   3.093   7.090   1.732
  912TIP3    H1 2679   3.009   7.127   1.705
  912TIP3    H2 2680   3.129   7.155   1.793
  913TIP3   OH2 2681   4.924   5.197   3.101
  913TIP3    H1 2682   4.883   5.263   3.156
  913TIP3    H2 2683   4.906   5.226   3.011
  914TIP3   OH2 2684   5.172   6.865   1.520
  914TIP3    H1 2685   5.212   6.930   1.578
  914TIP3    H2 2686   5.233   6.858   1.446
  915TIP3   OH2 2687   2.064   5.963   6.041
  915TIP3    H1 2688   2.054   6.003   6.127
  915TIP3    H2 2689   2.134   6.013   5.999
  916TIP3   OH2 2690   7.058   0.873   2.014
  916TIP3    H1 2691   7.062   0.824   1.932
  916TIP3    H2 2692   7.011   0.815   2.075
  917TIP3   OH2 2693   5.631   0.634   1.064
  917TIP3    H1 2694   5.656   0.617   1.155
  917TIP3    H2 2695   5.552   0.686   1.070
  918TIP3   OH2 2696   1.400   3.558   2.762
  918TIP3    H1 2697   1.439   3.488   2.711
  918TIP3    H2 2698   1.311   3.528   2.781
  919TIP3   OH2 2699   0.800   5.090   1.024
  919TIP3    H1 2700   0.755   5.160   1.070
  919TIP3    H2 2701   0.780   5.104   0.931
  920TIP3   OH2 2702   0.731   2.267   0.288
  920TIP3    H1 2703   0.655   2.244   0.235
  920TIP3    H2 2704   0.799   2.205   0.261
  921TIP3   OH2 2705   1.598   3.782   1.091
  921TIP3    H1 2706   1.686   3.745   1.089
  921TIP3    H2 2707   1.571   3.785   1.000
  922TIP3   OH2 2708   5.803   2.115   4.593
  922TIP3    H1 2709   5.877   2.112   4.532
  922TIP3    H2 2710   5.805   2.030   4.638
  923TIP3   OH2 2711   0.191   5.780   0.209
  923TIP3    H1 2712   0.246   5.759   0.284
  923TIP3    H2 2713   0.145   5.698   0.191
  924TIP3   OH2 2714   5.806   2.450   4.108
  924TIP3    H1 2715   5.901   2.459   4.107
  924TIP3    H2 2716   5.784   2.414   4.022
  925TIP3   OH2 2717   0.119   2.087   6.018
  925TIP3    H1 2718   0.134   2.066   5.926
  925TIP3    H2 2719   0.153   2.176   6.028
  926TIP3   OH2 2720   4.672   5.035   5.324
  926TIP3    H1 2721   4.739   5.055   5.258
  926TIP3    H2 2722   4.635   5.121   5.347
  927TIP3   OH2 2723   6.428   3.751   4.070
  927TIP3    H1 2724   6.365   3.796   4.014
  927TIP3    H2 2725   6.494   3.717   4.009
  928TIP3   OH2 2726   3.660   7.530   5.827
  928TIP3    H1 2727   3.698   7.553   5.742
  928TIP3    H2 2728   3.631   7.614   5.864
  929TIP3   OH2 2729   4.369   6.511   1.834
  929TIP3    H1 2730   4.332   6.489   1.749
  929TIP3    H2 2731   4.310   6.578   1.869
  930TIP3   OH2 2732   1.142   0.247   0.769
  930TIP3    H1 2733   1.213   0.311   0.776
  930TIP3    H2 2734   1.073   0.283   0.825
  931TIP3   OH2 2735   0.172   1.275   5.646
  931TIP3    H1 2736   0.081   1.301   5.638
  931TIP3    H2 2737   0.187   1.216   5.572
  932TIP3   OH2 2738   6.491   5.677   6.290
  932TIP3    H1 2739   6.563   5.657   6.229
  932TIP3    H2 2740   6.423   5.715   6.235
  933TIP3   OH2 2741   3.025   6.579   6.361
  933TIP3    H1 2742   2.966   6.628   6.417
  933TIP3    H2 2743   2.979   6.496   6.344
  934TIP3   OH2 2744   4.923   6.529   5.645
  934TIP3    H1 2745   4.944   6.544   5.553
  934TIP3    H2 2746   4.858   6.459   5.643
  935TIP3   OH2 2747   1.648   6.001   5.612
  935TIP3    H1 2748   1.566   6.047   5.597
  935TIP3    H2 2749   1.665   6.010   5.705
  936TIP3   OH2 2750   2.120   2.287   5.058
  936TIP3    H1 2751   2.204   2.255   5.024
  936TIP3    H2 2752   2.098   2.361   5.001
  937TIP3   OH2 2753   4.394   0.187   0.226
  937TIP3    H1 2754   4.336   0.257   0.257
  937TIP3    H2 2755   4.385   0.118   0.291
  938TIP3   OH2 2756   7.297   2.013   3.301
  938TIP3    H1 2757   7.361   1.941   3.305
  938TIP3    H2 2758   7.216   1.975   3.335
  939TIP3   OH2 2759   0.371   2.705   4.885
  939TIP3    H1 2760   0.328   2.643   4.826
  939TIP3    H2 2761   0.313   2.782   4.886
  940TIP3   OH2 2762   7.402   5.179   2.942
  940TIP3    H1 2763   7.372   5.266   2.967
  940TIP3    H2 2764   7.382   5.174   2.848
  941TIP3   OH2 2765   2.794   6.897   4.972
  941TIP3    H1 2766   2.861   6.904   5.040
  941TIP3    H2 2767   2.828   6.948   4.899
  942TIP3   OH2 2768   3.135   0.914   3.051
  942TIP3    H1 2769   3.096   0.851   2.991
  942TIP3    H2 2770   3.071   0.986   3.055
  943TIP3   OH2 2771   5.509   1.342   4.988
  943TIP3    H1 2772   5.515   1.270   4.925
  943TIP3    H2 2773   5.490   1.419   4.935
  944TIP3   OH2 2774   7.573   0.180   4.539
  944TIP3    H1 2775   7.513   0.152   4.608
  944TIP3    H2 2776   7.531   0.154   4.457
  945TIP3   OH2 2777   4.281   5.507   4.177
  945TIP3    H1 2778   4.199   5.474   4.215
  945TIP3    H2 2779   4.267   5.601   4.171
  946TIP3   OH2 2780   2.429   2.451   1.506
  946TIP3    H1 2781   2.387   2.398   1.438
  946TIP3    H2 2782   2.517   2.469   1.472
  947TIP3   OH2 2783   0.054   5.722   2.995
  947TIP3    H1 2784   0.025   5.811   2.975
  947TIP3    H2 2785   0.139   5.715   2.952
  948TIP3   OH2 2786   0.076   6.194   0.986
  948TIP3    H1 2787  -0.003   6.203   0.933
  948TIP3    H2 2788   0.112   6.282   0.991
  949TIP3   OH2 2789   4.830   0.298   4.092
  949TIP3    H1 2790   4.914   0.326   4.057
  949TIP3    H2 2791   4.838   0.308   4.186
  950TIP3   OH2 2792   1.731   4.442   3.319
  950TIP3    H1 2793   1.733   4.391   3.399
  950TIP3    H2 2794   1.822   4.450   3.292
  951TIP3   OH2 2795   4.672   7.175   0.396
  951TIP3    H1 2796   4.707   7.210   0.314
  951TIP3    H2 2797   4.585   7.214   0.403
  952TIP3   OH2 2798   5.689   2.330   3.259
  952TIP3    H1 2799   5.762   2.339   3.198
  952TIP3    H2 2800   5.708   2.249   3.308
  953TIP3   OH2 2801   1.948   0.538   2.748
  953TIP3    H1 2802   1.977   0.601   2.683
  953TIP3    H2 2803   1.960   0.453   2.706
  954TIP3   OH2 2804   3.065   2.512   5.630
  954TIP3    H1 2805   3.155   2.499   5.660
  954TIP3    H2 2806   3.061   2.605   5.606
  955TIP3   OH2 2807   4.912   1.443   1.269
  955TIP3    H1 2808   4.985   1.494   1.304
  955TIP3    H2 2809   4.866   1.409   1.345
  956TIP3   OH2 2810   2.109   3.009   2.623
  956TIP3    H1 2811   2.156   2.950   2.682
  956TIP3    H2 2812   2.155   3.002   2.539
  957TIP3   OH2 2813   8.057   5.520   5.081
  957TIP3    H1 2814   8.054   5.491   5.172
  957TIP3    H2 2815   8.012   5.605   5.082
  958TIP3   OH2 2816   6.152   2.417   1.932
  958TIP3    H1 2817   6.093   2.468   1.987
  958TIP3    H2 2818   6.094   2.359   1.881
  959TIP3   OH2 2819   4.468   7.221   2.868
  959TIP3    H1 2820   4.489   7.219   2.774
  959TIP3    H2 2821   4.460   7.129   2.892
  960TIP3   OH2 2822   7.717   1.152   6.720
  960TIP3    H1 2823   7.806   1.134   6.688
  960TIP3    H2 2824   7.725   1.235   6.767
  961TIP3   OH2 2825   1.183   6.049   1.680
  961TIP3    H1 2826   1.126   6.083   1.610
  961TIP3    H2 2827   1.123   6.010   1.743
  962TIP3   OH2 2828   2.540   5.076   0.786
  962TIP3    H1 2829   2.555   5.163   0.750
  962TIP3    H2 2830   2.456   5.082   0.831
  963TIP3   OH2 2831   3.407  -0.053   4.631
  963TIP3    H1 2832   3.482  -0.003   4.598
  963TIP3    H2 2833   3.383  -0.111   4.559
  964TIP3   OH2 2834   3.811   7.577   4.354
  964TIP3    H1 2835   3.729   7.551   4.313
  964TIP3    H2 2836   3.790   7.581   4.448
  965TIP3   OH2 2837   4.996   6.382   0.095
  965TIP3    H1 2838   5.078   6.381   0.144
  965TIP3    H2 2839   4.934   6.425   0.153
  966TIP3   OH2 2840   6.695   1.147   3.423
  966TIP3    H1 2841   6.665   1.106   3.342
  966TIP3    H2 2842   6.620   1.198   3.453
  967TIP3   OH2 2843   2.657   6.536   4.700
  967TIP3    H1 2844   2.590   6.485   4.654
  967TIP3    H2 2845   2.618   6.623   4.709
  968TIP3   OH2 2846   5.401   4.392   6.079
  968TIP3    H1 2847   5.434   4.462   6.022
  968TIP3    H2 2848   5.472   4.378   6.143
  969TIP3   OH2 2849   1.887   6.610   4.725
  969TIP3    H1 2850   1.920   6.676   4.787
  969TIP3    H2 2851   1.831   6.554   4.777
  970TIP3   OH2 2852   7.728   4.663   3.642
  970TIP3    H1 2853   7.688   4.594   3.696
  970TIP3    H2 2854   7.704   4.640   3.552
  971TIP3   OH2 2855   3.154   0.678   5.229
  971TIP3    H1 2856   3.191   0.749   5.282
  971TIP3    H2 2857   3.067   0.710   5.203
  972TIP3   OH2 2858   3.675   2.252   4.257
  972TIP3    H1 2859   3.675   2.260   4.162
  972TIP3    H2 2860   3.596   2.299   4.285
  973TIP3   OH2 2861   0.499   5.102   1.227
  973TIP3    H1 2862   0.464   5.061   1.307
  973TIP3    H2 2863   0.422   5.137   1.182
  974TIP3   OH2 2864   1.060   5.150   0.710
  974TIP3    H1 2865   1.101   5.108   0.786
  974TIP3    H2 2866   1.133   5.188   0.661
  975TIP3   OH2 2867   4.222   6.674   6.574
  975TIP3    H1 2868   4.132   6.689   6.604
  975TIP3    H2 2869   4.213   6.603   6.510
  976TIP3   OH2 2870   3.018   2.038   6.318
  976TIP3    H1 2871   2.981   1.950   6.324
  976TIP3    H2 2872   3.111   2.024   6.299
  977TIP3   OH2 2873   5.973   2.608   0.814
  977TIP3    H1 2874   5.901   2.672   0.809
  977TIP3    H2 2875   6.033   2.644   0.878
  978TIP3   OH2 2876   4.655   1.213   2.684
  978TIP3    H1 2877   4.649   1.123   2.716
  978TIP3    H2 2878   4.657   1.267   2.764
  979TIP3   OH2 2879   2.417   6.786   5.222
  979TIP3    H1 2880   2.427   6.718   5.156
  979TIP3    H2 2881   2.478   6.761   5.291
  980TIP3   OH2 2882   7.820   7.197   2.716
  980TIP3    H1 2883   7.896   7.221   2.768
  980TIP3    H2 2884   7.811   7.268   2.652
  981TIP3   OH2 2885   4.707   5.610   5.712
  981TIP3    H1 2886   4.673   5.667   5.643
  981TIP3    H2 2887   4.638   5.546   5.727
  982TIP3   OH2 2888   4.282   4.747   1.818
  982TIP3    H1 2889   4.244   4.827   1.853
  982TIP3    H2 2890   4.330   4.775   1.740
  983TIP3   OH2 2891   6.606   4.374   0.991
  983TIP3    H1 2892   6.575   4.414   0.909
  983TIP3    H2 2893   6.538   4.311   1.013
  984TIP3   OH2 2894   3.611   5.472   0.516
  984TIP3    H1 2895   3.598   5.479   0.421
  984TIP3    H2 2896   3.603   5.379   0.535
  985TIP3   OH2 2897   6.484   3.728   6.232
  985TIP3    H1 2898   6.392   3.711   6.210
  985TIP3    H2 2899   6.525   3.753   6.150
  986TIP3   OH2 2900   5.828   3.835   0.508
  986TIP3    H1 2901   5.817   3.931   0.507
  986TIP3    H2 2902   5.745   3.802   0.473
  987TIP3   OH2 2903   1.401   0.160   1.113
  987TIP3    H1 2904   1.427   0.106   1.038
  987TIP3    H2 2905   1.324   0.117   1.149
  988TIP3   OH2 2906   5.357   0.212   0.702
  988TIP3    H1 2907   5.351   0.250   0.790
  988TIP3    H2 2908   5.429   0.149   0.708
  989TIP3   OH2 2909   2.810   4.397   3.029
  989TIP3    H1 2910   2.836   4.333   3.095
  989TIP3    H2 2911   2.791   4.476   3.079
  990TIP3   OH2 2912   0.090   3.205   3.938
  990TIP3    H1 2913   0.097   3.280   3.878
  990TIP3    H2 2914   0.167   3.152   3.918
  991TIP3   OH2 2915   5.405   7.640   6.529
  991TIP3    H1 2916   5.363   7.683   6.603
  991TIP3    H2 2917   5.357   7.671   6.452
  992TIP3   OH2 2918   1.343   0.521   5.169
  992TIP3    H1 2919   1.335   0.553   5.079
  992TIP3    H2 2920   1.438   0.512   5.182
  993TIP3   OH2 2921   6.478   5.472   5.100
  993TIP3    H1 2922   6.402   5.446   5.047
  993TIP3    H2 2923   6.528   5.391   5.112
  994TIP3   OH2 2924   7.360   1.299   2.817
  994TIP3    H1 2925   7.297   1.286   2.888
  994TIP3    H2 2926   7.440   1.328   2.861
  995TIP3   OH2 2927   6.884   0.459   4.201
  995TIP3    H1 2928   6.879   0.366   4.176
  995TIP3    H2 2929   6.962   0.492   4.157
  996TIP3   OH2 2930   7.448   5.183   6.544
  996TIP3    H1 2931   7.538   5.182   6.577
  996TIP3    H2 2932   7.410   5.100   6.574
  997TIP3   OH2 2933   3.430   4.062  -0.042
  997TIP3    H1 2934   3.495   4.017   0.012
  997TIP3    H2 2935   3.479   4.093  -0.118
  998TIP3   OH2 2936   7.392   3.474   3.643
  998TIP3    H1 2937   7.325   3.520   3.591
  998TIP3    H2 2938   7.379   3.506   3.732
  999TIP3   OH2 2939   3.886   7.008   2.479
  999TIP3    H1 2940   3.852   7.001   2.568
  999TIP3    H2 2941   3.976   6.975   2.485
 1000TIP3   OH2 2942   7.015   0.136   2.242
 1000TIP3    H1 2943   7.002   0.115   2.149
 1000TIP3    H2 2944   7.106   0.115   2.259
 1001TIP3   OH2 2945   7.614   1.411   2.507
 1001TIP3    H1 2946   7.519   1.402   2.515
 1001TIP3    H2 2947   7.627   1.500   2.475
 1002TIP3   OH2 2948   7.763   5.752   0.548
 1002TIP3    H1 2949   7.805   5.767   0.463
 1002TIP3    H2 2950   7.777   5.833   0.597
 1003TIP3   OH2 2951   3.775   3.358   0.607
 1003TIP3    H1 2952   3.775   3.451   0.587
 1003TIP3    H2 2953   3.864   3.329   0.585
 1004TIP3   OH2 2954   6.298   6.353   4.724
 1004TIP3    H1 2955   6.360   6.282   4.735
 1004TIP3    H2 2956   6.326   6.397   4.643
 1005TIP3   OH2 2957   1.365   3.403   3.875
 1005TIP3    H1 2958   1.444   3.422   3.925
 1005TIP3    H2 2959   1.337   3.488   3.841
 1006TIP3   OH2 2960   2.595   1.316   3.804
 1006TIP3    H1 2961   2.624   1.310   3.895
 1006TIP3    H2 2962   2.676   1.312   3.753
 1007TIP3   OH2 2963   3.571   4.647   2.564
 1007TIP3    H1 2964   3.631   4.624   2.493
 1007TIP3    H2 2965   3.512   4.712   2.524
 1008TIP3   OH2 2966   0.133   5.600   1.743
 1008TIP3    H1 2967   0.076   5.597   1.819
 1008TIP3    H2 2968   0.197   5.669   1.763
 1009TIP3   OH2 2969   3.541   2.571   4.668
 1009TIP3    H1 2970   3.542   2.612   4.755
 1009TIP3    H2 2971   3.577   2.484   4.683
 1010TIP3   OH2 2972   6.147   5.318   0.980
 1010TIP3    H1 2973   6.203   5.287   1.051
 1010TIP3    H2 2974   6.197   5.298   0.900
 1011TIP3   OH2 2975   4.715   0.190   6.364
 1011TIP3    H1 2976   4.652   0.156   6.427
 1011TIP3    H2 2977   4.691   0.283   6.354
 1012TIP3   OH2 2978   7.213   3.391   6.229
 1012TIP3    H1 2979   7.147   3.365   6.293
 1012TIP3    H2 2980   7.293   3.346   6.255
 1013TIP3   OH2 2981   5.148   1.477   3.776
 1013TIP3    H1 2982   5.102   1.493   3.694
 1013TIP3    H2 2983   5.109   1.539   3.838
 1014TIP3   OH2 2984   1.909   5.409   5.279
 1014TIP3    H1 2985   1.873   5.395   5.191
 1014TIP3    H2 2986   1.891   5.327   5.325
 1015TIP3   OH2 2987   5.749   5.942   1.383
 1015TIP3    H1 2988   5.816   5.922   1.319
 1015TIP3    H2 2989   5.769   6.031   1.413
 1016TIP3   OH2 2990   4.529   0.399   6.084
 1016TIP3    H1 2991   4.539   0.414   6.178
 1016TIP3    H2 2992   4.596   0.333   6.063
 1017TIP3   OH2 2993   4.835   0.841   6.418
 1017TIP3    H1 2994   4.850   0.929   6.383
 1017TIP3    H2 2995   4.894   0.785   6.368
 1018TIP3   OH2 2996   0.183   0.422   2.495
 1018TIP3    H1 2997   0.249   0.470   2.445
 1018TIP3    H2 2998   0.213   0.331   2.494
 1019TIP3   OH2 2999   0.322   1.531   2.141
 1019TIP3    H1 3000   0.378   1.598   2.101
 1019TIP3    H2 3001   0.255   1.581   2.187
 1020TIP3   OH2 3002   0.922   6.494   1.865
 1020TIP3    H1 3003   0.912   6.589   1.877
 1020TIP3    H2 3004   0.918   6.481   1.771
 1021TIP3   OH2 3005   2.468   7.462   0.329
 1021TIP3    H1 3006   2.530   7.456   0.257
 1021TIP3    H2 3007   2.435   7.373   0.339
 1022TIP3   OH2 3008   7.474   7.180   0.513
 1022TIP3    H1 3009   7.539   7.178   0.584
 1022TIP3    H2 3010   7.390   7.181   0.558
 1023TIP3   OH2 3011   0.521   7.286   3.464
 1023TIP3    H1 3012   0.611   7.256   3.461
 1023TIP3    H2 3013   0.524   7.366   3.518
 1024TIP3   OH2 3014   7.332   2.680   5.008
 1024TIP3    H1 3015   7.326   2.586   5.023
 1024TIP3    H2 3016   7.245   2.713   5.031
 1025TIP3   OH2 3017   1.463   1.316   3.089
 1025TIP3    H1 3018   1.486   1.223   3.086
 1025TIP3    H2 3019   1.520   1.353   3.156
 1026TIP3   OH2 3020   6.195   2.604   4.337
 1026TIP3    H1 3021   6.171   2.512   4.334
 1026TIP3    H2 3022   6.155   2.642   4.259
 1027TIP3   OH2 3023   4.809   5.718   0.731
 1027TIP3    H1 3024   4.769   5.632   0.721
 1027TIP3    H2 3025   4.737   5.775   0.758
 1028TIP3   OH2 3026   6.026   3.556   3.474
 1028TIP3    H1 3027   6.040   3.541   3.381
 1028TIP3    H2 3028   6.071   3.484   3.517
 1029TIP3   OH2 3029   1.077   3.239   0.434
 1029TIP3    H1 3030   0.996   3.273   0.472
 1029TIP3    H2 3031   1.059   3.231   0.340
 1030TIP3   OH2 3032   0.469   2.147   4.683
 1030TIP3    H1 3033   0.479   2.235   4.646
 1030TIP3    H2 3034   0.412   2.159   4.759
 1031TIP3   OH2 3035   1.046   0.679   3.862
 1031TIP3    H1 3036   1.122   0.632   3.895
 1031TIP3    H2 3037   1.082   0.752   3.812
 1032TIP3   OH2 3038   0.701   2.150   4.105
 1032TIP3    H1 3039   0.774   2.126   4.163
 1032TIP3    H2 3040   0.743   2.189   4.028
 1033TIP3   OH2 3041   6.803   1.953   5.224
 1033TIP3    H1 3042   6.810   1.987   5.314
 1033TIP3    H2 3043   6.831   1.862   5.230
 1034TIP3   OH2 3044   0.623   1.829   4.129
 1034TIP3    H1 3045   0.682   1.756   4.113
 1034TIP3    H2 3046   0.536   1.790   4.129
 1035TIP3   OH2 3047   0.698   1.581   6.444
 1035TIP3    H1 3048   0.763   1.511   6.452
 1035TIP3    H2 3049   0.625   1.553   6.500
 1036TIP3   OH2 3050   3.335   5.787   4.915
 1036TIP3    H1 3051   3.383   5.744   4.986
 1036TIP3    H2 3052   3.291   5.715   4.869
 1037TIP3   OH2 3053   5.766   3.083   5.846
 1037TIP3    H1 3054   5.789   3.002   5.800
 1037TIP3    H2 3055   5.727   3.138   5.779
 1038TIP3   OH2 3056   2.164   1.621   1.666
 1038TIP3    H1 3057   2.175   1.669   1.748
 1038TIP3    H2 3058   2.196   1.533   1.685
 1039TIP3   OH2 3059   6.517   7.311   2.820
 1039TIP3    H1 3060   6.428   7.275   2.818
 1039TIP3    H2 3061   6.572   7.242   2.783
 1040TIP3   OH2 3062   6.937   2.214   5.458
 1040TIP3    H1 3063   6.894   2.253   5.382
 1040TIP3    H2 3064   6.936   2.283   5.524
 1041TIP3   OH2 3065   4.571   1.036   1.640
 1041TIP3    H1 3066   4.479   1.045   1.616
 1041TIP3    H2 3067   4.591   1.116   1.688
 1042TIP3   OH2 3068   7.080   6.452   6.593
 1042TIP3    H1 3069   7.078   6.359   6.618
 1042TIP3    H2 3070   6.992   6.484   6.611
 1043TIP3   OH2 3071   5.436   4.511   6.609
 1043TIP3    H1 3072   5.483   4.459   6.674
 1043TIP3    H2 3073   5.367   4.453   6.576
 1044TIP3   OH2 3074   5.906   6.451   2.563
 1044TIP3    H1 3075   5.843   6.393   2.605
 1044TIP3    H2 3076   5.855   6.501   2.500
 1045TIP3   OH2 3077   4.207   4.388   0.327
 1045TIP3    H1 3078   4.218   4.474   0.368
 1045TIP3    H2 3079   4.147   4.404   0.254
 1046TIP3   OH2 3080   5.907   3.468   2.079
 1046TIP3    H1 3081   5.920   3.509   2.164
 1046TIP3    H2 3082   5.995   3.450   2.047
 1047TIP3   OH2 3083   5.127   3.445   0.450
 1047TIP3    H1 3084   5.215   3.416   0.475
 1047TIP3    H2 3085   5.078   3.364   0.436
 1048TIP3   OH2 3086   0.650   0.374   1.241
 1048TIP3    H1 3087   0.603   0.306   1.194
 1048TIP3    H2 3088   0.593   0.398   1.314
 1049TIP3   OH2 3089   4.923   0.709   4.439
 1049TIP3    H1 3090   4.899   0.652   4.513
 1049TIP3    H2 3091   4.846   0.764   4.425
 1050TIP3   OH2 3092   7.178   2.906   4.178
 1050TIP3    H1 3093   7.235   2.981   4.195
 1050TIP3    H2 3094   7.225   2.856   4.111
 1051TIP3   OH2 3095   3.588   1.952   4.359
 1051TIP3    H1 3096   3.531   2.029   4.354
 1051TIP3    H2 3097   3.539   1.890   4.413
 1052TIP3   OH2 3098   7.345   6.874   5.084
 1052TIP3    H1 3099   7.340   6.830   5.000
 1052TIP3    H2 3100   7.432   6.913   5.087
 1053TIP3   OH2 3101   8.308   2.744   1.408
 1053TIP3    H1 3102   8.372   2.813   1.424
 1053TIP3    H2 3103   8.286   2.754   1.315
 1054TIP3   OH2 3104   4.857   5.968   1.157
 1054TIP3    H1 3105   4.834   5.987   1.067
 1054TIP3    H2 3106   4.834   6.046   1.206
 1055TIP3   OH2 3107   7.180   0.621   6.142
 1055TIP3    H1 3108   7.132   0.547   6.105
 1055TIP3    H2 3109   7.178   0.607   6.236
 1056TIP3   OH2 3110   7.600   4.984   5.017
 1056TIP3    H1 3111   7.615   5.077   5.002
 1056TIP3    H2 3112   7.643   4.940   4.944
 1057TIP3   OH2 3113   1.441   7.232   2.232
 1057TIP3    H1 3114   1.506   7.244   2.302
 1057TIP3    H2 3115   1.437   7.138   2.218
 1058TIP3   OH2 3116   8.023   1.755   1.591
 1058TIP3    H1 3117   8.048   1.753   1.498
 1058TIP3    H2 3118   8.056   1.673   1.626
 1059TIP3   OH2 3119   4.818   3.574   5.572
 1059TIP3    H1 3120   4.835   3.601   5.662
 1059TIP3    H2 3121   4.764   3.495   5.581
 1060TIP3   OH2 3122   8.073   5.191   3.119
 1060TIP3    H1 3123   8.020   5.168   3.043
 1060TIP3    H2 3124   8.009   5.207   3.189
 1061TIP3   OH2 3125   6.488   7.483   0.203
 1061TIP3    H1 3126   6.459   7.430   0.128
 1061TIP3    H2 3127   6.579   7.459   0.216
 1062TIP3   OH2 3128   3.854   6.852   5.586
 1062TIP3    H1 3129   3.857   6.773   5.532
 1062TIP3    H2 3130   3.872   6.924   5.525
 1063TIP3   OH2 3131   5.941   5.475   2.505
 1063TIP3    H1 3132   5.881   5.484   2.431
 1063TIP3    H2 3133   5.943   5.381   2.524
 1064TIP3   OH2 3134   0.591   3.259   2.995
 1064TIP3    H1 3135   0.626   3.261   2.907
 1064TIP3    H2 3136   0.665   3.280   3.052
 1065TIP3   OH2 3137   2.182   0.370   0.298
 1065TIP3    H1 3138   2.224   0.402   0.378
 1065TIP3    H2 3139   2.143   0.448   0.258
 1066TIP3   OH2 3140   1.480   2.694   0.232
 1066TIP3    H1 3141   1.476   2.757   0.160
 1066TIP3    H2 3142   1.409   2.632   0.215
 1067TIP3   OH2 3143   7.066   4.836   5.472
 1067TIP3    H1 3144   7.013   4.846   5.393
 1067TIP3    H2 3145   7.119   4.758   5.456
 1068TIP3   OH2 3146   6.323   0.321   0.819
 1068TIP3    H1 3147   6.287   0.409   0.812
 1068TIP3    H2 3148   6.246   0.265   0.832
 1069TIP3   OH2 3149   4.192   5.652   4.549
 1069TIP3    H1 3150   4.120   5.711   4.573
 1069TIP3    H2 3151   4.226   5.687   4.467
 1070TIP3   OH2 3152   0.370   0.144   5.754
 1070TIP3    H1 3153   0.465   0.147   5.740
 1070TIP3    H2 3154   0.345   0.234   5.771
 1071TIP3   OH2 3155   0.774   4.171   4.626
 1071TIP3    H1 3156   0.739   4.193   4.540
 1071TIP3    H2 3157   0.813   4.084   4.615
 1072TIP3   OH2 3158   5.159   2.847   1.804
 1072TIP3    H1 3159   5.067   2.850   1.830
 1072TIP3    H2 3160   5.206   2.887   1.878
 1073TIP3   OH2 3161   7.416   4.440   4.125
 1073TIP3    H1 3162   7.452   4.384   4.057
 1073TIP3    H2 3163   7.489   4.457   4.184
 1074TIP3   OH2 3164   7.574   2.575   6.061
 1074TIP3    H1 3165   7.521   2.634   6.116
 1074TIP3    H2 3166   7.603   2.630   5.989
 1075TIP3   OH2 3167   1.009   7.327   3.429
 1075TIP3    H1 3168   1.042   7.362   3.347
 1075TIP3    H2 3169   1.024   7.397   3.493
 1076TIP3   OH2 3170   7.785   6.569   1.663
 1076TIP3    H1 3171   7.737   6.593   1.742
 1076TIP3    H2 3172   7.836   6.647   1.641
 1077TIP3   OH2 3173   5.406   4.661   3.947
 1077TIP3    H1 3174   5.389   4.570   3.925
 1077TIP3    H2 3175   5.338   4.684   4.011
 1078TIP3   OH2 3176   2.279   3.018   1.060
 1078TIP3    H1 3177   2.216   3.029   0.989
 1078TIP3    H2 3178   2.345   2.958   1.024
 1079TIP3   OH2 3179   1.926   7.825   1.727
 1079TIP3    H1 3180   1.981   7.790   1.797
 1079TIP3    H2 3181   1.858   7.759   1.714
 1080TIP3   OH2 3182   2.227   2.717   0.002
 1080TIP3    H1 3183   2.220   2.748   0.092
 1080TIP3    H2 3184   2.258   2.792  -0.047
 1081TIP3   OH2 3185   6.207   4.902   1.972
 1081TIP3    H1 3186   6.209   4.977   2.032
 1081TIP3    H2 3187   6.257   4.931   1.896
 1082TIP3   OH2 3188   7.684   7.802   5.571
 1082TIP3    H1 3189   7.743   7.761   5.633
 1082TIP3    H2 3190   7.719   7.780   5.485
 1083TIP3   OH2 3191   4.536   2.616   5.138
 1083TIP3    H1 3192   4.516   2.546   5.075
 1083TIP3    H2 3193   4.544   2.695   5.085
 1084TIP3   OH2 3194   4.672   1.913   3.719
 1084TIP3    H1 3195   4.581   1.886   3.731
 1084TIP3    H2 3196   4.724   1.844   3.761
 1085TIP3   OH2 3197   4.640   5.519   3.137
 1085TIP3    H1 3198   4.631   5.533   3.232
 1085TIP3    H2 3199   4.607   5.431   3.123
 1086TIP3   OH2 3200   7.334   4.815   4.251
 1086TIP3    H1 3201   7.358   4.827   4.343
 1086TIP3    H2 3202   7.406   4.855   4.202
 1087TIP3   OH2 3203   4.963   4.834   1.093
 1087TIP3    H1 3204   5.038   4.830   1.151
 1087TIP3    H2 3205   5.000   4.825   1.005
 1088TIP3   OH2 3206   0.218   5.320   6.022
 1088TIP3    H1 3207   0.282   5.265   5.978
 1088TIP3    H2 3208   0.212   5.284   6.111
 1089TIP3   OH2 3209   4.032   4.716   3.653
 1089TIP3    H1 3210   4.082   4.733   3.733
 1089TIP3    H2 3211   3.968   4.649   3.678
 1090TIP3   OH2 3212   0.808   6.407   1.227
 1090TIP3    H1 3213   0.861   6.381   1.152
 1090TIP3    H2 3214   0.807   6.330   1.284
 1091TIP3   OH2 3215   5.171   2.594   1.655
 1091TIP3    H1 3216   5.168   2.517   1.711
 1091TIP3    H2 3217   5.171   2.668   1.716
 1092TIP3   OH2 3218   0.314   6.528   1.722
 1092TIP3    H1 3219   0.409   6.515   1.723
 1092TIP3    H2 3220   0.293   6.554   1.812
 1093TIP3   OH2 3221   4.712   1.084   1.157
 1093TIP3    H1 3222   4.691   1.169   1.196
 1093TIP3    H2 3223   4.795   1.098   1.113
 1094TIP3   OH2 3224   7.906   5.550   4.810
 1094TIP3    H1 3225   7.969   5.533   4.881
 1094TIP3    H2 3226   7.935   5.493   4.739
 1095TIP3   OH2 3227   6.917   5.482   2.485
 1095TIP3    H1 3228   6.917   5.577   2.470
 1095TIP3    H2 3229   6.906   5.472   2.579
 1096TIP3   OH2 3230   7.556   3.422   6.116
 1096TIP3    H1 3231   7.534   3.380   6.033
 1096TIP3    H2 3232   7.501   3.379   6.181
 1097TIP3   OH2 3233   6.471   5.626   0.031
 1097TIP3    H1 3234   6.566   5.625   0.023
 1097TIP3    H2 3235   6.439   5.584  -0.049
 1098TIP3   OH2 3236   4.328   0.829   0.229
 1098TIP3    H1 3237   4.423   0.833   0.215
 1098TIP3    H2 3238   4.311   0.898   0.294
 1099TIP3   OH2 3239   5.364   3.299   3.775
 1099TIP3    H1 3240   5.457   3.288   3.791
 1099TIP3    H2 3241   5.348   3.393   3.786
 1100TIP3   OH2 3242   7.978   0.397   3.960
 1100TIP3    H1 3243   7.961   0.303   3.968
 1100TIP3    H2 3244   8.022   0.406   3.875
 1101TIP3   OH2 3245   6.267   0.800   1.957
 1101TIP3    H1 3246   6.347   0.754   1.931
 1101TIP3    H2 3247   6.246   0.765   2.043
 1102TIP3   OH2 3248   4.565   3.585   6.779
 1102TIP3    H1 3249   4.546   3.548   6.693
 1102TIP3    H2 3250   4.488   3.638   6.800
 1103TIP3   OH2 3251   5.642   7.399   2.754
 1103TIP3    H1 3252   5.594   7.452   2.818
 1103TIP3    H2 3253   5.731   7.433   2.756
 1104TIP3   OH2 3254   1.643   6.089   5.870
 1104TIP3    H1 3255   1.587   6.155   5.911
 1104TIP3    H2 3256   1.729   6.132   5.863
 1105TIP3   OH2 3257   6.049   5.527   6.374
 1105TIP3    H1 3258   6.124   5.577   6.409
 1105TIP3    H2 3259   6.083   5.485   6.295
 1106TIP3   OH2 3260   5.531   3.977   6.530
 1106TIP3    H1 3261   5.592   3.919   6.576
 1106TIP3    H2 3262   5.544   3.957   6.438
 1107TIP3   OH2 3263   5.677   4.731   4.080
 1107TIP3    H1 3264   5.619   4.762   4.150
 1107TIP3    H2 3265   5.727   4.808   4.054
 1108TIP3   OH2 3266   5.408   6.189   3.789
 1108TIP3    H1 3267   5.458   6.123   3.740
 1108TIP3    H2 3268   5.400   6.152   3.877
 1109TIP3   OH2 3269   3.766   6.538   0.138
 1109TIP3    H1 3270   3.791   6.456   0.094
 1109TIP3    H2 3271   3.687   6.566   0.093
 1110TIP3   OH2 3272   5.468   2.970   4.035
 1110TIP3    H1 3273   5.523   3.022   3.976
 1110TIP3    H2 3274   5.379   2.996   4.014
 1111TIP3   OH2 3275   4.757   2.444   1.505
 1111TIP3    H1 3276   4.739   2.415   1.594
 1111TIP3    H2 3277   4.728   2.535   1.503
 1112TIP3   OH2 3278   6.532   0.515   4.942
 1112TIP3    H1 3279   6.567   0.577   5.006
 1112TIP3    H2 3280   6.610   0.478   4.900
 1113TIP3   OH2 3281   7.109   2.247   2.906
 1113TIP3    H1 3282   7.162   2.169   2.922
 1113TIP3    H2 3283   7.172   2.318   2.897
 1114TIP3   OH2 3284   5.249   6.415   4.835
 1114TIP3    H1 3285   5.326   6.373   4.873
 1114TIP3    H2 3286   5.204   6.344   4.788
 1115TIP3   OH2 3287   3.324   1.259   2.619
 1115TIP3    H1 3288   3.268   1.208   2.678
 1115TIP3    H2 3289   3.285   1.346   2.618
 1116TIP3   OH2 3290   0.988   5.573   0.240
 1116TIP3    H1 3291   1.007   5.639   0.307
 1116TIP3    H2 3292   0.893   5.577   0.229
 1117TIP3   OH2 3293   7.005   6.005   5.952
 1117TIP3    H1 3294   6.919   5.987   5.989
 1117TIP3    H2 3295   7.055   6.042   6.024
 1118TIP3   OH2 3296   8.238   0.813   3.496
 1118TIP3    H1 3297   8.258   0.821   3.403
 1118TIP3    H2 3298   8.269   0.895   3.535
 1119TIP3   OH2 3299   2.571   0.932   5.644
 1119TIP3    H1 3300   2.620   0.944   5.726
 1119TIP3    H2 3301   2.563   1.020   5.607
 1120TIP3   OH2 3302   8.151   6.231   0.265
 1120TIP3    H1 3303   8.146   6.160   0.202
 1120TIP3    H2 3304   8.066   6.230   0.309
 1121TIP3   OH2 3305   4.189   4.488   4.478
 1121TIP3    H1 3306   4.225   4.462   4.394
 1121TIP3    H2 3307   4.111   4.539   4.456
 1122TIP3   OH2 3308   0.345   5.104   6.209
 1122TIP3    H1 3309   0.408   5.049   6.164
 1122TIP3    H2 3310   0.397   5.176   6.246
 1123TIP3   OH2 3311   8.086   1.961   0.097
 1123TIP3    H1 3312   8.119   1.877   0.128
 1123TIP3    H2 3313   8.164   2.012   0.076
 1124TIP3   OH2 3314   6.716   5.797   3.368
 1124TIP3    H1 3315   6.674   5.714   3.393
 1124TIP3    H2 3316   6.806   5.789   3.399
 1125TIP3   OH2 3317   3.950   2.483   3.031
 1125TIP3    H1 3318   3.953   2.443   3.118
 1125TIP3    H2 3319   3.981   2.415   2.972
 1126TIP3   OH2 3320   3.992   2.648   5.399
 1126TIP3    H1 3321   3.954   2.619   5.316
 1126TIP3    H2 3322   3.921   2.692   5.445
 1127TIP3   OH2 3323   2.514   4.050   4.312
 1127TIP3    H1 3324   2.584   4.115   4.305
 1127TIP3    H2 3325   2.543   3.992   4.382
 1128TIP3   OH2 3326   0.958   1.740   4.236
 1128TIP3    H1 3327   0.985   1.815   4.183
 1128TIP3    H2 3328   1.017   1.740   4.311
 1129TIP3   OH2 3329   5.873   1.149   5.414
 1129TIP3    H1 3330   5.890   1.183   5.326
 1129TIP3    H2 3331   5.891   1.223   5.472
 1130TIP3   OH2 3332   3.433   5.017   2.394
 1130TIP3    H1 3333   3.520   4.981   2.409
 1130TIP3    H2 3334   3.403   4.977   2.313
 1131TIP3   OH2 3335   1.935   5.884   6.491
 1131TIP3    H1 3336   1.872   5.915   6.557
 1131TIP3    H2 3337   1.973   5.805   6.530
 1132TIP3   OH2 3338   2.612   2.916   2.071
 1132TIP3    H1 3339   2.674   2.944   2.004
 1132TIP3    H2 3340   2.568   2.997   2.099
 1133TIP3   OH2 3341   1.922   6.779   4.938
 1133TIP3    H1 3342   1.970   6.793   5.020
 1133TIP3    H2 3343   1.842   6.832   4.948
 1134TIP3   OH2 3344   0.588   1.372   5.629
 1134TIP3    H1 3345   0.599   1.460   5.595
 1134TIP3    H2 3346   0.555   1.321   5.555
 1135TIP3   OH2 3347   4.683   3.596   0.433
 1135TIP3    H1 3348   4.631   3.670   0.400
 1135TIP3    H2 3349   4.753   3.586   0.368
 1136TIP3   OH2 3350   0.959   4.186   2.451
 1136TIP3    H1 3351   1.050   4.157   2.457
 1136TIP3    H2 3352   0.963   4.265   2.396
 1137TIP3   OH2 3353   5.907   2.861   1.978
 1137TIP3    H1 3354   5.814   2.864   2.001
 1137TIP3    H2 3355   5.909   2.825   1.890
 1138TIP3   OH2 3356   7.684   2.815   2.474
 1138TIP3    H1 3357   7.699   2.889   2.533
 1138TIP3    H2 3358   7.641   2.853   2.397
 1139TIP3   OH2 3359   5.116   3.894   5.532
 1139TIP3    H1 3360   5.124   3.863   5.623
 1139TIP3    H2 3361   5.150   3.822   5.479
 1140TIP3   OH2 3362   8.257   2.514   0.627
 1140TIP3    H1 3363   8.319   2.444   0.648
 1140TIP3    H2 3364   8.230   2.495   0.538
 1141TIP3   OH2 3365   2.026   2.151   4.564
 1141TIP3    H1 3366   2.008   2.225   4.622
 1141TIP3    H2 3367   2.120   2.135   4.571
 1142TIP3   OH2 3368   5.398   5.455   6.532
 1142TIP3    H1 3369   5.483   5.484   6.497
 1142TIP3    H2 3370   5.351   5.422   6.455
 1143TIP3   OH2 3371   7.802   0.165   2.995
 1143TIP3    H1 3372   7.708   0.154   2.980
 1143TIP3    H2 3373   7.844   0.111   2.927
 1144TIP3   OH2 3374   6.738   1.440   3.733
 1144TIP3    H1 3375   6.644   1.433   3.717
 1144TIP3    H2 3376   6.757   1.369   3.795
 1145TIP3   OH2 3377   6.380   3.825   3.495
 1145TIP3    H1 3378   6.361   3.776   3.415
 1145TIP3    H2 3379   6.468   3.797   3.519
 1146TIP3   OH2 3380   0.356   1.221   6.260
 1146TIP3    H1 3381   0.294   1.287   6.290
 1146TIP3    H2 3382   0.438   1.268   6.249
 1147TIP3   OH2 3383   7.647   2.951   1.841
 1147TIP3    H1 3384   7.682   3.006   1.771
 1147TIP3    H2 3385   7.590   2.888   1.797
 1148TIP3   OH2 3386   2.926   5.882   3.487
 1148TIP3    H1 3387   2.846   5.899   3.438
 1148TIP3    H2 3388   2.907   5.802   3.536
 1149TIP3   OH2 3389   0.542   4.678   3.558
 1149TIP3    H1 3390   0.555   4.721   3.473
 1149TIP3    H2 3391   0.464   4.624   3.545
 1150TIP3   OH2 3392   3.944   6.381   0.931
 1150TIP3    H1 3393   3.963   6.473   0.950
 1150TIP3    H2 3394   3.896   6.350   1.008
 1151TIP3   OH2 3395   1.425   4.105   6.481
 1151TIP3    H1 3396   1.473   4.043   6.427
 1151TIP3    H2 3397   1.445   4.191   6.444
 1152TIP3   OH2 3398   8.225   2.967   0.892
 1152TIP3    H1 3399   8.311   2.991   0.856
 1152TIP3    H2 3400   8.182   3.051   0.907
 1153TIP3   OH2 3401   4.131   0.104   5.306
 1153TIP3    H1 3402   4.104   0.168   5.240
 1153TIP3    H2 3403   4.226   0.102   5.300
 1154TIP3   OH2 3404   1.545   0.993   3.906
 1154TIP3    H1 3405   1.624   0.952   3.871
 1154TIP3    H2 3406   1.556   0.987   4.001
 1155TIP3   OH2 3407   6.117   4.383   2.184
 1155TIP3    H1 3408   6.146   4.472   2.166
 1155TIP3    H2 3409   6.142   4.367   2.275
 1156TIP3   OH2 3410   3.662   1.500   5.224
 1156TIP3    H1 3411   3.713   1.535   5.151
 1156TIP3    H2 3412   3.592   1.564   5.237
 1157TIP3   OH2 3413   6.477   6.101   4.751
 1157TIP3    H1 3414   6.564   6.073   4.723
 1157TIP3    H2 3415   6.469   6.070   4.841
 1158TIP3   OH2 3416   4.199   2.022  -0.006
 1158TIP3    H1 3417   4.227   1.954   0.054
 1158TIP3    H2 3418   4.114   2.050   0.027
 1159TIP3   OH2 3419   6.316   3.635   0.484
 1159TIP3    H1 3420   6.350   3.592   0.563
 1159TIP3    H2 3421   6.224   3.654   0.505
 1160TIP3   OH2 3422   6.876   0.106   2.008
 1160TIP3    H1 3423   6.893   0.094   1.915
 1160TIP3    H2 3424   6.796   0.158   2.012
 1161TIP3   OH2 3425   0.601   1.212   4.223
 1161TIP3    H1 3426   0.691   1.188   4.244
 1161TIP3    H2 3427   0.549   1.136   4.251
 1162TIP3   OH2 3428   1.263   0.974   3.971
 1162TIP3    H1 3429   1.352   0.957   4.001
 1162TIP3    H2 3430   1.208   0.925   4.032
 1163TIP3   OH2 3431   4.441   1.765   3.421
 1163TIP3    H1 3432   4.391   1.701   3.371
 1163TIP3    H2 3433   4.443   1.843   3.365
 1164TIP3   OH2 3434   0.693   3.860   6.036
 1164TIP3    H1 3435   0.739   3.939   6.006
 1164TIP3    H2 3436   0.707   3.797   5.965
 1165TIP3   OH2 3437   0.368   7.846   4.040
 1165TIP3    H1 3438   0.296   7.859   3.977
 1165TIP3    H2 3439   0.407   7.762   4.015
 1166TIP3   OH2 3440   6.003   5.181   1.479
 1166TIP3    H1 3441   6.060   5.108   1.454
 1166TIP3    H2 3442   6.059   5.259   1.471
 1167TIP3   OH2 3443   5.184   0.340   5.993
 1167TIP3    H1 3444   5.195   0.288   6.073
 1167TIP3    H2 3445   5.272   0.370   5.971
 1168TIP3   OH2 3446   7.423   7.108   0.096
 1168TIP3    H1 3447   7.429   7.124   0.002
 1168TIP3    H2 3448   7.495   7.049   0.115
 1169TIP3   OH2 3449   7.799   3.878   0.784
 1169TIP3    H1 3450   7.753   3.961   0.776
 1169TIP3    H2 3451   7.730   3.812   0.782
 1170TIP3   OH2 3452   2.170   5.118   0.496
 1170TIP3    H1 3453   2.208   5.032   0.474
 1170TIP3    H2 3454   2.091   5.122   0.443
 1171TIP3   OH2 3455   7.232   2.312   3.343
 1171TIP3    H1 3456   7.161   2.320   3.279
 1171TIP3    H2 3457   7.269   2.226   3.327
 1172TIP3   OH2 3458   5.876   4.443   1.604
 1172TIP3    H1 3459   5.864   4.512   1.539
 1172TIP3    H2 3460   5.791   4.435   1.647
 1173TIP3   OH2 3461   6.761   5.030   0.806
 1173TIP3    H1 3462   6.837   5.001   0.756
 1173TIP3    H2 3463   6.686   4.989   0.761
 1174TIP3   OH2 3464   8.078   1.505   2.494
 1174TIP3    H1 3465   8.043   1.593   2.487
 1174TIP3    H2 3466   8.031   1.455   2.428
 1175TIP3   OH2 3467   6.800   4.084   4.166
 1175TIP3    H1 3468   6.777   4.113   4.077
 1175TIP3    H2 3469   6.729   4.025   4.191
 1176TIP3   OH2 3470   3.212   3.365   6.648
 1176TIP3    H1 3471   3.195   3.457   6.669
 1176TIP3    H2 3472   3.290   3.367   6.594
 1177TIP3   OH2 3473   5.593   7.233   3.846
 1177TIP3    H1 3474   5.528   7.264   3.782
 1177TIP3    H2 3475   5.581   7.138   3.849
 1178TIP3   OH2 3476   2.850   0.682   3.727
 1178TIP3    H1 3477   2.862   0.635   3.644
 1178TIP3    H2 3478   2.860   0.774   3.704
 1179TIP3   OH2 3479   7.462   4.172   4.859
 1179TIP3    H1 3480   7.436   4.094   4.908
 1179TIP3    H2 3481   7.549   4.151   4.825
 1180TIP3   OH2 3482   2.592   7.244   0.011
 1180TIP3    H1 3483   2.666   7.210  -0.040
 1180TIP3    H2 3484   2.627   7.255   0.099
 1181TIP3   OH2 3485   8.003   6.366   1.179
 1181TIP3    H1 3486   8.004   6.373   1.084
 1181TIP3    H2 3487   7.943   6.435   1.207
 1182TIP3   OH2 3488   0.259   5.331   3.078
 1182TIP3    H1 3489   0.249   5.237   3.085
 1182TIP3    H2 3490   0.315   5.344   3.001
 1183TIP3   OH2 3491   4.212   4.775   0.180
 1183TIP3    H1 3492   4.148   4.777   0.109
 1183TIP3    H2 3493   4.191   4.852   0.233
 1184TIP3   OH2 3494   6.473   2.496   1.013
 1184TIP3    H1 3495   6.471   2.429   1.081
 1184TIP3    H2 3496   6.469   2.579   1.062
 1185TIP3   OH2 3497   1.145   2.644   5.826
 1185TIP3    H1 3498   1.240   2.640   5.815
 1185TIP3    H2 3499   1.130   2.722   5.879
 1186TIP3   OH2 3500   3.497   4.764   6.610
 1186TIP3    H1 3501   3.406   4.791   6.609
 1186TIP3    H2 3502   3.496   4.678   6.654
 1187TIP3   OH2 3503   6.750   2.854   0.196
 1187TIP3    H1 3504   6.704   2.852   0.112
 1187TIP3    H2 3505   6.842   2.868   0.174
 1188TIP3   OH2 3506   1.829   2.983   2.063
 1188TIP3    H1 3507   1.920   3.010   2.064
 1188TIP3    H2 3508   1.821   2.922   2.137
 1189TIP3   OH2 3509   5.593   3.249   0.510
 1189TIP3    H1 3510   5.681   3.249   0.546
 1189TIP3    H2 3511   5.594   3.178   0.445
 1190TIP3   OH2 3512   0.464   2.498   0.939
 1190TIP3    H1 3513   0.520   2.494   0.861
 1190TIP3    H2 3514   0.487   2.421   0.990
 1191TIP3   OH2 3515   1.876   6.517   3.562
 1191TIP3    H1 3516   1.890   6.574   3.487
 1191TIP3    H2 3517   1.947   6.453   3.558
 1192TIP3   OH2 3518   4.343   1.652   6.126
 1192TIP3    H1 3519   4.351   1.561   6.154
 1192TIP3    H2 3520   4.433   1.683   6.120
 1193TIP3   OH2 3521   3.938   3.787   3.045
 1193TIP3    H1 3522   3.892   3.710   3.078
 1193TIP3    H2 3523   3.895   3.861   3.089
 1194TIP3   OH2 3524   7.386   4.026   5.435
 1194TIP3    H1 3525   7.346   3.941   5.416
 1194TIP3    H2 3526   7.313   4.088   5.428
 1195TIP3   OH2 3527   3.295   4.211   2.613
 1195TIP3    H1 3528   3.242   4.198   2.534
 1195TIP3    H2 3529   3.296   4.306   2.625
 1196TIP3   OH2 3530   1.062   0.051   1.759
 1196TIP3    H1 3531   1.103   0.102   1.689
 1196TIP3    H2 3532   1.061   0.111   1.834
 1197TIP3   OH2 3533   6.397   5.439   0.239
 1197TIP3    H1 3534   6.383   5.509   0.174
 1197TIP3    H2 3535   6.368   5.478   0.322
 1198TIP3   OH2 3536   6.191   1.335   1.393
 1198TIP3    H1 3537   6.155   1.424   1.385
 1198TIP3    H2 3538   6.183   1.298   1.305
 1199TIP3   OH2 3539   4.015   2.228   3.712
 1199TIP3    H1 3540   4.108   2.204   3.715
 1199TIP3    H2 3541   4.015   2.316   3.673
 1200TIP3   OH2 3542   1.711   1.506   1.116
 1200TIP3    H1 3543   1.652   1.475   1.047
 1200TIP3    H2 3544   1.741   1.426   1.159
 1201TIP3   OH2 3545   5.607   2.231   4.787
 1201TIP3    H1 3546   5.643   2.187   4.709
 1201TIP3    H2 3547   5.524   2.186   4.803
 1202TIP3   OH2 3548   3.115   5.114   4.961
 1202TIP3    H1 3549   3.151   5.202   4.954
 1202TIP3    H2 3550   3.191   5.056   4.951
 1203TIP3   OH2 3551   2.425   0.773   1.002
 1203TIP3    H1 3552   2.330   0.771   0.999
 1203TIP3    H2 3553   2.446   0.863   1.027
 1204TIP3   OH2 3554   6.231   4.911   5.855
 1204TIP3    H1 3555   6.263   4.995   5.822
 1204TIP3    H2 3556   6.305   4.873   5.901
 1205TIP3   OH2 3557   2.330   6.563   5.626
 1205TIP3    H1 3558   2.389   6.499   5.666
 1205TIP3    H2 3559   2.253   6.512   5.600
 1206TIP3   OH2 3560   4.540   1.323   4.866
 1206TIP3    H1 3561   4.531   1.248   4.924
 1206TIP3    H2 3562   4.591   1.386   4.916
 1207TIP3   OH2 3563   0.397   2.445   5.374
 1207TIP3    H1 3564   0.432   2.523   5.330
 1207TIP3    H2 3565   0.302   2.453   5.366
 1208TIP3   OH2 3566   0.298   4.991   0.963
 1208TIP3    H1 3567   0.353   4.938   1.020
 1208TIP3    H2 3568   0.310   5.081   0.994
 1209TIP3   OH2 3569   2.645   6.125   3.607
 1209TIP3    H1 3570   2.585   6.056   3.580
 1209TIP3    H2 3571   2.663   6.175   3.527
 1210TIP3   OH2 3572   4.498   5.756   4.519
 1210TIP3    H1 3573   4.416   5.776   4.474
 1210TIP3    H2 3574   4.562   5.814   4.479
 1211TIP3   OH2 3575   4.129   1.678   6.549
 1211TIP3    H1 3576   4.186   1.666   6.473
 1211TIP3    H2 3577   4.168   1.751   6.597
 1212TIP3   OH2 3578   3.262   5.772   1.248
 1212TIP3    H1 3579   3.281   5.748   1.158
 1212TIP3    H2 3580   3.181   5.726   1.269
 1213TIP3   OH2 3581   6.104   0.385   0.395
 1213TIP3    H1 3582   6.162   0.334   0.339
 1213TIP3    H2 3583   6.150   0.468   0.407
 1214TIP3   OH2 3584   0.241   7.346   3.817
 1214TIP3    H1 3585   0.223   7.440   3.820
 1214TIP3    H2 3586   0.198   7.311   3.895
 1215TIP3   OH2 3587   0.516   0.320   5.939
 1215TIP3    H1 3588   0.579   0.248   5.937
 1215TIP3    H2 3589   0.517   0.350   6.030
 1216TIP3   OH2 3590   3.343   3.789   1.310
 1216TIP3    H1 3591   3.368   3.698   1.296
 1216TIP3    H2 3592   3.385   3.837   1.239
 1217TIP3   OH2 3593   1.181   4.973   1.969
 1217TIP3    H1 3594   1.175   5.004   1.879
 1217TIP3    H2 3595   1.274   4.958   1.984
 1218TIP3   OH2 3596   5.460   2.054   3.302
 1218TIP3    H1 3597   5.501   2.066   3.217
 1218TIP3    H2 3598   5.400   1.980   3.289
 1219TIP3   OH2 3599   8.159   0.923   1.425
 1219TIP3    H1 3600   8.254   0.930   1.412
 1219TIP3    H2 3601   8.121   0.970   1.351
 1220TIP3   OH2 3602   5.778   5.728   1.837
 1220TIP3    H1 3603   5.734   5.814   1.836
 1220TIP3    H2 3604   5.765   5.694   1.749
 1221TIP3   OH2 3605   6.983   4.626   6.370
 1221TIP3    H1 3606   6.921   4.568   6.327
 1221TIP3    H2 3607   6.951   4.633   6.460
 1222TIP3   OH2 3608   0.948   7.797   5.190
 1222TIP3    H1 3609   1.007   7.809   5.265
 1222TIP3    H2 3610   0.861   7.818   5.224
 1223TIP3   OH2 3611   7.124   1.790   4.524
 1223TIP3    H1 3612   7.118   1.881   4.555
 1223TIP3    H2 3613   7.213   1.763   4.546
 1224TIP3   OH2 3614   6.378   6.810   5.120
 1224TIP3    H1 3615   6.463   6.850   5.141
 1224TIP3    H2 3616   6.388   6.718   5.144
 1225TIP3   OH2 3617   3.946   1.773   1.640
 1225TIP3    H1 3618   3.898   1.805   1.716
 1225TIP3    H2 3619   3.924   1.680   1.634
 1226TIP3   OH2 3620   3.498   6.307   4.293
 1226TIP3    H1 3621   3.553   6.373   4.334
 1226TIP3    H2 3622   3.412   6.320   4.331
 1227TIP3   OH2 3623   1.633   5.659   3.224
 1227TIP3    H1 3624   1.584   5.659   3.142
 1227TIP3    H2 3625   1.719   5.624   3.200
 1228TIP3   OH2 3626   6.564   2.264   5.335
 1228TIP3    H1 3627   6.577   2.359   5.340
 1228TIP3    H2 3628   6.486   2.254   5.280
 1229TIP3   OH2 3629   6.401   1.469   5.358
 1229TIP3    H1 3630   6.338   1.541   5.357
 1229TIP3    H2 3631   6.349   1.390   5.342
 1230TIP3   OH2 3632   3.057   1.890   6.636
 1230TIP3    H1 3633   3.047   1.980   6.668
 1230TIP3    H2 3634   2.996   1.885   6.562
 1231TIP3   OH2 3635   7.602   3.603   2.117
 1231TIP3    H1 3636   7.607   3.534   2.050
 1231TIP3    H2 3637   7.679   3.588   2.172
 1232TIP3   OH2 3638   2.986   4.506   0.516
 1232TIP3    H1 3639   2.985   4.431   0.457
 1232TIP3    H2 3640   2.918   4.565   0.482
 1233TIP3   OH2 3641   0.822   3.627   2.056
 1233TIP3    H1 3642   0.790   3.717   2.061
 1233TIP3    H2 3643   0.824   3.598   2.147
 1234TIP3   OH2 3644   3.946   5.023   0.739
 1234TIP3    H1 3645   4.023   5.055   0.785
 1234TIP3    H2 3646   3.933   5.085   0.667
 1235TIP3   OH2 3647   5.920   6.037   1.852
 1235TIP3    H1 3648   5.961   6.077   1.929
 1235TIP3    H2 3649   5.827   6.032   1.873
 1236TIP3   OH2 3650   6.422   3.425   5.999
 1236TIP3    H1 3651   6.491   3.482   5.964
 1236TIP3    H2 3652   6.449   3.406   6.088
 1237TIP3   OH2 3653   1.652   1.209   6.448
 1237TIP3    H1 3654   1.726   1.172   6.401
 1237TIP3    H2 3655   1.588   1.139   6.451
 1238TIP3   OH2 3656   2.406   5.568   0.767
 1238TIP3    H1 3657   2.316   5.594   0.786
 1238TIP3    H2 3658   2.442   5.640   0.715
 1239TIP3   OH2 3659   2.039   3.445   4.682
 1239TIP3    H1 3660   2.007   3.454   4.772
 1239TIP3    H2 3661   2.085   3.360   4.682
 1240TIP3   OH2 3662   2.826   5.301   4.528
 1240TIP3    H1 3663   2.902   5.260   4.568
 1240TIP3    H2 3664   2.852   5.392   4.516
 1241TIP3   OH2 3665   5.993   1.550   5.910
 1241TIP3    H1 3666   5.942   1.537   5.990
 1241TIP3    H2 3667   5.929   1.541   5.839
 1242TIP3   OH2 3668   7.109   7.272   0.078
 1242TIP3    H1 3669   7.045   7.260   0.007
 1242TIP3    H2 3670   7.088   7.204   0.141
 1243TIP3   OH2 3671   3.481   1.831   1.201
 1243TIP3    H1 3672   3.504   1.914   1.161
 1243TIP3    H2 3673   3.433   1.783   1.133
 1244TIP3   OH2 3674   2.860   2.184   3.073
 1244TIP3    H1 3675   2.884   2.094   3.093
 1244TIP3    H2 3676   2.813   2.179   2.990
 1245TIP3   OH2 3677   4.028   5.437   4.549
 1245TIP3    H1 3678   4.004   5.425   4.457
 1245TIP3    H2 3679   4.087   5.513   4.548
 1246TIP3   OH2 3680   3.042   5.193   3.545
 1246TIP3    H1 3681   3.022   5.248   3.620
 1246TIP3    H2 3682   3.068   5.254   3.476
 1247TIP3   OH2 3683   8.148   2.839   1.926
 1247TIP3    H1 3684   8.165   2.763   1.870
 1247TIP3    H2 3685   8.204   2.825   2.003
 1248TIP3   OH2 3686   0.057   6.081   3.471
 1248TIP3    H1 3687   0.090   6.024   3.402
 1248TIP3    H2 3688   0.132   6.097   3.528
 1249TIP3   OH2 3689   3.436   0.126   0.654
 1249TIP3    H1 3690   3.429   0.143   0.748
 1249TIP3    H2 3691   3.353   0.159   0.617
 1250TIP3   OH2 3692   5.414   7.749   4.049
 1250TIP3    H1 3693   5.421   7.707   4.135
 1250TIP3    H2 3694   5.458   7.833   4.060
 1251TIP3   OH2 3695   8.026   3.092   1.572
 1251TIP3    H1 3696   8.048   3.043   1.493
 1251TIP3    H2 3697   8.070   3.176   1.562
 1252TIP3   OH2 3698   1.445   1.936   1.556
 1252TIP3    H1 3699   1.438   1.841   1.565
 1252TIP3    H2 3700   1.357   1.963   1.527
 1253TIP3   OH2 3701   7.215   4.484   6.442
 1253TIP3    H1 3702   7.155   4.418   6.477
 1253TIP3    H2 3703   7.157   4.550   6.403
 1254TIP3   OH2 3704   7.798   4.115   2.302
 1254TIP3    H1 3705   7.818   4.068   2.221
 1254TIP3    H2 3706   7.861   4.082   2.365
 1255TIP3   OH2 3707   5.286   5.516   5.430
 1255TIP3    H1 3708   5.325   5.499   5.345
 1255TIP3    H2 3709   5.214   5.453   5.437
 1256TIP3   OH2 3710   2.612   0.216   4.645
 1256TIP3    H1 3711   2.669   0.281   4.604
 1256TIP3    H2 3712   2.647   0.206   4.734
 1257TIP3   OH2 3713   6.418   2.378   2.247
 1257TIP3    H1 3714   6.376   2.314   2.190
 1257TIP3    H2 3715   6.366   2.458   2.234
 1258TIP3   OH2 3716   1.012   3.962   2.683
 1258TIP3    H1 3717   0.963   3.987   2.761
 1258TIP3    H2 3718   0.946   3.950   2.615
 1259TIP3   OH2 3719   5.447   7.360   0.386
 1259TIP3    H1 3720   5.541   7.365   0.399
 1259TIP3    H2 3721   5.429   7.266   0.377
 1260TIP3   OH2 3722   0.947   5.778   4.358
 1260TIP3    H1 3723   0.914   5.867   4.350
 1260TIP3    H2 3724   1.020   5.774   4.296
 1261TIP3   OH2 3725   1.582   7.033   0.181
 1261TIP3    H1 3726   1.526   7.084   0.122
 1261TIP3    H2 3727   1.586   7.085   0.261
 1262TIP3   OH2 3728   2.045   7.694   5.234
 1262TIP3    H1 3729   1.971   7.744   5.268
 1262TIP3    H2 3730   2.082   7.749   5.165
 1263TIP3   OH2 3731   5.193   0.707   2.457
 1263TIP3    H1 3732   5.222   0.626   2.499
 1263TIP3    H2 3733   5.174   0.682   2.367
 1264TIP3   OH2 3734   3.233   6.412   4.087
 1264TIP3    H1 3735   3.149   6.457   4.079
 1264TIP3    H2 3736   3.210   6.321   4.104
 1265TIP3   OH2 3737   7.481   3.054   2.028
 1265TIP3    H1 3738   7.400   3.005   2.015
 1265TIP3    H2 3739   7.529   3.043   1.946
 1266TIP3   OH2 3740   1.038   0.865   0.853
 1266TIP3    H1 3741   0.944   0.869   0.871
 1266TIP3    H2 3742   1.047   0.793   0.790
 1267TIP3   OH2 3743   0.781   4.886   0.580
 1267TIP3    H1 3744   0.835   4.879   0.659
 1267TIP3    H2 3745   0.753   4.977   0.578
 1268TIP3   OH2 3746   1.563   0.208   2.809
 1268TIP3    H1 3747   1.621   0.139   2.842
 1268TIP3    H2 3748   1.546   0.183   2.719
 1269TIP3   OH2 3749   1.319   5.151   5.855
 1269TIP3    H1 3750   1.340   5.086   5.922
 1269TIP3    H2 3751   1.296   5.099   5.778
 1270TIP3   OH2 3752   3.558   3.124   2.117
 1270TIP3    H1 3753   3.464   3.144   2.110
 1270TIP3    H2 3754   3.576   3.125   2.211
 1271TIP3   OH2 3755   1.372   6.140   3.832
 1271TIP3    H1 3756   1.366   6.044   3.833
 1271TIP3    H2 3757   1.338   6.165   3.747
 1272TIP3   OH2 3758   3.062  -0.076   0.395
 1272TIP3    H1 3759   3.000  -0.037   0.334
 1272TIP3    H2 3760   3.011  -0.094   0.474
 1273TIP3   OH2 3761   1.242   4.164   2.423
 1273TIP3    H1 3762   1.296   4.235   2.388
 1273TIP3    H2 3763   1.279   4.085   2.384
 1274TIP3   OH2 3764   0.394   2.214   3.550
 1274TIP3    H1 3765   0.331   2.161   3.501
 1274TIP3    H2 3766   0.346   2.293   3.573
 1275TIP3   OH2 3767   6.883   7.033   4.458
 1275TIP3    H1 3768   6.817   6.966   4.440
 1275TIP3    H2 3769   6.939   6.994   4.525
 1276TIP3   OH2 3770   3.687   2.818   4.622
 1276TIP3    H1 3771   3.629   2.746   4.596
 1276TIP3    H2 3772   3.723   2.851   4.539
 1277TIP3   OH2 3773   0.065   3.265   5.009
 1277TIP3    H1 3774   0.027   3.291   5.094
 1277TIP3    H2 3775   0.065   3.346   4.958
 1278TIP3   OH2 3776   5.412   4.698   0.616
 1278TIP3    H1 3777   5.496   4.729   0.580
 1278TIP3    H2 3778   5.351   4.770   0.599
 1279TIP3   OH2 3779   7.694   2.712   4.661
 1279TIP3    H1 3780   7.634   2.656   4.611
 1279TIP3    H2 3781   7.696   2.794   4.613
 1280TIP3   OH2 3782   4.666   5.885   1.347
 1280TIP3    H1 3783   4.743   5.913   1.299
 1280TIP3    H2 3784   4.592   5.923   1.300
 1281TIP3   OH2 3785   3.692   0.704   3.024
 1281TIP3    H1 3786   3.784   0.695   2.998
 1281TIP3    H2 3787   3.694   0.765   3.098
 1282TIP3   OH2 3788   6.338   4.749   0.027
 1282TIP3    H1 3789   6.375   4.793  -0.050
 1282TIP3    H2 3790   6.297   4.820   0.077
 1283TIP3   OH2 3791   0.288   5.321   2.438
 1283TIP3    H1 3792   0.226   5.326   2.510
 1283TIP3    H2 3793   0.247   5.371   2.367
 1284TIP3   OH2 3794   3.762   3.038   4.377
 1284TIP3    H1 3795   3.712   3.062   4.299
 1284TIP3    H2 3796   3.748   3.110   4.438
 1285TIP3   OH2 3797   5.319   3.238   5.729
 1285TIP3    H1 3798   5.350   3.254   5.640
 1285TIP3    H2 3799   5.392   3.194   5.772
 1286TIP3   OH2 3800   3.330   2.034   0.425
 1286TIP3    H1 3801   3.411   1.987   0.440
 1286TIP3    H2 3802   3.322   2.041   0.330
 1287TIP3   OH2 3803   1.621   0.972   6.082
 1287TIP3    H1 3804   1.666   1.050   6.116
 1287TIP3    H2 3805   1.691   0.913   6.055
 1288TIP3   OH2 3806   6.522   0.191   4.730
 1288TIP3    H1 3807   6.543   0.158   4.642
 1288TIP3    H2 3808   6.578   0.268   4.741
 1289TIP3   OH2 3809   0.522   7.276   6.003
 1289TIP3    H1 3810   0.474   7.342   5.953
 1289TIP3    H2 3811   0.604   7.319   6.026
 1290TIP3   OH2 3812   0.202   2.796   6.718
 1290TIP3    H1 3813   0.172   2.880   6.751
 1290TIP3    H2 3814   0.123   2.743   6.710
 1291TIP3   OH2 3815   1.562   6.381   1.444
 1291TIP3    H1 3816   1.583   6.289   1.461
 1291TIP3    H2 3817   1.644   6.420   1.416
 1292TIP3   OH2 3818   6.949   1.032   0.532
 1292TIP3    H1 3819   6.993   1.028   0.448
 1292TIP3    H2 3820   7.020   1.031   0.596
 1293TIP3   OH2 3821   6.609   7.659   0.630
 1293TIP3    H1 3822   6.638   7.601   0.700
 1293TIP3    H2 3823   6.547   7.606   0.579
 1294TIP3   OH2 3824   6.341   2.993   4.303
 1294TIP3    H1 3825   6.284   3.056   4.258
 1294TIP3    H2 3826   6.373   2.936   4.233
 1295TIP3   OH2 3827   2.544   5.773   1.055
 1295TIP3    H1 3828   2.449   5.777   1.052
 1295TIP3    H2 3829   2.573   5.839   0.992
 1296TIP3   OH2 3830   5.528   0.189   3.978
 1296TIP3    H1 3831   5.527   0.123   3.910
 1296TIP3    H2 3832   5.603   0.245   3.957
 1297TIP3   OH2 3833   3.930   5.715   4.120
 1297TIP3    H1 3834   3.991   5.646   4.145
 1297TIP3    H2 3835   3.977   5.796   4.138
 1298TIP3   OH2 3836   3.450   4.175   6.364
 1298TIP3    H1 3837   3.442   4.082   6.344
 1298TIP3    H2 3838   3.362   4.210   6.353
 1299TIP3   OH2 3839   4.734   2.274   3.901
 1299TIP3    H1 3840   4.743   2.297   3.809
 1299TIP3    H2 3841   4.641   2.250   3.911
 1300TIP3   OH2 3842   2.284   4.780   1.028
 1300TIP3    H1 3843   2.260   4.731   0.949
 1300TIP3    H2 3844   2.280   4.872   1.001
 1301TIP3   OH2 3845   4.416   7.791   3.496
 1301TIP3    H1 3846   4.423   7.772   3.589
 1301TIP3    H2 3847   4.344   7.853   3.489
 1302TIP3   OH2 3848   0.641   7.459   0.530
 1302TIP3    H1 3849   0.636   7.552   0.508
 1302TIP3    H2 3850   0.716   7.426   0.480
 1303TIP3   OH2 3851   2.192   1.725   5.408
 1303TIP3    H1 3852   2.168   1.634   5.425
 1303TIP3    H2 3853   2.189   1.734   5.313
 1304TIP3   OH2 3854   6.632   7.620   4.524
 1304TIP3    H1 3855   6.554   7.665   4.557
 1304TIP3    H2 3856   6.599   7.535   4.496
 1305TIP3   OH2 3857   0.163   5.686   5.100
 1305TIP3    H1 3858   0.250   5.726   5.101
 1305TIP3    H2 3859   0.103   5.759   5.085
 1306TIP3   OH2 3860   2.097   5.488   4.710
 1306TIP3    H1 3861   2.122   5.401   4.680
 1306TIP3    H2 3862   2.095   5.482   4.805
 1307TIP3   OH2 3863   3.742   2.456   0.197
 1307TIP3    H1 3864   3.657   2.424   0.225
 1307TIP3    H2 3865   3.753   2.422   0.108
 1308TIP3   OH2 3866   6.018   0.452   3.242
 1308TIP3    H1 3867   6.083   0.522   3.247
 1308TIP3    H2 3868   6.045   0.399   3.166
 1309TIP3   OH2 3869   2.513   1.922   0.270
 1309TIP3    H1 3870   2.423   1.893   0.284
 1309TIP3    H2 3871   2.543   1.954   0.355
 1310TIP3   OH2 3872   1.119   2.824   4.862
 1310TIP3    H1 3873   1.081   2.767   4.929
 1310TIP3    H2 3874   1.050   2.833   4.796
 1311TIP3   OH2 3875   4.884   2.809   3.537
 1311TIP3    H1 3876   4.954   2.843   3.592
 1311TIP3    H2 3877   4.921   2.730   3.497
 1312TIP3   OH2 3878   3.397   5.547   6.504
 1312TIP3    H1 3879   3.413   5.456   6.529
 1312TIP3    H2 3880   3.481   5.591   6.518
 1313TIP3   OH2 3881   5.430   5.773   3.884
 1313TIP3    H1 3882   5.372   5.763   3.959
 1313TIP3    H2 3883   5.396   5.713   3.818
 1314TIP3   OH2 3884   6.209   2.634   5.385
 1314TIP3    H1 3885   6.232   2.659   5.295
 1314TIP3    H2 3886   6.142   2.698   5.411
 1315TIP3   OH2 3887   3.964   0.762   6.462
 1315TIP3    H1 3888   3.996   0.701   6.528
 1315TIP3    H2 3889   4.042   0.803   6.426
 1316TIP3   OH2 3890   5.294   4.280   4.876
 1316TIP3    H1 3891   5.298   4.260   4.782
 1316TIP3    H2 3892   5.281   4.196   4.918
 1317TIP3   OH2 3893   0.569   1.759   2.685
 1317TIP3    H1 3894   0.652   1.726   2.719
 1317TIP3    H2 3895   0.593   1.829   2.625
 1318TIP3   OH2 3896   6.312   5.532   3.908
 1318TIP3    H1 3897   6.384   5.470   3.904
 1318TIP3    H2 3898   6.328   5.593   3.837
 1319TIP3   OH2 3899   1.370   5.817   4.038
 1319TIP3    H1 3900   1.341   5.825   3.948
 1319TIP3    H2 3901   1.460   5.852   4.038
 1320TIP3   OH2 3902   8.126   0.724   5.605
 1320TIP3    H1 3903   8.148   0.726   5.698
 1320TIP3    H2 3904   8.040   0.765   5.600
 1321TIP3   OH2 3905   2.615   3.424   3.778
 1321TIP3    H1 3906   2.598   3.366   3.704
 1321TIP3    H2 3907   2.698   3.466   3.757
 1322TIP3   OH2 3908   0.869   4.641   2.653
 1322TIP3    H1 3909   0.941   4.597   2.700
 1322TIP3    H2 3910   0.877   4.609   2.563
 1323TIP3   OH2 3911   3.165   6.868   0.325
 1323TIP3    H1 3912   3.217   6.851   0.403
 1323TIP3    H2 3913   3.105   6.794   0.318
 1324TIP3   OH2 3914   4.399   2.915   2.989
 1324TIP3    H1 3915   4.452   2.965   3.051
 1324TIP3    H2 3916   4.451   2.911   2.909
 1325TIP3   OH2 3917   4.872   7.412   4.162
 1325TIP3    H1 3918   4.846   7.442   4.249
 1325TIP3    H2 3919   4.797   7.362   4.131
 1326TIP3   OH2 3920   3.856   5.944   3.211
 1326TIP3    H1 3921   3.843   5.925   3.304
 1326TIP3    H2 3922   3.798   6.019   3.194
 1327TIP3   OH2 3923   3.684   3.916   0.275
 1327TIP3    H1 3924   3.591   3.922   0.295
 1327TIP3    H2 3925   3.728   3.954   0.351
 1328TIP3   OH2 3926   0.240   0.468   0.119
 1328TIP3    H1 3927   0.181   0.542   0.136
 1328TIP3    H2 3928   0.187   0.390   0.138
 1329TIP3   OH2 3929   1.323   5.690   1.280
 1329TIP3    H1 3930   1.328   5.720   1.190
 1329TIP3    H2 3931   1.350   5.598   1.277
 1330TIP3   OH2 3932   5.603   3.600   0.623
 1330TIP3    H1 3933   5.592   3.671   0.561
 1330TIP3    H2 3934   5.538   3.616   0.691
 1331TIP3   OH2 3935   2.187   3.475   1.006
 1331TIP3    H1 3936   2.228   3.544   0.953
 1331TIP3    H2 3937   2.260   3.419   1.033
 1332TIP3   OH2 3938   1.771   7.086   3.507
 1332TIP3    H1 3939   1.726   7.097   3.590
 1332TIP3    H2 3940   1.856   7.050   3.530
 1333TIP3   OH2 3941   4.856   2.846   0.547
 1333TIP3    H1 3942   4.915   2.800   0.607
 1333TIP3    H2 3943   4.890   2.935   0.544
 1334TIP3   OH2 3944   3.278   4.217   5.597
 1334TIP3    H1 3945   3.268   4.312   5.604
 1334TIP3    H2 3946   3.189   4.184   5.585
 1335TIP3   OH2 3947   0.899   1.751   2.443
 1335TIP3    H1 3948   0.806   1.771   2.455
 1335TIP3    H2 3949   0.905   1.718   2.354
 1336TIP3   OH2 3950   6.282   5.974   2.846
 1336TIP3    H1 3951   6.278   5.922   2.927
 1336TIP3    H2 3952   6.203   5.949   2.798
 1337TIP3   OH2 3953   1.197   6.911   3.662
 1337TIP3    H1 3954   1.181   7.001   3.690
 1337TIP3    H2 3955   1.287   6.892   3.689
 1338TIP3   OH2 3956   2.709   0.922   5.386
 1338TIP3    H1 3957   2.710   0.893   5.477
 1338TIP3    H2 3958   2.616   0.936   5.366
 1339TIP3   OH2 3959   6.837   6.353   5.510
 1339TIP3    H1 3960   6.810   6.262   5.522
 1339TIP3    H2 3961   6.858   6.383   5.599
 1340TIP3   OH2 3962   5.253   7.458   6.084
 1340TIP3    H1 3963   5.190   7.472   6.013
 1340TIP3    H2 3964   5.218   7.383   6.132
 1341TIP3   OH2 3965   6.547   6.965   3.964
 1341TIP3    H1 3966   6.534   7.058   3.981
 1341TIP3    H2 3967   6.588   6.931   4.044
 1342TIP3   OH2 3968   1.140   7.297   0.063
 1342TIP3    H1 3969   1.045   7.284   0.068
 1342TIP3    H2 3970   1.155   7.378   0.112
 1343TIP3   OH2 3971   1.393   7.608   5.578
 1343TIP3    H1 3972   1.425   7.653   5.656
 1343TIP3    H2 3973   1.300   7.597   5.592
 1344TIP3   OH2 3974   2.727   7.781   3.714
 1344TIP3    H1 3975   2.796   7.715   3.712
 1344TIP3    H2 3976   2.647   7.733   3.735
 1345TIP3   OH2 3977   3.712   0.975   6.000
 1345TIP3    H1 3978   3.669   0.903   6.048
 1345TIP3    H2 3979   3.804   0.967   6.024
 1346TIP3   OH2 3980   3.882   0.833   2.725
 1346TIP3    H1 3981   3.789   0.842   2.745
 1346TIP3    H2 3982   3.887   0.758   2.666
 1347TIP3   OH2 3983   6.244   2.982   3.978
 1347TIP3    H1 3984   6.285   2.919   4.038
 1347TIP3    H2 3985   6.210   2.929   3.906
 1348TIP3   OH2 3986   0.667   5.631   4.600
 1348TIP3    H1 3987   0.731   5.701   4.607
 1348TIP3    H2 3988   0.693   5.567   4.665
 1349TIP3   OH2 3989   2.058   6.990   3.530
 1349TIP3    H1 3990   2.086   6.990   3.439
 1349TIP3    H2 3991   2.137   7.011   3.580
 1350TIP3   OH2 3992   2.891   3.688   5.015
 1350TIP3    H1 3993   2.893   3.725   4.927
 1350TIP3    H2 3994   2.812   3.723   5.055
 1351TIP3   OH2 3995   5.006   7.156   4.505
 1351TIP3    H1 3996   4.922   7.164   4.459
 1351TIP3    H2 3997   5.071   7.181   4.440
 1352TIP3   OH2 3998   6.208   0.275   5.592
 1352TIP3    H1 3999   6.214   0.196   5.538
 1352TIP3    H2 4000   6.254   0.252   5.673
 1353TIP3   OH2 4001   1.989   1.639   6.448
 1353TIP3    H1 4002   2.006   1.693   6.525
 1353TIP3    H2 4003   1.938   1.695   6.390
 1354TIP3   OH2 4004   1.274   3.884   1.426
 1354TIP3    H1 4005   1.299   3.895   1.335
 1354TIP3    H2 4006   1.297   3.793   1.447
 1355TIP3   OH2 4007   2.125   0.884   0.456
 1355TIP3    H1 4008   2.066   0.953   0.425
 1355TIP3    H2 4009   2.074   0.804   0.448
 1356TIP3   OH2 4010   4.542   1.759   6.781
 1356TIP3    H1 4011   4.635   1.754   6.763
 1356TIP3    H2 4012   4.503   1.687   6.731
 1357TIP3   OH2 4013   6.380   6.684   2.110
 1357TIP3    H1 4014   6.326   6.758   2.084
 1357TIP3    H2 4015   6.429   6.660   2.031
 1358TIP3   OH2 4016   0.095   7.572   0.553
 1358TIP3    H1 4017   0.011   7.554   0.511
 1358TIP3    H2 4018   0.133   7.486   0.569
 1359TIP3   OH2 4019   4.131   0.105   5.584
 1359TIP3    H1 4020   4.219   0.078   5.611
 1359TIP3    H2 4021   4.144   0.148   5.500
 1360TIP3   OH2 4022   1.294   2.528   1.817
 1360TIP3    H1 4023   1.233   2.492   1.752
 1360TIP3    H2 4024   1.238   2.558   1.888
 1361TIP3   OH2 4025   3.385   1.992   5.165
 1361TIP3    H1 4026   3.307   1.952   5.127
 1361TIP3    H2 4027   3.371   2.086   5.154
 1362TIP3   OH2 4028   1.740   6.870   3.990
 1362TIP3    H1 4029   1.791   6.932   4.043
 1362TIP3    H2 4030   1.792   6.789   3.992
 1363TIP3   OH2 4031   2.497   0.561   0.085
 1363TIP3    H1 4032   2.443   0.569   0.163
 1363TIP3    H2 4033   2.586   0.554   0.119
 1364TIP3   OH2 4034   7.721   5.323   3.549
 1364TIP3    H1 4035   7.746   5.254   3.488
 1364TIP3    H2 4036   7.710   5.278   3.633
 1365TIP3   OH2 4037   7.508   2.551   4.559
 1365TIP3    H1 4038   7.424   2.527   4.598
 1365TIP3    H2 4039   7.514   2.496   4.481
 1366TIP3   OH2 4040   3.636   7.753   4.705
 1366TIP3    H1 4041   3.588   7.751   4.623
 1366TIP3    H2 4042   3.656   7.845   4.719
 1367TIP3   OH2 4043   0.599   4.258   0.808
 1367TIP3    H1 4044   0.649   4.337   0.787
 1367TIP3    H2 4045   0.585   4.264   0.903
 1368TIP3   OH2 4046   2.601   6.432   5.729
 1368TIP3    H1 4047   2.602   6.526   5.747
 1368TIP3    H2 4048   2.682   6.416   5.681
 1369TIP3   OH2 4049   7.705   0.143   5.808
 1369TIP3    H1 4050   7.619   0.105   5.825
 1369TIP3    H2 4051   7.689   0.210   5.741
 1370TIP3   OH2 4052   3.031   3.854   4.715
 1370TIP3    H1 4053   3.033   3.950   4.720
 1370TIP3    H2 4054   3.105   3.826   4.770
 1371TIP3   OH2 4055   2.433   3.396   0.570
 1371TIP3    H1 4056   2.453   3.363   0.658
 1371TIP3    H2 4057   2.432   3.317   0.515
 1372TIP3   OH2 4058   4.683   4.209   0.961
 1372TIP3    H1 4059   4.601   4.198   1.008
 1372TIP3    H2 4060   4.685   4.301   0.936
 1373TIP3   OH2 4061   0.229   2.412   5.630
 1373TIP3    H1 4062   0.213   2.428   5.537
 1373TIP3    H2 4063   0.324   2.420   5.640
 1374TIP3   OH2 4064   3.352   2.845   6.344
 1374TIP3    H1 4065   3.294   2.919   6.328
 1374TIP3    H2 4066   3.307   2.770   6.305
 1375TIP3   OH2 4067   0.008   1.285   1.397
 1375TIP3    H1 4068   0.089   1.237   1.380
 1375TIP3    H2 4069   0.027   1.336   1.476
 1376TIP3   OH2 4070   4.474   5.923   5.340
 1376TIP3    H1 4071   4.509   6.012   5.339
 1376TIP3    H2 4072   4.431   5.912   5.255
 1377TIP3   OH2 4073   6.473   4.840   4.527
 1377TIP3    H1 4074   6.542   4.775   4.525
 1377TIP3    H2 4075   6.464   4.865   4.619
 1378TIP3   OH2 4076   1.259   0.038   4.504
 1378TIP3    H1 4077   1.172   0.008   4.531
 1378TIP3    H2 4078   1.309   0.044   4.586
 1379TIP3   OH2 4079   2.029   0.525   1.102
 1379TIP3    H1 4080   2.034   0.465   1.028
 1379TIP3    H2 4081   1.937   0.524   1.128
 1380TIP3   OH2 4082   2.564   1.758   5.617
 1380TIP3    H1 4083   2.622   1.816   5.665
 1380TIP3    H2 4084   2.500   1.817   5.575
 1381TIP3   OH2 4085   5.578   0.784   3.520
 1381TIP3    H1 4086   5.647   0.725   3.550
 1381TIP3    H2 4087   5.582   0.778   3.424
 1382TIP3   OH2 4088   0.236   0.446   6.714
 1382TIP3    H1 4089   0.192   0.379   6.662
 1382TIP3    H2 4090   0.328   0.438   6.689
 1383TIP3   OH2 4091   1.106   5.451   6.131
 1383TIP3    H1 4092   1.070   5.516   6.192
 1383TIP3    H2 4093   1.093   5.367   6.176
 1384TIP3   OH2 4094   4.038   0.668   4.415
 1384TIP3    H1 4095   4.129   0.697   4.415
 1384TIP3    H2 4096   4.000   0.704   4.495
 1385TIP3   OH2 4097   5.045   5.279   0.597
 1385TIP3    H1 4098   5.022   5.282   0.504
 1385TIP3    H2 4099   4.984   5.216   0.635
 1386TIP3   OH2 4100   7.205   0.178   1.829
 1386TIP3    H1 4101   7.265   0.248   1.804
 1386TIP3    H2 4102   7.130   0.188   1.770
 1387TIP3   OH2 4103   2.992   3.997   1.160
 1387TIP3    H1 4104   2.923   4.065   1.161
 1387TIP3    H2 4105   2.991   3.962   1.249
 1388TIP3   OH2 4106   2.131   1.027   1.574
 1388TIP3    H1 4107   2.194   0.955   1.583
 1388TIP3    H2 4108   2.106   1.048   1.664
 1389TIP3   OH2 4109   5.144   6.527   2.617
 1389TIP3    H1 4110   5.146   6.543   2.523
 1389TIP3    H2 4111   5.237   6.521   2.642
 1390TIP3   OH2 4112   0.932   5.254   2.877
 1390TIP3    H1 4113   0.920   5.324   2.813
 1390TIP3    H2 4114   1.018   5.271   2.914
 1391TIP3   OH2 4115   5.018   7.560   2.110
 1391TIP3    H1 4116   5.043   7.651   2.091
 1391TIP3    H2 4117   5.086   7.528   2.169
 1392TIP3   OH2 4118   1.775   2.012   3.463
 1392TIP3    H1 4119   1.798   1.934   3.513
 1392TIP3    H2 4120   1.860   2.053   3.444
 1393TIP3   OH2 4121   8.205   4.577   4.133
 1393TIP3    H1 4122   8.222   4.633   4.057
 1393TIP3    H2 4123   8.113   4.554   4.126
 1394TIP3   OH2 4124   7.220   5.229   5.804
 1394TIP3    H1 4125   7.200   5.225   5.898
 1394TIP3    H2 4126   7.198   5.142   5.771
 1395TIP3   OH2 4127   2.326   7.719   5.367
 1395TIP3    H1 4128   2.346   7.713   5.461
 1395TIP3    H2 4129   2.309   7.812   5.352
 1396TIP3   OH2 4130   2.172   3.528   1.875
 1396TIP3    H1 4131   2.243   3.499   1.933
 1396TIP3    H2 4132   2.097   3.476   1.902
 1397TIP3   OH2 4133   3.926   3.252   1.509
 1397TIP3    H1 4134   3.964   3.302   1.580
 1397TIP3    H2 4135   3.909   3.165   1.546
 1398TIP3   OH2 4136   2.705   1.007   1.361
 1398TIP3    H1 4137   2.785   0.958   1.380
 1398TIP3    H2 4138   2.635   0.942   1.365
 1399TIP3   OH2 4139   1.637   4.863   3.512
 1399TIP3    H1 4140   1.699   4.809   3.463
 1399TIP3    H2 4141   1.674   4.869   3.600
 1400TIP3   OH2 4142   0.257   4.604   4.950
 1400TIP3    H1 4143   0.256   4.531   5.012
 1400TIP3    H2 4144   0.218   4.677   4.998
 1401TIP3   OH2 4145   5.465   7.608   6.152
 1401TIP3    H1 4146   5.390   7.551   6.137
 1401TIP3    H2 4147   5.435   7.696   6.129
 1402TIP3   OH2 4148   4.040   2.269   1.649
 1402TIP3    H1 4149   4.082   2.183   1.645
 1402TIP3    H2 4150   3.947   2.250   1.659
 1403TIP3   OH2 4151   7.993   3.710   5.751
 1403TIP3    H1 4152   7.981   3.799   5.784
 1403TIP3    H2 4153   7.904   3.678   5.736
 1404TIP3   OH2 4154   5.437   1.836   1.379
 1404TIP3    H1 4155   5.411   1.770   1.444
 1404TIP3    H2 4156   5.533   1.839   1.385
 1405TIP3   OH2 4157   2.740   3.057   4.315
 1405TIP3    H1 4158   2.698   3.036   4.232
 1405TIP3    H2 4159   2.819   3.105   4.291
 1406TIP3   OH2 4160   6.612   6.821   4.743
 1406TIP3    H1 4161   6.680   6.759   4.717
 1406TIP3    H2 4162   6.613   6.819   4.839
 1407TIP3   OH2 4163   2.210   4.976   1.388
 1407TIP3    H1 4164   2.220   5.043   1.455
 1407TIP3    H2 4165   2.298   4.939   1.378
 1408TIP3   OH2 4166   2.666   6.529   3.263
 1408TIP3    H1 4167   2.669   6.517   3.168
 1408TIP3    H2 4168   2.575   6.554   3.281
 1409TIP3   OH2 4169   0.109   3.784   0.193
 1409TIP3    H1 4170   0.099   3.879   0.203
 1409TIP3    H2 4171   0.159   3.757   0.270
 1410TIP3   OH2 4172   5.714   3.326   6.584
 1410TIP3    H1 4173   5.782   3.394   6.592
 1410TIP3    H2 4174   5.754   3.248   6.622
 1411TIP3   OH2 4175   4.968   2.466   0.519
 1411TIP3    H1 4176   4.984   2.394   0.458
 1411TIP3    H2 4177   5.004   2.543   0.476
 1412TIP3   OH2 4178   0.272   1.221   1.421
 1412TIP3    H1 4179   0.306   1.182   1.340
 1412TIP3    H2 4180   0.301   1.312   1.418
 1413TIP3   OH2 4181   1.396   2.241   5.185
 1413TIP3    H1 4182   1.413   2.258   5.277
 1413TIP3    H2 4183   1.433   2.154   5.169
 1414TIP3   OH2 4184   0.978   2.776   4.068
 1414TIP3    H1 4185   0.901   2.829   4.048
 1414TIP3    H2 4186   0.952   2.725   4.145
 1415TIP3   OH2 4187   1.575   4.015   3.693
 1415TIP3    H1 4188   1.667   4.029   3.669
 1415TIP3    H2 4189   1.577   3.945   3.757
 1416TIP3   OH2 4190   1.718   3.522   5.859
 1416TIP3    H1 4191   1.625   3.501   5.860
 1416TIP3    H2 4192   1.721   3.617   5.843
 1417TIP3   OH2 4193   5.456   1.696   1.629
 1417TIP3    H1 4194   5.504   1.620   1.595
 1417TIP3    H2 4195   5.403   1.660   1.700
 1418TIP3   OH2 4196   4.463   2.655   1.707
 1418TIP3    H1 4197   4.408   2.592   1.661
 1418TIP3    H2 4198   4.522   2.602   1.761
 1419TIP3   OH2 4199   5.923   1.130   2.805
 1419TIP3    H1 4200   5.986   1.065   2.775
 1419TIP3    H2 4201   5.959   1.214   2.777
 1420TIP3   OH2 4202   4.636   3.453   0.686
 1420TIP3    H1 4203   4.718   3.462   0.734
 1420TIP3    H2 4204   4.653   3.496   0.602
 1421TIP3   OH2 4205   6.302   7.154   2.834
 1421TIP3    H1 4206   6.333   7.084   2.891
 1421TIP3    H2 4207   6.256   7.109   2.763
 1422TIP3   OH2 4208   0.640   5.394   4.125
 1422TIP3    H1 4209   0.606   5.442   4.200
 1422TIP3    H2 4210   0.639   5.302   4.152
 1423TIP3   OH2 4211   5.650   5.526   6.416
 1423TIP3    H1 4212   5.694   5.443   6.402
 1423TIP3    H2 4213   5.706   5.574   6.477
 1424TIP3   OH2 4214   8.216   7.558   3.878
 1424TIP3    H1 4215   8.212   7.484   3.939
 1424TIP3    H2 4216   8.302   7.551   3.838
 1425TIP3   OH2 4217   5.023   7.408   0.297
 1425TIP3    H1 4218   4.936   7.374   0.277
 1425TIP3    H2 4219   5.064   7.340   0.350
 1426TIP3   OH2 4220   0.378   5.668   1.329
 1426TIP3    H1 4221   0.359   5.756   1.298
 1426TIP3    H2 4222   0.473   5.663   1.332
 1427TIP3   OH2 4223   7.461   0.522   2.614
 1427TIP3    H1 4224   7.541   0.510   2.562
 1427TIP3    H2 4225   7.475   0.604   2.660
 1428TIP3   OH2 4226   3.883   2.114   0.606
 1428TIP3    H1 4227   3.817   2.074   0.550
 1428TIP3    H2 4228   3.950   2.145   0.545
 1429TIP3   OH2 4229   4.632   1.670   1.011
 1429TIP3    H1 4230   4.680   1.716   1.080
 1429TIP3    H2 4231   4.668   1.582   1.012
 1430TIP3   OH2 4232   1.981   3.532   0.472
 1430TIP3    H1 4233   2.034   3.570   0.402
 1430TIP3    H2 4234   2.045   3.489   0.530
 1431TIP3   OH2 4235   0.714   6.955   2.097
 1431TIP3    H1 4236   0.667   7.036   2.074
 1431TIP3    H2 4237   0.769   6.980   2.171
 1432TIP3   OH2 4238   6.312   6.127   3.358
 1432TIP3    H1 4239   6.252   6.156   3.289
 1432TIP3    H2 4240   6.255   6.111   3.434
 1433TIP3   OH2 4241   8.045   6.853   3.442
 1433TIP3    H1 4242   8.032   6.948   3.444
 1433TIP3    H2 4243   8.139   6.842   3.455
 1434TIP3   OH2 4244   3.462   6.545   4.143
 1434TIP3    H1 4245   3.498   6.512   4.225
 1434TIP3    H2 4246   3.382   6.494   4.129
 1435TIP3   OH2 4247   0.991   0.556   3.298
 1435TIP3    H1 4248   1.022   0.583   3.384
 1435TIP3    H2 4249   1.063   0.578   3.239
 1436TIP3   OH2 4250   7.170   5.513   4.223
 1436TIP3    H1 4251   7.237   5.529   4.156
 1436TIP3    H2 4252   7.135   5.600   4.242
 1437TIP3   OH2 4253   4.826   3.067   3.223
 1437TIP3    H1 4254   4.803   2.999   3.160
 1437TIP3    H2 4255   4.778   3.043   3.303
 1438TIP3   OH2 4256   5.405   1.345   2.479
 1438TIP3    H1 4257   5.370   1.355   2.567
 1438TIP3    H2 4258   5.349   1.401   2.425
 1439TIP3   OH2 4259   5.168   2.802   4.702
 1439TIP3    H1 4260   5.183   2.712   4.672
 1439TIP3    H2 4261   5.074   2.815   4.694
 1440TIP3   OH2 4262   3.879   0.207   6.001
 1440TIP3    H1 4263   3.923   0.183   6.083
 1440TIP3    H2 4264   3.785   0.206   6.023
 1441TIP3   OH2 4265   6.645   1.766   2.428
 1441TIP3    H1 4266   6.633   1.858   2.453
 1441TIP3    H2 4267   6.596   1.758   2.346
 1442TIP3   OH2 4268   5.965   3.858   3.950
 1442TIP3    H1 4269   6.010   3.873   3.867
 1442TIP3    H2 4270   5.931   3.769   3.943
 1443TIP3   OH2 4271   1.910   2.927   5.780
 1443TIP3    H1 4272   1.843   2.978   5.734
 1443TIP3    H2 4273   1.864   2.887   5.853
 1444TIP3   OH2 4274   2.277   2.903   1.657
 1444TIP3    H1 4275   2.304   2.995   1.667
 1444TIP3    H2 4276   2.184   2.904   1.678
 1445TIP3   OH2 4277   7.758   2.013   1.614
 1445TIP3    H1 4278   7.778   2.106   1.603
 1445TIP3    H2 4279   7.818   1.968   1.554
 1446TIP3   OH2 4280   4.729   7.146   2.987
 1446TIP3    H1 4281   4.648   7.177   2.945
 1446TIP3    H2 4282   4.699   7.105   3.068
 1447TIP3   OH2 4283   5.500   6.674   0.161
 1447TIP3    H1 4284   5.511   6.579   0.167
 1447TIP3    H2 4285   5.583   6.705   0.124
 1448TIP3   OH2 4286   7.306   7.263   4.646
 1448TIP3    H1 4287   7.249   7.308   4.708
 1448TIP3    H2 4288   7.271   7.286   4.560
 1449TIP3   OH2 4289   4.164   7.610   5.957
 1449TIP3    H1 4290   4.153   7.702   5.933
 1449TIP3    H2 4291   4.245   7.584   5.915
 1450TIP3   OH2 4292   7.768   5.998   0.665
 1450TIP3    H1 4293   7.692   6.053   0.643
 1450TIP3    H2 4294   7.801   6.036   0.747
 1451TIP3   OH2 4295   3.395   6.582   5.113
 1451TIP3    H1 4296   3.364   6.596   5.024
 1451TIP3    H2 4297   3.491   6.579   5.106
 1452TIP3   OH2 4298   0.867   3.772   3.456
 1452TIP3    H1 4299   0.907   3.859   3.459
 1452TIP3    H2 4300   0.780   3.785   3.495
 1453TIP3   OH2 4301   6.990   7.497   4.113
 1453TIP3    H1 4302   7.042   7.492   4.193
 1453TIP3    H2 4303   7.048   7.463   4.045
 1454TIP3   OH2 4304   2.104   0.395   0.860
 1454TIP3    H1 4305   2.028   0.390   0.802
 1454TIP3    H2 4306   2.127   0.304   0.877
 1455TIP3   OH2 4307   7.368   0.638   5.515
 1455TIP3    H1 4308   7.346   0.723   5.553
 1455TIP3    H2 4309   7.338   0.643   5.425
 1456TIP3   OH2 4310   0.202   1.477   4.470
 1456TIP3    H1 4311   0.258   1.550   4.495
 1456TIP3    H2 4312   0.167   1.501   4.384
 1457TIP3   OH2 4313   1.104   0.401   4.807
 1457TIP3    H1 4314   1.170   0.334   4.793
 1457TIP3    H2 4315   1.154   0.483   4.816
 1458TIP3   OH2 4316   4.689   4.458   0.840
 1458TIP3    H1 4317   4.606   4.484   0.801
 1458TIP3    H2 4318   4.707   4.525   0.906
 1459TIP3   OH2 4319   1.270   5.119   2.784
 1459TIP3    H1 4320   1.344   5.137   2.842
 1459TIP3    H2 4321   1.200   5.092   2.843
 1460TIP3   OH2 4322   1.341   6.235   2.964
 1460TIP3    H1 4323   1.332   6.145   2.933
 1460TIP3    H2 4324   1.419   6.268   2.920
 1461TIP3   OH2 4325   5.717   0.473   5.203
 1461TIP3    H1 4326   5.790   0.533   5.214
 1461TIP3    H2 4327   5.694   0.446   5.292
 1462TIP3   OH2 4328   8.290   2.302   1.128
 1462TIP3    H1 4329   8.244   2.243   1.067
 1462TIP3    H2 4330   8.228   2.373   1.145
 1463TIP3   OH2 4331   3.134   0.048   0.135
 1463TIP3    H1 4332   3.130  -0.046   0.117
 1463TIP3    H2 4333   3.178   0.054   0.220
 1464TIP3   OH2 4334   6.626   6.525   3.447
 1464TIP3    H1 4335   6.628   6.430   3.435
 1464TIP3    H2 4336   6.535   6.550   3.430
 1465TIP3   OH2 4337   2.616   5.823   3.401
 1465TIP3    H1 4338   2.542   5.884   3.408
 1465TIP3    H2 4339   2.584   5.741   3.439
 1466TIP3   OH2 4340   2.661   4.924   1.481
 1466TIP3    H1 4341   2.737   4.869   1.463
 1466TIP3    H2 4342   2.588   4.862   1.486
 1467TIP3   OH2 4343   4.093   1.584   3.854
 1467TIP3    H1 4344   4.080   1.660   3.910
 1467TIP3    H2 4345   4.059   1.610   3.768
 1468TIP3   OH2 4346   7.791   0.601   3.851
 1468TIP3    H1 4347   7.829   0.535   3.908
 1468TIP3    H2 4348   7.848   0.678   3.861
 1469TIP3   OH2 4349   3.541   2.707   5.174
 1469TIP3    H1 4350   3.540   2.614   5.152
 1469TIP3    H2 4351   3.515   2.711   5.266
 1470TIP3   OH2 4352   5.347   7.758   1.803
 1470TIP3    H1 4353   5.308   7.673   1.823
 1470TIP3    H2 4354   5.422   7.738   1.747
 1471TIP3   OH2 4355   3.722   5.853   0.814
 1471TIP3    H1 4356   3.780   5.912   0.767
 1471TIP3    H2 4357   3.641   5.854   0.764
 1472TIP3   OH2 4358   6.751   5.074   3.226
 1472TIP3    H1 4359   6.739   4.980   3.237
 1472TIP3    H2 4360   6.831   5.094   3.274
 1473TIP3   OH2 4361   8.087   4.040   4.641
 1473TIP3    H1 4362   8.052   4.056   4.729
 1473TIP3    H2 4363   8.175   4.005   4.656
 1474TIP3   OH2 4364   4.225   1.995   3.522
 1474TIP3    H1 4365   4.274   2.044   3.456
 1474TIP3    H2 4366   4.255   1.905   3.513
 1475TIP3   OH2 4367   7.162   7.808   2.983
 1475TIP3    H1 4368   7.151   7.743   3.053
 1475TIP3    H2 4369   7.138   7.760   2.903
 1476TIP3   OH2 4370   6.159   5.484   5.885
 1476TIP3    H1 4371   6.104   5.560   5.867
 1476TIP3    H2 4372   6.117   5.412   5.837
 1477TIP3   OH2 4373   3.967   2.731   4.408
 1477TIP3    H1 4374   3.950   2.770   4.322
 1477TIP3    H2 4375   3.917   2.649   4.407
 1478TIP3   OH2 4376   2.656   6.592   5.451
 1478TIP3    H1 4377   2.719   6.538   5.498
 1478TIP3    H2 4378   2.627   6.538   5.377
 1479TIP3   OH2 4379   8.194   4.031   2.155
 1479TIP3    H1 4380   8.251   3.957   2.177
 1479TIP3    H2 4381   8.105   3.997   2.165
 1480TIP3   OH2 4382   0.550   0.987   0.010
 1480TIP3    H1 4383   0.629   0.958   0.057
 1480TIP3    H2 4384   0.478   0.961   0.067
 1481TIP3   OH2 4385   4.873   3.774   0.697
 1481TIP3    H1 4386   4.874   3.752   0.790
 1481TIP3    H2 4387   4.920   3.702   0.655
 1482TIP3   OH2 4388   7.586   3.066   1.273
 1482TIP3    H1 4389   7.542   2.983   1.293
 1482TIP3    H2 4390   7.526   3.111   1.213
 1483TIP3   OH2 4391   5.883   1.815   6.763
 1483TIP3    H1 4392   5.873   1.884   6.697
 1483TIP3    H2 4393   5.826   1.841   6.835
 1484TIP3   OH2 4394   5.366   1.115   4.919
 1484TIP3    H1 4395   5.390   1.078   5.004
 1484TIP3    H2 4396   5.373   1.042   4.858
 1485TIP3   OH2 4397   4.126   2.720   4.627
 1485TIP3    H1 4398   4.079   2.703   4.546
 1485TIP3    H2 4399   4.119   2.815   4.640
 1486TIP3   OH2 4400   1.290   2.716   1.041
 1486TIP3    H1 4401   1.230   2.779   1.080
 1486TIP3    H2 4402   1.262   2.710   0.950
 1487TIP3   OH2 4403   3.022   1.979   3.938
 1487TIP3    H1 4404   2.936   1.996   3.977
 1487TIP3    H2 4405   3.007   1.986   3.844
 1488TIP3   OH2 4406   6.998   2.194   6.252
 1488TIP3    H1 4407   7.087   2.193   6.287
 1488TIP3    H2 4408   6.996   2.122   6.190
 1489TIP3   OH2 4409   1.408   3.693   6.389
 1489TIP3    H1 4410   1.498   3.724   6.401
 1489TIP3    H2 4411   1.406   3.609   6.433
 1490TIP3   OH2 4412   4.846   5.361   6.602
 1490TIP3    H1 4413   4.851   5.295   6.532
 1490TIP3    H2 4414   4.898   5.324   6.674
 1491TIP3   OH2 4415   3.309   0.459   1.034
 1491TIP3    H1 4416   3.337   0.429   1.121
 1491TIP3    H2 4417   3.304   0.379   0.982
 1492TIP3   OH2 4418   5.094   2.754   3.766
 1492TIP3    H1 4419   5.127   2.671   3.731
 1492TIP3    H2 4420   5.091   2.741   3.861
 1493TIP3   OH2 4421   3.057   5.906   5.264
 1493TIP3    H1 4422   3.023   5.944   5.183
 1493TIP3    H2 4423   3.096   5.981   5.311
 1494TIP3   OH2 4424   5.225   2.034   1.935
 1494TIP3    H1 4425   5.134   2.062   1.937
 1494TIP3    H2 4426   5.272   2.101   1.983
 1495TIP3   OH2 4427   2.461   3.566   2.668
 1495TIP3    H1 4428   2.470   3.536   2.759
 1495TIP3    H2 4429   2.404   3.502   2.627
 1496TIP3   OH2 4430   4.482   2.997   2.524
 1496TIP3    H1 4431   4.506   2.919   2.474
 1496TIP3    H2 4432   4.545   2.998   2.597
 1497TIP3   OH2 4433   4.279   4.487   5.456
 1497TIP3    H1 4434   4.303   4.395   5.447
 1497TIP3    H2 4435   4.211   4.487   5.524
 1498TIP3   OH2 4436   6.614   3.517   1.110
 1498TIP3    H1 4437   6.620   3.530   1.015
 1498TIP3    H2 4438   6.583   3.601   1.143
 1499TIP3   OH2 4439   2.991   4.100   5.177
 1499TIP3    H1 4440   3.085   4.110   5.163
 1499TIP3    H2 4441   2.955   4.188   5.160
 1500TIP3   OH2 4442   7.058   2.282   0.037
 1500TIP3    H1 4443   7.123   2.341   0.077
 1500TIP3    H2 4444   7.100   2.252  -0.043
 1501TIP3   OH2 4445   6.696   5.041   5.923
 1501TIP3    H1 4446   6.764   5.068   5.861
 1501TIP3    H2 4447   6.738   4.973   5.976
 1502TIP3   OH2 4448   4.324   6.225   2.793
 1502TIP3    H1 4449   4.356   6.298   2.846
 1502TIP3    H2 4450   4.329   6.149   2.851
 1503TIP3   OH2 4451   3.208   5.811   1.649
 1503TIP3    H1 4452   3.296   5.772   1.642
 1503TIP3    H2 4453   3.175   5.779   1.733
 1504TIP3   OH2 4454   2.457   7.540   0.626
 1504TIP3    H1 4455   2.458   7.530   0.531
 1504TIP3    H2 4456   2.432   7.453   0.658
 1505TIP3   OH2 4457   5.313   5.114   5.027
 1505TIP3    H1 4458   5.334   5.037   5.078
 1505TIP3    H2 4459   5.229   5.094   4.986
 1506TIP3   OH2 4460   3.656   3.038   5.397
 1506TIP3    H1 4461   3.596   3.050   5.323
 1506TIP3    H2 4462   3.620   3.095   5.466
 1507TIP3   OH2 4463   5.120   1.765   6.657
 1507TIP3    H1 4464   5.150   1.853   6.633
 1507TIP3    H2 4465   5.028   1.776   6.681
 1508TIP3   OH2 4466   4.356   5.579   6.547
 1508TIP3    H1 4467   4.382   5.608   6.459
 1508TIP3    H2 4468   4.432   5.597   6.602
 1509TIP3   OH2 4469   5.837   1.170   6.064
 1509TIP3    H1 4470   5.751   1.142   6.093
 1509TIP3    H2 4471   5.885   1.190   6.144
 1510TIP3   OH2 4472   7.917   5.494   2.311
 1510TIP3    H1 4473   7.984   5.560   2.298
 1510TIP3    H2 4474   7.901   5.494   2.405
 1511TIP3   OH2 4475   5.639   6.028   5.874
 1511TIP3    H1 4476   5.673   6.111   5.840
 1511TIP3    H2 4477   5.678   6.019   5.960
 1512TIP3   OH2 4478   0.793   3.195   1.927
 1512TIP3    H1 4479   0.789   3.289   1.908
 1512TIP3    H2 4480   0.727   3.157   1.869
 1513TIP3   OH2 4481   0.236   5.386   3.376
 1513TIP3    H1 4482   0.170   5.454   3.359
 1513TIP3    H2 4483   0.187   5.318   3.422
 1514TIP3   OH2 4484   1.844   6.087   2.570
 1514TIP3    H1 4485   1.902   6.016   2.595
 1514TIP3    H2 4486   1.850   6.091   2.474
 1515TIP3   OH2 4487   3.808   2.461   4.969
 1515TIP3    H1 4488   3.871   2.490   4.903
 1515TIP3    H2 4489   3.737   2.420   4.919
 1516TIP3   OH2 4490   5.588   0.900   3.836
 1516TIP3    H1 4491   5.613   0.928   3.748
 1516TIP3    H2 4492   5.669   0.865   3.874
 1517TIP3   OH2 4493   7.546   4.842   4.046
 1517TIP3    H1 4494   7.494   4.772   4.006
 1517TIP3    H2 4495   7.595   4.880   3.973
 1518TIP3   OH2 4496   0.744   7.081   3.676
 1518TIP3    H1 4497   0.764   7.091   3.583
 1518TIP3    H2 4498   0.687   7.004   3.681
 1519TIP3   OH2 4499   0.327   3.625   5.369
 1519TIP3    H1 4500   0.311   3.674   5.449
 1519TIP3    H2 4501   0.410   3.660   5.335
 1520TIP3   OH2 4502   1.501   3.278   4.205
 1520TIP3    H1 4503   1.489   3.219   4.279
 1520TIP3    H2 4504   1.466   3.362   4.235
 1521TIP3   OH2 4505   3.816   3.300   5.673
 1521TIP3    H1 4506   3.809   3.209   5.701
 1521TIP3    H2 4507   3.849   3.346   5.750
 1522TIP3   OH2 4508   4.793   1.803   1.236
 1522TIP3    H1 4509   4.793   1.773   1.327
 1522TIP3    H2 4510   4.785   1.899   1.243
 1523TIP3   OH2 4511   3.710   3.621   2.827
 1523TIP3    H1 4512   3.634   3.573   2.793
 1523TIP3    H2 4513   3.704   3.611   2.922
 1524TIP3   OH2 4514   8.073   3.929   1.462
 1524TIP3    H1 4515   8.105   3.989   1.529
 1524TIP3    H2 4516   8.069   3.982   1.382
 1525TIP3   OH2 4517   4.960   0.131   0.254
 1525TIP3    H1 4518   4.971   0.063   0.321
 1525TIP3    H2 4519   4.867   0.155   0.261
 1526TIP3   OH2 4520   2.120   4.722   5.220
 1526TIP3    H1 4521   2.177   4.774   5.278
 1526TIP3    H2 4522   2.031   4.746   5.246
 1527TIP3   OH2 4523   5.640   1.372   6.209
 1527TIP3    H1 4524   5.666   1.377   6.117
 1527TIP3    H2 4525   5.718   1.400   6.258
 1528TIP3   OH2 4526   0.125   2.965   6.265
 1528TIP3    H1 4527   0.034   2.938   6.273
 1528TIP3    H2 4528   0.175   2.889   6.295
 1529TIP3   OH2 4529   6.802   1.771   1.371
 1529TIP3    H1 4530   6.752   1.756   1.451
 1529TIP3    H2 4531   6.869   1.702   1.371
 1530TIP3   OH2 4532   8.256   2.032   1.348
 1530TIP3    H1 4533   8.318   1.960   1.364
 1530TIP3    H2 4534   8.256   2.042   1.253
 1531TIP3   OH2 4535   6.462   4.598   6.262
 1531TIP3    H1 4536   6.454   4.503   6.266
 1531TIP3    H2 4537   6.525   4.613   6.191
 1532TIP3   OH2 4538   6.581   2.545   5.337
 1532TIP3    H1 4539   6.552   2.630   5.370
 1532TIP3    H2 4540   6.596   2.560   5.243
 1533TIP3   OH2 4541   7.740   7.742   3.510
 1533TIP3    H1 4542   7.729   7.790   3.428
 1533TIP3    H2 4543   7.656   7.752   3.555
 1534TIP3   OH2 4544   0.662   7.027   5.297
 1534TIP3    H1 4545   0.745   6.987   5.325
 1534TIP3    H2 4546   0.620   6.959   5.244
 1535TIP3   OH2 4547   5.250   6.404   5.653
 1535TIP3    H1 4548   5.171   6.458   5.643
 1535TIP3    H2 4549   5.313   6.442   5.591
 1536TIP3   OH2 4550   5.392   5.623   5.681
 1536TIP3    H1 4551   5.412   5.631   5.588
 1536TIP3    H2 4552   5.320   5.560   5.685
 1537TIP3   OH2 4553   3.857   4.601   5.773
 1537TIP3    H1 4554   3.808   4.534   5.821
 1537TIP3    H2 4555   3.874   4.669   5.838
 1538TIP3   OH2 4556   4.853   7.033   5.275
 1538TIP3    H1 4557   4.871   6.956   5.221
 1538TIP3    H2 4558   4.903   7.103   5.234
 1539TIP3   OH2 4559   2.502   5.197   6.301
 1539TIP3    H1 4560   2.434   5.132   6.319
 1539TIP3    H2 4561   2.504   5.251   6.380
 1540TIP3   OH2 4562   0.098   7.047   6.118
 1540TIP3    H1 4563   0.118   7.075   6.207
 1540TIP3    H2 4564   0.178   7.063   6.069
 1541TIP3   OH2 4565   7.439   3.945   1.147
 1541TIP3    H1 4566   7.442   3.885   1.072
 1541TIP3    H2 4567   7.514   4.003   1.133
 1542TIP3   OH2 4568   2.173   3.352   3.258
 1542TIP3    H1 4569   2.148   3.303   3.336
 1542TIP3    H2 4570   2.251   3.401   3.284
 1543TIP3   OH2 4571   8.127   5.786   0.101
 1543TIP3    H1 4572   8.203   5.825   0.057
 1543TIP3    H2 4573   8.066   5.859   0.111
 1544TIP3   OH2 4574   7.956   6.720   1.513
 1544TIP3    H1 4575   8.012   6.773   1.570
 1544TIP3    H2 4576   8.011   6.646   1.488
 1545TIP3   OH2 4577   5.225   5.745   4.129
 1545TIP3    H1 4578   5.182   5.791   4.057
 1545TIP3    H2 4579   5.159   5.741   4.198
 1546TIP3   OH2 4580   4.192   7.294   4.312
 1546TIP3    H1 4581   4.180   7.245   4.231
 1546TIP3    H2 4582   4.112   7.278   4.363
 1547TIP3   OH2 4583   7.002   5.091   3.350
 1547TIP3    H1 4584   7.013   4.996   3.357
 1547TIP3    H2 4585   7.026   5.125   3.437
 1548TIP3   OH2 4586   2.447   4.295   5.709
 1548TIP3    H1 4587   2.362   4.319   5.672
 1548TIP3    H2 4588   2.488   4.378   5.731
 1549TIP3   OH2 4589   2.915   3.054   1.109
 1549TIP3    H1 4590   2.859   3.036   1.034
 1549TIP3    H2 4591   2.936   3.147   1.102
 1550TIP3   OH2 4592   7.886   1.690   3.528
 1550TIP3    H1 4593   7.943   1.715   3.455
 1550TIP3    H2 4594   7.838   1.614   3.496
 1551TIP3   OH2 4595   1.873   1.214   3.830
 1551TIP3    H1 4596   1.867   1.243   3.739
 1551TIP3    H2 4597   1.872   1.118   3.825
 1552TIP3   OH2 4598   2.089   0.503   5.197
 1552TIP3    H1 4599   2.115   0.563   5.267
 1552TIP3    H2 4600   2.103   0.416   5.234
 1553TIP3   OH2 4601   5.611   6.713   0.898
 1553TIP3    H1 4602   5.614   6.631   0.848
 1553TIP3    H2 4603   5.699   6.748   0.892
 1554TIP3   OH2 4604   3.804   5.893   3.861
 1554TIP3    H1 4605   3.808   5.961   3.928
 1554TIP3    H2 4606   3.851   5.818   3.899
 1555TIP3   OH2 4607   3.792   6.620   0.929
 1555TIP3    H1 4608   3.720   6.578   0.977
 1555TIP3    H2 4609   3.785   6.584   0.840
 1556TIP3   OH2 4610   2.359   1.960   5.914
 1556TIP3    H1 4611   2.415   1.968   5.992
 1556TIP3    H2 4612   2.398   2.019   5.850
 1557TIP3   OH2 4613   6.188   7.580   3.840
 1557TIP3    H1 4614   6.096   7.597   3.858
 1557TIP3    H2 4615   6.202   7.610   3.751
 1558TIP3   OH2 4616   4.669   6.556   4.066
 1558TIP3    H1 4617   4.602   6.491   4.045
 1558TIP3    H2 4618   4.737   6.506   4.110
 1559TIP3   OH2 4619   0.538   1.813   0.772
 1559TIP3    H1 4620   0.455   1.842   0.809
 1559TIP3    H2 4621   0.580   1.763   0.841
 1560TIP3   OH2 4622   4.670   7.263   4.066
 1560TIP3    H1 4623   4.673   7.186   4.010
 1560TIP3    H2 4624   4.595   7.248   4.124
 1561TIP3   OH2 4625   4.300   5.488   3.347
 1561TIP3    H1 4626   4.362   5.558   3.329
 1561TIP3    H2 4627   4.354   5.409   3.354
 1562TIP3   OH2 4628   7.109   2.269   4.113
 1562TIP3    H1 4629   7.097   2.187   4.161
 1562TIP3    H2 4630   7.203   2.284   4.113
 1563TIP3   OH2 4631   3.104   4.403   4.668
 1563TIP3    H1 4632   3.048   4.326   4.673
 1563TIP3    H2 4633   3.120   4.427   4.759
 1564TIP3   OH2 4634   5.512   3.118   5.437
 1564TIP3    H1 4635   5.478   3.049   5.380
 1564TIP3    H2 4636   5.441   3.182   5.443
 1565TIP3   OH2 4637   7.861   0.950   1.836
 1565TIP3    H1 4638   7.781   0.917   1.796
 1565TIP3    H2 4639   7.831   0.999   1.913
 1566TIP3   OH2 4640   2.346   2.736   5.693
 1566TIP3    H1 4641   2.288   2.780   5.631
 1566TIP3    H2 4642   2.389   2.667   5.641
 1567TIP3   OH2 4643   2.329   4.568   4.189
 1567TIP3    H1 4644   2.361   4.559   4.279
 1567TIP3    H2 4645   2.344   4.660   4.167
 1568TIP3   OH2 4646   2.114   7.117   0.751
 1568TIP3    H1 4647   2.075   7.080   0.672
 1568TIP3    H2 4648   2.205   7.131   0.729
 1569TIP3   OH2 4649   4.465   2.252   6.416
 1569TIP3    H1 4650   4.528   2.324   6.417
 1569TIP3    H2 4651   4.454   2.228   6.507
 1570TIP3   OH2 4652   5.113   5.461   4.332
 1570TIP3    H1 4653   5.198   5.503   4.326
 1570TIP3    H2 4654   5.120   5.403   4.408
 1571TIP3   OH2 4655   0.240   0.149   2.723
 1571TIP3    H1 4656   0.327   0.186   2.731
 1571TIP3    H2 4657   0.221   0.152   2.629
 1572TIP3   OH2 4658   6.030   2.256   0.967
 1572TIP3    H1 4659   5.937   2.263   0.948
 1572TIP3    H2 4660   6.035   2.200   1.044
 1573TIP3   OH2 4661   5.141   6.042   0.522
 1573TIP3    H1 4662   5.189   5.961   0.541
 1573TIP3    H2 4663   5.153   6.096   0.600
 1574TIP3   OH2 4664   1.468   0.108   4.722
 1574TIP3    H1 4665   1.541   0.072   4.773
 1574TIP3    H2 4666   1.485   0.203   4.721
 1575TIP3   OH2 4667   1.953   7.015   4.165
 1575TIP3    H1 4668   1.980   7.061   4.086
 1575TIP3    H2 4669   1.979   7.072   4.237
 1576TIP3   OH2 4670   2.353   6.977   2.485
 1576TIP3    H1 4671   2.422   6.964   2.421
 1576TIP3    H2 4672   2.321   7.066   2.469
 1577TIP3   OH2 4673   3.328   1.347   0.778
 1577TIP3    H1 4674   3.256   1.403   0.808
 1577TIP3    H2 4675   3.407   1.398   0.796
 1578TIP3   OH2 4676   4.420   2.137   2.730
 1578TIP3    H1 4677   4.336   2.168   2.698
 1578TIP3    H2 4678   4.434   2.186   2.812
 1579TIP3   OH2 4679   4.962   3.244   5.983
 1579TIP3    H1 4680   4.919   3.265   5.900
 1579TIP3    H2 4681   5.004   3.325   6.010
 1580TIP3   OH2 4682   3.391   0.404   0.277
 1580TIP3    H1 4683   3.440   0.479   0.242
 1580TIP3    H2 4684   3.342   0.370   0.202
 1581TIP3   OH2 4685   5.624   6.688   6.343
 1581TIP3    H1 4686   5.632   6.593   6.343
 1581TIP3    H2 4687   5.584   6.709   6.259
 1582TIP3   OH2 4688   1.527   5.325   5.923
 1582TIP3    H1 4689   1.457   5.261   5.908
 1582TIP3    H2 4690   1.488   5.391   5.980
 1583TIP3   OH2 4691   7.966   6.518   2.792
 1583TIP3    H1 4692   7.903   6.583   2.761
 1583TIP3    H2 4693   8.017   6.564   2.858
 1584TIP3   OH2 4694   2.020   3.290   5.470
 1584TIP3    H1 4695   2.020   3.372   5.520
 1584TIP3    H2 4696   1.968   3.310   5.392
 1585TIP3   OH2 4697   4.603   1.008   3.289
 1585TIP3    H1 4698   4.590   0.980   3.380
 1585TIP3    H2 4699   4.542   0.954   3.239
 1586TIP3   OH2 4700   4.161   7.372   1.804
 1586TIP3    H1 4701   4.135   7.433   1.736
 1586TIP3    H2 4702   4.124   7.288   1.778
 1587TIP3   OH2 4703   0.634   5.838   3.521
 1587TIP3    H1 4704   0.588   5.765   3.480
 1587TIP3    H2 4705   0.613   5.914   3.466
 1588TIP3   OH2 4706   8.110   4.778   6.253
 1588TIP3    H1 4707   8.115   4.690   6.292
 1588TIP3    H2 4708   8.096   4.836   6.327
 1589TIP3   OH2 4709   2.048   3.769   3.123
 1589TIP3    H1 4710   2.030   3.788   3.031
 1589TIP3    H2 4711   1.990   3.695   3.144
 1590TIP3   OH2 4712   5.041   5.815   0.838
 1590TIP3    H1 4713   5.060   5.759   0.913
 1590TIP3    H2 4714   4.952   5.790   0.811
 1591TIP3   OH2 4715   2.824   6.155   1.893
 1591TIP3    H1 4716   2.733   6.136   1.918
 1591TIP3    H2 4717   2.859   6.203   1.968
 1592TIP3   OH2 4718   0.145   2.996   5.270
 1592TIP3    H1 4719   0.058   2.980   5.232
 1592TIP3    H2 4720   0.128   3.020   5.361
 1593TIP3   OH2 4721   1.236   7.719   3.710
 1593TIP3    H1 4722   1.172   7.782   3.676
 1593TIP3    H2 4723   1.237   7.735   3.805
 1594TIP3   OH2 4724   5.837   1.524   3.344
 1594TIP3    H1 4725   5.792   1.442   3.365
 1594TIP3    H2 4726   5.820   1.538   3.251
 1595TIP3   OH2 4727   7.449   5.369   6.762
 1595TIP3    H1 4728   7.415   5.314   6.691
 1595TIP3    H2 4729   7.386   5.357   6.834
 1596TIP3   OH2 4730   5.714   5.548   0.891
 1596TIP3    H1 4731   5.762   5.609   0.947
 1596TIP3    H2 4732   5.780   5.515   0.830
 1597TIP3   OH2 4733   6.458   5.388   1.004
 1597TIP3    H1 4734   6.400   5.363   1.076
 1597TIP3    H2 4735   6.400   5.423   0.937
 1598TIP3   OH2 4736   7.660   5.921   3.476
 1598TIP3    H1 4737   7.640   5.959   3.390
 1598TIP3    H2 4738   7.754   5.937   3.488
 1599TIP3   OH2 4739   1.338   6.613   3.864
 1599TIP3    H1 4740   1.247   6.635   3.884
 1599TIP3    H2 4741   1.378   6.598   3.949
 1600TIP3   OH2 4742   5.652   7.074   3.237
 1600TIP3    H1 4743   5.681   7.149   3.184
 1600TIP3    H2 4744   5.730   7.044   3.282
 1601TIP3   OH2 4745   0.140   3.081   5.543
 1601TIP3    H1 4746   0.089   3.133   5.606
 1601TIP3    H2 4747   0.213   3.138   5.519
 1602TIP3   OH2 4748   4.944   1.356   4.423
 1602TIP3    H1 4749   5.021   1.411   4.411
 1602TIP3    H2 4750   4.967   1.272   4.384
 1603TIP3   OH2 4751   2.213   7.622   1.211
 1603TIP3    H1 4752   2.278   7.606   1.279
 1603TIP3    H2 4753   2.153   7.548   1.217
 1604TIP3   OH2 4754   0.810   4.592   3.178
 1604TIP3    H1 4755   0.729   4.610   3.129
 1604TIP3    H2 4756   0.785   4.605   3.270
 1605TIP3   OH2 4757   2.752   3.919   3.736
 1605TIP3    H1 4758   2.797   4.003   3.739
 1605TIP3    H2 4759   2.662   3.939   3.763
 1606TIP3   OH2 4760   2.664   5.366   1.408
 1606TIP3    H1 4761   2.727   5.426   1.368
 1606TIP3    H2 4762   2.583   5.417   1.414
 1607TIP3   OH2 4763   8.221   3.721   2.804
 1607TIP3    H1 4764   8.174   3.645   2.770
 1607TIP3    H2 4765   8.160   3.762   2.865
 1608TIP3   OH2 4766   1.277   4.462   6.677
 1608TIP3    H1 4767   1.220   4.392   6.645
 1608TIP3    H2 4768   1.343   4.472   6.608
 1609TIP3   OH2 4769   3.476   4.893   1.841
 1609TIP3    H1 4770   3.519   4.813   1.872
 1609TIP3    H2 4771   3.534   4.963   1.869
 1610TIP3   OH2 4772   4.182   2.036   3.911
 1610TIP3    H1 4773   4.272   2.065   3.897
 1610TIP3    H2 4774   4.184   1.991   3.996
 1611TIP3   OH2 4775   5.512   5.314   3.575
 1611TIP3    H1 4776   5.525   5.305   3.670
 1611TIP3    H2 4777   5.535   5.228   3.540
 1612TIP3   OH2 4778   0.762   5.995   4.558
 1612TIP3    H1 4779   0.747   6.063   4.624
 1612TIP3    H2 4780   0.823   5.934   4.599
 1613TIP3   OH2 4781   6.824   2.435   5.947
 1613TIP3    H1 4782   6.889   2.486   5.996
 1613TIP3    H2 4783   6.741   2.481   5.963
 1614TIP3   OH2 4784   5.419   1.414   6.735
 1614TIP3    H1 4785   5.373   1.401   6.653
 1614TIP3    H2 4786   5.409   1.508   6.753
 1615TIP3   OH2 4787   2.058   2.135   0.482
 1615TIP3    H1 4788   2.013   2.058   0.517
 1615TIP3    H2 4789   2.004   2.162   0.408
 1616TIP3   OH2 4790   1.614   5.411   1.631
 1616TIP3    H1 4791   1.563   5.467   1.689
 1616TIP3    H2 4792   1.550   5.351   1.593
 1617TIP3   OH2 4793   5.569   3.777   0.404
 1617TIP3    H1 4794   5.473   3.777   0.410
 1617TIP3    H2 4795   5.587   3.828   0.325
 1618TIP3   OH2 4796   7.170   3.117   0.512
 1618TIP3    H1 4797   7.216   3.034   0.497
 1618TIP3    H2 4798   7.079   3.091   0.528
 1619TIP3   OH2 4799   5.074   7.711   4.703
 1619TIP3    H1 4800   4.979   7.702   4.691
 1619TIP3    H2 4801   5.092   7.663   4.784
 1620TIP3   OH2 4802   2.414   7.803   0.750
 1620TIP3    H1 4803   2.410   7.717   0.707
 1620TIP3    H2 4804   2.464   7.858   0.689
 1621TIP3   OH2 4805   5.913   3.262   5.079
 1621TIP3    H1 4806   5.973   3.208   5.029
 1621TIP3    H2 4807   5.832   3.211   5.084
 1622TIP3   OH2 4808   0.298   1.409   2.568
 1622TIP3    H1 4809   0.246   1.473   2.616
 1622TIP3    H2 4810   0.249   1.396   2.486
 1623TIP3   OH2 4811   0.517   1.000   5.560
 1623TIP3    H1 4812   0.575   1.037   5.627
 1623TIP3    H2 4813   0.538   0.907   5.559
 1624TIP3   OH2 4814   6.212   3.493   4.840
 1624TIP3    H1 4815   6.174   3.409   4.814
 1624TIP3    H2 4816   6.296   3.470   4.880
 1625TIP3   OH2 4817   7.364   6.369   1.147
 1625TIP3    H1 4818   7.295   6.328   1.198
 1625TIP3    H2 4819   7.355   6.333   1.059
 1626TIP3   OH2 4820   3.330   4.892   5.253
 1626TIP3    H1 4821   3.401   4.842   5.293
 1626TIP3    H2 4822   3.255   4.879   5.310
 1627TIP3   OH2 4823   5.324   2.282   6.117
 1627TIP3    H1 4824   5.282   2.267   6.032
 1627TIP3    H2 4825   5.416   2.262   6.101
 1628TIP3   OH2 4826   2.772   0.580   3.178
 1628TIP3    H1 4827   2.817   0.651   3.132
 1628TIP3    H2 4828   2.818   0.501   3.152
 1629TIP3   OH2 4829   0.270   1.882   5.027
 1629TIP3    H1 4830   0.353   1.925   5.009
 1629TIP3    H2 4831   0.244   1.915   5.113
 1630TIP3   OH2 4832   3.141   2.113   1.795
 1630TIP3    H1 4833   3.186   2.064   1.726
 1630TIP3    H2 4834   3.092   2.181   1.749
 1631TIP3   OH2 4835   0.438   0.814   1.599
 1631TIP3    H1 4836   0.456   0.908   1.597
 1631TIP3    H2 4837   0.425   0.790   1.508
 1632TIP3   OH2 4838   7.361   1.460   0.917
 1632TIP3    H1 4839   7.272   1.475   0.887
 1632TIP3    H2 4840   7.414   1.461   0.837
 1633TIP3   OH2 4841   3.099   6.948   0.732
 1633TIP3    H1 4842   3.192   6.970   0.728
 1633TIP3    H2 4843   3.058   7.005   0.667
 1634TIP3   OH2 4844   8.005   6.363   3.125
 1634TIP3    H1 4845   7.917   6.329   3.143
 1634TIP3    H2 4846   8.057   6.333   3.199
 1635TIP3   OH2 4847   3.421   0.836   0.939
 1635TIP3    H1 4848   3.387   0.896   0.873
 1635TIP3    H2 4849   3.464   0.892   1.003
 1636TIP3   OH2 4850   5.973   1.391   4.330
 1636TIP3    H1 4851   6.068   1.384   4.343
 1636TIP3    H2 4852   5.939   1.418   4.415
 1637TIP3   OH2 4853   8.126   5.443   2.944
 1637TIP3    H1 4854   8.219   5.445   2.922
 1637TIP3    H2 4855   8.115   5.363   2.996
 1638TIP3   OH2 4856   2.418   2.288   3.696
 1638TIP3    H1 4857   2.447   2.367   3.652
 1638TIP3    H2 4858   2.499   2.244   3.722
 1639TIP3   OH2 4859   3.735  -0.024   0.150
 1639TIP3    H1 4860   3.661   0.025   0.115
 1639TIP3    H2 4861   3.757   0.020   0.232
 1640TIP3   OH2 4862   2.714   1.037   5.870
 1640TIP3    H1 4863   2.641   1.034   5.933
 1640TIP3    H2 4864   2.776   0.971   5.902
 1641TIP3   OH2 4865   3.639   0.060   3.816
 1641TIP3    H1 4866   3.678  -0.018   3.855
 1641TIP3    H2 4867   3.668   0.132   3.872
 1642TIP3   OH2 4868   6.619   0.132   4.448
 1642TIP3    H1 4869   6.560   0.163   4.380
 1642TIP3    H2 4870   6.682   0.076   4.402
 1643TIP3   OH2 4871   3.514   1.022   1.102
 1643TIP3    H1 4872   3.470   1.105   1.119
 1643TIP3    H2 4873   3.521   0.981   1.188
 1644TIP3   OH2 4874   5.392   5.915   5.158
 1644TIP3    H1 4875   5.319   5.908   5.096
 1644TIP3    H2 4876   5.445   5.838   5.141
 1645TIP3   OH2 4877   7.367   7.850   3.964
 1645TIP3    H1 4878   7.348   7.835   4.056
 1645TIP3    H2 4879   7.373   7.945   3.955
 1646TIP3   OH2 4880   7.914   3.532   3.643
 1646TIP3    H1 4881   7.834   3.562   3.601
 1646TIP3    H2 4882   7.886   3.498   3.728
 1647TIP3   OH2 4883   7.674   1.972   3.208
 1647TIP3    H1 4884   7.621   2.038   3.163
 1647TIP3    H2 4885   7.642   1.889   3.172
 1648TIP3   OH2 4886   0.566   6.441   3.651
 1648TIP3    H1 4887   0.592   6.433   3.559
 1648TIP3    H2 4888   0.574   6.353   3.686
 1649TIP3   OH2 4889   7.343   6.411   1.589
 1649TIP3    H1 4890   7.393   6.435   1.511
 1649TIP3    H2 4891   7.385   6.332   1.622
 1650TIP3   OH2 4892   4.503   1.287   0.857
 1650TIP3    H1 4893   4.518   1.199   0.891
 1650TIP3    H2 4894   4.552   1.290   0.775
 1651TIP3   OH2 4895   7.446   0.864   3.699
 1651TIP3    H1 4896   7.366   0.897   3.739
 1651TIP3    H2 4897   7.514   0.925   3.726
 1652TIP3   OH2 4898  -0.053   5.690   5.319
 1652TIP3    H1 4899  -0.070   5.761   5.258
 1652TIP3    H2 4900   0.033   5.656   5.294
 1653TIP3   OH2 4901   7.942   4.094   0.448
 1653TIP3    H1 4902   7.898   4.093   0.363
 1653TIP3    H2 4903   7.871   4.081   0.512
 1654TIP3   OH2 4904   4.734   5.952   4.484
 1654TIP3    H1 4905   4.764   5.916   4.401
 1654TIP3    H2 4906   4.677   6.025   4.460
 1655TIP3   OH2 4907   5.855   6.699   5.672
 1655TIP3    H1 4908   5.765   6.731   5.669
 1655TIP3    H2 4909   5.898   6.752   5.740
 1656TIP3   OH2 4910   5.452   6.818   0.476
 1656TIP3    H1 4911   5.465   6.912   0.486
 1656TIP3    H2 4912   5.379   6.811   0.415
 1657TIP3   OH2 4913   4.682   4.465   0.529
 1657TIP3    H1 4914   4.630   4.528   0.579
 1657TIP3    H2 4915   4.762   4.454   0.580
 1658TIP3   OH2 4916   2.921   0.073   6.673
 1658TIP3    H1 4917   2.969   0.016   6.614
 1658TIP3    H2 4918   2.910   0.154   6.624
 1659TIP3   OH2 4919   0.382   5.842   5.208
 1659TIP3    H1 4920   0.330   5.834   5.288
 1659TIP3    H2 4921   0.433   5.761   5.204
 1660TIP3   OH2 4922   7.077   0.644   2.875
 1660TIP3    H1 4923   7.145   0.578   2.873
 1660TIP3    H2 4924   7.118   0.722   2.838
 1661TIP3   OH2 4925   2.080   0.511   6.124
 1661TIP3    H1 4926   2.112   0.440   6.180
 1661TIP3    H2 4927   1.991   0.485   6.101
 1662TIP3   OH2 4928   5.069   6.771   0.544
 1662TIP3    H1 4929   5.058   6.676   0.540
 1662TIP3    H2 4930   4.995   6.806   0.495
 1663TIP3   OH2 4931   4.045   3.272   1.763
 1663TIP3    H1 4932   3.998   3.191   1.747
 1663TIP3    H2 4933   3.992   3.318   1.828
 1664TIP3   OH2 4934   2.937   4.903   5.668
 1664TIP3    H1 4935   2.863   4.921   5.610
 1664TIP3    H2 4936   3.012   4.895   5.609
 1665TIP3   OH2 4937   0.090   5.198   4.451
 1665TIP3    H1 4938   0.150   5.268   4.477
 1665TIP3    H2 4939   0.049   5.170   4.533
 1666TIP3   OH2 4940   3.439   2.717   1.261
 1666TIP3    H1 4941   3.381   2.689   1.332
 1666TIP3    H2 4942   3.457   2.809   1.280
 1667TIP3   OH2 4943   5.975   6.181   0.163
 1667TIP3    H1 4944   6.034   6.149   0.094
 1667TIP3    H2 4945   5.926   6.103   0.190
 1668TIP3   OH2 4946   6.507   1.803   2.999
 1668TIP3    H1 4947   6.557   1.798   3.080
 1668TIP3    H2 4948   6.442   1.733   3.006
 1669TIP3   OH2 4949   0.251   2.508   0.433
 1669TIP3    H1 4950   0.283   2.543   0.516
 1669TIP3    H2 4951   0.287   2.420   0.427
 1670TIP3   OH2 4952   0.136   0.382   3.017
 1670TIP3    H1 4953   0.090   0.360   2.935
 1670TIP3    H2 4954   0.174   0.468   3.000
 1671TIP3   OH2 4955   3.325   6.973   5.068
 1671TIP3    H1 4956   3.250   6.953   5.124
 1671TIP3    H2 4957   3.376   7.037   5.118
 1672TIP3   OH2 4958   6.371   4.358   6.733
 1672TIP3    H1 4959   6.343   4.429   6.791
 1672TIP3    H2 4960   6.319   4.370   6.653
 1673TIP3   OH2 4961   0.300   3.108   5.075
 1673TIP3    H1 4962   0.236   3.179   5.069
 1673TIP3    H2 4963   0.263   3.048   5.140
 1674TIP3   OH2 4964   3.177   3.160   4.621
 1674TIP3    H1 4965   3.253   3.112   4.653
 1674TIP3    H2 4966   3.210   3.248   4.603
 1675TIP3   OH2 4967   2.099   6.825   3.940
 1675TIP3    H1 4968   2.082   6.919   3.928
 1675TIP3    H2 4969   2.130   6.796   3.854
 1676TIP3   OH2 4970   7.148   4.916   1.379
 1676TIP3    H1 4971   7.220   4.951   1.431
 1676TIP3    H2 4972   7.088   4.990   1.367
 1677TIP3   OH2 4973   5.404   2.533   0.679
 1677TIP3    H1 4974   5.461   2.590   0.627
 1677TIP3    H2 4975   5.355   2.482   0.614
 1678TIP3   OH2 4976   1.915   2.694   3.818
 1678TIP3    H1 4977   1.831   2.682   3.773
 1678TIP3    H2 4978   1.980   2.666   3.754
 1679TIP3   OH2 4979   2.252   6.546   5.227
 1679TIP3    H1 4980   2.259   6.634   5.265
 1679TIP3    H2 4981   2.165   6.516   5.254
 1680TIP3   OH2 4982   1.418   0.004   0.067
 1680TIP3    H1 4983   1.413  -0.036   0.154
 1680TIP3    H2 4984   1.334   0.051   0.058
 1681TIP3   OH2 4985   1.792   0.938   1.588
 1681TIP3    H1 4986   1.786   0.900   1.676
 1681TIP3    H2 4987   1.871   0.899   1.551
 1682TIP3   OH2 4988   7.848   7.084   5.233
 1682TIP3    H1 4989   7.851   7.085   5.137
 1682TIP3    H2 4990   7.940   7.088   5.259
 1683TIP3   OH2 4991   1.519   3.153   5.058
 1683TIP3    H1 4992   1.438   3.199   5.079
 1683TIP3    H2 4993   1.498   3.060   5.068
 1684TIP3   OH2 4994   4.468   6.965   6.152
 1684TIP3    H1 4995   4.541   6.987   6.210
 1684TIP3    H2 4996   4.505   6.902   6.090
 1685TIP3   OH2 4997   5.731   4.896   1.442
 1685TIP3    H1 4998   5.743   4.836   1.515
 1685TIP3    H2 4999   5.811   4.887   1.390
 1686TIP3   OH2 5000   6.904   0.027   5.850
 1686TIP3    H1 5001   6.964   0.101   5.839
 1686TIP3    H2 5002   6.870   0.010   5.762
 1687TIP3   OH2 5003   6.728   0.034   3.829
 1687TIP3    H1 5004   6.674   0.039   3.750
 1687TIP3    H2 5005   6.816   0.058   3.800
 1688TIP3   OH2 5006   7.574   5.828   0.135
 1688TIP3    H1 5007   7.601   5.738   0.118
 1688TIP3    H2 5008   7.548   5.828   0.227
 1689TIP3   OH2 5009   2.487   5.014   4.953
 1689TIP3    H1 5010   2.555   5.080   4.936
 1689TIP3    H2 5011   2.404   5.062   4.944
 1690TIP3   OH2 5012   6.040   0.897   1.856
 1690TIP3    H1 5013   6.070   0.869   1.769
 1690TIP3    H2 5014   6.106   0.863   1.916
 1691TIP3   OH2 5015   7.303   6.695   1.559
 1691TIP3    H1 5016   7.384   6.740   1.583
 1691TIP3    H2 5017   7.310   6.610   1.602
 1692TIP3   OH2 5018   2.037   2.806   4.814
 1692TIP3    H1 5019   2.065   2.800   4.723
 1692TIP3    H2 5020   1.955   2.855   4.811
 1693TIP3   OH2 5021   5.076   2.738   0.677
 1693TIP3    H1 5022   5.073   2.642   0.683
 1693TIP3    H2 5023   5.146   2.763   0.738
 1694TIP3   OH2 5024   3.193   3.630   4.871
 1694TIP3    H1 5025   3.145   3.556   4.907
 1694TIP3    H2 5026   3.285   3.606   4.877
 1695TIP3   OH2 5027   0.314   5.129   5.829
 1695TIP3    H1 5028   0.298   5.041   5.863
 1695TIP3    H2 5029   0.266   5.132   5.746
 1696TIP3   OH2 5030   3.949   5.991   4.302
 1696TIP3    H1 5031   3.921   6.021   4.388
 1696TIP3    H2 5032   3.869   5.994   4.249
 1697TIP3   OH2 5033   3.837   2.573   5.198
 1697TIP3    H1 5034   3.838   2.502   5.133
 1697TIP3    H2 5035   3.803   2.649   5.151
 1698TIP3   OH2 5036   8.099   3.108   2.521
 1698TIP3    H1 5037   8.129   3.019   2.539
 1698TIP3    H2 5038   8.179   3.160   2.514
 1699TIP3   OH2 5039   4.769   6.776   2.004
 1699TIP3    H1 5040   4.783   6.684   2.025
 1699TIP3    H2 5041   4.827   6.823   2.064
 1700TIP3   OH2 5042   5.018   5.796   4.665
 1700TIP3    H1 5043   5.060   5.787   4.751
 1700TIP3    H2 5044   4.957   5.869   4.676
 1701TIP3   OH2 5045   4.586   4.819   5.515
 1701TIP3    H1 5046   4.651   4.753   5.535
 1701TIP3    H2 5047   4.627   4.875   5.449
 1702TIP3   OH2 5048   6.622   3.042   3.580
 1702TIP3    H1 5049   6.702   3.072   3.538
 1702TIP3    H2 5050   6.651   3.002   3.662
 1703TIP3   OH2 5051   3.700   3.247   0.361
 1703TIP3    H1 5052   3.715   3.313   0.293
 1703TIP3    H2 5053   3.715   3.294   0.443
 1704TIP3   OH2 5054   6.421   1.364   0.255
 1704TIP3    H1 5055   6.412   1.452   0.217
 1704TIP3    H2 5056   6.340   1.350   0.303
 1705TIP3   OH2 5057   5.590   0.111   2.319
 1705TIP3    H1 5058   5.601   0.109   2.224
 1705TIP3    H2 5059   5.539   0.032   2.338
 1706TIP3   OH2 5060   5.300   6.864   0.703
 1706TIP3    H1 5061   5.208   6.864   0.679
 1706TIP3    H2 5062   5.346   6.840   0.622
 1707TIP3   OH2 5063   0.242   6.088   0.301
 1707TIP3    H1 5064   0.324   6.132   0.278
 1707TIP3    H2 5065   0.237   6.014   0.241
 1708TIP3   OH2 5066   6.197   0.721   4.327
 1708TIP3    H1 5067   6.193   0.640   4.276
 1708TIP3    H2 5068   6.239   0.696   4.409
 1709TIP3   OH2 5069   5.771   5.685   6.602
 1709TIP3    H1 5070   5.845   5.658   6.656
 1709TIP3    H2 5071   5.717   5.739   6.660
 1710TIP3   OH2 5072   1.983   6.052   4.983
 1710TIP3    H1 5073   2.044   6.088   5.047
 1710TIP3    H2 5074   2.024   5.971   4.953
 1711TIP3   OH2 5075   4.673   5.594   2.158
 1711TIP3    H1 5076   4.712   5.675   2.191
 1711TIP3    H2 5077   4.728   5.569   2.084
 1712TIP3   OH2 5078   5.993   1.226   6.762
 1712TIP3    H1 5079   6.049   1.303   6.773
 1712TIP3    H2 5080   6.053   1.152   6.756
 1713TIP3   OH2 5081   3.028   2.085   2.421
 1713TIP3    H1 5082   2.997   2.011   2.369
 1713TIP3    H2 5083   3.123   2.075   2.424
 1714TIP3   OH2 5084   4.489   7.780   2.328
 1714TIP3    H1 5085   4.566   7.836   2.342
 1714TIP3    H2 5086   4.494   7.715   2.398
 1715TIP3   OH2 5087   4.433   2.629   3.064
 1715TIP3    H1 5088   4.448   2.589   3.150
 1715TIP3    H2 5089   4.420   2.722   3.083
 1716TIP3   OH2 5090   0.766   4.747   1.476
 1716TIP3    H1 5091   0.673   4.727   1.467
 1716TIP3    H2 5092   0.778   4.758   1.571
 1717TIP3   OH2 5093   2.777   3.335   4.515
 1717TIP3    H1 5094   2.767   3.378   4.430
 1717TIP3    H2 5095   2.858   3.285   4.508
 1718TIP3   OH2 5096   4.335   0.872   2.710
 1718TIP3    H1 5097   4.343   0.820   2.790
 1718TIP3    H2 5098   4.420   0.867   2.668
 1719TIP3   OH2 5099   0.796   0.477   2.991
 1719TIP3    H1 5100   0.855   0.522   2.930
 1719TIP3    H2 5101   0.854   0.426   3.048
 1720TIP3   OH2 5102   0.527   5.579   5.185
 1720TIP3    H1 5103   0.621   5.581   5.202
 1720TIP3    H2 5104   0.489   5.541   5.264
 1721TIP3   OH2 5105   1.357   5.338   4.209
 1721TIP3    H1 5106   1.291   5.301   4.150
 1721TIP3    H2 5107   1.425   5.271   4.214
 1722TIP3   OH2 5108   3.873   5.516   6.047
 1722TIP3    H1 5109   3.806   5.582   6.029
 1722TIP3    H2 5110   3.933   5.559   6.108
 1723TIP3   OH2 5111   5.009   6.808   3.735
 1723TIP3    H1 5112   4.985   6.814   3.642
 1723TIP3    H2 5113   4.927   6.787   3.779
 1724TIP3   OH2 5114   1.270   2.370   3.717
 1724TIP3    H1 5115   1.337   2.402   3.776
 1724TIP3    H2 5116   1.230   2.296   3.764
 1725TIP3   OH2 5117   6.571   0.801   1.676
 1725TIP3    H1 5118   6.638   0.847   1.626
 1725TIP3    H2 5119   6.529   0.743   1.613
 1726TIP3   OH2 5120   4.254   7.248   6.171
 1726TIP3    H1 5121   4.172   7.213   6.137
 1726TIP3    H2 5122   4.249   7.342   6.152
 1727TIP3   OH2 5123   3.773   4.476   1.535
 1727TIP3    H1 5124   3.752   4.432   1.453
 1727TIP3    H2 5125   3.858   4.517   1.519
 1728TIP3   OH2 5126   0.396   1.599   5.812
 1728TIP3    H1 5127   0.395   1.601   5.907
 1728TIP3    H2 5128   0.326   1.539   5.788
 1729TIP3   OH2 5129   5.723   1.547   2.947
 1729TIP3    H1 5130   5.711   1.590   3.031
 1729TIP3    H2 5131   5.634   1.525   2.918
 1730TIP3   OH2 5132   5.139   1.339   2.522
 1730TIP3    H1 5133   5.135   1.365   2.430
 1730TIP3    H2 5134   5.071   1.273   2.531
 1731TIP3   OH2 5135   2.958   2.280   5.456
 1731TIP3    H1 5136   2.996   2.361   5.490
 1731TIP3    H2 5137   2.895   2.310   5.391
 1732TIP3   OH2 5138   7.083   4.122   3.611
 1732TIP3    H1 5139   7.123   4.137   3.696
 1732TIP3    H2 5140   6.995   4.157   3.619
 1733TIP3   OH2 5141   1.033   2.740   1.380
 1733TIP3    H1 5142   1.043   2.817   1.435
 1733TIP3    H2 5143   1.108   2.685   1.403
 1734TIP3   OH2 5144   5.489   3.057   0.301
 1734TIP3    H1 5145   5.458   3.011   0.379
 1734TIP3    H2 5146   5.486   2.991   0.232
 1735TIP3   OH2 5147   5.122   5.534   0.684
 1735TIP3    H1 5148   5.096   5.448   0.653
 1735TIP3    H2 5149   5.215   5.541   0.663
 1736TIP3   OH2 5150   7.081   6.587   3.181
 1736TIP3    H1 5151   7.000   6.586   3.231
 1736TIP3    H2 5152   7.065   6.529   3.107
 1737TIP3   OH2 5153   7.011   4.684   1.604
 1737TIP3    H1 5154   7.079   4.740   1.567
 1737TIP3    H2 5155   6.929   4.720   1.572
 1738TIP3   OH2 5156   0.086   3.030   4.542
 1738TIP3    H1 5157   0.146   2.956   4.552
 1738TIP3    H2 5158   0.068   3.034   4.448
 1739TIP3   OH2 5159   3.530   7.815   2.689
 1739TIP3    H1 5160   3.612   7.770   2.708
 1739TIP3    H2 5161   3.473   7.794   2.763
 1740TIP3   OH2 5162   7.416   5.496   1.000
 1740TIP3    H1 5163   7.366   5.415   1.010
 1740TIP3    H2 5164   7.489   5.471   0.944
 1741TIP3   OH2 5165   4.990   6.813   2.186
 1741TIP3    H1 5166   5.013   6.737   2.238
 1741TIP3    H2 5167   5.072   6.840   2.144
 1742TIP3   OH2 5168   3.880   0.734   4.884
 1742TIP3    H1 5169   3.880   0.641   4.905
 1742TIP3    H2 5170   3.956   0.746   4.827
 1743TIP3   OH2 5171   7.459   5.104   6.298
 1743TIP3    H1 5172   7.527   5.037   6.307
 1743TIP3    H2 5173   7.459   5.149   6.383
 1744TIP3   OH2 5174   8.214   0.597   6.423
 1744TIP3    H1 5175   8.249   0.686   6.417
 1744TIP3    H2 5176   8.129   0.602   6.379
 1745TIP3   OH2 5177   2.651   7.153   3.917
 1745TIP3    H1 5178   2.705   7.113   3.984
 1745TIP3    H2 5179   2.596   7.215   3.964
 1746TIP3   OH2 5180   1.633   1.398   5.237
 1746TIP3    H1 5181   1.552   1.449   5.247
 1746TIP3    H2 5182   1.636   1.342   5.314
 1747TIP3   OH2 5183   3.293   4.483   6.438
 1747TIP3    H1 5184   3.200   4.464   6.454
 1747TIP3    H2 5185   3.304   4.471   6.343
 1748TIP3   OH2 5186   6.632   0.915   1.100
 1748TIP3    H1 5187   6.620   0.820   1.105
 1748TIP3    H2 5188   6.685   0.928   1.021
 1749TIP3   OH2 5189   4.454   4.189   4.487
 1749TIP3    H1 5190   4.508   4.114   4.513
 1749TIP3    H2 5191   4.515   4.247   4.442
 1750TIP3   OH2 5192   6.217   1.830   4.120
 1750TIP3    H1 5193   6.159   1.885   4.173
 1750TIP3    H2 5194   6.261   1.892   4.061
 1751TIP3   OH2 5195   4.959   2.353   4.291
 1751TIP3    H1 5196   4.924   2.427   4.241
 1751TIP3    H2 5197   4.967   2.283   4.227
 1752TIP3   OH2 5198   1.389   6.756   2.325
 1752TIP3    H1 5199   1.426   6.683   2.276
 1752TIP3    H2 5200   1.347   6.715   2.401
 1753TIP3   OH2 5201   7.589   6.174   0.541
 1753TIP3    H1 5202   7.511   6.222   0.570
 1753TIP3    H2 5203   7.636   6.237   0.486
 1754TIP3   OH2 5204   5.449   6.394   1.737
 1754TIP3    H1 5205   5.543   6.411   1.747
 1754TIP3    H2 5206   5.432   6.319   1.793
 1755TIP3   OH2 5207   7.403   7.646   6.703
 1755TIP3    H1 5208   7.308   7.651   6.691
 1755TIP3    H2 5209   7.426   7.728   6.747
 1756TIP3   OH2 5210   6.872   0.616   3.078
 1756TIP3    H1 5211   6.937   0.653   3.020
 1756TIP3    H2 5212   6.912   0.618   3.165
 1757TIP3   OH2 5213   1.467   4.072   1.436
 1757TIP3    H1 5214   1.372   4.066   1.429
 1757TIP3    H2 5215   1.498   3.986   1.406
 1758TIP3   OH2 5216   1.611   5.280   4.667
 1758TIP3    H1 5217   1.693   5.329   4.671
 1758TIP3    H2 5218   1.566   5.316   4.591
 1759TIP3   OH2 5219   3.081   5.551   0.725
 1759TIP3    H1 5220   3.155   5.499   0.756
 1759TIP3    H2 5221   3.006   5.492   0.729
 1760TIP3   OH2 5222   0.488   7.254   6.364
 1760TIP3    H1 5223   0.552   7.322   6.342
 1760TIP3    H2 5224   0.527   7.173   6.332
 1761TIP3   OH2 5225   0.678   1.980   1.040
 1761TIP3    H1 5226   0.701   1.891   1.012
 1761TIP3    H2 5227   0.742   2.002   1.107
 1762TIP3   OH2 5228   6.103   6.751   1.108
 1762TIP3    H1 5229   6.015   6.715   1.114
 1762TIP3    H2 5230   6.134   6.725   1.022
 1763TIP3   OH2 5231   2.241   2.380   6.618
 1763TIP3    H1 5232   2.320   2.328   6.631
 1763TIP3    H2 5233   2.223   2.418   6.704
 1764TIP3   OH2 5234   4.247   1.857   4.701
 1764TIP3    H1 5235   4.170   1.898   4.662
 1764TIP3    H2 5236   4.306   1.841   4.627
 1765TIP3   OH2 5237   5.553   4.862   3.801
 1765TIP3    H1 5238   5.498   4.859   3.723
 1765TIP3    H2 5239   5.521   4.791   3.856
 1766TIP3   OH2 5240   4.542   5.799   3.717
 1766TIP3    H1 5241   4.546   5.704   3.710
 1766TIP3    H2 5242   4.482   5.826   3.647
 1767TIP3   OH2 5243   3.867   3.141   2.215
 1767TIP3    H1 5244   3.936   3.144   2.281
 1767TIP3    H2 5245   3.802   3.206   2.244
 1768TIP3   OH2 5246   5.166   7.354   0.985
 1768TIP3    H1 5247   5.214   7.280   1.022
 1768TIP3    H2 5248   5.074   7.325   0.986
 1769TIP3   OH2 5249   7.467   3.308   5.887
 1769TIP3    H1 5250   7.437   3.221   5.860
 1769TIP3    H2 5251   7.402   3.368   5.850
 1770TIP3   OH2 5252   0.212   4.874   1.545
 1770TIP3    H1 5253   0.141   4.937   1.549
 1770TIP3    H2 5254   0.246   4.881   1.456
 1771TIP3   OH2 5255   4.958   1.795   4.549
 1771TIP3    H1 5256   4.883   1.813   4.493
 1771TIP3    H2 5257   5.033   1.791   4.489
 1772TIP3   OH2 5258   3.956   2.681   3.322
 1772TIP3    H1 5259   3.982   2.755   3.267
 1772TIP3    H2 5260   3.870   2.706   3.356
 1773TIP3   OH2 5261   1.602   5.053   2.449
 1773TIP3    H1 5262   1.596   5.149   2.458
 1773TIP3    H2 5263   1.537   5.019   2.510
 1774TIP3   OH2 5264   4.061   1.424   6.211
 1774TIP3    H1 5265   4.047   1.490   6.143
 1774TIP3    H2 5266   3.994   1.359   6.195
 1775TIP3   OH2 5267   5.906   2.464   6.126
 1775TIP3    H1 5268   5.978   2.471   6.188
 1775TIP3    H2 5269   5.917   2.378   6.086
 1776TIP3   OH2 5270   4.519   6.162   4.032
 1776TIP3    H1 5271   4.513   6.237   3.972
 1776TIP3    H2 5272   4.496   6.086   3.978
 1777TIP3   OH2 5273   6.488   3.669   0.713
 1777TIP3    H1 5274   6.561   3.669   0.775
 1777TIP3    H2 5275   6.411   3.649   0.767
 1778TIP3   OH2 5276   6.999   0.729   6.619
 1778TIP3    H1 5277   7.033   0.746   6.707
 1778TIP3    H2 5278   6.911   0.695   6.634
 1779TIP3   OH2 5279   1.991   0.603   1.941
 1779TIP3    H1 5280   2.087   0.605   1.932
 1779TIP3    H2 5281   1.965   0.526   1.890
 1780TIP3   OH2 5282   5.651   3.975   0.164
 1780TIP3    H1 5283   5.568   4.022   0.164
 1780TIP3    H2 5284   5.685   3.986   0.076
 1781TIP3   OH2 5285   7.256   1.418   3.754
 1781TIP3    H1 5286   7.171   1.377   3.772
 1781TIP3    H2 5287   7.311   1.346   3.722
 1782TIP3   OH2 5288   7.026   2.629   0.396
 1782TIP3    H1 5289   7.085   2.629   0.320
 1782TIP3    H2 5290   6.962   2.560   0.376
 1783TIP3   OH2 5291   0.411   0.895   5.844
 1783TIP3    H1 5292   0.477   0.952   5.883
 1783TIP3    H2 5293   0.444   0.806   5.861
 1784TIP3   OH2 5294   2.347   3.184   1.779
 1784TIP3    H1 5295   2.303   3.227   1.706
 1784TIP3    H2 5296   2.414   3.246   1.807
 1785TIP3   OH2 5297   5.866   0.277   5.091
 1785TIP3    H1 5298   5.958   0.301   5.082
 1785TIP3    H2 5299   5.820   0.360   5.101
 1786TIP3   OH2 5300   6.979   3.915   0.540
 1786TIP3    H1 5301   6.891   3.883   0.524
 1786TIP3    H2 5302   6.969   3.977   0.612
 1787TIP3   OH2 5303   7.546   3.922   4.300
 1787TIP3    H1 5304   7.548   4.015   4.324
 1787TIP3    H2 5305   7.455   3.906   4.276
 1788TIP3   OH2 5306   7.715   1.427   5.417
 1788TIP3    H1 5307   7.783   1.394   5.357
 1788TIP3    H2 5308   7.762   1.446   5.498
 1789TIP3   OH2 5309   7.692   0.947   1.508
 1789TIP3    H1 5310   7.733   1.028   1.478
 1789TIP3    H2 5311   7.765   0.887   1.523
 1790TIP3   OH2 5312   4.384   5.931   6.123
 1790TIP3    H1 5313   4.397   5.873   6.048
 1790TIP3    H2 5314   4.291   5.955   6.119
 1791TIP3   OH2 5315   1.219   5.936   1.370
 1791TIP3    H1 5316   1.217   5.857   1.316
 1791TIP3    H2 5317   1.309   5.941   1.402
 1792TIP3   OH2 5318   4.295   2.793   3.736
 1792TIP3    H1 5319   4.330   2.802   3.824
 1792TIP3    H2 5320   4.230   2.864   3.728
 1793TIP3   OH2 5321   3.575   7.275   4.619
 1793TIP3    H1 5322   3.548   7.196   4.574
 1793TIP3    H2 5323   3.494   7.327   4.627
 1794TIP3   OH2 5324   7.247   2.331   4.481
 1794TIP3    H1 5325   7.231   2.401   4.544
 1794TIP3    H2 5326   7.217   2.251   4.525
 1795TIP3   OH2 5327   0.901   6.290   3.840
 1795TIP3    H1 5328   0.861   6.327   3.919
 1795TIP3    H2 5329   0.912   6.197   3.860
 1796TIP3   OH2 5330   3.930   2.087   5.748
 1796TIP3    H1 5331   3.999   2.022   5.734
 1796TIP3    H2 5332   3.947   2.120   5.837
 1797TIP3   OH2 5333   0.578   0.598   3.865
 1797TIP3    H1 5334   0.532   0.618   3.784
 1797TIP3    H2 5335   0.661   0.645   3.857
 1798TIP3   OH2 5336   0.314   5.178   3.728
 1798TIP3    H1 5337   0.389   5.223   3.688
 1798TIP3    H2 5338   0.352   5.130   3.801
 1799TIP3   OH2 5339   7.454   2.126   6.078
 1799TIP3    H1 5340   7.392   2.073   6.028
 1799TIP3    H2 5341   7.399   2.172   6.142
 1800TIP3   OH2 5342   7.133   7.022   4.617
 1800TIP3    H1 5343   7.070   7.088   4.645
 1800TIP3    H2 5344   7.107   6.943   4.664
 1801TIP3   OH2 5345   8.020   2.673   1.426
 1801TIP3    H1 5346   8.015   2.642   1.517
 1801TIP3    H2 5347   8.088   2.740   1.427
 1802TIP3   OH2 5348   3.936   5.127   0.008
 1802TIP3    H1 5349   3.926   5.042  -0.034
 1802TIP3    H2 5350   3.887   5.119   0.090
 1803TIP3   OH2 5351   6.120   1.166   2.253
 1803TIP3    H1 5352   6.041   1.129   2.214
 1803TIP3    H2 5353   6.181   1.175   2.179
 1804TIP3   OH2 5354   0.089   7.077   5.582
 1804TIP3    H1 5355   0.065   7.078   5.489
 1804TIP3    H2 5356   0.166   7.134   5.587
 1805TIP3   OH2 5357   5.862   2.892   4.793
 1805TIP3    H1 5358   5.840   2.962   4.854
 1805TIP3    H2 5359   5.854   2.932   4.706
 1806TIP3   OH2 5360   5.643   2.819   6.313
 1806TIP3    H1 5361   5.712   2.861   6.262
 1806TIP3    H2 5362   5.647   2.727   6.287
 1807TIP3   OH2 5363   7.591   6.018   6.766
 1807TIP3    H1 5364   7.584   5.944   6.826
 1807TIP3    H2 5365   7.681   6.015   6.734
 1808TIP3   OH2 5366   2.157   4.233   1.048
 1808TIP3    H1 5367   2.067   4.215   1.019
 1808TIP3    H2 5368   2.185   4.305   0.992
 1809TIP3   OH2 5369   8.055   4.813   4.943
 1809TIP3    H1 5370   7.969   4.777   4.967
 1809TIP3    H2 5371   8.076   4.874   5.014
 1810TIP3   OH2 5372   7.606   0.593   6.084
 1810TIP3    H1 5373   7.517   0.581   6.051
 1810TIP3    H2 5374   7.661   0.587   6.006
 1811TIP3   OH2 5375   1.980   0.900   3.099
 1811TIP3    H1 5376   2.011   0.831   3.042
 1811TIP3    H2 5377   2.057   0.955   3.116
 1812TIP3   OH2 5378   3.999   1.318   0.932
 1812TIP3    H1 5379   4.085   1.280   0.948
 1812TIP3    H2 5380   3.943   1.284   1.001
 1813TIP3   OH2 5381   1.626   6.075   3.691
 1813TIP3    H1 5382   1.601   6.154   3.643
 1813TIP3    H2 5383   1.619   6.101   3.783
 1814TIP3   OH2 5384   4.613   6.773   2.709
 1814TIP3    H1 5385   4.671   6.729   2.648
 1814TIP3    H2 5386   4.578   6.848   2.659
 1815TIP3   OH2 5387   6.908   0.723   3.833
 1815TIP3    H1 5388   6.887   0.780   3.907
 1815TIP3    H2 5389   6.903   0.781   3.757
 1816TIP3   OH2 5390   2.511   1.673   3.939
 1816TIP3    H1 5391   2.433   1.646   3.890
 1816TIP3    H2 5392   2.478   1.739   4.000
 1817TIP3   OH2 5393   5.378   3.309   1.854
 1817TIP3    H1 5394   5.297   3.259   1.863
 1817TIP3    H2 5395   5.436   3.275   1.922
 1818TIP3   OH2 5396   7.409   6.857   3.174
 1818TIP3    H1 5397   7.501   6.882   3.189
 1818TIP3    H2 5398   7.371   6.852   3.261
 1819TIP3   OH2 5399   2.010   5.950   5.279
 1819TIP3    H1 5400   1.943   5.908   5.225
 1819TIP3    H2 5401   1.962   5.982   5.356
 1820TIP3   OH2 5402   8.148   4.440   2.004
 1820TIP3    H1 5403   8.094   4.370   2.041
 1820TIP3    H2 5404   8.126   4.440   1.911
 1821TIP3   OH2 5405   2.800   4.009   1.808
 1821TIP3    H1 5406   2.879   4.010   1.754
 1821TIP3    H2 5407   2.728   4.025   1.746
 1822TIP3   OH2 5408   7.445   7.528   4.811
 1822TIP3    H1 5409   7.448   7.444   4.765
 1822TIP3    H2 5410   7.472   7.507   4.900
 1823TIP3   OH2 5411   1.496   7.674   3.633
 1823TIP3    H1 5412   1.539   7.756   3.659
 1823TIP3    H2 5413   1.402   7.693   3.640
 1824TIP3   OH2 5414   3.182   6.970   1.036
 1824TIP3    H1 5415   3.228   6.887   1.027
 1824TIP3    H2 5416   3.102   6.959   0.984
 1825TIP3   OH2 5417   3.812   3.323   4.538
 1825TIP3    H1 5418   3.759   3.379   4.481
 1825TIP3    H2 5419   3.893   3.373   4.553
 1826TIP3   OH2 5420   1.871   6.204   3.792
 1826TIP3    H1 5421   1.850   6.285   3.746
 1826TIP3    H2 5422   1.789   6.178   3.833
 1827TIP3   OH2 5423   3.286   5.352   2.784
 1827TIP3    H1 5424   3.304   5.327   2.693
 1827TIP3    H2 5425   3.290   5.448   2.783
 1828TIP3   OH2 5426   1.360   4.705   0.623
 1828TIP3    H1 5427   1.440   4.748   0.594
 1828TIP3    H2 5428   1.363   4.618   0.582
 1829TIP3   OH2 5429   2.076   2.560   3.655
 1829TIP3    H1 5430   2.081   2.492   3.722
 1829TIP3    H2 5431   2.062   2.513   3.573
 1830TIP3   OH2 5432   8.222   4.979   3.548
 1830TIP3    H1 5433   8.308   4.951   3.579
 1830TIP3    H2 5434   8.229   4.977   3.453
 1831TIP3   OH2 5435   4.425   7.685   6.153
 1831TIP3    H1 5436   4.431   7.643   6.067
 1831TIP3    H2 5437   4.350   7.643   6.195
 1832TIP3   OH2 5438   1.730   3.031   3.325
 1832TIP3    H1 5439   1.711   3.082   3.403
 1832TIP3    H2 5440   1.661   3.057   3.262
 1833TIP3   OH2 5441   4.058   0.565   6.087
 1833TIP3    H1 5442   4.130   0.540   6.030
 1833TIP3    H2 5443   4.069   0.512   6.165
 1834TIP3   OH2 5444   4.195   2.948   2.350
 1834TIP3    H1 5445   4.233   2.920   2.433
 1834TIP3    H2 5446   4.102   2.961   2.369
 1835TIP3   OH2 5447   4.487   5.690   3.351
 1835TIP3    H1 5448   4.564   5.699   3.407
 1835TIP3    H2 5449   4.478   5.775   3.309
 1836TIP3   OH2 5450   3.847   5.280   4.669
 1836TIP3    H1 5451   3.929   5.307   4.627
 1836TIP3    H2 5452   3.779   5.303   4.606
 1837TIP3   OH2 5453   0.741   3.557   2.646
 1837TIP3    H1 5454   0.678   3.585   2.713
 1837TIP3    H2 5455   0.768   3.638   2.604
 1838TIP3   OH2 5456   4.379  -0.005   4.331
 1838TIP3    H1 5457   4.295   0.014   4.374
 1838TIP3    H2 5458   4.371   0.036   4.245
 1839TIP3   OH2 5459   2.766   1.878   5.751
 1839TIP3    H1 5460   2.792   1.902   5.663
 1839TIP3    H2 5461   2.811   1.941   5.808
 1840TIP3   OH2 5462   2.339   0.285   3.419
 1840TIP3    H1 5463   2.244   0.285   3.413
 1840TIP3    H2 5464   2.358   0.250   3.506
 1841TIP3   OH2 5465   1.092   3.862   5.957
 1841TIP3    H1 5466   1.107   3.811   6.037
 1841TIP3    H2 5467   1.140   3.943   5.971
 1842TIP3   OH2 5468   0.635   6.022   6.297
 1842TIP3    H1 5469   0.583   5.976   6.232
 1842TIP3    H2 5470   0.725   6.016   6.265
 1843TIP3   OH2 5471   5.640   1.380   4.138
 1843TIP3    H1 5472   5.579   1.385   4.064
 1843TIP3    H2 5473   5.663   1.471   4.156
 1844TIP3   OH2 5474   0.747   5.487   2.472
 1844TIP3    H1 5475   0.694   5.565   2.491
 1844TIP3    H2 5476   0.690   5.414   2.496
 1845TIP3   OH2 5477   1.134   4.709   6.690
 1845TIP3    H1 5478   1.180   4.632   6.723
 1845TIP3    H2 5479   1.145   4.704   6.595
 1846TIP3   OH2 5480   6.403   2.162   4.251
 1846TIP3    H1 5481   6.414   2.219   4.327
 1846TIP3    H2 5482   6.311   2.133   4.256
 1847TIP3   OH2 5483   7.527   0.800   2.712
 1847TIP3    H1 5484   7.506   0.888   2.682
 1847TIP3    H2 5485   7.619   0.804   2.738
 1848TIP3   OH2 5486   6.839   6.515   3.619
 1848TIP3    H1 5487   6.754   6.511   3.576
 1848TIP3    H2 5488   6.838   6.597   3.668
 1849TIP3   OH2 5489   3.726   0.662   6.376
 1849TIP3    H1 5490   3.811   0.701   6.399
 1849TIP3    H2 5491   3.740   0.568   6.388
 1850TIP3   OH2 5492   5.566   5.973   3.766
 1850TIP3    H1 5493   5.513   5.896   3.790
 1850TIP3    H2 5494   5.651   5.957   3.807
 1851TIP3   OH2 5495   0.360   6.544   6.111
 1851TIP3    H1 5496   0.291   6.548   6.176
 1851TIP3    H2 5497   0.441   6.535   6.161
 1852TIP3   OH2 5498   4.448   0.050   3.772
 1852TIP3    H1 5499   4.493   0.024   3.852
 1852TIP3    H2 5500   4.518   0.070   3.710
 1853TIP3   OH2 5501   1.509   2.933   2.270
 1853TIP3    H1 5502   1.552   2.850   2.292
 1853TIP3    H2 5503   1.455   2.914   2.194
 1854TIP3   OH2 5504   6.622   7.099   2.236
 1854TIP3    H1 5505   6.691   7.166   2.235
 1854TIP3    H2 5506   6.596   7.093   2.328
 1855TIP3   OH2 5507   2.591   7.633   6.453
 1855TIP3    H1 5508   2.591   7.644   6.548
 1855TIP3    H2 5509   2.536   7.556   6.437
 1856TIP3   OH2 5510   5.592   2.533   1.578
 1856TIP3    H1 5511   5.664   2.484   1.539
 1856TIP3    H2 5512   5.513   2.487   1.548
 1857TIP3   OH2 5513   1.017   5.217   1.407
 1857TIP3    H1 5514   0.946   5.152   1.415
 1857TIP3    H2 5515   1.024   5.255   1.495
 1858TIP3   OH2 5516   0.701   4.488   0.699
 1858TIP3    H1 5517   0.784   4.513   0.659
 1858TIP3    H2 5518   0.687   4.553   0.768
 1859TIP3   OH2 5519   2.904   3.372   3.498
 1859TIP3    H1 5520   2.957   3.301   3.535
 1859TIP3    H2 5521   2.897   3.435   3.569
 1860TIP3   OH2 5522   7.595   2.786   1.313
 1860TIP3    H1 5523   7.514   2.756   1.353
 1860TIP3    H2 5524   7.658   2.789   1.385
 1861TIP3   OH2 5525   6.593   2.618   5.987
 1861TIP3    H1 5526   6.502   2.597   6.007
 1861TIP3    H2 5527   6.591   2.653   5.898
 1862TIP3   OH2 5528   7.441   4.599   2.215
 1862TIP3    H1 5529   7.529   4.598   2.179
 1862TIP3    H2 5530   7.437   4.522   2.272
 1863TIP3   OH2 5531   8.132   4.737   2.449
 1863TIP3    H1 5532   8.132   4.691   2.533
 1863TIP3    H2 5533   8.093   4.675   2.387
 1864TIP3   OH2 5534   0.989   4.787   4.274
 1864TIP3    H1 5535   0.916   4.725   4.269
 1864TIP3    H2 5536   1.063   4.734   4.304
 1865TIP3   OH2 5537   2.335   4.009   1.920
 1865TIP3    H1 5538   2.319   4.052   1.835
 1865TIP3    H2 5539   2.400   4.065   1.963
 1866TIP3   OH2 5540   6.408   3.392   2.697
 1866TIP3    H1 5541   6.418   3.305   2.736
 1866TIP3    H2 5542   6.485   3.403   2.641
 1867TIP3   OH2 5543   3.993   6.056   6.387
 1867TIP3    H1 5544   3.982   6.048   6.292
 1867TIP3    H2 5545   3.957   5.975   6.422
 1868TIP3   OH2 5546   6.499   4.580   5.552
 1868TIP3    H1 5547   6.477   4.611   5.640
 1868TIP3    H2 5548   6.509   4.485   5.562
 1869TIP3   OH2 5549   0.090   7.555   6.626
 1869TIP3    H1 5550   0.092   7.575   6.720
 1869TIP3    H2 5551   0.058   7.635   6.585
 1870TIP3   OH2 5552   4.718   7.237   0.713
 1870TIP3    H1 5553   4.729   7.182   0.790
 1870TIP3    H2 5554   4.740   7.180   0.639
 1871TIP3   OH2 5555   7.717   3.900   2.596
 1871TIP3    H1 5556   7.768   3.851   2.531
 1871TIP3    H2 5557   7.631   3.912   2.554
 1872TIP3   OH2 5558   1.217   3.425   3.168
 1872TIP3    H1 5559   1.236   3.433   3.074
 1872TIP3    H2 5560   1.148   3.489   3.184
 1873TIP3   OH2 5561   1.452   2.915   4.776
 1873TIP3    H1 5562   1.472   3.007   4.759
 1873TIP3    H2 5563   1.522   2.867   4.732
 1874TIP3   OH2 5564   4.349   7.407   0.121
 1874TIP3    H1 5565   4.255   7.412   0.100
 1874TIP3    H2 5566   4.373   7.495   0.148
 1875TIP3   OH2 5567   0.942   5.200   4.023
 1875TIP3    H1 5568   0.996   5.136   4.069
 1875TIP3    H2 5569   0.949   5.279   4.076
 1876TIP3   OH2 5570   6.374   3.136   5.087
 1876TIP3    H1 5571   6.388   3.172   5.175
 1876TIP3    H2 5572   6.391   3.209   5.028
 1877TIP3   OH2 5573   3.924   7.110   1.056
 1877TIP3    H1 5574   3.942   7.062   1.137
 1877TIP3    H2 5575   3.953   7.051   0.987
 1878TIP3   OH2 5576   4.279   1.411   4.165
 1878TIP3    H1 5577   4.193   1.445   4.141
 1878TIP3    H2 5578   4.281   1.417   4.260
 1879TIP3   OH2 5579   5.571   1.079   6.190
 1879TIP3    H1 5580   5.489   1.090   6.143
 1879TIP3    H2 5581   5.593   1.167   6.221
 1880TIP3   OH2 5582   1.869   1.405   2.755
 1880TIP3    H1 5583   1.867   1.407   2.660
 1880TIP3    H2 5584   1.887   1.314   2.777
 1881TIP3   OH2 5585   6.717   3.402   6.534
 1881TIP3    H1 5586   6.720   3.399   6.630
 1881TIP3    H2 5587   6.643   3.460   6.514
 1882TIP3   OH2 5588   6.289   6.979   0.686
 1882TIP3    H1 5589   6.294   6.922   0.763
 1882TIP3    H2 5590   6.374   6.967   0.643
 1883TIP3   OH2 5591   7.407   3.450   2.512
 1883TIP3    H1 5592   7.404   3.419   2.422
 1883TIP3    H2 5593   7.325   3.418   2.550
 1884TIP3   OH2 5594   0.146   4.655   1.721
 1884TIP3    H1 5595   0.173   4.733   1.673
 1884TIP3    H2 5596   0.092   4.689   1.793
 1885TIP3   OH2 5597   4.196   2.640   6.292
 1885TIP3    H1 5598   4.178   2.571   6.228
 1885TIP3    H2 5599   4.281   2.675   6.266
 1886TIP3   OH2 5600   0.957   0.422   4.417
 1886TIP3    H1 5601   1.013   0.385   4.349
 1886TIP3    H2 5602   0.980   0.515   4.419
 1887TIP3   OH2 5603   2.668   0.898   1.858
 1887TIP3    H1 5604   2.729   0.911   1.786
 1887TIP3    H2 5605   2.649   0.805   1.857
 1888TIP3   OH2 5606   6.010   5.787   6.116
 1888TIP3    H1 5607   5.928   5.756   6.154
 1888TIP3    H2 5608   6.047   5.845   6.182
 1889TIP3   OH2 5609   7.975   2.021   5.134
 1889TIP3    H1 5610   7.897   2.022   5.188
 1889TIP3    H2 5611   8.047   2.007   5.195
 1890TIP3   OH2 5612   5.845   0.427   2.960
 1890TIP3    H1 5613   5.921   0.471   2.998
 1890TIP3    H2 5614   5.855   0.440   2.865
 1891TIP3   OH2 5615   3.242   6.668   1.556
 1891TIP3    H1 5616   3.216   6.596   1.499
 1891TIP3    H2 5617   3.197   6.745   1.522
 1892TIP3   OH2 5618   8.211   7.773   1.055
 1892TIP3    H1 5619   8.236   7.794   1.145
 1892TIP3    H2 5620   8.119   7.797   1.049
 1893TIP3   OH2 5621   5.871   7.581   5.812
 1893TIP3    H1 5622   5.845   7.611   5.725
 1893TIP3    H2 5623   5.817   7.634   5.872
 1894TIP3   OH2 5624   1.539   3.098   3.136
 1894TIP3    H1 5625   1.490   3.017   3.128
 1894TIP3    H2 5626   1.540   3.134   3.047
 1895TIP3   OH2 5627   2.590   1.451   5.240
 1895TIP3    H1 5628   2.513   1.478   5.289
 1895TIP3    H2 5629   2.597   1.515   5.169
 1896TIP3   OH2 5630   7.159   5.816   2.458
 1896TIP3    H1 5631   7.071   5.796   2.426
 1896TIP3    H2 5632   7.146   5.840   2.550
 1897TIP3   OH2 5633   2.952   5.132   1.953
 1897TIP3    H1 5634   2.889   5.193   1.914
 1897TIP3    H2 5635   2.961   5.161   2.044
 1898TIP3   OH2 5636   4.938   1.104   1.000
 1898TIP3    H1 5637   4.926   1.021   0.954
 1898TIP3    H2 5638   5.005   1.150   0.950
 1899TIP3   OH2 5639   4.545   1.806   1.420
 1899TIP3    H1 5640   4.637   1.788   1.443
 1899TIP3    H2 5641   4.501   1.722   1.431
 1900TIP3   OH2 5642   6.795   5.612   6.026
 1900TIP3    H1 5643   6.755   5.548   5.968
 1900TIP3    H2 5644   6.798   5.569   6.112
 1901TIP3   OH2 5645   1.010   0.461   6.745
 1901TIP3    H1 5646   0.927   0.493   6.782
 1901TIP3    H2 5647   0.994   0.457   6.651
 1902TIP3   OH2 5648   4.910   1.533   3.635
 1902TIP3    H1 5649   4.904   1.570   3.724
 1902TIP3    H2 5650   4.859   1.452   3.639
 1903TIP3   OH2 5651   6.793   6.897   2.193
 1903TIP3    H1 5652   6.802   6.840   2.269
 1903TIP3    H2 5653   6.722   6.957   2.215
 1904TIP3   OH2 5654   4.752   7.195   4.831
 1904TIP3    H1 5655   4.730   7.178   4.739
 1904TIP3    H2 5656   4.822   7.133   4.850
 1905TIP3   OH2 5657   3.087   3.948   3.548
 1905TIP3    H1 5658   3.034   4.001   3.489
 1905TIP3    H2 5659   3.140   4.011   3.597
 1906TIP3   OH2 5660   5.985   7.277   0.563
 1906TIP3    H1 5661   5.938   7.200   0.531
 1906TIP3    H2 5662   6.011   7.324   0.484
 1907TIP3   OH2 5663   7.399   5.326   1.511
 1907TIP3    H1 5664   7.334   5.384   1.470
 1907TIP3    H2 5665   7.430   5.376   1.587
 1908TIP3   OH2 5666   0.940   6.705   1.025
 1908TIP3    H1 5667   0.966   6.790   1.060
 1908TIP3    H2 5668   0.853   6.689   1.061
 1909TIP3   OH2 5669   7.290   1.203   0.280
 1909TIP3    H1 5670   7.328   1.145   0.346
 1909TIP3    H2 5671   7.241   1.144   0.223
 1910TIP3   OH2 5672   5.232   2.908   4.964
 1910TIP3    H1 5673   5.232   2.841   5.032
 1910TIP3    H2 5674   5.213   2.860   4.883
 1911TIP3   OH2 5675   1.794   5.481   0.723
 1911TIP3    H1 5676   1.836   5.563   0.697
 1911TIP3    H2 5677   1.800   5.426   0.646
 1912TIP3   OH2 5678   8.182   4.248   3.292
 1912TIP3    H1 5679   8.087   4.243   3.289
 1912TIP3    H2 5680   8.207   4.280   3.205
 1913TIP3   OH2 5681   3.144   6.916   1.497
 1913TIP3    H1 5682   3.125   6.976   1.425
 1913TIP3    H2 5683   3.109   6.960   1.574
 1914TIP3   OH2 5684   5.378   7.112   0.509
 1914TIP3    H1 5685   5.462   7.146   0.542
 1914TIP3    H2 5686   5.313   7.148   0.570
 1915TIP3   OH2 5687   6.001   1.038   3.060
 1915TIP3    H1 5688   5.964   1.091   2.990
 1915TIP3    H2 5689   6.021   1.101   3.130
 1916TIP3   OH2 5690   7.387   3.746   2.218
 1916TIP3    H1 5691   7.445   3.673   2.193
 1916TIP3    H2 5692   7.355   3.781   2.135
 1917TIP3   OH2 5693   1.808   3.926   0.272
 1917TIP3    H1 5694   1.720   3.961   0.289
 1917TIP3    H2 5695   1.809   3.910   0.178
 1918TIP3   OH2 5696   0.684   5.590   1.141
 1918TIP3    H1 5697   0.628   5.521   1.106
 1918TIP3    H2 5698   0.688   5.573   1.236
 1919TIP3   OH2 5699   7.371   3.186   4.604
 1919TIP3    H1 5700   7.412   3.272   4.614
 1919TIP3    H2 5701   7.278   3.203   4.616
 1920TIP3   OH2 5702   4.412   2.827   5.301
 1920TIP3    H1 5703   4.443   2.736   5.297
 1920TIP3    H2 5704   4.467   2.868   5.367
 1921TIP3   OH2 5705   3.994   0.472   0.808
 1921TIP3    H1 5706   3.912   0.428   0.789
 1921TIP3    H2 5707   3.976   0.524   0.887
 1922TIP3   OH2 5708   6.499   7.360   1.603
 1922TIP3    H1 5709   6.446   7.386   1.528
 1922TIP3    H2 5710   6.483   7.266   1.613
 1923TIP3   OH2 5711   1.690   7.556   1.276
 1923TIP3    H1 5712   1.679   7.534   1.369
 1923TIP3    H2 5713   1.603   7.544   1.238
 1924TIP3   OH2 5714   5.021   6.477   0.509
 1924TIP3    H1 5715   4.997   6.427   0.587
 1924TIP3    H2 5716   4.959   6.448   0.442
 1925TIP3   OH2 5717   0.848   3.422   3.975
 1925TIP3    H1 5718   0.814   3.444   3.888
 1925TIP3    H2 5719   0.933   3.380   3.957
 1926TIP3   OH2 5720   5.270   6.830   0.245
 1926TIP3    H1 5721   5.351   6.787   0.219
 1926TIP3    H2 5722   5.261   6.904   0.184
 1927TIP3   OH2 5723   0.994   6.930   6.424
 1927TIP3    H1 5724   0.980   6.980   6.504
 1927TIP3    H2 5725   0.923   6.866   6.422
 1928TIP3   OH2 5726   3.658   1.097   5.763
 1928TIP3    H1 5727   3.681   1.024   5.706
 1928TIP3    H2 5728   3.675   1.065   5.852
 1929TIP3   OH2 5729   1.122   7.802   1.861
 1929TIP3    H1 5730   1.181   7.731   1.888
 1929TIP3    H2 5731   1.126   7.865   1.933
 1930TIP3   OH2 5732   7.760   4.193   0.227
 1930TIP3    H1 5733   7.843   4.180   0.181
 1930TIP3    H2 5734   7.711   4.255   0.173
 1931TIP3   OH2 5735   7.455   7.823   2.833
 1931TIP3    H1 5736   7.387   7.811   2.766
 1931TIP3    H2 5737   7.447   7.746   2.889
 1932TIP3   OH2 5738   1.126   6.861   4.104
 1932TIP3    H1 5739   1.058   6.796   4.123
 1932TIP3    H2 5740   1.195   6.843   4.168
 1933TIP3   OH2 5741   1.353   5.476   4.828
 1933TIP3    H1 5742   1.264   5.470   4.795
 1933TIP3    H2 5743   1.407   5.489   4.750
 1934TIP3   OH2 5744   7.858   7.637   1.471
 1934TIP3    H1 5745   7.867   7.564   1.533
 1934TIP3    H2 5746   7.783   7.613   1.417
 1935TIP3   OH2 5747   3.221   5.969   1.972
 1935TIP3    H1 5748   3.158   6.016   2.027
 1935TIP3    H2 5749   3.170   5.942   1.895
 1936TIP3   OH2 5750   6.143   2.487   0.645
 1936TIP3    H1 5751   6.177   2.574   0.623
 1936TIP3    H2 5752   6.096   2.500   0.728
 1937TIP3   OH2 5753   7.310   1.747   3.354
 1937TIP3    H1 5754   7.282   1.675   3.410
 1937TIP3    H2 5755   7.345   1.705   3.276
 1938TIP3   OH2 5756   7.062   3.652   2.646
 1938TIP3    H1 5757   7.123   3.703   2.592
 1938TIP3    H2 5758   7.107   3.569   2.661
 1939TIP3   OH2 5759   2.063   5.172   6.796
 1939TIP3    H1 5760   2.121   5.210   6.731
 1939TIP3    H2 5761   1.982   5.222   6.790
 1940TIP3   OH2 5762   0.844   3.519   3.655
 1940TIP3    H1 5763   0.925   3.569   3.645
 1940TIP3    H2 5764   0.778   3.570   3.608
 1941TIP3   OH2 5765   0.084   6.453   5.838
 1941TIP3    H1 5766   0.032   6.452   5.919
 1941TIP3    H2 5767   0.026   6.413   5.772
 1942TIP3   OH2 5768   4.648   6.037   1.627
 1942TIP3    H1 5769   4.605   5.996   1.552
 1942TIP3    H2 5770   4.700   5.967   1.667
 1943TIP3   OH2 5771   8.318   3.698   5.935
 1943TIP3    H1 5772   8.388   3.678   5.873
 1943TIP3    H2 5773   8.303   3.615   5.981
 1944TIP3   OH2 5774   2.869   1.906   1.707
 1944TIP3    H1 5775   2.865   1.958   1.627
 1944TIP3    H2 5776   2.879   1.816   1.676
 1945TIP3   OH2 5777   8.007   1.410   4.900
 1945TIP3    H1 5778   8.004   1.500   4.866
 1945TIP3    H2 5779   8.078   1.411   4.964
 1946TIP3   OH2 5780   2.212   7.311   4.238
 1946TIP3    H1 5781   2.125   7.306   4.199
 1946TIP3    H2 5782   2.242   7.400   4.219
 1947TIP3   OH2 5783   1.234   4.977   5.039
 1947TIP3    H1 5784   1.176   4.910   5.004
 1947TIP3    H2 5785   1.322   4.946   5.018
 1948TIP3   OH2 5786   4.330   4.975   3.181
 1948TIP3    H1 5787   4.317   5.010   3.269
 1948TIP3    H2 5788   4.423   4.992   3.162
 1949TIP3   OH2 5789   3.606   7.394   1.873
 1949TIP3    H1 5790   3.641   7.347   1.797
 1949TIP3    H2 5791   3.646   7.351   1.948
 1950TIP3   OH2 5792   8.052   2.267   3.898
 1950TIP3    H1 5793   8.095   2.185   3.922
 1950TIP3    H2 5794   7.964   2.260   3.935
 1951TIP3   OH2 5795   1.810   2.438   1.046
 1951TIP3    H1 5796   1.806   2.532   1.027
 1951TIP3    H2 5797   1.878   2.430   1.113
 1952TIP3   OH2 5798   7.453   0.316   3.330
 1952TIP3    H1 5799   7.489   0.397   3.367
 1952TIP3    H2 5800   7.526   0.254   3.332
 1953TIP3   OH2 5801   4.455   4.748   6.590
 1953TIP3    H1 5802   4.423   4.680   6.648
 1953TIP3    H2 5803   4.544   4.720   6.566
 1954TIP3   OH2 5804   7.847   3.504   3.073
 1954TIP3    H1 5805   7.783   3.443   3.038
 1954TIP3    H2 5806   7.807   3.590   3.061
 1955TIP3   OH2 5807   8.058   5.031   6.663
 1955TIP3    H1 5808   8.031   5.123   6.668
 1955TIP3    H2 5809   8.121   5.028   6.590
 1956TIP3   OH2 5810   7.611   3.354   5.566
 1956TIP3    H1 5811   7.530   3.399   5.544
 1956TIP3    H2 5812   7.587   3.261   5.568
 1957TIP3   OH2 5813   7.794   6.413   5.941
 1957TIP3    H1 5814   7.798   6.388   6.034
 1957TIP3    H2 5815   7.706   6.387   5.913
 1958TIP3   OH2 5816   7.913   6.926   5.817
 1958TIP3    H1 5817   7.823   6.902   5.795
 1958TIP3    H2 5818   7.921   7.017   5.786
 1959TIP3   OH2 5819   5.266   5.137   2.771
 1959TIP3    H1 5820   5.254   5.109   2.862
 1959TIP3    H2 5821   5.181   5.122   2.730
 1960TIP3   OH2 5822   6.754   1.038   4.208
 1960TIP3    H1 5823   6.705   0.997   4.280
 1960TIP3    H2 5824   6.808   0.967   4.173
 1961TIP3   OH2 5825   5.618   1.912   1.143
 1961TIP3    H1 5826   5.667   1.994   1.153
 1961TIP3    H2 5827   5.685   1.844   1.144
 1962TIP3   OH2 5828   7.468   2.361   4.338
 1962TIP3    H1 5829   7.453   2.357   4.244
 1962TIP3    H2 5830   7.386   2.332   4.377
 1963TIP3   OH2 5831   2.132   6.481   1.288
 1963TIP3    H1 5832   2.098   6.478   1.378
 1963TIP3    H2 5833   2.131   6.390   1.259
 1964TIP3   OH2 5834   4.206   0.377   5.455
 1964TIP3    H1 5835   4.211   0.467   5.485
 1964TIP3    H2 5836   4.122   0.371   5.410
 1965TIP3   OH2 5837   0.608   3.192   3.831
 1965TIP3    H1 5838   0.661   3.189   3.910
 1965TIP3    H2 5839   0.583   3.284   3.822
 1966TIP3   OH2 5840   5.205   0.093   1.521
 1966TIP3    H1 5841   5.195   0.130   1.609
 1966TIP3    H2 5842   5.138   0.024   1.517
 1967TIP3   OH2 5843   5.096   3.393   4.811
 1967TIP3    H1 5844   5.142   3.444   4.744
 1967TIP3    H2 5845   5.143   3.310   4.816
 1968TIP3   OH2 5846   7.830   4.012   1.683
 1968TIP3    H1 5847   7.803   3.951   1.614
 1968TIP3    H2 5848   7.887   3.961   1.740
 1969TIP3   OH2 5849   5.371   1.198   5.989
 1969TIP3    H1 5850   5.368   1.258   6.063
 1969TIP3    H2 5851   5.350   1.252   5.913
 1970TIP3   OH2 5852   7.930   1.366   3.345
 1970TIP3    H1 5853   7.967   1.447   3.310
 1970TIP3    H2 5854   7.843   1.391   3.377
 1971TIP3   OH2 5855   0.731   4.004   1.005
 1971TIP3    H1 5856   0.647   3.984   1.045
 1971TIP3    H2 5857   0.750   4.094   1.032
 1972TIP3   OH2 5858   7.346   4.677   0.944
 1972TIP3    H1 5859   7.373   4.764   0.914
 1972TIP3    H2 5860   7.278   4.695   1.009
 1973TIP3   OH2 5861   2.749   4.210   4.006
 1973TIP3    H1 5862   2.702   4.232   4.086
 1973TIP3    H2 5863   2.839   4.239   4.021
 1974TIP3   OH2 5864   1.363   3.584   1.810
 1974TIP3    H1 5865   1.380   3.667   1.765
 1974TIP3    H2 5866   1.412   3.591   1.892
 1975TIP3   OH2 5867   5.873   6.837   1.450
 1975TIP3    H1 5868   5.932   6.883   1.390
 1975TIP3    H2 5869   5.922   6.758   1.474
 1976TIP3   OH2 5870   4.512   1.997   2.360
 1976TIP3    H1 5871   4.417   1.989   2.356
 1976TIP3    H2 5872   4.527   2.088   2.388
 1977TIP3   OH2 5873   6.630   5.193   2.684
 1977TIP3    H1 5874   6.654   5.280   2.715
 1977TIP3    H2 5875   6.662   5.134   2.753
 1978TIP3   OH2 5876   1.423   7.126   3.605
 1978TIP3    H1 5877   1.328   7.139   3.607
 1978TIP3    H2 5878   1.459   7.207   3.641
 1979TIP3   OH2 5879   1.636   2.563   0.771
 1979TIP3    H1 5880   1.673   2.597   0.690
 1979TIP3    H2 5881   1.693   2.599   0.840
 1980TIP3   OH2 5882   2.175   2.301   1.733
 1980TIP3    H1 5883   2.241   2.361   1.767
 1980TIP3    H2 5884   2.213   2.266   1.653
 1981TIP3   OH2 5885   2.520   0.337   5.885
 1981TIP3    H1 5886   2.607   0.320   5.922
 1981TIP3    H2 5887   2.503   0.429   5.904
 1982TIP3   OH2 5888   6.943   1.263   3.455
 1982TIP3    H1 5889   6.851   1.238   3.464
 1982TIP3    H2 5890   6.942   1.359   3.457
 1983TIP3   OH2 5891   4.672   6.689   5.005
 1983TIP3    H1 5892   4.676   6.650   5.092
 1983TIP3    H2 5893   4.609   6.761   5.014
 1984TIP3   OH2 5894   5.104   2.322   2.248
 1984TIP3    H1 5895   5.078   2.328   2.340
 1984TIP3    H2 5896   5.058   2.394   2.205
 1985TIP3   OH2 5897   2.512   5.149   2.029
 1985TIP3    H1 5898   2.584   5.160   1.968
 1985TIP3    H2 5899   2.435   5.180   1.981
 1986TIP3   OH2 5900   7.106   4.637   0.158
 1986TIP3    H1 5901   7.093   4.546   0.184
 1986TIP3    H2 5902   7.019   4.677   0.161
 1987TIP3   OH2 5903   6.175   7.173   5.179
 1987TIP3    H1 5904   6.117   7.236   5.135
 1987TIP3    H2 5905   6.211   7.121   5.107
 1988TIP3   OH2 5906   2.941   7.269   2.226
 1988TIP3    H1 5907   2.939   7.174   2.217
 1988TIP3    H2 5908   2.892   7.288   2.306
 1989TIP3   OH2 5909   7.173   4.658   2.237
 1989TIP3    H1 5910   7.266   4.660   2.214
 1989TIP3    H2 5911   7.139   4.742   2.206
 1990TIP3   OH2 5912   3.493   0.695   3.533
 1990TIP3    H1 5913   3.500   0.619   3.475
 1990TIP3    H2 5914   3.511   0.770   3.477
 1991TIP3   OH2 5915   3.461   3.578   5.458
 1991TIP3    H1 5916   3.535   3.639   5.448
 1991TIP3    H2 5917   3.492   3.497   5.417
 1992TIP3   OH2 5918   3.275   4.194   3.887
 1992TIP3    H1 5919   3.227   4.254   3.831
 1992TIP3    H2 5920   3.217   4.178   3.961
 1993TIP3   OH2 5921   6.224   4.724   3.805
 1993TIP3    H1 5922   6.178   4.775   3.872
 1993TIP3    H2 5923   6.305   4.696   3.848
 1994TIP3   OH2 5924   3.656   6.728   4.864
 1994TIP3    H1 5925   3.652   6.821   4.843
 1994TIP3    H2 5926   3.740   6.718   4.909
 1995TIP3   OH2 5927   6.164   1.466   0.349
 1995TIP3    H1 5928   6.232   1.518   0.392
 1995TIP3    H2 5929   6.152   1.507   0.264
 1996TIP3   OH2 5930   6.692   6.813   0.341
 1996TIP3    H1 5931   6.753   6.836   0.271
 1996TIP3    H2 5932   6.628   6.756   0.299
 1997TIP3   OH2 5933   7.491   1.382   1.831
 1997TIP3    H1 5934   7.583   1.359   1.834
 1997TIP3    H2 5935   7.489   1.472   1.799
 1998TIP3   OH2 5936   2.876   6.131   5.865
 1998TIP3    H1 5937   2.877   6.099   5.774
 1998TIP3    H2 5938   2.948   6.083   5.907
 1999TIP3   OH2 5939   0.659   3.795   0.491
 1999TIP3    H1 5940   0.658   3.858   0.563
 1999TIP3    H2 5941   0.597   3.830   0.427
 2000TIP3   OH2 5942   3.427   2.287   6.077
 2000TIP3    H1 5943   3.469   2.214   6.123
 2000TIP3    H2 5944   3.467   2.286   5.990
 2001TIP3   OH2 5945   3.632   4.010   1.929
 2001TIP3    H1 5946   3.544   3.998   1.896
 2001TIP3    H2 5947   3.689   3.993   1.854
 2002TIP3   OH2 5948   2.860   1.344   1.119
 2002TIP3    H1 5949   2.793   1.407   1.094
 2002TIP3    H2 5950   2.939   1.396   1.133
 2003TIP3   OH2 5951   7.582   6.608   6.279
 2003TIP3    H1 5952   7.516   6.636   6.343
 2003TIP3    H2 5953   7.593   6.515   6.295
 2004TIP3   OH2 5954   0.275   5.216   2.094
 2004TIP3    H1 5955   0.252   5.302   2.129
 2004TIP3    H2 5956   0.206   5.158   2.127
 2005TIP3   OH2 5957   2.834   7.717   6.698
 2005TIP3    H1 5958   2.873   7.698   6.783
 2005TIP3    H2 5959   2.741   7.730   6.717
 2006TIP3   OH2 5960   0.458   6.968   1.063
 2006TIP3    H1 5961   0.427   7.034   1.001
 2006TIP3    H2 5962   0.385   6.906   1.069
 2007TIP3   OH2 5963   1.610   0.280   1.225
 2007TIP3    H1 5964   1.537   0.228   1.191
 2007TIP3    H2 5965   1.669   0.291   1.150
 2008TIP3   OH2 5966   2.186   2.381   1.023
 2008TIP3    H1 5967   2.150   2.335   0.947
 2008TIP3    H2 5968   2.149   2.469   1.016
 2009TIP3   OH2 5969   6.314   3.809   1.633
 2009TIP3    H1 5970   6.252   3.744   1.667
 2009TIP3    H2 5971   6.263   3.861   1.572
 2010TIP3   OH2 5972   7.527   7.048   5.680
 2010TIP3    H1 5973   7.598   7.088   5.630
 2010TIP3    H2 5974   7.514   7.105   5.755
 2011TIP3   OH2 5975   3.809   1.505   2.411
 2011TIP3    H1 5976   3.852   1.466   2.487
 2011TIP3    H2 5977   3.769   1.431   2.366
 2012TIP3   OH2 5978   4.718   5.812   6.287
 2012TIP3    H1 5979   4.698   5.808   6.381
 2012TIP3    H2 5980   4.779   5.885   6.279
 2013TIP3   OH2 5981   4.853   2.676   0.925
 2013TIP3    H1 5982   4.851   2.690   1.019
 2013TIP3    H2 5983   4.854   2.764   0.887
 2014TIP3   OH2 5984   6.984   0.324   2.844
 2014TIP3    H1 5985   7.078   0.309   2.837
 2014TIP3    H2 5986   6.974   0.381   2.919
 2015TIP3   OH2 5987   5.242   3.762   1.516
 2015TIP3    H1 5988   5.228   3.759   1.611
 2015TIP3    H2 5989   5.287   3.846   1.501
 2016TIP3   OH2 5990   0.656   4.478   4.939
 2016TIP3    H1 5991   0.695   4.392   4.929
 2016TIP3    H2 5992   0.634   4.484   5.032
 2017TIP3   OH2 5993   1.600   4.796   6.571
 2017TIP3    H1 5994   1.616   4.863   6.505
 2017TIP3    H2 5995   1.668   4.731   6.556
 2018TIP3   OH2 5996   0.111   5.530   3.183
 2018TIP3    H1 5997   0.100   5.591   3.111
 2018TIP3    H2 5998   0.149   5.452   3.143
 2019TIP3   OH2 5999   7.987   0.193   5.583
 2019TIP3    H1 6000   7.927   0.262   5.555
 2019TIP3    H2 6001   8.066   0.207   5.532
 2020TIP3   OH2 6002   1.465   3.708   5.703
 2020TIP3    H1 6003   1.399   3.738   5.642
 2020TIP3    H2 6004   1.438   3.742   5.788
 2021TIP3   OH2 6005   5.240   5.513   2.402
 2021TIP3    H1 6006   5.212   5.427   2.372
 2021TIP3    H2 6007   5.298   5.496   2.476
 2022TIP3   OH2 6008   3.874   2.372   1.286
 2022TIP3    H1 6009   3.846   2.447   1.339
 2022TIP3    H2 6010   3.968   2.365   1.303
 2023TIP3   OH2 6011   3.206   1.664   0.000
 2023TIP3    H1 6012   3.216   1.593  -0.063
 2023TIP3    H2 6013   3.183   1.620   0.082
 2024TIP3   OH2 6014   3.611   3.602   1.933
 2024TIP3    H1 6015   3.532   3.573   1.978
 2024TIP3    H2 6016   3.665   3.640   2.003
 2025TIP3   OH2 6017   4.682   7.765   1.050
 2025TIP3    H1 6018   4.638   7.682   1.030
 2025TIP3    H2 6019   4.616   7.817   1.096
 2026TIP3   OH2 6020   2.241   4.875   3.402
 2026TIP3    H1 6021   2.297   4.809   3.360
 2026TIP3    H2 6022   2.176   4.896   3.335
 2027TIP3   OH2 6023   6.541   0.292   1.493
 2027TIP3    H1 6024   6.475   0.341   1.445
 2027TIP3    H2 6025   6.616   0.351   1.500
 2028TIP3   OH2 6026   1.186   4.771   4.769
 2028TIP3    H1 6027   1.251   4.711   4.733
 2028TIP3    H2 6028   1.135   4.799   4.693
 2029TIP3   OH2 6029   3.985   1.480   6.493
 2029TIP3    H1 6030   4.030   1.436   6.420
 2029TIP3    H2 6031   4.026   1.566   6.499
 2030TIP3   OH2 6032   6.353   1.857   0.680
 2030TIP3    H1 6033   6.309   1.858   0.765
 2030TIP3    H2 6034   6.435   1.809   0.696
 2031TIP3   OH2 6035   5.546   2.669   4.526
 2031TIP3    H1 6036   5.623   2.695   4.477
 2031TIP3    H2 6037   5.577   2.656   4.616
 2032TIP3   OH2 6038   4.860   2.056   5.429
 2032TIP3    H1 6039   4.839   2.144   5.461
 2032TIP3    H2 6040   4.900   2.012   5.503
 2033TIP3   OH2 6041   4.300   5.363   0.546
 2033TIP3    H1 6042   4.371   5.306   0.576
 2033TIP3    H2 6043   4.325   5.387   0.456
 2034TIP3   OH2 6044   0.899   4.233   4.853
 2034TIP3    H1 6045   0.941   4.147   4.858
 2034TIP3    H2 6046   0.845   4.229   4.774
 2035TIP3   OH2 6047   5.877   0.694   4.899
 2035TIP3    H1 6048   5.868   0.657   4.812
 2035TIP3    H2 6049   5.968   0.679   4.923
 2036TIP3   OH2 6050   6.918   2.870   2.001
 2036TIP3    H1 6051   6.901   2.808   2.071
 2036TIP3    H2 6052   7.013   2.869   1.990
 2037TIP3   OH2 6053   8.293   4.694   4.850
 2037TIP3    H1 6054   8.222   4.744   4.889
 2037TIP3    H2 6055   8.316   4.629   4.917
 2038TIP3   OH2 6056   0.073   0.262   0.169
 2038TIP3    H1 6057   0.024   0.237   0.247
 2038TIP3    H2 6058   0.043   0.202   0.101
 2039TIP3   OH2 6059   1.167   2.842   6.569
 2039TIP3    H1 6060   1.262   2.849   6.582
 2039TIP3    H2 6061   1.131   2.912   6.623
 2040TIP3   OH2 6062   4.423   3.532   0.312
 2040TIP3    H1 6063   4.417   3.600   0.380
 2040TIP3    H2 6064   4.336   3.493   0.310
 2041TIP3   OH2 6065   2.219   3.562   4.384
 2041TIP3    H1 6066   2.159   3.576   4.311
 2041TIP3    H2 6067   2.208   3.639   4.439
 2042TIP3   OH2 6068   7.402   2.353   1.731
 2042TIP3    H1 6069   7.453   2.326   1.807
 2042TIP3    H2 6070   7.466   2.357   1.660
 2043TIP3   OH2 6071   5.046   5.580   5.098
 2043TIP3    H1 6072   5.077   5.653   5.152
 2043TIP3    H2 6073   5.113   5.512   5.110
 2044TIP3   OH2 6074   6.175   0.314   2.281
 2044TIP3    H1 6075   6.209   0.364   2.207
 2044TIP3    H2 6076   6.219   0.351   2.358
 2045TIP3   OH2 6077   0.204   2.604   4.049
 2045TIP3    H1 6078   0.150   2.525   4.055
 2045TIP3    H2 6079   0.151   2.665   3.998
 2046TIP3   OH2 6080   3.619   0.866   4.419
 2046TIP3    H1 6081   3.703   0.912   4.429
 2046TIP3    H2 6082   3.630   0.785   4.469
 2047TIP3   OH2 6083   3.443   0.415   2.121
 2047TIP3    H1 6084   3.413   0.346   2.180
 2047TIP3    H2 6085   3.381   0.412   2.048
 2048TIP3   OH2 6086   5.991   2.101   5.406
 2048TIP3    H1 6087   5.997   2.107   5.311
 2048TIP3    H2 6088   5.956   2.014   5.423
 2049TIP3   OH2 6089   2.795   4.851   4.581
 2049TIP3    H1 6090   2.826   4.814   4.499
 2049TIP3    H2 6091   2.823   4.789   4.648
 2050TIP3   OH2 6092   5.037   0.737   1.940
 2050TIP3    H1 6093   5.095   0.675   1.897
 2050TIP3    H2 6094   5.094   0.809   1.966
 2051TIP3   OH2 6095   2.803   1.351   4.053
 2051TIP3    H1 6096   2.853   1.286   4.003
 2051TIP3    H2 6097   2.811   1.432   4.003
 2052TIP3   OH2 6098   7.027   5.120   4.893
 2052TIP3    H1 6099   7.091   5.184   4.863
 2052TIP3    H2 6100   6.971   5.168   4.953
 2053TIP3   OH2 6101   1.310   1.521   6.504
 2053TIP3    H1 6102   1.373   1.564   6.446
 2053TIP3    H2 6103   1.363   1.482   6.574
 2054TIP3   OH2 6104   4.456   5.744   0.150
 2054TIP3    H1 6105   4.540   5.709   0.180
 2054TIP3    H2 6106   4.390   5.694   0.200
 2055TIP3   OH2 6107   5.746   6.976   1.029
 2055TIP3    H1 6108   5.704   7.061   1.012
 2055TIP3    H2 6109   5.686   6.932   1.090
 2056TIP3   OH2 6110   7.988   2.372   6.171
 2056TIP3    H1 6111   8.064   2.316   6.152
 2056TIP3    H2 6112   8.025   2.458   6.190
 2057TIP3   OH2 6113   0.328   3.934   4.244
 2057TIP3    H1 6114   0.294   3.993   4.177
 2057TIP3    H2 6115   0.288   3.964   4.326
 2058TIP3   OH2 6116   5.591   5.129   5.020
 2058TIP3    H1 6117   5.497   5.113   5.026
 2058TIP3    H2 6118   5.631   5.048   5.051
 2059TIP3   OH2 6119   7.970   7.110   6.030
 2059TIP3    H1 6120   7.972   7.016   6.007
 2059TIP3    H2 6121   7.994   7.154   5.948
 2060TIP3   OH2 6122   4.290   6.397   1.568
 2060TIP3    H1 6123   4.348   6.331   1.531
 2060TIP3    H2 6124   4.220   6.406   1.502
 2061TIP3   OH2 6125   2.845   4.101   3.496
 2061TIP3    H1 6126   2.913   4.169   3.496
 2061TIP3    H2 6127   2.835   4.078   3.588
 2062TIP3   OH2 6128   1.124   7.646   6.637
 2062TIP3    H1 6129   1.107   7.660   6.544
 2062TIP3    H2 6130   1.156   7.730   6.670
 2063TIP3   OH2 6131   0.802   6.307   0.800
 2063TIP3    H1 6132   0.736   6.305   0.730
 2063TIP3    H2 6133   0.775   6.379   0.856
 2064TIP3   OH2 6134   2.580   4.134   1.588
 2064TIP3    H1 6135   2.526   4.173   1.657
 2064TIP3    H2 6136   2.653   4.194   1.578
 2065TIP3   OH2 6137   1.448   3.808   2.584
 2065TIP3    H1 6138   1.418   3.755   2.657
 2065TIP3    H2 6139   1.411   3.895   2.600
 2066TIP3   OH2 6140   0.558   3.463   3.872
 2066TIP3    H1 6141   0.556   3.537   3.811
 2066TIP3    H2 6142   0.473   3.465   3.916
 2067TIP3   OH2 6143   1.942   7.369   5.874
 2067TIP3    H1 6144   1.857   7.329   5.858
 2067TIP3    H2 6145   1.978   7.319   5.948
 2068TIP3   OH2 6146   6.856   3.303   1.960
 2068TIP3    H1 6147   6.946   3.335   1.961
 2068TIP3    H2 6148   6.841   3.271   2.049
 2069TIP3   OH2 6149   4.033   4.992   3.008
 2069TIP3    H1 6150   3.974   4.926   2.971
 2069TIP3    H2 6151   4.028   4.978   3.102
 2070TIP3   OH2 6152   4.972   0.540   0.407
 2070TIP3    H1 6153   5.009   0.470   0.460
 2070TIP3    H2 6154   5.027   0.542   0.328
 2071TIP3   OH2 6155   5.058   1.651   2.435
 2071TIP3    H1 6156   5.063   1.746   2.445
 2071TIP3    H2 6157   5.135   1.629   2.382
 2072TIP3   OH2 6158   1.762   4.822   3.755
 2072TIP3    H1 6159   1.851   4.851   3.773
 2072TIP3    H2 6160   1.708   4.873   3.816
 2073TIP3   OH2 6161   3.329   4.654   0.898
 2073TIP3    H1 6162   3.373   4.737   0.916
 2073TIP3    H2 6163   3.323   4.650   0.802
 2074TIP3   OH2 6164   0.974   1.337   2.556
 2074TIP3    H1 6165   1.021   1.370   2.478
 2074TIP3    H2 6166   0.883   1.327   2.527
 2075TIP3   OH2 6167   1.519   6.883   3.664
 2075TIP3    H1 6168   1.497   6.975   3.653
 2075TIP3    H2 6169   1.501   6.865   3.757
 2076TIP3   OH2 6170   1.310   1.860   0.367
 2076TIP3    H1 6171   1.311   1.852   0.463
 2076TIP3    H2 6172   1.217   1.861   0.344
 2077TIP3   OH2 6173   7.643   1.224   4.463
 2077TIP3    H1 6174   7.678   1.134   4.461
 2077TIP3    H2 6175   7.569   1.219   4.523
 2078TIP3   OH2 6176   5.068   2.844   5.417
 2078TIP3    H1 6177   4.994   2.808   5.367
 2078TIP3    H2 6178   5.071   2.936   5.393
 2079TIP3   OH2 6179   5.710   6.440   1.813
 2079TIP3    H1 6180   5.688   6.530   1.837
 2079TIP3    H2 6181   5.803   6.431   1.838
 2080TIP3   OH2 6182   5.366   2.465   6.311
 2080TIP3    H1 6183   5.371   2.384   6.260
 2080TIP3    H2 6184   5.288   2.509   6.278
 2081TIP3   OH2 6185   4.001   6.498   4.377
 2081TIP3    H1 6186   4.024   6.455   4.294
 2081TIP3    H2 6187   4.049   6.450   4.444
 2082TIP3   OH2 6188   7.180   4.327   0.181
 2082TIP3    H1 6189   7.216   4.358   0.265
 2082TIP3    H2 6190   7.090   4.301   0.201
 2083TIP3   OH2 6191   7.536   2.608   2.103
 2083TIP3    H1 6192   7.618   2.587   2.147
 2083TIP3    H2 6193   7.503   2.686   2.149
 2084TIP3   OH2 6194   7.160   6.114   2.449
 2084TIP3    H1 6195   7.082   6.137   2.500
 2084TIP3    H2 6196   7.135   6.129   2.358
 2085TIP3   OH2 6197   6.896   4.610   4.116
 2085TIP3    H1 6198   6.884   4.693   4.071
 2085TIP3    H2 6199   6.987   4.586   4.099
 2086TIP3   OH2 6200   2.626   2.260   6.147
 2086TIP3    H1 6201   2.654   2.300   6.065
 2086TIP3    H2 6202   2.707   2.226   6.186
 2087TIP3   OH2 6203   2.755   4.722   5.910
 2087TIP3    H1 6204   2.725   4.789   5.848
 2087TIP3    H2 6205   2.830   4.681   5.867
 2088TIP3   OH2 6206   1.771   5.298   0.938
 2088TIP3    H1 6207   1.781   5.360   0.866
 2088TIP3    H2 6208   1.851   5.309   0.990
 2089TIP3   OH2 6209   6.068   6.887   4.123
 2089TIP3    H1 6210   6.122   6.929   4.190
 2089TIP3    H2 6211   6.057   6.954   4.056
 2090TIP3   OH2 6212   1.043   1.025   6.036
 2090TIP3    H1 6213   1.043   0.932   6.015
 2090TIP3    H2 6214   1.071   1.029   6.128
 2091TIP3   OH2 6215   7.748   0.831   6.142
 2091TIP3    H1 6216   7.831   0.789   6.165
 2091TIP3    H2 6217   7.682   0.763   6.157
 2092TIP3   OH2 6218   6.268   2.980   1.411
 2092TIP3    H1 6219   6.269   3.054   1.350
 2092TIP3    H2 6220   6.341   2.925   1.381
 2093TIP3   OH2 6221   3.373   6.210   1.241
 2093TIP3    H1 6222   3.396   6.181   1.330
 2093TIP3    H2 6223   3.401   6.139   1.184
 2094TIP3   OH2 6224   0.738   7.434   1.853
 2094TIP3    H1 6225   0.743   7.389   1.769
 2094TIP3    H2 6226   0.820   7.484   1.858
 2095TIP3   OH2 6227   0.234   2.910   0.227
 2095TIP3    H1 6228   0.192   2.994   0.205
 2095TIP3    H2 6229   0.171   2.844   0.198
 2096TIP3   OH2 6230   4.998   0.572   5.974
 2096TIP3    H1 6231   4.948   0.510   6.028
 2096TIP3    H2 6232   5.062   0.517   5.929
 2097TIP3   OH2 6233   0.855   5.271   0.369
 2097TIP3    H1 6234   0.771   5.226   0.364
 2097TIP3    H2 6235   0.846   5.331   0.443
 2098TIP3   OH2 6236   1.012   6.139   4.815
 2098TIP3    H1 6237   0.952   6.122   4.887
 2098TIP3    H2 6238   1.056   6.221   4.838
 2099TIP3   OH2 6239   6.693   6.193   5.885
 2099TIP3    H1 6240   6.624   6.133   5.854
 2099TIP3    H2 6241   6.717   6.158   5.971
 2100TIP3   OH2 6242   2.387   5.236   2.931
 2100TIP3    H1 6243   2.431   5.184   2.998
 2100TIP3    H2 6244   2.345   5.171   2.874
 2101TIP3   OH2 6245   0.476   1.589   3.979
 2101TIP3    H1 6246   0.407   1.610   3.916
 2101TIP3    H2 6247   0.553   1.634   3.946
 2102TIP3   OH2 6248   2.432   4.751   5.025
 2102TIP3    H1 6249   2.338   4.746   5.042
 2102TIP3    H2 6250   2.449   4.844   5.009
 2103TIP3   OH2 6251   1.913   3.919   3.339
 2103TIP3    H1 6252   1.950   3.860   3.273
 2103TIP3    H2 6253   1.979   3.922   3.408
 2104TIP3   OH2 6254   6.129   7.408   6.292
 2104TIP3    H1 6255   6.141   7.445   6.379
 2104TIP3    H2 6256   6.035   7.395   6.283
 2105TIP3   OH2 6257   0.103   6.585   2.763
 2105TIP3    H1 6258   0.071   6.503   2.800
 2105TIP3    H2 6259   0.194   6.591   2.792
 2106TIP3   OH2 6260   6.742   7.365   4.067
 2106TIP3    H1 6261   6.827   7.404   4.087
 2106TIP3    H2 6262   6.692   7.437   4.027
 2107TIP3   OH2 6263   3.348   0.573   6.034
 2107TIP3    H1 6264   3.271   0.602   5.986
 2107TIP3    H2 6265   3.422   0.612   5.986
 2108TIP3   OH2 6266   4.998   2.099   2.090
 2108TIP3    H1 6267   4.906   2.104   2.065
 2108TIP3    H2 6268   5.012   2.176   2.145
 2109TIP3   OH2 6269   1.230   3.139   6.176
 2109TIP3    H1 6270   1.280   3.123   6.256
 2109TIP3    H2 6271   1.150   3.088   6.188
 2110TIP3   OH2 6272   5.852   6.360   3.022
 2110TIP3    H1 6273   5.883   6.283   2.975
 2110TIP3    H2 6274   5.764   6.338   3.051
 2111TIP3   OH2 6275   0.448   4.374   1.538
 2111TIP3    H1 6276   0.462   4.286   1.571
 2111TIP3    H2 6277   0.495   4.431   1.599
 2112TIP3   OH2 6278   2.698   5.096   3.611
 2112TIP3    H1 6279   2.627   5.053   3.660
 2112TIP3    H2 6280   2.778   5.067   3.656
 2113TIP3   OH2 6281   4.568   4.484   1.840
 2113TIP3    H1 6282   4.507   4.549   1.805
 2113TIP3    H2 6283   4.511   4.411   1.867
 2114TIP3   OH2 6284   3.502   0.605   5.229
 2114TIP3    H1 6285   3.468   0.669   5.290
 2114TIP3    H2 6286   3.448   0.527   5.244
 2115TIP3   OH2 6287   6.225   1.183   5.424
 2115TIP3    H1 6288   6.298   1.144   5.376
 2115TIP3    H2 6289   6.220   1.134   5.506
 2116TIP3   OH2 6290   7.971   3.457   2.007
 2116TIP3    H1 6291   7.942   3.366   2.005
 2116TIP3    H2 6292   7.990   3.478   1.916
 2117TIP3   OH2 6293   2.317   1.606   1.003
 2117TIP3    H1 6294   2.290   1.650   1.084
 2117TIP3    H2 6295   2.312   1.674   0.936
 2118TIP3   OH2 6296   4.397   5.381   6.325
 2118TIP3    H1 6297   4.382   5.465   6.281
 2118TIP3    H2 6298   4.492   5.373   6.331
 2119TIP3   OH2 6299   6.806   7.351   3.658
 2119TIP3    H1 6300   6.771   7.272   3.700
 2119TIP3    H2 6301   6.884   7.322   3.612
 2120TIP3   OH2 6302   0.155   4.407   6.443
 2120TIP3    H1 6303   0.177   4.456   6.522
 2120TIP3    H2 6304   0.217   4.333   6.442
 2121TIP3   OH2 6305   4.115   0.461   6.347
 2121TIP3    H1 6306   4.108   0.503   6.432
 2121TIP3    H2 6307   4.192   0.404   6.354
 2122TIP3   OH2 6308   0.812   6.515   4.629
 2122TIP3    H1 6309   0.737   6.534   4.685
 2122TIP3    H2 6310   0.830   6.597   4.583
 2123TIP3   OH2 6311   3.282   2.295   2.252
 2123TIP3    H1 6312   3.207   2.336   2.210
 2123TIP3    H2 6313   3.293   2.342   2.334
 2124TIP3   OH2 6314   7.592   0.325   4.934
 2124TIP3    H1 6315   7.524   0.339   4.868
 2124TIP3    H2 6316   7.673   0.347   4.888
 2125TIP3   OH2 6317   5.482   1.126   0.097
 2125TIP3    H1 6318   5.452   1.061   0.161
 2125TIP3    H2 6319   5.410   1.134   0.035
 2126TIP3   OH2 6320   1.264   3.215   4.552
 2126TIP3    H1 6321   1.285   3.290   4.608
 2126TIP3    H2 6322   1.170   3.201   4.565
 2127TIP3   OH2 6323   7.483   6.622   0.619
 2127TIP3    H1 6324   7.437   6.659   0.544
 2127TIP3    H2 6325   7.443   6.664   0.695
 2128TIP3   OH2 6326   6.589   0.343   3.779
 2128TIP3    H1 6327   6.581   0.416   3.717
 2128TIP3    H2 6328   6.678   0.350   3.813
 2129TIP3   OH2 6329   6.114   4.280   3.493
 2129TIP3    H1 6330   6.132   4.187   3.509
 2129TIP3    H2 6331   6.021   4.282   3.468
 2130TIP3   OH2 6332   5.985   2.940   5.723
 2130TIP3    H1 6333   5.992   2.852   5.760
 2130TIP3    H2 6334   6.023   2.997   5.789
 2131TIP3   OH2 6335   0.796   6.979   4.995
 2131TIP3    H1 6336   0.763   6.937   5.075
 2131TIP3    H2 6337   0.871   7.030   5.023
 2132TIP3   OH2 6338   8.112   1.316   4.622
 2132TIP3    H1 6339   8.201   1.293   4.595
 2132TIP3    H2 6340   8.093   1.255   4.694
 2133TIP3   OH2 6341   1.254   4.034   0.355
 2133TIP3    H1 6342   1.257   4.120   0.398
 2133TIP3    H2 6343   1.174   3.993   0.389
 2134TIP3   OH2 6344   5.519   7.263   1.103
 2134TIP3    H1 6345   5.483   7.241   1.189
 2134TIP3    H2 6346   5.589   7.326   1.120
 2135TIP3   OH2 6347   2.253   1.072   6.126
 2135TIP3    H1 6348   2.212   1.086   6.040
 2135TIP3    H2 6349   2.213   1.138   6.182
 2136TIP3   OH2 6350   1.530   4.294   3.149
 2136TIP3    H1 6351   1.578   4.351   3.208
 2136TIP3    H2 6352   1.552   4.205   3.179
 2137TIP3   OH2 6353   0.308   3.700   0.361
 2137TIP3    H1 6354   0.387   3.659   0.325
 2137TIP3    H2 6355   0.283   3.645   0.435
 2138TIP3   OH2 6356   3.890   7.667   6.757
 2138TIP3    H1 6357   3.935   7.585   6.740
 2138TIP3    H2 6358   3.938   7.732   6.706
 2139TIP3   OH2 6359   0.460   3.997   1.153
 2139TIP3    H1 6360   0.440   3.918   1.203
 2139TIP3    H2 6361   0.415   3.983   1.069
 2140TIP3   OH2 6362   3.702   0.081   6.581
 2140TIP3    H1 6363   3.656   0.163   6.571
 2140TIP3    H2 6364   3.674   0.028   6.507
 2141TIP3   OH2 6365   1.232   4.141   2.916
 2141TIP3    H1 6366   1.290   4.067   2.935
 2141TIP3    H2 6367   1.259   4.171   2.830
 2142TIP3   OH2 6368   2.211   5.827   6.625
 2142TIP3    H1 6369   2.216   5.808   6.718
 2142TIP3    H2 6370   2.162   5.754   6.588
 2143TIP3   OH2 6371   2.956   4.583   4.193
 2143TIP3    H1 6372   2.994   4.547   4.273
 2143TIP3    H2 6373   2.872   4.539   4.184
 2144TIP3   OH2 6374   6.292   1.206   2.042
 2144TIP3    H1 6375   6.381   1.230   2.066
 2144TIP3    H2 6376   6.296   1.191   1.947
 2145TIP3   OH2 6377   5.625   0.761   6.621
 2145TIP3    H1 6378   5.657   0.850   6.608
 2145TIP3    H2 6379   5.627   0.722   6.533
 2146TIP3   OH2 6380   3.581   3.422   1.562
 2146TIP3    H1 6381   3.543   3.506   1.589
 2146TIP3    H2 6382   3.613   3.383   1.644
 2147TIP3   OH2 6383   6.197   5.162   0.566
 2147TIP3    H1 6384   6.102   5.166   0.558
 2147TIP3    H2 6385   6.226   5.115   0.487
 2148TIP3   OH2 6386   4.255   2.306   5.890
 2148TIP3    H1 6387   4.339   2.329   5.852
 2148TIP3    H2 6388   4.194   2.307   5.816
 2149TIP3   OH2 6389   2.317   2.010   1.941
 2149TIP3    H1 6390   2.259   2.060   1.999
 2149TIP3    H2 6391   2.270   2.005   1.858
 2150TIP3   OH2 6392   6.819   7.253   3.084
 2150TIP3    H1 6393   6.825   7.159   3.068
 2150TIP3    H2 6394   6.811   7.261   3.179
 2151TIP3   OH2 6395   3.428   3.822   3.990
 2151TIP3    H1 6396   3.468   3.906   3.969
 2151TIP3    H2 6397   3.342   3.845   4.024
 2152TIP3   OH2 6398   1.011   3.887   6.377
 2152TIP3    H1 6399   1.089   3.940   6.362
 2152TIP3    H2 6400   1.037   3.823   6.443
 2153TIP3   OH2 6401   7.215   5.166   0.325
 2153TIP3    H1 6402   7.291   5.111   0.306
 2153TIP3    H2 6403   7.232   5.201   0.412
 2154TIP3   OH2 6404   4.390   3.416   5.572
 2154TIP3    H1 6405   4.434   3.408   5.487
 2154TIP3    H2 6406   4.315   3.356   5.566
 2155TIP3   OH2 6407   5.723   2.063   3.628
 2155TIP3    H1 6408   5.794   2.006   3.656
 2155TIP3    H2 6409   5.651   2.044   3.688
 2156TIP3   OH2 6410   0.301   6.165   4.552
 2156TIP3    H1 6411   0.367   6.099   4.532
 2156TIP3    H2 6412   0.300   6.169   4.648
 2157TIP3   OH2 6413   0.388   2.289   0.402
 2157TIP3    H1 6414   0.411   2.299   0.495
 2157TIP3    H2 6415   0.442   2.216   0.372
 2158TIP3   OH2 6416   4.120   3.005   3.752
 2158TIP3    H1 6417   4.070   3.047   3.822
 2158TIP3    H2 6418   4.056   2.991   3.682
 2159TIP3   OH2 6419   6.224   3.585   0.785
 2159TIP3    H1 6420   6.160   3.532   0.738
 2159TIP3    H2 6421   6.212   3.562   0.877
 2160TIP3   OH2 6422   0.180   1.930   3.715
 2160TIP3    H1 6423   0.265   1.964   3.686
 2160TIP3    H2 6424   0.137   2.005   3.757
 2161TIP3   OH2 6425   0.862   5.538   5.934
 2161TIP3    H1 6426   0.832   5.449   5.916
 2161TIP3    H2 6427   0.851   5.549   6.028
 2162TIP3   OH2 6428   5.598   3.892   3.115
 2162TIP3    H1 6429   5.643   3.977   3.120
 2162TIP3    H2 6430   5.535   3.894   3.187
 2163TIP3   OH2 6431   3.018   1.544   3.382
 2163TIP3    H1 6432   3.065   1.476   3.430
 2163TIP3    H2 6433   2.974   1.595   3.450
 2164TIP3   OH2 6434   7.697   2.239   4.392
 2164TIP3    H1 6435   7.623   2.282   4.350
 2164TIP3    H2 6436   7.660   2.159   4.430
 2165TIP3   OH2 6437   7.376   4.358   2.314
 2165TIP3    H1 6438   7.307   4.397   2.367
 2165TIP3    H2 6439   7.397   4.275   2.358
 2166TIP3   OH2 6440   4.173   6.014   0.971
 2166TIP3    H1 6441   4.168   5.936   0.916
 2166TIP3    H2 6442   4.099   6.006   1.031
 2167TIP3   OH2 6443   5.595   2.861   1.989
 2167TIP3    H1 6444   5.610   2.851   2.083
 2167TIP3    H2 6445   5.559   2.777   1.961
 2168TIP3   OH2 6446   7.924   0.381   6.379
 2168TIP3    H1 6447   7.828   0.376   6.376
 2168TIP3    H2 6448   7.944   0.472   6.357
 2169TIP3   OH2 6449   1.047   4.929   3.575
 2169TIP3    H1 6450   1.011   5.011   3.609
 2169TIP3    H2 6451   1.030   4.865   3.643
 2170TIP3   OH2 6452   5.233   0.105   3.992
 2170TIP3    H1 6453   5.320   0.118   3.953
 2170TIP3    H2 6454   5.237   0.018   4.030
 2171TIP3   OH2 6455   1.974   6.352   2.667
 2171TIP3    H1 6456   2.038   6.424   2.670
 2171TIP3    H2 6457   1.945   6.342   2.758
 2172TIP3   OH2 6458   8.227   5.151   1.112
 2172TIP3    H1 6459   8.210   5.178   1.202
 2172TIP3    H2 6460   8.227   5.232   1.062
 2173TIP3   OH2 6461   4.031   5.327   2.833
 2173TIP3    H1 6462   3.975   5.285   2.768
 2173TIP3    H2 6463   3.971   5.371   2.893
 2174TIP3   OH2 6464   2.991   4.069   4.246
 2174TIP3    H1 6465   3.070   4.121   4.259
 2174TIP3    H2 6466   3.010   3.985   4.288
 2175TIP3   OH2 6467   0.839   0.000   2.613
 2175TIP3    H1 6468   0.836   0.065   2.683
 2175TIP3    H2 6469   0.790  -0.075   2.647
 2176TIP3   OH2 6470   1.216   4.062   6.274
 2176TIP3    H1 6471   1.283   4.126   6.296
 2176TIP3    H2 6472   1.219   4.055   6.179
 2177TIP3   OH2 6473   3.068   2.716   5.833
 2177TIP3    H1 6474   3.152   2.737   5.793
 2177TIP3    H2 6475   3.004   2.762   5.778
 2178TIP3   OH2 6476   4.767   7.430   1.225
 2178TIP3    H1 6477   4.727   7.357   1.178
 2178TIP3    H2 6478   4.826   7.470   1.161
 2179TIP3   OH2 6479   5.812   6.718   1.188
 2179TIP3    H1 6480   5.828   6.733   1.281
 2179TIP3    H2 6481   5.717   6.710   1.180
 2180TIP3   OH2 6482   4.721   2.076   1.204
 2180TIP3    H1 6483   4.632   2.044   1.220
 2180TIP3    H2 6484   4.720   2.165   1.241
 2181TIP3   OH2 6485   3.073   6.104   6.433
 2181TIP3    H1 6486   3.110   6.190   6.456
 2181TIP3    H2 6487   3.148   6.052   6.408
 2182TIP3   OH2 6488   5.220   6.267   2.341
 2182TIP3    H1 6489   5.304   6.279   2.298
 2182TIP3    H2 6490   5.155   6.282   2.272
 2183TIP3   OH2 6491   3.657   5.961   4.329
 2183TIP3    H1 6492   3.685   5.922   4.411
 2183TIP3    H2 6493   3.581   6.015   4.352
 2184TIP3   OH2 6494   7.376   3.179   5.295
 2184TIP3    H1 6495   7.295   3.214   5.331
 2184TIP3    H2 6496   7.355   3.087   5.275
 2185TIP3   OH2 6497   3.481   6.712   3.640
 2185TIP3    H1 6498   3.492   6.692   3.733
 2185TIP3    H2 6499   3.396   6.673   3.617
 2186TIP3   OH2 6500   7.271   4.396   3.256
 2186TIP3    H1 6501   7.210   4.323   3.271
 2186TIP3    H2 6502   7.215   4.474   3.257
 2187TIP3   OH2 6503   0.211   3.419   4.619
 2187TIP3    H1 6504   0.116   3.421   4.627
 2187TIP3    H2 6505   0.242   3.399   4.708
 2188TIP3   OH2 6506   5.923   6.136   4.641
 2188TIP3    H1 6507   5.945   6.214   4.692
 2188TIP3    H2 6508   5.957   6.063   4.693
 2189TIP3   OH2 6509   1.676   3.409   2.929
 2189TIP3    H1 6510   1.665   3.431   2.836
 2189TIP3    H2 6511   1.618   3.469   2.975
 2190TIP3   OH2 6512   2.233   3.582   3.609
 2190TIP3    H1 6513   2.241   3.500   3.657
 2190TIP3    H2 6514   2.159   3.568   3.549
 2191TIP3   OH2 6515   1.855   0.636   6.359
 2191TIP3    H1 6516   1.944   0.612   6.383
 2191TIP3    H2 6517   1.807   0.553   6.358
 2192TIP3   OH2 6518   4.610   6.948   6.602
 2192TIP3    H1 6519   4.680   6.984   6.547
 2192TIP3    H2 6520   4.543   6.920   6.540
 2193TIP3   OH2 6521   6.514   7.721   0.025
 2193TIP3    H1 6522   6.541   7.709   0.116
 2193TIP3    H2 6523   6.418   7.724   0.028
 2194TIP3   OH2 6524   3.801   6.489   3.273
 2194TIP3    H1 6525   3.719   6.446   3.296
 2194TIP3    H2 6526   3.777   6.581   3.259
 2195TIP3   OH2 6527   5.036   1.974   2.506
 2195TIP3    H1 6528   5.014   2.066   2.518
 2195TIP3    H2 6529   5.074   1.970   2.418
 2196TIP3   OH2 6530   4.021   0.104   0.604
 2196TIP3    H1 6531   4.064   0.102   0.690
 2196TIP3    H2 6532   3.928   0.097   0.625
 2197TIP3   OH2 6533   8.064   7.774   5.617
 2197TIP3    H1 6534   8.060   7.697   5.560
 2197TIP3    H2 6535   8.157   7.788   5.633
 2198TIP3   OH2 6536   2.784   1.305   4.971
 2198TIP3    H1 6537   2.744   1.268   4.892
 2198TIP3    H2 6538   2.754   1.396   4.972
 2199TIP3   OH2 6539   3.783   0.149   4.997
 2199TIP3    H1 6540   3.778   0.083   5.066
 2199TIP3    H2 6541   3.734   0.224   5.031
 2200TIP3   OH2 6542   8.123   0.255   2.296
 2200TIP3    H1 6543   8.030   0.275   2.296
 2200TIP3    H2 6544   8.136   0.196   2.221
 2201TIP3   OH2 6545   4.527   7.576   2.584
 2201TIP3    H1 6546   4.601   7.611   2.634
 2201TIP3    H2 6547   4.558   7.491   2.553
 2202TIP3   OH2 6548   6.800   5.303   0.499
 2202TIP3    H1 6549   6.714   5.340   0.519
 2202TIP3    H2 6550   6.848   5.374   0.455
 2203TIP3   OH2 6551   2.037   2.495   0.491
 2203TIP3    H1 6552   2.038   2.455   0.404
 2203TIP3    H2 6553   1.956   2.462   0.532
 2204TIP3   OH2 6554   3.342   3.157   0.334
 2204TIP3    H1 6555   3.388   3.233   0.370
 2204TIP3    H2 6556   3.357   3.163   0.239
 2205TIP3   OH2 6557   5.152   4.101   0.439
 2205TIP3    H1 6558   5.066   4.062   0.423
 2205TIP3    H2 6559   5.210   4.060   0.375
 2206TIP3   OH2 6560   6.684   4.856   0.620
 2206TIP3    H1 6561   6.752   4.791   0.641
 2206TIP3    H2 6562   6.608   4.804   0.594
 2207TIP3   OH2 6563   0.680   3.181   5.465
 2207TIP3    H1 6564   0.773   3.185   5.446
 2207TIP3    H2 6565   0.672   3.215   5.554
 2208TIP3   OH2 6566   5.435   5.745   3.184
 2208TIP3    H1 6567   5.428   5.656   3.221
 2208TIP3    H2 6568   5.354   5.789   3.212
 2209TIP3   OH2 6569   3.755   4.449   3.362
 2209TIP3    H1 6570   3.700   4.449   3.440
 2209TIP3    H2 6571   3.800   4.534   3.365
 2210TIP3   OH2 6572   4.571   5.185   1.107
 2210TIP3    H1 6573   4.492   5.141   1.139
 2210TIP3    H2 6574   4.546   5.221   1.022
 2211TIP3   OH2 6575   5.629   4.862   5.692
 2211TIP3    H1 6576   5.638   4.792   5.756
 2211TIP3    H2 6577   5.588   4.934   5.740
 2212TIP3   OH2 6578   7.602   5.970   1.721
 2212TIP3    H1 6579   7.686   5.926   1.728
 2212TIP3    H2 6580   7.565   5.964   1.809
 2213TIP3   OH2 6581   1.008   0.866   1.748
 2213TIP3    H1 6582   1.103   0.863   1.740
 2213TIP3    H2 6583   0.990   0.950   1.792
 2214TIP3   OH2 6584   5.326   0.631   2.158
 2214TIP3    H1 6585   5.241   0.589   2.167
 2214TIP3    H2 6586   5.385   0.579   2.213
 2215TIP3   OH2 6587   5.200   1.290   0.374
 2215TIP3    H1 6588   5.108   1.315   0.362
 2215TIP3    H2 6589   5.195   1.208   0.424
 2216TIP3   OH2 6590   1.117   5.387   5.871
 2216TIP3    H1 6591   1.113   5.405   5.965
 2216TIP3    H2 6592   1.185   5.320   5.862
 2217TIP3   OH2 6593   4.474   0.342  -0.026
 2217TIP3    H1 6594   4.476   0.309   0.064
 2217TIP3    H2 6595   4.527   0.280  -0.076
 2218TIP3   OH2 6596   5.186   2.038   4.875
 2218TIP3    H1 6597   5.235   2.118   4.854
 2218TIP3    H2 6598   5.095   2.061   4.861
 2219TIP3   OH2 6599   4.626   7.240   1.043
 2219TIP3    H1 6600   4.544   7.215   1.085
 2219TIP3    H2 6601   4.651   7.164   0.991
 2220TIP3   OH2 6602   1.869   0.372   0.689
 2220TIP3    H1 6603   1.820   0.291   0.676
 2220TIP3    H2 6604   1.845   0.427   0.614
 2221TIP3   OH2 6605   2.437   4.253   5.145
 2221TIP3    H1 6606   2.483   4.170   5.157
 2221TIP3    H2 6607   2.503   4.312   5.110
 2222TIP3   OH2 6608   0.151   3.939   2.572
 2222TIP3    H1 6609   0.061   3.950   2.541
 2222TIP3    H2 6610   0.163   4.008   2.637
 2223TIP3   OH2 6611   5.148   6.005   0.154
 2223TIP3    H1 6612   5.059   6.027   0.126
 2223TIP3    H2 6613   5.137   5.929   0.211
 2224TIP3   OH2 6614   4.209   1.427   5.764
 2224TIP3    H1 6615   4.207   1.473   5.679
 2224TIP3    H2 6616   4.210   1.498   5.829
 2225TIP3   OH2 6617   5.965   7.530   0.752
 2225TIP3    H1 6618   5.880   7.528   0.797
 2225TIP3    H2 6619   5.962   7.455   0.692
 2226TIP3   OH2 6620   4.703   2.294   6.581
 2226TIP3    H1 6621   4.659   2.331   6.658
 2226TIP3    H2 6622   4.716   2.202   6.604
 2227TIP3   OH2 6623   5.571   2.327   3.578
 2227TIP3    H1 6624   5.625   2.283   3.513
 2227TIP3    H2 6625   5.601   2.291   3.662
 2228TIP3   OH2 6626   5.526   3.974   4.650
 2228TIP3    H1 6627   5.463   3.903   4.660
 2228TIP3    H2 6628   5.608   3.939   4.685
 2229TIP3   OH2 6629   6.367   1.983   3.942
 2229TIP3    H1 6630   6.434   1.938   3.890
 2229TIP3    H2 6631   6.415   2.050   3.990
 2230TIP3   OH2 6632   5.710   1.720   3.154
 2230TIP3    H1 6633   5.634   1.696   3.207
 2230TIP3    H2 6634   5.740   1.803   3.190
 2231TIP3   OH2 6635   7.060   4.029   6.040
 2231TIP3    H1 6636   7.025   3.970   6.107
 2231TIP3    H2 6637   7.153   4.005   6.033
 2232TIP3   OH2 6638   5.562   1.777   5.500
 2232TIP3    H1 6639   5.569   1.828   5.419
 2232TIP3    H2 6640   5.518   1.696   5.474
 2233TIP3   OH2 6641   5.399   4.463   2.305
 2233TIP3    H1 6642   5.385   4.485   2.213
 2233TIP3    H2 6643   5.318   4.487   2.349
 2234TIP3   OH2 6644   6.047   3.298   3.276
 2234TIP3    H1 6645   6.087   3.299   3.189
 2234TIP3    H2 6646   6.092   3.228   3.323
 2235TIP3   OH2 6647   8.233   0.336   1.465
 2235TIP3    H1 6648   8.138   0.334   1.455
 2235TIP3    H2 6649   8.256   0.249   1.498
 2236TIP3   OH2 6650   7.188   3.271   1.299
 2236TIP3    H1 6651   7.273   3.309   1.278
 2236TIP3    H2 6652   7.163   3.310   1.382
 2237TIP3   OH2 6653   7.697   6.659   3.127
 2237TIP3    H1 6654   7.773   6.649   3.184
 2237TIP3    H2 6655   7.663   6.746   3.148
 2238TIP3   OH2 6656   6.767   6.318   3.239
 2238TIP3    H1 6657   6.862   6.330   3.230
 2238TIP3    H2 6658   6.757   6.227   3.264
 2239TIP3   OH2 6659   0.550   7.080   2.830
 2239TIP3    H1 6660   0.622   7.020   2.812
 2239TIP3    H2 6661   0.500   7.039   2.900
 2240TIP3   OH2 6662   4.040   4.287   5.439
 2240TIP3    H1 6663   4.040   4.365   5.494
 2240TIP3    H2 6664   4.110   4.232   5.474
 2241TIP3   OH2 6665   6.005   1.147   6.272
 2241TIP3    H1 6666   5.951   1.069   6.281
 2241TIP3    H2 6667   6.091   1.121   6.305
 2242TIP3   OH2 6668   1.172   5.536   3.643
 2242TIP3    H1 6669   1.118   5.575   3.713
 2242TIP3    H2 6670   1.118   5.546   3.564
 2243TIP3   OH2 6671   6.680   0.090   1.783
 2243TIP3    H1 6672   6.689   0.007   1.736
 2243TIP3    H2 6673   6.623   0.070   1.857
 2244TIP3   OH2 6674   2.965   3.831   3.212
 2244TIP3    H1 6675   2.957   3.756   3.154
 2244TIP3    H2 6676   3.037   3.810   3.270
 2245TIP3   OH2 6677   1.814   6.655   5.586
 2245TIP3    H1 6678   1.824   6.708   5.665
 2245TIP3    H2 6679   1.790   6.568   5.618
 2246TIP3   OH2 6680   2.382   6.093   2.368
 2246TIP3    H1 6681   2.339   6.033   2.428
 2246TIP3    H2 6682   2.473   6.065   2.367
 2247TIP3   OH2 6683   3.257   1.470   6.128
 2247TIP3    H1 6684   3.329   1.533   6.129
 2247TIP3    H2 6685   3.223   1.469   6.217
 2248TIP3   OH2 6686   8.131   5.321   4.757
 2248TIP3    H1 6687   8.132   5.239   4.807
 2248TIP3    H2 6688   8.213   5.365   4.782
 2249TIP3   OH2 6689   6.424   2.347   3.776
 2249TIP3    H1 6690   6.413   2.267   3.724
 2249TIP3    H2 6691   6.472   2.319   3.854
 2250TIP3   OH2 6692   4.139   1.614   0.112
 2250TIP3    H1 6693   4.076   1.681   0.136
 2250TIP3    H2 6694   4.197   1.606   0.187
 2251TIP3   OH2 6695   4.651   6.558   5.263
 2251TIP3    H1 6696   4.572   6.512   5.235
 2251TIP3    H2 6697   4.716   6.489   5.275
 2252TIP3   OH2 6698   2.256   3.356   3.753
 2252TIP3    H1 6699   2.299   3.377   3.836
 2252TIP3    H2 6700   2.248   3.261   3.753
 2253TIP3   OH2 6701   2.971   6.828   5.975
 2253TIP3    H1 6702   3.017   6.747   5.999
 2253TIP3    H2 6703   3.032   6.874   5.917
 2254TIP3   OH2 6704   1.749   4.326   6.551
 2254TIP3    H1 6705   1.835   4.284   6.552
 2254TIP3    H2 6706   1.730   4.344   6.643
 2255TIP3   OH2 6707   4.943   3.930   6.406
 2255TIP3    H1 6708   4.911   3.863   6.346
 2255TIP3    H2 6709   4.931   3.893   6.493
 2256TIP3   OH2 6710   3.828   3.636   6.139
 2256TIP3    H1 6711   3.846   3.584   6.060
 2256TIP3    H2 6712   3.769   3.705   6.110
 2257TIP3   OH2 6713   5.744   1.976   1.462
 2257TIP3    H1 6714   5.721   2.055   1.415
 2257TIP3    H2 6715   5.807   1.932   1.405
 2258TIP3   OH2 6716   6.965   0.799   1.762
 2258TIP3    H1 6717   6.910   0.727   1.729
 2258TIP3    H2 6718   6.904   0.871   1.776
 2259TIP3   OH2 6719   0.750   1.600   4.384
 2259TIP3    H1 6720   0.698   1.570   4.310
 2259TIP3    H2 6721   0.808   1.666   4.347
 2260TIP3   OH2 6722   5.586   1.365   0.316
 2260TIP3    H1 6723   5.630   1.396   0.237
 2260TIP3    H2 6724   5.641   1.293   0.346
 2261TIP3   OH2 6725   3.723   1.949   6.118
 2261TIP3    H1 6726   3.700   1.880   6.056
 2261TIP3    H2 6727   3.808   1.922   6.154
 2262TIP3   OH2 6728   7.994   4.578   0.739
 2262TIP3    H1 6729   7.976   4.624   0.822
 2262TIP3    H2 6730   8.043   4.500   0.766
 2263TIP3   OH2 6731   5.574   0.487   6.786
 2263TIP3    H1 6732   5.630   0.411   6.776
 2263TIP3    H2 6733   5.535   0.500   6.699
 2264TIP3   OH2 6734   5.558   1.537   2.235
 2264TIP3    H1 6735   5.584   1.481   2.162
 2264TIP3    H2 6736   5.631   1.597   2.246
 2265TIP3   OH2 6737   7.588   3.472   5.155
 2265TIP3    H1 6738   7.633   3.500   5.074
 2265TIP3    H2 6739   7.495   3.485   5.136
 2266TIP3   OH2 6740   7.422   7.459   3.309
 2266TIP3    H1 6741   7.335   7.498   3.321
 2266TIP3    H2 6742   7.404   7.372   3.273
 2267TIP3   OH2 6743   3.400   3.556   6.563
 2267TIP3    H1 6744   3.413   3.651   6.562
 2267TIP3    H2 6745   3.436   3.526   6.479
 2268TIP3   OH2 6746   2.039   4.570   5.626
 2268TIP3    H1 6747   2.052   4.665   5.625
 2268TIP3    H2 6748   1.947   4.559   5.649
 2269TIP3   OH2 6749   5.303   2.866   2.879
 2269TIP3    H1 6750   5.348   2.930   2.934
 2269TIP3    H2 6751   5.213   2.865   2.912
 2270TIP3   OH2 6752   5.226   3.713   4.475
 2270TIP3    H1 6753   5.265   3.717   4.562
 2270TIP3    H2 6754   5.289   3.664   4.422
 2271TIP3   OH2 6755   7.138   2.376   5.331
 2271TIP3    H1 6756   7.166   2.307   5.271
 2271TIP3    H2 6757   7.046   2.391   5.309
 2272TIP3   OH2 6758   3.714   0.588   6.735
 2272TIP3    H1 6759   3.674   0.674   6.749
 2272TIP3    H2 6760   3.645   0.536   6.695
 2273TIP3   OH2 6761   5.146   1.698   0.084
 2273TIP3    H1 6762   5.054   1.678   0.102
 2273TIP3    H2 6763   5.192   1.617   0.106
 2274TIP3   OH2 6764   0.755   7.258   4.081
 2274TIP3    H1 6765   0.720   7.177   4.044
 2274TIP3    H2 6766   0.721   7.326   4.024
 2275TIP3   OH2 6767   3.577   4.159   3.575
 2275TIP3    H1 6768   3.579   4.067   3.603
 2275TIP3    H2 6769   3.668   4.179   3.554
 2276TIP3   OH2 6770   0.104   6.544   2.477
 2276TIP3    H1 6771   0.182   6.554   2.422
 2276TIP3    H2 6772   0.132   6.570   2.564
 2277TIP3   OH2 6773   5.149   6.830   6.675
 2277TIP3    H1 6774   5.131   6.919   6.646
 2277TIP3    H2 6775   5.225   6.803   6.623
 2278TIP3   OH2 6776   5.659   7.690   0.496
 2278TIP3    H1 6777   5.628   7.728   0.414
 2278TIP3    H2 6778   5.675   7.598   0.475
 2279TIP3   OH2 6779   5.509   2.161   4.014
 2279TIP3    H1 6780   5.417   2.164   4.038
 2279TIP3    H2 6781   5.537   2.253   4.010
 2280TIP3   OH2 6782   6.972   7.668   1.145
 2280TIP3    H1 6783   7.062   7.674   1.116
 2280TIP3    H2 6784   6.974   7.699   1.236
 2281TIP3   OH2 6785   0.313   1.223   0.686
 2281TIP3    H1 6786   0.286   1.244   0.596
 2281TIP3    H2 6787   0.338   1.307   0.724
 2282TIP3   OH2 6788   8.248   3.707   3.331
 2282TIP3    H1 6789   8.158   3.686   3.307
 2282TIP3    H2 6790   8.239   3.785   3.387
 2283TIP3   OH2 6791   3.127   2.625   0.429
 2283TIP3    H1 6792   3.114   2.627   0.335
 2283TIP3    H2 6793   3.047   2.586   0.464
 2284TIP3   OH2 6794   2.501   0.983   4.839
 2284TIP3    H1 6795   2.415   1.020   4.858
 2284TIP3    H2 6796   2.498   0.963   4.745
 2285TIP3   OH2 6797   4.521   2.842   5.860
 2285TIP3    H1 6798   4.597   2.800   5.821
 2285TIP3    H2 6799   4.471   2.770   5.899
 2286TIP3   OH2 6800   6.051   6.024   4.142
 2286TIP3    H1 6801   5.959   6.048   4.148
 2286TIP3    H2 6802   6.098   6.096   4.183
 2287TIP3   OH2 6803   7.009   1.595   1.328
 2287TIP3    H1 6804   7.014   1.529   1.398
 2287TIP3    H2 6805   7.100   1.615   1.308
 2288TIP3   OH2 6806   0.250   3.912   3.824
 2288TIP3    H1 6807   0.201   3.834   3.849
 2288TIP3    H2 6808   0.251   3.910   3.728
 2289TIP3   OH2 6809   5.193   2.772   6.515
 2289TIP3    H1 6810   5.226   2.836   6.451
 2289TIP3    H2 6811   5.272   2.728   6.547
 2290TIP3   OH2 6812   3.737   2.931   5.999
 2290TIP3    H1 6813   3.706   2.994   6.064
 2290TIP3    H2 6814   3.738   2.847   6.045
 2291TIP3   OH2 6815   4.998   2.715   2.941
 2291TIP3    H1 6816   4.974   2.633   2.899
 2291TIP3    H2 6817   5.029   2.689   3.028
 2292TIP3   OH2 6818   3.039   5.236   2.205
 2292TIP3    H1 6819   3.072   5.326   2.195
 2292TIP3    H2 6820   3.079   5.205   2.287
 2293TIP3   OH2 6821   6.629   5.914   1.634
 2293TIP3    H1 6822   6.548   5.957   1.662
 2293TIP3    H2 6823   6.599   5.833   1.593
 2294TIP3   OH2 6824  -0.014   1.388   3.663
 2294TIP3    H1 6825   0.033   1.381   3.746
 2294TIP3    H2 6826   0.049   1.359   3.597
 2295TIP3   OH2 6827   1.005   3.847   3.704
 2295TIP3    H1 6828   1.066   3.804   3.644
 2295TIP3    H2 6829   1.042   3.934   3.717
 2296TIP3   OH2 6830   3.469   3.133   0.081
 2296TIP3    H1 6831   3.537   3.069   0.057
 2296TIP3    H2 6832   3.488   3.209   0.026
 2297TIP3   OH2 6833   4.165   2.146   0.826
 2297TIP3    H1 6834   4.165   2.183   0.737
 2297TIP3    H2 6835   4.086   2.091   0.829
 2298TIP3   OH2 6836   8.249   2.203   2.058
 2298TIP3    H1 6837   8.335   2.239   2.084
 2298TIP3    H2 6838   8.186   2.270   2.084
 2299TIP3   OH2 6839   4.395   3.108   2.169
 2299TIP3    H1 6840   4.467   3.138   2.225
 2299TIP3    H2 6841   4.321   3.097   2.229
 2300TIP3   OH2 6842   6.452   3.060   4.751
 2300TIP3    H1 6843   6.370   3.084   4.708
 2300TIP3    H2 6844   6.517   3.121   4.715
 2301TIP3   OH2 6845   0.061   3.528   0.429
 2301TIP3    H1 6846  -0.020   3.576   0.414
 2301TIP3    H2 6847   0.042   3.438   0.401
 2302TIP3   OH2 6848   2.500   4.265   0.267
 2302TIP3    H1 6849   2.574   4.274   0.329
 2302TIP3    H2 6850   2.509   4.340   0.209
 2303TIP3   OH2 6851   4.132   3.575   4.548
 2303TIP3    H1 6852   4.126   3.536   4.461
 2303TIP3    H2 6853   4.047   3.616   4.562
 2304TIP3   OH2 6854   3.107   0.075   1.788
 2304TIP3    H1 6855   3.093   0.155   1.738
 2304TIP3    H2 6856   3.023   0.030   1.786
 2305TIP3   OH2 6857   4.956   4.206   2.642
 2305TIP3    H1 6858   5.013   4.275   2.609
 2305TIP3    H2 6859   4.991   4.126   2.602
 2306TIP3   OH2 6860   0.702   2.187   2.830
 2306TIP3    H1 6861   0.741   2.242   2.763
 2306TIP3    H2 6862   0.656   2.248   2.888
 2307TIP3   OH2 6863   5.891   7.577   4.875
 2307TIP3    H1 6864   5.949   7.597   4.948
 2307TIP3    H2 6865   5.942   7.597   4.797
 2308TIP3   OH2 6866   8.060   4.803   3.755
 2308TIP3    H1 6867   8.099   4.858   3.687
 2308TIP3    H2 6868   7.966   4.819   3.747
 2309TIP3   OH2 6869   2.489   3.988   3.825
 2309TIP3    H1 6870   2.402   4.025   3.808
 2309TIP3    H2 6871   2.494   3.981   3.920
 2310TIP3   OH2 6872   0.781   7.158   3.393
 2310TIP3    H1 6873   0.744   7.116   3.315
 2310TIP3    H2 6874   0.858   7.205   3.362
 2311TIP3   OH2 6875   1.752   0.866   0.373
 2311TIP3    H1 6876   1.796   0.784   0.394
 2311TIP3    H2 6877   1.790   0.930   0.433
 2312TIP3   OH2 6878   6.885   3.870   1.389
 2312TIP3    H1 6879   6.808   3.874   1.445
 2312TIP3    H2 6880   6.856   3.821   1.312
 2313TIP3   OH2 6881   0.334   1.545   5.113
 2313TIP3    H1 6882   0.313   1.620   5.169
 2313TIP3    H2 6883   0.416   1.569   5.071
 2314TIP3   OH2 6884   6.627   0.525   3.026
 2314TIP3    H1 6885   6.720   0.548   3.029
 2314TIP3    H2 6886   6.626   0.435   2.994
 2315TIP3   OH2 6887   5.168   7.684   3.974
 2315TIP3    H1 6888   5.236   7.729   4.025
 2315TIP3    H2 6889   5.147   7.606   4.026
 2316TIP3   OH2 6890   4.375   1.792   2.906
 2316TIP3    H1 6891   4.428   1.849   2.849
 2316TIP3    H2 6892   4.291   1.836   2.913
 2317TIP3   OH2 6893   7.390   0.394   4.730
 2317TIP3    H1 6894   7.304   0.429   4.752
 2317TIP3    H2 6895   7.393   0.397   4.634
 2318TIP3   OH2 6896   1.245   7.606   2.005
 2318TIP3    H1 6897   1.325   7.592   2.056
 2318TIP3    H2 6898   1.175   7.580   2.064
 2319TIP3   OH2 6899   4.054   4.309   3.719
 2319TIP3    H1 6900   4.072   4.345   3.633
 2319TIP3    H2 6901   4.125   4.247   3.736
 2320TIP3   OH2 6902   5.534   1.230   0.968
 2320TIP3    H1 6903   5.451   1.273   0.950
 2320TIP3    H2 6904   5.594   1.264   0.902
 2321TIP3   OH2 6905   2.491   0.266   0.233
 2321TIP3    H1 6906   2.433   0.326   0.280
 2321TIP3    H2 6907   2.528   0.210   0.301
 2322TIP3   OH2 6908   1.345   5.714   5.435
 2322TIP3    H1 6909   1.313   5.625   5.449
 2322TIP3    H2 6910   1.428   5.702   5.388
 2323TIP3   OH2 6911   3.959   4.222   4.077
 2323TIP3    H1 6912   3.976   4.128   4.090
 2323TIP3    H2 6913   3.916   4.226   3.991
 2324TIP3   OH2 6914   7.298   0.025   6.759
 2324TIP3    H1 6915   7.299   0.085   6.684
 2324TIP3    H2 6916   7.210  -0.011   6.760
 2325TIP3   OH2 6917   0.931   1.001   5.066
 2325TIP3    H1 6918   0.848   0.979   5.110
 2325TIP3    H2 6919   0.981   0.920   5.068
 2326TIP3   OH2 6920   2.846   7.749   4.944
 2326TIP3    H1 6921   2.787   7.692   4.994
 2326TIP3    H2 6922   2.841   7.833   4.988
 2327TIP3   OH2 6923   6.845   4.281   3.575
 2327TIP3    H1 6924   6.885   4.306   3.659
 2327TIP3    H2 6925   6.821   4.364   3.534
 2328TIP3   OH2 6926   0.555   6.698   6.883
 2328TIP3    H1 6927   0.515   6.665   6.803
 2328TIP3    H2 6928   0.621   6.633   6.906
 2329TIP3   OH2 6929   3.594   4.643   6.319
 2329TIP3    H1 6930   3.679   4.679   6.293
 2329TIP3    H2 6931   3.604   4.622   6.412
 2330TIP3   OH2 6932   7.356   2.749   6.015
 2330TIP3    H1 6933   7.352   2.838   6.050
 2330TIP3    H2 6934   7.334   2.759   5.922
 2331TIP3   OH2 6935   4.793   6.632   6.178
 2331TIP3    H1 6936   4.827   6.683   6.251
 2331TIP3    H2 6937   4.721   6.581   6.216
 2332TIP3   OH2 6938   3.959   4.638   4.450
 2332TIP3    H1 6939   3.919   4.598   4.528
 2332TIP3    H2 6940   3.921   4.726   4.445
 2333TIP3   OH2 6941   5.097   4.799   1.681
 2333TIP3    H1 6942   5.118   4.762   1.595
 2333TIP3    H2 6943   5.178   4.843   1.708
 2334TIP3   OH2 6944   6.793   0.218   5.402
 2334TIP3    H1 6945   6.865   0.175   5.449
 2334TIP3    H2 6946   6.741   0.259   5.471
 2335TIP3   OH2 6947   1.892   6.472   1.062
 2335TIP3    H1 6948   1.938   6.447   0.982
 2335TIP3    H2 6949   1.803   6.440   1.050
 2336TIP3   OH2 6950   1.410   3.403   2.243
 2336TIP3    H1 6951   1.338   3.361   2.290
 2336TIP3    H2 6952   1.452   3.459   2.308
 2337TIP3   OH2 6953   7.787   7.320   4.826
 2337TIP3    H1 6954   7.859   7.362   4.780
 2337TIP3    H2 6955   7.716   7.317   4.762
 2338TIP3   OH2 6956   6.648   0.090   5.958
 2338TIP3    H1 6957   6.734   0.090   5.916
 2338TIP3    H2 6958   6.667   0.110   6.050
 2339TIP3   OH2 6959   4.424   5.819   1.869
 2339TIP3    H1 6960   4.446   5.911   1.854
 2339TIP3    H2 6961   4.343   5.821   1.919
 2340TIP3   OH2 6962   1.634   4.921   5.998
 2340TIP3    H1 6963   1.710   4.963   6.039
 2340TIP3    H2 6964   1.562   4.936   6.060
 2341TIP3   OH2 6965   5.800   7.235   5.740
 2341TIP3    H1 6966   5.860   7.256   5.668
 2341TIP3    H2 6967   5.759   7.318   5.762
 2342TIP3   OH2 6968   1.987   0.758   4.666
 2342TIP3    H1 6969   2.028   0.701   4.602
 2342TIP3    H2 6970   1.928   0.702   4.715
 2343TIP3   OH2 6971   0.690   3.689   4.833
 2343TIP3    H1 6972   0.602   3.724   4.845
 2343TIP3    H2 6973   0.744   3.738   4.895
 2344TIP3   OH2 6974   1.969   4.366   1.634
 2344TIP3    H1 6975   1.874   4.353   1.637
 2344TIP3    H2 6976   1.980   4.456   1.602
 2345TIP3   OH2 6977   4.705   0.808   1.430
 2345TIP3    H1 6978   4.626   0.762   1.402
 2345TIP3    H2 6979   4.695   0.818   1.525
 2346TIP3   OH2 6980   6.660   3.745   3.513
 2346TIP3    H1 6981   6.717   3.763   3.588
 2346TIP3    H2 6982   6.697   3.797   3.442
 2347TIP3   OH2 6983   1.284   6.381   1.466
 2347TIP3    H1 6984   1.378   6.393   1.452
 2347TIP3    H2 6985   1.259   6.312   1.405
 2348TIP3   OH2 6986   4.833   5.825   3.239
 2348TIP3    H1 6987   4.789   5.908   3.221
 2348TIP3    H2 6988   4.921   5.837   3.201
 2349TIP3   OH2 6989   7.825   6.340   1.436
 2349TIP3    H1 6990   7.804   6.386   1.518
 2349TIP3    H2 6991   7.897   6.282   1.460
 2350TIP3   OH2 6992   5.211   1.584   6.293
 2350TIP3    H1 6993   5.234   1.535   6.214
 2350TIP3    H2 6994   5.116   1.593   6.288
 2351TIP3   OH2 6995   0.577   2.465   3.190
 2351TIP3    H1 6996   0.538   2.406   3.255
 2351TIP3    H2 6997   0.604   2.542   3.241
 2352TIP3   OH2 6998   0.640   3.996   0.686
 2352TIP3    H1 6999   0.660   3.940   0.762
 2352TIP3    H2 7000   0.612   4.079   0.724
 2353TIP3   OH2 7001   5.905   2.244   4.896
 2353TIP3    H1 7002   5.892   2.218   4.805
 2353TIP3    H2 7003   5.822   2.286   4.921
 2354TIP3   OH2 7004   2.997   4.197   4.832
 2354TIP3    H1 7005   2.969   4.165   4.746
 2354TIP3    H2 7006   2.917   4.199   4.884
 2355TIP3   OH2 7007   3.648   4.429   1.957
 2355TIP3    H1 7008   3.610   4.438   1.870
 2355TIP3    H2 7009   3.581   4.383   2.008
 2356TIP3   OH2 7010   4.430   0.893   5.598
 2356TIP3    H1 7011   4.509   0.925   5.642
 2356TIP3    H2 7012   4.409   0.811   5.643
 2357TIP3   OH2 7013   7.896   4.696   5.752
 2357TIP3    H1 7014   7.839   4.625   5.783
 2357TIP3    H2 7015   7.849   4.776   5.774
 2358TIP3   OH2 7016   0.108   2.671   5.140
 2358TIP3    H1 7017   0.134   2.681   5.232
 2358TIP3    H2 7018   0.013   2.661   5.143
 2359TIP3   OH2 7019   6.337   6.107   5.932
 2359TIP3    H1 7020   6.275   6.107   6.005
 2359TIP3    H2 7021   6.360   6.015   5.920
 2360TIP3   OH2 7022   2.055   7.079   4.468
 2360TIP3    H1 7023   2.022   7.065   4.556
 2360TIP3    H2 7024   2.137   7.030   4.464
 2361TIP3   OH2 7025   2.483   3.821   0.392
 2361TIP3    H1 7026   2.550   3.881   0.426
 2361TIP3    H2 7027   2.417   3.879   0.354
 2362TIP3   OH2 7028   8.147   3.261   1.214
 2362TIP3    H1 7029   8.232   3.222   1.197
 2362TIP3    H2 7030   8.087   3.215   1.155
 2363TIP3   OH2 7031   4.277   3.746   3.377
 2363TIP3    H1 7032   4.361   3.700   3.379
 2363TIP3    H2 7033   4.266   3.772   3.285
 2364TIP3   OH2 7034   7.339   6.578   3.266
 2364TIP3    H1 7035   7.248   6.566   3.239
 2364TIP3    H2 7036   7.374   6.644   3.205
 2365TIP3   OH2 7037   3.841   0.519   4.258
 2365TIP3    H1 7038   3.910   0.575   4.292
 2365TIP3    H2 7039   3.879   0.431   4.259
 2366TIP3   OH2 7040   0.240   6.011   5.889
 2366TIP3    H1 7041   0.162   5.956   5.900
 2366TIP3    H2 7042   0.305   5.953   5.849
 2367TIP3   OH2 7043   4.334   5.950   5.762
 2367TIP3    H1 7044   4.328   5.858   5.738
 2367TIP3    H2 7045   4.423   5.960   5.797
 2368TIP3   OH2 7046   2.085   1.050   2.123
 2368TIP3    H1 7047   2.145   1.114   2.161
 2368TIP3    H2 7048   2.123   0.965   2.145
 2369TIP3   OH2 7049   2.366   4.495   2.527
 2369TIP3    H1 7050   2.321   4.579   2.518
 2369TIP3    H2 7051   2.330   4.441   2.456
 2370TIP3   OH2 7052   5.191   6.317   5.164
 2370TIP3    H1 7053   5.205   6.239   5.219
 2370TIP3    H2 7054   5.108   6.301   5.120
 2371TIP3   OH2 7055   4.974   4.427   5.611
 2371TIP3    H1 7056   5.013   4.399   5.528
 2371TIP3    H2 7057   5.039   4.403   5.677
 2372TIP3   OH2 7058   8.006   2.979   0.125
 2372TIP3    H1 7059   7.916   2.949   0.137
 2372TIP3    H2 7060   8.016   2.988   0.031
 2373TIP3   OH2 7061   6.897   1.714   4.738
 2373TIP3    H1 7062   6.975   1.770   4.737
 2373TIP3    H2 7063   6.834   1.762   4.792
 2374TIP3   OH2 7064   0.732   1.906   5.819
 2374TIP3    H1 7065   0.787   1.922   5.742
 2374TIP3    H2 7066   0.792   1.912   5.893
 2375TIP3   OH2 7067   5.887   3.232   0.527
 2375TIP3    H1 7068   5.960   3.172   0.509
 2375TIP3    H2 7069   5.920   3.288   0.598
 2376TIP3   OH2 7070   1.925   4.933   1.873
 2376TIP3    H1 7071   1.867   4.955   1.799
 2376TIP3    H2 7072   1.867   4.895   1.938
 2377TIP3   OH2 7073   3.221   5.548   5.886
 2377TIP3    H1 7074   3.207   5.459   5.917
 2377TIP3    H2 7075   3.273   5.589   5.955
 2378TIP3   OH2 7076   1.492   6.026   0.074
 2378TIP3    H1 7077   1.432   5.953   0.089
 2378TIP3    H2 7078   1.457   6.070  -0.003
 2379TIP3   OH2 7079   4.146   1.440   1.205
 2379TIP3    H1 7080   4.149   1.352   1.242
 2379TIP3    H2 7081   4.229   1.449   1.157
 2380TIP3   OH2 7082   6.832   7.673   5.211
 2380TIP3    H1 7083   6.835   7.689   5.116
 2380TIP3    H2 7084   6.807   7.581   5.219
 2381TIP3   OH2 7085   4.954   6.299   0.700
 2381TIP3    H1 7086   5.021   6.232   0.711
 2381TIP3    H2 7087   4.872   6.250   0.696
 2382TIP3   OH2 7088   4.651   4.554   4.082
 2382TIP3    H1 7089   4.642   4.510   4.167
 2382TIP3    H2 7090   4.611   4.494   4.019
 2383TIP3   OH2 7091   0.979   6.670   5.539
 2383TIP3    H1 7092   0.939   6.744   5.494
 2383TIP3    H2 7093   0.971   6.597   5.478
 2384TIP3   OH2 7094   1.458   3.083   0.603
 2384TIP3    H1 7095   1.492   3.016   0.543
 2384TIP3    H2 7096   1.363   3.078   0.593
 2385TIP3   OH2 7097   4.160   6.473   2.722
 2385TIP3    H1 7098   4.211   6.425   2.787
 2385TIP3    H2 7099   4.069   6.449   2.739
 2386TIP3   OH2 7100   4.090   3.140   5.962
 2386TIP3    H1 7101   4.027   3.206   5.989
 2386TIP3    H2 7102   4.095   3.080   6.036
 2387TIP3   OH2 7103   6.290  -0.025   2.424
 2387TIP3    H1 7104   6.291  -0.003   2.517
 2387TIP3    H2 7105   6.197  -0.039   2.404
 2388TIP3   OH2 7106   1.597   2.114   3.209
 2388TIP3    H1 7107   1.534   2.047   3.183
 2388TIP3    H2 7108   1.647   2.074   3.280
 2389TIP3   OH2 7109   3.096   0.482   2.770
 2389TIP3    H1 7110   3.168   0.514   2.716
 2389TIP3    H2 7111   3.051   0.418   2.714
 2390TIP3   OH2 7112   7.005   2.397   2.424
 2390TIP3    H1 7113   6.983   2.487   2.398
 2390TIP3    H2 7114   6.982   2.344   2.348
 2391TIP3   OH2 7115   1.227   3.389   0.812
 2391TIP3    H1 7116   1.206   3.299   0.839
 2391TIP3    H2 7117   1.288   3.379   0.739
 2392TIP3   OH2 7118   3.597   5.425   5.181
 2392TIP3    H1 7119   3.592   5.516   5.154
 2392TIP3    H2 7120   3.506   5.398   5.195
 2393TIP3   OH2 7121   5.146   7.035   5.518
 2393TIP3    H1 7122   5.154   7.020   5.424
 2393TIP3    H2 7123   5.174   6.953   5.559
 2394TIP3   OH2 7124   5.376   1.656   4.359
 2394TIP3    H1 7125   5.409   1.567   4.373
 2394TIP3    H2 7126   5.433   1.711   4.411
 2395TIP3   OH2 7127   2.048   2.653   0.974
 2395TIP3    H1 7128   2.050   2.709   1.051
 2395TIP3    H2 7129   1.967   2.675   0.929
 2396TIP3   OH2 7130   6.803   3.465   3.578
 2396TIP3    H1 7131   6.812   3.433   3.667
 2396TIP3    H2 7132   6.722   3.516   3.579
 2397TIP3   OH2 7133   1.489   4.290   6.295
 2397TIP3    H1 7134   1.466   4.354   6.228
 2397TIP3    H2 7135   1.560   4.238   6.256
 2398TIP3   OH2 7136   0.193   2.348   6.111
 2398TIP3    H1 7137   0.129   2.419   6.111
 2398TIP3    H2 7138   0.215   2.335   6.203
 2399TIP3   OH2 7139   2.771   3.709   6.289
 2399TIP3    H1 7140   2.777   3.731   6.196
 2399TIP3    H2 7141   2.862   3.700   6.317
 2400TIP3   OH2 7142   1.345   0.879   4.534
 2400TIP3    H1 7143   1.308   0.877   4.622
 2400TIP3    H2 7144   1.319   0.796   4.495
 2401TIP3   OH2 7145   7.762   6.721   2.468
 2401TIP3    H1 7146   7.851   6.754   2.480
 2401TIP3    H2 7147   7.733   6.760   2.385
 2402TIP3   OH2 7148   7.666   0.598   1.495
 2402TIP3    H1 7149   7.573   0.617   1.508
 2402TIP3    H2 7150   7.669   0.506   1.471
 2403TIP3   OH2 7151   4.376   6.996   3.744
 2403TIP3    H1 7152   4.453   7.013   3.798
 2403TIP3    H2 7153   4.332   7.081   3.737
 2404TIP3   OH2 7154   3.052   2.880   5.210
 2404TIP3    H1 7155   3.034   2.792   5.179
 2404TIP3    H2 7156   2.966   2.919   5.224
 2405TIP3   OH2 7157   4.698   3.287   6.596
 2405TIP3    H1 7158   4.716   3.366   6.544
 2405TIP3    H2 7159   4.632   3.240   6.546
 2406TIP3   OH2 7160   7.319   0.308   0.937
 2406TIP3    H1 7161   7.239   0.255   0.944
 2406TIP3    H2 7162   7.372   0.263   0.871
 2407TIP3   OH2 7163   7.511   1.819   6.662
 2407TIP3    H1 7164   7.448   1.774   6.719
 2407TIP3    H2 7165   7.549   1.887   6.718
 2408TIP3   OH2 7166   0.619   2.943   5.239
 2408TIP3    H1 7167   0.555   2.913   5.304
 2408TIP3    H2 7168   0.642   3.032   5.268
 2409TIP3   OH2 7169   4.827   0.451   5.030
 2409TIP3    H1 7170   4.752   0.391   5.028
 2409TIP3    H2 7171   4.815   0.501   5.111
 2410TIP3   OH2 7172   5.810   6.690   5.094
 2410TIP3    H1 7173   5.799   6.661   5.003
 2410TIP3    H2 7174   5.726   6.729   5.117
 2411TIP3   OH2 7175   8.241   2.042   4.214
 2411TIP3    H1 7176   8.275   1.959   4.180
 2411TIP3    H2 7177   8.165   2.061   4.159
 2412TIP3   OH2 7178   2.429   3.334   5.889
 2412TIP3    H1 7179   2.519   3.357   5.914
 2412TIP3    H2 7180   2.384   3.321   5.972
 2413TIP3   OH2 7181   8.115   3.344   2.912
 2413TIP3    H1 7182   8.199   3.304   2.893
 2413TIP3    H2 7183   8.099   3.324   3.004
 2414TIP3   OH2 7184   5.100   3.308   5.111
 2414TIP3    H1 7185   5.175   3.351   5.071
 2414TIP3    H2 7186   5.025   3.362   5.086
 2415TIP3   OH2 7187   7.086   4.920   2.183
 2415TIP3    H1 7188   7.163   4.943   2.235
 2415TIP3    H2 7189   7.105   4.954   2.096
 2416TIP3   OH2 7190   1.747   1.841   5.054
 2416TIP3    H1 7191   1.663   1.876   5.082
 2416TIP3    H2 7192   1.741   1.837   4.959
 2417TIP3   OH2 7193   3.704   2.301   0.568
 2417TIP3    H1 7194   3.651   2.251   0.506
 2417TIP3    H2 7195   3.789   2.256   0.568
 2418TIP3   OH2 7196   5.641   5.376   1.281
 2418TIP3    H1 7197   5.660   5.317   1.353
 2418TIP3    H2 7198   5.577   5.329   1.227
 2419TIP3   OH2 7199   7.799   5.591   2.546
 2419TIP3    H1 7200   7.741   5.531   2.593
 2419TIP3    H2 7201   7.770   5.678   2.572
 2420TIP3   OH2 7202   6.898   0.758   2.312
 2420TIP3    H1 7203   6.908   0.751   2.407
 2420TIP3    H2 7204   6.804   0.770   2.298
 2421TIP3   OH2 7205   1.890   6.204   1.383
 2421TIP3    H1 7206   1.979   6.214   1.418
 2421TIP3    H2 7207   1.866   6.292   1.354
 2422TIP3   OH2 7208   0.732   3.389   6.566
 2422TIP3    H1 7209   0.702   3.402   6.656
 2422TIP3    H2 7210   0.664   3.428   6.512
 2423TIP3   OH2 7211   1.733   3.624   1.422
 2423TIP3    H1 7212   1.793   3.611   1.349
 2423TIP3    H2 7213   1.689   3.707   1.403
 2424TIP3   OH2 7214   2.733   0.358   2.167
 2424TIP3    H1 7215   2.675   0.291   2.202
 2424TIP3    H2 7216   2.820   0.336   2.202
 2425TIP3   OH2 7217   7.053   7.295   3.556
 2425TIP3    H1 7218   7.091   7.347   3.485
 2425TIP3    H2 7219   7.120   7.229   3.576
 2426TIP3   OH2 7220   1.585   6.548   2.606
 2426TIP3    H1 7221   1.618   6.632   2.638
 2426TIP3    H2 7222   1.652   6.517   2.545
 2427TIP3   OH2 7223   1.492   4.422   1.902
 2427TIP3    H1 7224   1.419   4.454   1.848
 2427TIP3    H2 7225   1.566   4.418   1.841
 2428TIP3   OH2 7226   3.876   1.022   3.550
 2428TIP3    H1 7227   3.926   1.092   3.508
 2428TIP3    H2 7228   3.891   0.945   3.494
 2429TIP3   OH2 7229   0.419   4.866   0.744
 2429TIP3    H1 7230   0.364   4.874   0.821
 2429TIP3    H2 7231   0.399   4.944   0.692
 2430TIP3   OH2 7232   2.077   7.804   4.976
 2430TIP3    H1 7233   2.053   7.840   4.891
 2430TIP3    H2 7234   2.089   7.710   4.960
 2431TIP3   OH2 7235   1.644   2.071   1.398
 2431TIP3    H1 7236   1.687   2.151   1.428
 2431TIP3    H2 7237   1.587   2.046   1.471
 2432TIP3   OH2 7238   7.359   0.435   3.701
 2432TIP3    H1 7239   7.353   0.492   3.625
 2432TIP3    H2 7240   7.401   0.488   3.769
 2433TIP3   OH2 7241   7.219   0.652   5.261
 2433TIP3    H1 7242   7.134   0.691   5.280
 2433TIP3    H2 7243   7.248   0.694   5.180
 2434TIP3   OH2 7244   0.080   7.086   5.265
 2434TIP3    H1 7245   0.081   7.175   5.231
 2434TIP3    H2 7246   0.124   7.034   5.199
 2435TIP3   OH2 7247   6.407   1.428   6.105
 2435TIP3    H1 7248   6.347   1.354   6.096
 2435TIP3    H2 7249   6.361   1.489   6.163
 2436TIP3   OH2 7250   4.763   6.179   1.323
 2436TIP3    H1 7251   4.731   6.268   1.337
 2436TIP3    H2 7252   4.766   6.141   1.411
 2437TIP3   OH2 7253   0.180   2.459   5.001
 2437TIP3    H1 7254   0.112   2.392   5.009
 2437TIP3    H2 7255   0.136   2.541   5.023
 2438TIP3   OH2 7256   7.297   1.622   2.298
 2438TIP3    H1 7257   7.285   1.531   2.324
 2438TIP3    H2 7258   7.351   1.660   2.368
 2439TIP3   OH2 7259   6.110   7.217   1.618
 2439TIP3    H1 7260   6.183   7.158   1.601
 2439TIP3    H2 7261   6.126   7.249   1.707
 2440TIP3   OH2 7262   5.033   1.423   5.907
 2440TIP3    H1 7263   5.098   1.459   5.847
 2440TIP3    H2 7264   4.978   1.498   5.930
 2441TIP3   OH2 7265   3.542   2.767   3.255
 2441TIP3    H1 7266   3.486   2.720   3.193
 2441TIP3    H2 7267   3.585   2.699   3.305
 2442TIP3   OH2 7268   4.284   5.351   3.043
 2442TIP3    H1 7269   4.330   5.331   3.125
 2442TIP3    H2 7270   4.239   5.270   3.020
 2443TIP3   OH2 7271   3.391   7.323   1.282
 2443TIP3    H1 7272   3.322   7.371   1.328
 2443TIP3    H2 7273   3.352   7.299   1.198
 2444TIP3   OH2 7274   2.749   6.993   5.909
 2444TIP3    H1 7275   2.676   6.977   5.969
 2444TIP3    H2 7276   2.822   6.943   5.945
 2445TIP3   OH2 7277   7.081   0.527   4.027
 2445TIP3    H1 7278   7.064   0.599   3.967
 2445TIP3    H2 7279   7.177   0.518   4.026
 2446TIP3   OH2 7280   2.215   4.379   1.904
 2446TIP3    H1 7281   2.228   4.457   1.850
 2446TIP3    H2 7282   2.149   4.404   1.968
 2447TIP3   OH2 7283   8.203   7.269   1.324
 2447TIP3    H1 7284   8.201   7.360   1.352
 2447TIP3    H2 7285   8.291   7.239   1.345
 2448TIP3   OH2 7286   6.110   6.567   2.163
 2448TIP3    H1 7287   6.200   6.585   2.136
 2448TIP3    H2 7288   6.093   6.628   2.234
 2449TIP3   OH2 7289   1.355   6.088   1.038
 2449TIP3    H1 7290   1.291   6.033   1.084
 2449TIP3    H2 7291   1.308   6.121   0.961
 2450TIP3   OH2 7292   5.071   4.528   6.370
 2450TIP3    H1 7293   5.006   4.562   6.309
 2450TIP3    H2 7294   5.020   4.482   6.437
 2451TIP3   OH2 7295   1.274   0.328   2.659
 2451TIP3    H1 7296   1.365   0.327   2.631
 2451TIP3    H2 7297   1.263   0.247   2.708
 2452TIP3   OH2 7298   2.858   5.132   2.609
 2452TIP3    H1 7299   2.871   5.121   2.515
 2452TIP3    H2 7300   2.801   5.209   2.616
 2453TIP3   OH2 7301   4.020   1.507   4.166
 2453TIP3    H1 7302   3.953   1.513   4.234
 2453TIP3    H2 7303   4.018   1.592   4.122
 2454TIP3   OH2 7304   7.654   1.274   6.029
 2454TIP3    H1 7305   7.736   1.240   5.992
 2454TIP3    H2 7306   7.668   1.369   6.034
 2455TIP3   OH2 7307   5.652   2.045   6.219
 2455TIP3    H1 7308   5.624   1.994   6.295
 2455TIP3    H2 7309   5.743   2.019   6.205
 2456TIP3   OH2 7310   0.830   5.835   6.586
 2456TIP3    H1 7311   0.923   5.830   6.608
 2456TIP3    H2 7312   0.798   5.912   6.632
 2457TIP3   OH2 7313   4.177   6.476   6.343
 2457TIP3    H1 7314   4.241   6.436   6.284
 2457TIP3    H2 7315   4.124   6.531   6.286
 2458TIP3   OH2 7316   2.855   6.004   3.804
 2458TIP3    H1 7317   2.845   6.041   3.717
 2458TIP3    H2 7318   2.778   5.948   3.815
 2459TIP3   OH2 7319   3.412   7.650   5.684
 2459TIP3    H1 7320   3.467   7.640   5.762
 2459TIP3    H2 7321   3.424   7.569   5.635
 2460TIP3   OH2 7322   2.319   6.223   3.383
 2460TIP3    H1 7323   2.239   6.215   3.436
 2460TIP3    H2 7324   2.359   6.305   3.412
 2461TIP3   OH2 7325   1.152   6.503   3.199
 2461TIP3    H1 7326   1.231   6.496   3.252
 2461TIP3    H2 7327   1.120   6.413   3.190
 2462TIP3   OH2 7328   2.318   2.524   5.490
 2462TIP3    H1 7329   2.252   2.488   5.431
 2462TIP3    H2 7330   2.364   2.448   5.525
 2463TIP3   OH2 7331   6.745   5.098   2.420
 2463TIP3    H1 7332   6.712   5.009   2.404
 2463TIP3    H2 7333   6.677   5.138   2.474
 2464TIP3   OH2 7334   5.538   4.828   1.832
 2464TIP3    H1 7335   5.498   4.827   1.919
 2464TIP3    H2 7336   5.476   4.876   1.777
 2465TIP3   OH2 7337   4.775   7.352   5.494
 2465TIP3    H1 7338   4.809   7.300   5.567
 2465TIP3    H2 7339   4.832   7.330   5.420
 2466TIP3   OH2 7340   3.293   3.149   4.882
 2466TIP3    H1 7341   3.268   3.063   4.916
 2466TIP3    H2 7342   3.210   3.193   4.864
 2467TIP3   OH2 7343   6.738   0.059   4.878
 2467TIP3    H1 7344   6.754   0.105   4.960
 2467TIP3    H2 7345   6.652   0.090   4.849
 2468TIP3   OH2 7346   1.544   5.087   0.173
 2468TIP3    H1 7347   1.563   5.004   0.130
 2468TIP3    H2 7348   1.456   5.076   0.209
 2469TIP3   OH2 7349   3.379   4.564   3.343
 2469TIP3    H1 7350   3.463   4.608   3.328
 2469TIP3    H2 7351   3.327   4.627   3.393
 2470TIP3   OH2 7352   3.999   0.757   5.549
 2470TIP3    H1 7353   4.069   0.750   5.483
 2470TIP3    H2 7354   4.014   0.684   5.608
 2471TIP3   OH2 7355   7.684   5.445   0.885
 2471TIP3    H1 7356   7.735   5.523   0.906
 2471TIP3    H2 7357   7.675   5.448   0.789
 2472TIP3   OH2 7358   0.616   3.765   3.227
 2472TIP3    H1 7359   0.590   3.680   3.191
 2472TIP3    H2 7360   0.566   3.829   3.177
 2473TIP3   OH2 7361   6.549   4.431   2.389
 2473TIP3    H1 7362   6.503   4.397   2.466
 2473TIP3    H2 7363   6.482   4.477   2.339
 2474TIP3   OH2 7364   6.092   1.976   6.577
 2474TIP3    H1 7365   6.119   2.040   6.510
 2474TIP3    H2 7366   5.999   1.961   6.559
 2475TIP3   OH2 7367   6.264   2.431   2.552
 2475TIP3    H1 7368   6.297   2.350   2.513
 2475TIP3    H2 7369   6.341   2.473   2.588
 2476TIP3   OH2 7370   4.614   1.573   6.164
 2476TIP3    H1 7371   4.681   1.606   6.103
 2476TIP3    H2 7372   4.586   1.490   6.125
 2477TIP3   OH2 7373   2.769   7.483   0.674
 2477TIP3    H1 7374   2.723   7.438   0.603
 2477TIP3    H2 7375   2.700   7.506   0.737
 2478TIP3   OH2 7376   7.557   0.581   3.358
 2478TIP3    H1 7377   7.528   0.610   3.271
 2478TIP3    H2 7378   7.648   0.609   3.363
 2479TIP3   OH2 7379   3.737   2.384   5.391
 2479TIP3    H1 7380   3.806   2.428   5.342
 2479TIP3    H2 7381   3.660   2.439   5.377
 2480TIP3   OH2 7382   5.020   3.712   0.113
 2480TIP3    H1 7383   4.982   3.800   0.110
 2480TIP3    H2 7384   5.096   3.717   0.054
 2481TIP3   OH2 7385   0.047   1.707   5.268
 2481TIP3    H1 7386  -0.018   1.705   5.338
 2481TIP3    H2 7387   0.074   1.616   5.257
 2482TIP3   OH2 7388   7.192   0.596   6.452
 2482TIP3    H1 7389   7.131   0.640   6.511
 2482TIP3    H2 7390   7.258   0.662   6.433
 2483TIP3   OH2 7391   5.460   1.086   1.966
 2483TIP3    H1 7392   5.474   1.146   2.039
 2483TIP3    H2 7393   5.543   1.084   1.919
 2484TIP3   OH2 7394   4.966   2.290   6.671
 2484TIP3    H1 7395   5.015   2.369   6.646
 2484TIP3    H2 7396   4.881   2.302   6.629
 2485TIP3   OH2 7397   7.990   5.192   1.566
 2485TIP3    H1 7398   7.941   5.274   1.570
 2485TIP3    H2 7399   7.950   5.144   1.494
 2486TIP3   OH2 7400   2.616   3.206   3.605
 2486TIP3    H1 7401   2.703   3.173   3.583
 2486TIP3    H2 7402   2.582   3.142   3.669
 2487TIP3   OH2 7403   4.200   4.497   1.692
 2487TIP3    H1 7404   4.247   4.575   1.719
 2487TIP3    H2 7405   4.175   4.454   1.774
 2488TIP3   OH2 7406   3.206   5.640   6.317
 2488TIP3    H1 7407   3.260   5.667   6.392
 2488TIP3    H2 7408   3.240   5.555   6.292
 2489TIP3   OH2 7409   4.999   0.032   4.703
 2489TIP3    H1 7410   5.066  -0.033   4.681
 2489TIP3    H2 7411   5.029   0.071   4.785
 2490TIP3   OH2 7412   1.277   0.835   0.677
 2490TIP3    H1 7413   1.267   0.750   0.634
 2490TIP3    H2 7414   1.256   0.818   0.769
 2491TIP3   OH2 7415   0.330   2.482   1.296
 2491TIP3    H1 7416   0.262   2.442   1.351
 2491TIP3    H2 7417   0.392   2.412   1.278
 2492TIP3   OH2 7418   1.394   3.882   1.980
 2492TIP3    H1 7419   1.469   3.931   2.014
 2492TIP3    H2 7420   1.408   3.879   1.886
 2493TIP3   OH2 7421   4.364   6.282   2.523
 2493TIP3    H1 7422   4.336   6.252   2.609
 2493TIP3    H2 7423   4.399   6.370   2.539
 2494TIP3   OH2 7424   6.799   6.498   6.539
 2494TIP3    H1 7425   6.750   6.575   6.571
 2494TIP3    H2 7426   6.807   6.512   6.445
 2495TIP3   OH2 7427   6.573   5.976   4.983
 2495TIP3    H1 7428   6.660   5.960   5.020
 2495TIP3    H2 7429   6.515   5.984   5.059
 2496TIP3   OH2 7430   6.615   1.306   1.816
 2496TIP3    H1 7431   6.697   1.354   1.830
 2496TIP3    H2 7432   6.603   1.254   1.896
 2497TIP3   OH2 7433   6.017   2.647   5.752
 2497TIP3    H1 7434   6.049   2.590   5.822
 2497TIP3    H2 7435   5.949   2.596   5.709
 2498TIP3   OH2 7436   7.085   6.912   2.215
 2498TIP3    H1 7437   7.121   6.846   2.156
 2498TIP3    H2 7438   6.993   6.919   2.191
 2499TIP3   OH2 7439   6.642   1.629   1.579
 2499TIP3    H1 7440   6.703   1.573   1.628
 2499TIP3    H2 7441   6.629   1.705   1.637
 2500TIP3   OH2 7442   0.493   3.302   5.194
 2500TIP3    H1 7443   0.435   3.233   5.162
 2500TIP3    H2 7444   0.516   3.352   5.116
 2501TIP3   OH2 7445   4.276   1.429   1.684
 2501TIP3    H1 7446   4.259   1.368   1.757
 2501TIP3    H2 7447   4.259   1.515   1.721
 2502TIP3   OH2 7448   8.105   6.940   5.522
 2502TIP3    H1 7449   8.150   6.881   5.582
 2502TIP3    H2 7450   8.012   6.926   5.540
 2503TIP3   OH2 7451   5.769   3.094   4.196
 2503TIP3    H1 7452   5.744   3.099   4.104
 2503TIP3    H2 7453   5.687   3.081   4.243
 2504TIP3   OH2 7454   7.864   6.128   0.916
 2504TIP3    H1 7455   7.856   6.108   1.009
 2504TIP3    H2 7456   7.800   6.198   0.901
 2505TIP3   OH2 7457   1.727   4.460   5.607
 2505TIP3    H1 7458   1.668   4.481   5.679
 2505TIP3    H2 7459   1.724   4.364   5.601
 2506TIP3   OH2 7460   2.614   3.928   3.108
 2506TIP3    H1 7461   2.607   4.001   3.047
 2506TIP3    H2 7462   2.677   3.868   3.067
 2507TIP3   OH2 7463   0.444   3.523   3.519
 2507TIP3    H1 7464   0.430   3.438   3.477
 2507TIP3    H2 7465   0.363   3.540   3.566
 2508TIP3   OH2 7466   0.773   7.182   0.901
 2508TIP3    H1 7467   0.738   7.111   0.848
 2508TIP3    H2 7468   0.749   7.159   0.991
 2509TIP3   OH2 7469   0.081   3.115   3.077
 2509TIP3    H1 7470   0.041   3.136   2.992
 2509TIP3    H2 7471   0.170   3.088   3.055
 2510TIP3   OH2 7472   1.507   0.609   1.518
 2510TIP3    H1 7473   1.560   0.563   1.453
 2510TIP3    H2 7474   1.443   0.657   1.466
 2511TIP3   OH2 7475   5.066   3.149   3.186
 2511TIP3    H1 7476   5.123   3.073   3.176
 2511TIP3    H2 7477   4.979   3.112   3.203
 2512TIP3   OH2 7478   5.774   5.460   2.875
 2512TIP3    H1 7479   5.739   5.445   2.962
 2512TIP3    H2 7480   5.719   5.529   2.838
 2513TIP3   OH2 7481   1.553   4.706   2.769
 2513TIP3    H1 7482   1.615   4.765   2.812
 2513TIP3    H2 7483   1.471   4.718   2.816
 2514TIP3   OH2 7484   5.004   1.861   5.005
 2514TIP3    H1 7485   5.054   1.913   4.942
 2514TIP3    H2 7486   4.994   1.919   5.080
 2515TIP3   OH2 7487   1.026   2.289   4.344
 2515TIP3    H1 7488   1.058   2.359   4.288
 2515TIP3    H2 7489   1.053   2.314   4.432
 2516TIP3   OH2 7490   0.128   1.540   1.536
 2516TIP3    H1 7491   0.164   1.625   1.561
 2516TIP3    H2 7492   0.069   1.559   1.463
 2517TIP3   OH2 7493   6.338   1.844   2.616
 2517TIP3    H1 7494   6.410   1.794   2.576
 2517TIP3    H2 7495   6.259   1.801   2.585
 2518TIP3   OH2 7496   3.385   2.267   6.725
 2518TIP3    H1 7497   3.456   2.329   6.709
 2518TIP3    H2 7498   3.428   2.183   6.734
 2519TIP3   OH2 7499   5.861   5.525   3.255
 2519TIP3    H1 7500   5.864   5.468   3.179
 2519TIP3    H2 7501   5.940   5.579   3.248
 2520TIP3   OH2 7502   5.601   5.518   3.948
 2520TIP3    H1 7503   5.547   5.596   3.939
 2520TIP3    H2 7504   5.653   5.515   3.868
 2521TIP3   OH2 7505   3.915   5.145   4.899
 2521TIP3    H1 7506   3.826   5.162   4.931
 2521TIP3    H2 7507   3.917   5.184   4.812
 2522TIP3   OH2 7508   5.671   0.016   6.450
 2522TIP3    H1 7509   5.730   0.084   6.483
 2522TIP3    H2 7510   5.642  -0.031   6.528
 2523TIP3   OH2 7511   5.970   7.620   0.430
 2523TIP3    H1 7512   6.061   7.591   0.432
 2523TIP3    H2 7513   5.973   7.708   0.468
 2524TIP3   OH2 7514   0.013   4.283   5.677
 2524TIP3    H1 7515  -0.079   4.309   5.682
 2524TIP3    H2 7516   0.044   4.290   5.768
 2525TIP3   OH2 7517   1.134   3.762   4.267
 2525TIP3    H1 7518   1.208   3.707   4.240
 2525TIP3    H2 7519   1.068   3.746   4.199
 2526TIP3   OH2 7520   2.592   3.015   4.041
 2526TIP3    H1 7521   2.511   2.972   4.015
 2526TIP3    H2 7522   2.580   3.106   4.015
 2527TIP3   OH2 7523   5.374   3.305   0.270
 2527TIP3    H1 7524   5.424   3.224   0.258
 2527TIP3    H2 7525   5.440   3.374   0.275
 2528TIP3   OH2 7526   8.019   6.112   5.549
 2528TIP3    H1 7527   8.062   6.143   5.469
 2528TIP3    H2 7528   8.047   6.021   5.558
 2529TIP3   OH2 7529   7.045   4.842   3.487
 2529TIP3    H1 7530   6.978   4.816   3.551
 2529TIP3    H2 7531   7.089   4.917   3.528
 2530TIP3   OH2 7532   4.030   0.825   4.664
 2530TIP3    H1 7533   3.976   0.900   4.691
 2530TIP3    H2 7534   4.120   0.859   4.667
 2531TIP3   OH2 7535   7.066   7.793   1.763
 2531TIP3    H1 7536   7.008   7.726   1.726
 2531TIP3    H2 7537   7.034   7.807   1.852
 2532TIP3   OH2 7538   1.584   2.243   2.296
 2532TIP3    H1 7539   1.643   2.185   2.344
 2532TIP3    H2 7540   1.584   2.208   2.207
 2533TIP3   OH2 7541   0.584   7.197   0.294
 2533TIP3    H1 7542   0.675   7.193   0.322
 2533TIP3    H2 7543   0.580   7.275   0.238
 2534TIP3   OH2 7544   4.281   2.264   0.598
 2534TIP3    H1 7545   4.368   2.305   0.596
 2534TIP3    H2 7546   4.221   2.337   0.615
 2535TIP3   OH2 7547   7.876   3.621   0.972
 2535TIP3    H1 7548   7.929   3.568   1.032
 2535TIP3    H2 7549   7.940   3.675   0.924
 2536TIP3   OH2 7550   4.176   1.548   5.108
 2536TIP3    H1 7551   4.214   1.623   5.156
 2536TIP3    H2 7552   4.190   1.570   5.016
 2537TIP3   OH2 7553   5.300   3.293   5.436
 2537TIP3    H1 7554   5.354   3.366   5.405
 2537TIP3    H2 7555   5.214   3.333   5.452
 2538TIP3   OH2 7556   0.217   0.381   0.657
 2538TIP3    H1 7557   0.215   0.333   0.740
 2538TIP3    H2 7558   0.133   0.359   0.616
 2539TIP3   OH2 7559   7.843   4.896   2.938
 2539TIP3    H1 7560   7.804   4.826   2.886
 2539TIP3    H2 7561   7.803   4.976   2.904
 2540TIP3   OH2 7562   1.780   1.448   4.867
 2540TIP3    H1 7563   1.796   1.430   4.774
 2540TIP3    H2 7564   1.708   1.511   4.867
 2541TIP3   OH2 7565   5.047   3.516   0.720
 2541TIP3    H1 7566   5.053   3.488   0.628
 2541TIP3    H2 7567   5.130   3.562   0.736
 2542TIP3   OH2 7568   5.371   5.503   1.814
 2542TIP3    H1 7569   5.335   5.539   1.733
 2542TIP3    H2 7570   5.453   5.461   1.787
 2543TIP3   OH2 7571   7.537   3.494   1.501
 2543TIP3    H1 7572   7.500   3.543   1.575
 2543TIP3    H2 7573   7.526   3.551   1.426
 2544TIP3   OH2 7574   6.209   1.981   0.889
 2544TIP3    H1 7575   6.247   2.068   0.887
 2544TIP3    H2 7576   6.197   1.962   0.982
 2545TIP3   OH2 7577   3.355   2.451   0.524
 2545TIP3    H1 7578   3.268   2.419   0.548
 2545TIP3    H2 7579   3.339   2.528   0.470
 2546TIP3   OH2 7580   3.147   1.415   1.321
 2546TIP3    H1 7581   3.200   1.485   1.358
 2546TIP3    H2 7582   3.134   1.354   1.393
 2547TIP3   OH2 7583   5.457   3.112   3.586
 2547TIP3    H1 7584   5.402   3.034   3.575
 2547TIP3    H2 7585   5.416   3.160   3.658
 2548TIP3   OH2 7586   6.023   4.872   4.563
 2548TIP3    H1 7587   6.007   4.868   4.469
 2548TIP3    H2 7588   5.991   4.788   4.597
 2549TIP3   OH2 7589   6.267   5.163   3.915
 2549TIP3    H1 7590   6.300   5.101   3.850
 2549TIP3    H2 7591   6.330   5.157   3.987
 2550TIP3   OH2 7592   1.485   5.091   3.398
 2550TIP3    H1 7593   1.503   5.017   3.456
 2550TIP3    H2 7594   1.446   5.157   3.455
 2551TIP3   OH2 7595   8.104   4.047   2.817
 2551TIP3    H1 7596   8.033   3.991   2.849
 2551TIP3    H2 7597   8.059   4.119   2.771
 2552TIP3   OH2 7598   6.621   4.801   2.955
 2552TIP3    H1 7599   6.566   4.847   3.019
 2552TIP3    H2 7600   6.601   4.844   2.871
 2553TIP3   OH2 7601   5.725   7.075   4.282
 2553TIP3    H1 7602   5.718   6.995   4.334
 2553TIP3    H2 7603   5.818   7.096   4.283
 2554TIP3   OH2 7604   0.847   3.833   2.501
 2554TIP3    H1 7605   0.782   3.826   2.432
 2554TIP3    H2 7606   0.929   3.804   2.460
 2555TIP3   OH2 7607   6.546   6.362   1.132
 2555TIP3    H1 7608   6.474   6.421   1.150
 2555TIP3    H2 7609   6.622   6.402   1.175
 2556TIP3   OH2 7610   2.026   4.901   3.773
 2556TIP3    H1 7611   2.085   4.842   3.726
 2556TIP3    H2 7612   2.052   4.892   3.865
 2557TIP3   OH2 7613   2.626   0.045   4.220
 2557TIP3    H1 7614   2.721   0.052   4.223
 2557TIP3    H2 7615   2.607  -0.044   4.251
 2558TIP3   OH2 7616   1.114   2.588   2.001
 2558TIP3    H1 7617   1.084   2.677   2.023
 2558TIP3    H2 7618   1.033   2.536   1.998
 2559TIP3   OH2 7619   4.474   2.653   4.655
 2559TIP3    H1 7620   4.523   2.596   4.596
 2559TIP3    H2 7621   4.407   2.596   4.693
 2560TIP3   OH2 7622   3.727   1.254   3.898
 2560TIP3    H1 7623   3.792   1.190   3.867
 2560TIP3    H2 7624   3.742   1.260   3.992
 2561TIP3   OH2 7625   8.119   0.919   1.013
 2561TIP3    H1 7626   8.164   0.856   1.069
 2561TIP3    H2 7627   8.030   0.886   1.007
 2562TIP3   OH2 7628   6.960   5.145   2.584
 2562TIP3    H1 7629   6.940   5.058   2.620
 2562TIP3    H2 7630   6.893   5.160   2.518
 2563TIP3   OH2 7631   3.387   4.310   3.062
 2563TIP3    H1 7632   3.406   4.229   3.110
 2563TIP3    H2 7633   3.300   4.336   3.093
 2564TIP3   OH2 7634   5.555   7.400   1.791
 2564TIP3    H1 7635   5.552   7.338   1.718
 2564TIP3    H2 7636   5.609   7.357   1.857
 2565TIP3   OH2 7637   7.356   3.259   2.936
 2565TIP3    H1 7638   7.447   3.289   2.939
 2565TIP3    H2 7639   7.363   3.166   2.914
 2566TIP3   OH2 7640   7.276   0.818   6.705
 2566TIP3    H1 7641   7.292   0.752   6.637
 2566TIP3    H2 7642   7.353   0.875   6.701
 2567TIP3   OH2 7643   4.855   1.703   5.185
 2567TIP3    H1 7644   4.760   1.709   5.196
 2567TIP3    H2 7645   4.871   1.737   5.097
 2568TIP3   OH2 7646   3.052   2.938   4.066
 2568TIP3    H1 7647   2.965   2.964   4.037
 2568TIP3    H2 7648   3.086   2.885   3.993
 2569TIP3   OH2 7649   7.226   4.624   5.391
 2569TIP3    H1 7650   7.286   4.602   5.320
 2569TIP3    H2 7651   7.261   4.577   5.467
 2570TIP3   OH2 7652   4.856   6.028   4.729
 2570TIP3    H1 7653   4.917   6.098   4.705
 2570TIP3    H2 7654   4.802   6.015   4.651
 2571TIP3   OH2 7655   6.660   3.895   6.703
 2571TIP3    H1 7656   6.609   3.879   6.624
 2571TIP3    H2 7657   6.595   3.900   6.774
 2572TIP3   OH2 7658   3.394   4.004   6.043
 2572TIP3    H1 7659   3.356   3.999   5.955
 2572TIP3    H2 7660   3.400   4.098   6.061
 2573TIP3   OH2 7661   6.344   3.210   5.868
 2573TIP3    H1 7662   6.350   3.279   5.934
 2573TIP3    H2 7663   6.408   3.234   5.801
 2574TIP3   OH2 7664   3.311   0.565   1.527
 2574TIP3    H1 7665   3.251   0.627   1.567
 2574TIP3    H2 7666   3.360   0.528   1.601
 2575TIP3   OH2 7667   1.102   6.025   2.886
 2575TIP3    H1 7668   1.098   5.989   2.974
 2575TIP3    H2 7669   1.166   5.971   2.840
 2576TIP3   OH2 7670   0.929   7.623   1.868
 2576TIP3    H1 7671   0.984   7.699   1.887
 2576TIP3    H2 7672   0.840   7.659   1.867
 2577TIP3   OH2 7673   7.546   3.078   5.565
 2577TIP3    H1 7674   7.637   3.047   5.568
 2577TIP3    H2 7675   7.503   3.020   5.503
 2578TIP3   OH2 7676   1.719   5.809   3.745
 2578TIP3    H1 7677   1.659   5.848   3.681
 2578TIP3    H2 7678   1.750   5.729   3.703
 2579TIP3   OH2 7679   5.048   2.945   6.688
 2579TIP3    H1 7680   5.092   2.891   6.623
 2579TIP3    H2 7681   5.109   3.017   6.705
 2580TIP3   OH2 7682   5.580   6.160   1.231
 2580TIP3    H1 7683   5.579   6.150   1.135
 2580TIP3    H2 7684   5.575   6.070   1.264
 2581TIP3   OH2 7685   7.898   0.338   3.366
 2581TIP3    H1 7686   7.980   0.304   3.330
 2581TIP3    H2 7687   7.858   0.264   3.411
 2582TIP3   OH2 7688   6.588   2.583   4.733
 2582TIP3    H1 7689   6.502   2.624   4.739
 2582TIP3    H2 7690   6.649   2.648   4.768
 2583TIP3   OH2 7691   3.630   0.497   3.759
 2583TIP3    H1 7692   3.658   0.495   3.850
 2583TIP3    H2 7693   3.711   0.502   3.708
 2584TIP3   OH2 7694   1.813   6.832   5.817
 2584TIP3    H1 7695   1.789   6.922   5.798
 2584TIP3    H2 7696   1.837   6.832   5.910
 2585TIP3   OH2 7697   2.558   4.809   6.316
 2585TIP3    H1 7698   2.567   4.740   6.250
 2585TIP3    H2 7699   2.590   4.888   6.273
 2586TIP3   OH2 7700   3.453   7.620   3.447
 2586TIP3    H1 7701   3.404   7.645   3.368
 2586TIP3    H2 7702   3.403   7.548   3.484
 2587TIP3   OH2 7703   8.201   3.831   6.401
 2587TIP3    H1 7704   8.123   3.807   6.351
 2587TIP3    H2 7705   8.235   3.909   6.358
 2588TIP3   OH2 7706   2.691   5.783   5.392
 2588TIP3    H1 7707   2.690   5.819   5.303
 2588TIP3    H2 7708   2.614   5.727   5.396
 2589TIP3   OH2 7709   0.897   4.509   6.673
 2589TIP3    H1 7710   0.922   4.443   6.608
 2589TIP3    H2 7711   0.888   4.590   6.623
 2590TIP3   OH2 7712   5.991   2.982   0.850
 2590TIP3    H1 7713   5.929   3.052   0.827
 2590TIP3    H2 7714   5.981   2.972   0.945
 2591TIP3   OH2 7715   6.214   3.519   3.880
 2591TIP3    H1 7716   6.239   3.610   3.867
 2591TIP3    H2 7717   6.168   3.495   3.799
 2592TIP3   OH2 7718   4.976   7.570   4.936
 2592TIP3    H1 7719   4.897   7.532   4.976
 2592TIP3    H2 7720   5.008   7.501   4.878
 2593TIP3   OH2 7721   3.643   5.394   1.673
 2593TIP3    H1 7722   3.627   5.468   1.613
 2593TIP3    H2 7723   3.584   5.326   1.642
 2594TIP3   OH2 7724   2.760   6.259   0.268
 2594TIP3    H1 7725   2.749   6.275   0.362
 2594TIP3    H2 7726   2.684   6.301   0.227
 2595TIP3   OH2 7727   5.086   7.529   6.429
 2595TIP3    H1 7728   5.132   7.612   6.423
 2595TIP3    H2 7729   4.994   7.551   6.412
 2596TIP3   OH2 7730   4.499   1.020   4.717
 2596TIP3    H1 7731   4.526   0.929   4.717
 2596TIP3    H2 7732   4.579   1.070   4.699
 2597TIP3   OH2 7733   3.459   3.041   3.187
 2597TIP3    H1 7734   3.527   3.106   3.207
 2597TIP3    H2 7735   3.502   2.957   3.204
 2598TIP3   OH2 7736   6.801   6.854   0.109
 2598TIP3    H1 7737   6.807   6.925   0.045
 2598TIP3    H2 7738   6.807   6.774   0.058
 2599TIP3   OH2 7739   6.943   7.135   6.053
 2599TIP3    H1 7740   6.938   7.044   6.023
 2599TIP3    H2 7741   6.991   7.180   5.983
 2600TIP3   OH2 7742   1.147   7.293   2.034
 2600TIP3    H1 7743   1.098   7.211   2.029
 2600TIP3    H2 7744   1.205   7.282   2.109
 2601TIP3   OH2 7745  -0.032   5.133   4.195
 2601TIP3    H1 7746   0.012   5.118   4.279
 2601TIP3    H2 7747   0.003   5.216   4.164
 2602TIP3   OH2 7748   6.743   2.899   1.107
 2602TIP3    H1 7749   6.680   2.968   1.126
 2602TIP3    H2 7750   6.810   2.942   1.053
 2603TIP3   OH2 7751   7.990   5.692   2.946
 2603TIP3    H1 7752   8.030   5.606   2.961
 2603TIP3    H2 7753   8.057   5.741   2.899
 2604TIP3   OH2 7754   6.887   4.043   5.003
 2604TIP3    H1 7755   6.916   3.959   4.968
 2604TIP3    H2 7756   6.842   4.085   4.930
 2605TIP3   OH2 7757   1.096   5.507  -0.011
 2605TIP3    H1 7758   1.191   5.508   0.000
 2605TIP3    H2 7759   1.061   5.514   0.077
 2606TIP3   OH2 7760   4.758   2.331   1.254
 2606TIP3    H1 7761   4.748   2.366   1.343
 2606TIP3    H2 7762   4.735   2.405   1.197
 2607TIP3   OH2 7763   1.487   3.408   1.317
 2607TIP3    H1 7764   1.421   3.338   1.310
 2607TIP3    H2 7765   1.521   3.416   1.228
 2608TIP3   OH2 7766   3.582   4.756   3.262
 2608TIP3    H1 7767   3.659   4.806   3.234
 2608TIP3    H2 7768   3.508   4.813   3.243
 2609TIP3   OH2 7769   0.323   6.305   4.028
 2609TIP3    H1 7770   0.286   6.219   4.047
 2609TIP3    H2 7771   0.374   6.327   4.106
 2610TIP3   OH2 7772   7.165   4.198   5.812
 2610TIP3    H1 7773   7.111   4.172   5.886
 2610TIP3    H2 7774   7.239   4.137   5.814
 2611TIP3   OH2 7775   4.514   4.379   3.909
 2611TIP3    H1 7776   4.471   4.318   3.970
 2611TIP3    H2 7777   4.442   4.417   3.859
 2612TIP3   OH2 7778   5.218   5.905   5.524
 2612TIP3    H1 7779   5.167   5.884   5.603
 2612TIP3    H2 7780   5.289   5.961   5.555
 2613TIP3   OH2 7781   1.976   4.839   4.554
 2613TIP3    H1 7782   2.063   4.814   4.587
 2613TIP3    H2 7783   1.928   4.868   4.631
 2614TIP3   OH2 7784   0.723   6.191   5.156
 2614TIP3    H1 7785   0.669   6.153   5.226
 2614TIP3    H2 7786   0.659   6.230   5.096
 2615TIP3   OH2 7787   1.898   0.697   2.189
 2615TIP3    H1 7788   1.943   0.693   2.105
 2615TIP3    H2 7789   1.807   0.676   2.167
 2616TIP3   OH2 7790   7.176   4.590   4.209
 2616TIP3    H1 7791   7.260   4.545   4.219
 2616TIP3    H2 7792   7.198   4.683   4.214
 2617TIP3   OH2 7793   4.211   7.208   5.025
 2617TIP3    H1 7794   4.156   7.285   5.009
 2617TIP3    H2 7795   4.249   7.223   5.111
 2618TIP3   OH2 7796   3.922   4.702   3.177
 2618TIP3    H1 7797   3.960   4.643   3.112
 2618TIP3    H2 7798   3.850   4.745   3.131
 2619TIP3   OH2 7799   6.496   6.989   2.003
 2619TIP3    H1 7800   6.557   7.030   2.065
 2619TIP3    H2 7801   6.551   6.941   1.943
 2620TIP3   OH2 7802   5.870   2.917   0.212
 2620TIP3    H1 7803   5.894   2.921   0.304
 2620TIP3    H2 7804   5.940   2.867   0.170
 2621TIP3   OH2 7805  -0.009   1.427   3.221
 2621TIP3    H1 7806  -0.045   1.346   3.256
 2621TIP3    H2 7807   0.086   1.416   3.225
 2622TIP3   OH2 7808   4.525   5.631   6.758
 2622TIP3    H1 7809   4.541   5.539   6.781
 2622TIP3    H2 7810   4.579   5.680   6.819
 2623TIP3   OH2 7811   7.084   2.794   5.081
 2623TIP3    H1 7812   7.062   2.885   5.103
 2623TIP3    H2 7813   7.005   2.744   5.104
 2624TIP3   OH2 7814   2.498   5.436   5.483
 2624TIP3    H1 7815   2.491   5.380   5.405
 2624TIP3    H2 7816   2.590   5.428   5.509
 2625TIP3   OH2 7817   5.323   1.479   6.051
 2625TIP3    H1 7818   5.326   1.460   5.958
 2625TIP3    H2 7819   5.388   1.548   6.064
 2626TIP3   OH2 7820   0.340   7.451   2.214
 2626TIP3    H1 7821   0.416   7.460   2.157
 2626TIP3    H2 7822   0.266   7.477   2.160
 2627TIP3   OH2 7823   6.635   1.667   4.345
 2627TIP3    H1 7824   6.710   1.721   4.373
 2627TIP3    H2 7825   6.661   1.632   4.260
 2628TIP3   OH2 7826   4.632   1.678   1.742
 2628TIP3    H1 7827   4.701   1.724   1.694
 2628TIP3    H2 7828   4.584   1.629   1.675
 2629TIP3   OH2 7829   3.712   5.069   3.908
 2629TIP3    H1 7830   3.687   4.982   3.938
 2629TIP3    H2 7831   3.690   5.127   3.981
 2630TIP3   OH2 7832   1.544   3.433   6.288
 2630TIP3    H1 7833   1.581   3.517   6.315
 2630TIP3    H2 7834   1.621   3.377   6.274
 2631TIP3   OH2 7835   2.327   6.006   0.296
 2631TIP3    H1 7836   2.399   5.946   0.272
 2631TIP3    H2 7837   2.271   5.954   0.353
 2632TIP3   OH2 7838   7.621   1.644   2.388
 2632TIP3    H1 7839   7.714   1.662   2.379
 2632TIP3    H2 7840   7.577   1.713   2.338
 2633TIP3   OH2 7841   0.977   4.036   4.160
 2633TIP3    H1 7842   0.975   3.962   4.220
 2633TIP3    H2 7843   0.959   4.113   4.214
 2634TIP3   OH2 7844   2.202   6.293   5.677
 2634TIP3    H1 7845   2.292   6.260   5.679
 2634TIP3    H2 7846   2.148   6.215   5.693
 2635TIP3   OH2 7847   6.815   3.295   5.394
 2635TIP3    H1 7848   6.846   3.359   5.458
 2635TIP3    H2 7849   6.895   3.253   5.361
 2636TIP3   OH2 7850   5.140   7.030   0.392
 2636TIP3    H1 7851   5.140   6.935   0.377
 2636TIP3    H2 7852   5.224   7.048   0.434
 2637TIP3   OH2 7853   4.386   6.108   4.887
 2637TIP3    H1 7854   4.338   6.184   4.920
 2637TIP3    H2 7855   4.477   6.135   4.888
 2638TIP3   OH2 7856   0.529   1.666   3.374
 2638TIP3    H1 7857   0.619   1.651   3.401
 2638TIP3    H2 7858   0.490   1.578   3.370
 2639TIP3   OH2 7859   7.833   7.337   6.480
 2639TIP3    H1 7860   7.829   7.423   6.522
 2639TIP3    H2 7861   7.864   7.355   6.392
 2640TIP3   OH2 7862   5.863   3.578   1.819
 2640TIP3    H1 7863   5.880   3.484   1.813
 2640TIP3    H2 7864   5.835   3.592   1.910
 2641TIP3   OH2 7865   3.015   5.146   3.919
 2641TIP3    H1 7866   3.020   5.069   3.975
 2641TIP3    H2 7867   3.106   5.167   3.897
 2642TIP3   OH2 7868   0.360   7.182   2.342
 2642TIP3    H1 7869   0.286   7.182   2.403
 2642TIP3    H2 7870   0.358   7.268   2.302
 2643TIP3   OH2 7871   4.110   5.480   3.561
 2643TIP3    H1 7872   4.033   5.535   3.552
 2643TIP3    H2 7873   4.176   5.521   3.504
 2644TIP3   OH2 7874   3.071   7.516   5.283
 2644TIP3    H1 7875   3.001   7.542   5.223
 2644TIP3    H2 7876   3.031   7.517   5.369
 2645TIP3   OH2 7877   4.185   4.779   6.108
 2645TIP3    H1 7878   4.221   4.790   6.021
 2645TIP3    H2 7879   4.261   4.758   6.163
 2646TIP3   OH2 7880   3.997   4.120   0.723
 2646TIP3    H1 7881   3.925   4.163   0.676
 2646TIP3    H2 7882   4.076   4.166   0.693
 2647TIP3   OH2 7883   6.136   3.783   5.986
 2647TIP3    H1 7884   6.226   3.779   5.953
 2647TIP3    H2 7885   6.098   3.859   5.943
 2648TIP3   OH2 7886   3.187   6.908   3.917
 2648TIP3    H1 7887   3.263   6.851   3.905
 2648TIP3    H2 7888   3.113   6.847   3.923
 2649TIP3   OH2 7889   7.004   2.315   3.210
 2649TIP3    H1 7890   7.015   2.289   3.119
 2649TIP3    H2 7891   6.917   2.355   3.213
 2650TIP3   OH2 7892   1.742   2.776   3.451
 2650TIP3    H1 7893   1.675   2.764   3.519
 2650TIP3    H2 7894   1.733   2.867   3.425
 2651TIP3   OH2 7895   1.335   1.241   4.917
 2651TIP3    H1 7896   1.253   1.227   4.964
 2651TIP3    H2 7897   1.402   1.202   4.974
 2652TIP3   OH2 7898   1.919   2.302   4.763
 2652TIP3    H1 7899   1.882   2.223   4.804
 2652TIP3    H2 7900   1.843   2.358   4.748
 2653TIP3   OH2 7901   1.083   1.099   4.647
 2653TIP3    H1 7902   1.107   1.013   4.683
 2653TIP3    H2 7903   1.053   1.080   4.558
 2654TIP3   OH2 7904   6.021   2.021   4.190
 2654TIP3    H1 7905   5.937   1.978   4.202
 2654TIP3    H2 7906   6.011   2.071   4.108
 2655TIP3   OH2 7907   2.731   3.934   2.062
 2655TIP3    H1 7908   2.735   3.940   1.966
 2655TIP3    H2 7909   2.728   4.025   2.091
 2656TIP3   OH2 7910   3.200   1.020   4.686
 2656TIP3    H1 7911   3.266   1.049   4.749
 2656TIP3    H2 7912   3.244   0.953   4.634
 2657TIP3   OH2 7913   4.740   0.056   0.393
 2657TIP3    H1 7914   4.660   0.061   0.446
 2657TIP3    H2 7915   4.770  -0.034   0.404
 2658TIP3   OH2 7916   7.895   6.338   1.759
 2658TIP3    H1 7917   7.919   6.347   1.851
 2658TIP3    H2 7918   7.859   6.423   1.735
 2659TIP3   OH2 7919   0.777   5.676   5.310
 2659TIP3    H1 7920   0.817   5.617   5.373
 2659TIP3    H2 7921   0.740   5.747   5.363
 2660TIP3   OH2 7922   5.448   4.498   5.630
 2660TIP3    H1 7923   5.525   4.470   5.580
 2660TIP3    H2 7924   5.479   4.504   5.720
 2661TIP3   OH2 7925   7.582   5.642   1.136
 2661TIP3    H1 7926   7.520   5.576   1.105
 2661TIP3    H2 7927   7.648   5.593   1.186
 2662TIP3   OH2 7928   4.455   7.236   5.214
 2662TIP3    H1 7929   4.503   7.277   5.142
 2662TIP3    H2 7930   4.499   7.153   5.229
 2663TIP3   OH2 7931   3.958   7.208   4.493
 2663TIP3    H1 7932   3.906   7.253   4.560
 2663TIP3    H2 7933   3.898   7.143   4.456
 2664TIP3   OH2 7934   3.481   7.655   3.713
 2664TIP3    H1 7935   3.460   7.671   3.620
 2664TIP3    H2 7936   3.420   7.711   3.761
 2665TIP3   OH2 7937   3.209   2.633   4.935
 2665TIP3    H1 7938   3.160   2.710   4.907
 2665TIP3    H2 7939   3.259   2.607   4.858
 2666TIP3   OH2 7940   7.434   0.844   6.103
 2666TIP3    H1 7941   7.477   0.860   6.187
 2666TIP3    H2 7942   7.397   0.929   6.078
 2667TIP3   OH2 7943   1.635   0.648   4.710
 2667TIP3    H1 7944   1.594   0.610   4.632
 2667TIP3    H2 7945   1.684   0.576   4.750
 2668TIP3   OH2 7946   3.358   0.776   1.939
 2668TIP3    H1 7947   3.381   0.819   1.857
 2668TIP3    H2 7948   3.437   0.785   1.993
 2669TIP3   OH2 7949   3.630   7.000   6.689
 2669TIP3    H1 7950   3.535   6.986   6.698
 2669TIP3    H2 7951   3.667   6.956   6.766
 2670TIP3   OH2 7952   6.925   2.324   1.057
 2670TIP3    H1 7953   6.951   2.316   0.965
 2670TIP3    H2 7954   6.850   2.264   1.065
 2671TIP3   OH2 7955   4.919   0.386   6.187
 2671TIP3    H1 7956   4.981   0.317   6.164
 2671TIP3    H2 7957   4.833   0.346   6.176
 2672TIP3   OH2 7958   6.548   6.081   2.123
 2672TIP3    H1 7959   6.600   6.159   2.102
 2672TIP3    H2 7960   6.459   6.105   2.097
 2673TIP3   OH2 7961   0.292   0.652   6.418
 2673TIP3    H1 7962   0.369   0.614   6.459
 2673TIP3    H2 7963   0.246   0.577   6.379
 2674TIP3   OH2 7964   4.216   2.731   4.948
 2674TIP3    H1 7965   4.293   2.748   5.003
 2674TIP3    H2 7966   4.145   2.777   4.992
 2675TIP3   OH2 7967   7.112   1.281   0.829
 2675TIP3    H1 7968   7.055   1.343   0.874
 2675TIP3    H2 7969   7.109   1.308   0.737
 2676TIP3   OH2 7970   7.125   2.202   1.271
 2676TIP3    H1 7971   7.075   2.212   1.352
 2676TIP3    H2 7972   7.078   2.135   1.221
 2677TIP3   OH2 7973   8.108   0.571   3.439
 2677TIP3    H1 7974   8.135   0.552   3.350
 2677TIP3    H2 7975   8.169   0.639   3.469
 2678TIP3   OH2 7976   7.773   2.936   5.588
 2678TIP3    H1 7977   7.794   2.851   5.549
 2678TIP3    H2 7978   7.854   2.986   5.581
 2679TIP3   OH2 7979   4.326   0.757   2.138
 2679TIP3    H1 7980   4.302   0.707   2.216
 2679TIP3    H2 7981   4.391   0.702   2.093
 2680TIP3   OH2 7982   1.795   0.154   3.136
 2680TIP3    H1 7983   1.815   0.081   3.194
 2680TIP3    H2 7984   1.760   0.113   3.057
 2681TIP3   OH2 7985   7.755   6.155   6.451
 2681TIP3    H1 7986   7.681   6.155   6.512
 2681TIP3    H2 7987   7.831   6.133   6.505
 2682TIP3   OH2 7988   7.227   4.027   0.269
 2682TIP3    H1 7989   7.311   4.052   0.308
 2682TIP3    H2 7990   7.162   4.050   0.334
 2683TIP3   OH2 7991   7.396   0.645   1.564
 2683TIP3    H1 7992   7.339   0.697   1.621
 2683TIP3    H2 7993   7.339   0.575   1.531
 2684TIP3   OH2 7994   4.524   6.518   0.225
 2684TIP3    H1 7995   4.566   6.589   0.272
 2684TIP3    H2 7996   4.506   6.553   0.138
 2685TIP3   OH2 7997   3.473   1.226   6.089
 2685TIP3    H1 7998   3.550   1.171   6.071
 2685TIP3    H2 7999   3.479   1.297   6.026
 2686TIP3   OH2 8000   3.013   5.545   3.316
 2686TIP3    H1 8001   2.922   5.523   3.297
 2686TIP3    H2 8002   3.055   5.461   3.332
 2687TIP3   OH2 8003   7.848   1.384   5.679
 2687TIP3    H1 8004   7.906   1.460   5.688
 2687TIP3    H2 8005   7.898   1.312   5.718
 2688TIP3   OH2 8006   7.340   7.670   3.561
 2688TIP3    H1 8007   7.335   7.759   3.593
 2688TIP3    H2 8008   7.267   7.662   3.499
 2689TIP3   OH2 8009   3.180   6.885   5.717
 2689TIP3    H1 8010   3.226   6.969   5.718
 2689TIP3    H2 8011   3.245   6.823   5.752
 2690TIP3   OH2 8012   1.046   3.095   3.850
 2690TIP3    H1 8013   1.042   3.061   3.761
 2690TIP3    H2 8014   1.062   3.189   3.840
 2691TIP3   OH2 8015   4.282   2.480   5.490
 2691TIP3    H1 8016   4.256   2.544   5.556
 2691TIP3    H2 8017   4.364   2.514   5.454
 2692TIP3   OH2 8018   1.117   0.702   5.400
 2692TIP3    H1 8019   1.049   0.769   5.406
 2692TIP3    H2 8020   1.197   0.747   5.430
 2693TIP3   OH2 8021   0.280   6.117   3.658
 2693TIP3    H1 8022   0.345   6.152   3.719
 2693TIP3    H2 8023   0.313   6.030   3.635
 2694TIP3   OH2 8024   0.007   4.228   2.851
 2694TIP3    H1 8025  -0.062   4.162   2.859
 2694TIP3    H2 8026   0.072   4.188   2.793
 2695TIP3   OH2 8027   4.930   2.009   2.962
 2695TIP3    H1 8028   4.946   1.954   3.039
 2695TIP3    H2 8029   4.938   1.948   2.888
 2696TIP3   OH2 8030   2.977   5.082   1.201
 2696TIP3    H1 8031   2.920   5.078   1.278
 2696TIP3    H2 8032   3.060   5.116   1.235
 2697TIP3   OH2 8033   4.943   3.943   0.351
 2697TIP3    H1 8034   4.886   3.968   0.278
 2697TIP3    H2 8035   4.898   3.869   0.392
 2698TIP3   OH2 8036   4.295   6.755   0.766
 2698TIP3    H1 8037   4.370   6.734   0.709
 2698TIP3    H2 8038   4.311   6.846   0.793
 2699TIP3   OH2 8039   0.044   1.607   3.946
 2699TIP3    H1 8040   0.041   1.619   4.041
 2699TIP3    H2 8041   0.008   1.689   3.911
 2700TIP3   OH2 8042   1.056   4.035   2.182
 2700TIP3    H1 8043   1.125   3.971   2.201
 2700TIP3    H2 8044   1.030   4.016   2.092
 2701TIP3   OH2 8045   7.583   1.414   3.026
 2701TIP3    H1 8046   7.621   1.343   3.078
 2701TIP3    H2 8047   7.653   1.438   2.966
 2702TIP3   OH2 8048   4.436   1.777   5.405
 2702TIP3    H1 8049   4.370   1.758   5.472
 2702TIP3    H2 8050   4.386   1.809   5.331
 2703TIP3   OH2 8051   3.177   3.935   1.983
 2703TIP3    H1 8052   3.129   3.994   1.925
 2703TIP3    H2 8053   3.268   3.964   1.977
 2704TIP3   OH2 8054   2.305   4.069   6.141
 2704TIP3    H1 8055   2.263   4.126   6.077
 2704TIP3    H2 8056   2.297   4.117   6.224
 2705TIP3   OH2 8057   6.875   3.268   2.248
 2705TIP3    H1 8058   6.964   3.270   2.284
 2705TIP3    H2 8059   6.824   3.324   2.307
 2706TIP3   OH2 8060   4.815   1.241   5.337
 2706TIP3    H1 8061   4.854   1.319   5.297
 2706TIP3    H2 8062   4.720   1.253   5.325
 2707TIP3   OH2 8063   0.307   4.246   4.738
 2707TIP3    H1 8064   0.373   4.188   4.700
 2707TIP3    H2 8065   0.276   4.200   4.816
 2708TIP3   OH2 8066   2.033   0.387   1.757
 2708TIP3    H1 8067   2.054   0.430   1.674
 2708TIP3    H2 8068   2.058   0.295   1.743
 2709TIP3   OH2 8069   5.157   3.118   0.303
 2709TIP3    H1 8070   5.188   3.044   0.355
 2709TIP3    H2 8071   5.207   3.193   0.335
 2710TIP3   OH2 8072   2.575   5.537   3.959
 2710TIP3    H1 8073   2.512   5.526   3.887
 2710TIP3    H2 8074   2.522   5.567   4.033
 2711TIP3   OH2 8075   4.859   7.001   1.135
 2711TIP3    H1 8076   4.766   7.018   1.154
 2711TIP3    H2 8077   4.879   6.923   1.186
 2712TIP3   OH2 8078   5.153   0.843   4.418
 2712TIP3    H1 8079   5.065   0.806   4.429
 2712TIP3    H2 8080   5.177   0.822   4.328
 2713TIP3   OH2 8081   0.396   0.846   0.945
 2713TIP3    H1 8082   0.435   0.777   0.999
 2713TIP3    H2 8083   0.305   0.850   0.974
 2714TIP3   OH2 8084   2.123   5.340   4.279
 2714TIP3    H1 8085   2.131   5.434   4.293
 2714TIP3    H2 8086   2.032   5.328   4.252
 2715TIP3   OH2 8087   2.957   6.443   1.081
 2715TIP3    H1 8088   2.961   6.485   0.996
 2715TIP3    H2 8089   2.956   6.515   1.144
 2716TIP3   OH2 8090   1.850   4.478   0.192
 2716TIP3    H1 8091   1.790   4.518   0.255
 2716TIP3    H2 8092   1.806   4.397   0.165
 2717TIP3   OH2 8093   1.534   7.176   1.677
 2717TIP3    H1 8094   1.498   7.241   1.738
 2717TIP3    H2 8095   1.469   7.168   1.608
 2718TIP3   OH2 8096   7.632   6.514   0.961
 2718TIP3    H1 8097   7.652   6.444   0.899
 2718TIP3    H2 8098   7.553   6.484   1.007
 2719TIP3   OH2 8099   2.614   0.961   3.587
 2719TIP3    H1 8100   2.577   0.880   3.553
 2719TIP3    H2 8101   2.622   0.946   3.681
 2720TIP3   OH2 8102   0.555   0.421   6.498
 2720TIP3    H1 8103   0.491   0.350   6.501
 2720TIP3    H2 8104   0.611   0.399   6.423
 2721TIP3   OH2 8105   1.732   4.702   3.303
 2721TIP3    H1 8106   1.664   4.716   3.237
 2721TIP3    H2 8107   1.724   4.609   3.325
 2722TIP3   OH2 8108   7.770   3.692   6.112
 2722TIP3    H1 8109   7.735   3.720   6.027
 2722TIP3    H2 8110   7.694   3.692   6.170
 2723TIP3   OH2 8111   0.146   0.933   1.071
 2723TIP3    H1 8112   0.075   0.975   1.021
 2723TIP3    H2 8113   0.102   0.864   1.121
 2724TIP3   OH2 8114   7.418   4.907   1.941
 2724TIP3    H1 8115   7.424   4.915   2.036
 2724TIP3    H2 8116   7.454   4.989   1.908
 2725TIP3   OH2 8117   4.289   2.710   4.313
 2725TIP3    H1 8118   4.351   2.687   4.244
 2725TIP3    H2 8119   4.282   2.632   4.367
 2726TIP3   OH2 8120   8.109   1.796   2.816
 2726TIP3    H1 8121   8.102   1.882   2.858
 2726TIP3    H2 8122   8.129   1.736   2.887
 2727TIP3   OH2 8123   7.971   2.756   5.983
 2727TIP3    H1 8124   8.036   2.755   5.912
 2727TIP3    H2 8125   7.940   2.846   5.985
 2728TIP3   OH2 8126   7.381   3.600   4.193
 2728TIP3    H1 8127   7.476   3.602   4.189
 2728TIP3    H2 8128   7.361   3.570   4.282
 2729TIP3   OH2 8129   3.784   2.186   1.669
 2729TIP3    H1 8130   3.711   2.246   1.652
 2729TIP3    H2 8131   3.743   2.105   1.697
 2730TIP3   OH2 8132   6.161   2.402   5.844
 2730TIP3    H1 8133   6.232   2.446   5.890
 2730TIP3    H2 8134   6.171   2.309   5.867
 2731TIP3   OH2 8135   1.562   0.225   2.040
 2731TIP3    H1 8136   1.647   0.255   2.008
 2731TIP3    H2 8137   1.502   0.297   2.018
 2732TIP3   OH2 8138   0.793   4.912   2.989
 2732TIP3    H1 8139   0.880   4.884   3.017
 2732TIP3    H2 8140   0.737   4.835   3.002
 2733TIP3   OH2 8141   6.621   5.046   4.385
 2733TIP3    H1 8142   6.560   5.112   4.352
 2733TIP3    H2 8143   6.570   4.996   4.449
 2734TIP3   OH2 8144   6.977   4.950   0.678
 2734TIP3    H1 8145   7.029   4.873   0.702
 2734TIP3    H2 8146   6.988   4.958   0.583
 2735TIP3   OH2 8147   6.574   1.733   5.811
 2735TIP3    H1 8148   6.601   1.650   5.851
 2735TIP3    H2 8149   6.656   1.783   5.801
 2736TIP3   OH2 8150   0.237   3.541   0.630
 2736TIP3    H1 8151   0.230   3.465   0.687
 2736TIP3    H2 8152   0.177   3.523   0.558
 2737TIP3   OH2 8153   6.826   4.099   4.740
 2737TIP3    H1 8154   6.852   4.190   4.757
 2737TIP3    H2 8155   6.871   4.076   4.659
 2738TIP3   OH2 8156   5.755   2.502   6.497
 2738TIP3    H1 8157   5.722   2.532   6.412
 2738TIP3    H2 8158   5.679   2.506   6.555
 2739TIP3   OH2 8159   2.217   0.087   4.573
 2739TIP3    H1 8160   2.164   0.151   4.621
 2739TIP3    H2 8161   2.201   0.005   4.619
 2740TIP3   OH2 8162   6.102   4.477   6.520
 2740TIP3    H1 8163   6.115   4.562   6.562
 2740TIP3    H2 8164   6.071   4.498   6.432
 2741TIP3   OH2 8165   6.896   5.563   0.421
 2741TIP3    H1 8166   6.939   5.617   0.355
 2741TIP3    H2 8167   6.965   5.544   0.485
 2742TIP3   OH2 8168   6.103   3.105   4.950
 2742TIP3    H1 8169   6.105   3.178   4.888
 2742TIP3    H2 8170   6.114   3.027   4.895
 2743TIP3   OH2 8171   1.972   5.344   5.615
 2743TIP3    H1 8172   1.891   5.387   5.589
 2743TIP3    H2 8173   2.010   5.402   5.681
 2744TIP3   OH2 8174   6.162   2.127   3.339
 2744TIP3    H1 8175   6.113   2.142   3.259
 2744TIP3    H2 8176   6.156   2.033   3.354
 2745TIP3   OH2 8177   0.536   2.704   0.228
 2745TIP3    H1 8178   0.554   2.667   0.314
 2745TIP3    H2 8179   0.542   2.799   0.241
 2746TIP3   OH2 8180   7.968   0.185   1.640
 2746TIP3    H1 8181   8.034   0.117   1.628
 2746TIP3    H2 8182   7.959   0.225   1.553
 2747TIP3   OH2 8183   0.612   3.204   0.709
 2747TIP3    H1 8184   0.625   3.177   0.799
 2747TIP3    H2 8185   0.652   3.291   0.703
 2748TIP3   OH2 8186   2.687   6.832   2.902
 2748TIP3    H1 8187   2.647   6.747   2.922
 2748TIP3    H2 8188   2.614   6.894   2.907
 2749TIP3   OH2 8189   5.246   7.764   6.326
 2749TIP3    H1 8190   5.201   7.845   6.353
 2749TIP3    H2 8191   5.291   7.787   6.245
 2750TIP3   OH2 8192   7.132   0.908   4.705
 2750TIP3    H1 8193   7.174   0.937   4.624
 2750TIP3    H2 8194   7.174   0.960   4.774
 2751TIP3   OH2 8195   6.710   2.724   1.592
 2751TIP3    H1 8196   6.779   2.763   1.539
 2751TIP3    H2 8197   6.695   2.788   1.663
 2752TIP3   OH2 8198   5.471   3.713   4.982
 2752TIP3    H1 8199   5.557   3.675   4.997
 2752TIP3    H2 8200   5.479   3.803   5.013
 2753TIP3   OH2 8201   8.156   1.089   4.815
 2753TIP3    H1 8202   8.183   1.090   4.907
 2753TIP3    H2 8203   8.164   0.998   4.788
 2754TIP3   OH2 8204   3.486   7.042   2.376
 2754TIP3    H1 8205   3.422   6.981   2.340
 2754TIP3    H2 8206   3.555   7.047   2.310
 2755TIP3   OH2 8207   1.146   0.372   4.188
 2755TIP3    H1 8208   1.101   0.423   4.122
 2755TIP3    H2 8209   1.235   0.408   4.191
 2756TIP3   OH2 8210   5.516   5.251   2.858
 2756TIP3    H1 8211   5.444   5.225   2.801
 2756TIP3    H2 8212   5.588   5.272   2.798
 2757TIP3   OH2 8213   3.555   1.112   5.146
 2757TIP3    H1 8214   3.521   1.186   5.096
 2757TIP3    H2 8215   3.619   1.071   5.088
 2758TIP3   OH2 8216   1.801   2.144   0.061
 2758TIP3    H1 8217   1.865   2.095   0.008
 2758TIP3    H2 8218   1.752   2.195  -0.003
 2759TIP3   OH2 8219   6.125   1.336   5.166
 2759TIP3    H1 8220   6.171   1.309   5.246
 2759TIP3    H2 8221   6.159   1.278   5.098
 2760TIP3   OH2 8222   3.100   7.270   3.473
 2760TIP3    H1 8223   3.118   7.177   3.485
 2760TIP3    H2 8224   3.171   7.315   3.518
 2761TIP3   OH2 8225   8.157   1.268   2.629
 2761TIP3    H1 8226   8.143   1.354   2.588
 2761TIP3    H2 8227   8.146   1.284   2.722
 2762TIP3   OH2 8228   7.105   1.212   4.693
 2762TIP3    H1 8229   7.022   1.235   4.736
 2762TIP3    H2 8230   7.162   1.288   4.708
 2763TIP3   OH2 8231   5.833   0.311   4.760
 2763TIP3    H1 8232   5.779   0.237   4.736
 2763TIP3    H2 8233   5.881   0.282   4.838
 2764TIP3   OH2 8234   2.521   1.898   0.870
 2764TIP3    H1 8235   2.434   1.867   0.844
 2764TIP3    H2 8236   2.581   1.841   0.822
 2765TIP3   OH2 8237   0.151   4.392   4.063
 2765TIP3    H1 8238   0.183   4.482   4.056
 2765TIP3    H2 8239   0.117   4.372   3.976
 2766TIP3   OH2 8240   1.105   7.370   6.671
 2766TIP3    H1 8241   1.161   7.351   6.746
 2766TIP3    H2 8242   1.088   7.464   6.678
 2767TIP3   OH2 8243   1.046   7.506   1.292
 2767TIP3    H1 8244   1.061   7.499   1.386
 2767TIP3    H2 8245   0.951   7.495   1.282
 2768TIP3   OH2 8246   7.320   0.291   0.258
 2768TIP3    H1 8247   7.327   0.386   0.245
 2768TIP3    H2 8248   7.368   0.253   0.184
 2769TIP3   OH2 8249   3.494   4.263   0.384
 2769TIP3    H1 8250   3.421   4.323   0.367
 2769TIP3    H2 8251   3.564   4.318   0.418
 2770TIP3   OH2 8252   6.781   5.339   6.433
 2770TIP3    H1 8253   6.776   5.294   6.517
 2770TIP3    H2 8254   6.701   5.314   6.388
 2771TIP3   OH2 8255   5.599   5.720   3.570
 2771TIP3    H1 8256   5.599   5.734   3.476
 2771TIP3    H2 8257   5.656   5.789   3.605
 2772TIP3   OH2 8258   0.408   5.630   3.859
 2772TIP3    H1 8259   0.326   5.600   3.819
 2772TIP3    H2 8260   0.388   5.638   3.952
 2773TIP3   OH2 8261   0.248   3.415   4.352
 2773TIP3    H1 8262   0.244   3.416   4.448
 2773TIP3    H2 8263   0.311   3.483   4.330
 2774TIP3   OH2 8264   0.328   5.434   4.882
 2774TIP3    H1 8265   0.247   5.484   4.881
 2774TIP3    H2 8266   0.393   5.494   4.920
 2775TIP3   OH2 8267   0.696   3.449   5.999
 2775TIP3    H1 8268   0.666   3.423   6.086
 2775TIP3    H2 8269   0.757   3.521   6.015
 2776TIP3   OH2 8270   3.594   3.384   6.441
 2776TIP3    H1 8271   3.680   3.381   6.484
 2776TIP3    H2 8272   3.544   3.315   6.484
 2777TIP3   OH2 8273   5.353   3.029   2.455
 2777TIP3    H1 8274   5.381   3.112   2.415
 2777TIP3    H2 8275   5.389   3.032   2.544
 2778TIP3   OH2 8276   1.764   3.310   4.598
 2778TIP3    H1 8277   1.753   3.230   4.650
 2778TIP3    H2 8278   1.769   3.380   4.663
 2779TIP3   OH2 8279   0.334   1.643   1.751
 2779TIP3    H1 8280   0.427   1.666   1.753
 2779TIP3    H2 8281   0.301   1.671   1.836
 2780TIP3   OH2 8282   5.729   1.570   1.289
 2780TIP3    H1 8283   5.795   1.639   1.277
 2780TIP3    H2 8284   5.695   1.553   1.201
 2781TIP3   OH2 8285   5.689   4.549   5.307
 2781TIP3    H1 8286   5.722   4.522   5.221
 2781TIP3    H2 8287   5.728   4.635   5.322
 2782TIP3   OH2 8288   4.726   0.690   0.425
 2782TIP3    H1 8289   4.800   0.630   0.431
 2782TIP3    H2 8290   4.725   0.718   0.333
 2783TIP3   OH2 8291   5.709   2.684   1.777
 2783TIP3    H1 8292   5.678   2.617   1.838
 2783TIP3    H2 8293   5.689   2.649   1.690
 2784TIP3   OH2 8294   2.338   6.679   3.650
 2784TIP3    H1 8295   2.247   6.705   3.666
 2784TIP3    H2 8296   2.385   6.762   3.643
 2785TIP3   OH2 8297   4.292   6.579   4.314
 2785TIP3    H1 8298   4.201   6.555   4.330
 2785TIP3    H2 8299   4.307   6.656   4.368
 2786TIP3   OH2 8300   6.073   1.636   3.003
 2786TIP3    H1 8301   6.164   1.631   2.972
 2786TIP3    H2 8302   6.030   1.560   2.964
 2787TIP3   OH2 8303   4.497   4.125   5.722
 2787TIP3    H1 8304   4.454   4.209   5.710
 2787TIP3    H2 8305   4.477   4.100   5.812
 2788TIP3   OH2 8306   5.383   6.198   1.919
 2788TIP3    H1 8307   5.412   6.181   2.009
 2788TIP3    H2 8308   5.312   6.136   1.905
 2789TIP3   OH2 8309   4.985   1.255   3.973
 2789TIP3    H1 8310   5.061   1.274   4.028
 2789TIP3    H2 8311   4.930   1.332   3.982
 2790TIP3   OH2 8312   1.754   5.691   2.893
 2790TIP3    H1 8313   1.739   5.598   2.913
 2790TIP3    H2 8314   1.845   5.695   2.865
 2791TIP3   OH2 8315   4.988   6.504   6.472
 2791TIP3    H1 8316   5.037   6.514   6.390
 2791TIP3    H2 8317   5.054   6.517   6.541
 2792TIP3   OH2 8318   0.501   6.722   3.631
 2792TIP3    H1 8319   0.535   6.638   3.659
 2792TIP3    H2 8320   0.560   6.751   3.561
 2793TIP3   OH2 8321   3.209   1.211   6.014
 2793TIP3    H1 8322   3.183   1.301   6.034
 2793TIP3    H2 8323   3.301   1.206   6.040
 2794TIP3   OH2 8324   7.126   1.159   4.384
 2794TIP3    H1 8325   7.131   1.142   4.478
 2794TIP3    H2 8326   7.200   1.217   4.365
 2795TIP3   OH2 8327   4.840   1.008   0.329
 2795TIP3    H1 8328   4.820   1.102   0.329
 2795TIP3    H2 8329   4.919   1.001   0.275
 2796TIP3   OH2 8330   1.459   6.573   0.742
 2796TIP3    H1 8331   1.396   6.634   0.780
 2796TIP3    H2 8332   1.498   6.620   0.669
 2797TIP3   OH2 8333   4.295   1.149   1.771
 2797TIP3    H1 8334   4.254   1.120   1.853
 2797TIP3    H2 8335   4.385   1.168   1.795
 2798TIP3   OH2 8336   2.514   5.699   3.114
 2798TIP3    H1 8337   2.492   5.636   3.044
 2798TIP3    H2 8338   2.431   5.739   3.137
 2799TIP3   OH2 8339   8.250   3.682   0.777
 2799TIP3    H1 8340   8.236   3.594   0.740
 2799TIP3    H2 8341   8.171   3.731   0.754
 2800TIP3   OH2 8342   6.158   5.204   6.713
 2800TIP3    H1 8343   6.157   5.220   6.808
 2800TIP3    H2 8344   6.248   5.221   6.687
 2801TIP3   OH2 8345   7.441   6.762   3.803
 2801TIP3    H1 8346   7.405   6.848   3.825
 2801TIP3    H2 8347   7.487   6.775   3.720
 2802TIP3   OH2 8348   3.218   5.690   2.427
 2802TIP3    H1 8349   3.273   5.720   2.500
 2802TIP3    H2 8350   3.276   5.693   2.351
 2803TIP3   OH2 8351   0.488   2.706   3.696
 2803TIP3    H1 8352   0.577   2.678   3.674
 2803TIP3    H2 8353   0.500   2.781   3.754
 2804TIP3   OH2 8354   1.991   3.291   3.077
 2804TIP3    H1 8355   2.056   3.316   3.142
 2804TIP3    H2 8356   1.925   3.360   3.081
 2805TIP3   OH2 8357   1.177   4.989   1.434
 2805TIP3    H1 8358   1.120   5.063   1.414
 2805TIP3    H2 8359   1.127   4.912   1.405
 2806TIP3   OH2 8360   6.426   1.834   6.056
 2806TIP3    H1 8361   6.400   1.810   6.145
 2806TIP3    H2 8362   6.480   1.912   6.066
 2807TIP3   OH2 8363   3.048   3.007   2.212
 2807TIP3    H1 8364   3.050   3.052   2.128
 2807TIP3    H2 8365   2.956   3.011   2.238
 2808TIP3   OH2 8366   7.780   1.083   6.285
 2808TIP3    H1 8367   7.875   1.091   6.297
 2808TIP3    H2 8368   7.770   1.021   6.212
 2809TIP3   OH2 8369   6.079   3.367   5.751
 2809TIP3    H1 8370   6.048   3.289   5.706
 2809TIP3    H2 8371   6.028   3.370   5.832
 2810TIP3   OH2 8372   6.136   5.728   4.356
 2810TIP3    H1 8373   6.180   5.778   4.425
 2810TIP3    H2 8374   6.055   5.775   4.339
 2811TIP3   OH2 8375   4.510   7.635   4.034
 2811TIP3    H1 8376   4.480   7.578   4.105
 2811TIP3    H2 8377   4.605   7.636   4.043
 2812TIP3   OH2 8378   2.451   3.323   4.417
 2812TIP3    H1 8379   2.389   3.394   4.436
 2812TIP3    H2 8380   2.533   3.369   4.398
 2813TIP3   OH2 8381   0.277   0.107   5.210
 2813TIP3    H1 8382   0.334   0.177   5.180
 2813TIP3    H2 8383   0.271   0.120   5.305
 2814TIP3   OH2 8384   6.983   6.599   1.819
 2814TIP3    H1 8385   6.987   6.682   1.773
 2814TIP3    H2 8386   6.930   6.616   1.896
 2815TIP3   OH2 8387   5.181   2.626   1.392
 2815TIP3    H1 8388   5.178   2.618   1.487
 2815TIP3    H2 8389   5.239   2.554   1.364
 2816TIP3   OH2 8390   5.823   7.328   6.321
 2816TIP3    H1 8391   5.754   7.375   6.368
 2816TIP3    H2 8392   5.811   7.236   6.346
 2817TIP3   OH2 8393   0.474   5.998   6.506
 2817TIP3    H1 8394   0.526   5.993   6.426
 2817TIP3    H2 8395   0.383   5.995   6.476
 2818TIP3   OH2 8396   8.037   3.655   1.546
 2818TIP3    H1 8397   8.022   3.730   1.603
 2818TIP3    H2 8398   8.107   3.685   1.487
 2819TIP3   OH2 8399   5.780   7.129   6.685
 2819TIP3    H1 8400   5.812   7.046   6.650
 2819TIP3    H2 8401   5.859   7.182   6.696
 2820TIP3   OH2 8402   7.495   0.978   6.687
 2820TIP3    H1 8403   7.564   1.039   6.714
 2820TIP3    H2 8404   7.530   0.935   6.609
 2821TIP3   OH2 8405   4.837   3.573   4.703
 2821TIP3    H1 8406   4.770   3.634   4.733
 2821TIP3    H2 8407   4.803   3.486   4.726
 2822TIP3   OH2 8408   7.299   7.810   4.227
 2822TIP3    H1 8409   7.325   7.884   4.282
 2822TIP3    H2 8410   7.265   7.745   4.289
 2823TIP3   OH2 8411   5.564   7.688   0.241
 2823TIP3    H1 8412   5.487   7.663   0.291
 2823TIP3    H2 8413   5.540   7.670   0.150
 2824TIP3   OH2 8414   6.753   5.190   1.705
 2824TIP3    H1 8415   6.798   5.108   1.726
 2824TIP3    H2 8416   6.801   5.258   1.751
 2825TIP3   OH2 8417   1.295   5.233   3.553
 2825TIP3    H1 8418   1.292   5.326   3.573
 2825TIP3    H2 8419   1.232   5.193   3.612
 2826TIP3   OH2 8420   5.090   1.605   3.428
 2826TIP3    H1 8421   5.022   1.588   3.494
 2826TIP3    H2 8422   5.070   1.545   3.357
 2827TIP3   OH2 8423   2.977   1.015   6.747
 2827TIP3    H1 8424   2.928   0.994   6.668
 2827TIP3    H2 8425   3.052   0.955   6.747
 2828TIP3   OH2 8426   2.269   2.927   6.406
 2828TIP3    H1 8427   2.260   2.976   6.324
 2828TIP3    H2 8428   2.240   2.839   6.384
 2829TIP3   OH2 8429   3.820   1.303   6.672
 2829TIP3    H1 8430   3.852   1.376   6.619
 2829TIP3    H2 8431   3.855   1.320   6.760
 2830TIP3   OH2 8432   8.251   5.707   3.351
 2830TIP3    H1 8433   8.301   5.783   3.322
 2830TIP3    H2 8434   8.286   5.634   3.300
 2831TIP3   OH2 8435   6.077   5.648   3.191
 2831TIP3    H1 8436   6.062   5.684   3.103
 2831TIP3    H2 8437   6.159   5.599   3.183
 2832TIP3   OH2 8438   4.265   3.232   1.447
 2832TIP3    H1 8439   4.256   3.196   1.358
 2832TIP3    H2 8440   4.189   3.199   1.494
 2833TIP3   OH2 8441   7.503   6.705   2.907
 2833TIP3    H1 8442   7.528   6.685   2.997
 2833TIP3    H2 8443   7.585   6.704   2.858
 2834TIP3   OH2 8444   5.957   0.765   6.561
 2834TIP3    H1 8445   6.019   0.692   6.560
 2834TIP3    H2 8446   5.896   0.744   6.632
 2835TIP3   OH2 8447   6.183   4.792   3.540
 2835TIP3    H1 8448   6.153   4.702   3.528
 2835TIP3    H2 8449   6.160   4.813   3.630
 2836TIP3   OH2 8450   7.989   6.407   4.059
 2836TIP3    H1 8451   7.968   6.497   4.032
 2836TIP3    H2 8452   8.022   6.366   3.979
 2837TIP3   OH2 8453   7.720   2.171   5.467
 2837TIP3    H1 8454   7.654   2.171   5.398
 2837TIP3    H2 8455   7.718   2.261   5.501
 2838TIP3   OH2 8456   1.118   0.849   4.735
 2838TIP3    H1 8457   1.157   0.772   4.774
 2838TIP3    H2 8458   1.023   0.832   4.736
 2839TIP3   OH2 8459   1.687   4.747   0.919
 2839TIP3    H1 8460   1.700   4.842   0.913
 2839TIP3    H2 8461   1.645   4.734   1.004
 2840TIP3   OH2 8462   1.152   5.839   1.955
 2840TIP3    H1 8463   1.205   5.783   1.899
 2840TIP3    H2 8464   1.096   5.779   2.003
 2841TIP3   OH2 8465   1.441   0.326   0.626
 2841TIP3    H1 8466   1.410   0.342   0.536
 2841TIP3    H2 8467   1.503   0.254   0.618
 2842TIP3   OH2 8468   0.471   5.978   6.073
 2842TIP3    H1 8469   0.415   5.907   6.041
 2842TIP3    H2 8470   0.409   6.046   6.102
 2843TIP3   OH2 8471   2.826   4.971   2.863
 2843TIP3    H1 8472   2.858   5.001   2.777
 2843TIP3    H2 8473   2.863   5.034   2.925
 2844TIP3   OH2 8474   6.100   2.237   3.989
 2844TIP3    H1 8475   6.059   2.182   3.921
 2844TIP3    H2 8476   6.089   2.326   3.957
 2845TIP3   OH2 8477   2.366   0.246   1.832
 2845TIP3    H1 8478   2.329   0.169   1.789
 2845TIP3    H2 8479   2.460   0.233   1.828
 2846TIP3   OH2 8480   7.127   0.075   3.054
 2846TIP3    H1 8481   7.131   0.170   3.043
 2846TIP3    H2 8482   7.088   0.043   2.973
 2847TIP3   OH2 8483   3.624   5.500   2.291
 2847TIP3    H1 8484   3.579   5.499   2.375
 2847TIP3    H2 8485   3.603   5.415   2.251
 2848TIP3   OH2 8486   7.893   2.152   1.072
 2848TIP3    H1 8487   7.834   2.201   1.016
 2848TIP3    H2 8488   7.981   2.177   1.044
 2849TIP3   OH2 8489   1.546   0.859   1.136
 2849TIP3    H1 8490   1.467   0.879   1.186
 2849TIP3    H2 8491   1.521   0.871   1.045
 2850TIP3   OH2 8492   7.957   5.435   1.252
 2850TIP3    H1 8493   7.929   5.345   1.240
 2850TIP3    H2 8494   8.030   5.446   1.191
 2851TIP3   OH2 8495   0.295   4.372   5.491
 2851TIP3    H1 8496   0.263   4.325   5.568
 2851TIP3    H2 8497   0.298   4.306   5.421
 2852TIP3   OH2 8498   4.751   7.007   2.278
 2852TIP3    H1 8499   4.660   6.996   2.250
 2852TIP3    H2 8500   4.767   6.930   2.333
 2853TIP3   OH2 8501   6.375   1.715   3.558
 2853TIP3    H1 8502   6.371   1.725   3.463
 2853TIP3    H2 8503   6.308   1.776   3.591
 2854TIP3   OH2 8504   4.104   1.991   2.463
 2854TIP3    H1 8505   4.014   1.995   2.431
 2854TIP3    H2 8506   4.118   1.899   2.485
 2855TIP3   OH2 8507   6.322   7.603   3.610
 2855TIP3    H1 8508   6.369   7.685   3.622
 2855TIP3    H2 8509   6.387   7.543   3.573
 2856TIP3   OH2 8510   1.239   6.484   2.914
 2856TIP3    H1 8511   1.254   6.395   2.947
 2856TIP3    H2 8512   1.186   6.526   2.982
 2857TIP3   OH2 8513   4.738   2.325   5.135
 2857TIP3    H1 8514   4.800   2.278   5.079
 2857TIP3    H2 8515   4.662   2.340   5.079
 2858TIP3   OH2 8516   2.791   2.107   0.875
 2858TIP3    H1 8517   2.797   2.055   0.956
 2858TIP3    H2 8518   2.698   2.130   0.869
 2859TIP3   OH2 8519   6.290   5.573   2.758
 2859TIP3    H1 8520   6.209   5.560   2.806
 2859TIP3    H2 8521   6.281   5.519   2.680
 2860TIP3   OH2 8522   6.098   0.040   1.541
 2860TIP3    H1 8523   6.045   0.024   1.620
 2860TIP3    H2 8524   6.187   0.048   1.573
 2861TIP3   OH2 8525   2.189   2.034   2.681
 2861TIP3    H1 8526   2.155   1.966   2.739
 2861TIP3    H2 8527   2.121   2.047   2.615
 2862TIP3   OH2 8528   5.126   6.580   5.161
 2862TIP3    H1 8529   5.093   6.581   5.071
 2862TIP3    H2 8530   5.146   6.488   5.178
 2863TIP3   OH2 8531   1.442   4.274   3.660
 2863TIP3    H1 8532   1.471   4.338   3.725
 2863TIP3    H2 8533   1.500   4.199   3.671
 2864TIP3   OH2 8534   6.650   0.776   4.330
 2864TIP3    H1 8535   6.726   0.718   4.345
 2864TIP3    H2 8536   6.595   0.727   4.269
 2865TIP3   OH2 8537   8.133   0.512   3.141
 2865TIP3    H1 8538   8.049   0.472   3.119
 2865TIP3    H2 8539   8.189   0.438   3.164
 2866TIP3   OH2 8540   4.837   5.799   5.997
 2866TIP3    H1 8541   4.766   5.745   6.032
 2866TIP3    H2 8542   4.910   5.738   5.986
 2867TIP3   OH2 8543   5.315   3.063   1.717
 2867TIP3    H1 8544   5.247   2.998   1.736
 2867TIP3    H2 8545   5.384   3.044   1.780
 2868TIP3   OH2 8546   1.535   6.599   2.138
 2868TIP3    H1 8547   1.500   6.676   2.093
 2868TIP3    H2 8548   1.458   6.550   2.166
 2869TIP3   OH2 8549   3.837   4.220   3.492
 2869TIP3    H1 8550   3.927   4.187   3.484
 2869TIP3    H2 8551   3.830   4.287   3.424
 2870TIP3   OH2 8552   2.712   1.131   2.681
 2870TIP3    H1 8553   2.670   1.045   2.668
 2870TIP3    H2 8554   2.644   1.194   2.657
 2871TIP3   OH2 8555   4.262   5.838   4.379
 2871TIP3    H1 8556   4.265   5.907   4.313
 2871TIP3    H2 8557   4.245   5.885   4.461
 2872TIP3   OH2 8558   1.824   1.100   2.123
 2872TIP3    H1 8559   1.821   1.144   2.207
 2872TIP3    H2 8560   1.915   1.072   2.113
 2873TIP3   OH2 8561   3.108   6.989   4.166
 2873TIP3    H1 8562   3.151   6.992   4.080
 2873TIP3    H2 8563   3.100   6.896   4.185
 2874TIP3   OH2 8564   2.338   7.242   2.428
 2874TIP3    H1 8565   2.384   7.250   2.345
 2874TIP3    H2 8566   2.392   7.289   2.491
 2875TIP3   OH2 8567   7.823   4.326   3.045
 2875TIP3    H1 8568   7.909   4.344   3.007
 2875TIP3    H2 8569   7.762   4.378   2.993
 2876TIP3   OH2 8570   4.996   0.165   6.603
 2876TIP3    H1 8571   4.955   0.246   6.572
 2876TIP3    H2 8572   5.067   0.149   6.541
 2877TIP3   OH2 8573   4.744   7.023   0.879
 2877TIP3    H1 8574   4.735   6.941   0.831
 2877TIP3    H2 8575   4.825   7.014   0.928
 2878TIP3   OH2 8576   6.559   4.251   4.245
 2878TIP3    H1 8577   6.465   4.268   4.238
 2878TIP3    H2 8578   6.571   4.221   4.335
 2879TIP3   OH2 8579   2.755   5.466   3.294
 2879TIP3    H1 8580   2.666   5.444   3.267
 2879TIP3    H2 8581   2.763   5.428   3.382
 2880TIP3   OH2 8582   0.763   2.035   0.498
 2880TIP3    H1 8583   0.674   2.048   0.465
 2880TIP3    H2 8584   0.753   1.968   0.566
 2881TIP3   OH2 8585   2.294   2.646   3.854
 2881TIP3    H1 8586   2.275   2.609   3.768
 2881TIP3    H2 8587   2.241   2.595   3.914
 2882TIP3   OH2 8588   4.656   0.839   3.900
 2882TIP3    H1 8589   4.724   0.810   3.960
 2882TIP3    H2 8590   4.704   0.871   3.823
 2883TIP3   OH2 8591   1.797   4.124   1.290
 2883TIP3    H1 8592   1.856   4.068   1.341
 2883TIP3    H2 8593   1.843   4.136   1.207
 2884TIP3   OH2 8594   1.954   0.752   5.371
 2884TIP3    H1 8595   2.033   0.702   5.351
 2884TIP3    H2 8596   1.971   0.790   5.457
 2885TIP3   OH2 8597   1.277   6.731   4.293
 2885TIP3    H1 8598   1.258   6.661   4.356
 2885TIP3    H2 8599   1.304   6.805   4.347
 2886TIP3   OH2 8600   1.612   5.359   6.686
 2886TIP3    H1 8601   1.585   5.445   6.653
 2886TIP3    H2 8602   1.549   5.299   6.648
 2887TIP3   OH2 8603   7.647   6.694   5.278
 2887TIP3    H1 8604   7.615   6.649   5.200
 2887TIP3    H2 8605   7.732   6.653   5.296
 2888TIP3   OH2 8606   7.530   5.242   6.059
 2888TIP3    H1 8607   7.624   5.226   6.069
 2888TIP3    H2 8608   7.488   5.168   6.103
 2889TIP3   OH2 8609   1.377   5.256   1.866
 2889TIP3    H1 8610   1.422   5.183   1.908
 2889TIP3    H2 8611   1.442   5.326   1.864
 2890TIP3   OH2 8612   2.525   0.469   3.486
 2890TIP3    H1 8613   2.464   0.399   3.463
 2890TIP3    H2 8614   2.612   0.433   3.466
 2891TIP3   OH2 8615   5.924   1.832   3.759
 2891TIP3    H1 8616   5.865   1.789   3.697
 2891TIP3    H2 8617   5.926   1.773   3.834
 2892TIP3   OH2 8618   4.804   2.681   4.850
 2892TIP3    H1 8619   4.851   2.601   4.827
 2892TIP3    H2 8620   4.834   2.746   4.787
 2893TIP3   OH2 8621   8.114   1.949   1.759
 2893TIP3    H1 8622   8.163   2.010   1.705
 2893TIP3    H2 8623   8.080   1.884   1.697
 2894TIP3   OH2 8624   5.400   6.778   3.306
 2894TIP3    H1 8625   5.359   6.702   3.347
 2894TIP3    H2 8626   5.476   6.742   3.260
 2895TIP3   OH2 8627   4.962   3.011   0.819
 2895TIP3    H1 8628   4.948   3.028   0.726
 2895TIP3    H2 8629   4.981   3.096   0.857
 2896TIP3   OH2 8630   4.107   3.400   6.452
 2896TIP3    H1 8631   4.201   3.393   6.436
 2896TIP3    H2 8632   4.099   3.393   6.547
 2897TIP3   OH2 8633   6.454   6.022   4.275
 2897TIP3    H1 8634   6.406   5.965   4.215
 2897TIP3    H2 8635   6.422   6.110   4.254
 2898TIP3   OH2 8636   6.840   1.314   4.711
 2898TIP3    H1 8637   6.805   1.340   4.626
 2898TIP3    H2 8638   6.783   1.357   4.775
 2899TIP3   OH2 8639   2.891   5.494   6.044
 2899TIP3    H1 8640   2.919   5.581   6.074
 2899TIP3    H2 8641   2.868   5.448   6.125
 2900TIP3   OH2 8642   5.035   7.413   4.687
 2900TIP3    H1 8643   4.945   7.445   4.686
 2900TIP3    H2 8644   5.074   7.447   4.606
 2901TIP3   OH2 8645   4.843   7.448   0.543
 2901TIP3    H1 8646   4.769   7.437   0.603
 2901TIP3    H2 8647   4.880   7.360   0.534
 2902TIP3   OH2 8648   4.873   4.251   1.176
 2902TIP3    H1 8649   4.935   4.319   1.201
 2902TIP3    H2 8650   4.897   4.229   1.086
 2903TIP3   OH2 8651   3.626   6.365   5.248
 2903TIP3    H1 8652   3.699   6.330   5.300
 2903TIP3    H2 8653   3.599   6.291   5.193
 2904TIP3   OH2 8654   0.633   5.918   2.679
 2904TIP3    H1 8655   0.721   5.955   2.673
 2904TIP3    H2 8656   0.624   5.891   2.770
 2905TIP3   OH2 8657   1.578   3.785   4.423
 2905TIP3    H1 8658   1.609   3.713   4.477
 2905TIP3    H2 8659   1.642   3.791   4.352
 2906TIP3   OH2 8660   1.221   4.501   1.783
 2906TIP3    H1 8661   1.194   4.521   1.873
 2906TIP3    H2 8662   1.215   4.584   1.737
 2907TIP3   OH2 8663   2.278   7.269   5.685
 2907TIP3    H1 8664   2.343   7.199   5.673
 2907TIP3    H2 8665   2.216   7.255   5.613
 2908TIP3   OH2 8666   5.180   1.148   3.763
 2908TIP3    H1 8667   5.198   1.096   3.841
 2908TIP3    H2 8668   5.108   1.206   3.789
 2909TIP3   OH2 8669   3.305   5.496   5.471
 2909TIP3    H1 8670   3.297   5.581   5.428
 2909TIP3    H2 8671   3.274   5.433   5.406
 2910TIP3   OH2 8672   3.563   6.920   5.997
 2910TIP3    H1 8673   3.472   6.892   5.989
 2910TIP3    H2 8674   3.614   6.847   5.962
 2911TIP3   OH2 8675   4.472   1.029   0.970
 2911TIP3    H1 8676   4.403   0.976   1.008
 2911TIP3    H2 8677   4.548   1.013   1.026
 2912TIP3   OH2 8678   0.906   5.784   4.636
 2912TIP3    H1 8679   0.920   5.741   4.552
 2912TIP3    H2 8680   0.989   5.775   4.682
 2913TIP3   OH2 8681   0.308   0.118   1.673
 2913TIP3    H1 8682   0.372   0.052   1.700
 2913TIP3    H2 8683   0.291   0.098   1.581
 2914TIP3   OH2 8684   7.682   3.511   4.858
 2914TIP3    H1 8685   7.764   3.490   4.903
 2914TIP3    H2 8686   7.705   3.511   4.765
 2915TIP3   OH2 8687   0.764   1.967   1.307
 2915TIP3    H1 8688   0.689   1.918   1.272
 2915TIP3    H2 8689   0.755   1.960   1.402
 2916TIP3   OH2 8690   0.980   3.702   4.061
 2916TIP3    H1 8691   1.005   3.737   3.976
 2916TIP3    H2 8692   0.964   3.609   4.046
 2917TIP3   OH2 8693   5.425   0.802   1.053
 2917TIP3    H1 8694   5.389   0.848   0.977
 2917TIP3    H2 8695   5.363   0.820   1.124
 2918TIP3   OH2 8696   7.517   7.752   5.017
 2918TIP3    H1 8697   7.591   7.696   5.042
 2918TIP3    H2 8698   7.483   7.713   4.937
 2919TIP3   OH2 8699   4.232   1.892   4.150
 2919TIP3    H1 8700   4.257   1.969   4.201
 2919TIP3    H2 8701   4.267   1.818   4.200
 2920TIP3   OH2 8702   6.764   3.027   2.178
 2920TIP3    H1 8703   6.819   3.097   2.213
 2920TIP3    H2 8704   6.825   2.962   2.143
 2921TIP3   OH2 8705   2.834   4.811   0.311
 2921TIP3    H1 8706   2.885   4.865   0.372
 2921TIP3    H2 8707   2.759   4.865   0.288
 2922TIP3   OH2 8708   0.399   3.645   4.277
 2922TIP3    H1 8709   0.470   3.667   4.218
 2922TIP3    H2 8710   0.345   3.725   4.280
 2923TIP3   OH2 8711   2.730   6.802   4.249
 2923TIP3    H1 8712   2.655   6.743   4.240
 2923TIP3    H2 8713   2.791   6.755   4.307
 2924TIP3   OH2 8714   0.403   0.853   0.669
 2924TIP3    H1 8715   0.398   0.761   0.695
 2924TIP3    H2 8716   0.376   0.901   0.748
 2925TIP3   OH2 8717   5.089   0.940   3.605
 2925TIP3    H1 8718   5.163   0.907   3.554
 2925TIP3    H2 8719   5.124   1.015   3.653
 2926TIP3   OH2 8720   2.223   1.331   1.774
 2926TIP3    H1 8721   2.310   1.330   1.814
 2926TIP3    H2 8722   2.212   1.243   1.738
 2927TIP3   OH2 8723   7.680   0.373   0.186
 2927TIP3    H1 8724   7.619   0.378   0.113
 2927TIP3    H2 8725   7.765   0.393   0.148
 2928TIP3   OH2 8726   0.973   5.999   3.884
 2928TIP3    H1 8727   0.950   5.907   3.896
 2928TIP3    H2 8728   1.042   6.015   3.949
 2929TIP3   OH2 8729   4.498   5.305   3.252
 2929TIP3    H1 8730   4.507   5.212   3.230
 2929TIP3    H2 8731   4.550   5.316   3.332
 2930TIP3   OH2 8732   2.729   3.795   6.027
 2930TIP3    H1 8733   2.668   3.816   5.956
 2930TIP3    H2 8734   2.812   3.777   5.982
 2931TIP3   OH2 8735   7.492   2.670   4.264
 2931TIP3    H1 8736   7.557   2.730   4.301
 2931TIP3    H2 8737   7.421   2.668   4.328
 2932TIP3   OH2 8738   6.814   6.575   4.417
 2932TIP3    H1 8739   6.812   6.481   4.405
 2932TIP3    H2 8740   6.907   6.595   4.430
 2933TIP3   OH2 8741   2.806   4.969   5.408
 2933TIP3    H1 8742   2.735   5.033   5.396
 2933TIP3    H2 8743   2.879   5.004   5.357
 2934TIP3   OH2 8744   7.854   7.447   4.291
 2934TIP3    H1 8745   7.776   7.500   4.302
 2934TIP3    H2 8746   7.849   7.382   4.361
 2935TIP3   OH2 8747   2.873   3.321   3.933
 2935TIP3    H1 8748   2.890   3.246   3.876
 2935TIP3    H2 8749   2.883   3.287   4.022
 2936TIP3   OH2 8750   0.551   7.634   4.393
 2936TIP3    H1 8751   0.469   7.683   4.405
 2936TIP3    H2 8752   0.610   7.696   4.350
 2937TIP3   OH2 8753   3.894   0.273   3.507
 2937TIP3    H1 8754   3.950   0.317   3.572
 2937TIP3    H2 8755   3.835   0.342   3.476
 2938TIP3   OH2 8756   7.997   3.897   0.994
 2938TIP3    H1 8757   7.931   3.952   0.952
 2938TIP3    H2 8758   7.962   3.878   1.080
 2939TIP3   OH2 8759   0.322   5.932   1.271
 2939TIP3    H1 8760   0.358   5.984   1.344
 2939TIP3    H2 8761   0.261   5.992   1.227
 2940TIP3   OH2 8762   0.936   3.539   4.762
 2940TIP3    H1 8763   0.934   3.505   4.673
 2940TIP3    H2 8764   0.854   3.588   4.771
 2941TIP3   OH2 8765   6.792   4.071   3.005
 2941TIP3    H1 8766   6.731   4.108   3.069
 2941TIP3    H2 8767   6.878   4.093   3.040
 2942TIP3   OH2 8768   2.178   1.409   2.523
 2942TIP3    H1 8769   2.251   1.471   2.519
 2942TIP3    H2 8770   2.100   1.465   2.523
 2943TIP3   OH2 8771   2.378   0.294   6.672
 2943TIP3    H1 8772   2.447   0.336   6.724
 2943TIP3    H2 8773   2.351   0.362   6.610
 2944TIP3   OH2 8774   8.070   6.461   3.441
 2944TIP3    H1 8775   8.016   6.382   3.440
 2944TIP3    H2 8776   8.159   6.429   3.450
 2945TIP3   OH2 8777   5.248   6.987   3.187
 2945TIP3    H1 8778   5.158   6.956   3.175
 2945TIP3    H2 8779   5.297   6.908   3.210
 2946TIP3   OH2 8780   1.934   6.543   4.469
 2946TIP3    H1 8781   1.965   6.621   4.423
 2946TIP3    H2 8782   1.916   6.575   4.558
 2947TIP3   OH2 8783   6.491   7.065   4.709
 2947TIP3    H1 8784   6.538   6.982   4.699
 2947TIP3    H2 8785   6.415   7.044   4.764
 2948TIP3   OH2 8786   4.265   6.829   1.455
 2948TIP3    H1 8787   4.292   6.762   1.392
 2948TIP3    H2 8788   4.333   6.828   1.522
 2949TIP3   OH2 8789   4.775   5.285   1.801
 2949TIP3    H1 8790   4.760   5.317   1.713
 2949TIP3    H2 8791   4.693   5.302   1.847
 2950TIP3   OH2 8792   0.603   6.777   6.517
 2950TIP3    H1 8793   0.687   6.746   6.550
 2950TIP3    H2 8794   0.561   6.699   6.480
 2951TIP3   OH2 8795   4.057   7.689   2.403
 2951TIP3    H1 8796   4.063   7.750   2.476
 2951TIP3    H2 8797   3.974   7.708   2.361
 2952TIP3   OH2 8798   2.834   7.052   4.116
 2952TIP3    H1 8799   2.923   7.078   4.142
 2952TIP3    H2 8800   2.798   7.008   4.193
 2953TIP3   OH2 8801   1.342   5.880   3.767
 2953TIP3    H1 8802   1.248   5.861   3.766
 2953TIP3    H2 8803   1.370   5.875   3.676
 2954TIP3   OH2 8804   3.913   2.485   5.789
 2954TIP3    H1 8805   3.883   2.404   5.829
 2954TIP3    H2 8806   3.983   2.458   5.730
 2955TIP3   OH2 8807   2.114   5.066   5.240
 2955TIP3    H1 8808   2.147   4.995   5.295
 2955TIP3    H2 8809   2.096   5.024   5.156
 2956TIP3   OH2 8810   7.302   2.543   3.141
 2956TIP3    H1 8811   7.248   2.510   3.213
 2956TIP3    H2 8812   7.318   2.466   3.086
 2957TIP3   OH2 8813   1.194   3.071   2.974
 2957TIP3    H1 8814   1.121   3.120   2.938
 2957TIP3    H2 8815   1.267   3.087   2.914
 2958TIP3   OH2 8816   6.132   6.244   1.517
 2958TIP3    H1 8817   6.227   6.249   1.529
 2958TIP3    H2 8818   6.120   6.249   1.422
 2959TIP3   OH2 8819   7.263   7.741   6.061
 2959TIP3    H1 8820   7.307   7.817   6.100
 2959TIP3    H2 8821   7.201   7.712   6.127
 2960TIP3   OH2 8822   3.789   1.657   3.867
 2960TIP3    H1 8823   3.840   1.663   3.948
 2960TIP3    H2 8824   3.842   1.704   3.803
 2961TIP3   OH2 8825   3.061   7.295   0.283
 2961TIP3    H1 8826   3.107   7.358   0.227
 2961TIP3    H2 8827   3.037   7.345   0.361
 2962TIP3   OH2 8828   3.352   6.499   5.583
 2962TIP3    H1 8829   3.353   6.593   5.600
 2962TIP3    H2 8830   3.399   6.489   5.500
 2963TIP3   OH2 8831   4.174   6.126   5.657
 2963TIP3    H1 8832   4.209   6.215   5.664
 2963TIP3    H2 8833   4.241   6.071   5.699
 2964TIP3   OH2 8834   8.028   7.555   3.682
 2964TIP3    H1 8835   8.079   7.556   3.763
 2964TIP3    H2 8836   7.994   7.644   3.674
 2965TIP3   OH2 8837   7.203   0.292   4.986
 2965TIP3    H1 8838   7.298   0.286   4.976
 2965TIP3    H2 8839   7.177   0.370   4.937
 2966TIP3   OH2 8840   0.222   1.299   0.426
 2966TIP3    H1 8841   0.240   1.224   0.368
 2966TIP3    H2 8842   0.281   1.368   0.395
 2967TIP3   OH2 8843   7.826  -0.061   5.578
 2967TIP3    H1 8844   7.863  -0.027   5.497
 2967TIP3    H2 8845   7.811   0.016   5.632
 2968TIP3   OH2 8846   1.932   0.877   2.380
 2968TIP3    H1 8847   2.008   0.921   2.341
 2968TIP3    H2 8848   1.917   0.802   2.323
 2969TIP3   OH2 8849   1.928   4.237   2.301
 2969TIP3    H1 8850   1.835   4.223   2.321
 2969TIP3    H2 8851   1.929   4.261   2.209
 2970TIP3   OH2 8852   2.962   7.745   4.178
 2970TIP3    H1 8853   2.885   7.801   4.181
 2970TIP3    H2 8854   3.018   7.776   4.249
 2971TIP3   OH2 8855   6.072   1.871   4.656
 2971TIP3    H1 8856   6.090   1.778   4.646
 2971TIP3    H2 8857   6.000   1.875   4.719
 2972TIP3   OH2 8858   6.856   2.220   4.585
 2972TIP3    H1 8859   6.804   2.146   4.616
 2972TIP3    H2 8860   6.792   2.289   4.565
 2973TIP3   OH2 8861   3.724   3.027   1.900
 2973TIP3    H1 8862   3.708   2.940   1.936
 2973TIP3    H2 8863   3.718   3.086   1.975
 2974TIP3   OH2 8864   5.267   5.956   3.306
 2974TIP3    H1 8865   5.219   5.958   3.224
 2974TIP3    H2 8866   5.254   6.043   3.344
 2975TIP3   OH2 8867   1.860   6.278   3.310
 2975TIP3    H1 8868   1.793   6.331   3.268
 2975TIP3    H2 8869   1.895   6.224   3.239
 2976TIP3   OH2 8870   2.110   0.089   3.288
 2976TIP3    H1 8871   2.053   0.041   3.228
 2976TIP3    H2 8872   2.057   0.163   3.318
 2977TIP3   OH2 8873   0.581   4.874   6.580
 2977TIP3    H1 8874   0.579   4.947   6.519
 2977TIP3    H2 8875   0.661   4.886   6.629
 2978TIP3   OH2 8876   5.138   5.460   1.954
 2978TIP3    H1 8877   5.230   5.484   1.941
 2978TIP3    H2 8878   5.142   5.371   1.989
 2979TIP3   OH2 8879   3.675   7.283   2.149
 2979TIP3    H1 8880   3.615   7.311   2.219
 2979TIP3    H2 8881   3.641   7.198   2.121
 2980TIP3   OH2 8882   6.201   0.290   1.828
 2980TIP3    H1 8883   6.236   0.207   1.796
 2980TIP3    H2 8884   6.119   0.267   1.871
 2981TIP3   OH2 8885   2.063   4.717   6.599
 2981TIP3    H1 8886   2.067   4.643   6.660
 2981TIP3    H2 8887   2.153   4.726   6.568
 2982TIP3   OH2 8888   5.036   3.993   1.440
 2982TIP3    H1 8889   5.132   3.987   1.436
 2982TIP3    H2 8890   5.018   4.032   1.526
 2983TIP3   OH2 8891   2.631   2.711   5.975
 2983TIP3    H1 8892   2.684   2.751   6.044
 2983TIP3    H2 8893   2.605   2.785   5.920
 2984TIP3   OH2 8894   3.245   7.207   2.381
 2984TIP3    H1 8895   3.324   7.170   2.421
 2984TIP3    H2 8896   3.234   7.159   2.299
 2985TIP3   OH2 8897   2.659   1.798   0.636
 2985TIP3    H1 8898   2.596   1.845   0.582
 2985TIP3    H2 8899   2.744   1.837   0.614
 2986TIP3   OH2 8900   1.694   6.431   4.383
 2986TIP3    H1 8901   1.676   6.423   4.290
 2986TIP3    H2 8902   1.778   6.477   4.388
 2987TIP3   OH2 8903   8.036   4.941   4.387
 2987TIP3    H1 8904   8.114   4.893   4.359
 2987TIP3    H2 8905   7.963   4.882   4.368
 2988TIP3   OH2 8906   4.691   6.230   0.538
 2988TIP3    H1 8907   4.726   6.157   0.487
 2988TIP3    H2 8908   4.596   6.217   0.538
 2989TIP3   OH2 8909   4.602   3.148   1.391
 2989TIP3    H1 8910   4.579   3.166   1.482
 2989TIP3    H2 8911   4.656   3.223   1.365
 2990TIP3   OH2 8912   2.434   3.401   1.386
 2990TIP3    H1 8913   2.505   3.394   1.450
 2990TIP3    H2 8914   2.447   3.486   1.345
 2991TIP3   OH2 8915   1.921   7.510   1.813
 2991TIP3    H1 8916   1.875   7.426   1.821
 2991TIP3    H2 8917   1.968   7.504   1.729
 2992TIP3   OH2 8918   5.795   5.506   5.190
 2992TIP3    H1 8919   5.807   5.532   5.281
 2992TIP3    H2 8920   5.881   5.516   5.151
 2993TIP3   OH2 8921   6.816   2.849   3.310
 2993TIP3    H1 8922   6.759   2.865   3.235
 2993TIP3    H2 8923   6.774   2.777   3.357
 2994TIP3   OH2 8924   4.934   6.815   5.116
 2994TIP3    H1 8925   4.994   6.743   5.096
 2994TIP3    H2 8926   4.855   6.795   5.066
 2995TIP3   OH2 8927   7.215   3.528   4.393
 2995TIP3    H1 8928   7.196   3.435   4.406
 2995TIP3    H2 8929   7.145   3.558   4.335
 2996TIP3   OH2 8930   8.266   6.635   4.269
 2996TIP3    H1 8931   8.355   6.602   4.261
 2996TIP3    H2 8932   8.210   6.558   4.258
 2997TIP3   OH2 8933   6.049   1.905   1.564
 2997TIP3    H1 8934   6.011   1.868   1.484
 2997TIP3    H2 8935   6.103   1.977   1.534
 2998TIP3   OH2 8936   3.832   4.277   4.834
 2998TIP3    H1 8937   3.905   4.312   4.886
 2998TIP3    H2 8938   3.840   4.182   4.845
 2999TIP3   OH2 8939   5.866   4.886   3.087
 2999TIP3    H1 8940   5.785   4.882   3.138
 2999TIP3    H2 8941   5.840   4.923   3.003
 3000TIP3   OH2 8942   3.951   0.140   6.663
 3000TIP3    H1 8943   3.863   0.106   6.646
 3000TIP3    H2 8944   4.004   0.103   6.593
 3001TIP3   OH2 8945   7.134   7.554   3.032
 3001TIP3    H1 8946   7.124   7.462   3.009
 3001TIP3    H2 8947   7.063   7.598   2.985
 3002TIP3   OH2 8948   0.700   2.671   2.582
 3002TIP3    H1 8949   0.737   2.641   2.499
 3002TIP3    H2 8950   0.754   2.627   2.649
 3003TIP3   OH2 8951   0.622   6.080   4.209
 3003TIP3    H1 8952   0.564   6.009   4.235
 3003TIP3    H2 8953   0.632   6.070   4.115
 3004TIP3   OH2 8954   1.708   0.124   6.739
 3004TIP3    H1 8955   1.649   0.173   6.797
 3004TIP3    H2 8956   1.796   0.153   6.766
 3005TIP3   OH2 8957   1.947   3.487   4.922
 3005TIP3    H1 8958   1.866   3.493   4.973
 3005TIP3    H2 8959   2.015   3.469   4.987
 3006TIP3   OH2 8960   6.956   5.286   1.965
 3006TIP3    H1 8961   6.928   5.206   2.010
 3006TIP3    H2 8962   7.032   5.317   2.015
 3007TIP3   OH2 8963   0.546   0.304   4.177
 3007TIP3    H1 8964   0.512   0.394   4.181
 3007TIP3    H2 8965   0.496   0.257   4.244
 3008TIP3   OH2 8966   4.236   3.001   2.666
 3008TIP3    H1 8967   4.322   3.008   2.625
 3008TIP3    H2 8968   4.202   3.090   2.666
 3009TIP3   OH2 8969   7.368   2.048   0.267
 3009TIP3    H1 8970   7.363   2.117   0.201
 3009TIP3    H2 8971   7.402   1.972   0.220
 3010TIP3   OH2 8972   6.519   3.757   0.364
 3010TIP3    H1 8973   6.441   3.726   0.410
 3010TIP3    H2 8974   6.487   3.784   0.278
 3011TIP3   OH2 8975   1.886   6.781   0.617
 3011TIP3    H1 8976   1.913   6.860   0.570
 3011TIP3    H2 8977   1.964   6.727   0.621
 3012TIP3   OH2 8978   7.857   1.727   6.776
 3012TIP3    H1 8979   7.798   1.652   6.776
 3012TIP3    H2 8980   7.846   1.766   6.689
 3013TIP3   OH2 8981   7.557   0.302   4.033
 3013TIP3    H1 8982   7.580   0.309   3.941
 3013TIP3    H2 8983   7.641   0.305   4.079
 3014TIP3   OH2 8984   6.758   2.678   0.865
 3014TIP3    H1 8985   6.710   2.752   0.827
 3014TIP3    H2 8986   6.735   2.679   0.958
 3015TIP3   OH2 8987   0.533   7.421   0.136
 3015TIP3    H1 8988   0.549   7.515   0.124
 3015TIP3    H2 8989   0.511   7.389   0.048
 3016TIP3   OH2 8990   1.946   2.982   3.921
 3016TIP3    H1 8991   1.870   3.022   3.879
 3016TIP3    H2 8992   1.949   2.893   3.886
 3017TIP3   OH2 8993   7.109   4.447   5.762
 3017TIP3    H1 8994   7.046   4.446   5.834
 3017TIP3    H2 8995   7.158   4.366   5.772
 3018TIP3   OH2 8996   2.513   5.162   2.302
 3018TIP3    H1 8997   2.600   5.195   2.326
 3018TIP3    H2 8998   2.505   5.181   2.208
 3019TIP3   OH2 8999   6.750   5.412   1.487
 3019TIP3    H1 9000   6.829   5.458   1.515
 3019TIP3    H2 9001   6.763   5.322   1.517
 3020TIP3   OH2 9002   7.593   0.876   6.408
 3020TIP3    H1 9003   7.630   0.798   6.449
 3020TIP3    H2 9004   7.669   0.927   6.380
 3021TIP3   OH2 9005   1.860   1.101   2.575
 3021TIP3    H1 9006   1.945   1.139   2.596
 3021TIP3    H2 9007   1.881   1.019   2.529
 3022TIP3   OH2 9008   4.681   7.106   6.315
 3022TIP3    H1 9009   4.723   7.084   6.232
 3022TIP3    H2 9010   4.753   7.130   6.373
 3023TIP3   OH2 9011   5.070   6.204   1.286
 3023TIP3    H1 9012   4.996   6.196   1.346
 3023TIP3    H2 9013   5.123   6.126   1.303
 3024TIP3   OH2 9014   1.689   3.540   5.053
 3024TIP3    H1 9015   1.638   3.476   5.103
 3024TIP3    H2 9016   1.718   3.604   5.117
 3025TIP3   OH2 9017   2.690   7.578   5.094
 3025TIP3    H1 9018   2.600   7.592   5.126
 3025TIP3    H2 9019   2.738   7.549   5.171
 3026TIP3   OH2 9020   1.919   3.370   2.534
 3026TIP3    H1 9021   1.916   3.307   2.607
 3026TIP3    H2 9022   1.922   3.455   2.577
 3027TIP3   OH2 9023   6.468   5.159   3.611
 3027TIP3    H1 9024   6.408   5.107   3.557
 3027TIP3    H2 9025   6.514   5.094   3.665
 3028TIP3   OH2 9026   7.355   5.945   6.426
 3028TIP3    H1 9027   7.270   5.984   6.404
 3028TIP3    H2 9028   7.365   5.958   6.520
 3029TIP3   OH2 9029   3.569   3.353   5.260
 3029TIP3    H1 9030   3.664   3.360   5.268
 3029TIP3    H2 9031   3.545   3.279   5.316
 3030TIP3   OH2 9032   7.414   0.919   2.145
 3030TIP3    H1 9033   7.350   0.966   2.091
 3030TIP3    H2 9034   7.366   0.844   2.180
 3031TIP3   OH2 9035   3.684   3.738   5.482
 3031TIP3    H1 9036   3.745   3.754   5.554
 3031TIP3    H2 9037   3.655   3.825   5.455
 3032TIP3   OH2 9038   0.229   4.000   5.830
 3032TIP3    H1 9039   0.319   4.030   5.819
 3032TIP3    H2 9040   0.234   3.937   5.902
 3033TIP3   OH2 9041   6.914   3.399   3.164
 3033TIP3    H1 9042   6.936   3.451   3.241
 3033TIP3    H2 9043   6.996   3.359   3.137
 3034TIP3   OH2 9044   0.654   0.663   6.505
 3034TIP3    H1 9045   0.614   0.576   6.501
 3034TIP3    H2 9046   0.694   0.674   6.419
 3035TIP3   OH2 9047   8.018   5.232   2.430
 3035TIP3    H1 9048   8.097   5.253   2.381
 3035TIP3    H2 9049   7.998   5.312   2.479
 3036TIP3   OH2 9050   1.061   2.300   1.972
 3036TIP3    H1 9051   1.057   2.319   1.878
 3036TIP3    H2 9052   1.007   2.222   1.983
 3037TIP3   OH2 9053   2.337   5.071   0.964
 3037TIP3    H1 9054   2.264   5.081   1.025
 3037TIP3    H2 9055   2.409   5.040   1.018
 3038TIP3   OH2 9056   0.452   2.374   5.000
 3038TIP3    H1 9057   0.370   2.422   5.015
 3038TIP3    H2 9058   0.432   2.314   4.928
 3039TIP3   OH2 9059   1.720   2.827   5.982
 3039TIP3    H1 9060   1.671   2.832   6.064
 3039TIP3    H2 9061   1.756   2.739   5.980
 3040TIP3   OH2 9062   7.702   5.012   2.724
 3040TIP3    H1 9063   7.750   4.993   2.643
 3040TIP3    H2 9064   7.610   4.996   2.702
 3041TIP3   OH2 9065   2.202   0.604   3.198
 3041TIP3    H1 9066   2.195   0.691   3.237
 3041TIP3    H2 9067   2.290   0.603   3.159
 3042TIP3   OH2 9068   4.353   2.833   6.688
 3042TIP3    H1 9069   4.395   2.749   6.665
 3042TIP3    H2 9070   4.376   2.891   6.615
 3043TIP3   OH2 9071   2.871   2.931   5.774
 3043TIP3    H1 9072   2.781   2.918   5.805
 3043TIP3    H2 9073   2.899   3.012   5.815
 3044TIP3   OH2 9074   6.667   5.598   5.412
 3044TIP3    H1 9075   6.724   5.536   5.366
 3044TIP3    H2 9076   6.723   5.637   5.479
 3045TIP3   OH2 9077   7.836   5.879   2.217
 3045TIP3    H1 9078   7.758   5.872   2.271
 3045TIP3    H2 9079   7.812   5.837   2.134
 3046TIP3   OH2 9080   7.689   5.081   1.641
 3046TIP3    H1 9081   7.685   5.007   1.581
 3046TIP3    H2 9082   7.694   5.158   1.585
 3047TIP3   OH2 9083   3.564   3.481   6.769
 3047TIP3    H1 9084   3.507   3.416   6.810
 3047TIP3    H2 9085   3.520   3.501   6.686
 3048TIP3   OH2 9086   5.875   5.949   0.280
 3048TIP3    H1 9087   5.781   5.963   0.273
 3048TIP3    H2 9088   5.898   5.899   0.202
 3049TIP3   OH2 9089   6.789   0.975   0.885
 3049TIP3    H1 9090   6.847   1.045   0.856
 3049TIP3    H2 9091   6.742   0.949   0.806
 3050TIP3   OH2 9092   5.848   7.550   1.826
 3050TIP3    H1 9093   5.871   7.474   1.772
 3050TIP3    H2 9094   5.771   7.522   1.875
 3051TIP3   OH2 9095   1.892   6.089   5.512
 3051TIP3    H1 9096   1.940   6.101   5.594
 3051TIP3    H2 9097   1.813   6.040   5.537
 3052TIP3   OH2 9098   5.834   1.588   3.907
 3052TIP3    H1 9099   5.878   1.534   3.974
 3052TIP3    H2 9100   5.789   1.525   3.851
 3053TIP3   OH2 9101   4.781   6.314   4.806
 3053TIP3    H1 9102   4.742   6.264   4.734
 3053TIP3    H2 9103   4.783   6.404   4.775
 3054TIP3   OH2 9104   3.169   3.526   0.710
 3054TIP3    H1 9105   3.147   3.540   0.618
 3054TIP3    H2 9106   3.216   3.605   0.735
 3055TIP3   OH2 9107   6.164   5.275   0.217
 3055TIP3    H1 9108   6.119   5.323   0.287
 3055TIP3    H2 9109   6.243   5.327   0.200
 3056TIP3   OH2 9110   5.608   0.218   5.023
 3056TIP3    H1 9111   5.565   0.177   5.098
 3056TIP3    H2 9112   5.699   0.228   5.050
 3057TIP3   OH2 9113   0.906   6.295   4.397
 3057TIP3    H1 9114   0.964   6.299   4.473
 3057TIP3    H2 9115   0.927   6.212   4.354
 3058TIP3   OH2 9116   1.818   0.768   6.037
 3058TIP3    H1 9117   1.795   0.699   6.100
 3058TIP3    H2 9118   1.902   0.802   6.069
 3059TIP3   OH2 9119   8.107   7.553   0.744
 3059TIP3    H1 9120   8.200   7.565   0.764
 3059TIP3    H2 9121   8.098   7.460   0.724
 3060TIP3   OH2 9122   2.752   0.725   6.490
 3060TIP3    H1 9123   2.719   0.636   6.481
 3060TIP3    H2 9124   2.721   0.754   6.576
 3061TIP3   OH2 9125   6.913   4.759   5.234
 3061TIP3    H1 9126   6.961   4.732   5.155
 3061TIP3    H2 9127   6.835   4.704   5.235
 3062TIP3   OH2 9128   2.876   2.354   0.900
 3062TIP3    H1 9129   2.810   2.392   0.842
 3062TIP3    H2 9130   2.870   2.259   0.885
 3063TIP3   OH2 9131   0.017   7.542   0.917
 3063TIP3    H1 9132   0.102   7.583   0.902
 3063TIP3    H2 9133  -0.026   7.599   0.981
 3064TIP3   OH2 9134   2.835   1.291   5.598
 3064TIP3    H1 9135   2.781   1.346   5.654
 3064TIP3    H2 9136   2.907   1.263   5.655
 3065TIP3   OH2 9137   5.323   5.641   1.564
 3065TIP3    H1 9138   5.273   5.621   1.485
 3065TIP3    H2 9139   5.393   5.700   1.534
 3066TIP3   OH2 9140   5.107   5.831   4.927
 3066TIP3    H1 9141   5.129   5.754   4.980
 3066TIP3    H2 9142   5.058   5.887   4.987
 3067TIP3   OH2 9143   2.741   3.407   2.192
 3067TIP3    H1 9144   2.715   3.423   2.282
 3067TIP3    H2 9145   2.666   3.360   2.154
 3068TIP3   OH2 9146   2.410  -0.019   1.066
 3068TIP3    H1 9147   2.359   0.061   1.050
 3068TIP3    H2 9148   2.393  -0.041   1.157
 3069TIP3   OH2 9149   0.006   4.941   2.428
 3069TIP3    H1 9150   0.077   4.892   2.386
 3069TIP3    H2 9151  -0.070   4.884   2.423
 3070TIP3   OH2 9152   7.212   5.596   3.452
 3070TIP3    H1 9153   7.287   5.605   3.393
 3070TIP3    H2 9154   7.249   5.612   3.539
 3071TIP3   OH2 9155   4.431   0.444   2.236
 3071TIP3    H1 9156   4.438   0.486   2.150
 3071TIP3    H2 9157   4.362   0.378   2.225
 3072TIP3   OH2 9158   8.057   3.782   3.009
 3072TIP3    H1 9159   8.109   3.858   3.036
 3072TIP3    H2 9160   8.033   3.739   3.091
 3073TIP3   OH2 9161   7.845   2.289   1.647
 3073TIP3    H1 9162   7.801   2.373   1.642
 3073TIP3    H2 9163   7.903   2.296   1.722
 3074TIP3   OH2 9164   2.888   6.355   3.692
 3074TIP3    H1 9165   2.842   6.429   3.654
 3074TIP3    H2 9166   2.819   6.298   3.727
 3075TIP3   OH2 9167   0.601   2.825   6.307
 3075TIP3    H1 9168   0.678   2.819   6.363
 3075TIP3    H2 9169   0.528   2.835   6.368
 3076TIP3   OH2 9170   0.523   1.915   4.549
 3076TIP3    H1 9171   0.493   1.998   4.585
 3076TIP3    H2 9172   0.563   1.938   4.465
 3077TIP3   OH2 9173   2.235   6.660   4.661
 3077TIP3    H1 9174   2.221   6.567   4.641
 3077TIP3    H2 9175   2.231   6.663   4.757
 3078TIP3   OH2 9176   1.590   7.362   0.031
 3078TIP3    H1 9177   1.590   7.443   0.083
 3078TIP3    H2 9178   1.667   7.370  -0.026
 3079TIP3   OH2 9179   3.959   3.325   1.253
 3079TIP3    H1 9180   3.952   3.304   1.346
 3079TIP3    H2 9181   3.983   3.242   1.212
 3080TIP3   OH2 9182   6.384   5.974   5.195
 3080TIP3    H1 9183   6.318   5.979   5.126
 3080TIP3    H2 9184   6.353   5.906   5.254
 3081TIP3   OH2 9185   8.135   0.457   3.726
 3081TIP3    H1 9186   8.198   0.450   3.654
 3081TIP3    H2 9187   8.124   0.551   3.739
 3082TIP3   OH2 9188   5.473   0.345   2.824
 3082TIP3    H1 9189   5.392   0.323   2.870
 3082TIP3    H2 9190   5.524   0.263   2.825
 3083TIP3   OH2 9191   6.054   5.584   1.773
 3083TIP3    H1 9192   6.115   5.511   1.767
 3083TIP3    H2 9193   6.094   5.653   1.719
 3084TIP3   OH2 9194   2.050   5.884   1.731
 3084TIP3    H1 9195   2.021   5.793   1.741
 3084TIP3    H2 9196   2.007   5.913   1.650
 3085TIP3   OH2 9197   7.976   6.400   0.646
 3085TIP3    H1 9198   8.028   6.454   0.587
 3085TIP3    H2 9199   7.889   6.440   0.644
 3086TIP3   OH2 9200   6.319   2.653   2.803
 3086TIP3    H1 9201   6.282   2.679   2.719
 3086TIP3    H2 9202   6.249   2.605   2.847
 3087TIP3   OH2 9203   4.741   0.242   4.478
 3087TIP3    H1 9204   4.729   0.199   4.563
 3087TIP3    H2 9205   4.697   0.326   4.487
 3088TIP3   OH2 9206   5.534   4.482   0.139
 3088TIP3    H1 9207   5.572   4.497   0.226
 3088TIP3    H2 9208   5.577   4.403   0.107
 3089TIP3   OH2 9209   6.395   2.466   6.238
 3089TIP3    H1 9210   6.326   2.489   6.300
 3089TIP3    H2 9211   6.474   2.507   6.274
 3090TIP3   OH2 9212   7.946   1.970   1.404
 3090TIP3    H1 9213   8.032   2.011   1.413
 3090TIP3    H2 9214   7.951   1.922   1.321
 3091TIP3   OH2 9215   0.360   4.478   3.144
 3091TIP3    H1 9216   0.329   4.495   3.056
 3091TIP3    H2 9217   0.310   4.537   3.200
 3092TIP3   OH2 9218   0.823   6.038   5.618
 3092TIP3    H1 9219   0.757   6.035   5.688
 3092TIP3    H2 9220   0.801   5.964   5.562
 3093TIP3   OH2 9221   1.048   1.116   2.700
 3093TIP3    H1 9222   1.025   1.194   2.650
 3093TIP3    H2 9223   1.048   1.146   2.791
 3094TIP3   OH2 9224   0.725   2.323   3.890
 3094TIP3    H1 9225   0.634   2.303   3.912
 3094TIP3    H2 9226   0.744   2.269   3.813
 3095TIP3   OH2 9227   0.718   7.538   3.765
 3095TIP3    H1 9228   0.705   7.444   3.763
 3095TIP3    H2 9229   0.735   7.558   3.857
 3096TIP3   OH2 9230   6.310   6.454   5.606
 3096TIP3    H1 9231   6.358   6.451   5.690
 3096TIP3    H2 9232   6.328   6.370   5.565
 3097TIP3   OH2 9233   5.825   3.626   6.475
 3097TIP3    H1 9234   5.776   3.686   6.532
 3097TIP3    H2 9235   5.762   3.601   6.408
 3098TIP3   OH2 9236   4.652   4.182   0.516
 3098TIP3    H1 9237   4.579   4.150   0.569
 3098TIP3    H2 9238   4.665   4.272   0.544
 3099TIP3   OH2 9239   7.360   4.020   3.019
 3099TIP3    H1 9240   7.407   3.947   3.059
 3099TIP3    H2 9241   7.300   3.979   2.957
 3100TIP3   OH2 9242   7.797   6.183   4.436
 3100TIP3    H1 9243   7.774   6.259   4.383
 3100TIP3    H2 9244   7.860   6.216   4.499
 3101TIP3   OH2 9245   2.764   2.619   5.384
 3101TIP3    H1 9246   2.855   2.617   5.354
 3101TIP3    H2 9247   2.730   2.532   5.363
 3102TIP3   OH2 9248   6.236   3.798   6.628
 3102TIP3    H1 9249   6.159   3.794   6.572
 3102TIP3    H2 9250   6.261   3.707   6.642
 3103TIP3   OH2 9251   2.086   5.555   0.594
 3103TIP3    H1 9252   2.020   5.624   0.587
 3103TIP3    H2 9253   2.133   5.575   0.675
 3104TIP3   OH2 9254   3.242   4.467   5.753
 3104TIP3    H1 9255   3.337   4.456   5.744
 3104TIP3    H2 9256   3.231   4.556   5.787
 3105TIP3   OH2 9257   0.612   1.876   1.861
 3105TIP3    H1 9258   0.543   1.863   1.926
 3105TIP3    H2 9259   0.689   1.833   1.899
 3106TIP3   OH2 9260   1.830   1.688   5.982
 3106TIP3    H1 9261   1.847   1.779   6.008
 3106TIP3    H2 9262   1.814   1.692   5.888
 3107TIP3   OH2 9263   2.320   3.626   0.545
 3107TIP3    H1 9264   2.383   3.554   0.556
 3107TIP3    H2 9265   2.365   3.688   0.487
 3108TIP3   OH2 9266   1.335   6.866   4.523
 3108TIP3    H1 9267   1.276   6.906   4.587
 3108TIP3    H2 9268   1.351   6.778   4.558
 3109TIP3   OH2 9269   2.029   3.034   3.405
 3109TIP3    H1 9270   1.944   3.074   3.423
 3109TIP3    H2 9271   2.029   3.020   3.311
 3110TIP3   OH2 9272   4.606   6.096   6.164
 3110TIP3    H1 9273   4.517   6.062   6.163
 3110TIP3    H2 9274   4.629   6.105   6.071
 3111TIP3   OH2 9275   8.112   1.575   4.566
 3111TIP3    H1 9276   8.077   1.491   4.596
 3111TIP3    H2 9277   8.154   1.613   4.643
 3112TIP3   OH2 9278   5.565   5.008   3.511
 3112TIP3    H1 9279   5.512   4.928   3.516
 3112TIP3    H2 9280   5.641   4.990   3.565
 3113TIP3   OH2 9281   7.635   3.154   4.023
 3113TIP3    H1 9282   7.637   3.153   4.119
 3113TIP3    H2 9283   7.554   3.202   4.002
 3114TIP3   OH2 9284   8.222   6.148   5.000
 3114TIP3    H1 9285   8.281   6.223   5.011
 3114TIP3    H2 9286   8.269   6.088   4.943
 3115TIP3   OH2 9287   1.711   5.610   4.081
 3115TIP3    H1 9288   1.729   5.703   4.069
 3115TIP3    H2 9289   1.748   5.568   4.003
 3116TIP3   OH2 9290   5.355   1.067   2.413
 3116TIP3    H1 9291   5.286   1.036   2.473
 3116TIP3    H2 9292   5.395   1.140   2.460
 3117TIP3   OH2 9293   4.516   0.406   6.366
 3117TIP3    H1 9294   4.443   0.344   6.361
 3117TIP3    H2 9295   4.519   0.432   6.459
 3118TIP3   OH2 9296   2.313   2.200   4.646
 3118TIP3    H1 9297   2.336   2.293   4.636
 3118TIP3    H2 9298   2.363   2.156   4.577
 3119TIP3   OH2 9299   5.453   1.101   5.352
 3119TIP3    H1 9300   5.369   1.144   5.371
 3119TIP3    H2 9301   5.509   1.171   5.319
 3120TIP3   OH2 9302   0.293   5.735   3.273
 3120TIP3    H1 9303   0.245   5.652   3.280
 3120TIP3    H2 9304   0.382   5.709   3.250
 3121TIP3   OH2 9305   1.196   0.829   4.192
 3121TIP3    H1 9306   1.132   0.782   4.246
 3121TIP3    H2 9307   1.281   0.804   4.228
 3122TIP3   OH2 9308   8.129   6.129   5.281
 3122TIP3    H1 9309   8.164   6.154   5.195
 3122TIP3    H2 9310   8.199   6.077   5.321
 3123TIP3   OH2 9311   0.292   6.141   2.606
 3123TIP3    H1 9312   0.289   6.051   2.572
 3123TIP3    H2 9313   0.236   6.191   2.547
 3124TIP3   OH2 9314   3.783   2.547   1.466
 3124TIP3    H1 9315   3.795   2.628   1.415
 3124TIP3    H2 9316   3.781   2.576   1.557
 3125TIP3   OH2 9317   6.151   6.911   6.160
 3125TIP3    H1 9318   6.104   6.990   6.134
 3125TIP3    H2 9319   6.091   6.866   6.220
 3126TIP3   OH2 9320   5.490   2.257   1.860
 3126TIP3    H1 9321   5.504   2.171   1.899
 3126TIP3    H2 9322   5.572   2.276   1.814
 3127TIP3   OH2 9323   5.119   3.335   0.107
 3127TIP3    H1 9324   5.186   3.303   0.167
 3127TIP3    H2 9325   5.120   3.430   0.119
 3128TIP3   OH2 9326   1.431   2.869   2.637
 3128TIP3    H1 9327   1.507   2.894   2.690
 3128TIP3    H2 9328   1.382   2.951   2.624
 3129TIP3   OH2 9329   0.885   5.482   0.580
 3129TIP3    H1 9330   0.947   5.530   0.524
 3129TIP3    H2 9331   0.892   5.525   0.665
 3130TIP3   OH2 9332   4.075   7.232   3.827
 3130TIP3    H1 9333   4.063   7.140   3.850
 3130TIP3    H2 9334   4.126   7.230   3.746
 3131TIP3   OH2 9335   6.666   2.073   4.260
 3131TIP3    H1 9336   6.707   2.017   4.326
 3131TIP3    H2 9337   6.572   2.060   4.272
 3132TIP3   OH2 9338   2.209   1.460   3.975
 3132TIP3    H1 9339   2.192   1.549   4.005
 3132TIP3    H2 9340   2.179   1.460   3.883
 3133TIP3   OH2 9341   6.996   0.779   5.586
 3133TIP3    H1 9342   7.033   0.709   5.640
 3133TIP3    H2 9343   6.988   0.854   5.645
 3134TIP3   OH2 9344   0.522   5.982   4.843
 3134TIP3    H1 9345   0.577   5.919   4.889
 3134TIP3    H2 9346   0.465   6.018   4.911
 3135TIP3   OH2 9347   6.088   7.480   4.429
 3135TIP3    H1 9348   6.136   7.398   4.414
 3135TIP3    H2 9349   5.996   7.456   4.419
 3136TIP3   OH2 9350   4.245   3.997   2.013
 3136TIP3    H1 9351   4.248   3.921   2.071
 3136TIP3    H2 9352   4.156   4.031   2.023
 3137TIP3   OH2 9353   0.550   3.312   1.067
 3137TIP3    H1 9354   0.601   3.353   0.997
 3137TIP3    H2 9355   0.616   3.269   1.122
 3138TIP3   OH2 9356   5.249   7.024   6.168
 3138TIP3    H1 9357   5.233   6.988   6.081
 3138TIP3    H2 9358   5.196   6.969   6.226
 3139TIP3   OH2 9359   3.805   4.167   1.361
 3139TIP3    H1 9360   3.762   4.239   1.315
 3139TIP3    H2 9361   3.898   4.191   1.362
 3140TIP3   OH2 9362   2.433   4.114   2.623
 3140TIP3    H1 9363   2.512   4.070   2.655
 3140TIP3    H2 9364   2.453   4.207   2.629
 3141TIP3   OH2 9365   0.741   0.742   3.310
 3141TIP3    H1 9366   0.827   0.726   3.273
 3141TIP3    H2 9367   0.725   0.668   3.369
 3142TIP3   OH2 9368   5.453   4.464   0.777
 3142TIP3    H1 9369   5.518   4.502   0.835
 3142TIP3    H2 9370   5.426   4.536   0.720
 3143TIP3   OH2 9371   6.657   4.311   2.174
 3143TIP3    H1 9372   6.710   4.380   2.135
 3143TIP3    H2 9373   6.619   4.351   2.252
 3144TIP3   OH2 9374   5.024   5.584   5.951
 3144TIP3    H1 9375   4.958   5.516   5.945
 3144TIP3    H2 9376   5.108   5.537   5.945
 3145TIP3   OH2 9377   5.322   7.343   4.585
 3145TIP3    H1 9378   5.321   7.422   4.530
 3145TIP3    H2 9379   5.240   7.298   4.564
 3146TIP3   OH2 9380   3.444   4.895   4.036
 3146TIP3    H1 9381   3.349   4.889   4.041
 3146TIP3    H2 9382   3.466   4.971   4.089
 3147TIP3   OH2 9383   4.191   0.898   6.375
 3147TIP3    H1 9384   4.157   0.975   6.329
 3147TIP3    H2 9385   4.251   0.857   6.313
 3148TIP3   OH2 9386   7.369   0.775   2.987
 3148TIP3    H1 9387   7.461   0.793   3.004
 3148TIP3    H2 9388   7.358   0.794   2.894
 3149TIP3   OH2 9389   7.791   1.669   6.315
 3149TIP3    H1 9390   7.718   1.619   6.353
 3149TIP3    H2 9391   7.754   1.755   6.298
 3150TIP3   OH2 9392   1.159   1.827   5.547
 3150TIP3    H1 9393   1.238   1.815   5.495
 3150TIP3    H2 9394   1.135   1.739   5.575
 3151TIP3   OH2 9395   1.507   2.521   1.251
 3151TIP3    H1 9396   1.504   2.535   1.346
 3151TIP3    H2 9397   1.578   2.578   1.221
 3152TIP3   OH2 9398   7.879   0.469   0.462
 3152TIP3    H1 9399   7.820   0.462   0.387
 3152TIP3    H2 9400   7.901   0.562   0.467
 3153TIP3   OH2 9401   7.193   6.644   6.063
 3153TIP3    H1 9402   7.265   6.705   6.077
 3153TIP3    H2 9403   7.135   6.658   6.138
 3154TIP3   OH2 9404   5.341   1.641   5.162
 3154TIP3    H1 9405   5.413   1.578   5.164
 3154TIP3    H2 9406   5.366   1.703   5.093
 3155TIP3   OH2 9407   7.333   1.840   6.423
 3155TIP3    H1 9408   7.377   1.840   6.508
 3155TIP3    H2 9409   7.295   1.753   6.416
 3156TIP3   OH2 9410   5.238   3.158   0.570
 3156TIP3    H1 9411   5.302   3.226   0.551
 3156TIP3    H2 9412   5.252   3.135   0.662
 3157TIP3   OH2 9413   1.570   5.035   6.375
 3157TIP3    H1 9414   1.563   4.954   6.324
 3157TIP3    H2 9415   1.602   5.100   6.312
 3158TIP3   OH2 9416   3.160   4.259   0.474
 3158TIP3    H1 9417   3.230   4.204   0.439
 3158TIP3    H2 9418   3.203   4.340   0.500
 3159TIP3   OH2 9419   5.664   6.743   4.185
 3159TIP3    H1 9420   5.579   6.776   4.157
 3159TIP3    H2 9421   5.693   6.688   4.112
 3160TIP3   OH2 9422   1.275   0.924   6.404
 3160TIP3    H1 9423   1.272   0.846   6.349
 3160TIP3    H2 9424   1.205   0.980   6.370
 3161TIP3   OH2 9425   7.957   4.213   1.977
 3161TIP3    H1 9426   7.925   4.132   2.018
 3161TIP3    H2 9427   7.987   4.186   1.890
 3162TIP3   OH2 9428   4.984   3.080   1.426
 3162TIP3    H1 9429   4.927   3.141   1.379
 3162TIP3    H2 9430   5.056   3.134   1.458
 3163TIP3   OH2 9431   2.453   1.864   6.424
 3163TIP3    H1 9432   2.521   1.927   6.448
 3163TIP3    H2 9433   2.389   1.915   6.375
 3164TIP3   OH2 9434   4.468   4.727   5.156
 3164TIP3    H1 9435   4.433   4.764   5.237
 3164TIP3    H2 9436   4.562   4.741   5.162
 3165TIP3   OH2 9437   4.685   0.513   1.334
 3165TIP3    H1 9438   4.765   0.488   1.287
 3165TIP3    H2 9439   4.716   0.561   1.410
 3166TIP3   OH2 9440   4.572   1.906   5.925
 3166TIP3    H1 9441   4.489   1.955   5.933
 3166TIP3    H2 9442   4.574   1.876   5.834
 3167TIP3   OH2 9443   4.622   4.650   5.747
 3167TIP3    H1 9444   4.669   4.699   5.679
 3167TIP3    H2 9445   4.581   4.717   5.801
 3168TIP3   OH2 9446   7.764   1.405   1.816
 3168TIP3    H1 9447   7.785   1.491   1.780
 3168TIP3    H2 9448   7.776   1.344   1.744
 3169TIP3   OH2 9449   6.351   4.066   6.040
 3169TIP3    H1 9450   6.286   4.040   5.975
 3169TIP3    H2 9451   6.316   4.033   6.123
 3170TIP3   OH2 9452   6.076   3.796   5.645
 3170TIP3    H1 9453   6.100   3.755   5.728
 3170TIP3    H2 9454   6.140   3.866   5.633
 3171TIP3   OH2 9455   4.359   5.675   5.678
 3171TIP3    H1 9456   4.431   5.646   5.621
 3171TIP3    H2 9457   4.285   5.687   5.619
 3172TIP3   OH2 9458   1.288   6.773   1.634
 3172TIP3    H1 9459   1.333   6.712   1.692
 3172TIP3    H2 9460   1.296   6.858   1.676
 3173TIP3   OH2 9461   1.056   4.760   1.369
 3173TIP3    H1 9462   1.042   4.681   1.420
 3173TIP3    H2 9463   0.968   4.785   1.341
 3174TIP3   OH2 9464   4.607   3.839   0.324
 3174TIP3    H1 9465   4.523   3.859   0.283
 3174TIP3    H2 9466   4.672   3.860   0.257
 3175TIP3   OH2 9467   0.629   1.539   0.638
 3175TIP3    H1 9468   0.552   1.579   0.677
 3175TIP3    H2 9469   0.646   1.590   0.559
 3176TIP3   OH2 9470   7.081   2.902   2.276
 3176TIP3    H1 9471   7.126   2.847   2.340
 3176TIP3    H2 9472   7.111   2.991   2.296
 3177TIP3   OH2 9473   3.266   2.286   2.579
 3177TIP3    H1 9474   3.222   2.207   2.609
 3177TIP3    H2 9475   3.347   2.290   2.630
 3178TIP3   OH2 9476   2.200   6.631   5.913
 3178TIP3    H1 9477   2.259   6.620   5.838
 3178TIP3    H2 9478   2.168   6.543   5.931
 3179TIP3   OH2 9479   6.886   7.152   3.928
 3179TIP3    H1 9480   6.824   7.215   3.965
 3179TIP3    H2 9481   6.941   7.127   4.002
 3180TIP3   OH2 9482   4.891   0.602   3.460
 3180TIP3    H1 9483   4.945   0.638   3.530
 3180TIP3    H2 9484   4.877   0.675   3.400
 3181TIP3   OH2 9485   5.303   1.953   5.486
 3181TIP3    H1 9486   5.244   1.878   5.495
 3181TIP3    H2 9487   5.389   1.915   5.472
 3182TIP3   OH2 9488   7.635   2.676   1.042
 3182TIP3    H1 9489   7.628   2.742   1.110
 3182TIP3    H2 9490   7.561   2.617   1.058
 3183TIP3   OH2 9491   1.868   7.539   2.247
 3183TIP3    H1 9492   1.957   7.566   2.222
 3183TIP3    H2 9493   1.841   7.478   2.178
 3184TIP3   OH2 9494   2.308   6.560   2.498
 3184TIP3    H1 9495   2.298   6.623   2.426
 3184TIP3    H2 9496   2.319   6.476   2.454
 3185TIP3   OH2 9497   5.973   5.083   3.317
 3185TIP3    H1 9498   5.928   5.066   3.234
 3185TIP3    H2 9499   5.947   5.010   3.374
 3186TIP3   OH2 9500   4.636   2.177   0.866
 3186TIP3    H1 9501   4.677   2.223   0.793
 3186TIP3    H2 9502   4.618   2.246   0.930
 3187TIP3   OH2 9503   4.593   6.737   0.383
 3187TIP3    H1 9504   4.529   6.807   0.389
 3187TIP3    H2 9505   4.671   6.777   0.344
 3188TIP3   OH2 9506   4.363   3.519   4.121
 3188TIP3    H1 9507   4.379   3.457   4.050
 3188TIP3    H2 9508   4.446   3.564   4.134
 3189TIP3   OH2 9509   1.197   4.337   6.245
 3189TIP3    H1 9510   1.281   4.355   6.203
 3189TIP3    H2 9511   1.137   4.322   6.173
 3190TIP3   OH2 9512   6.327   7.375   6.110
 3190TIP3    H1 9513   6.304   7.291   6.069
 3190TIP3    H2 9514   6.258   7.388   6.176
 3191TIP3   OH2 9515   3.336   6.032   6.423
 3191TIP3    H1 9516   3.364   6.094   6.356
 3191TIP3    H2 9517   3.360   6.073   6.506
 3192TIP3   OH2 9518   6.311   2.179   4.812
 3192TIP3    H1 9519   6.291   2.243   4.881
 3192TIP3    H2 9520   6.287   2.094   4.851
 3193TIP3   OH2 9521   3.716   2.691   2.091
 3193TIP3    H1 9522   3.794   2.744   2.107
 3193TIP3    H2 9523   3.745   2.601   2.104
 3194TIP3   OH2 9524   3.579   3.645   4.115
 3194TIP3    H1 9525   3.523   3.690   4.051
 3194TIP3    H2 9526   3.553   3.680   4.200
 3195TIP3   OH2 9527   7.154   7.054   0.634
 3195TIP3    H1 9528   7.059   7.062   0.640
 3195TIP3    H2 9529   7.180   7.119   0.568
 3196TIP3   OH2 9530   0.289   5.646   2.026
 3196TIP3    H1 9531   0.273   5.732   2.063
 3196TIP3    H2 9532   0.234   5.587   2.077
 3197TIP3   OH2 9533   6.016   5.106   4.130
 3197TIP3    H1 9534   5.994   5.198   4.145
 3197TIP3    H2 9535   6.082   5.086   4.197
 3198TIP3   OH2 9536   2.163   6.255   5.148
 3198TIP3    H1 9537   2.214   6.236   5.227
 3198TIP3    H2 9538   2.210   6.328   5.107
 3199TIP3   OH2 9539   6.009   3.566   5.155
 3199TIP3    H1 9540   6.013   3.472   5.167
 3199TIP3    H2 9541   6.019   3.602   5.243
 3200TIP3   OH2 9542  -0.022   4.475   1.519
 3200TIP3    H1 9543  -0.012   4.388   1.557
 3200TIP3    H2 9544   0.044   4.528   1.564
 3201TIP3   OH2 9545   3.170   1.462   6.368
 3201TIP3    H1 9546   3.166   1.524   6.441
 3201TIP3    H2 9547   3.081   1.428   6.360
 3202TIP3   OH2 9548   6.418   6.070   6.268
 3202TIP3    H1 9549   6.338   6.095   6.221
 3202TIP3    H2 9550   6.418   6.126   6.346
 3203TIP3   OH2 9551   4.740   6.008   6.540
 3203TIP3    H1 9552   4.781   5.937   6.590
 3203TIP3    H2 9553   4.785   6.087   6.570
 3204TIP3   OH2 9554   6.477   5.180   1.819
 3204TIP3    H1 9555   6.544   5.219   1.763
 3204TIP3    H2 9556   6.419   5.134   1.757
 3205TIP3   OH2 9557   6.302   2.373   5.228
 3205TIP3    H1 9558   6.238   2.348   5.162
 3205TIP3    H2 9559   6.312   2.468   5.217
 3206TIP3   OH2 9560   0.273   3.620   0.043
 3206TIP3    H1 9561   0.211   3.682   0.082
 3206TIP3    H2 9562   0.358   3.663   0.052
 3207TIP3   OH2 9563   8.136   6.636   1.147
 3207TIP3    H1 9564   8.172   6.547   1.137
 3207TIP3    H2 9565   8.042   6.622   1.159
 3208TIP3   OH2 9566   2.760   1.587   3.818
 3208TIP3    H1 9567   2.792   1.631   3.897
 3208TIP3    H2 9568   2.666   1.601   3.819
 3209TIP3   OH2 9569   2.542   6.225   6.727
 3209TIP3    H1 9570   2.501   6.300   6.770
 3209TIP3    H2 9571   2.489   6.150   6.754
 3210TIP3   OH2 9572   1.994   3.116   6.298
 3210TIP3    H1 9573   2.046   3.196   6.293
 3210TIP3    H2 9574   2.040   3.054   6.243
 3211TIP3   OH2 9575   5.221   4.686   6.082
 3211TIP3    H1 9576   5.145   4.738   6.108
 3211TIP3    H2 9577   5.275   4.682   6.161
 3212TIP3   OH2 9578   0.446   2.104   1.472
 3212TIP3    H1 9579   0.417   2.146   1.553
 3212TIP3    H2 9580   0.465   2.176   1.413
 3213TIP3   OH2 9581   7.265   2.123   6.377
 3213TIP3    H1 9582   7.270   2.029   6.395
 3213TIP3    H2 9583   7.349   2.157   6.409
 3214TIP3   OH2 9584   2.455   0.604   2.075
 3214TIP3    H1 9585   2.479   0.694   2.096
 3214TIP3    H2 9586   2.533   0.568   2.032
 3215TIP3   OH2 9587   3.443   1.036   0.518
 3215TIP3    H1 9588   3.444   1.016   0.424
 3215TIP3    H2 9589   3.534   1.021   0.546
 3216TIP3   OH2 9590   2.093   5.797   4.907
 3216TIP3    H1 9591   2.151   5.818   4.980
 3216TIP3    H2 9592   2.083   5.702   4.912
 3217TIP3   OH2 9593   8.213   2.105   0.463
 3217TIP3    H1 9594   8.294   2.137   0.424
 3217TIP3    H2 9595   8.242   2.063   0.545
 3218TIP3   OH2 9596   6.316   4.067   0.173
 3218TIP3    H1 9597   6.290   4.138   0.232
 3218TIP3    H2 9598   6.412   4.072   0.172
 3219TIP3   OH2 9599   1.363   4.548   1.109
 3219TIP3    H1 9600   1.306   4.492   1.162
 3219TIP3    H2 9601   1.446   4.552   1.158
 3220TIP3   OH2 9602   4.625   2.424   1.759
 3220TIP3    H1 9603   4.627   2.407   1.853
 3220TIP3    H2 9604   4.570   2.354   1.723
 3221TIP3   OH2 9605   1.650   2.740   2.494
 3221TIP3    H1 9606   1.687   2.663   2.538
 3221TIP3    H2 9607   1.563   2.750   2.533
 3222TIP3   OH2 9608   4.766   0.391   0.654
 3222TIP3    H1 9609   4.759   0.425   0.743
 3222TIP3    H2 9610   4.676   0.376   0.627
 3223TIP3   OH2 9611   6.720   3.539   4.150
 3223TIP3    H1 9612   6.700   3.567   4.061
 3223TIP3    H2 9613   6.643   3.489   4.178
 3224TIP3   OH2 9614   6.853   7.601   4.348
 3224TIP3    H1 9615   6.846   7.514   4.388
 3224TIP3    H2 9616   6.794   7.656   4.400
 3225TIP3   OH2 9617   7.114   4.698   3.001
 3225TIP3    H1 9618   7.169   4.777   3.007
 3225TIP3    H2 9619   7.066   4.697   3.084
 3226TIP3   OH2 9620   1.719   7.435   1.554
 3226TIP3    H1 9621   1.750   7.382   1.628
 3226TIP3    H2 9622   1.624   7.432   1.561
 3227TIP3   OH2 9623   8.173   6.756   2.796
 3227TIP3    H1 9624   8.259   6.719   2.778
 3227TIP3    H2 9625   8.150   6.724   2.883
 3228TIP3   OH2 9626   7.750   2.165   1.340
 3228TIP3    H1 9627   7.782   2.211   1.263
 3228TIP3    H2 9628   7.819   2.102   1.361
 3229TIP3   OH2 9629   1.972   7.069   2.253
 3229TIP3    H1 9630   1.877   7.074   2.239
 3229TIP3    H2 9631   2.010   7.104   2.173
 3230TIP3   OH2 9632   4.268   0.133   3.148
 3230TIP3    H1 9633   4.259   0.172   3.235
 3230TIP3    H2 9634   4.192   0.076   3.139
 3231TIP3   OH2 9635   5.996   1.986   2.389
 3231TIP3    H1 9636   6.041   1.908   2.358
 3231TIP3    H2 9637   6.044   2.059   2.351
 3232TIP3   OH2 9638   1.968   5.205   4.892
 3232TIP3    H1 9639   2.017   5.218   4.974
 3232TIP3    H2 9640   1.952   5.110   4.889
 3233TIP3   OH2 9641   6.530   3.797   5.124
 3233TIP3    H1 9642   6.461   3.839   5.072
 3233TIP3    H2 9643   6.606   3.854   5.115
 3234TIP3   OH2 9644   4.937   3.899   6.681
 3234TIP3    H1 9645   4.873   3.970   6.684
 3234TIP3    H2 9646   4.892   3.825   6.723
 3235TIP3   OH2 9647   4.854   3.211   3.999
 3235TIP3    H1 9648   4.937   3.228   3.955
 3235TIP3    H2 9649   4.875   3.149   4.069
 3236TIP3   OH2 9650   1.999   6.414   4.199
 3236TIP3    H1 9651   2.032   6.480   4.139
 3236TIP3    H2 9652   1.953   6.463   4.267
 3237TIP3   OH2 9653   6.325   6.824   5.662
 3237TIP3    H1 9654   6.411   6.789   5.683
 3237TIP3    H2 9655   6.272   6.809   5.740
 3238TIP3   OH2 9656   2.021   5.433   1.755
 3238TIP3    H1 9657   1.984   5.478   1.832
 3238TIP3    H2 9658   2.060   5.502   1.703
 3239TIP3   OH2 9659   6.926   7.021   2.998
 3239TIP3    H1 9660   7.005   6.980   3.033
 3239TIP3    H2 9661   6.947   7.040   2.907
 3240TIP3   OH2 9662   5.265   6.098   6.615
 3240TIP3    H1 9663   5.314   6.102   6.698
 3240TIP3    H2 9664   5.326   6.060   6.553
 3241TIP3   OH2 9665   1.910   6.714   2.299
 3241TIP3    H1 9666   1.905   6.743   2.391
 3241TIP3    H2 9667   1.993   6.750   2.268
 3242TIP3   OH2 9668   1.046   2.464   3.381
 3242TIP3    H1 9669   1.050   2.504   3.468
 3242TIP3    H2 9670   1.036   2.539   3.322
 3243TIP3   OH2 9671   7.738   7.230   3.809
 3243TIP3    H1 9672   7.668   7.167   3.793
 3243TIP3    H2 9673   7.805   7.180   3.856
 3244TIP3   OH2 9674   6.337   2.638   5.114
 3244TIP3    H1 9675   6.385   2.717   5.089
 3244TIP3    H2 9676   6.284   2.617   5.037
 3245TIP3   OH2 9677   0.697   1.597   6.788
 3245TIP3    H1 9678   0.634   1.603   6.716
 3245TIP3    H2 9679   0.753   1.523   6.764
 3246TIP3   OH2 9680   2.872   7.686   2.550
 3246TIP3    H1 9681   2.956   7.674   2.592
 3246TIP3    H2 9682   2.810   7.699   2.622
 3247TIP3   OH2 9683   1.999   7.247   4.991
 3247TIP3    H1 9684   2.042   7.331   4.976
 3247TIP3    H2 9685   1.923   7.249   4.933
 3248TIP3   OH2 9686   7.674   6.801   5.760
 3248TIP3    H1 9687   7.633   6.741   5.822
 3248TIP3    H2 9688   7.600   6.844   5.717
 3249TIP3   OH2 9689   4.505   5.410   5.703
 3249TIP3    H1 9690   4.410   5.412   5.691
 3249TIP3    H2 9691   4.537   5.357   5.629
 3250TIP3   OH2 9692   2.364   7.186   4.723
 3250TIP3    H1 9693   2.323   7.104   4.695
 3250TIP3    H2 9694   2.454   7.161   4.746
 3251TIP3   OH2 9695   4.051   6.256   0.601
 3251TIP3    H1 9696   4.108   6.291   0.533
 3251TIP3    H2 9697   4.092   6.283   0.683
 3252TIP3   OH2 9698   2.361   2.168   4.950
 3252TIP3    H1 9699   2.435   2.115   4.979
 3252TIP3    H2 9700   2.358   2.154   4.855
 3253TIP3   OH2 9701   3.310   2.834   3.432
 3253TIP3    H1 9702   3.389   2.842   3.378
 3253TIP3    H2 9703   3.330   2.764   3.495
 3254TIP3   OH2 9704   3.551   3.906   0.604
 3254TIP3    H1 9705   3.481   3.865   0.654
 3254TIP3    H2 9706   3.513   3.923   0.518
 3255TIP3   OH2 9707   5.205   7.667   3.056
 3255TIP3    H1 9708   5.268   7.595   3.055
 3255TIP3    H2 9709   5.126   7.630   3.016
 3256TIP3   OH2 9710   6.172   4.325   4.167
 3256TIP3    H1 9711   6.231   4.380   4.115
 3256TIP3    H2 9712   6.084   4.352   4.141
 3257TIP3   OH2 9713   6.139   2.113   5.929
 3257TIP3    H1 9714   6.086   2.163   5.991
 3257TIP3    H2 9715   6.195   2.058   5.984
 3258TIP3   OH2 9716   0.592   4.040   2.874
 3258TIP3    H1 9717   0.583   4.051   2.779
 3258TIP3    H2 9718   0.686   4.043   2.890
 3259TIP3   OH2 9719   2.455   2.273   3.000
 3259TIP3    H1 9720   2.362   2.260   3.018
 3259TIP3    H2 9721   2.495   2.188   3.018
 3260TIP3   OH2 9722   4.197   6.619   2.496
 3260TIP3    H1 9723   4.202   6.549   2.560
 3260TIP3    H2 9724   4.111   6.608   2.455
 3261TIP3   OH2 9725   4.297   2.056   6.270
 3261TIP3    H1 9726   4.362   2.111   6.314
 3261TIP3    H2 9727   4.295   1.976   6.321
 3262TIP3   OH2 9728   0.938   3.139   5.278
 3262TIP3    H1 9729   0.903   3.094   5.202
 3262TIP3    H2 9730   0.959   3.227   5.247
 3263TIP3   OH2 9731   0.911   5.367   2.294
 3263TIP3    H1 9732   0.980   5.313   2.333
 3263TIP3    H2 9733   0.853   5.389   2.367
 3264TIP3   OH2 9734   7.525   7.526   4.426
 3264TIP3    H1 9735   7.440   7.537   4.383
 3264TIP3    H2 9736   7.566   7.613   4.421
 3265TIP3   OH2 9737   0.821   1.973  -0.027
 3265TIP3    H1 9738   0.773   2.054  -0.048
 3265TIP3    H2 9739   0.838   1.979   0.067
 3266TIP3   OH2 9740   4.153   2.909   6.093
 3266TIP3    H1 9741   4.131   2.881   6.182
 3266TIP3    H2 9742   4.118   2.841   6.037
 3267TIP3   OH2 9743   6.178   3.185   6.742
 3267TIP3    H1 9744   6.119   3.164   6.669
 3267TIP3    H2 9745   6.131   3.154   6.819
 3268TIP3   OH2 9746   4.692   4.765   2.915
 3268TIP3    H1 9747   4.708   4.826   2.987
 3268TIP3    H2 9748   4.624   4.706   2.949
 3269TIP3   OH2 9749   5.850   0.806   3.296
 3269TIP3    H1 9750   5.776   0.855   3.261
 3269TIP3    H2 9751   5.823   0.714   3.292
 3270TIP3   OH2 9752   0.800   1.806   4.551
 3270TIP3    H1 9753   0.756   1.732   4.510
 3270TIP3    H2 9754   0.745   1.827   4.627
 3271TIP3   OH2 9755   5.571   3.160   2.034
 3271TIP3    H1 9756   5.554   3.166   2.128
 3271TIP3    H2 9757   5.667   3.154   2.028
 3272TIP3   OH2 9758   7.153   7.286   2.941
 3272TIP3    H1 9759   7.066   7.255   2.965
 3272TIP3    H2 9760   7.210   7.211   2.957
 3273TIP3   OH2 9761   5.585   4.911   3.175
 3273TIP3    H1 9762   5.512   4.857   3.207
 3273TIP3    H2 9763   5.561   5.000   3.200
 3274TIP3   OH2 9764   7.311   5.758   4.898
 3274TIP3    H1 9765   7.371   5.684   4.900
 3274TIP3    H2 9766   7.367   5.835   4.887
 3275TIP3   OH2 9767   0.966   1.801   6.261
 3275TIP3    H1 9768   0.877   1.803   6.296
 3275TIP3    H2 9769   1.004   1.720   6.296
 3276TIP3   OH2 9770   8.111   0.611   2.736
 3276TIP3    H1 9771   8.085   0.584   2.648
 3276TIP3    H2 9772   8.207   0.602   2.737
 3277TIP3   OH2 9773   1.150   2.346   3.142
 3277TIP3    H1 9774   1.109   2.356   3.228
 3277TIP3    H2 9775   1.081   2.310   3.086
 3278TIP3   OH2 9776   4.965   0.969   3.875
 3278TIP3    H1 9777   4.928   1.052   3.906
 3278TIP3    H2 9778   4.930   0.959   3.786
 3279TIP3   OH2 9779   7.397   0.391   3.060
 3279TIP3    H1 9780   7.356   0.474   3.082
 3279TIP3    H2 9781   7.394   0.340   3.142
 3280TIP3   OH2 9782   7.290   4.373   2.040
 3280TIP3    H1 9783   7.233   4.431   2.089
 3280TIP3    H2 9784   7.360   4.350   2.102
 3281TIP3   OH2 9785   4.354   6.253   6.233
 3281TIP3    H1 9786   4.317   6.192   6.170
 3281TIP3    H2 9787   4.399   6.197   6.297
 3282TIP3   OH2 9788   2.914   2.474   4.464
 3282TIP3    H1 9789   2.837   2.420   4.447
 3282TIP3    H2 9790   2.878   2.560   4.487
 3283TIP3   OH2 9791   8.146   7.323   4.049
 3283TIP3    H1 9792   8.115   7.287   4.132
 3283TIP3    H2 9793   8.239   7.297   4.046
 3284TIP3   OH2 9794   1.683   4.179   5.594
 3284TIP3    H1 9795   1.610   4.214   5.544
 3284TIP3    H2 9796   1.732   4.125   5.531
 3285TIP3   OH2 9797   1.688   6.411   5.678
 3285TIP3    H1 9798   1.594   6.410   5.699
 3285TIP3    H2 9799   1.728   6.359   5.748
 3286TIP3   OH2 9800   4.661   7.473   5.802
 3286TIP3    H1 9801   4.713   7.529   5.744
 3286TIP3    H2 9802   4.695   7.385   5.787
 3287TIP3   OH2 9803   1.201   2.882   3.988
 3287TIP3    H1 9804   1.133   2.947   3.969
 3287TIP3    H2 9805   1.152   2.803   4.015
 3288TIP3   OH2 9806   7.996   0.685   5.932
 3288TIP3    H1 9807   7.982   0.669   6.025
 3288TIP3    H2 9808   8.085   0.721   5.927
 3289TIP3   OH2 9809   6.846   4.738   0.184
 3289TIP3    H1 9810   6.786   4.688   0.239
 3289TIP3    H2 9811   6.807   4.825   0.179
 3290TIP3   OH2 9812   4.737   2.055   6.073
 3290TIP3    H1 9813   4.695   2.141   6.074
 3290TIP3    H2 9814   4.685   2.004   6.011
 3291TIP3   OH2 9815   0.337   1.713   4.543
 3291TIP3    H1 9816   0.411   1.773   4.554
 3291TIP3    H2 9817   0.276   1.739   4.611
 3292TIP3   OH2 9818   6.595   2.305   4.899
 3292TIP3    H1 9819   6.534   2.310   4.825
 3292TIP3    H2 9820   6.561   2.233   4.953
 3293TIP3   OH2 9821   3.454   1.619   6.215
 3293TIP3    H1 9822   3.402   1.669   6.280
 3293TIP3    H2 9823   3.493   1.548   6.266
 3294TIP3   OH2 9824   6.748   6.189   4.332
 3294TIP3    H1 9825   6.740   6.159   4.422
 3294TIP3    H2 9826   6.672   6.245   4.318
 3295TIP3   OH2 9827   2.330   5.923   4.356
 3295TIP3    H1 9828   2.237   5.905   4.364
 3295TIP3    H2 9829   2.355   5.886   4.272
 3296TIP3   OH2 9830   6.245   1.391   4.688
 3296TIP3    H1 9831   6.322   1.406   4.633
 3296TIP3    H2 9832   6.274   1.325   4.751
 3297TIP3   OH2 9833   5.888   2.629   4.856
 3297TIP3    H1 9834   5.881   2.724   4.846
 3297TIP3    H2 9835   5.926   2.600   4.773
 3298TIP3   OH2 9836   8.107   1.501   1.685
 3298TIP3    H1 9837   8.061   1.419   1.666
 3298TIP3    H2 9838   8.192   1.474   1.718
 3299TIP3   OH2 9839   4.808   3.683   3.389
 3299TIP3    H1 9840   4.774   3.616   3.449
 3299TIP3    H2 9841   4.900   3.659   3.377
 3300TIP3   OH2 9842   5.423   2.040   6.637
 3300TIP3    H1 9843   5.356   2.091   6.683
 3300TIP3    H2 9844   5.503   2.055   6.687
 3301TIP3   OH2 9845   4.283   1.420   4.435
 3301TIP3    H1 9846   4.345   1.380   4.496
 3301TIP3    H2 9847   4.199   1.415   4.479
 3302TIP3   OH2 9848   8.270   5.062   2.888
 3302TIP3    H1 9849   8.223   5.144   2.905
 3302TIP3    H2 9850   8.204   4.994   2.903
 3303TIP3   OH2 9851   2.697   4.881   0.912
 3303TIP3    H1 9852   2.657   4.934   0.843
 3303TIP3    H2 9853   2.663   4.917   0.994
 3304TIP3   OH2 9854   6.102   6.707   0.409
 3304TIP3    H1 9855   6.051   6.652   0.349
 3304TIP3    H2 9856   6.146   6.770   0.352
 3305TIP3   OH2 9857   5.071   7.795   4.394
 3305TIP3    H1 9858   5.058   7.881   4.435
 3305TIP3    H2 9859   4.983   7.759   4.387
 3306TIP3   OH2 9860   1.629   6.605   0.116
 3306TIP3    H1 9861   1.571   6.540   0.076
 3306TIP3    H2 9862   1.615   6.595   0.211
 3307TIP3   OH2 9863   1.998   5.911   2.707
 3307TIP3    H1 9864   1.987   5.916   2.802
 3307TIP3    H2 9865   2.010   5.817   2.690
 3308TIP3   OH2 9866   7.865   0.418   3.101
 3308TIP3    H1 9867   7.864   0.332   3.059
 3308TIP3    H2 9868   7.879   0.400   3.194
 3309TIP3   OH2 9869   7.286   1.988   2.363
 3309TIP3    H1 9870   7.322   1.993   2.451
 3309TIP3    H2 9871   7.199   1.950   2.374
 3310TIP3   OH2 9872   7.023   1.962   6.126
 3310TIP3    H1 9873   6.943   1.930   6.084
 3310TIP3    H2 9874   7.086   1.891   6.113
 3311TIP3   OH2 9875   5.874   1.135   2.150
 3311TIP3    H1 9876   5.814   1.204   2.180
 3311TIP3    H2 9877   5.908   1.167   2.067
 3312TIP3   OH2 9878   6.081   3.885   4.483
 3312TIP3    H1 9879   6.131   3.859   4.405
 3312TIP3    H2 9880   5.995   3.910   4.449
 3313TIP3   OH2 9881   7.469   2.381   3.817
 3313TIP3    H1 9882   7.385   2.372   3.772
 3313TIP3    H2 9883   7.507   2.461   3.782
 3314TIP3   OH2 9884   3.259   2.669   2.895
 3314TIP3    H1 9885   3.252   2.758   2.859
 3314TIP3    H2 9886   3.265   2.613   2.818
 3315TIP3   OH2 9887   7.454   7.725   3.214
 3315TIP3    H1 9888   7.459   7.658   3.145
 3315TIP3    H2 9889   7.466   7.676   3.295
 3316TIP3   OH2 9890   2.399   0.218   3.708
 3316TIP3    H1 9891   2.476   0.195   3.656
 3316TIP3    H2 9892   2.360   0.133   3.732
 3317TIP3   OH2 9893   4.081   0.003   1.277
 3317TIP3    H1 9894   4.057   0.092   1.300
 3317TIP3    H2 9895   4.141  -0.025   1.346
 3318TIP3   OH2 9896   4.150   2.046   2.023
 3318TIP3    H1 9897   4.089   2.114   1.995
 3318TIP3    H2 9898   4.098   1.966   2.027
 3319TIP3   OH2 9899   7.452   6.459   2.037
 3319TIP3    H1 9900   7.463   6.368   2.009
 3319TIP3    H2 9901   7.367   6.460   2.082
 3320TIP3   OH2 9902   2.565   6.839   5.525
 3320TIP3    H1 9903   2.599   6.751   5.504
 3320TIP3    H2 9904   2.633   6.899   5.494
 3321TIP3   OH2 9905   2.867   7.174   1.561
 3321TIP3    H1 9906   2.838   7.161   1.471
 3321TIP3    H2 9907   2.839   7.263   1.583
 3322TIP3   OH2 9908   2.278   0.702   1.427
 3322TIP3    H1 9909   2.208   0.744   1.377
 3322TIP3    H2 9910   2.283   0.751   1.509
 3323TIP3   OH2 9911   3.575   1.979   6.524
 3323TIP3    H1 9912   3.661   1.947   6.497
 3323TIP3    H2 9913   3.556   2.051   6.464
 3324TIP3   OH2 9914   4.239   7.696   0.916
 3324TIP3    H1 9915   4.313   7.684   0.856
 3324TIP3    H2 9916   4.162   7.675   0.862
 3325TIP3   OH2 9917   0.236   1.669   1.218
 3325TIP3    H1 9918   0.282   1.750   1.242
 3325TIP3    H2 9919   0.273   1.603   1.276
 3326TIP3   OH2 9920   1.806   7.109   5.762
 3326TIP3    H1 9921   1.770   7.152   5.684
 3326TIP3    H2 9922   1.886   7.067   5.731
 3327TIP3   OH2 9923   4.672   1.153   6.123
 3327TIP3    H1 9924   4.754   1.201   6.133
 3327TIP3    H2 9925   4.657   1.113   6.209
 3328TIP3   OH2 9926   3.550   0.933   5.396
 3328TIP3    H1 9927   3.549   0.988   5.318
 3328TIP3    H2 9928   3.638   0.943   5.432
 3329TIP3   OH2 9929   0.760   1.718   3.780
 3329TIP3    H1 9930   0.761   1.813   3.771
 3329TIP3    H2 9931   0.786   1.703   3.871
 3330TIP3   OH2 9932   5.037   2.600   2.209
 3330TIP3    H1 9933   4.979   2.676   2.220
 3330TIP3    H2 9934   5.119   2.627   2.250
 3331TIP3   OH2 9935   2.263   4.067   6.472
 3331TIP3    H1 9936   2.176   4.051   6.435
 3331TIP3    H2 9937   2.287   3.985   6.514
 3332TIP3   OH2 9938   5.447   6.759   3.691
 3332TIP3    H1 9939   5.510   6.689   3.676
 3332TIP3    H2 9940   5.419   6.747   3.782
 3333TIP3   OH2 9941   6.970   1.440   5.276
 3333TIP3    H1 9942   7.008   1.420   5.362
 3333TIP3    H2 9943   6.880   1.408   5.282
 3334TIP3   OH2 9944   7.517   2.020   3.990
 3334TIP3    H1 9945   7.588   1.967   4.025
 3334TIP3    H2 9946   7.558   2.070   3.919
 3335TIP3   OH2 9947   7.989   1.212   1.727
 3335TIP3    H1 9948   8.055   1.146   1.708
 3335TIP3    H2 9949   7.986   1.216   1.823
 3336TIP3   OH2 9950   5.778   6.214   1.427
 3336TIP3    H1 9951   5.845   6.281   1.420
 3336TIP3    H2 9952   5.720   6.230   1.353
 3337TIP3   OH2 9953   4.887   5.151   2.028
 3337TIP3    H1 9954   4.819   5.133   2.092
 3337TIP3    H2 9955   4.841   5.195   1.956
 3338TIP3   OH2 9956   5.275   0.218   3.020
 3338TIP3    H1 9957   5.213   0.220   3.093
 3338TIP3    H2 9958   5.336   0.148   3.041
 3339TIP3   OH2 9959   2.714   0.596   4.950
 3339TIP3    H1 9960   2.748   0.684   4.934
 3339TIP3    H2 9961   2.670   0.603   5.035
 3340TIP3   OH2 9962   8.211   6.322   5.642
 3340TIP3    H1 9963   8.164   6.396   5.604
 3340TIP3    H2 9964   8.155   6.246   5.624
 3341TIP3   OH2 9965   2.456   4.736   5.419
 3341TIP3    H1 9966   2.430   4.706   5.505
 3341TIP3    H2 9967   2.489   4.658   5.375
 3342TIP3   OH2 9968   6.107   2.381   5.530
 3342TIP3    H1 9969   6.158   2.415   5.603
 3342TIP3    H2 9970   6.164   2.391   5.454
 3343TIP3   OH2 9971   2.914   3.028   3.068
 3343TIP3    H1 9972   2.971   2.951   3.071
 3343TIP3    H2 9973   2.861   3.016   2.990
 3344TIP3   OH2 9974   2.559   4.055   6.564
 3344TIP3    H1 9975   2.635   4.035   6.618
 3344TIP3    H2 9976   2.491   4.081   6.626
 3345TIP3   OH2 9977   2.944   6.906   1.924
 3345TIP3    H1 9978   3.014   6.841   1.922
 3345TIP3    H2 9979   2.906   6.903   1.837
 3346TIP3   OH2 9980   5.283   5.755   1.078
 3346TIP3    H1 9981   5.344   5.784   1.145
 3346TIP3    H2 9982   5.340   5.731   1.004
 3347TIP3   OH2 9983   2.221   0.887   6.402
 3347TIP3    H1 9984   2.215   0.868   6.496
 3347TIP3    H2 9985   2.219   0.983   6.396
 3348TIP3   OH2 9986   0.145   4.065   5.593
 3348TIP3    H1 9987   0.172   4.014   5.669
 3348TIP3    H2 9988   0.117   4.150   5.628
 3349TIP3   OH2 9989   7.096   5.232   6.687
 3349TIP3    H1 9990   7.139   5.147   6.701
 3349TIP3    H2 9991   7.160   5.284   6.639
 3350TIP3   OH2 9992   1.557   6.708   4.791
 3350TIP3    H1 9993   1.614   6.635   4.817
 3350TIP3    H2 9994   1.508   6.729   4.871
 3351TIP3   OH2 9995   3.948   6.426   6.703
 3351TIP3    H1 9996   3.937   6.350   6.759
 3351TIP3    H2 9997   4.002   6.394   6.630
 3352TIP3   OH2 9998   3.384   7.222   4.415
 3352TIP3    H1 9999   3.446   7.260   4.352
 3352TIP3    H210000   3.370   7.292   4.480
 3353TIP3   OH210001   1.212   0.966   5.637
 3353TIP3    H110002   1.276   0.898   5.618
 3353TIP3    H210003   1.254   1.021   5.702
 3354TIP3   OH210004   1.059   4.227   1.165
 3354TIP3    H110005   1.093   4.183   1.087
 3354TIP3    H210006   1.134   4.271   1.204
 3355TIP3   OH210007   1.551   6.020   6.340
 3355TIP3    H110008   1.488   6.041   6.272
 3355TIP3    H210009   1.624   5.979   6.293
 3356TIP3   OH210010   5.307   6.999   1.975
 3356TIP3    H110011   5.308   6.994   2.070
 3356TIP3    H210012   5.335   6.912   1.945
 3357TIP3   OH210013   7.605   5.458   0.625
 3357TIP3    H110014   7.602   5.552   0.604
 3357TIP3    H210015   7.518   5.426   0.601
 3358TIP3   OH210016   7.001   3.552   3.396
 3358TIP3    H110017   6.947   3.539   3.473
 3358TIP3    H210018   6.973   3.637   3.361
 3359TIP3   OH210019   1.816   7.620   6.008
 3359TIP3    H110020   1.889   7.653   5.955
 3359TIP3    H210021   1.759   7.576   5.945
 3360TIP3   OH210022   4.863   0.063   5.683
 3360TIP3    H110023   4.930   0.121   5.718
 3360TIP3    H210024   4.870   0.073   5.588
 3361TIP3   OH210025   0.064   7.299   6.562
 3361TIP3    H110026   0.147   7.289   6.609
 3361TIP3    H210027   0.036   7.388   6.582
 3362TIP3   OH210028   4.427   2.205   6.684
 3362TIP3    H110029   4.482   2.145   6.733
 3362TIP3    H210030   4.338   2.170   6.693
 3363TIP3   OH210031   3.758   4.641   4.650
 3363TIP3    H110032   3.702   4.570   4.682
 3363TIP3    H210033   3.716   4.721   4.683
 3364TIP3   OH210034   2.950   0.525   1.546
 3364TIP3    H110035   2.969   0.602   1.491
 3364TIP3    H210036   2.857   0.535   1.569
 3365TIP3   OH210037   4.890   3.988   3.338
 3365TIP3    H110038   4.905   4.079   3.313
 3365TIP3    H210039   4.864   3.945   3.256
 3366TIP3   OH210040   6.795   6.212   6.316
 3366TIP3    H110041   6.809   6.208   6.411
 3366TIP3    H210042   6.860   6.276   6.285
 3367TIP3   OH210043   6.656   6.778   5.587
 3367TIP3    H110044   6.649   6.741   5.675
 3367TIP3    H210045   6.750   6.791   5.575
 3368TIP3   OH210046   4.168   5.481   3.917
 3368TIP3    H110047   4.120   5.408   3.878
 3368TIP3    H210048   4.165   5.464   4.011
 3369TIP3   OH210049   4.927   4.356   0.762
 3369TIP3    H110050   4.921   4.261   0.761
 3369TIP3    H210051   4.838   4.386   0.783
 3370TIP3   OH210052   3.260   7.316   4.057
 3370TIP3    H110053   3.240   7.282   3.970
 3370TIP3    H210054   3.184   7.369   4.080
 3371TIP3   OH210055   5.373   4.820   2.054
 3371TIP3    H110056   5.342   4.908   2.034
 3371TIP3    H210057   5.319   4.792   2.128
 3372TIP3   OH210058   2.543   4.509   5.843
 3372TIP3    H110059   2.531   4.461   5.925
 3372TIP3    H210060   2.613   4.571   5.861
 3373TIP3   OH210061   2.829   4.203   0.291
 3373TIP3    H110062   2.893   4.274   0.287
 3373TIP3    H210063   2.833   4.162   0.205
 3374TIP3   OH210064   3.443   3.041   5.178
 3374TIP3    H110065   3.454   3.003   5.091
 3374TIP3    H210066   3.358   3.083   5.176
 3375TIP3   OH210067   5.219   5.710   5.259
 3375TIP3    H110068   5.261   5.792   5.284
 3375TIP3    H210069   5.236   5.650   5.332
 3376TIP3   OH210070   5.742   5.916   0.999
 3376TIP3    H110071   5.684   5.990   0.979
 3376TIP3    H210072   5.811   5.954   1.053
 3377TIP3   OH210073   6.739   7.057   0.491
 3377TIP3    H110074   6.655   7.099   0.478
 3377TIP3    H210075   6.730   6.970   0.451
 3378TIP3   OH210076   5.266   7.232   2.437
 3378TIP3    H110077   5.179   7.219   2.399
 3378TIP3    H210078   5.252   7.225   2.531
 3379TIP3   OH210079   4.259   4.468   2.170
 3379TIP3    H110080   4.199   4.473   2.245
 3379TIP3    H210081   4.346   4.472   2.208
 3380TIP3   OH210082   0.074   3.894   1.483
 3380TIP3    H110083   0.042   3.900   1.573
 3380TIP3    H210084   0.168   3.908   1.489
 3381TIP3   OH210085   5.625   2.850   2.790
 3381TIP3    H110086   5.635   2.761   2.756
 3381TIP3    H210087   5.622   2.840   2.885
 3382TIP3   OH210088   4.485   5.119   0.115
 3382TIP3    H110089   4.578   5.116   0.140
 3382TIP3    H210090   4.475   5.050   0.050
 3383TIP3   OH210091   3.577   6.970   5.684
 3383TIP3    H110092   3.659   6.922   5.675
 3383TIP3    H210093   3.596   7.056   5.646
 3384TIP3   OH210094   7.418   7.714   1.246
 3384TIP3    H110095   7.375   7.678   1.169
 3384TIP3    H210096   7.371   7.796   1.263
 3385TIP3   OH210097   4.774   0.398   5.488
 3385TIP3    H110098   4.685   0.414   5.518
 3385TIP3    H210099   4.784   0.303   5.493
 3386TIP3   OH210100   2.893   0.030   3.616
 3386TIP3    H110101   2.868   0.057   3.704
 3386TIP3    H210102   2.973   0.078   3.598
 3387TIP3   OH210103   6.735   3.921   5.234
 3387TIP3    H110104   6.803   3.855   5.249
 3387TIP3    H210105   6.779   3.989   5.183
 3388TIP3   OH210106   2.477   1.386   1.074
 3388TIP3    H110107   2.424   1.458   1.040
 3388TIP3    H210108   2.525   1.424   1.148
 3389TIP3   OH210109   5.894   0.800   3.572
 3389TIP3    H110110   5.894   0.799   3.477
 3389TIP3    H210111   5.861   0.887   3.595
 3390TIP3   OH210112   8.314   2.641   3.800
 3390TIP3    H110113   8.281   2.588   3.728
 3390TIP3    H210114   8.241   2.645   3.862
 3391TIP3   OH210115   4.492   0.457   5.572
 3391TIP3    H110116   4.533   0.481   5.655
 3391TIP3    H210117   4.430   0.388   5.595
 3392TIP3   OH210118   6.839   7.700   0.894
 3392TIP3    H110119   6.811   7.626   0.840
 3392TIP3    H210120   6.865   7.660   0.977
 3393TIP3   OH210121   3.772   1.382   5.647
 3393TIP3    H110122   3.753   1.296   5.685
 3393TIP3    H210123   3.692   1.405   5.600
 3394TIP3   OH210124   7.936   0.827   2.912
 3394TIP3    H110125   7.949   0.913   2.872
 3394TIP3    H210126   8.005   0.820   2.978
 3395TIP3   OH210127   5.082   5.688   2.614
 3395TIP3    H110128   5.070   5.610   2.560
 3395TIP3    H210129   5.163   5.672   2.662
 3396TIP3   OH210130   5.082   6.628   0.232
 3396TIP3    H110131   5.154   6.684   0.203
 3396TIP3    H210132   5.125   6.551   0.269
 3397TIP3   OH210133   5.967   4.072   2.831
 3397TIP3    H110134   5.982   4.121   2.751
 3397TIP3    H210135   5.872   4.076   2.844
 3398TIP3   OH210136   4.355   6.451   2.957
 3398TIP3    H110137   4.417   6.514   2.993
 3398TIP3    H210138   4.274   6.466   3.006
 3399TIP3   OH210139   1.969   5.848   4.677
 3399TIP3    H110140   1.878   5.869   4.698
 3399TIP3    H210141   2.007   5.824   4.762
 3400TIP3   OH210142   2.534   7.640   0.107
 3400TIP3    H110143   2.613   7.682   0.073
 3400TIP3    H210144   2.514   7.688   0.188
 3401TIP3   OH210145   4.191   5.172   5.026
 3401TIP3    H110146   4.251   5.223   4.973
 3401TIP3    H210147   4.104   5.195   4.993
 3402TIP3   OH210148   5.097   1.590   2.043
 3402TIP3    H110149   5.057   1.510   2.008
 3402TIP3    H210150   5.157   1.558   2.111
 3403TIP3   OH210151   1.011   0.666   4.302
 3403TIP3    H110152   0.959   0.613   4.242
 3403TIP3    H210153   0.947   0.723   4.345
 3404TIP3   OH210154   0.117   4.789   3.661
 3404TIP3    H110155   0.083   4.747   3.739
 3404TIP3    H210156   0.190   4.842   3.692
 3405TIP3   OH210157   5.056   6.164   5.632
 3405TIP3    H110158   5.042   6.122   5.717
 3405TIP3    H210159   5.103   6.245   5.652
 3406TIP3   OH210160   5.663   4.033   5.507
 3406TIP3    H110161   5.742   4.060   5.460
 3406TIP3    H210162   5.696   3.973   5.575
 3407TIP3   OH210163   4.184   4.359   6.123
 3407TIP3    H110164   4.181   4.285   6.064
 3407TIP3    H210165   4.167   4.322   6.210
 3408TIP3   OH210166   0.702   3.389   1.564
 3408TIP3    H110167   0.735   3.332   1.633
 3408TIP3    H210168   0.619   3.349   1.538
 3409TIP3   OH210169   5.750   0.267   0.689
 3409TIP3    H110170   5.701   0.189   0.715
 3409TIP3    H210171   5.683   0.331   0.665
 3410TIP3   OH210172   8.160   3.711   0.328
 3410TIP3    H110173   8.091   3.777   0.334
 3410TIP3    H210174   8.241   3.760   0.340
 3411TIP3   OH210175   6.561   3.344   6.222
 3411TIP3    H110176   6.638   3.402   6.219
 3411TIP3    H210177   6.584   3.271   6.164
 3412TIP3   OH210178   1.165   7.035   0.305
 3412TIP3    H110179   1.219   7.000   0.235
 3412TIP3    H210180   1.075   7.017   0.278
 3413TIP3   OH210181   1.103   7.364   2.624
 3413TIP3    H110182   1.054   7.284   2.645
 3413TIP3    H210183   1.095   7.373   2.529
 3414TIP3   OH210184   2.765   4.449   4.815
 3414TIP3    H110185   2.698   4.461   4.882
 3414TIP3    H210186   2.764   4.356   4.795
 3415TIP3   OH210187   1.771   1.423   6.091
 3415TIP3    H110188   1.805   1.427   6.181
 3415TIP3    H210189   1.810   1.498   6.047
 3416TIP3   OH210190   3.498   6.371   1.867
 3416TIP3    H110191   3.495   6.421   1.786
 3416TIP3    H210192   3.469   6.283   1.842
 3417TIP3   OH210193   2.026   1.582   4.617
 3417TIP3    H110194   1.962   1.654   4.615
 3417TIP3    H210195   2.022   1.544   4.529
 3418TIP3   OH210196   5.772   4.918   3.682
 3418TIP3    H110197   5.717   4.889   3.755
 3418TIP3    H210198   5.832   4.982   3.721
 3419TIP3   OH210199   1.019   6.365   1.052
 3419TIP3    H110200   1.010   6.403   0.964
 3419TIP3    H210201   1.113   6.349   1.062
 3420TIP3   OH210202   5.519   6.355   0.443
 3420TIP3    H110203   5.430   6.363   0.477
 3420TIP3    H210204   5.555   6.444   0.447
 3421TIP3   OH210205   2.869   5.572   4.569
 3421TIP3    H110206   2.921   5.646   4.537
 3421TIP3    H210207   2.791   5.613   4.607
 3422TIP3   OH210208   1.475   6.462   1.902
 3422TIP3    H110209   1.470   6.532   1.967
 3422TIP3    H210210   1.385   6.454   1.870
 3423TIP3   OH210211   7.545   6.780   1.662
 3423TIP3    H110212   7.634   6.748   1.646
 3423TIP3    H210213   7.557   6.858   1.717
 3424TIP3   OH210214   2.782   6.469   2.858
 3424TIP3    H110215   2.720   6.524   2.907
 3424TIP3    H210216   2.802   6.396   2.917
 3425TIP3   OH210217   2.646   1.458   2.813
 3425TIP3    H110218   2.655   1.553   2.820
 3425TIP3    H210219   2.592   1.433   2.887
 3426TIP3   OH210220   5.482   2.515   6.538
 3426TIP3    H110221   5.413   2.465   6.580
 3426TIP3    H210222   5.465   2.505   6.444
 3427TIP3   OH210223   0.092   1.144   2.568
 3427TIP3    H110224   0.144   1.206   2.619
 3427TIP3    H210225   0.001   1.170   2.583
 3428TIP3   OH210226   7.806   0.612   1.730
 3428TIP3    H110227   7.752   0.565   1.668
 3428TIP3    H210228   7.845   0.683   1.679
 3429TIP3   OH210229   0.282   3.655   2.295
 3429TIP3    H110230   0.341   3.730   2.300
 3429TIP3    H210231   0.207   3.680   2.348
 3430TIP3   OH210232   6.552   2.732   5.716
 3430TIP3    H110233   6.544   2.819   5.756
 3430TIP3    H210234   6.469   2.717   5.672
 3431TIP3   OH210235   7.204   6.074   0.583
 3431TIP3    H110236   7.161   6.155   0.612
 3431TIP3    H210237   7.136   6.028   0.533
 3432TIP3   OH210238   4.359   6.131   4.444
 3432TIP3    H110239   4.303   6.148   4.368
 3432TIP3    H210240   4.297   6.113   4.515
 3433TIP3   OH210241  -0.067   4.644   3.431
 3433TIP3    H110242  -0.004   4.705   3.469
 3433TIP3    H210243  -0.113   4.607   3.506
 3434TIP3   OH210244   6.717   1.108   6.668
 3434TIP3    H110245   6.673   1.041   6.720
 3434TIP3    H210246   6.659   1.184   6.673
 3435TIP3   OH210247   1.864   3.754   3.961
 3435TIP3    H110248   1.891   3.800   3.882
 3435TIP3    H210249   1.912   3.672   3.959
 3436TIP3   OH210250   4.050   6.414   3.245
 3436TIP3    H110251   4.085   6.379   3.327
 3436TIP3    H210252   3.957   6.424   3.261
 3437TIP3   OH210253   5.128   7.201   2.962
 3437TIP3    H110254   5.083   7.286   2.957
 3437TIP3    H210255   5.059   7.139   2.983
 3438TIP3   OH210256   3.051   1.002   0.596
 3438TIP3    H110257   2.972   1.036   0.638
 3438TIP3    H210258   3.095   1.079   0.561
 3439TIP3   OH210259   0.386   6.850   4.291
 3439TIP3    H110260   0.380   6.802   4.374
 3439TIP3    H210261   0.419   6.785   4.229
 3440TIP3   OH210262   7.571   0.135   1.849
 3440TIP3    H110263   7.573   0.216   1.798
 3440TIP3    H210264   7.566   0.163   1.940
 3441TIP3   OH210265   5.403   6.792   4.085
 3441TIP3    H110266   5.334   6.837   4.036
 3441TIP3    H210267   5.364   6.708   4.110
 3442TIP3   OH210268   2.064   1.226   4.712
 3442TIP3    H110269   2.062   1.301   4.653
 3442TIP3    H210270   2.155   1.197   4.711
 3443TIP3   OH210271   0.397   5.901   2.513
 3443TIP3    H110272   0.480   5.910   2.559
 3443TIP3    H210273   0.405   5.818   2.465
 3444TIP3   OH210274   2.767   2.567   1.881
 3444TIP3    H110275   2.691   2.620   1.857
 3444TIP3    H210276   2.837   2.599   1.823
 3445TIP3   OH210277   1.309   1.505   1.732
 3445TIP3    H110278   1.374   1.485   1.799
 3445TIP3    H210279   1.281   1.420   1.699
 3446TIP3   OH210280   1.042   0.994   5.393
 3446TIP3    H110281   1.082   1.042   5.466
 3446TIP3    H210282   1.103   1.007   5.320
 3447TIP3   OH210283   2.368   6.447   3.527
 3447TIP3    H110284   2.340   6.379   3.589
 3447TIP3    H210285   2.387   6.523   3.582
 3448TIP3   OH210286   7.629   0.243   3.781
 3448TIP3    H110287   7.555   0.208   3.730
 3448TIP3    H210288   7.673   0.303   3.721
 3449TIP3   OH210289   6.301   0.125   3.914
 3449TIP3    H110290   6.292   0.107   3.821
 3449TIP3    H210291   6.229   0.077   3.955
 3450TIP3   OH210292   2.433   2.690   4.280
 3450TIP3    H110293   2.389   2.724   4.202
 3450TIP3    H210294   2.514   2.651   4.247
 3451TIP3   OH210295   3.043   6.104   2.147
 3451TIP3    H110296   3.059   6.031   2.206
 3451TIP3    H210297   2.948   6.120   2.154
 3452TIP3   OH210298   3.316   2.722   4.379
 3452TIP3    H110299   3.324   2.816   4.399
 3452TIP3    H210300   3.231   2.713   4.337
 3453TIP3   OH210301   8.064   2.149   5.602
 3453TIP3    H110302   8.000   2.173   5.668
 3453TIP3    H210303   8.055   2.215   5.534
 3454TIP3   OH210304   2.426   5.983   3.474
 3454TIP3    H110305   2.356   5.942   3.526
 3454TIP3    H210306   2.393   6.071   3.456
 3455TIP3   OH210307   7.122   6.512   0.261
 3455TIP3    H110308   7.133   6.606   0.248
 3455TIP3    H210309   7.054   6.504   0.328
 3456TIP3   OH210310   2.159   2.146   6.057
 3456TIP3    H110311   2.146   2.144   5.962
 3456TIP3    H210312   2.239   2.197   6.070
 3457TIP3   OH210313   0.516   4.604   6.605
 3457TIP3    H110314   0.551   4.568   6.687
 3457TIP3    H210315   0.546   4.695   6.604
 3458TIP3   OH210316   5.352   4.011   1.481
 3458TIP3    H110317   5.433   4.043   1.440
 3458TIP3    H210318   5.331   4.078   1.546
 3459TIP3   OH210319   5.684   0.253   4.396
 3459TIP3    H110320   5.738   0.332   4.400
 3459TIP3    H210321   5.610   0.277   4.341
 3460TIP3   OH210322   0.170   5.680   6.421
 3460TIP3    H110323   0.206   5.712   6.503
 3460TIP3    H210324   0.099   5.742   6.401
 3461TIP3   OH210325   4.902   3.323   3.547
 3461TIP3    H110326   4.925   3.339   3.455
 3461TIP3    H210327   4.926   3.231   3.561
 3462TIP3   OH210328   1.334   3.213   5.707
 3462TIP3    H110329   1.288   3.144   5.658
 3462TIP3    H210330   1.408   3.167   5.746
 3463TIP3   OH210331   7.520   7.220   1.709
 3463TIP3    H110332   7.429   7.201   1.732
 3463TIP3    H210333   7.518   7.311   1.679
 3464TIP3   OH210334   7.212   1.056   0.026
 3464TIP3    H110335   7.307   1.046   0.032
 3464TIP3    H210336   7.186   0.994  -0.043
 3465TIP3   OH210337   8.170   6.981   3.998
 3465TIP3    H110338   8.128   6.921   3.937
 3465TIP3    H210339   8.219   7.042   3.942
 3466TIP3   OH210340   6.045   1.643   0.560
 3466TIP3    H110341   6.035   1.549   0.544
 3466TIP3    H210342   6.090   1.676   0.482
 3467TIP3   OH210343   7.670   1.480   4.826
 3467TIP3    H110344   7.673   1.468   4.731
 3467TIP3    H210345   7.736   1.420   4.860
 3468TIP3   OH210346   6.518   3.170   2.078
 3468TIP3    H110347   6.611   3.147   2.076
 3468TIP3    H210348   6.517   3.264   2.059
 3469TIP3   OH210349   6.326   2.884   4.978
 3469TIP3    H110350   6.338   2.976   5.001
 3469TIP3    H210351   6.258   2.884   4.911
 3470TIP3   OH210352   0.307   0.364   4.858
 3470TIP3    H110353   0.333   0.286   4.909
 3470TIP3    H210354   0.314   0.336   4.767
 3471TIP3   OH210355   5.370   5.723   2.664
 3471TIP3    H110356   5.386   5.747   2.755
 3471TIP3    H210357   5.405   5.634   2.655
 3472TIP3   OH210358   7.715   0.173   5.120
 3472TIP3    H110359   7.778   0.225   5.169
 3472TIP3    H210360   7.677   0.234   5.056
 3473TIP3   OH210361   1.531   0.890   2.286
 3473TIP3    H110362   1.528   0.986   2.280
 3473TIP3    H210363   1.576   0.873   2.369
 3474TIP3   OH210364   2.473   1.429   2.234
 3474TIP3    H110365   2.396   1.431   2.177
 3474TIP3    H210366   2.479   1.338   2.262
 3475TIP3   OH210367   5.268   6.935   3.525
 3475TIP3    H110368   5.302   6.870   3.586
 3475TIP3    H210369   5.298   6.906   3.439
 3476TIP3   OH210370   2.462   4.163   3.579
 3476TIP3    H110371   2.518   4.191   3.652
 3476TIP3    H210372   2.374   4.190   3.605
 3477TIP3   OH210373   6.406   0.889   6.434
 3477TIP3    H110374   6.417   0.877   6.528
 3477TIP3    H210375   6.460   0.821   6.395
 3478TIP3   OH210376   2.673   4.068   1.000
 3478TIP3    H110377   2.705   4.135   1.061
 3478TIP3    H210378   2.578   4.067   1.013
 3479TIP3   OH210379   3.452   4.127   4.916
 3479TIP3    H110380   3.434   4.033   4.906
 3479TIP3    H210381   3.371   4.163   4.953
 3480TIP3   OH210382   8.225   3.556   3.565
 3480TIP3    H110383   8.133   3.555   3.591
 3480TIP3    H210384   8.226   3.518   3.477
 3481TIP3   OH210385   6.931   6.785   4.073
 3481TIP3    H110386   7.004   6.796   4.134
 3481TIP3    H210387   6.972   6.780   3.987
 3482TIP3   OH210388   2.780   7.310   2.435
 3482TIP3    H110389   2.776   7.316   2.530
 3482TIP3    H210390   2.720   7.377   2.403
 3483TIP3   OH210391   5.790   4.525   3.573
 3483TIP3    H110392   5.774   4.561   3.660
 3483TIP3    H210393   5.743   4.583   3.513
 3484TIP3   OH210394   6.217   7.629   0.702
 3484TIP3    H110395   6.136   7.601   0.744
 3484TIP3    H210396   6.256   7.548   0.669
 3485TIP3   OH210397   4.324   0.678   5.775
 3485TIP3    H110398   4.401   0.625   5.793
 3485TIP3    H210399   4.259   0.615   5.742
 3486TIP3   OH210400   2.915   6.309   6.173
 3486TIP3    H110401   2.849   6.338   6.110
 3486TIP3    H210402   2.912   6.213   6.167
 3487TIP3   OH210403   8.003   3.993   3.419
 3487TIP3    H110404   8.088   4.000   3.376
 3487TIP3    H210405   7.952   4.067   3.386
 3488TIP3   OH210406   6.719   4.700   4.492
 3488TIP3    H110407   6.765   4.750   4.424
 3488TIP3    H210408   6.711   4.612   4.456
 3489TIP3   OH210409   2.100   7.797   6.264
 3489TIP3    H110410   2.047   7.734   6.313
 3489TIP3    H210411   2.058   7.881   6.279
 3490TIP3   OH210412   4.140   6.230   0.169
 3490TIP3    H110413   4.176   6.292   0.233
 3490TIP3    H210414   4.198   6.154   0.174
 3491TIP3   OH210415   3.983   4.110   1.958
 3491TIP3    H110416   3.940   4.080   1.878
 3491TIP3    H210417   3.912   4.116   2.023
 3492TIP3   OH210418   5.594   1.235   4.363
 3492TIP3    H110419   5.585   1.284   4.281
 3492TIP3    H210420   5.657   1.166   4.342
 3493TIP3   OH210421   3.947   6.430   2.386
 3493TIP3    H110422   3.864   6.393   2.415
 3493TIP3    H210423   3.924   6.492   2.317
 3494TIP3   OH210424   7.571   6.663   6.649
 3494TIP3    H110425   7.488   6.641   6.692
 3494TIP3    H210426   7.568   6.758   6.638
 3495TIP3   OH210427   5.769   7.369   3.568
 3495TIP3    H110428   5.826   7.391   3.642
 3495TIP3    H210429   5.738   7.281   3.587
 3496TIP3   OH210430   1.769   5.914   5.174
 3496TIP3    H110431   1.702   5.977   5.201
 3496TIP3    H210432   1.739   5.883   5.089
 3497TIP3   OH210433   2.908   0.632   3.455
 3497TIP3    H110434   2.846   0.594   3.393
 3497TIP3    H210435   2.989   0.643   3.406
 3498TIP3   OH210436   6.426   1.777   6.370
 3498TIP3    H110437   6.423   1.811   6.459
 3498TIP3    H210438   6.519   1.769   6.350
 3499TIP3   OH210439   2.607   6.240   3.834
 3499TIP3    H110440   2.606   6.211   3.743
 3499TIP3    H210441   2.597   6.160   3.885
 3500TIP3   OH210442   1.136   3.690   6.518
 3500TIP3    H110443   1.131   3.735   6.602
 3500TIP3    H210444   1.228   3.695   6.493
 3501TIP3   OH210445   4.772   7.672   5.396
 3501TIP3    H110446   4.864   7.664   5.373
 3501TIP3    H210447   4.748   7.761   5.371
 3502TIP3   OH210448   4.190   7.094   2.233
 3502TIP3    H110449   4.210   7.016   2.284
 3502TIP3    H210450   4.208   7.068   2.142
 3503TIP3   OH210451   8.058   3.843   5.046
 3503TIP3    H110452   8.135   3.818   5.098
 3503TIP3    H210453   8.084   3.924   5.001
 3504TIP3   OH210454   8.150   7.201   1.657
 3504TIP3    H110455   8.100   7.219   1.577
 3504TIP3    H210456   8.108   7.124   1.694
 3505TIP3   OH210457   7.413   4.742   2.877
 3505TIP3    H110458   7.348   4.801   2.916
 3505TIP3    H210459   7.367   4.659   2.867
 3506TIP3   OH210460   6.614   5.074   0.458
 3506TIP3    H110461   6.656   5.010   0.516
 3506TIP3    H210462   6.649   5.159   0.488
 3507TIP3   OH210463   2.491   7.751   1.178
 3507TIP3    H110464   2.399   7.763   1.158
 3507TIP3    H210465   2.526   7.839   1.188
 3508TIP3   OH210466   4.245   3.853   4.555
 3508TIP3    H110467   4.228   3.760   4.544
 3508TIP3    H210468   4.183   3.896   4.496
 3509TIP3   OH210469   2.110   6.937   4.812
 3509TIP3    H110470   2.043   6.873   4.835
 3509TIP3    H210471   2.148   6.963   4.895
 3510TIP3   OH210472   0.805   1.745   3.457
 3510TIP3    H110473   0.804   1.823   3.402
 3510TIP3    H210474   0.798   1.779   3.546
 3511TIP3   OH210475   1.874   0.069   2.150
 3511TIP3    H110476   1.812   0.142   2.149
 3511TIP3    H210477   1.917   0.074   2.064
 3512TIP3   OH210478   2.807   5.707   5.682
 3512TIP3    H110479   2.870   5.733   5.749
 3512TIP3    H210480   2.753   5.640   5.723
 3513TIP3   OH210481   0.595   2.221   3.369
 3513TIP3    H110482   0.673   2.263   3.404
 3513TIP3    H210483   0.531   2.225   3.440
 3514TIP3   OH210484   2.065   0.680   2.981
 3514TIP3    H110485   2.017   0.609   2.938
 3514TIP3    H210486   2.095   0.642   3.064
 3515TIP3   OH210487   5.936   4.776   0.905
 3515TIP3    H110488   6.024   4.806   0.929
 3515TIP3    H210489   5.951   4.694   0.858
 3516TIP3   OH210490   4.678   5.017   6.755
 3516TIP3    H110491   4.634   5.036   6.672
 3516TIP3    H210492   4.615   5.043   6.822
 3517TIP3   OH210493   5.607   6.078   1.689
 3517TIP3    H110494   5.656   6.123   1.620
 3517TIP3    H210495   5.515   6.098   1.670
 3518TIP3   OH210496   7.006   6.307   5.040
 3518TIP3    H110497   6.954   6.345   5.111
 3518TIP3    H210498   7.061   6.242   5.084
 3519TIP3   OH210499   4.702   4.600   6.511
 3519TIP3    H110500   4.702   4.577   6.418
 3519TIP3    H210501   4.768   4.542   6.550
 3520TIP3   OH210502   8.029   4.788   1.761
 3520TIP3    H110503   8.076   4.871   1.749
 3520TIP3    H210504   8.016   4.782   1.856
 3521TIP3   OH210505   1.350   2.409   3.407
 3521TIP3    H110506   1.303   2.394   3.489
 3521TIP3    H210507   1.282   2.439   3.346
 3522TIP3   OH210508   5.345   3.637   0.772
 3522TIP3    H110509   5.343   3.733   0.779
 3522TIP3    H210510   5.322   3.606   0.860
 3523TIP3   OH210511   2.135   4.020   3.521
 3523TIP3    H110512   2.202   3.960   3.554
 3523TIP3    H210513   2.133   4.091   3.585
 3524TIP3   OH210514   6.470   0.548   3.595
 3524TIP3    H110515   6.413   0.483   3.554
 3524TIP3    H210516   6.496   0.606   3.524
 3525TIP3   OH210517   5.924   7.079   6.130
 3525TIP3    H110518   5.926   7.172   6.108
 3525TIP3    H210519   5.860   7.073   6.201
 3526TIP3   OH210520   7.868   1.664   2.145
 3526TIP3    H110521   7.778   1.655   2.113
 3526TIP3    H210522   7.919   1.687   2.068
 3527TIP3   OH210523   0.160   6.272   3.172
 3527TIP3    H110524   0.214   6.295   3.248
 3527TIP3    H210525   0.075   6.313   3.189
 3528TIP3   OH210526   1.453   4.672   3.660
 3528TIP3    H110527   1.371   4.687   3.707
 3528TIP3    H210528   1.477   4.759   3.626
 3529TIP3   OH210529   1.828   0.824   5.607
 3529TIP3    H110530   1.904   0.773   5.637
 3529TIP3    H210531   1.754   0.787   5.654
 3530TIP3   OH210532   4.745   0.518   0.889
 3530TIP3    H110533   4.796   0.462   0.948
 3530TIP3    H210534   4.706   0.583   0.947
 3531TIP3   OH210535   1.161   6.680   3.499
 3531TIP3    H110536   1.124   6.708   3.583
 3531TIP3    H210537   1.245   6.726   3.494
 3532TIP3   OH210538   5.337   7.712   4.607
 3532TIP3    H110539   5.247   7.697   4.636
 3532TIP3    H210540   5.367   7.788   4.657
 3533TIP3   OH210541   3.322   4.076   1.577
 3533TIP3    H110542   3.356   4.125   1.502
 3533TIP3    H210543   3.277   4.141   1.630
 3534TIP3   OH210544   2.358   6.089   0.913
 3534TIP3    H110545   2.335   6.111   1.003
 3534TIP3    H210546   2.412   6.163   0.883
 3535TIP3   OH210547   0.461   3.755   3.919
 3535TIP3    H110548   0.482   3.741   3.827
 3535TIP3    H210549   0.396   3.825   3.919
 3536TIP3   OH210550   8.147   7.309   0.608
 3536TIP3    H110551   8.241   7.302   0.588
 3536TIP3    H210552   8.120   7.219   0.626
 3537TIP3   OH210553   3.393   1.317   0.214
 3537TIP3    H110554   3.462   1.355   0.268
 3537TIP3    H210555   3.314   1.366   0.236
 3538TIP3   OH210556   3.419   5.616   6.064
 3538TIP3    H110557   3.466   5.573   6.135
 3538TIP3    H210558   3.428   5.710   6.082
 3539TIP3   OH210559   8.182   0.680   0.740
 3539TIP3    H110560   8.172   0.768   0.705
 3539TIP3    H210561   8.095   0.658   0.773
 3540TIP3   OH210562   6.225   4.367   4.460
 3540TIP3    H110563   6.211   4.352   4.367
 3540TIP3    H210564   6.158   4.430   4.486
 3541TIP3   OH210565   0.349   5.544   6.692
 3541TIP3    H110566   0.344   5.629   6.736
 3541TIP3    H210567   0.258   5.516   6.684
 3542TIP3   OH210568   6.438   2.297   1.476
 3542TIP3    H110569   6.503   2.247   1.525
 3542TIP3    H210570   6.354   2.270   1.514
 3543TIP3   OH210571   8.173   0.320   4.819
 3543TIP3    H110572   8.213   0.247   4.771
 3543TIP3    H210573   8.113   0.278   4.880
 3544TIP3   OH210574   1.479   7.136   5.426
 3544TIP3    H110575   1.526   7.090   5.356
 3544TIP3    H210576   1.547   7.186   5.471
 3545TIP3   OH210577   3.691   0.468   4.024
 3545TIP3    H110578   3.717   0.484   4.115
 3545TIP3    H210579   3.703   0.374   4.012
 3546TIP3   OH210580   3.274   1.092   2.232
 3546TIP3    H110581   3.199   1.143   2.201
 3546TIP3    H210582   3.236   1.012   2.267
 3547TIP3   OH210583   2.799   5.747   6.530
 3547TIP3    H110584   2.837   5.826   6.570
 3547TIP3    H210585   2.728   5.722   6.590
 3548TIP3   OH210586   3.247   7.464   2.506
 3548TIP3    H110587   3.172   7.410   2.530
 3548TIP3    H210588   3.248   7.464   2.411
 3549TIP3   OH210589   1.454   4.997   1.417
 3549TIP3    H110590   1.373   5.042   1.394
 3549TIP3    H210591   1.430   4.905   1.426
 3550TIP3   OH210592   3.349   2.244   5.462
 3550TIP3    H110593   3.414   2.277   5.524
 3550TIP3    H210594   3.265   2.265   5.502
 3551TIP3   OH210595   1.305   4.947   4.379
 3551TIP3    H110596   1.288   5.007   4.451
 3551TIP3    H210597   1.313   4.861   4.421
 3552TIP3   OH210598   7.029   1.356   6.304
 3552TIP3    H110599   7.113   1.311   6.313
 3552TIP3    H210600   6.963   1.288   6.318
 3553TIP3   OH210601   0.150   0.529   3.369
 3553TIP3    H110602   0.160   0.434   3.363
 3553TIP3    H210603   0.233   0.564   3.336
 3554TIP3   OH210604   3.490   4.156   6.673
 3554TIP3    H110605   3.577   4.190   6.693
 3554TIP3    H210606   3.475   4.180   6.582
 3555TIP3   OH210607   0.407   5.111   0.552
 3555TIP3    H110608   0.398   5.200   0.585
 3555TIP3    H210609   0.317   5.077   0.552
 3556TIP3   OH210610   0.738   4.960   5.530
 3556TIP3    H110611   0.749   4.949   5.435
 3556TIP3    H210612   0.808   4.907   5.568
 3557TIP3   OH210613   1.676   2.294   5.547
 3557TIP3    H110614   1.660   2.230   5.617
 3557TIP3    H210615   1.674   2.242   5.467
 3558TIP3   OH210616   3.267   6.627   6.266
 3558TIP3    H110617   3.280   6.722   6.268
 3558TIP3    H210618   3.178   6.615   6.299
 3559TIP3   OH210619   1.497   5.277   2.163
 3559TIP3    H110620   1.490   5.338   2.236
 3559TIP3    H210621   1.410   5.237   2.157
 3560TIP3   OH210622   5.200   6.444   2.949
 3560TIP3    H110623   5.142   6.520   2.942
 3560TIP3    H210624   5.144   6.369   2.930
 3561TIP3   OH210625   3.060   0.230   4.370
 3561TIP3    H110626   2.997   0.284   4.416
 3561TIP3    H210627   3.144   0.274   4.383
 3562TIP3   OH210628   7.527   4.385   0.588
 3562TIP3    H110629   7.528   4.361   0.496
 3562TIP3    H210630   7.619   4.399   0.611
 3563TIP3   OH210631   8.137   2.850   5.458
 3563TIP3    H110632   8.165   2.885   5.374
 3563TIP3    H210633   8.098   2.925   5.504
 3564TIP3   OH210634   4.840   6.377   5.308
 3564TIP3    H110635   4.924   6.404   5.346
 3564TIP3    H210636   4.818   6.296   5.354
 3565TIP3   OH210637   5.712   2.050   2.254
 3565TIP3    H110638   5.791   2.026   2.206
 3565TIP3    H210639   5.743   2.079   2.340
 3566TIP3   OH210640   3.898   7.722   0.446
 3566TIP3    H110641   3.900   7.793   0.381
 3566TIP3    H210642   3.948   7.651   0.406
 3567TIP3   OH210643   3.001   5.949   1.816
 3567TIP3    H110644   2.918   5.994   1.833
 3567TIP3    H210645   3.040   5.997   1.743
 3568TIP3   OH210646   3.843   3.141   3.327
 3568TIP3    H110647   3.759   3.175   3.358
 3568TIP3    H210648   3.905   3.165   3.396
 3569TIP3   OH210649   4.461   6.418   4.666
 3569TIP3    H110650   4.532   6.482   4.663
 3569TIP3    H210651   4.504   6.333   4.665
 3570TIP3   OH210652   6.665   2.916   0.780
 3570TIP3    H110653   6.677   2.891   0.688
 3570TIP3    H210654   6.722   2.991   0.792
 3571TIP3   OH210655   1.039   7.143   6.065
 3571TIP3    H110656   1.081   7.092   5.996
 3571TIP3    H210657   1.108   7.158   6.129
 3572TIP3   OH210658   5.496   4.681   4.291
 3572TIP3    H110659   5.419   4.629   4.269
 3572TIP3    H210660   5.469   4.733   4.367
 3573TIP3   OH210661   0.585   7.014   6.348
 3573TIP3    H110662   0.670   7.043   6.313
 3573TIP3    H210663   0.608   6.958   6.423
 3574TIP3   OH210664   2.326   1.068   5.620
 3574TIP3    H110665   2.388   1.138   5.600
 3574TIP3    H210666   2.290   1.043   5.535
 3575TIP3   OH210667   6.806   2.689   6.125
 3575TIP3    H110668   6.869   2.712   6.056
 3575TIP3    H210669   6.723   2.676   6.078
 3576TIP3   OH210670   1.359   2.609   0.581
 3576TIP3    H110671   1.387   2.548   0.649
 3576TIP3    H210672   1.428   2.676   0.579
 3577TIP3   OH210673   1.622   7.034   3.000
 3577TIP3    H110674   1.712   7.065   3.010
 3577TIP3    H210675   1.621   6.949   3.045
 3578TIP3   OH210676   1.247   6.009   4.384
 3578TIP3    H110677   1.341   6.026   4.384
 3578TIP3    H210678   1.218   6.028   4.474
 3579TIP3   OH210679   1.912   3.998   5.804
 3579TIP3    H110680   1.905   4.085   5.843
 3579TIP3    H210681   1.953   3.944   5.872
 3580TIP3   OH210682   4.978   1.812   1.022
 3580TIP3    H110683   4.933   1.808   1.107
 3580TIP3    H210684   5.017   1.899   1.020
 3581TIP3   OH210685   7.910   2.773   2.269
 3581TIP3    H110686   7.880   2.837   2.204
 3581TIP3    H210687   7.871   2.802   2.351
 3582TIP3   OH210688   5.719   0.766   1.585
 3582TIP3    H110689   5.686   0.693   1.637
 3582TIP3    H210690   5.811   0.745   1.568
 3583TIP3   OH210691   0.506   5.842   2.160
 3583TIP3    H110692   0.506   5.787   2.081
 3583TIP3    H210693   0.467   5.788   2.228
 3584TIP3   OH210694   1.059   5.474   3.369
 3584TIP3    H110695   1.048   5.569   3.368
 3584TIP3    H210696   1.149   5.460   3.340
 3585TIP3   OH210697   2.176   0.607   5.416
 3585TIP3    H110698   2.229   0.546   5.469
 3585TIP3    H210699   2.237   0.677   5.393
 3586TIP3   OH210700   6.220   4.304   6.110
 3586TIP3    H110701   6.257   4.226   6.068
 3586TIP3    H210702   6.221   4.371   6.042
 3587TIP3   OH210703   0.815   1.240   0.106
 3587TIP3    H110704   0.873   1.260   0.179
 3587TIP3    H210705   0.851   1.161   0.067
 3588TIP3   OH210706   4.613   4.285   3.038
 3588TIP3    H110707   4.607   4.209   3.097
 3588TIP3    H210708   4.682   4.262   2.976
 3589TIP3   OH210709   0.462   0.960   4.309
 3589TIP3    H110710   0.549   0.929   4.285
 3589TIP3    H210711   0.412   0.881   4.325
 3590TIP3   OH210712   4.880   6.819   0.323
 3590TIP3    H110713   4.930   6.738   0.306
 3590TIP3    H210714   4.915   6.882   0.261
 3591TIP3   OH210715   0.527   6.644   0.244
 3591TIP3    H110716   0.622   6.646   0.256
 3591TIP3    H210717   0.514   6.575   0.178
 3592TIP3   OH210718   2.034   7.413   1.312
 3592TIP3    H110719   1.940   7.400   1.295
 3592TIP3    H210720   2.062   7.334   1.357
 3593TIP3   OH210721   6.090   3.853   0.783
 3593TIP3    H110722   6.139   3.897   0.853
 3593TIP3    H210723   6.143   3.776   0.761
 3594TIP3   OH210724   3.679   5.756   6.056
 3594TIP3    H110725   3.596   5.801   6.047
 3594TIP3    H210726   3.742   5.825   6.078
 3595TIP3   OH210727   1.724   5.415   5.031
 3595TIP3    H110728   1.655   5.480   5.019
 3595TIP3    H210729   1.752   5.392   4.943
 3596TIP3   OH210730   7.199   7.781   0.329
 3596TIP3    H110731   7.233   7.816   0.247
 3596TIP3    H210732   7.169   7.693   0.307
 3597TIP3   OH210733   3.111   6.046   4.570
 3597TIP3    H110734   3.127   6.104   4.496
 3597TIP3    H210735   3.022   6.013   4.556
 3598TIP3   OH210736   0.942   4.770   5.499
 3598TIP3    H110737   0.957   4.710   5.426
 3598TIP3    H210738   0.999   4.845   5.481
 3599TIP3   OH210739   6.074   4.542   3.493
 3599TIP3    H110740   5.981   4.555   3.512
 3599TIP3    H210741   6.093   4.453   3.525
 3600TIP3   OH210742   2.462   5.157   0.239
 3600TIP3    H110743   2.527   5.173   0.170
 3600TIP3    H210744   2.503   5.192   0.318
 3601TIP3   OH210745   8.241   0.735   1.191
 3601TIP3    H110746   8.177   0.674   1.154
 3601TIP3    H210747   8.273   0.693   1.271
 3602TIP3   OH210748   6.344   3.467   4.098
 3602TIP3    H110749   6.366   3.552   4.137
 3602TIP3    H210750   6.290   3.489   4.023
 3603TIP3   OH210751   0.486   3.537   3.116
 3603TIP3    H110752   0.530   3.456   3.140
 3603TIP3    H210753   0.415   3.509   3.057
 3604TIP3   OH210754   2.246   5.699   0.261
 3604TIP3    H110755   2.271   5.728   0.173
 3604TIP3    H210756   2.156   5.731   0.271
 3605TIP3   OH210757   0.617   3.029   0.915
 3605TIP3    H110758   0.617   2.944   0.870
 3605TIP3    H210759   0.706   3.037   0.951
 3606TIP3   OH210760   2.233   1.850   0.400
 3606TIP3    H110761   2.200   1.761   0.396
 3606TIP3    H210762   2.201   1.884   0.484
 3607TIP3   OH210763   2.916   5.087   0.755
 3607TIP3    H110764   2.940   4.995   0.751
 3607TIP3    H210765   2.857   5.094   0.831
 3608TIP3   OH210766   6.710   6.830   4.439
 3608TIP3    H110767   6.617   6.815   4.453
 3608TIP3    H210768   6.748   6.742   4.435
 3609TIP3   OH210769   7.448   1.241   4.111
 3609TIP3    H110770   7.450   1.250   4.206
 3609TIP3    H210771   7.415   1.326   4.080
 3610TIP3   OH210772   3.174   4.086   3.210
 3610TIP3    H110773   3.176   4.137   3.130
 3610TIP3    H210774   3.093   4.036   3.205
 3611TIP3   OH210775   0.749   4.272   1.056
 3611TIP3    H110776   0.811   4.334   1.018
 3611TIP3    H210777   0.678   4.327   1.090
 3612TIP3   OH210778   1.376   3.103   6.406
 3612TIP3    H110779   1.453   3.048   6.421
 3612TIP3    H210780   1.351   3.133   6.493
 3613TIP3   OH210781   6.958   2.967   3.661
 3613TIP3    H110782   7.048   2.973   3.692
 3613TIP3    H210783   6.909   2.931   3.735
 3614TIP3   OH210784   7.746   4.553   6.281
 3614TIP3    H110785   7.769   4.460   6.271
 3614TIP3    H210786   7.651   4.553   6.293
 3615TIP3   OH210787   6.073   3.023   6.184
 3615TIP3    H110788   6.058   3.066   6.100
 3615TIP3    H210789   6.164   2.995   6.180
 3616TIP3   OH210790   1.874   6.764   4.269
 3616TIP3    H110791   1.860   6.783   4.362
 3616TIP3    H210792   1.924   6.839   4.237
 3617TIP3   OH210793   5.051   1.842   2.753
 3617TIP3    H110794   5.063   1.903   2.680
 3617TIP3    H210795   5.040   1.757   2.711
 3618TIP3   OH210796   7.060   1.044   5.176
 3618TIP3    H110797   6.965   1.057   5.177
 3618TIP3    H210798   7.096   1.125   5.212
 3619TIP3   OH210799   4.099   6.629   0.908
 3619TIP3    H110800   4.058   6.610   0.823
 3619TIP3    H210801   4.183   6.668   0.886
 3620TIP3   OH210802   8.050   7.299   2.813
 3620TIP3    H110803   8.106   7.222   2.825
 3620TIP3    H210804   8.073   7.332   2.727
 3621TIP3   OH210805   4.041   3.126   5.261
 3621TIP3    H110806   4.037   3.142   5.167
 3621TIP3    H210807   4.085   3.041   5.269
 3622TIP3   OH210808   0.671   4.831   2.741
 3622TIP3    H110809   0.739   4.772   2.709
 3622TIP3    H210810   0.717   4.893   2.797
 3623TIP3   OH210811   1.912   4.643   4.021
 3623TIP3    H110812   1.834   4.691   3.994
 3623TIP3    H210813   1.982   4.708   4.018
 3624TIP3   OH210814   2.987   6.708   5.654
 3624TIP3    H110815   2.972   6.725   5.561
 3624TIP3    H210816   3.047   6.776   5.682
 3625TIP3   OH210817   5.203   6.730   4.498
 3625TIP3    H110818   5.233   6.677   4.424
 3625TIP3    H210819   5.251   6.696   4.573
 3626TIP3   OH210820   3.376   2.262   1.841
 3626TIP3    H110821   3.424   2.199   1.895
 3626TIP3    H210822   3.296   2.216   1.816
 3627TIP3   OH210823   5.158   3.474   1.729
 3627TIP3    H110824   5.139   3.445   1.819
 3627TIP3    H210825   5.246   3.511   1.734
 3628TIP3   OH210826   2.232   0.835   2.205
 3628TIP3    H110827   2.263   0.796   2.286
 3628TIP3    H210828   2.311   0.848   2.152
 3629TIP3   OH210829   0.055   3.457   1.780
 3629TIP3    H110830   0.150   3.448   1.773
 3629TIP3    H210831   0.033   3.418   1.865
 3630TIP3   OH210832   1.688   5.756   4.675
 3630TIP3    H110833   1.692   5.775   4.581
 3630TIP3    H210834   1.649   5.669   4.680
 3631TIP3   OH210835   1.981   6.351   6.666
 3631TIP3    H110836   2.016   6.274   6.710
 3631TIP3    H210837   2.042   6.367   6.593
 3632TIP3   OH210838   1.340   1.152   3.355
 3632TIP3    H110839   1.369   1.060   3.351
 3632TIP3    H210840   1.402   1.194   3.414
 3633TIP3   OH210841   5.124   3.862   3.421
 3633TIP3    H110842   5.100   3.771   3.406
 3633TIP3    H210843   5.042   3.910   3.410
 3634TIP3   OH210844   0.209   4.313   2.002
 3634TIP3    H110845   0.184   4.400   2.034
 3634TIP3    H210846   0.253   4.330   1.919
 3635TIP3   OH210847   2.782   6.157   2.203
 3635TIP3    H110848   2.737   6.241   2.188
 3635TIP3    H210849   2.717   6.103   2.247
 3636TIP3   OH210850   5.381   4.195   2.336
 3636TIP3    H110851   5.395   4.289   2.342
 3636TIP3    H210852   5.289   4.186   2.313
 3637TIP3   OH210853   4.490   1.880   0.891
 3637TIP3    H110854   4.395   1.875   0.893
 3637TIP3    H210855   4.519   1.807   0.945
 3638TIP3   OH210856   5.746   4.467   5.037
 3638TIP3    H110857   5.764   4.392   4.980
 3638TIP3    H210858   5.723   4.538   4.977
 3639TIP3   OH210859   5.266   3.276   2.645
 3639TIP3    H110860   5.318   3.205   2.683
 3639TIP3    H210861   5.325   3.351   2.644
 3640TIP3   OH210862   7.174   2.084   0.630
 3640TIP3    H110863   7.183   2.002   0.680
 3640TIP3    H210864   7.258   2.129   0.644
 3641TIP3   OH210865   7.661   4.698   2.790
 3641TIP3    H110866   7.645   4.711   2.696
 3641TIP3    H210867   7.582   4.732   2.832
 3642TIP3   OH210868   6.783   1.265   3.100
 3642TIP3    H110869   6.814   1.180   3.068
 3642TIP3    H210870   6.810   1.268   3.191
 3643TIP3   OH210871   6.191   0.110   3.656
 3643TIP3    H110872   6.214   0.085   3.566
 3643TIP3    H210873   6.127   0.181   3.645
 3644TIP3   OH210874   7.516   5.111   5.300
 3644TIP3    H110875   7.486   5.038   5.245
 3644TIP3    H210876   7.470   5.099   5.383
 3645TIP3   OH210877   0.154   7.267   4.432
 3645TIP3    H110878   0.066   7.232   4.422
 3645TIP3    H210879   0.143   7.348   4.481
 3646TIP3   OH210880   8.329   2.791   4.793
 3646TIP3    H110881   8.284   2.858   4.846
 3646TIP3    H210882   8.271   2.715   4.797
 3647TIP3   OH210883   2.614   7.067   0.859
 3647TIP3    H110884   2.629   7.138   0.796
 3647TIP3    H210885   2.541   7.018   0.822
 3648TIP3   OH210886   0.665   1.928   4.782
 3648TIP3    H110887   0.612   1.865   4.831
 3648TIP3    H210888   0.613   1.946   4.703
 3649TIP3   OH210889   6.422   2.854   0.937
 3649TIP3    H110890   6.487   2.922   0.917
 3649TIP3    H210891   6.456   2.812   1.016
 3650TIP3   OH210892   6.611   0.117   3.579
 3650TIP3    H110893   6.571   0.072   3.504
 3650TIP3    H210894   6.540   0.167   3.618
 3651TIP3   OH210895   7.115   1.457   5.055
 3651TIP3    H110896   7.155   1.538   5.086
 3651TIP3    H210897   7.056   1.431   5.126
 3652TIP3   OH210898   4.539   3.276   0.420
 3652TIP3    H110899   4.532   3.363   0.381
 3652TIP3    H210900   4.449   3.250   0.437
 3653TIP3   OH210901   8.154   6.541   1.448
 3653TIP3    H110902   8.178   6.464   1.397
 3653TIP3    H210903   8.234   6.563   1.496
 3654TIP3   OH210904   0.552   1.535   2.513
 3654TIP3    H110905   0.562   1.618   2.559
 3654TIP3    H210906   0.460   1.511   2.526
 3655TIP3   OH210907   2.149   0.282   2.019
 3655TIP3    H110908   2.116   0.355   1.966
 3655TIP3    H210909   2.244   0.284   2.008
 3656TIP3   OH210910   7.598   5.505   6.493
 3656TIP3    H110911   7.533   5.477   6.429
 3656TIP3    H210912   7.576   5.457   6.572
 3657TIP3   OH210913   2.493   0.807   6.329
 3657TIP3    H110914   2.402   0.806   6.359
 3657TIP3    H210915   2.541   0.756   6.395
 3658TIP3   OH210916   4.248   4.243   2.562
 3658TIP3    H110917   4.275   4.168   2.615
 3658TIP3    H210918   4.316   4.249   2.495
 3659TIP3   OH210919   5.180   4.551   4.573
 3659TIP3    H110920   5.216   4.560   4.485
 3659TIP3    H210921   5.228   4.614   4.626
 3660TIP3   OH210922   0.289   0.972   2.807
 3660TIP3    H110923   0.281   0.958   2.712
 3660TIP3    H210924   0.382   0.990   2.820
 3661TIP3   OH210925   2.376   0.413   0.523
 3661TIP3    H110926   2.433   0.470   0.574
 3661TIP3    H210927   2.371   0.332   0.575
 3662TIP3   OH210928   0.710   6.986   3.191
 3662TIP3    H110929   0.659   7.064   3.169
 3662TIP3    H210930   0.757   6.965   3.111
 3663TIP3   OH210931   6.573   3.310   4.229
 3663TIP3    H110932   6.512   3.343   4.295
 3663TIP3    H210933   6.518   3.287   4.154
 3664TIP3   OH210934   0.159   7.303   0.601
 3664TIP3    H110935   0.241   7.325   0.646
 3664TIP3    H210936   0.187   7.265   0.517
 3665TIP3   OH210937   1.184   7.245   2.384
 3665TIP3    H110938   1.272   7.242   2.346
 3665TIP3    H210939   1.178   7.164   2.435
 3666TIP3   OH210940   0.860   6.012   5.017
 3666TIP3    H110941   0.809   6.087   5.049
 3666TIP3    H210942   0.909   5.982   5.094
 3667TIP3   OH210943   0.058   3.241   2.529
 3667TIP3    H110944   0.122   3.191   2.581
 3667TIP3    H210945   0.080   3.220   2.438
 3668TIP3   OH210946   5.796   4.323   2.032
 3668TIP3    H110947   5.875   4.291   1.988
 3668TIP3    H210948   5.778   4.408   1.992
 3669TIP3   OH210949   3.089   4.498   4.396
 3669TIP3    H110950   3.076   4.489   4.491
 3669TIP3    H210951   3.145   4.424   4.373
 3670TIP3   OH210952   0.999   5.377   1.167
 3670TIP3    H110953   0.965   5.430   1.240
 3670TIP3    H210954   0.995   5.287   1.200
 3671TIP3   OH210955   5.683   3.884   6.268
 3671TIP3    H110956   5.771   3.917   6.251
 3671TIP3    H210957   5.625   3.957   6.247
 3672TIP3   OH210958   5.999   0.793   4.640
 3672TIP3    H110959   6.011   0.886   4.658
 3672TIP3    H210960   6.081   0.752   4.666
 3673TIP3   OH210961   2.922   4.525   6.183
 3673TIP3    H110962   2.842   4.577   6.190
 3673TIP3    H210963   2.896   4.438   6.212
 3674TIP3   OH210964   5.255   3.908   6.677
 3674TIP3    H110965   5.260   3.824   6.722
 3674TIP3    H210966   5.193   3.893   6.605
 3675TIP3   OH210967   7.707   4.451   4.275
 3675TIP3    H110968   7.767   4.384   4.242
 3675TIP3    H210969   7.764   4.517   4.316
 3676TIP3   OH210970   5.120   2.204   3.140
 3676TIP3    H110971   5.073   2.137   3.189
 3676TIP3    H210972   5.156   2.157   3.064
 3677TIP3   OH210973   6.486   3.463   1.694
 3677TIP3    H110974   6.517   3.552   1.680
 3677TIP3    H210975   6.565   3.412   1.711
 3678TIP3   OH210976   2.933   0.223   0.098
 3678TIP3    H110977   2.864   0.183   0.150
 3678TIP3    H210978   2.995   0.152   0.081
 3679TIP3   OH210979   2.685   5.977   6.057
 3679TIP3    H110980   2.702   5.883   6.050
 3679TIP3    H210981   2.770   6.016   6.077
 3680TIP3   OH210982   2.462   5.279   4.515
 3680TIP3    H110983   2.506   5.213   4.569
 3680TIP3    H210984   2.516   5.357   4.525
 3681TIP3   OH210985   5.604   1.375   1.435
 3681TIP3    H110986   5.528   1.366   1.379
 3681TIP3    H210987   5.661   1.438   1.390
 3682TIP3   OH210988   1.986   5.124   0.289
 3682TIP3    H110989   2.050   5.176   0.240
 3682TIP3    H210990   1.903   5.168   0.273
 3683TIP3   OH210991   7.029   1.285   3.793
 3683TIP3    H110992   6.980   1.230   3.854
 3683TIP3    H210993   7.021   1.241   3.709
 3684TIP3   OH210994   0.938   7.070   6.688
 3684TIP3    H110995   1.028   7.084   6.717
 3684TIP3    H210996   0.892   7.040   6.766
 3685TIP3   OH210997   5.982   2.382   2.467
 3685TIP3    H110998   5.940   2.460   2.433
 3685TIP3    H210999   6.070   2.411   2.492
 3686TIP3   OH211000   5.560   4.391   1.409
 3686TIP3    H111001   5.596   4.339   1.480
 3686TIP3    H211002   5.466   4.372   1.410
 3687TIP3   OH211003   3.644   6.316   1.548
 3687TIP3    H111004   3.572   6.255   1.564
 3687TIP3    H211005   3.722   6.260   1.544
 3688TIP3   OH211006   3.342   5.336   5.176
 3688TIP3    H111007   3.289   5.275   5.226
 3688TIP3    H211008   3.288   5.360   5.101
 3689TIP3   OH211009   7.048   6.819   3.807
 3689TIP3    H111010   7.012   6.885   3.748
 3689TIP3    H211011   7.119   6.864   3.853
 3690TIP3   OH211012   7.145   5.926   1.198
 3690TIP3    H111013   7.057   5.901   1.225
 3690TIP3    H211014   7.185   5.964   1.277
 3691TIP3   OH211015   5.380   2.427   1.368
 3691TIP3    H111016   5.338   2.357   1.318
 3691TIP3    H211017   5.473   2.415   1.353
 3692TIP3   OH211018   1.587   1.608   2.798
 3692TIP3    H111019   1.497   1.579   2.786
 3692TIP3    H211020   1.604   1.596   2.892
 3693TIP3   OH211021   2.745   1.144   4.697
 3693TIP3    H111022   2.779   1.199   4.626
 3693TIP3    H211023   2.667   1.103   4.661
 3694TIP3   OH211024   3.238   5.329   0.786
 3694TIP3    H111025   3.259   5.241   0.819
 3694TIP3    H211026   3.239   5.320   0.691
 3695TIP3   OH211027   2.631   5.509   1.861
 3695TIP3    H111028   2.564   5.468   1.806
 3695TIP3    H211029   2.653   5.591   1.815
 3696TIP3   OH211030   0.714   6.030   1.633
 3696TIP3    H111031   0.715   6.025   1.729
 3696TIP3    H211032   0.766   5.955   1.604
 3697TIP3   OH211033   0.091   5.732   1.455
 3697TIP3    H111034   0.103   5.808   1.511
 3697TIP3    H211035   0.179   5.706   1.430
 3698TIP3   OH211036   3.476   3.500   1.294
 3698TIP3    H111037   3.500   3.525   1.383
 3698TIP3    H211038   3.497   3.406   1.289
 3699TIP3   OH211039   3.005   2.658   0.147
 3699TIP3    H111040   2.973   2.729   0.204
 3699TIP3    H211041   2.990   2.690   0.058
 3700TIP3   OH211042   2.640   0.835   2.484
 3700TIP3    H111043   2.711   0.801   2.429
 3700TIP3    H211044   2.606   0.909   2.434
 3701TIP3   OH211045   7.582   4.567   0.974
 3701TIP3    H111046   7.503   4.619   0.958
 3701TIP3    H211047   7.652   4.616   0.932
 3702TIP3   OH211048   6.980   5.265   3.080
 3702TIP3    H111049   7.039   5.241   3.009
 3702TIP3    H211050   6.935   5.184   3.103
 3703TIP3   OH211051   4.599   2.463   2.264
 3703TIP3    H111052   4.638   2.550   2.274
 3703TIP3    H211053   4.513   2.471   2.306
 3704TIP3   OH211054   8.197   7.416   5.344
 3704TIP3    H111055   8.200   7.322   5.331
 3704TIP3    H211056   8.245   7.453   5.270
 3705TIP3   OH211057   4.222   4.971   2.367
 3705TIP3    H111058   4.268   4.892   2.396
 3705TIP3    H211059   4.250   4.984   2.277
 3706TIP3   OH211060   0.042   3.238   6.651
 3706TIP3    H111061   0.120   3.250   6.596
 3706TIP3    H211062   0.029   3.144   6.655
 3707TIP3   OH211063   3.275   5.765   0.351
 3707TIP3    H111064   3.310   5.836   0.404
 3707TIP3    H211065   3.223   5.809   0.283
 3708TIP3   OH211066   3.195   3.407   1.100
 3708TIP3    H111067   3.255   3.395   1.026
 3708TIP3    H211068   3.147   3.487   1.079
 3709TIP3   OH211069   4.946   3.542   5.988
 3709TIP3    H111070   4.876   3.599   5.957
 3709TIP3    H211071   4.989   3.512   5.908
 3710TIP3   OH211072   0.858   3.789   5.049
 3710TIP3    H111073   0.894   3.871   5.083
 3710TIP3    H211074   0.931   3.728   5.051
 3711TIP3   OH211075   1.235   1.266   5.307
 3711TIP3    H111076   1.297   1.196   5.288
 3711TIP3    H211077   1.174   1.266   5.233
 3712TIP3   OH211078   3.362   7.487   2.020
 3712TIP3    H111079   3.446   7.464   1.981
 3712TIP3    H211080   3.368   7.456   2.111
 3713TIP3   OH211081   8.219   1.761   2.221
 3713TIP3    H111082   8.302   1.734   2.260
 3713TIP3    H211083   8.233   1.750   2.127
 3714TIP3   OH211084   8.043   6.492   5.520
 3714TIP3    H111085   8.005   6.467   5.435
 3714TIP3    H211086   7.969   6.497   5.579
 3715TIP3   OH211087   5.452   3.738   3.617
 3715TIP3    H111088   5.418   3.679   3.684
 3715TIP3    H211089   5.401   3.818   3.628
 3716TIP3   OH211090   6.724   0.357   3.452
 3716TIP3    H111091   6.698   0.286   3.510
 3716TIP3    H211092   6.642   0.390   3.415
 3717TIP3   OH211093   1.631   4.809   5.733
 3717TIP3    H111094   1.631   4.856   5.816
 3717TIP3    H211095   1.697   4.741   5.743
 3718TIP3   OH211096   5.722   6.802   3.243
 3718TIP3    H111097   5.691   6.741   3.175
 3718TIP3    H211098   5.655   6.870   3.246
 3719TIP3   OH211099   4.295   6.734   5.485
 3719TIP3    H111100   4.301   6.784   5.566
 3719TIP3    H211101   4.231   6.782   5.432
 3720TIP3   OH211102   2.287   3.037   2.405
 3720TIP3    H111103   2.367   2.987   2.421
 3720TIP3    H211104   2.266   3.021   2.313
 3721TIP3   OH211105   3.916   4.772   5.972
 3721TIP3    H111106   3.978   4.838   5.940
 3721TIP3    H211107   3.911   4.786   6.066
 3722TIP3   OH211108   6.444   5.663   2.322
 3722TIP3    H111109   6.447   5.612   2.241
 3722TIP3    H211110   6.351   5.685   2.333
 3723TIP3   OH211111   6.358   6.212   5.492
 3723TIP3    H111112   6.311   6.158   5.429
 3723TIP3    H211113   6.435   6.160   5.515
 3724TIP3   OH211114   6.227   3.929   5.006
 3724TIP3    H111115   6.173   3.985   5.062
 3724TIP3    H211116   6.170   3.855   4.984
 3725TIP3   OH211117   7.189   0.269   6.662
 3725TIP3    H111118   7.198   0.271   6.567
 3725TIP3    H211119   7.124   0.337   6.682
 3726TIP3   OH211120   8.252   7.787   3.252
 3726TIP3    H111121   8.269   7.877   3.225
 3726TIP3    H211122   8.333   7.758   3.293
 3727TIP3   OH211123   5.114   5.837   5.819
 3727TIP3    H111124   5.207   5.856   5.818
 3727TIP3    H211125   5.103   5.770   5.886
 3728TIP3   OH211126   0.428   6.801   1.732
 3728TIP3    H111127   0.514   6.839   1.714
 3728TIP3    H211128   0.433   6.771   1.822
 3729TIP3   OH211129   7.560   1.580   5.074
 3729TIP3    H111130   7.590   1.564   4.985
 3729TIP3    H211131   7.641   1.585   5.126
 3730TIP3   OH211132   5.185   3.461   4.547
 3730TIP3    H111133   5.186   3.520   4.471
 3730TIP3    H211134   5.248   3.393   4.525
 3731TIP3   OH211135   0.080   4.508   3.695
 3731TIP3    H111136   0.048   4.426   3.655
 3731TIP3    H211137   0.002   4.545   3.737
 3732TIP3   OH211138   5.757   0.467   2.370
 3732TIP3    H111139   5.722   0.401   2.430
 3732TIP3    H211140   5.708   0.455   2.289
 3733TIP3   OH211141   2.560   3.834   3.366
 3733TIP3    H111142   2.650   3.802   3.373
 3733TIP3    H211143   2.535   3.855   3.456
 3734TIP3   OH211144   2.534   0.649   1.759
 3734TIP3    H111145   2.604   0.585   1.771
 3734TIP3    H211146   2.459   0.598   1.728
 3735TIP3   OH211147   7.652   5.558   0.117
 3735TIP3    H111148   7.612   5.533   0.200
 3735TIP3    H211149   7.688   5.476   0.082
 3736TIP3   OH211150   3.114   6.878   2.864
 3736TIP3    H111151   3.085   6.789   2.846
 3736TIP3    H211152   3.205   6.869   2.890
 3737TIP3   OH211153   6.141   5.760   1.020
 3737TIP3    H111154   6.226   5.739   0.981
 3737TIP3    H211155   6.090   5.680   1.012
 3738TIP3   OH211156   7.341   6.886   6.613
 3738TIP3    H111157   7.433   6.899   6.590
 3738TIP3    H211158   7.341   6.880   6.709
 3739TIP3   OH211159   2.132   3.343   6.339
 3739TIP3    H111160   2.078   3.321   6.415
 3739TIP3    H211161   2.158   3.434   6.355
 3740TIP3   OH211162   0.975   5.528   2.978
 3740TIP3    H111163   1.009   5.542   2.889
 3740TIP3    H211164   1.027   5.455   3.012
 3741TIP3   OH211165   5.795   3.326   0.286
 3741TIP3    H111166   5.815   3.283   0.369
 3741TIP3    H211167   5.814   3.259   0.220
 3742TIP3   OH211168   4.472   6.558   2.557
 3742TIP3    H111169   4.461   6.613   2.634
 3742TIP3    H211170   4.428   6.605   2.487
 3743TIP3   OH211171   2.693   7.706   4.711
 3743TIP3    H111172   2.769   7.751   4.748
 3743TIP3    H211173   2.724   7.617   4.696
 3744TIP3   OH211174   7.510   4.310   1.156
 3744TIP3    H111175   7.490   4.357   1.237
 3744TIP3    H211176   7.439   4.247   1.147
 3745TIP3   OH211177   3.383   2.351   1.401
 3745TIP3    H111178   3.384   2.323   1.310
 3745TIP3    H211179   3.310   2.302   1.440
 3746TIP3   OH211180   6.205   5.574  -0.031
 3746TIP3    H111181   6.187   5.638   0.037
 3746TIP3    H211182   6.141   5.504  -0.015
 3747TIP3   OH211183   3.950   1.277   0.307
 3747TIP3    H111184   3.875   1.218   0.318
 3747TIP3    H211185   4.010   1.228   0.250
 3748TIP3   OH211186   8.224   6.618   6.201
 3748TIP3    H111187   8.129   6.608   6.208
 3748TIP3    H211188   8.236   6.706   6.166
 3749TIP3   OH211189   7.020   1.957   2.537
 3749TIP3    H111190   7.028   1.865   2.565
 3749TIP3    H211191   6.962   1.996   2.602
 3750TIP3   OH211192   7.189   0.500   1.453
 3750TIP3    H111193   7.137   0.567   1.410
 3750TIP3    H211194   7.223   0.446   1.382
 3751TIP3   OH211195   7.867   3.320   5.669
 3751TIP3    H111196   7.931   3.346   5.603
 3751TIP3    H211197   7.782   3.342   5.630
 3752TIP3   OH211198   1.833   5.304   3.165
 3752TIP3    H111199   1.871   5.379   3.119
 3752TIP3    H211200   1.857   5.318   3.257
 3753TIP3   OH211201   0.023   1.041   6.648
 3753TIP3    H111202   0.116   1.020   6.661
 3753TIP3    H211203   0.023   1.128   6.608
 3754TIP3   OH211204   4.317   6.020   4.178
 3754TIP3    H111205   4.261   6.048   4.106
 3754TIP3    H211206   4.406   6.040   4.149
 3755TIP3   OH211207   0.248   0.936   2.509
 3755TIP3    H111208   0.206   1.022   2.516
 3755TIP3    H211209   0.179   0.879   2.474
 3756TIP3   OH211210   1.362   5.149   5.329
 3756TIP3    H111211   1.456   5.168   5.324
 3756TIP3    H211212   1.322   5.212   5.269
 3757TIP3   OH211213   2.323   5.498   2.200
 3757TIP3    H111214   2.375   5.516   2.279
 3757TIP3    H211215   2.233   5.494   2.231
 3758TIP3   OH211216   3.527   3.714   3.379
 3758TIP3    H111217   3.532   3.626   3.341
 3758TIP3    H211218   3.442   3.716   3.423
 3759TIP3   OH211219   0.048   0.083   3.435
 3759TIP3    H111220   0.091   0.110   3.354
 3759TIP3    H211221   0.010  -0.002   3.414
 3760TIP3   OH211222   6.560   2.657   2.955
 3760TIP3    H111223   6.578   2.565   2.974
 3760TIP3    H211224   6.481   2.655   2.901
 3761TIP3   OH211225   3.671   4.344   5.126
 3761TIP3    H111226   3.674   4.333   5.031
 3761TIP3    H211227   3.758   4.318   5.157
 3762TIP3   OH211228   1.120   0.132   1.082
 3762TIP3    H111229   1.030   0.157   1.060
 3762TIP3    H211230   1.156   0.101   0.999
 3763TIP3   OH211231   4.510   6.958   2.531
 3763TIP3    H111232   4.512   7.053   2.527
 3763TIP3    H211233   4.502   6.930   2.440
 3764TIP3   OH211234   7.523   6.566   3.462
 3764TIP3    H111235   7.523   6.659   3.484
 3764TIP3    H211236   7.469   6.559   3.384
 3765TIP3   OH211237   2.473   3.661   3.839
 3765TIP3    H111238   2.396   3.626   3.884
 3765TIP3    H211239   2.525   3.583   3.817
 3766TIP3   OH211240   2.070   6.064   6.305
 3766TIP3    H111241   2.161   6.051   6.330
 3766TIP3    H211242   2.022   5.996   6.353
 3767TIP3   OH211243   7.263   4.351   0.445
 3767TIP3    H111244   7.276   4.425   0.504
 3767TIP3    H211245   7.279   4.274   0.500
 3768TIP3   OH211246   5.115   1.552   5.383
 3768TIP3    H111247   5.130   1.636   5.341
 3768TIP3    H211248   5.055   1.506   5.324
 3769TIP3   OH211249   1.255   1.254   4.157
 3769TIP3    H111250   1.245   1.341   4.195
 3769TIP3    H211251   1.280   1.198   4.231
 3770TIP3   OH211252   2.998   7.675   0.127
 3770TIP3    H111253   2.949   7.693   0.047
 3770TIP3    H211254   3.049   7.755   0.143
 3771TIP3   OH211255   2.032   2.907   1.766
 3771TIP3    H111256   2.067   2.969   1.830
 3771TIP3    H211257   2.011   2.829   1.817
 3772TIP3   OH211258   6.226   7.797  -0.019
 3772TIP3    H111259   6.130   7.803  -0.016
 3772TIP3    H211260   6.256   7.888  -0.023
 3773TIP3   OH211261   8.052   6.488   4.702
 3773TIP3    H111262   8.022   6.417   4.759
 3773TIP3    H211263   8.145   6.471   4.689
 3774TIP3   OH211264   1.043   0.420   2.575
 3774TIP3    H111265   1.115   0.375   2.619
 3774TIP3    H211266   1.007   0.479   2.641
 3775TIP3   OH211267   7.072   1.002   2.271
 3775TIP3    H111268   7.019   0.923   2.270
 3775TIP3    H211269   7.082   1.025   2.178
 3776TIP3   OH211270   1.795   2.381   0.219
 3776TIP3    H111271   1.820   2.440   0.148
 3776TIP3    H211272   1.829   2.295   0.191
 3777TIP3   OH211273   2.511   4.724   0.264
 3777TIP3    H111274   2.524   4.795   0.201
 3777TIP3    H211275   2.522   4.644   0.212
 3778TIP3   OH211276   0.734   2.684   3.905
 3778TIP3    H111277   0.662   2.646   3.954
 3778TIP3    H211278   0.732   2.777   3.927
 3779TIP3   OH211279   0.258   5.823   5.455
 3779TIP3    H111280   0.323   5.840   5.523
 3779TIP3    H211281   0.225   5.735   5.475
 3780TIP3   OH211282   5.218   3.150   6.739
 3780TIP3    H111283   5.313   3.155   6.725
 3780TIP3    H211284   5.180   3.193   6.663
 3781TIP3   OH211285   6.302   2.940   0.437
 3781TIP3    H111286   6.282   2.939   0.531
 3781TIP3    H211287   6.319   2.848   0.416
 3782TIP3   OH211288   5.197   2.117   4.568
 3782TIP3    H111289   5.252   2.145   4.495
 3782TIP3    H211290   5.173   2.026   4.547
 3783TIP3   OH211291   7.538   7.376   4.188
 3783TIP3    H111292   7.591   7.297   4.180
 3783TIP3    H211293   7.541   7.399   4.281
 3784TIP3   OH211294   7.939   5.812   1.229
 3784TIP3    H111295   7.924   5.904   1.205
 3784TIP3    H211296   8.033   5.806   1.243
 3785TIP3   OH211297   5.522   0.422   1.460
 3785TIP3    H111298   5.520   0.397   1.553
 3785TIP3    H211299   5.586   0.363   1.421
 3786TIP3   OH211300   1.916   0.001   5.707
 3786TIP3    H111301   1.982   0.001   5.638
 3786TIP3    H211302   1.945   0.069   5.768
 3787TIP3   OH211303   7.760   0.581   5.862
 3787TIP3    H111304   7.739   0.600   5.770
 3787TIP3    H211305   7.844   0.624   5.876
 3788TIP3   OH211306   0.485   2.448   6.266
 3788TIP3    H111307   0.480   2.491   6.351
 3788TIP3    H211308   0.447   2.511   6.205
 3789TIP3   OH211309   2.571   2.723   1.766
 3789TIP3    H111310   2.479   2.739   1.787
 3789TIP3    H211311   2.609   2.811   1.756
 3790TIP3   OH211312   7.929   2.293   0.575
 3790TIP3    H111313   7.970   2.375   0.548
 3790TIP3    H211314   7.836   2.305   0.557
 3791TIP3   OH211315   5.311   2.273   2.699
 3791TIP3    H111316   5.355   2.349   2.662
 3791TIP3    H211317   5.376   2.203   2.695
 3792TIP3   OH211318   3.710   4.535   2.323
 3792TIP3    H111319   3.630   4.484   2.332
 3792TIP3    H211320   3.705   4.572   2.235
 3793TIP3   OH211321   0.553   3.085   3.202
 3793TIP3    H111322   0.544   3.114   3.112
 3793TIP3    H211323   0.609   3.151   3.243
 3794TIP3   OH211324   3.313   4.777   0.207
 3794TIP3    H111325   3.349   4.797   0.120
 3794TIP3    H211326   3.225   4.745   0.189
 3795TIP3   OH211327   4.534   3.235   1.970
 3795TIP3    H111328   4.500   3.198   2.050
 3795TIP3    H211329   4.514   3.170   1.902
 3796TIP3   OH211330   5.466   5.206   1.591
 3796TIP3    H111331   5.524   5.222   1.516
 3796TIP3    H211332   5.523   5.209   1.667
 3797TIP3   OH211333   2.780   6.061   0.096
 3797TIP3    H111334   2.692   6.024   0.101
 3797TIP3    H211335   2.788   6.117   0.174
 3798TIP3   OH211336   3.026   6.429   4.570
 3798TIP3    H111337   3.112   6.402   4.537
 3798TIP3    H211338   3.046   6.493   4.639
 3799TIP3   OH211339   5.606   2.629   0.510
 3799TIP3    H111340   5.597   2.576   0.431
 3799TIP3    H211341   5.697   2.660   0.508
 3800TIP3   OH211342   4.068   6.641   1.237
 3800TIP3    H111343   4.148   6.604   1.200
 3800TIP3    H211344   4.049   6.584   1.312
 3801TIP3   OH211345   6.427   4.307   3.663
 3801TIP3    H111346   6.438   4.234   3.724
 3801TIP3    H211347   6.440   4.269   3.577
 3802TIP3   OH211348   7.526   1.214   4.723
 3802TIP3    H111349   7.607   1.187   4.765
 3802TIP3    H211350   7.479   1.263   4.791
 3803TIP3   OH211351   3.175   4.699   0.642
 3803TIP3    H111352   3.237   4.730   0.576
 3803TIP3    H211353   3.156   4.609   0.618
 3804TIP3   OH211354   1.920   3.481   6.080
 3804TIP3    H111355   1.868   3.472   6.000
 3804TIP3    H211356   1.883   3.416   6.140
 3805TIP3   OH211357   6.013   1.905   3.405
 3805TIP3    H111358   5.959   1.984   3.405
 3805TIP3    H211359   5.966   1.844   3.463
 3806TIP3   OH211360   0.976   4.974   6.395
 3806TIP3    H111361   0.910   5.011   6.336
 3806TIP3    H211362   0.928   4.913   6.450
 3807TIP3   OH211363   5.641   6.548   3.746
 3807TIP3    H111364   5.719   6.541   3.691
 3807TIP3    H211365   5.674   6.548   3.836
 3808TIP3   OH211366   4.555   4.622   1.276
 3808TIP3    H111367   4.548   4.527   1.277
 3808TIP3    H211368   4.600   4.642   1.193
 3809TIP3   OH211369   4.466   1.380   1.313
 3809TIP3    H111370   4.439   1.290   1.296
 3809TIP3    H211371   4.440   1.428   1.234
 3810TIP3   OH211372   1.787   2.383   4.411
 3810TIP3    H111373   1.873   2.416   4.436
 3810TIP3    H211374   1.739   2.462   4.384
 3811TIP3   OH211375   1.277   3.402   5.880
 3811TIP3    H111376   1.282   3.353   5.798
 3811TIP3    H211377   1.202   3.364   5.926
 3812TIP3   OH211378   3.321   1.170   6.383
 3812TIP3    H111379   3.394   1.194   6.441
 3812TIP3    H211380   3.307   1.249   6.330
 3813TIP3   OH211381   1.352   7.051   3.216
 3813TIP3    H111382   1.345   7.041   3.121
 3813TIP3    H211383   1.262   7.041   3.248
 3814TIP3   OH211384   0.573   4.421   5.195
 3814TIP3    H111385   0.491   4.376   5.180
 3814TIP3    H211386   0.557   4.476   5.272
 3815TIP3   OH211387   8.028   5.068   4.073
 3815TIP3    H111388   8.051   4.987   4.027
 3815TIP3    H211389   8.108   5.092   4.120
 3816TIP3   OH211390   1.322   0.728   2.255
 3816TIP3    H111391   1.272   0.739   2.173
 3816TIP3    H211392   1.385   0.800   2.254
 3817TIP3   OH211393   2.574   6.276   2.982
 3817TIP3    H111394   2.523   6.305   3.058
 3817TIP3    H211395   2.529   6.316   2.908
 3818TIP3   OH211396   7.373   7.692   0.552
 3818TIP3    H111397   7.315   7.619   0.574
 3818TIP3    H211398   7.333   7.732   0.475
 3819TIP3   OH211399   5.467   6.317   4.431
 3819TIP3    H111400   5.497   6.243   4.484
 3819TIP3    H211401   5.498   6.394   4.479
 3820TIP3   OH211402   7.742   3.299   5.332
 3820TIP3    H111403   7.678   3.307   5.403
 3820TIP3    H211404   7.703   3.347   5.259
 3821TIP3   OH211405   7.799   2.482   1.099
 3821TIP3    H111406   7.771   2.573   1.096
 3821TIP3    H211407   7.807   2.463   1.193
 3822TIP3   OH211408   4.392   0.243   4.174
 3822TIP3    H111409   4.478   0.232   4.215
 3822TIP3    H211410   4.400   0.323   4.122
 3823TIP3   OH211411   4.968   7.671   5.981
 3823TIP3    H111412   4.875   7.675   6.001
 3823TIP3    H211413   4.979   7.725   5.903
 3824TIP3   OH211414   0.619   4.401   3.277
 3824TIP3    H111415   0.545   4.416   3.218
 3824TIP3    H211416   0.695   4.432   3.229
 3825TIP3   OH211417   7.656   7.009   1.823
 3825TIP3    H111418   7.614   7.080   1.773
 3825TIP3    H211419   7.657   7.041   1.913
 3826TIP3   OH211420   7.714   3.288   2.886
 3826TIP3    H111421   7.719   3.221   2.955
 3826TIP3    H211422   7.780   3.261   2.822
 3827TIP3   OH211423   2.767   5.646   3.053
 3827TIP3    H111424   2.676   5.671   3.066
 3827TIP3    H211425   2.796   5.618   3.140
 3828TIP3   OH211426   0.529   6.427   5.612
 3828TIP3    H111427   0.458   6.480   5.650
 3828TIP3    H211428   0.606   6.452   5.662
 3829TIP3   OH211429   2.349   6.389   4.037
 3829TIP3    H111430   2.420   6.442   4.000
 3829TIP3    H211431   2.276   6.450   4.045
 3830TIP3   OH211432   4.342   2.316   0.170
 3830TIP3    H111433   4.384   2.342   0.088
 3830TIP3    H211434   4.257   2.280   0.144
 3831TIP3   OH211435   0.668   6.706   6.210
 3831TIP3    H111436   0.721   6.690   6.288
 3831TIP3    H211437   0.604   6.635   6.210
 3832TIP3   OH211438   6.582   4.047   2.182
 3832TIP3    H111439   6.623   4.131   2.161
 3832TIP3    H211440   6.494   4.070   2.211
 3833TIP3   OH211441   6.136   0.916   1.581
 3833TIP3    H111442   6.201   0.969   1.535
 3833TIP3    H211443   6.057   0.921   1.526
 3834TIP3   OH211444   0.434   5.341   1.426
 3834TIP3    H111445   0.351   5.380   1.401
 3834TIP3    H211446   0.429   5.251   1.395
 3835TIP3   OH211447   3.220   0.456   1.943
 3835TIP3    H111448   3.179   0.539   1.967
 3835TIP3    H211449   3.178   0.432   1.860
 3836TIP3   OH211450   2.769   3.741   2.461
 3836TIP3    H111451   2.718   3.819   2.483
 3836TIP3    H211452   2.855   3.757   2.500
 3837TIP3   OH211453   0.176   1.727   1.979
 3837TIP3    H111454   0.119   1.663   1.936
 3837TIP3    H211455   0.119   1.803   1.994
 3838TIP3   OH211456   6.105   5.376   2.311
 3838TIP3    H111457   6.054   5.446   2.352
 3838TIP3    H211458   6.067   5.368   2.223
 3839TIP3   OH211459   7.725   6.697   2.748
 3839TIP3    H111460   7.717   6.717   2.655
 3839TIP3    H211461   7.779   6.769   2.783
 3840TIP3   OH211462   8.189   5.882   1.339
 3840TIP3    H111463   8.231   5.837   1.412
 3840TIP3    H211464   8.252   5.951   1.315
 3841TIP3   OH211465   8.199   2.051   3.369
 3841TIP3    H111466   8.107   2.028   3.375
 3841TIP3    H211467   8.202   2.128   3.312
 3842TIP3   OH211468   6.363   3.084   2.550
 3842TIP3    H111469   6.352   3.089   2.645
 3842TIP3    H211470   6.453   3.054   2.538
 3843TIP3   OH211471   0.487   6.871   6.064
 3843TIP3    H111472   0.512   6.850   6.154
 3843TIP3    H211473   0.548   6.821   6.010
 3844TIP3   OH211474   0.699   0.331   3.903
 3844TIP3    H111475   0.650   0.413   3.899
 3844TIP3    H211476   0.671   0.290   3.985
 3845TIP3   OH211477   5.416   5.250   0.150
 3845TIP3    H111478   5.369   5.169   0.132
 3845TIP3    H211479   5.475   5.228   0.222
 3846TIP3   OH211480   2.702   1.635   5.947
 3846TIP3    H111481   2.626   1.683   5.980
 3846TIP3    H211482   2.668   1.584   5.874
 3847TIP3   OH211483   7.935   3.314   0.346
 3847TIP3    H111484   7.907   3.259   0.419
 3847TIP3    H211485   7.858   3.319   0.289
 3848TIP3   OH211486   1.022   1.159   2.977
 3848TIP3    H111487   1.088   1.213   3.021
 3848TIP3    H211488   0.996   1.095   3.044
 3849TIP3   OH211489   7.001   4.205   2.504
 3849TIP3    H111490   6.921   4.216   2.555
 3849TIP3    H211491   6.972   4.159   2.425
 3850TIP3   OH211492   7.727   2.749   5.152
 3850TIP3    H111493   7.673   2.732   5.075
 3850TIP3    H211494   7.684   2.823   5.195
 3851TIP3   OH211495   2.696   2.716   3.616
 3851TIP3    H111496   2.685   2.717   3.711
 3851TIP3    H211497   2.634   2.781   3.584
 3852TIP3   OH211498   3.443   0.139   3.352
 3852TIP3    H111499   3.406   0.051   3.358
 3852TIP3    H211500   3.507   0.133   3.281
 3853TIP3   OH211501   6.128   7.573   5.878
 3853TIP3    H111502   6.125   7.621   5.961
 3853TIP3    H211503   6.040   7.581   5.842
 3854TIP3   OH211504   7.947   7.113   6.654
 3854TIP3    H111505   7.947   7.162   6.736
 3854TIP3    H211506   7.913   7.174   6.589
 3855TIP3   OH211507   7.609   1.326   1.462
 3855TIP3    H111508   7.693   1.284   1.479
 3855TIP3    H211509   7.544   1.259   1.483
 3856TIP3   OH211510   1.835   2.270   5.115
 3856TIP3    H111511   1.776   2.333   5.073
 3856TIP3    H211512   1.873   2.221   5.043
 3857TIP3   OH211513   3.171   0.179   3.350
 3857TIP3    H111514   3.262   0.199   3.329
 3857TIP3    H211515   3.162   0.204   3.443
 3858TIP3   OH211516   5.123   7.518   4.439
 3858TIP3    H111517   5.198   7.578   4.440
 3858TIP3    H211518   5.055   7.565   4.391
 3859TIP3   OH211519   0.317   2.925   2.963
 3859TIP3    H111520   0.412   2.925   2.952
 3859TIP3    H211521   0.303   2.880   3.047
 3860TIP3   OH211522   1.555   2.802   6.187
 3860TIP3    H111523   1.632   2.778   6.239
 3860TIP3    H211524   1.486   2.742   6.216
 3861TIP3   OH211525   5.773   3.662   2.496
 3861TIP3    H111526   5.745   3.644   2.586
 3861TIP3    H211527   5.789   3.577   2.458
 3862TIP3   OH211528   1.096   4.473   0.118
 3862TIP3    H111529   1.167   4.447   0.176
 3862TIP3    H211530   1.016   4.447   0.163
 3863TIP3   OH211531   4.126   6.529   5.198
 3863TIP3    H111532   4.212   6.487   5.199
 3863TIP3    H211533   4.146   6.622   5.183
 3864TIP3   OH211534   2.886   1.302   2.806
 3864TIP3    H111535   2.820   1.372   2.809
 3864TIP3    H211536   2.839   1.227   2.769
 3865TIP3   OH211537   1.568   0.677   0.579
 3865TIP3    H111538   1.607   0.593   0.555
 3865TIP3    H211539   1.494   0.687   0.520
 3866TIP3   OH211540   2.962   2.321   2.544
 3866TIP3    H111541   2.953   2.391   2.480
 3866TIP3    H211542   2.998   2.248   2.494
 3867TIP3   OH211543   2.783   1.225   2.107
 3867TIP3    H111544   2.759   1.259   2.021
 3867TIP3    H211545   2.702   1.185   2.140
 3868TIP3   OH211546   6.709   2.181   6.304
 3868TIP3    H111547   6.679   2.232   6.379
 3868TIP3    H211548   6.796   2.216   6.284
 3869TIP3   OH211549   8.087   4.164   5.221
 3869TIP3    H111550   8.113   4.211   5.300
 3869TIP3    H211551   7.992   4.155   5.229
 3870TIP3   OH211552   4.893   5.265   0.899
 3870TIP3    H111553   4.859   5.345   0.940
 3870TIP3    H211554   4.977   5.250   0.943
 3871TIP3   OH211555   3.195   0.236   4.762
 3871TIP3    H111556   3.154   0.161   4.719
 3871TIP3    H211557   3.156   0.312   4.720
 3872TIP3   OH211558   7.008   1.349   6.706
 3872TIP3    H111559   6.978   1.285   6.642
 3872TIP3    H211560   7.024   1.299   6.785
 3873TIP3   OH211561   0.007   2.541   6.113
 3873TIP3    H111562  -0.074   2.579   6.147
 3873TIP3    H211563   0.009   2.567   6.021
 3874TIP3   OH211564   2.707   2.281   1.573
 3874TIP3    H111565   2.779   2.339   1.548
 3874TIP3    H211566   2.642   2.340   1.614
 3875TIP3   OH211567   4.013   1.336   3.896
 3875TIP3    H111568   4.037   1.428   3.893
 3875TIP3    H211569   3.990   1.314   3.806
 3876TIP3   OH211570   1.845   2.649   2.853
 3876TIP3    H111571   1.834   2.704   2.931
 3876TIP3    H211572   1.865   2.709   2.782
 3877TIP3   OH211573   2.970   1.286   0.746
 3877TIP3    H111574   3.042   1.271   0.807
 3877TIP3    H211575   2.995   1.365   0.698
 3878TIP3   OH211576   3.287   1.434   6.736
 3878TIP3    H111577   3.210   1.466   6.690
 3878TIP3    H211578   3.255   1.361   6.789
 3879TIP3   OH211579   2.954   4.847   2.500
 3879TIP3    H111580   3.009   4.915   2.540
 3879TIP3    H211581   2.934   4.787   2.572
 3880TIP3   OH211582   6.117   0.888   3.284
 3880TIP3    H111583   6.120   0.938   3.202
 3880TIP3    H211584   6.024   0.868   3.296
 3881TIP3   OH211585   8.001   4.444   1.739
 3881TIP3    H111586   8.000   4.533   1.704
 3881TIP3    H211587   7.911   4.413   1.729
 3882TIP3   OH211588   2.945   4.697   1.826
 3882TIP3    H111589   3.031   4.656   1.838
 3882TIP3    H211590   2.891   4.629   1.788
 3883TIP3   OH211591   1.760   2.880   4.325
 3883TIP3    H111592   1.720   2.877   4.238
 3883TIP3    H211593   1.836   2.936   4.314
 3884TIP3   OH211594   8.012   7.496   4.734
 3884TIP3    H111595   8.106   7.479   4.742
 3884TIP3    H211596   8.002   7.587   4.762
 3885TIP3   OH211597   4.329   1.793   6.352
 3885TIP3    H111598   4.414   1.759   6.378
 3885TIP3    H211599   4.316   1.760   6.263
 3886TIP3   OH211600   0.206   5.486   0.180
 3886TIP3    H111601   0.299   5.478   0.201
 3886TIP3    H211602   0.161   5.447   0.255
 3887TIP3   OH211603   2.585   1.235   4.229
 3887TIP3    H111604   2.665   1.263   4.185
 3887TIP3    H211605   2.523   1.307   4.215
 3888TIP3   OH211606   7.189   6.098   6.140
 3888TIP3    H111607   7.246   6.034   6.184
 3888TIP3    H211608   7.144   6.143   6.212
 3889TIP3   OH211609   2.076   5.252   2.861
 3889TIP3    H111610   2.148   5.208   2.815
 3889TIP3    H211611   2.028   5.298   2.793
 3890TIP3   OH211612   3.407   0.167   6.269
 3890TIP3    H111613   3.436   0.149   6.358
 3890TIP3    H211614   3.408   0.082   6.225
 3891TIP3   OH211615   7.638   5.759   6.650
 3891TIP3    H111616   7.671   5.804   6.572
 3891TIP3    H211617   7.681   5.673   6.648
 3892TIP3   OH211618   2.476   4.116   3.321
 3892TIP3    H111619   2.500   4.197   3.277
 3892TIP3    H211620   2.462   4.140   3.412
 3893TIP3   OH211621   0.405   5.850   5.679
 3893TIP3    H111622   0.457   5.930   5.685
 3893TIP3    H211623   0.461   5.782   5.717
 3894TIP3   OH211624   2.576   1.507   1.285
 3894TIP3    H111625   2.576   1.602   1.278
 3894TIP3    H211626   2.563   1.489   1.378
 3895TIP3   OH211627   2.074   3.913   0.378
 3895TIP3    H111628   2.083   3.967   0.457
 3895TIP3    H211629   1.986   3.930   0.346
 3896TIP3   OH211630   4.849   0.562   4.669
 3896TIP3    H111631   4.907   0.501   4.716
 3896TIP3    H211632   4.771   0.510   4.650
 3897TIP3   OH211633   3.510   4.087   3.982
 3897TIP3    H111634   3.548   4.144   4.048
 3897TIP3    H211635   3.425   4.127   3.961
 3898TIP3   OH211636   1.038   3.010   6.778
 3898TIP3    H111637   0.954   3.052   6.756
 3898TIP3    H211638   1.097   3.083   6.796
 3899TIP3   OH211639   3.372   7.732   2.917
 3899TIP3    H111640   3.320   7.657   2.888
 3899TIP3    H211641   3.450   7.694   2.957
 3900TIP3   OH211642   0.200   5.952   1.569
 3900TIP3    H111643   0.256   5.986   1.498
 3900TIP3    H211644   0.261   5.916   1.632
 3901TIP3   OH211645   8.125   4.644   4.617
 3901TIP3    H111646   8.208   4.627   4.572
 3901TIP3    H211647   8.150   4.655   4.709
 3902TIP3   OH211648   3.433   6.329   2.847
 3902TIP3    H111649   3.454   6.274   2.771
 3902TIP3    H211650   3.492   6.405   2.838
 3903TIP3   OH211651   7.828   2.914   4.855
 3903TIP3    H111652   7.844   2.939   4.764
 3903TIP3    H211653   7.749   2.861   4.852
 3904TIP3   OH211654   3.007   5.563   6.513
 3904TIP3    H111655   3.067   5.559   6.439
 3904TIP3    H211656   2.947   5.634   6.492
 3905TIP3   OH211657   4.302   4.082   4.257
 3905TIP3    H111658   4.347   4.108   4.337
 3905TIP3    H211659   4.302   3.987   4.258
 3906TIP3   OH211660   6.990   5.907   0.557
 3906TIP3    H111661   6.911   5.853   0.569
 3906TIP3    H211662   7.017   5.930   0.646
 3907TIP3   OH211663   2.047   6.075   5.729
 3907TIP3    H111664   2.113   6.007   5.739
 3907TIP3    H211665   2.007   6.083   5.816
 3908TIP3   OH211666   2.958   5.675   1.508
 3908TIP3    H111667   3.007   5.748   1.546
 3908TIP3    H211668   2.871   5.681   1.547
 3909TIP3   OH211669   1.333   3.102   1.564
 3909TIP3    H111670   1.343   3.197   1.561
 3909TIP3    H211671   1.401   3.072   1.625
 3910TIP3   OH211672   6.220   6.746   3.031
 3910TIP3    H111673   6.166   6.688   3.085
 3910TIP3    H211674   6.306   6.743   3.072
 3911TIP3   OH211675   4.110   1.453   2.478
 3911TIP3    H111676   4.195   1.433   2.517
 3911TIP3    H211677   4.102   1.393   2.404
 3912TIP3   OH211678   3.648   4.276   3.161
 3912TIP3    H111679   3.608   4.342   3.103
 3912TIP3    H211680   3.665   4.324   3.242
 3913TIP3   OH211681   4.355   4.770   5.389
 3913TIP3    H111682   4.425   4.770   5.455
 3913TIP3    H211683   4.314   4.683   5.398
 3914TIP3   OH211684   2.423   0.647   3.888
 3914TIP3    H111685   2.372   0.711   3.938
 3914TIP3    H211686   2.461   0.698   3.816
 3915TIP3   OH211687   2.698   1.976   5.146
 3915TIP3    H111688   2.615   1.937   5.118
 3915TIP3    H211689   2.733   1.915   5.210
 3916TIP3   OH211690   4.451   0.376   1.244
 3916TIP3    H111691   4.433   0.431   1.168
 3916TIP3    H211692   4.517   0.425   1.293
 3917TIP3   OH211693   2.395   2.418   2.524
 3917TIP3    H111694   2.439   2.453   2.602
 3917TIP3    H211695   2.434   2.332   2.512
 3918TIP3   OH211696   3.570   1.373   5.866
 3918TIP3    H111697   3.562   1.333   5.780
 3918TIP3    H211698   3.534   1.461   5.855
 3919TIP3   OH211699   4.568   2.548   3.561
 3919TIP3    H111700   4.473   2.554   3.550
 3919TIP3    H211701   4.593   2.632   3.601
 3920TIP3   OH211702   7.254   5.982   3.432
 3920TIP3    H111703   7.211   6.064   3.457
 3920TIP3    H211704   7.342   5.990   3.469
 3921TIP3   OH211705   2.418   5.382   2.702
 3921TIP3    H111706   2.346   5.341   2.654
 3921TIP3    H211707   2.427   5.329   2.782
 3922TIP3   OH211708   6.776   6.557   6.284
 3922TIP3    H111709   6.789   6.652   6.286
 3922TIP3    H211710   6.835   6.526   6.216
 3923TIP3   OH211711   6.345   6.831   1.685
 3923TIP3    H111712   6.358   6.743   1.650
 3923TIP3    H211713   6.257   6.830   1.723
 3924TIP3   OH211714   4.901   7.268   1.545
 3924TIP3    H111715   4.891   7.363   1.546
 3924TIP3    H211716   4.812   7.234   1.544
 3925TIP3   OH211717   2.317   5.238   4.851
 3925TIP3    H111718   2.250   5.255   4.916
 3925TIP3    H211719   2.355   5.324   4.831
 3926TIP3   OH211720   4.118   4.436   3.219
 3926TIP3    H111721   4.176   4.462   3.148
 3926TIP3    H211722   4.030   4.436   3.180
 3927TIP3   OH211723   5.195   5.330   3.177
 3927TIP3    H111724   5.229   5.390   3.111
 3927TIP3    H211725   5.109   5.366   3.200
 3928TIP3   OH211726   0.010   7.036   2.177
 3928TIP3    H111727  -0.061   7.097   2.158
 3928TIP3    H211728   0.075   7.052   2.108
 3929TIP3   OH211729   8.015   6.850   6.686
 3929TIP3    H111730   8.021   6.943   6.663
 3929TIP3    H211731   7.958   6.848   6.763
 3930TIP3   OH211732   2.941   4.134   4.559
 3930TIP3    H111733   2.994   4.190   4.502
 3930TIP3    H211734   2.867   4.108   4.504
 3931TIP3   OH211735   1.901   0.642   0.769
 3931TIP3    H111736   1.990   0.649   0.805
 3931TIP3    H211737   1.895   0.551   0.739
 3932TIP3   OH211738   0.117   7.355   5.163
 3932TIP3    H111739   0.209   7.354   5.191
 3932TIP3    H211740   0.120   7.391   5.074
 3933TIP3   OH211741   4.978   4.198   6.385
 3933TIP3    H111742   4.989   4.103   6.379
 3933TIP3    H211743   4.916   4.211   6.457
 3934TIP3   OH211744   2.588   3.644   1.594
 3934TIP3    H111745   2.527   3.715   1.611
 3934TIP3    H211746   2.672   3.688   1.578
 3935TIP3   OH211747   3.880   6.345   2.805
 3935TIP3    H111748   3.786   6.361   2.814
 3935TIP3    H211749   3.885   6.268   2.748
 3936TIP3   OH211750   8.154   4.582   0.074
 3936TIP3    H111751   8.130   4.611  -0.014
 3936TIP3    H211752   8.222   4.515   0.059
 3937TIP3   OH211753   4.468   5.053   5.118
 3937TIP3    H111754   4.511   5.028   5.200
 3937TIP3    H211755   4.514   5.131   5.089
 3938TIP3   OH211756   4.786   2.757   5.787
 3938TIP3    H111757   4.863   2.811   5.804
 3938TIP3    H211758   4.821   2.670   5.765
 3939TIP3   OH211759   7.694   5.735   0.910
 3939TIP3    H111760   7.632   5.700   0.974
 3939TIP3    H211761   7.716   5.822   0.944
 3940TIP3   OH211762   2.884   3.572   3.683
 3940TIP3    H111763   2.910   3.627   3.757
 3940TIP3    H211764   2.881   3.632   3.608
 3941TIP3   OH211765   5.889   6.829   6.018
 3941TIP3    H111766   5.795   6.822   6.034
 3941TIP3    H211767   5.913   6.913   6.055
 3942TIP3   OH211768   0.788   3.012   3.976
 3942TIP3    H111769   0.881   3.027   3.959
 3942TIP3    H211770   0.767   3.073   4.047
 3943TIP3   OH211771   0.272   6.482   5.413
 3943TIP3    H111772   0.238   6.567   5.385
 3943TIP3    H211773   0.290   6.492   5.506
 3944TIP3   OH211774   6.341   0.072   1.630
 3944TIP3    H111775   6.403   0.127   1.582
 3944TIP3    H211776   6.394  -0.002   1.661
 3945TIP3   OH211777   2.049   0.920   3.573
 3945TIP3    H111778   2.070   1.007   3.606
 3945TIP3    H211779   1.973   0.893   3.624
 3946TIP3   OH211780   4.051   2.221   6.253
 3946TIP3    H111781   4.034   2.209   6.347
 3946TIP3    H211782   4.143   2.198   6.242
 3947TIP3   OH211783   3.850   2.629   6.326
 3947TIP3    H111784   3.762   2.666   6.313
 3947TIP3    H211785   3.843   2.579   6.407
 3948TIP3   OH211786   5.805   3.782   5.336
 3948TIP3    H111787   5.732   3.774   5.398
 3948TIP3    H211788   5.877   3.735   5.378
 3949TIP3   OH211789   3.933   2.362   0.373
 3949TIP3    H111790   3.878   2.398   0.304
 3949TIP3    H211791   3.933   2.428   0.442
 3950TIP3   OH211792   0.316   6.669   4.521
 3950TIP3    H111793   0.405   6.681   4.488
 3950TIP3    H211794   0.296   6.577   4.501
 3951TIP3   OH211795   1.329   1.998   1.879
 3951TIP3    H111796   1.403   1.942   1.902
 3951TIP3    H211797   1.302   1.966   1.793
 3952TIP3   OH211798   0.599   4.359   3.758
 3952TIP3    H111799   0.558   4.370   3.672
 3952TIP3    H211800   0.638   4.271   3.755
 3953TIP3   OH211801   3.720   3.468   1.145
 3953TIP3    H111802   3.699   3.420   1.065
 3953TIP3    H211803   3.811   3.443   1.165
 3954TIP3   OH211804   0.185   6.911   1.089
 3954TIP3    H111805   0.157   6.877   1.004
 3954TIP3    H211806   0.140   6.995   1.098
 3955TIP3   OH211807   7.972   5.660   4.437
 3955TIP3    H111808   8.046   5.709   4.473
 3955TIP3    H211809   7.972   5.577   4.485
 3956TIP3   OH211810   0.776   4.772   4.580
 3956TIP3    H111811   0.683   4.789   4.599
 3956TIP3    H211812   0.785   4.677   4.590
 3957TIP3   OH211813   5.484   4.242   2.926
 3957TIP3    H111814   5.450   4.284   3.005
 3957TIP3    H211815   5.447   4.292   2.854
 3958TIP3   OH211816   3.208   2.174   6.508
 3958TIP3    H111817   3.273   2.198   6.575
 3958TIP3    H211818   3.233   2.086   6.481
 3959TIP3   OH211819   3.837   7.845   3.106
 3959TIP3    H111820   3.757   7.833   3.157
 3959TIP3    H211821   3.907   7.839   3.172
 3960TIP3   OH211822   1.047   6.862   1.919
 3960TIP3    H111823   1.134   6.877   1.884
 3960TIP3    H211824   1.047   6.906   2.004
 3961TIP3   OH211825   3.315   2.761   6.675
 3961TIP3    H111826   3.244   2.792   6.619
 3961TIP3    H211827   3.380   2.726   6.613
 3962TIP3   OH211828   2.730   0.529   1.962
 3962TIP3    H111829   2.760   0.454   2.012
 3962TIP3    H211830   2.779   0.603   1.998
 3963TIP3   OH211831   2.107   3.879   5.954
 3963TIP3    H111832   2.156   3.799   5.971
 3963TIP3    H211833   2.169   3.950   5.968
 3964TIP3   OH211834   0.844   0.174   4.768
 3964TIP3    H111835   0.749   0.181   4.755
 3964TIP3    H211836   0.863   0.238   4.836
 3965TIP3   OH211837   3.393   3.502   0.179
 3965TIP3    H111838   3.386   3.462   0.266
 3965TIP3    H211839   3.451   3.577   0.191
 3966TIP3   OH211840   0.939   4.190   6.322
 3966TIP3    H111841   0.993   4.236   6.257
 3966TIP3    H211842   0.956   4.097   6.306
 3967TIP3   OH211843   4.732   6.562   1.592
 3967TIP3    H111844   4.675   6.505   1.644
 3967TIP3    H211845   4.742   6.641   1.646
 3968TIP3   OH211846   4.455   1.419   6.408
 3968TIP3    H111847   4.394   1.346   6.420
 3968TIP3    H211848   4.451   1.439   6.315
 3969TIP3   OH211849   1.381   2.219   4.357
 3969TIP3    H111850   1.356   2.137   4.400
 3969TIP3    H211851   1.427   2.268   4.425
 3970TIP3   OH211852   5.656   1.060   5.066
 3970TIP3    H111853   5.615   0.977   5.091
 3970TIP3    H211854   5.618   1.124   5.127
 3971TIP3   OH211855   6.192   5.481   1.324
 3971TIP3    H111856   6.249   5.555   1.305
 3971TIP3    H211857   6.222   5.448   1.409
 3972TIP3   OH211858   7.564   2.638   2.981
 3972TIP3    H111859   7.492   2.692   3.012
 3972TIP3    H211860   7.607   2.692   2.914
 3973TIP3   OH211861   6.602   2.597   3.994
 3973TIP3    H111862   6.641   2.679   4.023
 3973TIP3    H211863   6.650   2.575   3.914
 3974TIP3   OH211864   5.566   0.988   1.568
 3974TIP3    H111865   5.609   1.044   1.632
 3974TIP3    H211866   5.626   0.913   1.557
 3975TIP3   OH211867   4.939   1.684   4.206
 3975TIP3    H111868   4.862   1.735   4.231
 3975TIP3    H211869   4.909   1.631   4.132
 3976TIP3   OH211870   3.491   3.915   2.916
 3976TIP3    H111871   3.489   3.971   2.838
 3976TIP3    H211872   3.579   3.927   2.951
 3977TIP3   OH211873   6.648   6.271   0.857
 3977TIP3    H111874   6.622   6.296   0.945
 3977TIP3    H211875   6.733   6.311   0.844
 3978TIP3   OH211876   1.116   6.365   6.052
 3978TIP3    H111877   1.027   6.396   6.073
 3978TIP3    H211878   1.104   6.274   6.027
 3979TIP3   OH211879   3.023   2.760   6.085
 3979TIP3    H111880   3.063   2.847   6.087
 3979TIP3    H211881   3.012   2.741   5.992
 3980TIP3   OH211882   1.599   0.799   5.364
 3980TIP3    H111883   1.665   0.774   5.429
 3980TIP3    H211884   1.650   0.835   5.292
 3981TIP3   OH211885   3.488   6.312   3.141
 3981TIP3    H111886   3.494   6.386   3.080
 3981TIP3    H211887   3.402   6.273   3.123
 3982TIP3   OH211888   3.336   0.345   5.210
 3982TIP3    H111889   3.320   0.283   5.281
 3982TIP3    H211890   3.253   0.348   5.162
 3983TIP3   OH211891   3.077   3.584   0.462
 3983TIP3    H111892   2.993   3.553   0.496
 3983TIP3    H211893   3.054   3.648   0.395
 3984TIP3   OH211894   1.423   2.063   5.626
 3984TIP3    H111895   1.470   2.133   5.669
 3984TIP3    H211896   1.480   2.035   5.555
 3985TIP3   OH211897   2.595   4.966   4.127
 3985TIP3    H111898   2.630   5.003   4.208
 3985TIP3    H211899   2.544   5.037   4.088
 3986TIP3   OH211900   3.226   1.595   1.949
 3986TIP3    H111901   3.180   1.542   1.884
 3986TIP3    H211902   3.161   1.614   2.016
 3987TIP3   OH211903   0.239   2.666   5.840
 3987TIP3    H111904   0.159   2.629   5.804
 3987TIP3    H211905   0.234   2.759   5.821
 3988TIP3   OH211906   4.616   4.073   2.558
 3988TIP3    H111907   4.600   4.151   2.611
 3988TIP3    H211908   4.636   4.004   2.621
 3989TIP3   OH211909   1.635   4.900   3.988
 3989TIP3    H111910   1.553   4.852   3.994
 3989TIP3    H211911   1.659   4.918   4.079
 3990TIP3   OH211912   1.374   4.567   5.670
 3990TIP3    H111913   1.318   4.501   5.712
 3990TIP3    H211914   1.325   4.649   5.679
 3991TIP3   OH211915   0.765   6.398   2.963
 3991TIP3    H111916   0.728   6.313   2.940
 3991TIP3    H211917   0.859   6.387   2.951
 3992TIP3   OH211918   3.793   3.146   0.012
 3992TIP3    H111919   3.826   3.062   0.044
 3992TIP3    H211920   3.803   3.205   0.086
 3993TIP3   OH211921   0.440   7.636   1.475
 3993TIP3    H111922   0.522   7.600   1.442
 3993TIP3    H211923   0.443   7.619   1.569
 3994TIP3   OH211924   2.044   6.713   1.138
 3994TIP3    H111925   2.084   6.640   1.186
 3994TIP3    H211926   1.965   6.676   1.100
 3995TIP3   OH211927   5.520   5.864   0.664
 3995TIP3    H111928   5.426   5.873   0.681
 3995TIP3    H211929   5.549   5.952   0.643
 3996TIP3   OH211930   4.999   3.374   1.122
 3996TIP3    H111931   5.077   3.391   1.175
 3996TIP3    H211932   4.925   3.392   1.180
 3997TIP3   OH211933   2.522   2.780   0.582
 3997TIP3    H111934   2.557   2.814   0.499
 3997TIP3    H211935   2.428   2.771   0.566
 3998TIP3   OH211936   4.791   5.581   5.384
 3998TIP3    H111937   4.754   5.568   5.472
 3998TIP3    H211938   4.875   5.534   5.387
 3999TIP3   OH211939   3.436   1.697   2.887
 3999TIP3    H111940   3.449   1.771   2.829
 3999TIP3    H211941   3.360   1.721   2.940
 4000TIP3   OH211942   4.378   7.130   0.060
 4000TIP3    H111943   4.415   7.059   0.112
 4000TIP3    H211944   4.395   7.209   0.111
 4001TIP3   OH211945   2.765   3.277   0.312
 4001TIP3    H111946   2.825   3.211   0.276
 4001TIP3    H211947   2.793   3.287   0.403
 4002TIP3   OH211948   6.416   5.024   4.728
 4002TIP3    H111949   6.365   4.947   4.754
 4002TIP3    H211950   6.357   5.098   4.743
 4003TIP3   OH211951   6.983   4.477   0.501
 4003TIP3    H111952   7.073   4.448   0.488
 4003TIP3    H211953   6.933   4.396   0.512
 4004TIP3   OH211954   1.514   3.597   2.062
 4004TIP3    H111955   1.495   3.681   2.102
 4004TIP3    H211956   1.461   3.534   2.111
 4005TIP3   OH211957   6.341   1.233   1.169
 4005TIP3    H111958   6.282   1.274   1.105
 4005TIP3    H211959   6.361   1.147   1.132
 4006TIP3   OH211960   1.384   1.705   1.338
 4006TIP3    H111961   1.313   1.748   1.386
 4006TIP3    H211962   1.457   1.704   1.400
 4007TIP3   OH211963   4.787   1.119   1.996
 4007TIP3    H111964   4.796   1.057   1.924
 4007TIP3    H211965   4.719   1.081   2.051
 4008TIP3   OH211966   0.811   3.699   2.993
 4008TIP3    H111967   0.771   3.759   2.930
 4008TIP3    H211968   0.783   3.732   3.078
 4009TIP3   OH211969   6.520   2.060   1.624
 4009TIP3    H111970   6.603   2.017   1.604
 4009TIP3    H211971   6.492   2.022   1.707
 4010TIP3   OH211972   8.090   5.619   1.721
 4010TIP3    H111973   8.156   5.589   1.659
 4010TIP3    H211974   8.046   5.538   1.750
 4011TIP3   OH211975   3.811   2.167   0.883
 4011TIP3    H111976   3.834   2.137   0.795
 4011TIP3    H211977   3.727   2.212   0.873
 4012TIP3   OH211978   0.697   0.509   3.512
 4012TIP3    H111979   0.690   0.428   3.460
 4012TIP3    H211980   0.788   0.509   3.542
 4013TIP3   OH211981   3.495   0.837   1.294
 4013TIP3    H111982   3.403   0.811   1.299
 4013TIP3    H211983   3.542   0.772   1.346
 4014TIP3   OH211984   0.115   1.481   4.877
 4014TIP3    H111985   0.172   1.447   4.808
 4014TIP3    H211986   0.168   1.474   4.957
 4015TIP3   OH211987   0.847   2.927   2.767
 4015TIP3    H111988   0.893   2.849   2.798
 4015TIP3    H211989   0.791   2.896   2.696
 4016TIP3   OH211990   4.531   0.091   3.296
 4016TIP3    H111991   4.580   0.166   3.263
 4016TIP3    H211992   4.466   0.073   3.227
 4017TIP3   OH211993   1.127   7.573   0.113
 4017TIP3    H111994   1.159   7.601   0.027
 4017TIP3    H211995   1.052   7.629   0.131
 4018TIP3   OH211996   1.159   2.543   4.247
 4018TIP3    H111997   1.118   2.610   4.303
 4018TIP3    H211998   1.249   2.573   4.237
 4019TIP3   OH211999  -0.048   0.574   6.701
 4019TIP3    H112000  -0.061   0.564   6.607
 4019TIP3    H212001   0.046   0.560   6.714
 4020TIP3   OH212002   2.665  -0.034   5.218
 4020TIP3    H112003   2.737  -0.069   5.166
 4020TIP3    H212004   2.663   0.059   5.195
 4021TIP3   OH212005   6.828   3.195   4.210
 4021TIP3    H112006   6.841   3.179   4.304
 4021TIP3    H212007   6.745   3.242   4.205
 4022TIP3   OH212008   2.127   4.822   4.042
 4022TIP3    H112009   2.110   4.913   4.066
 4022TIP3    H212010   2.176   4.787   4.117
 4023TIP3   OH212011   7.405   0.087   3.937
 4023TIP3    H112012   7.494   0.113   3.961
 4023TIP3    H212013   7.392   0.003   3.980
 4024TIP3   OH212014   5.832   3.098   6.675
 4024TIP3    H112015   5.876   3.060   6.752
 4024TIP3    H212016   5.853   3.038   6.603
 4025TIP3   OH212017   7.006   2.909   4.492
 4025TIP3    H112018   6.967   2.867   4.416
 4025TIP3    H212019   6.947   2.887   4.564
 4026TIP3   OH212020   7.723   4.364   2.065
 4026TIP3    H112021   7.658   4.327   2.005
 4026TIP3    H212022   7.807   4.346   2.023
 4027TIP3   OH212023   3.059   3.327   4.359
 4027TIP3    H112024   3.143   3.334   4.406
 4027TIP3    H212025   3.024   3.416   4.361
 4028TIP3   OH212026   4.035   7.452   6.681
 4028TIP3    H112027   4.009   7.360   6.675
 4028TIP3    H212028   4.101   7.454   6.751
 4029TIP3   OH212029   0.433   2.604   2.592
 4029TIP3    H112030   0.528   2.614   2.586
 4029TIP3    H212031   0.399   2.635   2.508
 4030TIP3   OH212032   2.957   4.125   2.593
 4030TIP3    H112033   2.941   4.195   2.657
 4030TIP3    H212034   2.961   4.045   2.645
 4031TIP3   OH212035   3.340   2.182   0.680
 4031TIP3    H112036   3.380   2.174   0.593
 4031TIP3    H212037   3.257   2.226   0.664
 4032TIP3   OH212038   3.417   1.885   3.423
 4032TIP3    H112039   3.482   1.857   3.488
 4032TIP3    H212040   3.381   1.803   3.389
 4033TIP3   OH212041   6.397   0.564   1.856
 4033TIP3    H112042   6.336   0.571   1.782
 4033TIP3    H212043   6.456   0.493   1.832
 4034TIP3   OH212044   0.810   1.380   2.803
 4034TIP3    H112045   0.890   1.388   2.855
 4034TIP3    H212046   0.840   1.384   2.712
 4035TIP3   OH212047   3.837   5.182   1.341
 4035TIP3    H112048   3.881   5.120   1.282
 4035TIP3    H212049   3.746   5.154   1.342
 4036TIP3   OH212050   7.357   1.849   1.918
 4036TIP3    H112051   7.396   1.922   1.870
 4036TIP3    H212052   7.394   1.771   1.876
 4037TIP3   OH212053   1.157   2.046   2.314
 4037TIP3    H112054   1.221   2.117   2.321
 4037TIP3    H212055   1.183   1.984   2.382
 4038TIP3   OH212056   3.198   2.384   5.995
 4038TIP3    H112057   3.275   2.345   6.035
 4038TIP3    H212058   3.228   2.414   5.909
 4039TIP3   OH212059   6.590   1.387   1.196
 4039TIP3    H112060   6.622   1.371   1.108
 4039TIP3    H212061   6.508   1.338   1.202
 4040TIP3   OH212062   3.972   6.126   5.896
 4040TIP3    H112063   3.938   6.214   5.910
 4040TIP3    H212064   4.012   6.129   5.809
 4041TIP3   OH212065   2.045   1.741   6.685
 4041TIP3    H112066   2.125   1.773   6.728
 4041TIP3    H212067   1.989   1.713   6.757
 4042TIP3   OH212068   6.746   0.593   6.644
 4042TIP3    H112069   6.704   0.575   6.729
 4042TIP3    H212070   6.673   0.602   6.583
 4043TIP3   OH212071   2.622   5.068   4.625
 4043TIP3    H112072   2.695   5.087   4.683
 4043TIP3    H212073   2.614   4.972   4.627
 4044TIP3   OH212074   6.948   5.656   3.396
 4044TIP3    H112075   7.008   5.662   3.471
 4044TIP3    H212076   6.944   5.562   3.377
 4045TIP3   OH212077   0.488   2.813   6.727
 4045TIP3    H112078   0.393   2.803   6.719
 4045TIP3    H212079   0.501   2.906   6.743
 4046TIP3   OH212080   3.429   3.977   0.361
 4046TIP3    H112081   3.452   4.070   0.361
 4046TIP3    H212082   3.341   3.974   0.325
 4047TIP3   OH212083   3.505   0.735   4.994
 4047TIP3    H112084   3.522   0.679   4.918
 4047TIP3    H212085   3.503   0.675   5.068
 4048TIP3   OH212086   0.435   0.359   0.471
 4048TIP3    H112087   0.418   0.438   0.420
 4048TIP3    H212088   0.357   0.349   0.526
 4049TIP3   OH212089   7.751   6.337   4.145
 4049TIP3    H112090   7.832   6.371   4.108
 4049TIP3    H212091   7.737   6.388   4.225
 4050TIP3   OH212092   2.941   7.685   1.479
 4050TIP3    H112093   2.855   7.716   1.509
 4050TIP3    H212094   2.932   7.678   1.384
 4051TIP3   OH212095   6.309   4.216   5.752
 4051TIP3    H112096   6.372   4.144   5.741
 4051TIP3    H212097   6.320   4.269   5.673
 4052TIP3   OH212098   5.766   7.552   1.490
 4052TIP3    H112099   5.840   7.607   1.463
 4052TIP3    H212100   5.806   7.486   1.546
 4053TIP3   OH212101   6.172   6.114   6.153
 4053TIP3    H112102   6.120   6.051   6.204
 4053TIP3    H212103   6.110   6.181   6.127
 4054TIP3   OH212104   7.162   7.412   6.070
 4054TIP3    H112105   7.206   7.350   6.012
 4054TIP3    H212106   7.232   7.447   6.126
 4055TIP3   OH212107   6.617   2.666   3.245
 4055TIP3    H112108   6.580   2.589   3.288
 4055TIP3    H212109   6.587   2.660   3.155
 4056TIP3   OH212110   6.039   1.602   1.539
 4056TIP3    H112111   6.073   1.690   1.559
 4056TIP3    H212112   6.001   1.610   1.452
 4057TIP3   OH212113   1.559   2.408   6.513
 4057TIP3    H112114   1.484   2.371   6.467
 4057TIP3    H212115   1.522   2.440   6.596
 4058TIP3   OH212116   6.595   1.929  -0.053
 4058TIP3    H112117   6.611   1.917   0.041
 4058TIP3    H212118   6.665   1.988  -0.082
 4059TIP3   OH212119   7.155   4.555   6.072
 4059TIP3    H112120   7.110   4.635   6.044
 4059TIP3    H212121   7.177   4.571   6.163
 4060TIP3   OH212122   0.354   0.975   6.126
 4060TIP3    H112123   0.348   1.054   6.180
 4060TIP3    H212124   0.448   0.961   6.112
 4061TIP3   OH212125   0.895   2.246   4.635
 4061TIP3    H112126   0.912   2.188   4.709
 4061TIP3    H212127   0.980   2.286   4.616
 4062TIP3   OH212128   5.183   1.355   4.154
 4062TIP3    H112129   5.234   1.291   4.204
 4062TIP3    H212130   5.155   1.419   4.219
 4063TIP3   OH212131   0.044   0.861   6.421
 4063TIP3    H112132   0.124   0.914   6.420
 4063TIP3    H212133  -0.007   0.897   6.494
 4064TIP3   OH212134   1.585   7.013   4.466
 4064TIP3    H112135   1.607   6.960   4.543
 4064TIP3    H212136   1.495   6.989   4.445
 4065TIP3   OH212137   8.264   6.371   6.113
 4065TIP3    H112138   8.175   6.337   6.101
 4065TIP3    H212139   8.251   6.456   6.155
 4066TIP3   OH212140   0.337   1.353   1.663
 4066TIP3    H112141   0.341   1.422   1.729
 4066TIP3    H212142   0.265   1.380   1.605
 4067TIP3   OH212143   3.498   6.795   5.300
 4067TIP3    H112144   3.407   6.798   5.270
 4067TIP3    H212145   3.534   6.880   5.275
 4068TIP3   OH212146   0.238   5.141   1.376
 4068TIP3    H112147   0.155   5.155   1.420
 4068TIP3    H212148   0.237   5.048   1.352
 4069TIP3   OH212149   1.106   3.682   5.141
 4069TIP3    H112150   1.149   3.664   5.224
 4069TIP3    H212151   1.145   3.764   5.110
 4070TIP3   OH212152   1.367   2.141   1.129
 4070TIP3    H112153   1.349   2.144   1.223
 4070TIP3    H212154   1.427   2.213   1.113
 4071TIP3   OH212155   7.587   0.333   1.060
 4071TIP3    H112156   7.511   0.333   1.002
 4071TIP3    H212157   7.662   0.322   1.002
 4072TIP3   OH212158   3.556   5.803   3.730
 4072TIP3    H112159   3.549   5.737   3.799
 4072TIP3    H212160   3.635   5.853   3.753
 4073TIP3   OH212161   7.917   7.581   4.072
 4073TIP3    H112162   7.925   7.553   4.163
 4073TIP3    H212163   7.972   7.520   4.023
 4074TIP3   OH212164   4.282   4.502   3.792
 4074TIP3    H112165   4.297   4.592   3.764
 4074TIP3    H212166   4.249   4.458   3.714
 4075TIP3   OH212167   2.320   5.614   3.368
 4075TIP3    H112168   2.312   5.708   3.350
 4075TIP3    H212169   2.383   5.583   3.302
 4076TIP3   OH212170   2.490   6.440   1.155
 4076TIP3    H112171   2.554   6.505   1.127
 4076TIP3    H212172   2.474   6.461   1.247
 4077TIP3   OH212173   6.241   1.113   0.198
 4077TIP3    H112174   6.158   1.104   0.150
 4077TIP3    H212175   6.308   1.092   0.133
 4078TIP3   OH212176   2.021   7.571   1.544
 4078TIP3    H112177   1.985   7.654   1.511
 4078TIP3    H212178   2.015   7.511   1.470
 4079TIP3   OH212179   0.534   1.952   2.887
 4079TIP3    H112180   0.588   2.028   2.865
 4079TIP3    H212181   0.553   1.887   2.819
 4080TIP3   OH212182   8.064   3.222   0.920
 4080TIP3    H112183   8.107   3.285   0.863
 4080TIP3    H212184   7.975   3.255   0.929
 4081TIP3   OH212185   3.600   3.936   3.755
 4081TIP3    H112186   3.591   3.987   3.836
 4081TIP3    H212187   3.672   3.876   3.773
 4082TIP3   OH212188   4.939   6.249   5.050
 4082TIP3    H112189   4.891   6.280   5.127
 4082TIP3    H212190   4.887   6.279   4.975
 4083TIP3   OH212191   0.607   2.615   1.689
 4083TIP3    H112192   0.675   2.552   1.665
 4083TIP3    H212193   0.552   2.568   1.752
 4084TIP3   OH212194   2.817   2.661   1.034
 4084TIP3    H112195   2.864   2.661   0.951
 4084TIP3    H212196   2.726   2.641   1.010
 4085TIP3   OH212197   4.060   5.223   3.611
 4085TIP3    H112198   3.973   5.234   3.650
 4085TIP3    H212199   4.084   5.311   3.582
 4086TIP3   OH212200   4.344   3.130   4.329
 4086TIP3    H112201   4.349   3.157   4.421
 4086TIP3    H212202   4.277   3.062   4.328
 4087TIP3   OH212203   2.041   0.186   5.005
 4087TIP3    H112204   1.965   0.243   5.022
 4087TIP3    H212205   2.007   0.097   5.015
 4088TIP3   OH212206   4.068   3.228   2.691
 4088TIP3    H112207   4.021   3.252   2.771
 4088TIP3    H212208   3.999   3.212   2.627
 4089TIP3   OH212209   4.840   0.479   2.804
 4089TIP3    H112210   4.911   0.514   2.750
 4089TIP3    H212211   4.761   0.520   2.770
 4090TIP3   OH212212   1.798   3.039   0.441
 4090TIP3    H112213   1.716   3.075   0.408
 4090TIP3    H212214   1.845   3.115   0.476
 4091TIP3   OH212215   0.104   0.315   5.997
 4091TIP3    H112216   0.056   0.237   5.968
 4091TIP3    H212217   0.037   0.374   6.030
 4092TIP3   OH212218   7.192   6.210   2.157
 4092TIP3    H112219   7.175   6.304   2.150
 4092TIP3    H212220   7.278   6.204   2.198
 4093TIP3   OH212221   5.536   6.828   2.185
 4093TIP3    H112222   5.475   6.901   2.188
 4093TIP3    H212223   5.600   6.846   2.254
 4094TIP3   OH212224   7.764   7.635   5.000
 4094TIP3    H112225   7.809   7.590   5.071
 4094TIP3    H212226   7.829   7.697   4.966
 4095TIP3   OH212227   6.041   6.685   3.956
 4095TIP3    H112228   6.118   6.685   3.899
 4095TIP3    H212229   6.045   6.769   4.002
 4096TIP3   OH212230   5.558   0.579   2.702
 4096TIP3    H112231   5.503   0.569   2.625
 4096TIP3    H212232   5.546   0.498   2.751
 4097TIP3   OH212233   7.712   0.028   3.977
 4097TIP3    H112234   7.787  -0.025   3.949
 4097TIP3    H212235   7.699   0.091   3.906
 4098TIP3   OH212236   1.692   7.658   3.135
 4098TIP3    H112237   1.623   7.638   3.198
 4098TIP3    H212238   1.759   7.703   3.186
 4099TIP3   OH212239   7.556   0.312   2.101
 4099TIP3    H112240   7.556   0.402   2.067
 4099TIP3    H212241   7.610   0.316   2.180
 4100TIP3   OH212242   6.268   0.006   0.532
 4100TIP3    H112243   6.306  -0.042   0.458
 4100TIP3    H212244   6.290   0.097   0.515
 4101TIP3   OH212245   4.436   4.550   0.709
 4101TIP3    H112246   4.358   4.525   0.757
 4101TIP3    H212247   4.434   4.646   0.708
 4102TIP3   OH212248   7.539   4.255   3.953
 4102TIP3    H112249   7.630   4.231   3.973
 4102TIP3    H212250   7.501   4.176   3.915
 4103TIP3   OH212251   5.240   3.392   1.285
 4103TIP3    H112252   5.207   3.353   1.367
 4103TIP3    H212253   5.309   3.452   1.313
 4104TIP3   OH212254   4.211   1.888   6.702
 4104TIP3    H112255   4.307   1.890   6.707
 4104TIP3    H212256   4.184   1.974   6.734
 4105TIP3   OH212257   7.123   6.591   0.870
 4105TIP3    H112258   7.190   6.614   0.805
 4105TIP3    H212259   7.063   6.534   0.822
 4106TIP3   OH212260   5.104   4.236   4.285
 4106TIP3    H112261   5.020   4.220   4.243
 4106TIP3    H212262   5.124   4.156   4.333
 4107TIP3   OH212263   1.641   1.020   6.693
 4107TIP3    H112264   1.560   1.068   6.677
 4107TIP3    H212265   1.618   0.928   6.675
 4108TIP3   OH212266   7.702   3.535   4.154
 4108TIP3    H112267   7.668   3.517   4.242
 4108TIP3    H212268   7.797   3.533   4.164
 4109TIP3   OH212269   0.441   1.977   5.504
 4109TIP3    H112270   0.416   1.918   5.575
 4109TIP3    H212271   0.501   2.040   5.544
 4110TIP3   OH212272   0.158   4.623   3.244
 4110TIP3    H112273   0.072   4.628   3.285
 4110TIP3    H212274   0.177   4.712   3.216
 4111TIP3   OH212275   3.632   7.786   0.260
 4111TIP3    H112276   3.620   7.749   0.173
 4111TIP3    H212277   3.719   7.757   0.287
 4112TIP3   OH212278   4.858   4.707   5.608
 4112TIP3    H112279   4.870   4.613   5.624
 4112TIP3    H212280   4.935   4.732   5.557
 4113TIP3   OH212281   0.674   2.407   6.625
 4113TIP3    H112282   0.639   2.318   6.631
 4113TIP3    H212283   0.598   2.463   6.614
 4114TIP3   OH212284   2.296   4.732   2.442
 4114TIP3    H112285   2.263   4.709   2.355
 4114TIP3    H212286   2.237   4.801   2.473
 4115TIP3   OH212287   1.131   1.122   1.181
 4115TIP3    H112288   1.142   1.028   1.194
 4115TIP3    H212289   1.192   1.162   1.243
 4116TIP3   OH212290   6.176   3.103   2.852
 4116TIP3    H112291   6.127   3.036   2.900
 4116TIP3    H212292   6.153   3.088   2.761
 4117TIP3   OH212293   2.565   2.042   5.391
 4117TIP3    H112294   2.480   2.040   5.434
 4117TIP3    H212295   2.569   1.960   5.341
 4118TIP3   OH212296   5.467   3.040   4.864
 4118TIP3    H112297   5.391   3.018   4.917
 4118TIP3    H212298   5.517   2.958   4.860
 4119TIP3   OH212299   2.396   6.290   6.473
 4119TIP3    H112300   2.442   6.285   6.557
 4119TIP3    H212301   2.375   6.199   6.452
 4120TIP3   OH212302   3.881   5.567   3.812
 4120TIP3    H112303   3.954   5.622   3.786
 4120TIP3    H212304   3.902   5.539   3.901
 4121TIP3   OH212305   7.532   5.294   0.351
 4121TIP3    H112306   7.485   5.246   0.283
 4121TIP3    H212307   7.619   5.256   0.352
 4122TIP3   OH212308   1.699   6.148   4.626
 4122TIP3    H112309   1.778   6.196   4.602
 4122TIP3    H212310   1.703   6.140   4.721
 4123TIP3   OH212311   5.985   7.105   3.983
 4123TIP3    H112312   5.922   7.033   3.972
 4123TIP3    H212313   5.934   7.184   3.964
 4124TIP3   OH212314   7.130   4.158   5.120
 4124TIP3    H112315   7.126   4.254   5.121
 4124TIP3    H212316   7.042   4.131   5.095
 4125TIP3   OH212317   6.570   6.344   1.852
 4125TIP3    H112318   6.567   6.439   1.858
 4125TIP3    H212319   6.596   6.314   1.939
 4126TIP3   OH212320   0.551   4.300   2.539
 4126TIP3    H112321   0.472   4.286   2.487
 4126TIP3    H212322   0.602   4.220   2.527
 4127TIP3   OH212323   0.139   6.854   1.712
 4127TIP3    H112324   0.140   6.950   1.707
 4127TIP3    H212325   0.229   6.828   1.696
 4128TIP3   OH212326   2.674   0.344   0.855
 4128TIP3    H112327   2.704   0.355   0.945
 4128TIP3    H212328   2.669   0.249   0.843
 4129TIP3   OH212329   3.987   5.399   5.066
 4129TIP3    H112330   3.941   5.336   5.010
 4129TIP3    H212331   4.014   5.348   5.142
 4130TIP3   OH212332   0.349   7.655   4.745
 4130TIP3    H112333   0.352   7.629   4.837
 4130TIP3    H212334   0.395   7.586   4.698
 4131TIP3   OH212335   2.198   2.473   2.692
 4131TIP3    H112336   2.240   2.537   2.750
 4131TIP3    H212337   2.269   2.443   2.635
 4132TIP3   OH212338   7.867   0.883   5.373
 4132TIP3    H112339   7.944   0.923   5.412
 4132TIP3    H212340   7.797   0.898   5.436
 4133TIP3   OH212341   6.274   7.200   0.171
 4133TIP3    H112342   6.227   7.116   0.175
 4133TIP3    H212343   6.359   7.182   0.209
 4134TIP3   OH212344   2.327   4.503   3.572
 4134TIP3    H112345   2.396   4.476   3.512
 4134TIP3    H212346   2.365   4.491   3.659
 4135TIP3   OH212347   5.850   7.335   1.667
 4135TIP3    H112348   5.768   7.313   1.624
 4135TIP3    H212349   5.916   7.286   1.620
 4136TIP3   OH212350   1.236   6.016   4.696
 4136TIP3    H112351   1.160   6.053   4.740
 4136TIP3    H212352   1.306   6.020   4.761
 4137TIP3   OH212353   3.999   1.761   4.063
 4137TIP3    H112354   4.077   1.794   4.106
 4137TIP3    H212355   3.931   1.826   4.081
 4138TIP3   OH212356  -0.019   7.097   3.782
 4138TIP3    H112357  -0.035   7.152   3.706
 4138TIP3    H212358   0.055   7.041   3.756
 4139TIP3   OH212359   2.079   7.680   3.991
 4139TIP3    H112360   2.096   7.768   4.024
 4139TIP3    H212361   2.007   7.691   3.929
 4140TIP3   OH212362   2.867   3.278   0.583
 4140TIP3    H112363   2.862   3.371   0.602
 4140TIP3    H212364   2.917   3.241   0.656
 4141TIP3   OH212365   2.992   0.862   0.129
 4141TIP3    H112366   2.900   0.835   0.129
 4141TIP3    H212367   2.990   0.950   0.167
 4142TIP3   OH212368   6.677   6.188   1.380
 4142TIP3    H112369   6.663   6.209   1.288
 4142TIP3    H212370   6.676   6.273   1.424
 4143TIP3   OH212371   3.166   3.814   2.928
 4143TIP3    H112372   3.120   3.756   2.989
 4143TIP3    H212373   3.231   3.858   2.982
 4144TIP3   OH212374   1.743   5.746   5.433
 4144TIP3    H112375   1.765   5.797   5.355
 4144TIP3    H212376   1.667   5.790   5.470
 4145TIP3   OH212377   0.628   1.051   0.529
 4145TIP3    H112378   0.613   1.003   0.610
 4145TIP3    H212379   0.670   1.133   0.557
 4146TIP3   OH212380   2.459   3.204   0.348
 4146TIP3    H112381   2.388   3.182   0.288
 4146TIP3    H212382   2.516   3.262   0.297
 4147TIP3   OH212383   5.303   4.209   1.975
 4147TIP3    H112384   5.312   4.302   1.995
 4147TIP3    H212385   5.378   4.168   2.017
 4148TIP3   OH212386   5.115   4.704   5.427
 4148TIP3    H112387   5.156   4.658   5.501
 4148TIP3    H212388   5.184   4.710   5.361
 4149TIP3   OH212389   8.074   1.115   1.233
 4149TIP3    H112390   8.127   1.194   1.244
 4149TIP3    H212391   8.090   1.088   1.142
 4150TIP3   OH212392   8.253   6.764   4.727
 4150TIP3    H112393   8.336   6.741   4.770
 4150TIP3    H212394   8.187   6.750   4.795
 4151TIP3   OH212395   3.724   1.024   0.624
 4151TIP3    H112396   3.785   0.954   0.601
 4151TIP3    H212397   3.719   1.021   0.720
 4152TIP3   OH212398   3.927  -0.043   5.731
 4152TIP3    H112399   3.846   0.003   5.712
 4152TIP3    H212400   3.991  -0.005   5.671
 4153TIP3   OH212401   4.593   4.458   5.013
 4153TIP3    H112402   4.584   4.547   4.979
 4153TIP3    H212403   4.503   4.427   5.025
 4154TIP3   OH212404   1.854   7.028   1.893
 4154TIP3    H112405   1.831   7.018   1.986
 4154TIP3    H212406   1.924   6.965   1.879
 4155TIP3   OH212407   2.126   5.494   5.779
 4155TIP3    H112408   2.217   5.474   5.759
 4155TIP3    H212409   2.130   5.559   5.849
 4156TIP3   OH212410   5.595   1.309   5.255
 4156TIP3    H112411   5.687   1.336   5.250
 4156TIP3    H212412   5.560   1.329   5.169
 4157TIP3   OH212413   1.284   7.626   0.340
 4157TIP3    H112414   1.280   7.722   0.336
 4157TIP3    H212415   1.249   7.597   0.256
 4158TIP3   OH212416   4.045   0.255   5.066
 4158TIP3    H112417   3.971   0.200   5.040
 4158TIP3    H212418   4.015   0.300   5.145
 4159TIP3   OH212419   2.480   2.106   4.326
 4159TIP3    H112420   2.574   2.122   4.331
 4159TIP3    H212421   2.442   2.193   4.313
 4160TIP3   OH212422   7.584   2.991   4.631
 4160TIP3    H112423   7.517   3.030   4.575
 4160TIP3    H212424   7.540   2.976   4.714
 4161TIP3   OH212425   4.363   3.307   3.955
 4161TIP3    H112426   4.277   3.281   3.922
 4161TIP3    H212427   4.390   3.235   4.012
 4162TIP3   OH212428   7.662   4.877   4.491
 4162TIP3    H112429   7.607   4.802   4.517
 4162TIP3    H212430   7.735   4.837   4.444
 4163TIP3   OH212431   0.696   6.059   3.933
 4163TIP3    H112432   0.791   6.052   3.925
 4163TIP3    H212433   0.662   5.986   3.880
 4164TIP3   OH212434   2.168   0.472   5.845
 4164TIP3    H112435   2.169   0.531   5.921
 4164TIP3    H212436   2.196   0.388   5.881
 4165TIP3   OH212437   0.436   0.305   5.140
 4165TIP3    H112438   0.520   0.325   5.180
 4165TIP3    H212439   0.415   0.381   5.086
 4166TIP3   OH212440   5.252   0.927   2.180
 4166TIP3    H112441   5.287   0.963   2.261
 4166TIP3    H212442   5.160   0.955   2.179
 4167TIP3   OH212443   8.308   3.436   2.058
 4167TIP3    H112444   8.364   3.407   2.129
 4167TIP3    H212445   8.226   3.463   2.100
 4168TIP3   OH212446   2.125   0.973   4.318
 4168TIP3    H112447   2.099   0.941   4.232
 4168TIP3    H212448   2.061   0.934   4.378
 4169TIP3   OH212449   8.002   4.483   1.158
 4169TIP3    H112450   7.952   4.553   1.200
 4169TIP3    H212451   7.936   4.425   1.121
 4170TIP3   OH212452   7.460   7.154   5.921
 4170TIP3    H112453   7.550   7.129   5.941
 4170TIP3    H212454   7.408   7.077   5.944
 4171TIP3   OH212455   5.627   4.045   1.387
 4171TIP3    H112456   5.670   3.985   1.448
 4171TIP3    H212457   5.691   4.114   1.371
 4172TIP3   OH212458   7.392   6.542   3.950
 4172TIP3    H112459   7.416   6.628   3.914
 4172TIP3    H212460   7.462   6.484   3.922
 4173TIP3   OH212461   3.028   4.368   5.896
 4173TIP3    H112462   3.089   4.384   5.824
 4173TIP3    H212463   3.017   4.454   5.938
 4174TIP3   OH212464   3.708   0.168   4.053
 4174TIP3    H112465   3.622   0.163   4.094
 4174TIP3    H212466   3.735   0.077   4.044
 4175TIP3   OH212467   0.814   4.498   4.630
 4175TIP3    H112468   0.896   4.471   4.590
 4175TIP3    H212469   0.761   4.419   4.634
 4176TIP3   OH212470   1.208   0.972   2.418
 4176TIP3    H112471   1.198   0.889   2.371
 4176TIP3    H212472   1.168   0.957   2.503
 4177TIP3   OH212473   7.278   6.866   6.235
 4177TIP3    H112474   7.326   6.937   6.278
 4177TIP3    H212475   7.260   6.803   6.305
 4178TIP3   OH212476   1.129   7.037   0.873
 4178TIP3    H112477   1.081   7.014   0.953
 4178TIP3    H212478   1.089   7.120   0.845
 4179TIP3   OH212479   8.301   4.881   1.080
 4179TIP3    H112480   8.311   4.976   1.084
 4179TIP3    H212481   8.223   4.863   1.133
 4180TIP3   OH212482   2.988   4.861   0.527
 4180TIP3    H112483   3.058   4.917   0.493
 4180TIP3    H212484   3.035   4.790   0.572
 4181TIP3   OH212485   4.586   3.181   2.361
 4181TIP3    H112486   4.561   3.258   2.412
 4181TIP3    H212487   4.566   3.107   2.418
 4182TIP3   OH212488   5.907   6.125   2.896
 4182TIP3    H112489   5.885   6.171   2.815
 4182TIP3    H212490   5.835   6.061   2.907
 4183TIP3   OH212491   1.192   6.825   6.096
 4183TIP3    H112492   1.238   6.742   6.096
 4183TIP3    H212493   1.099   6.801   6.104
 4184TIP3   OH212494   2.184   2.378   0.696
 4184TIP3    H112495   2.103   2.374   0.748
 4184TIP3    H212496   2.155   2.402   0.608
 4185TIP3   OH212497   5.632   2.901   2.281
 4185TIP3    H112498   5.694   2.913   2.353
 4185TIP3    H212499   5.551   2.942   2.314
 4186TIP3   OH212500   2.780   5.708   2.630
 4186TIP3    H112501   2.762   5.704   2.536
 4186TIP3    H212502   2.843   5.780   2.639
 4187TIP3   OH212503   2.772   2.866   6.150
 4187TIP3    H112504   2.771   2.945   6.204
 4187TIP3    H212505   2.864   2.838   6.151
 4188TIP3   OH212506   3.786   6.259   0.484
 4188TIP3    H112507   3.856   6.275   0.547
 4188TIP3    H212508   3.752   6.347   0.464
 4189TIP3   OH212509   4.223   6.315   5.988
 4189TIP3    H112510   4.145   6.293   6.039
 4189TIP3    H212511   4.190   6.332   5.900
 4190TIP3   OH212512   6.801   3.474   6.162
 4190TIP3    H112513   6.813   3.565   6.133
 4190TIP3    H212514   6.884   3.452   6.204
 4191TIP3   OH212515   0.384   1.817   4.273
 4191TIP3    H112516   0.370   1.787   4.363
 4191TIP3    H212517   0.475   1.848   4.271
 4192TIP3   OH212518   7.573   4.841   2.238
 4192TIP3    H112519   7.626   4.777   2.191
 4192TIP3    H212520   7.494   4.794   2.263
 4193TIP3   OH212521   0.758   3.802   1.426
 4193TIP3    H112522   0.795   3.883   1.391
 4193TIP3    H212523   0.731   3.753   1.348
 4194TIP3   OH212524   8.141   6.102   1.955
 4194TIP3    H112525   8.232   6.127   1.971
 4194TIP3    H212526   8.141   6.006   1.961
 4195TIP3   OH212527   0.915   3.616   5.971
 4195TIP3    H112528   0.977   3.655   5.910
 4195TIP3    H212529   0.961   3.618   6.056
 4196TIP3   OH212530   5.315   7.448   5.735
 4196TIP3    H112531   5.224   7.449   5.764
 4196TIP3    H212532   5.350   7.532   5.764
 4197TIP3   OH212533   4.800   4.282   1.448
 4197TIP3    H112534   4.818   4.249   1.360
 4197TIP3    H212535   4.710   4.254   1.466
 4198TIP3   OH212536   4.479   5.174   5.869
 4198TIP3    H112537   4.407   5.123   5.830
 4198TIP3    H212538   4.481   5.255   5.817
 4199TIP3   OH212539   1.643   1.963   5.485
 4199TIP3    H112540   1.621   1.876   5.451
 4199TIP3    H212541   1.724   1.986   5.440
 4200TIP3   OH212542   1.740   7.272   4.803
 4200TIP3    H112543   1.759   7.355   4.760
 4200TIP3    H212544   1.790   7.207   4.752
 4201TIP3   OH212545   7.921   3.701   3.907
 4201TIP3    H112546   7.899   3.740   3.991
 4201TIP3    H212547   7.894   3.609   3.915
 4202TIP3   OH212548   6.294   7.342   3.759
 4202TIP3    H112549   6.215   7.307   3.717
 4202TIP3    H212550   6.276   7.436   3.769
 4203TIP3   OH212551   7.039   2.582   4.490
 4203TIP3    H112552   7.027   2.602   4.583
 4203TIP3    H212553   6.956   2.606   4.450
 4204TIP3   OH212554   7.969   2.595   4.641
 4204TIP3    H112555   7.883   2.636   4.630
 4204TIP3    H212556   8.013   2.608   4.558
 4205TIP3   OH212557   4.210   6.927   6.076
 4205TIP3    H112558   4.288   6.958   6.121
 4205TIP3    H212559   4.214   6.831   6.083
 4206TIP3   OH212560   3.372   6.339   3.843
 4206TIP3    H112561   3.339   6.375   3.925
 4206TIP3    H212562   3.297   6.339   3.784
 4207TIP3   OH212563   1.330   6.407   0.169
 4207TIP3    H112564   1.264   6.396   0.238
 4207TIP3    H212565   1.327   6.500   0.147
 4208TIP3   OH212566   5.402   7.832   4.346
 4208TIP3    H112567   5.487   7.801   4.376
 4208TIP3    H212568   5.338   7.780   4.396
 4209TIP3   OH212569   6.989   5.252   5.446
 4209TIP3    H112570   6.910   5.305   5.459
 4209TIP3    H212571   6.956   5.163   5.433
 4210TIP3   OH212572   3.086   5.674   5.129
 4210TIP3    H112573   3.077   5.723   5.210
 4210TIP3    H212574   3.117   5.738   5.065
 4211TIP3   OH212575   0.990   5.998   2.299
 4211TIP3    H112576   1.007   6.061   2.369
 4211TIP3    H212577   0.911   6.030   2.256
 4212TIP3   OH212578   4.663   1.417   2.860
 4212TIP3    H112579   4.726   1.429   2.930
 4212TIP3    H212580   4.579   1.443   2.898
 4213TIP3   OH212581   5.821   4.875   3.431
 4213TIP3    H112582   5.827   4.875   3.527
 4213TIP3    H212583   5.753   4.811   3.411
 4214TIP3   OH212584   2.105   1.608   0.327
 4214TIP3    H112585   2.168   1.537   0.343
 4214TIP3    H212586   2.022   1.573   0.357
 4215TIP3   OH212587   3.949   1.069   5.010
 4215TIP3    H112588   3.958   1.153   4.967
 4215TIP3    H212589   3.885   1.021   4.957
 4216TIP3   OH212590   0.916   2.089   4.873
 4216TIP3    H112591   0.996   2.037   4.869
 4216TIP3    H212592   0.846   2.025   4.886
 4217TIP3   OH212593   4.656   0.359   3.891
 4217TIP3    H112594   4.576   0.383   3.937
 4217TIP3    H212595   4.723   0.354   3.959
 4218TIP3   OH212596   1.145   2.001   5.820
 4218TIP3    H112597   1.177   2.007   5.730
 4218TIP3    H212598   1.168   2.085   5.859
 4219TIP3   OH212599   7.162   6.531   4.890
 4219TIP3    H112600   7.112   6.460   4.930
 4219TIP3    H212601   7.098   6.601   4.875
 4220TIP3   OH212602   1.200   4.668   0.902
 4220TIP3    H112603   1.265   4.652   0.970
 4220TIP3    H212604   1.250   4.706   0.829
 4221TIP3   OH212605   2.173   2.666   6.316
 4221TIP3    H112606   2.216   2.598   6.368
 4221TIP3    H212607   2.203   2.650   6.227
 4222TIP3   OH212608   2.722   6.652   0.130
 4222TIP3    H112609   2.699   6.564   0.099
 4222TIP3    H212610   2.644   6.705   0.110
 4223TIP3   OH212611   5.926   2.223   5.674
 4223TIP3    H112612   5.965   2.308   5.693
 4223TIP3    H212613   5.975   2.191   5.599
 4224TIP3   OH212614   6.073   7.195   4.499
 4224TIP3    H112615   6.052   7.198   4.406
 4224TIP3    H212616   6.000   7.148   4.540
 4225TIP3   OH212617   7.059   6.596   6.370
 4225TIP3    H112618   7.069   6.691   6.383
 4225TIP3    H212619   7.100   6.557   6.447
 4226TIP3   OH212620   5.564   0.419   3.459
 4226TIP3    H112621   5.547   0.333   3.498
 4226TIP3    H212622   5.626   0.401   3.388
 4227TIP3   OH212623   6.649   3.524   4.474
 4227TIP3    H112624   6.662   3.618   4.489
 4227TIP3    H212625   6.702   3.505   4.397
 4228TIP3   OH212626   5.992   3.768   0.130
 4228TIP3    H112627   5.990   3.674   0.116
 4228TIP3    H212628   6.058   3.801   0.069
 4229TIP3   OH212629   0.521   2.162   6.575
 4229TIP3    H112630   0.564   2.162   6.489
 4229TIP3    H212631   0.557   2.086   6.620
 4230TIP3   OH212632   1.606   6.753   0.538
 4230TIP3    H112633   1.610   6.812   0.613
 4230TIP3    H212634   1.697   6.749   0.506
 4231TIP3   OH212635   1.528   4.222   5.368
 4231TIP3    H112636   1.445   4.185   5.336
 4231TIP3    H212637   1.540   4.302   5.316
 4232TIP3   OH212638   4.392   4.228   1.865
 4232TIP3    H112639   4.373   4.235   1.958
 4232TIP3    H212640   4.341   4.152   1.836
 4233TIP3   OH212641   4.922   1.034   5.528
 4233TIP3    H112642   4.889   1.100   5.467
 4233TIP3    H212643   4.975   0.976   5.474
 4234TIP3   OH212644   7.587   1.575   0.034
 4234TIP3    H112645   7.513   1.531   0.076
 4234TIP3    H212646   7.656   1.576   0.101
 4235TIP3   OH212647   1.764   2.233   6.492
 4235TIP3    H112648   1.702   2.306   6.489
 4235TIP3    H212649   1.710   2.155   6.506
 4236TIP3   OH212650   6.048   4.749   0.567
 4236TIP3    H112651   6.107   4.680   0.598
 4236TIP3    H212652   5.970   4.701   0.536
 4237TIP3   OH212653   0.630   6.248   3.454
 4237TIP3    H112654   0.630   6.153   3.447
 4237TIP3    H212655   0.666   6.278   3.370
 4238TIP3   OH212656   1.719   7.011   1.563
 4238TIP3    H112657   1.664   7.087   1.578
 4238TIP3    H212658   1.723   7.003   1.467
 4239TIP3   OH212659   6.314   6.645   6.229
 4239TIP3    H112660   6.325   6.736   6.199
 4239TIP3    H212661   6.220   6.632   6.235
 4240TIP3   OH212662   2.653   7.777   6.238
 4240TIP3    H112663   2.635   7.728   6.319
 4240TIP3    H212664   2.743   7.754   6.216
 4241TIP3   OH212665   4.219   0.364   0.307
 4241TIP3    H112666   4.203   0.384   0.400
 4241TIP3    H212667   4.194   0.444   0.261
 4242TIP3   OH212668   6.165   1.896   1.146
 4242TIP3    H112669   6.095   1.845   1.187
 4242TIP3    H212670   6.245   1.858   1.181
 4243TIP3   OH212671   4.702   0.498   3.265
 4243TIP3    H112672   4.730   0.436   3.198
 4243TIP3    H212673   4.770   0.490   3.333
 4244TIP3   OH212674   5.307   5.755   4.608
 4244TIP3    H112675   5.348   5.756   4.694
 4244TIP3    H212676   5.226   5.805   4.618
 4245TIP3   OH212677   0.129   6.851   4.546
 4245TIP3    H112678   0.198   6.791   4.514
 4245TIP3    H212679   0.072   6.795   4.599
 4246TIP3   OH212680   4.860   5.352   0.106
 4246TIP3    H112681   4.793   5.316   0.047
 4246TIP3    H212682   4.830   5.441   0.125
 4247TIP3   OH212683   2.623   6.684   1.047
 4247TIP3    H112684   2.649   6.767   1.086
 4247TIP3    H212685   2.653   6.689   0.956
 4248TIP3   OH212686   2.545   0.131   0.514
 4248TIP3    H112687   2.612   0.199   0.523
 4248TIP3    H212688   2.507   0.124   0.602
 4249TIP3   OH212689   0.317   2.547   0.158
 4249TIP3    H112690   0.398   2.597   0.172
 4249TIP3    H212691   0.290   2.521   0.246
 4250TIP3   OH212692   0.313   6.872   6.334
 4250TIP3    H112693   0.378   6.940   6.348
 4250TIP3    H212694   0.331   6.838   6.246
 4251TIP3   OH212695   5.135   2.895   5.742
 4251TIP3    H112696   5.210   2.954   5.733
 4251TIP3    H212697   5.144   2.834   5.669
 4252TIP3   OH212698   0.515   0.952   2.441
 4252TIP3    H112699   0.569   0.884   2.482
 4252TIP3    H212700   0.425   0.926   2.460
 4253TIP3   OH212701   7.765   0.450   3.618
 4253TIP3    H112702   7.743   0.513   3.687
 4253TIP3    H212703   7.783   0.505   3.541
 4254TIP3   OH212704   4.197   5.156   1.287
 4254TIP3    H112705   4.185   5.121   1.375
 4254TIP3    H212706   4.229   5.246   1.301
 4255TIP3   OH212707   5.690   2.763   0.862
 4255TIP3    H112708   5.713   2.854   0.881
 4255TIP3    H212709   5.598   2.767   0.836
 4256TIP3   OH212710   7.275   1.111   6.670
 4256TIP3    H112711   7.346   1.049   6.681
 4256TIP3    H212712   7.310   1.194   6.700
 4257TIP3   OH212713   2.873   2.905   2.554
 4257TIP3    H112714   2.851   2.991   2.590
 4257TIP3    H212715   2.835   2.905   2.466
 4258TIP3   OH212716   3.736   1.593   6.534
 4258TIP3    H112717   3.667   1.538   6.497
 4258TIP3    H212718   3.817   1.546   6.515
 4259TIP3   OH212719   6.968   7.406   1.511
 4259TIP3    H112720   6.911   7.379   1.439
 4259TIP3    H212721   7.045   7.442   1.467
 4260TIP3   OH212722   3.238   5.347   4.910
 4260TIP3    H112723   3.215   5.432   4.873
 4260TIP3    H212724   3.333   5.343   4.904
 4261TIP3   OH212725   7.753   0.481   4.545
 4261TIP3    H112726   7.668   0.506   4.582
 4261TIP3    H212727   7.745   0.387   4.530
 4262TIP3   OH212728   3.386   2.215   4.043
 4262TIP3    H112729   3.476   2.245   4.030
 4262TIP3    H212730   3.342   2.232   3.960
 4263TIP3   OH212731   5.834   7.637   0.203
 4263TIP3    H112732   5.883   7.624   0.284
 4263TIP3    H212733   5.743   7.644   0.231
 4264TIP3   OH212734   5.056   0.283   1.395
 4264TIP3    H112735   4.981   0.234   1.361
 4264TIP3    H212736   5.108   0.218   1.442
 4265TIP3   OH212737   5.568   4.206   0.725
 4265TIP3    H112738   5.559   4.144   0.797
 4265TIP3    H212739   5.499   4.270   0.740
 4266TIP3   OH212740   6.379   0.236   5.800
 4266TIP3    H112741   6.414   0.171   5.861
 4266TIP3    H212742   6.381   0.318   5.848
 4267TIP3   OH212743   3.845   0.269   1.570
 4267TIP3    H112744   3.895   0.310   1.641
 4267TIP3    H212745   3.789   0.205   1.615
 4268TIP3   OH212746   3.131   0.888   3.828
 4268TIP3    H112747   3.204   0.908   3.887
 4268TIP3    H212748   3.093   0.807   3.863
 4269TIP3   OH212749   4.288   1.956   3.252
 4269TIP3    H112750   4.352   1.977   3.184
 4269TIP3    H212751   4.215   2.014   3.235
 4270TIP3   OH212752   3.097   1.618   6.600
 4270TIP3    H112753   3.101   1.710   6.628
 4270TIP3    H212754   3.019   1.584   6.643
 4271TIP3   OH212755   3.241   0.686   0.107
 4271TIP3    H112756   3.190   0.623   0.157
 4271TIP3    H212757   3.176   0.740   0.063
 4272TIP3   OH212758   4.332   2.309   3.676
 4272TIP3    H112759   4.328   2.360   3.757
 4272TIP3    H212760   4.280   2.358   3.613
 4273TIP3   OH212761   6.883   2.333   4.890
 4273TIP3    H112762   6.899   2.319   4.796
 4273TIP3    H212763   6.787   2.334   4.898
 4274TIP3   OH212764   2.910   0.995   2.187
 4274TIP3    H112765   2.967   0.965   2.258
 4274TIP3    H212766   2.920   1.090   2.187
 4275TIP3   OH212767   1.048   3.221   5.917
 4275TIP3    H112768   1.115   3.155   5.933
 4275TIP3    H212769   0.990   3.215   5.992
 4276TIP3   OH212770   0.784   5.346   6.225
 4276TIP3    H112771   0.861   5.316   6.274
 4276TIP3    H212772   0.797   5.310   6.137
 4277TIP3   OH212773   6.315   6.954   2.368
 4277TIP3    H112774   6.406   6.955   2.396
 4277TIP3    H212775   6.299   7.042   2.335
 4278TIP3   OH212776   6.841   5.906   5.063
 4278TIP3    H112777   6.913   5.845   5.046
 4278TIP3    H212778   6.830   5.903   5.158
 4279TIP3   OH212779   0.917   6.627   5.043
 4279TIP3    H112780   1.004   6.657   5.019
 4279TIP3    H212781   0.926   6.596   5.134
 4280TIP3   OH212782   8.063   3.328   3.187
 4280TIP3    H112783   8.012   3.395   3.141
 4280TIP3    H212784   8.021   3.320   3.273
 4281TIP3   OH212785   4.306   4.766   4.102
 4281TIP3    H112786   4.307   4.861   4.095
 4281TIP3    H212787   4.298   4.749   4.196
 4282TIP3   OH212788   1.194   0.539   1.084
 4282TIP3    H112789   1.276   0.520   1.130
 4282TIP3    H212790   1.209   0.511   0.994
 4283TIP3   OH212791   5.204   7.188   5.859
 4283TIP3    H112792   5.284   7.224   5.896
 4283TIP3    H212793   5.144   7.262   5.854
 4284TIP3   OH212794   2.683   1.280   1.838
 4284TIP3    H112795   2.727   1.248   1.759
 4284TIP3    H212796   2.738   1.353   1.868
 4285TIP3   OH212797   4.605   3.496   5.329
 4285TIP3    H112798   4.541   3.553   5.285
 4285TIP3    H212799   4.682   3.552   5.341
 4286TIP3   OH212800   6.331   6.600   0.563
 4286TIP3    H112801   6.332   6.512   0.602
 4286TIP3    H212802   6.238   6.619   0.551
 4287TIP3   OH212803   0.255   4.096   4.037
 4287TIP3    H112804   0.241   4.189   4.019
 4287TIP3    H212805   0.243   4.053   3.952
 4288TIP3   OH212806   6.637   6.508   0.626
 4288TIP3    H112807   6.568   6.470   0.679
 4288TIP3    H212808   6.600   6.589   0.592
 4289TIP3   OH212809   3.008   4.269   2.194
 4289TIP3    H112810   3.048   4.352   2.166
 4289TIP3    H212811   3.057   4.245   2.272
 4290TIP3   OH212812   2.577   2.984   1.684
 4290TIP3    H112813   2.540   3.045   1.621
 4290TIP3    H212814   2.588   3.036   1.764
 4291TIP3   OH212815   3.355   1.294   3.020
 4291TIP3    H112816   3.280   1.305   3.079
 4291TIP3    H212817   3.333   1.345   2.942
 4292TIP3   OH212818   0.579   6.210   0.668
 4292TIP3    H112819   0.555   6.128   0.624
 4292TIP3    H212820   0.581   6.187   0.761
 4293TIP3   OH212821   5.953   1.607   5.466
 4293TIP3    H112822   5.956   1.522   5.509
 4293TIP3    H212823   5.867   1.609   5.424
 4294TIP3   OH212824   1.716   4.043   2.587
 4294TIP3    H112825   1.641   4.033   2.646
 4294TIP3    H212826   1.695   4.120   2.535
 4295TIP3   OH212827   5.290   2.313   6.566
 4295TIP3    H112828   5.365   2.266   6.529
 4295TIP3    H212829   5.239   2.340   6.490
 4296TIP3   OH212830   1.186   1.456   5.977
 4296TIP3    H112831   1.215   1.522   5.915
 4296TIP3    H212832   1.224   1.483   6.061
 4297TIP3   OH212833   4.558   0.378   2.920
 4297TIP3    H112834   4.584   0.459   2.875
 4297TIP3    H212835   4.463   0.379   2.917
 4298TIP3   OH212836   6.502   1.958   0.970
 4298TIP3    H112837   6.445   1.882   0.967
 4298TIP3    H212838   6.583   1.929   0.927
 4299TIP3   OH212839   4.153   4.835   5.653
 4299TIP3    H112840   4.155   4.918   5.700
 4299TIP3    H212841   4.231   4.836   5.597
 4300TIP3   OH212842   1.661   4.182   2.322
 4300TIP3    H112843   1.645   4.194   2.228
 4300TIP3    H212844   1.611   4.104   2.345
 4301TIP3   OH212845   6.349   5.725   4.712
 4301TIP3    H112846   6.383   5.690   4.795
 4301TIP3    H212847   6.418   5.782   4.679
 4302TIP3   OH212848   2.008   2.787   6.718
 4302TIP3    H112849   2.021   2.760   6.627
 4302TIP3    H212850   2.096   2.799   6.752
 4303TIP3   OH212851   2.846   2.125   5.880
 4303TIP3    H112852   2.911   2.149   5.946
 4303TIP3    H212853   2.851   2.195   5.815
 4304TIP3   OH212854   2.426   5.708   4.969
 4304TIP3    H112855   2.367   5.638   4.939
 4304TIP3    H212856   2.511   5.664   4.978
 4305TIP3   OH212857   2.946   2.381   5.846
 4305TIP3    H112858   3.025   2.394   5.899
 4305TIP3    H212859   2.966   2.424   5.763
 4306TIP3   OH212860   6.110   1.215   3.226
 4306TIP3    H112861   6.141   1.304   3.216
 4306TIP3    H212862   6.084   1.209   3.318
 4307TIP3   OH212863   1.259   4.089   4.436
 4307TIP3    H112864   1.333   4.079   4.495
 4307TIP3    H212865   1.279   4.031   4.363
 4308TIP3   OH212866   7.009   6.733   3.459
 4308TIP3    H112867   6.955   6.812   3.462
 4308TIP3    H212868   6.967   6.679   3.393
 4309TIP3   OH212869   6.288   2.604   6.486
 4309TIP3    H112870   6.348   2.618   6.559
 4309TIP3    H212871   6.207   2.647   6.514
 4310TIP3   OH212872   7.661   6.583   0.302
 4310TIP3    H112873   7.707   6.588   0.218
 4310TIP3    H212874   7.582   6.635   0.289
 4311TIP3   OH212875   6.990   5.936   0.845
 4311TIP3    H112876   6.903   5.973   0.859
 4311TIP3    H212877   7.048   5.992   0.896
 4312TIP3   OH212878   7.591   3.833   3.709
 4312TIP3    H112879   7.580   3.765   3.776
 4312TIP3    H212880   7.685   3.841   3.699
 4313TIP3   OH212881   7.422   4.472   6.658
 4313TIP3    H112882   7.384   4.391   6.694
 4313TIP3    H212883   7.350   4.513   6.610
 4314TIP3   OH212884   7.771   7.595   0.265
 4314TIP3    H112885   7.730   7.598   0.179
 4314TIP3    H212886   7.838   7.664   0.263
 4315TIP3   OH212887   4.416   3.453   6.369
 4315TIP3    H112888   4.488   3.391   6.384
 4315TIP3    H212889   4.386   3.434   6.280
 4316TIP3   OH212890   6.969   0.132   3.477
 4316TIP3    H112891   6.926   0.163   3.557
 4316TIP3    H212892   7.035   0.199   3.458
 4317TIP3   OH212893   6.067   6.661   4.286
 4317TIP3    H112894   6.115   6.606   4.225
 4317TIP3    H212895   6.033   6.733   4.232
 4318TIP3   OH212896   3.344   0.675   4.718
 4318TIP3    H112897   3.269   0.651   4.662
 4318TIP3    H212898   3.337   0.616   4.793
 4319TIP3   OH212899   6.080   4.768   5.058
 4319TIP3    H112900   6.142   4.737   5.124
 4319TIP3    H212901   6.080   4.700   4.991
 4320TIP3   OH212902   4.746   3.034   6.081
 4320TIP3    H112903   4.811   3.015   6.013
 4320TIP3    H212904   4.663   3.041   6.034
 4321TIP3   OH212905   4.191   1.023   4.559
 4321TIP3    H112906   4.273   1.061   4.591
 4321TIP3    H212907   4.177   1.066   4.475
 4322TIP3   OH212908   6.441   0.454   6.631
 4322TIP3    H112909   6.389   0.397   6.688
 4322TIP3    H212910   6.393   0.537   6.629
 4323TIP3   OH212911   2.524   7.409   5.966
 4323TIP3    H112912   2.561   7.362   5.891
 4323TIP3    H212913   2.451   7.355   5.994
 4324TIP3   OH212914   6.886   7.717   0.335
 4324TIP3    H112915   6.898   7.791   0.393
 4324TIP3    H212916   6.932   7.645   0.377
 4325TIP3   OH212917   4.887   7.364   0.963
 4325TIP3    H112918   4.796   7.347   0.986
 4325TIP3    H212919   4.900   7.314   0.882
 4326TIP3   OH212920   2.937   5.850   1.211
 4326TIP3    H112921   2.950   5.788   1.139
 4326TIP3    H212922   2.957   5.935   1.172
 4327TIP3   OH212923   4.060   0.391   4.454
 4327TIP3    H112924   4.141   0.373   4.501
 4327TIP3    H212925   4.065   0.484   4.432
 4328TIP3   OH212926   1.503   6.857   5.214
 4328TIP3    H112927   1.462   6.772   5.196
 4328TIP3    H212928   1.552   6.843   5.295
 4329TIP3   OH212929   1.228   0.605   1.746
 4329TIP3    H112930   1.165   0.598   1.674
 4329TIP3    H212931   1.284   0.680   1.722
 4330TIP3   OH212932   1.142   7.568   3.402
 4330TIP3    H112933   1.221   7.556   3.454
 4330TIP3    H212934   1.075   7.595   3.465
 4331TIP3   OH212935   3.993   1.860   4.643
 4331TIP3    H112936   3.957   1.888   4.559
 4331TIP3    H212937   3.985   1.765   4.642
 4332TIP3   OH212938   4.163   0.590   0.161
 4332TIP3    H112939   4.234   0.648   0.188
 4332TIP3    H212940   4.085   0.645   0.159
 4333TIP3   OH212941   8.121   1.564   3.045
 4333TIP3    H112942   8.181   1.508   3.093
 4333TIP3    H212943   8.136   1.652   3.081
 4334TIP3   OH212944   8.262   6.857   5.103
 4334TIP3    H112945   8.229   6.791   5.042
 4334TIP3    H212946   8.247   6.819   5.189
 4335TIP3   OH212947   7.023   4.305   6.203
 4335TIP3    H112948   7.096   4.359   6.172
 4335TIP3    H212949   7.057   4.260   6.280
 4336TIP3   OH212950   2.850   0.282   6.520
 4336TIP3    H112951   2.901   0.297   6.441
 4336TIP3    H212952   2.766   0.325   6.504
 4337TIP3   OH212953   3.185   6.464   1.405
 4337TIP3    H112954   3.101   6.425   1.382
 4337TIP3    H212955   3.246   6.390   1.406
 4338TIP3   OH212956   0.645   7.679   0.155
 4338TIP3    H112957   0.685   7.726   0.081
 4338TIP3    H212958   0.645   7.743   0.227
 4339TIP3   OH212959   5.644   3.361   3.828
 4339TIP3    H112960   5.734   3.380   3.804
 4339TIP3    H212961   5.609   3.444   3.861
 4340TIP3   OH212962   1.896   5.095   2.480
 4340TIP3    H112963   1.802   5.116   2.474
 4340TIP3    H212964   1.936   5.176   2.511
 4341TIP3   OH212965   4.818   1.459   1.640
 4341TIP3    H112966   4.771   1.514   1.703
 4341TIP3    H212967   4.900   1.436   1.685
 4342TIP3   OH212968   0.856   4.016   1.273
 4342TIP3    H112969   0.926   4.080   1.260
 4342TIP3    H212970   0.814   4.008   1.187
 4343TIP3   OH212971   6.059   3.914   4.214
 4343TIP3    H112972   6.054   3.896   4.120
 4343TIP3    H212973   5.969   3.926   4.241
 4344TIP3   OH212974   0.557   3.877   1.856
 4344TIP3    H112975   0.592   3.833   1.779
 4344TIP3    H212976   0.540   3.967   1.827
 4345TIP3   OH212977   4.414   1.953   1.983
 4345TIP3    H112978   4.335   2.003   1.964
 4345TIP3    H212979   4.423   1.959   2.079
 4346TIP3   OH212980   1.113   4.990   2.983
 4346TIP3    H112981   1.078   5.058   3.040
 4346TIP3    H212982   1.084   4.908   3.023
 4347TIP3   OH212983   6.938   3.062   6.175
 4347TIP3    H112984   7.015   3.021   6.215
 4347TIP3    H212985   6.922   3.140   6.228
 4348TIP3   OH212986   7.131   4.640   3.307
 4348TIP3    H112987   7.210   4.693   3.321
 4348TIP3    H212988   7.066   4.677   3.367
 4349TIP3   OH212989   4.197   4.421   0.824
 4349TIP3    H112990   4.208   4.356   0.754
 4349TIP3    H212991   4.108   4.455   0.811
 4350TIP3   OH212992   2.394   5.730   1.978
 4350TIP3    H112993   2.308   5.773   1.980
 4350TIP3    H212994   2.386   5.658   2.040
 4351TIP3   OH212995   5.054   0.207   2.304
 4351TIP3    H112996   5.143   0.171   2.296
 4351TIP3    H212997   5.032   0.235   2.215
 4352TIP3   OH212998   3.054   2.749   5.526
 4352TIP3    H112999   3.116   2.813   5.490
 4352TIP3    H213000   2.976   2.801   5.546
 4353TIP3   OH213001   7.820   2.929   2.071
 4353TIP3    H113002   7.900   2.973   2.042
 4353TIP3    H213003   7.764   2.930   1.994
 4354TIP3   OH213004   4.152   4.086   2.988
 4354TIP3    H113005   4.194   4.169   2.965
 4354TIP3    H213006   4.151   4.085   3.083
 4355TIP3   OH213007   4.577   3.968   2.207
 4355TIP3    H113008   4.550   3.963   2.115
 4355TIP3    H213009   4.552   3.882   2.243
 4356TIP3   OH213010   4.004   6.219   3.019
 4356TIP3    H113011   4.007   6.272   3.099
 4356TIP3    H213012   3.991   6.282   2.949
 4357TIP3   OH213013   2.735   1.286   3.234
 4357TIP3    H113014   2.787   1.207   3.250
 4357TIP3    H213015   2.677   1.292   3.309
 4358TIP3   OH213016   7.881   5.979   5.259
 4358TIP3    H113017   7.839   6.011   5.338
 4358TIP3    H213018   7.975   5.990   5.275
 4359TIP3   OH213019   4.736   5.142   2.248
 4359TIP3    H113020   4.668   5.113   2.309
 4359TIP3    H213021   4.811   5.162   2.303
 4360TIP3   OH213022   6.339   7.644   6.193
 4360TIP3    H113023   6.311   7.657   6.284
 4360TIP3    H213024   6.339   7.549   6.182
 4361TIP3   OH213025   6.217   0.425   2.516
 4361TIP3    H113026   6.168   0.372   2.578
 4361TIP3    H213027   6.160   0.500   2.498
 4362TIP3   OH213028   7.929   0.810   1.568
 4362TIP3    H113029   8.000   0.797   1.505
 4362TIP3    H213030   7.963   0.875   1.629
 4363TIP3   OH213031   1.237   0.336   5.378
 4363TIP3    H113032   1.317   0.340   5.431
 4363TIP3    H213033   1.247   0.406   5.314
 4364TIP3   OH213034   6.090   5.529   3.599
 4364TIP3    H113035   6.134   5.595   3.545
 4364TIP3    H213036   6.129   5.446   3.571
 4365TIP3   OH213037   2.208   1.830   3.860
 4365TIP3    H113038   2.272   1.799   3.796
 4365TIP3    H213039   2.239   1.918   3.884
 4366TIP3   OH213040   3.132   3.353   5.222
 4366TIP3    H113041   3.100   3.333   5.134
 4366TIP3    H213042   3.153   3.446   5.220
 4367TIP3   OH213043   4.805   4.143   5.539
 4367TIP3    H113044   4.755   4.192   5.605
 4367TIP3    H213045   4.840   4.210   5.481
 4368TIP3   OH213046   1.927   7.470   5.607
 4368TIP3    H113047   1.937   7.449   5.700
 4368TIP3    H213048   2.016   7.468   5.572
 4369TIP3   OH213049   1.122   5.740   2.820
 4369TIP3    H113050   1.205   5.709   2.785
 4369TIP3    H213051   1.126   5.719   2.913
 4370TIP3   OH213052   0.275   6.796   0.232
 4370TIP3    H113053   0.203   6.765   0.177
 4370TIP3    H213054   0.344   6.731   0.221
 4371TIP3   OH213055   7.314   2.777   4.714
 4371TIP3    H113056   7.328   2.804   4.623
 4371TIP3    H213057   7.326   2.682   4.712
 4372TIP3   OH213058   3.009   2.838   4.816
 4372TIP3    H113059   2.926   2.815   4.774
 4372TIP3    H213060   3.076   2.818   4.749
 4373TIP3   OH213061   7.338   6.022   5.727
 4373TIP3    H113062   7.304   5.964   5.795
 4373TIP3    H213063   7.281   6.099   5.731
 4374TIP3   OH213064   7.352   4.594   5.156
 4374TIP3    H113065   7.379   4.507   5.127
 4374TIP3    H213066   7.268   4.609   5.112
 4375TIP3   OH213067   6.429   2.825   6.327
 4375TIP3    H113068   6.504   2.851   6.381
 4375TIP3    H213069   6.383   2.760   6.380
 4376TIP3   OH213070   4.947   6.018   3.596
 4376TIP3    H113071   4.883   6.052   3.659
 4376TIP3    H213072   4.935   5.923   3.598
 4377TIP3   OH213073   6.848   2.799   1.342
 4377TIP3    H113074   6.892   2.721   1.308
 4377TIP3    H213075   6.794   2.830   1.269
 4378TIP3   OH213076   8.050   3.848   1.780
 4378TIP3    H113077   8.072   3.823   1.870
 4378TIP3    H213078   8.127   3.895   1.749
 4379TIP3   OH213079   1.142   1.986   5.150
 4379TIP3    H113080   1.178   1.901   5.175
 4379TIP3    H213081   1.085   1.968   5.076
 4380TIP3   OH213082   3.757   7.296   6.294
 4380TIP3    H113083   3.744   7.327   6.204
 4380TIP3    H213084   3.844   7.326   6.318
 4381TIP3   OH213085   3.086   6.187   4.310
 4381TIP3    H113086   3.005   6.230   4.281
 4381TIP3    H213087   3.118   6.140   4.233
 4382TIP3   OH213088   7.530   3.684   6.225
 4382TIP3    H113089   7.487   3.664   6.307
 4382TIP3    H213090   7.541   3.599   6.182
 4383TIP3   OH213091   3.988   4.226   0.096
 4383TIP3    H113092   3.921   4.279   0.053
 4383TIP3    H213093   4.070   4.271   0.075
 4384TIP3   OH213094   3.494   5.961   0.391
 4384TIP3    H113095   3.576   5.961   0.342
 4384TIP3    H213096   3.510   5.905   0.467
 4385TIP3   OH213097   0.263   3.141   4.311
 4385TIP3    H113098   0.251   3.232   4.339
 4385TIP3    H213099   0.174   3.109   4.296
 4386TIP3   OH213100   7.851   5.138   6.385
 4386TIP3    H113101   7.809   5.125   6.470
 4386TIP3    H213102   7.941   5.165   6.406
 4387TIP3   OH213103   7.704   6.456   6.496
 4387TIP3    H113104   7.650   6.382   6.524
 4387TIP3    H213105   7.663   6.532   6.537
 4388TIP3   OH213106   1.145   1.427   0.834
 4388TIP3    H113107   1.168   1.511   0.794
 4388TIP3    H213108   1.179   1.433   0.923
 4389TIP3   OH213109   6.139   2.877   4.483
 4389TIP3    H113110   6.207   2.907   4.423
 4389TIP3    H213111   6.114   2.791   4.449
 4390TIP3   OH213112   6.264   7.338   5.803
 4390TIP3    H113113   6.186   7.324   5.749
 4390TIP3    H213114   6.239   7.410   5.862
 4391TIP3   OH213115   3.664   0.145   1.228
 4391TIP3    H113116   3.701   0.225   1.190
 4391TIP3    H213117   3.707   0.074   1.182
 4392TIP3   OH213118   1.784   7.794   0.140
 4392TIP3    H113119   1.749   7.876   0.174
 4392TIP3    H213120   1.879   7.807   0.136
 4393TIP3   OH213121   3.453   7.118   4.085
 4393TIP3    H113122   3.410   7.203   4.097
 4393TIP3    H213123   3.533   7.125   4.138
 4394TIP3   OH213124   2.145   1.965   6.308
 4394TIP3    H113125   2.119   2.055   6.288
 4394TIP3    H213126   2.185   1.970   6.394
 4395TIP3   OH213127   3.669   4.669   4.092
 4395TIP3    H113128   3.762   4.692   4.092
 4395TIP3    H213129   3.641   4.682   4.183
 4396TIP3   OH213130   2.118   6.061   2.262
 4396TIP3    H113131   2.188   6.125   2.279
 4396TIP3    H213132   2.153   6.007   2.191
 4397TIP3   OH213133   7.888   4.517   6.600
 4397TIP3    H113134   7.923   4.605   6.612
 4397TIP3    H213135   7.958   4.468   6.557
 4398TIP3   OH213136   1.544   1.293   2.746
 4398TIP3    H113137   1.582   1.371   2.788
 4398TIP3    H213138   1.607   1.223   2.765
 4399TIP3   OH213139   4.103   0.814   3.963
 4399TIP3    H113140   4.039   0.821   4.034
 4399TIP3    H213141   4.176   0.870   3.990
 4400TIP3   OH213142   5.532   2.895   0.044
 4400TIP3    H113143   5.576   2.976   0.020
 4400TIP3    H213144   5.451   2.895  -0.007
 4401TIP3   OH213145   2.761   2.037   1.916
 4401TIP3    H113146   2.749   2.125   1.881
 4401TIP3    H213147   2.811   1.991   1.848
 4402TIP3   OH213148   0.671   0.582   0.434
 4402TIP3    H113149   0.583   0.605   0.404
 4402TIP3    H213150   0.684   0.634   0.513
 4403TIP3   OH213151   6.355   7.284   4.221
 4403TIP3    H113152   6.293   7.349   4.189
 4403TIP3    H213153   6.382   7.236   4.143
 4404TIP3   OH213154   1.446   0.704   4.264
 4404TIP3    H113155   1.433   0.637   4.331
 4404TIP3    H213156   1.475   0.655   4.187
 4405TIP3   OH213157   6.705   6.392   2.481
 4405TIP3    H113158   6.645   6.448   2.530
 4405TIP3    H213159   6.659   6.308   2.474
 4406TIP3   OH213160   0.029   4.101   4.231
 4406TIP3    H113161   0.040   4.059   4.316
 4406TIP3    H213162   0.112   4.084   4.185
 4407TIP3   OH213163   0.258   1.976   4.071
 4407TIP3    H113164   0.292   1.912   4.134
 4407TIP3    H213165   0.277   1.938   3.986
 4408TIP3   OH213166   4.061   2.684   4.120
 4408TIP3    H113167   3.968   2.660   4.120
 4408TIP3    H213168   4.098   2.638   4.196
 4409TIP3   OH213169   0.019   1.808   5.010
 4409TIP3    H113170   0.008   1.790   5.104
 4409TIP3    H213171   0.109   1.842   5.004
 4410TIP3   OH213172   4.954   0.479   1.240
 4410TIP3    H113173   5.000   0.449   1.318
 4410TIP3    H213174   5.023   0.520   1.187
 4411TIP3   OH213175   0.549   4.822   2.006
 4411TIP3    H113176   0.532   4.731   2.029
 4411TIP3    H213177   0.507   4.833   1.920
 4412TIP3   OH213178   5.793   5.360   6.047
 4412TIP3    H113179   5.742   5.431   6.007
 4412TIP3    H213180   5.788   5.288   5.984
 4413TIP3   OH213181   0.298   0.323   4.578
 4413TIP3    H113182   0.343   0.264   4.517
 4413TIP3    H213183   0.237   0.372   4.523
 4414TIP3   OH213184   5.615   7.419   5.626
 4414TIP3    H113185   5.544   7.483   5.617
 4414TIP3    H213186   5.682   7.448   5.565
 4415TIP3   OH213187   1.514   1.071   5.077
 4415TIP3    H113188   1.601   1.111   5.081
 4415TIP3    H213189   1.526   0.990   5.029
 4416TIP3   OH213190   0.614   6.631   2.185
 4416TIP3    H113191   0.704   6.611   2.159
 4416TIP3    H213192   0.618   6.639   2.280
 4417TIP3   OH213193   6.547   0.012   5.506
 4417TIP3    H113194   6.552   0.108   5.500
 4417TIP3    H213195   6.564  -0.019   5.417
 4418TIP3   OH213196   1.569   3.188   3.483
 4418TIP3    H113197   1.555   3.283   3.491
 4418TIP3    H213198   1.487   3.154   3.448
 4419TIP3   OH213199   5.493   2.806   6.546
 4419TIP3    H113200   5.536   2.820   6.462
 4419TIP3    H213201   5.522   2.719   6.573
 4420TIP3   OH213202   1.647   0.141   0.063
 4420TIP3    H113203   1.620   0.229   0.036
 4420TIP3    H213204   1.567   0.090   0.064
 4421TIP3   OH213205   4.510   4.483   2.320
 4421TIP3    H113206   4.594   4.479   2.273
 4421TIP3    H213207   4.496   4.394   2.351
 4422TIP3   OH213208   4.720   6.506   0.549
 4422TIP3    H113209   4.700   6.414   0.566
 4422TIP3    H213210   4.775   6.505   0.470
 4423TIP3   OH213211   6.516   4.320   5.953
 4423TIP3    H113212   6.472   4.245   5.912
 4423TIP3    H213213   6.595   4.333   5.901
 4424TIP3   OH213214   8.036   2.761   4.952
 4424TIP3    H113215   8.044   2.711   4.871
 4424TIP3    H213216   7.971   2.829   4.933
 4425TIP3   OH213217   5.138   3.979   2.031
 4425TIP3    H113218   5.117   4.000   2.122
 4425TIP3    H213219   5.195   4.050   2.003
 4426TIP3   OH213220   5.696   7.054   0.277
 4426TIP3    H113221   5.753   7.028   0.350
 4426TIP3    H213222   5.748   7.118   0.228
 4427TIP3   OH213223   8.225   2.306   5.094
 4427TIP3    H113224   8.269   2.224   5.118
 4427TIP3    H213225   8.141   2.278   5.059
 4428TIP3   OH213226   4.081   5.690   1.111
 4428TIP3    H113227   4.037   5.769   1.080
 4428TIP3    H213228   4.148   5.673   1.046
 4429TIP3   OH213229   4.796   7.750   3.517
 4429TIP3    H113230   4.748   7.827   3.546
 4429TIP3    H213231   4.736   7.677   3.532
 4430TIP3   OH213232   8.135   0.922   2.676
 4430TIP3    H113233   8.184   0.977   2.737
 4430TIP3    H213234   8.049   0.964   2.669
 4431TIP3   OH213235   4.612   0.812   5.386
 4431TIP3    H113236   4.559   0.842   5.459
 4431TIP3    H213237   4.565   0.735   5.353
 4432TIP3   OH213238   1.311   3.278   3.634
 4432TIP3    H113239   1.317   3.183   3.647
 4432TIP3    H213240   1.311   3.314   3.723
 4433TIP3   OH213241   4.749   4.050   4.713
 4433TIP3    H113242   4.681   4.028   4.649
 4433TIP3    H213243   4.703   4.105   4.777
 4434TIP3   OH213244   6.834   0.996   5.450
 4434TIP3    H113245   6.765   1.044   5.404
 4434TIP3    H213246   6.902   1.061   5.466
 4435TIP3   OH213247   2.395   7.105   5.386
 4435TIP3    H113248   2.452   7.048   5.335
 4435TIP3    H213249   2.311   7.102   5.339
 4436TIP3   OH213250   0.309   3.327   0.309
 4436TIP3    H113251   0.303   3.422   0.308
 4436TIP3    H213252   0.230   3.298   0.262
 4437TIP3   OH213253   5.562   6.598   3.155
 4437TIP3    H113254   5.532   6.578   3.067
 4437TIP3    H213255   5.598   6.515   3.187
 4438TIP3   OH213256   6.862   0.799   4.764
 4438TIP3    H113257   6.826   0.862   4.825
 4438TIP3    H213258   6.787   0.763   4.718
 4439TIP3   OH213259   6.549   3.031   0.358
 4439TIP3    H113260   6.581   2.951   0.400
 4439TIP3    H213261   6.454   3.027   0.366
 4440TIP3   OH213262   6.680   6.732   6.631
 4440TIP3    H113263   6.606   6.776   6.589
 4440TIP3    H213264   6.673   6.755   6.723
 4441TIP3   OH213265   3.139   4.880   4.813
 4441TIP3    H113266   3.150   4.864   4.719
 4441TIP3    H213267   3.173   4.968   4.826
 4442TIP3   OH213268   2.733   3.385   2.755
 4442TIP3    H113269   2.690   3.331   2.821
 4442TIP3    H213270   2.790   3.324   2.708
 4443TIP3   OH213271   5.687   4.046   2.862
 4443TIP3    H113272   5.609   4.080   2.818
 4443TIP3    H213273   5.699   4.104   2.937
 4444TIP3   OH213274   0.616   0.763   2.056
 4444TIP3    H113275   0.684   0.738   1.993
 4444TIP3    H213276   0.664   0.783   2.136
 4445TIP3   OH213277   3.710   5.454   0.229
 4445TIP3    H113278   3.635   5.513   0.219
 4445TIP3    H213279   3.775   5.486   0.167
 4446TIP3   OH213280   6.328   2.187   6.175
 4446TIP3    H113281   6.406   2.144   6.141
 4446TIP3    H213282   6.355   2.278   6.190
 4447TIP3   OH213283   5.308   7.514   1.900
 4447TIP3    H113284   5.382   7.474   1.854
 4447TIP3    H213285   5.243   7.444   1.907
 4448TIP3   OH213286   3.857   7.225   5.097
 4448TIP3    H113287   3.858   7.135   5.064
 4448TIP3    H213288   3.915   7.273   5.038
 4449TIP3   OH213289   1.374   7.578   6.504
 4449TIP3    H113290   1.335   7.552   6.420
 4449TIP3    H213291   1.307   7.558   6.568
 4450TIP3   OH213292   7.594   0.183   6.385
 4450TIP3    H113293   7.665   0.155   6.327
 4450TIP3    H213294   7.595   0.279   6.380
 4451TIP3   OH213295   3.288   2.948   3.848
 4451TIP3    H113296   3.219   2.885   3.827
 4451TIP3    H213297   3.249   3.033   3.827
 4452TIP3   OH213298   6.301   1.107   1.772
 4452TIP3    H113299   6.304   1.103   1.676
 4452TIP3    H213300   6.252   1.029   1.797
 4453TIP3   OH213301   7.340   0.153   1.293
 4453TIP3    H113302   7.334   0.176   1.386
 4453TIP3    H213303   7.329   0.236   1.247
 4454TIP3   OH213304   2.320   5.970   1.728
 4454TIP3    H113305   2.317   5.904   1.658
 4454TIP3    H213306   2.237   5.958   1.774
 4455TIP3   OH213307   1.187   3.913   5.015
 4455TIP3    H113308   1.126   3.970   5.062
 4455TIP3    H213309   1.193   3.951   4.928
 4456TIP3   OH213310   4.285   6.776   3.915
 4456TIP3    H113311   4.210   6.734   3.873
 4456TIP3    H213312   4.309   6.847   3.857
 4457TIP3   OH213313   0.900   2.459   5.368
 4457TIP3    H113314   0.944   2.489   5.448
 4457TIP3    H213315   0.833   2.525   5.351
 4458TIP3   OH213316   6.608   0.977   3.864
 4458TIP3    H113317   6.599   0.954   3.956
 4458TIP3    H213318   6.559   0.909   3.817
 4459TIP3   OH213319   4.912   5.303   5.031
 4459TIP3    H113320   4.966   5.281   4.955
 4459TIP3    H213321   4.940   5.391   5.056
 4460TIP3   OH213322   3.756   6.175   6.727
 4460TIP3    H113323   3.675   6.222   6.748
 4460TIP3    H213324   3.764   6.182   6.632
 4461TIP3   OH213325   5.691   3.782   2.742
 4461TIP3    H113326   5.626   3.805   2.676
 4461TIP3    H213327   5.711   3.865   2.785
 4462TIP3   OH213328   3.949   2.913   2.438
 4462TIP3    H113329   3.962   2.876   2.525
 4462TIP3    H213330   3.868   2.963   2.445
 4463TIP3   OH213331   0.482   4.482   5.632
 4463TIP3    H113332   0.448   4.451   5.716
 4463TIP3    H213333   0.406   4.486   5.575
 4464TIP3   OH213334   0.356   5.169   1.662
 4464TIP3    H113335   0.346   5.241   1.724
 4464TIP3    H213336   0.309   5.198   1.584
 4465TIP3   OH213337   2.763   4.111   0.724
 4465TIP3    H113338   2.751   4.119   0.818
 4465TIP3    H213339   2.780   4.200   0.694
 4466TIP3   OH213340   2.655   0.637   1.418
 4466TIP3    H113341   2.717   0.700   1.380
 4466TIP3    H213342   2.582   0.690   1.449
 4467TIP3   OH213343   3.602   2.865   0.104
 4467TIP3    H113344   3.592   2.852   0.009
 4467TIP3    H213345   3.528   2.819   0.142
 4468TIP3   OH213346   2.846   6.424   5.580
 4468TIP3    H113347   2.890   6.432   5.664
 4468TIP3    H213348   2.915   6.431   5.515
 4469TIP3   OH213349   3.863   4.446   1.037
 4469TIP3    H113350   3.863   4.529   0.988
 4469TIP3    H213351   3.856   4.473   1.129
 4470TIP3   OH213352   2.744   6.159   1.082
 4470TIP3    H113353   2.738   6.144   1.176
 4470TIP3    H213354   2.835   6.185   1.067
 4471TIP3   OH213355   1.881   0.151   5.387
 4471TIP3    H113356   1.869   0.062   5.353
 4471TIP3    H213357   1.797   0.172   5.428
 4472TIP3   OH213358   6.961   2.962   1.710
 4472TIP3    H113359   6.887   2.950   1.770
 4472TIP3    H213360   6.967   2.878   1.664
 4473TIP3   OH213361   3.979   7.218   6.095
 4473TIP3    H113362   3.889   7.206   6.064
 4473TIP3    H213363   3.988   7.313   6.107
 4474TIP3   OH213364   4.499   7.618   5.366
 4474TIP3    H113365   4.490   7.546   5.427
 4474TIP3    H213366   4.584   7.658   5.387
 4475TIP3   OH213367   6.679   4.527   1.985
 4475TIP3    H113368   6.626   4.566   1.915
 4475TIP3    H213369   6.754   4.489   1.939
 4476TIP3   OH213370   0.519   1.803   3.148
 4476TIP3    H113371   0.574   1.739   3.103
 4476TIP3    H213372   0.506   1.766   3.236
 4477TIP3   OH213373   2.619   2.686   3.891
 4477TIP3    H113374   2.528   2.669   3.867
 4477TIP3    H213375   2.623   2.664   3.984
 4478TIP3   OH213376   6.335   7.070   1.568
 4478TIP3    H113377   6.343   7.023   1.485
 4478TIP3    H213378   6.388   7.019   1.629
 4479TIP3   OH213379   5.204   7.754   5.330
 4479TIP3    H113380   5.125   7.753   5.275
 4479TIP3    H213381   5.257   7.682   5.296
 4480TIP3   OH213382   4.760   3.408   3.081
 4480TIP3    H113383   4.823   3.466   3.039
 4480TIP3    H213384   4.757   3.330   3.026
 4481TIP3   OH213385   4.298   3.879   0.941
 4481TIP3    H113386   4.245   3.799   0.938
 4481TIP3    H213387   4.234   3.949   0.954
 4482TIP3   OH213388   2.701   4.588   3.995
 4482TIP3    H113389   2.643   4.622   3.927
 4482TIP3    H213390   2.775   4.649   3.996
 4483TIP3   OH213391   4.005   2.922   1.350
 4483TIP3    H113392   3.919   2.893   1.320
 4483TIP3    H213393   4.017   2.879   1.434
 4484TIP3   OH213394   0.859   0.758   4.721
 4484TIP3    H113395   0.785   0.765   4.782
 4484TIP3    H213396   0.864   0.665   4.699
 4485TIP3   OH213397   6.345   1.699   0.941
 4485TIP3    H113398   6.319   1.718   1.032
 4485TIP3    H213399   6.270   1.653   0.904
 4486TIP3   OH213400   3.645   2.014   5.704
 4486TIP3    H113401   3.731   2.046   5.732
 4486TIP3    H213402   3.663   1.967   5.622
 4487TIP3   OH213403   2.907   1.139   5.373
 4487TIP3    H113404   2.872   1.198   5.440
 4487TIP3    H213405   2.832   1.086   5.345
 4488TIP3   OH213406   2.137   3.849   6.276
 4488TIP3    H113407   2.084   3.901   6.337
 4488TIP3    H213408   2.200   3.912   6.240
 4489TIP3   OH213409   1.571   5.314   2.484
 4489TIP3    H113410   1.553   5.341   2.574
 4489TIP3    H213411   1.621   5.386   2.446
 4490TIP3   OH213412   7.535   4.702   4.909
 4490TIP3    H113413   7.490   4.634   4.959
 4490TIP3    H213414   7.465   4.764   4.886
 4491TIP3   OH213415   0.205   1.344   4.096
 4491TIP3    H113416   0.225   1.435   4.117
 4491TIP3    H213417   0.221   1.297   4.178
 4492TIP3   OH213418   2.269   2.143   5.262
 4492TIP3    H113419   2.319   2.165   5.184
 4492TIP3    H213420   2.252   2.227   5.304
 4493TIP3   OH213421   6.872   2.410   5.261
 4493TIP3    H113422   6.818   2.462   5.321
 4493TIP3    H213423   6.893   2.470   5.189
 4494TIP3   OH213424   3.130   7.085   2.699
 4494TIP3    H113425   3.222   7.113   2.696
 4494TIP3    H213426   3.130   7.009   2.756
 4495TIP3   OH213427   1.534   6.891   1.752
 4495TIP3    H113428   1.559   6.817   1.697
 4495TIP3    H213429   1.570   6.968   1.707
 4496TIP3   OH213430   6.518   6.305   2.885
 4496TIP3    H113431   6.431   6.333   2.912
 4496TIP3    H213432   6.518   6.316   2.790
 4497TIP3   OH213433   7.392   4.489   4.678
 4497TIP3    H113434   7.440   4.415   4.716
 4497TIP3    H213435   7.459   4.556   4.664
 4498TIP3   OH213436   3.103   0.917   2.368
 4498TIP3    H113437   3.154   0.946   2.444
 4498TIP3    H213438   3.121   0.823   2.363
 4499TIP3   OH213439   2.338   3.468   5.657
 4499TIP3    H113440   2.371   3.438   5.742
 4499TIP3    H213441   2.324   3.388   5.607
 4500TIP3   OH213442   5.703   5.628   1.226
 4500TIP3    H113443   5.681   5.535   1.224
 4500TIP3    H213444   5.791   5.631   1.264
 4501TIP3   OH213445   0.071   5.395   6.658
 4501TIP3    H113446   0.072   5.399   6.754
 4501TIP3    H213447  -0.021   5.400   6.634
 4502TIP3   OH213448   5.788   6.077   5.214
 4502TIP3    H113449   5.830   6.066   5.128
 4502TIP3    H213450   5.850   6.129   5.265
 4503TIP3   OH213451   3.840   3.332   3.103
 4503TIP3    H113452   3.935   3.344   3.109
 4503TIP3    H213453   3.818   3.283   3.183
 4504TIP3   OH213454   7.448   1.899   3.561
 4504TIP3    H113455   7.387   1.878   3.632
 4504TIP3    H213456   7.439   1.826   3.499
 4505TIP3   OH213457   0.460   2.255   3.943
 4505TIP3    H113458   0.433   2.190   3.877
 4505TIP3    H213459   0.388   2.255   4.007
 4506TIP3   OH213460   7.023   5.022   3.850
 4506TIP3    H113461   7.066   4.987   3.929
 4506TIP3    H213462   6.989   5.107   3.877
 4507TIP3   OH213463   0.732   6.852   0.465
 4507TIP3    H113464   0.660   6.907   0.497
 4507TIP3    H213465   0.802   6.865   0.529
 4508TIP3   OH213466   5.482   6.957   4.630
 4508TIP3    H113467   5.503   6.909   4.550
 4508TIP3    H213468   5.394   6.929   4.653
 4509TIP3   OH213469   7.383   4.737   3.587
 4509TIP3    H113470   7.353   4.764   3.501
 4509TIP3    H213471   7.398   4.642   3.579
 4510TIP3   OH213472   5.718   2.186   5.299
 4510TIP3    H113473   5.719   2.278   5.326
 4510TIP3    H213474   5.801   2.151   5.330
 4511TIP3   OH213475   4.524   7.505   2.943
 4511TIP3    H113476   4.505   7.412   2.932
 4511TIP3    H213477   4.447   7.549   2.906
 4512TIP3   OH213478   4.227   1.793   0.844
 4512TIP3    H113479   4.155   1.854   0.833
 4512TIP3    H213480   4.186   1.710   0.867
 4513TIP3   OH213481   4.931   1.817   2.074
 4513TIP3    H113482   4.986   1.748   2.038
 4513TIP3    H213483   4.992   1.886   2.101
 4514TIP3   OH213484   0.760   1.928   3.257
 4514TIP3    H113485   0.689   1.878   3.216
 4514TIP3    H213486   0.810   1.963   3.184
 4515TIP3   OH213487   3.707   4.965   6.635
 4515TIP3    H113488   3.758   4.956   6.554
 4515TIP3    H213489   3.642   4.894   6.630
 4516TIP3   OH213490   4.728   0.377   3.613
 4516TIP3    H113491   4.817   0.412   3.615
 4516TIP3    H213492   4.696   0.388   3.703
 4517TIP3   OH213493   1.241   1.428   3.789
 4517TIP3    H113494   1.307   1.370   3.829
 4517TIP3    H213495   1.183   1.451   3.862
 4518TIP3   OH213496   2.094   4.355   0.168
 4518TIP3    H113497   2.148   4.434   0.177
 4518TIP3    H213498   2.004   4.388   0.171
 4519TIP3   OH213499   7.313   4.127   4.524
 4519TIP3    H113500   7.265   4.047   4.501
 4519TIP3    H213501   7.375   4.139   4.453
 4520TIP3   OH213502   3.564   1.097   4.778
 4520TIP3    H113503   3.525   1.026   4.828
 4520TIP3    H213504   3.581   1.166   4.843
 4521TIP3   OH213505   6.650   4.541   6.077
 4521TIP3    H113506   6.605   4.462   6.046
 4521TIP3    H213507   6.701   4.511   6.153
 4522TIP3   OH213508   1.963   6.659   3.348
 4522TIP3    H113509   2.047   6.663   3.303
 4522TIP3    H213510   1.923   6.744   3.332
 4523TIP3   OH213511   6.417   1.988   1.889
 4523TIP3    H113512   6.414   1.950   1.977
 4523TIP3    H213513   6.351   1.939   1.839
 4524TIP3   OH213514   8.044   7.740   2.293
 4524TIP3    H113515   7.971   7.794   2.325
 4524TIP3    H213516   8.121   7.775   2.337
 4525TIP3   OH213517   4.690   0.596   6.297
 4525TIP3    H113518   4.732   0.598   6.384
 4525TIP3    H213519   4.614   0.538   6.308
 4526TIP3   OH213520   2.635   7.470   2.232
 4526TIP3    H113521   2.614   7.516   2.151
 4526TIP3    H213522   2.599   7.382   2.219
 4527TIP3   OH213523   0.691   7.281   3.038
 4527TIP3    H113524   0.599   7.256   3.043
 4527TIP3    H213525   0.713   7.278   2.945
 4528TIP3   OH213526   6.258   0.410   3.487
 4528TIP3    H113527   6.288   0.326   3.451
 4528TIP3    H213528   6.224   0.457   3.411
 4529TIP3   OH213529   1.762   5.116   2.120
 4529TIP3    H113530   1.745   5.138   2.029
 4529TIP3    H213531   1.716   5.184   2.170
 4530TIP3   OH213532   4.166   5.216   2.496
 4530TIP3    H113533   4.173   5.134   2.447
 4530TIP3    H213534   4.210   5.281   2.441
 4531TIP3   OH213535   3.733   7.031   3.214
 4531TIP3    H113536   3.818   7.046   3.256
 4531TIP3    H213537   3.672   7.083   3.266
 4532TIP3   OH213538   6.478   5.012   1.429
 4532TIP3    H113539   6.468   5.104   1.452
 4532TIP3    H213540   6.552   5.011   1.368
 4533TIP3   OH213541   8.024   0.802   4.335
 4533TIP3    H113542   7.969   0.839   4.267
 4533TIP3    H213543   8.108   0.847   4.325
 4534TIP3   OH213544   4.837   2.539   6.162
 4534TIP3    H113545   4.782   2.499   6.095
 4534TIP3    H213546   4.830   2.481   6.238
 4535TIP3   OH213547   4.903   1.368   1.953
 4535TIP3    H113548   4.957   1.356   1.875
 4535TIP3    H213549   4.869   1.281   1.973
 4536TIP3   OH213550   0.779   1.033   4.016
 4536TIP3    H113551   0.748   1.106   3.964
 4536TIP3    H213552   0.874   1.046   4.023
 4537TIP3   OH213553   5.370   5.323   4.454
 4537TIP3    H113554   5.367   5.417   4.436
 4537TIP3    H213555   5.364   5.282   4.368
 4538TIP3   OH213556   5.435   7.643   0.673
 4538TIP3    H113557   5.452   7.553   0.702
 4538TIP3    H213558   5.491   7.655   0.597
 4539TIP3   OH213559   3.915   5.157   2.617
 4539TIP3    H113560   3.909   5.062   2.604
 4539TIP3    H213561   4.008   5.177   2.607
 4540TIP3   OH213562   4.487   6.049   1.210
 4540TIP3    H113563   4.496   6.142   1.187
 4540TIP3    H213564   4.464   6.006   1.127
 4541TIP3   OH213565   3.207   1.970   1.515
 4541TIP3    H113566   3.182   2.024   1.440
 4541TIP3    H213567   3.175   1.882   1.493
 4542TIP3   OH213568   3.011   1.447   4.693
 4542TIP3    H113569   2.922   1.478   4.680
 4542TIP3    H213570   3.048   1.505   4.759
 4543TIP3   OH213571   7.906   1.985   5.429
 4543TIP3    H113572   7.977   2.026   5.478
 4543TIP3    H213573   7.829   2.039   5.448
 4544TIP3   OH213574   0.529   5.717   1.906
 4544TIP3    H113575   0.441   5.693   1.937
 4544TIP3    H213576   0.519   5.726   1.811
 4545TIP3   OH213577   2.997   5.267   2.886
 4545TIP3    H113578   3.039   5.202   2.830
 4545TIP3    H213579   2.942   5.319   2.827
 4546TIP3   OH213580   2.551   0.630   5.517
 4546TIP3    H113581   2.473   0.677   5.550
 4546TIP3    H213582   2.559   0.554   5.575
 4547TIP3   OH213583   2.891   3.374   6.455
 4547TIP3    H113584   2.827   3.406   6.518
 4547TIP3    H213585   2.951   3.447   6.442
 4548TIP3   OH213586   3.000   3.105   2.719
 4548TIP3    H113587   3.038   3.019   2.700
 4548TIP3    H213588   2.924   3.086   2.774
 4549TIP3   OH213589   4.480   3.771   2.608
 4549TIP3    H113590   4.396   3.778   2.652
 4549TIP3    H213591   4.460   3.728   2.525
 4550TIP3   OH213592   3.030   6.454   0.252
 4550TIP3    H113593   3.000   6.545   0.254
 4550TIP3    H213594   2.999   6.417   0.335
 4551TIP3   OH213595   7.651   5.626   4.879
 4551TIP3    H113596   7.636   5.590   4.967
 4551TIP3    H213597   7.743   5.607   4.861
 4552TIP3   OH213598   4.144   2.853   5.286
 4552TIP3    H113599   4.083   2.789   5.322
 4552TIP3    H213600   4.231   2.817   5.304
 4553TIP3   OH213601   7.333   7.091   2.628
 4553TIP3    H113602   7.369   7.071   2.542
 4553TIP3    H213603   7.397   7.149   2.668
 4554TIP3   OH213604   2.860   5.245   5.780
 4554TIP3    H113605   2.805   5.181   5.825
 4554TIP3    H213606   2.842   5.328   5.824
 4555TIP3   OH213607   0.864   4.073   2.898
 4555TIP3    H113608   0.853   4.161   2.861
 4555TIP3    H213609   0.894   4.088   2.987
 4556TIP3   OH213610   3.962   2.524   0.857
 4556TIP3    H113611   3.891   2.547   0.797
 4556TIP3    H213612   3.938   2.566   0.939
 4557TIP3   OH213613   2.103   3.120   1.932
 4557TIP3    H113614   2.069   3.209   1.938
 4557TIP3    H213615   2.177   3.126   1.873
 4558TIP3   OH213616   8.193   7.681   0.210
 4558TIP3    H113617   8.138   7.643   0.142
 4558TIP3    H213618   8.182   7.622   0.285
 4559TIP3   OH213619   1.745   3.247   1.475
 4559TIP3    H113620   1.706   3.192   1.407
 4559TIP3    H213621   1.837   3.257   1.448
 4560TIP3   OH213622   1.811   0.902   5.205
 4560TIP3    H113623   1.851   0.836   5.261
 4560TIP3    H213624   1.853   0.984   5.230
 4561TIP3   OH213625   4.538   0.732   3.179
 4561TIP3    H113626   4.463   0.702   3.230
 4561TIP3    H213627   4.608   0.670   3.200
 4562TIP3   OH213628   6.943   7.175   6.507
 4562TIP3    H113629   6.934   7.125   6.426
 4562TIP3    H213630   7.012   7.239   6.489
 4563TIP3   OH213631   6.582   4.623   6.597
 4563TIP3    H113632   6.538   4.645   6.515
 4563TIP3    H213633   6.584   4.528   6.598
 4564TIP3   OH213634   3.001   2.051   4.625
 4564TIP3    H113635   2.998   2.064   4.720
 4564TIP3    H213636   2.969   1.962   4.611
 4565TIP3   OH213637   5.367   3.231   4.236
 4565TIP3    H113638   5.428   3.170   4.278
 4565TIP3    H213639   5.280   3.202   4.266
 4566TIP3   OH213640   3.204   2.302   3.328
 4566TIP3    H113641   3.239   2.244   3.261
 4566TIP3    H213642   3.264   2.377   3.329
 4567TIP3   OH213643   2.808   2.840   3.295
 4567TIP3    H113644   2.867   2.881   3.233
 4567TIP3    H213645   2.720   2.865   3.266
 4568TIP3   OH213646   7.832   0.804   4.840
 4568TIP3    H113647   7.895   0.795   4.768
 4568TIP3    H213648   7.757   0.751   4.812
 4569TIP3   OH213649   6.497   7.663   1.614
 4569TIP3    H113650   6.523   7.621   1.696
 4569TIP3    H213651   6.490   7.756   1.635
 4570TIP3   OH213652   4.411   2.192   4.003
 4570TIP3    H113653   4.466   2.228   4.073
 4570TIP3    H213654   4.371   2.269   3.963
 4571TIP3   OH213655   3.215   2.759   4.655
 4571TIP3    H113656   3.306   2.767   4.682
 4571TIP3    H213657   3.217   2.770   4.560
 4572TIP3   OH213658   1.544   5.284   3.203
 4572TIP3    H113659   1.546   5.216   3.270
 4572TIP3    H213660   1.636   5.307   3.190
 4573TIP3   OH213661   4.848   4.581   6.213
 4573TIP3    H113662   4.829   4.514   6.147
 4573TIP3    H213663   4.783   4.650   6.197
 4574TIP3   OH213664   2.513   0.262   6.268
 4574TIP3    H113665   2.439   0.238   6.324
 4574TIP3    H213666   2.479   0.333   6.213
 4575TIP3   OH213667   0.466   5.019   2.193
 4575TIP3    H113668   0.493   4.945   2.138
 4575TIP3    H213669   0.399   5.064   2.142
 4576TIP3   OH213670   1.639   7.183   2.377
 4576TIP3    H113671   1.685   7.256   2.418
 4576TIP3    H213672   1.679   7.105   2.416
 4577TIP3   OH213673   8.027   1.445   0.161
 4577TIP3    H113674   8.040   1.421   0.252
 4577TIP3    H213675   8.039   1.364   0.112
 4578TIP3   OH213676   1.257   2.785   4.610
 4578TIP3    H113677   1.285   2.846   4.541
 4578TIP3    H213678   1.191   2.731   4.568
 4579TIP3   OH213679   4.622   3.066   2.810
 4579TIP3    H113680   4.593   3.152   2.777
 4579TIP3    H213681   4.691   3.087   2.872
 4580TIP3   OH213682   6.716   6.707   1.155
 4580TIP3    H113683   6.623   6.729   1.164
 4580TIP3    H213684   6.727   6.688   1.062
 4581TIP3   OH213685   0.802   7.417   2.272
 4581TIP3    H113686   0.734   7.484   2.262
 4581TIP3    H213687   0.884   7.464   2.257
 4582TIP3   OH213688   7.103   6.060   6.410
 4582TIP3    H113689   7.079   6.125   6.475
 4582TIP3    H213690   7.019   6.023   6.382
 4583TIP3   OH213691   1.214   4.891   6.259
 4583TIP3    H113692   1.267   4.856   6.330
 4583TIP3    H213693   1.129   4.909   6.299
 4584TIP3   OH213694   6.657   7.546   2.242
 4584TIP3    H113695   6.704   7.474   2.199
 4584TIP3    H213696   6.715   7.574   2.312
 4585TIP3   OH213697   2.549   3.371   0.126
 4585TIP3    H113698   2.472   3.410   0.084
 4585TIP3    H213699   2.619   3.382   0.062
 4586TIP3   OH213700   7.314   2.895   0.524
 4586TIP3    H113701   7.329   2.829   0.592
 4586TIP3    H213702   7.375   2.872   0.454
 4587TIP3   OH213703   1.392   7.171   1.395
 4587TIP3    H113704   1.483   7.152   1.372
 4587TIP3    H213705   1.382   7.264   1.377
 4588TIP3   OH213706   7.219   6.616   1.148
 4588TIP3    H113707   7.196   6.597   1.057
 4588TIP3    H213708   7.294   6.560   1.167
 4589TIP3   OH213709   6.161   6.412   4.033
 4589TIP3    H113710   6.230   6.477   4.045
 4589TIP3    H213711   6.084   6.463   4.007
 4590TIP3   OH213712   6.550   1.447   2.197
 4590TIP3    H113713   6.524   1.453   2.105
 4590TIP3    H213714   6.511   1.523   2.239
 4591TIP3   OH213715   6.071   1.079   4.543
 4591TIP3    H113716   6.062   1.053   4.451
 4591TIP3    H213717   5.995   1.135   4.560
 4592TIP3   OH213718   5.721   1.602   5.018
 4592TIP3    H113719   5.741   1.512   4.996
 4592TIP3    H213720   5.715   1.647   4.934
 4593TIP3   OH213721   2.689   7.689   2.332
 4593TIP3    H113722   2.652   7.608   2.297
 4593TIP3    H213723   2.752   7.660   2.398
 4594TIP3   OH213724   4.990   0.812   0.502
 4594TIP3    H113725   4.940   0.869   0.443
 4594TIP3    H213726   4.950   0.726   0.491
 4595TIP3   OH213727   1.721   0.554   2.425
 4595TIP3    H113728   1.651   0.522   2.367
 4595TIP3    H213729   1.794   0.494   2.409
 4596TIP3   OH213730   5.644   1.620   4.739
 4596TIP3    H113731   5.695   1.585   4.665
 4596TIP3    H213732   5.567   1.564   4.743
 4597TIP3   OH213733   1.091   1.433   2.814
 4597TIP3    H113734   1.071   1.432   2.720
 4597TIP3    H213735   1.186   1.441   2.818
 4598TIP3   OH213736   1.560   3.291   1.062
 4598TIP3    H113737   1.635   3.330   1.018
 4598TIP3    H213738   1.514   3.243   0.993
 4599TIP3   OH213739   3.158   3.420   3.121
 4599TIP3    H113740   3.231   3.482   3.117
 4599TIP3    H213741   3.184   3.348   3.063
 4600TIP3   OH213742   6.788   2.459   4.151
 4600TIP3    H113743   6.828   2.378   4.118
 4600TIP3    H213744   6.711   2.471   4.095
 4601TIP3   OH213745   1.780   2.380   6.245
 4601TIP3    H113746   1.724   2.316   6.290
 4601TIP3    H213747   1.833   2.327   6.185
 4602TIP3   OH213748   3.384   7.478   4.553
 4602TIP3    H113749   3.417   7.566   4.571
 4602TIP3    H213750   3.311   7.492   4.492
 4603TIP3   OH213751   1.185   6.316   6.585
 4603TIP3    H113752   1.117   6.372   6.622
 4603TIP3    H213753   1.140   6.236   6.561
 4604TIP3   OH213754   5.111   2.027   6.540
 4604TIP3    H113755   5.164   2.056   6.466
 4604TIP3    H213756   5.108   2.103   6.598
 4605TIP3   OH213757   2.661   7.728   5.466
 4605TIP3    H113758   2.587   7.763   5.517
 4605TIP3    H213759   2.735   7.732   5.526
 4606TIP3   OH213760   5.693   3.646   1.616
 4606TIP3    H113761   5.763   3.636   1.679
 4606TIP3    H213762   5.626   3.583   1.643
 4607TIP3   OH213763   3.784   1.300   4.160
 4607TIP3    H113764   3.785   1.380   4.213
 4607TIP3    H213765   3.874   1.291   4.129
 4608TIP3   OH213766   4.980   3.975   5.754
 4608TIP3    H113767   4.958   3.971   5.661
 4608TIP3    H213768   4.933   4.052   5.786
 4609TIP3   OH213769   1.763   7.843   6.172
 4609TIP3    H113770   1.773   7.765   6.117
 4609TIP3    H213771   1.719   7.812   6.251
 4610TIP3   OH213772   0.325   4.378   5.830
 4610TIP3    H113773   0.250   4.360   5.887
 4610TIP3    H213774   0.357   4.292   5.804
 4611TIP3   OH213775   6.155   0.816   5.828
 4611TIP3    H113776   6.131   0.723   5.830
 4611TIP3    H213777   6.089   0.858   5.883
 4612TIP3   OH213778   0.485   7.535   1.745
 4612TIP3    H113779   0.444   7.449   1.753
 4612TIP3    H213780   0.554   7.535   1.811
 4613TIP3   OH213781   5.045   1.666   1.670
 4613TIP3    H113782   5.087   1.581   1.679
 4613TIP3    H213783   5.117   1.729   1.668
 4614TIP3   OH213784   2.078   6.590   0.636
 4614TIP3    H113785   2.071   6.517   0.574
 4614TIP3    H213786   2.130   6.554   0.708
 4615TIP3   OH213787   0.595   0.308   2.980
 4615TIP3    H113788   0.647   0.387   2.996
 4615TIP3    H213789   0.563   0.283   3.067
 4616TIP3   OH213790   2.915   3.630   3.004
 4616TIP3    H113791   2.894   3.572   3.077
 4616TIP3    H213792   2.964   3.575   2.943
 4617TIP3   OH213793   0.116   3.712   4.506
 4617TIP3    H113794   0.074   3.700   4.421
 4617TIP3    H213795   0.179   3.640   4.512
 4618TIP3   OH213796   4.523   2.542   0.859
 4618TIP3    H113797   4.562   2.621   0.895
 4618TIP3    H213798   4.508   2.486   0.935
 4619TIP3   OH213799   7.409   5.396   5.393
 4619TIP3    H113800   7.407   5.487   5.364
 4619TIP3    H213801   7.357   5.395   5.473
 4620TIP3   OH213802   4.736   2.358   5.412
 4620TIP3    H113803   4.744   2.346   5.318
 4620TIP3    H213804   4.820   2.395   5.439
 4621TIP3   OH213805   5.358   2.855   4.463
 4621TIP3    H113806   5.419   2.792   4.501
 4621TIP3    H213807   5.294   2.871   4.532
 4622TIP3   OH213808   7.052   3.964   5.350
 4622TIP3    H113809   7.085   4.033   5.293
 4622TIP3    H213810   7.124   3.902   5.357
 4623TIP3   OH213811   4.509   4.621   4.486
 4623TIP3    H113812   4.446   4.604   4.556
 4623TIP3    H213813   4.472   4.696   4.439
 4624TIP3   OH213814   7.866   0.712   2.614
 4624TIP3    H113815   7.917   0.760   2.549
 4624TIP3    H213816   7.798   0.668   2.564
 4625TIP3   OH213817   4.145   5.702   2.558
 4625TIP3    H113818   4.070   5.645   2.542
 4625TIP3    H213819   4.131   5.736   2.646
 4626TIP3   OH213820   5.543   7.266   6.730
 4626TIP3    H113821   5.626   7.226   6.701
 4626TIP3    H213822   5.488   7.265   6.652
 4627TIP3   OH213823   0.287   6.899   3.692
 4627TIP3    H113824   0.352   6.834   3.667
 4627TIP3    H213825   0.334   6.982   3.692
 4628TIP3   OH213826   1.613   1.171   5.742
 4628TIP3    H113827   1.644   1.156   5.832
 4628TIP3    H213828   1.519   1.187   5.752
 4629TIP3   OH213829   1.840   7.735   5.644
 4629TIP3    H113830   1.918   7.789   5.660
 4629TIP3    H213831   1.876   7.651   5.613
 4630TIP3   OH213832   6.169   4.740   6.248
 4630TIP3    H113833   6.246   4.690   6.276
 4630TIP3    H213834   6.099   4.675   6.242
 4631TIP3   OH213835   1.177   2.689   0.776
 4631TIP3    H113836   1.246   2.683   0.709
 4631TIP3    H213837   1.101   2.648   0.735
 4632TIP3   OH213838   0.479   0.541   5.281
 4632TIP3    H113839   0.420   0.603   5.239
 4632TIP3    H213840   0.430   0.509   5.357
 4633TIP3   OH213841   4.985   7.173   0.794
 4633TIP3    H113842   4.994   7.183   0.699
 4633TIP3    H213843   4.991   7.079   0.809
 4634TIP3   OH213844   3.683   0.931   4.970
 4634TIP3    H113845   3.617   0.864   4.984
 4634TIP3    H213846   3.767   0.885   4.976
 4635TIP3   OH213847   1.698   2.769   1.208
 4635TIP3    H113848   1.767   2.812   1.259
 4635TIP3    H213849   1.618   2.817   1.229
 4636TIP3   OH213850   6.638   2.381   4.538
 4636TIP3    H113851   6.619   2.443   4.608
 4636TIP3    H213852   6.576   2.310   4.551
 4637TIP3   OH213853   1.131   7.248   4.944
 4637TIP3    H113854   1.218   7.234   4.980
 4637TIP3    H213855   1.072   7.207   5.007
 4638TIP3   OH213856   5.235   3.935   3.661
 4638TIP3    H113857   5.199   3.866   3.717
 4638TIP3    H213858   5.200   3.916   3.574
 4639TIP3   OH213859   6.754   1.775   0.291
 4639TIP3    H113860   6.804   1.703   0.253
 4639TIP3    H213861   6.759   1.845   0.225
 4640TIP3   OH213862   5.728   1.737   2.295
 4640TIP3    H113863   5.751   1.800   2.226
 4640TIP3    H213864   5.774   1.768   2.372
 4641TIP3   OH213865   3.340   7.294   2.886
 4641TIP3    H113866   3.351   7.210   2.843
 4641TIP3    H213867   3.248   7.296   2.912
 4642TIP3   OH213868   5.409   1.522   5.476
 4642TIP3    H113869   5.318   1.510   5.447
 4642TIP3    H213870   5.415   1.470   5.556
 4643TIP3   OH213871   3.495   3.657   1.678
 4643TIP3    H113872   3.542   3.661   1.761
 4643TIP3    H213873   3.503   3.746   1.642
 4644TIP3   OH213874   0.060   5.687   6.005
 4644TIP3    H113875   0.039   5.760   5.946
 4644TIP3    H213876   0.153   5.670   5.989
 4645TIP3   OH213877  -0.008   1.212   6.221
 4645TIP3    H113878  -0.002   1.194   6.315
 4645TIP3    H213879  -0.018   1.307   6.215
 4646TIP3   OH213880   0.281   4.672   5.824
 4646TIP3    H113881   0.281   4.681   5.728
 4646TIP3    H213882   0.302   4.580   5.839
 4647TIP3   OH213883   2.157   1.053   5.854
 4647TIP3    H113884   2.219   1.065   5.782
 4647TIP3    H213885   2.075   1.091   5.822
 4648TIP3   OH213886   6.311   6.788   0.872
 4648TIP3    H113887   6.303   6.692   0.870
 4648TIP3    H213888   6.364   6.806   0.949
 4649TIP3   OH213889   5.800   6.936   3.857
 4649TIP3    H113890   5.816   6.842   3.873
 4649TIP3    H213891   5.705   6.945   3.864
 4650TIP3   OH213892   5.320   0.507   3.413
 4650TIP3    H113893   5.310   0.557   3.332
 4650TIP3    H213894   5.412   0.483   3.416
 4651TIP3   OH213895   6.383   5.523   0.688
 4651TIP3    H113896   6.331   5.545   0.611
 4651TIP3    H213897   6.390   5.605   0.737
 4652TIP3   OH213898   5.679   5.941   6.166
 4652TIP3    H113899   5.750   5.891   6.206
 4652TIP3    H213900   5.599   5.899   6.199
 4653TIP3   OH213901   6.893   6.571   0.441
 4653TIP3    H113902   6.826   6.507   0.465
 4653TIP3    H213903   6.843   6.647   0.410
 4654TIP3   OH213904   4.533   0.143   1.910
 4654TIP3    H113905   4.442   0.126   1.886
 4654TIP3    H213906   4.584   0.107   1.837
 4655TIP3   OH213907   5.095   5.375   2.663
 4655TIP3    H113908   5.045   5.349   2.585
 4655TIP3    H213909   5.096   5.297   2.718
 4656TIP3   OH213910   7.253   0.555   1.979
 4656TIP3    H113911   7.219   0.576   1.892
 4656TIP3    H213912   7.180   0.512   2.023
 4657TIP3   OH213913   1.175   5.674   1.701
 4657TIP3    H113914   1.081   5.686   1.686
 4657TIP3    H213915   1.180   5.602   1.764
 4658TIP3   OH213916   1.583   4.255   5.836
 4658TIP3    H113917   1.598   4.223   5.747
 4658TIP3    H213918   1.509   4.315   5.827
 4659TIP3   OH213919   7.199   0.533   4.273
 4659TIP3    H113920   7.262   0.487   4.218
 4659TIP3    H213921   7.196   0.622   4.238
 4660TIP3   OH213922   2.666   5.916   5.148
 4660TIP3    H113923   2.585   5.966   5.141
 4660TIP3    H213924   2.734   5.976   5.118
 4661TIP3   OH213925   8.059   6.947   6.375
 4661TIP3    H113926   8.077   7.041   6.377
 4661TIP3    H213927   8.132   6.908   6.424
 4662TIP3   OH213928   6.844   1.849   4.441
 4662TIP3    H113929   6.916   1.803   4.485
 4662TIP3    H213930   6.803   1.902   4.510
 4663TIP3   OH213931   8.173   3.122   4.674
 4663TIP3    H113932   8.143   3.207   4.642
 4663TIP3    H213933   8.247   3.100   4.617
 4664TIP3   OH213934   8.079   6.774   4.510
 4664TIP3    H113935   8.154   6.766   4.569
 4664TIP3    H213936   8.116   6.810   4.430
 4665TIP3   OH213937   0.249   7.347   1.833
 4665TIP3    H113938   0.171   7.370   1.883
 4665TIP3    H213939   0.218   7.292   1.762
 4666TIP3   OH213940   5.634   2.231   1.609
 4666TIP3    H113941   5.559   2.180   1.579
 4666TIP3    H213942   5.703   2.166   1.623
 4667TIP3   OH213943   5.662   6.106   4.527
 4667TIP3    H113944   5.746   6.133   4.565
 4667TIP3    H213945   5.664   6.011   4.531
 4668TIP3   OH213946   5.734   3.064   3.576
 4668TIP3    H113947   5.774   3.146   3.548
 4668TIP3    H213948   5.641   3.073   3.554
 4669TIP3   OH213949   6.631   5.877   2.309
 4669TIP3    H113950   6.602   5.937   2.239
 4669TIP3    H213951   6.556   5.820   2.324
 4670TIP3   OH213952   2.928   7.198   3.145
 4670TIP3    H113953   2.925   7.132   3.213
 4670TIP3    H213954   2.914   7.150   3.064
 4671TIP3   OH213955   5.312   7.690   2.475
 4671TIP3    H113956   5.304   7.689   2.570
 4671TIP3    H213957   5.260   7.615   2.446
 4672TIP3   OH213958   1.928   6.280   5.319
 4672TIP3    H113959   1.915   6.214   5.386
 4672TIP3    H213960   1.992   6.242   5.259
 4673TIP3   OH213961   0.933   2.728   5.040
 4673TIP3    H113962   0.883   2.660   4.995
 4673TIP3    H213963   0.892   2.735   5.126
 4674TIP3   OH213964   3.139   7.140   4.727
 4674TIP3    H113965   3.194   7.061   4.725
 4674TIP3    H213966   3.197   7.209   4.756
 4675TIP3   OH213967   6.966   2.536   0.725
 4675TIP3    H113968   6.927   2.547   0.638
 4675TIP3    H213969   6.894   2.551   0.785
 4676TIP3   OH213970   3.960   6.709   6.544
 4676TIP3    H113971   3.904   6.685   6.618
 4676TIP3    H213972   3.945   6.803   6.533
 4677TIP3   OH213973   3.251   1.824   2.447
 4677TIP3    H113974   3.277   1.878   2.372
 4677TIP3    H213975   3.331   1.777   2.471
 4678TIP3   OH213976   7.539   4.970   1.322
 4678TIP3    H113977   7.526   5.005   1.234
 4678TIP3    H213978   7.536   4.875   1.310
 4679TIP3   OH213979   5.694   7.682   2.161
 4679TIP3    H113980   5.677   7.736   2.084
 4679TIP3    H213981   5.752   7.613   2.129
 4680TIP3   OH213982   1.330   5.411   3.875
 4680TIP3    H113983   1.311   5.500   3.902
 4680TIP3    H213984   1.250   5.381   3.831
 4681TIP3   OH213985   3.696   3.427   0.144
 4681TIP3    H113986   3.622   3.426   0.083
 4681TIP3    H213987   3.719   3.519   0.153
 4682TIP3   OH213988   4.285   1.155   2.728
 4682TIP3    H113989   4.204   1.104   2.717
 4682TIP3    H213990   4.351   1.090   2.750
 4683TIP3   OH213991   0.839   6.317   5.539
 4683TIP3    H113992   0.838   6.222   5.533
 4683TIP3    H213993   0.772   6.346   5.477
 4684TIP3   OH213994   5.134   6.147   5.371
 4684TIP3    H113995   5.190   6.074   5.397
 4684TIP3    H213996   5.098   6.180   5.454
 4685TIP3   OH213997   4.519   7.246   6.021
 4685TIP3    H113998   4.503   7.184   6.092
 4685TIP3    H213999   4.483   7.204   5.943
 4686TIP3   OH214000   4.120   0.504   5.703
 4686TIP3    H114001   4.145   0.429   5.756
 4686TIP3    H214002   4.026   0.513   5.716
 4687TIP3   OH214003   6.486   6.511   6.459
 4687TIP3    H114004   6.451   6.527   6.372
 4687TIP3    H214005   6.581   6.516   6.448
 4688TIP3   OH214006   6.547   4.619   1.781
 4688TIP3    H114007   6.492   4.593   1.707
 4688TIP3    H214008   6.556   4.714   1.772
 4689TIP3   OH214009   7.167   5.289   2.381
 4689TIP3    H114010   7.197   5.375   2.409
 4689TIP3    H214011   7.075   5.286   2.406
 4690TIP3   OH214012   7.017   4.993   0.399
 4690TIP3    H114013   7.070   5.059   0.356
 4690TIP3    H214014   6.939   4.986   0.344
 4691TIP3   OH214015   4.521   3.808   5.883
 4691TIP3    H114016   4.510   3.903   5.883
 4691TIP3    H214017   4.437   3.773   5.855
 4692TIP3   OH214018   8.288   3.989   3.424
 4692TIP3    H114019   8.379   4.005   3.450
 4692TIP3    H214020   8.237   4.053   3.474
 4693TIP3   OH214021   0.711   2.171   1.635
 4693TIP3    H114022   0.730   2.085   1.597
 4693TIP3    H214023   0.693   2.154   1.727
 4694TIP3   OH214024   5.848   2.397   5.394
 4694TIP3    H114025   5.934   2.360   5.418
 4694TIP3    H214026   5.851   2.487   5.427
 4695TIP3   OH214027   5.429   0.461   6.232
 4695TIP3    H114028   5.428   0.384   6.289
 4695TIP3    H214029   5.389   0.531   6.284
 4696TIP3   OH214030   5.140   2.187   1.580
 4696TIP3    H114031   5.217   2.130   1.568
 4696TIP3    H214032   5.171   2.257   1.637
 4697TIP3   OH214033   3.474   5.138   2.859
 4697TIP3    H114034   3.455   5.195   2.785
 4697TIP3    H214035   3.465   5.195   2.936
 4698TIP3   OH214036   1.787   7.267   3.290
 4698TIP3    H114037   1.727   7.340   3.310
 4698TIP3    H214038   1.772   7.204   3.360
 4699TIP3   OH214039   5.956   3.329   4.085
 4699TIP3    H114040   5.905   3.248   4.096
 4699TIP3    H214041   6.015   3.310   4.013
 4700TIP3   OH214042   3.820   2.782   3.022
 4700TIP3    H114043   3.899   2.727   3.029
 4700TIP3    H214044   3.770   2.742   2.951
 4701TIP3   OH214045   5.374   1.741   4.830
 4701TIP3    H114046   5.278   1.748   4.837
 4701TIP3    H214047   5.391   1.647   4.827
 4702TIP3   OH214048   3.972   6.119   2.674
 4702TIP3    H114049   3.929   6.045   2.631
 4702TIP3    H214050   4.065   6.101   2.665
 4703TIP3   OH214051   4.122   1.224   2.215
 4703TIP3    H114052   4.197   1.283   2.219
 4703TIP3    H214053   4.106   1.211   2.121
 4704TIP3   OH214054   3.646   0.092   4.384
 4704TIP3    H114055   3.736   0.125   4.384
 4704TIP3    H214056   3.655  -0.002   4.368
 4705TIP3   OH214057   6.653   3.641   4.888
 4705TIP3    H114058   6.633   3.690   4.967
 4705TIP3    H214059   6.617   3.694   4.816
 4706TIP3   OH214060   6.728   2.815   4.132
 4706TIP3    H114061   6.749   2.908   4.138
 4706TIP3    H214062   6.796   2.771   4.183
 4707TIP3   OH214063   8.068   4.795   5.509
 4707TIP3    H114064   7.992   4.739   5.495
 4707TIP3    H214065   8.034   4.872   5.555
 4708TIP3   OH214066   2.093   6.370   5.934
 4708TIP3    H114067   2.158   6.334   5.994
 4708TIP3    H214068   2.110   6.325   5.851
 4709TIP3   OH214069   1.691   3.544   0.237
 4709TIP3    H114070   1.784   3.541   0.215
 4709TIP3    H214071   1.681   3.483   0.310
 4710TIP3   OH214072   2.990   0.067   4.655
 4710TIP3    H114073   3.039  -0.013   4.678
 4710TIP3    H214074   2.997   0.073   4.560
 4711TIP3   OH214075   7.066   5.612   3.706
 4711TIP3    H114076   6.971   5.603   3.704
 4711TIP3    H214077   7.084   5.661   3.786
 4712TIP3   OH214078   3.582   7.168   3.406
 4712TIP3    H114079   3.530   7.107   3.458
 4712TIP3    H214080   3.659   7.187   3.461
 4713TIP3   OH214081   5.090   0.152   5.292
 4713TIP3    H114082   5.177   0.188   5.311
 4713TIP3    H214083   5.042   0.226   5.254
 4714TIP3   OH214084   4.197   5.873   1.411
 4714TIP3    H114085   4.194   5.799   1.473
 4714TIP3    H214086   4.222   5.833   1.328
 4715TIP3   OH214087   7.533   7.505   1.735
 4715TIP3    H114088   7.628   7.498   1.733
 4715TIP3    H214089   7.513   7.571   1.668
 4716TIP3   OH214090   1.739   1.057   5.495
 4716TIP3    H114091   1.698   1.094   5.574
 4716TIP3    H214092   1.790   0.983   5.528
 4717TIP3   OH214093   7.355   7.505   6.244
 4717TIP3    H114094   7.359   7.563   6.320
 4717TIP3    H214095   7.418   7.542   6.183
 4718TIP3   OH214096   2.119   0.287   4.712
 4718TIP3    H114097   2.214   0.303   4.711
 4718TIP3    H214098   2.091   0.317   4.799
 4719TIP3   OH214099   7.948   3.246   2.705
 4719TIP3    H114100   7.995   3.193   2.640
 4719TIP3    H214101   8.002   3.240   2.784
 4720TIP3   OH214102   7.312   6.794   2.710
 4720TIP3    H114103   7.383   6.783   2.774
 4720TIP3    H214104   7.316   6.886   2.686
 4721TIP3   OH214105   1.228   1.519   4.284
 4721TIP3    H114106   1.317   1.552   4.298
 4721TIP3    H214107   1.205   1.550   4.197
 4722TIP3   OH214108   3.464   3.055   0.950
 4722TIP3    H114109   3.448   2.960   0.946
 4722TIP3    H214110   3.505   3.076   0.866
 4723TIP3   OH214111   5.413   0.797   6.119
 4723TIP3    H114112   5.322   0.780   6.096
 4723TIP3    H214113   5.442   0.863   6.056
 4724TIP3   OH214114   6.746   2.599   4.397
 4724TIP3    H114115   6.784   2.587   4.310
 4724TIP3    H214116   6.725   2.511   4.428
 4725TIP3   OH214117   7.636   2.103   5.878
 4725TIP3    H114118   7.621   2.193   5.849
 4725TIP3    H214119   7.588   2.096   5.961
 4726TIP3   OH214120   1.401   1.519   2.278
 4726TIP3    H114121   1.454   1.533   2.356
 4726TIP3    H214122   1.464   1.522   2.206
 4727TIP3   OH214123   2.252   1.100   0.957
 4727TIP3    H114124   2.160   1.109   0.981
 4727TIP3    H214125   2.250   1.047   0.877
 4728TIP3   OH214126   1.698   2.621   4.405
 4728TIP3    H114127   1.619   2.622   4.351
 4728TIP3    H214128   1.742   2.703   4.384
 4729TIP3   OH214129   3.592   2.365   1.586
 4729TIP3    H114130   3.634   2.438   1.538
 4729TIP3    H214131   3.508   2.354   1.543
 4730TIP3   OH214132   2.210   6.207   1.405
 4730TIP3    H114133   2.170   6.120   1.400
 4730TIP3    H214134   2.277   6.199   1.472
 4731TIP3   OH214135   3.684   6.328   2.415
 4731TIP3    H114136   3.624   6.398   2.386
 4731TIP3    H214137   3.628   6.250   2.421
 4732TIP3   OH214138   6.963   1.161   1.527
 4732TIP3    H114139   6.903   1.156   1.602
 4732TIP3    H214140   6.914   1.209   1.461
 4733TIP3   OH214141   2.748   1.031   3.875
 4733TIP3    H114142   2.807   1.009   3.948
 4733TIP3    H214143   2.799   1.010   3.796
 4734TIP3   OH214144   0.342   5.410   4.212
 4734TIP3    H114145   0.404   5.395   4.283
 4734TIP3    H214146   0.395   5.399   4.132
 4735TIP3   OH214147   3.283   1.414   3.944
 4735TIP3    H114148   3.347   1.396   3.874
 4735TIP3    H214149   3.254   1.504   3.928
 4736TIP3   OH214150   6.817   6.424   1.199
 4736TIP3    H114151   6.810   6.519   1.186
 4736TIP3    H214152   6.864   6.415   1.282
 4737TIP3   OH214153   1.668   3.779   3.239
 4737TIP3    H114154   1.613   3.735   3.174
 4737TIP3    H214155   1.757   3.753   3.217
 4738TIP3   OH214156   1.643   4.729   5.312
 4738TIP3    H114157   1.680   4.818   5.315
 4738TIP3    H214158   1.552   4.740   5.338
 4739TIP3   OH214159   5.298   4.184   6.492
 4739TIP3    H114160   5.284   4.197   6.399
 4739TIP3    H214161   5.247   4.253   6.534
 4740TIP3   OH214162   4.807   0.277   1.064
 4740TIP3    H114163   4.868   0.324   1.121
 4740TIP3    H214164   4.861   0.251   0.989
 4741TIP3   OH214165   5.710   7.629   0.877
 4741TIP3    H114166   5.768   7.671   0.940
 4741TIP3    H214167   5.723   7.678   0.796
 4742TIP3   OH214168   5.213   5.118   3.836
 4742TIP3    H114169   5.155   5.154   3.903
 4742TIP3    H214170   5.159   5.112   3.758
 4743TIP3   OH214171   6.712   4.375   6.571
 4743TIP3    H114172   6.684   4.284   6.576
 4743TIP3    H214173   6.784   4.381   6.635
 4744TIP3   OH214174   5.037   4.470   0.548
 4744TIP3    H114175   4.965   4.522   0.512
 4744TIP3    H214176   4.998   4.425   0.623
 4745TIP3   OH214177   2.786   6.643   5.851
 4745TIP3    H114178   2.832   6.661   5.769
 4745TIP3    H214179   2.843   6.680   5.918
 4746TIP3   OH214180   5.491   7.305   5.290
 4746TIP3    H114181   5.482   7.279   5.382
 4746TIP3    H214182   5.552   7.241   5.253
 4747TIP3   OH214183   2.134   5.622   3.718
 4747TIP3    H114184   2.096   5.595   3.634
 4747TIP3    H214185   2.130   5.718   3.716
 4748TIP3   OH214186   6.391   5.590   4.449
 4748TIP3    H114187   6.481   5.598   4.419
 4748TIP3    H214188   6.397   5.599   4.544
 4749TIP3   OH214189   7.699   5.756   1.977
 4749TIP3    H114190   7.612   5.785   2.003
 4749TIP3    H214191   7.698   5.662   1.990
 4750TIP3   OH214192   8.303   6.553   6.688
 4750TIP3    H114193   8.308   6.634   6.738
 4750TIP3    H214194   8.209   6.532   6.686
 4751TIP3   OH214195   6.333   6.061   0.336
 4751TIP3    H114196   6.353   5.967   0.335
 4751TIP3    H214197   6.254   6.067   0.391
 4752TIP3   OH214198   6.622   4.255   3.390
 4752TIP3    H114199   6.540   4.300   3.372
 4752TIP3    H214200   6.685   4.326   3.405
 4753TIP3   OH214201   6.636   2.345   2.006
 4753TIP3    H114202   6.547   2.329   1.976
 4753TIP3    H214203   6.630   2.425   2.059
 4754TIP3   OH214204   7.914   0.187   6.593
 4754TIP3    H114205   7.874   0.156   6.675
 4754TIP3    H214206   7.840   0.218   6.541
 4755TIP3   OH214207   3.842   5.136   4.227
 4755TIP3    H114208   3.879   5.224   4.225
 4755TIP3    H214209   3.748   5.149   4.238
 4756TIP3   OH214210   7.492   1.286   0.712
 4756TIP3    H114211   7.545   1.363   0.693
 4756TIP3    H214212   7.547   1.233   0.770
 4757TIP3   OH214213   5.480   6.393   3.612
 4757TIP3    H114214   5.557   6.439   3.645
 4757TIP3    H214215   5.440   6.355   3.690
 4758TIP3   OH214216   6.175   7.388   2.910
 4758TIP3    H114217   6.199   7.306   2.868
 4758TIP3    H214218   6.106   7.364   2.972
 4759TIP3   OH214219   6.991   2.714   2.485
 4759TIP3    H114220   6.946   2.787   2.443
 4759TIP3    H214221   7.043   2.754   2.554
 4760TIP3   OH214222   4.727   1.505   4.987
 4760TIP3    H114223   4.721   1.592   4.947
 4760TIP3    H214224   4.816   1.476   4.968
 4761TIP3   OH214225   1.309   4.594   5.074
 4761TIP3    H114226   1.294   4.590   5.169
 4761TIP3    H214227   1.270   4.513   5.041
 4762TIP3   OH214228   1.985   2.019   2.169
 4762TIP3    H114229   2.011   2.095   2.221
 4762TIP3    H214230   1.992   2.049   2.078
 4763TIP3   OH214231   4.123   5.041   0.261
 4763TIP3    H114232   4.151   5.128   0.291
 4763TIP3    H214233   4.158   5.034   0.172
 4764TIP3   OH214234   3.501   5.208   6.063
 4764TIP3    H114235   3.458   5.201   5.978
 4764TIP3    H214236   3.570   5.141   6.061
 4765TIP3   OH214237   7.107   6.545   3.874
 4765TIP3    H114238   7.054   6.612   3.830
 4765TIP3    H214239   7.195   6.580   3.875
 4766TIP3   OH214240   4.069   6.116   2.144
 4766TIP3    H114241   4.087   6.118   2.238
 4766TIP3    H214242   4.155   6.127   2.103
 4767TIP3   OH214243   4.193   5.504   4.854
 4767TIP3    H114244   4.247   5.428   4.833
 4767TIP3    H214245   4.118   5.468   4.902
 4768TIP3   OH214246   2.083   0.777   6.176
 4768TIP3    H114247   2.117   0.790   6.265
 4768TIP3    H214248   2.070   0.682   6.170
 4769TIP3   OH214249   1.821   0.896   6.431
 4769TIP3    H114250   1.732   0.903   6.466
 4769TIP3    H214251   1.828   0.805   6.402
 4770TIP3   OH214252   6.490   4.859   5.978
 4770TIP3    H114253   6.546   4.935   5.961
 4770TIP3    H214254   6.446   4.880   6.060
 4771TIP3   OH214255   5.686   3.699   0.128
 4771TIP3    H114256   5.775   3.675   0.102
 4771TIP3    H214257   5.687   3.795   0.129
 4772TIP3   OH214258   3.712   2.910   3.405
 4772TIP3    H114259   3.714   2.874   3.493
 4772TIP3    H214260   3.669   2.842   3.352
 4773TIP3   OH214261   8.007   3.832   6.189
 4773TIP3    H114262   7.917   3.808   6.166
 4773TIP3    H214263   8.051   3.847   6.106
 4774TIP3   OH214264   0.632   2.952   0.018
 4774TIP3    H114265   0.557   2.906  -0.019
 4774TIP3    H214266   0.598   2.989   0.100
 4775TIP3   OH214267   2.417   2.941   5.495
 4775TIP3    H114268   2.372   2.999   5.557
 4775TIP3    H214269   2.469   2.883   5.551
 4776TIP3   OH214270   2.717   0.292   2.679
 4776TIP3    H114271   2.661   0.224   2.641
 4776TIP3    H214272   2.718   0.362   2.613
 4777TIP3   OH214273   5.017   7.746   5.147
 4777TIP3    H114274   5.019   7.698   5.064
 4777TIP3    H214275   4.986   7.834   5.123
 4778TIP3   OH214276   5.956   0.631   5.275
 4778TIP3    H114277   5.974   0.548   5.319
 4778TIP3    H214278   6.043   0.667   5.255
 4779TIP3   OH214279   0.476   4.609   4.778
 4779TIP3    H114280   0.401   4.614   4.836
 4779TIP3    H214281   0.537   4.550   4.822
 4780TIP3   OH214282   8.274   4.430   2.641
 4780TIP3    H114283   8.261   4.337   2.658
 4780TIP3    H214284   8.325   4.461   2.716
 4781TIP3   OH214285   6.578   3.166   6.014
 4781TIP3    H114286   6.584   3.199   5.925
 4781TIP3    H214287   6.626   3.083   6.012
 4782TIP3   OH214288   3.209   4.752   6.500
 4782TIP3    H114289   3.252   4.669   6.477
 4782TIP3    H214290   3.152   4.730   6.573
 4783TIP3   OH214291   2.149   7.028   3.276
 4783TIP3    H114292   2.202   6.992   3.205
 4783TIP3    H214293   2.144   7.121   3.257
 4784TIP3   OH214294   4.384   7.527   4.239
 4784TIP3    H114295   4.331   7.593   4.285
 4784TIP3    H214296   4.328   7.449   4.237
 4785TIP3   OH214297   3.524   2.392   2.156
 4785TIP3    H114298   3.434   2.371   2.184
 4785TIP3    H214299   3.560   2.441   2.229
 4786TIP3   OH214300   1.641   6.250   1.727
 4786TIP3    H114301   1.573   6.224   1.665
 4786TIP3    H214302   1.601   6.319   1.779
 4787TIP3   OH214303   3.555   5.776   0.593
 4787TIP3    H114304   3.637   5.765   0.545
 4787TIP3    H214305   3.504   5.699   0.571
 4788TIP3   OH214306   0.802   1.355   1.261
 4788TIP3    H114307   0.719   1.326   1.223
 4788TIP3    H214308   0.790   1.449   1.277
 4789TIP3   OH214309   3.701   4.951   2.365
 4789TIP3    H114310   3.786   4.947   2.407
 4789TIP3    H214311   3.698   4.873   2.309
 4790TIP3   OH214312   0.194   6.065   6.718
 4790TIP3    H114313   0.114   6.014   6.711
 4790TIP3    H214314   0.166   6.155   6.704
 4791TIP3   OH214315   5.224   3.566   6.576
 4791TIP3    H114316   5.201   3.484   6.533
 4791TIP3    H214317   5.186   3.634   6.519
 4792TIP3   OH214318   2.702   2.126   1.264
 4792TIP3    H114319   2.618   2.087   1.288
 4792TIP3    H214320   2.687   2.220   1.265
 4793TIP3   OH214321   0.351   4.113   5.369
 4793TIP3    H114322   0.300   4.058   5.429
 4793TIP3    H214323   0.397   4.050   5.313
 4794TIP3   OH214324   2.755   4.180   4.340
 4794TIP3    H114325   2.742   4.266   4.299
 4794TIP3    H214326   2.828   4.141   4.292
 4795TIP3   OH214327   0.934   6.579   2.805
 4795TIP3    H114328   0.976   6.495   2.826
 4795TIP3    H214329   0.994   6.645   2.838
 4796TIP3   OH214330   2.476   5.644   5.249
 4796TIP3    H114331   2.416   5.686   5.188
 4796TIP3    H214332   2.431   5.647   5.334
 4797TIP3   OH214333   1.845   3.608   2.020
 4797TIP3    H114334   1.875   3.612   2.110
 4797TIP3    H214335   1.753   3.636   2.024
 4798TIP3   OH214336   4.602   3.932   6.239
 4798TIP3    H114337   4.593   3.841   6.210
 4798TIP3    H214338   4.672   3.967   6.184
 4799TIP3   OH214339   7.911   7.298   0.787
 4799TIP3    H114340   7.914   7.203   0.791
 4799TIP3    H214341   7.964   7.327   0.862
 4800TIP3   OH214342   7.603   5.417   2.646
 4800TIP3    H114343   7.512   5.387   2.649
 4800TIP3    H214344   7.649   5.359   2.706
 4801TIP3   OH214345   7.743   3.465   4.604
 4801TIP3    H114346   7.764   3.372   4.594
 4801TIP3    H214347   7.694   3.488   4.524
 4802TIP3   OH214348   3.022   2.706   1.479
 4802TIP3    H114349   3.116   2.688   1.473
 4802TIP3    H214350   2.999   2.739   1.392
 4803TIP3   OH214351   2.683   4.111   5.482
 4803TIP3    H114352   2.739   4.053   5.430
 4803TIP3    H214353   2.704   4.199   5.452
 4804TIP3   OH214354   4.093   6.188   2.444
 4804TIP3    H114355   4.020   6.243   2.475
 4804TIP3    H214356   4.170   6.245   2.450
 4805TIP3   OH214357   5.675   3.730   3.773
 4805TIP3    H114358   5.694   3.801   3.834
 4805TIP3    H214359   5.587   3.749   3.740
 4806TIP3   OH214360   3.583   4.541   1.712
 4806TIP3    H114361   3.648   4.506   1.652
 4806TIP3    H214362   3.579   4.635   1.691
 4807TIP3   OH214363   2.823   6.010   4.807
 4807TIP3    H114364   2.831   6.033   4.714
 4807TIP3    H214365   2.738   5.964   4.813
 4808TIP3   OH214366   0.787   6.908   4.289
 4808TIP3    H114367   0.718   6.960   4.248
 4808TIP3    H214368   0.813   6.845   4.222
 4809TIP3   OH214369   1.734   4.232   0.153
 4809TIP3    H114370   1.676   4.182   0.211
 4809TIP3    H214371   1.723   4.193   0.067
 4810TIP3   OH214372   1.506   2.110   3.821
 4810TIP3    H114373   1.524   2.130   3.729
 4810TIP3    H214374   1.438   2.044   3.820
 4811TIP3   OH214375   5.336   2.714   4.104
 4811TIP3    H114376   5.368   2.804   4.092
 4811TIP3    H214377   5.374   2.665   4.031
 4812TIP3   OH214378   6.757   0.627   0.502
 4812TIP3    H114379   6.776   0.621   0.408
 4812TIP3    H214380   6.814   0.697   0.534
 4813TIP3   OH214381   7.048   5.666   5.576
 4813TIP3    H114382   7.048   5.679   5.670
 4813TIP3    H214383   7.100   5.586   5.562
 4814TIP3   OH214384   4.672   6.947   3.183
 4814TIP3    H114385   4.673   6.858   3.150
 4814TIP3    H214386   4.695   6.939   3.276
 4815TIP3   OH214387   0.969   1.437   4.243
 4815TIP3    H114388   0.982   1.527   4.214
 4815TIP3    H214389   1.056   1.409   4.274
 4816TIP3   OH214390   6.991   0.636   0.294
 4816TIP3    H114391   6.986   0.571   0.365
 4816TIP3    H214392   7.084   0.637   0.270
 4817TIP3   OH214393   7.391   3.021   5.843
 4817TIP3    H114394   7.474   2.973   5.838
 4817TIP3    H214395   7.344   2.995   5.764
 4818TIP3   OH214396   2.349   0.265   1.021
 4818TIP3    H114397   2.269   0.283   1.072
 4818TIP3    H214398   2.395   0.348   1.019
 4819TIP3   OH214399   6.939   1.063   2.992
 4819TIP3    H114400   6.951   1.047   2.899
 4819TIP3    H214401   7.027   1.066   3.028
 4820TIP3   OH214402   1.936   2.627   5.972
 4820TIP3    H114403   1.935   2.570   5.895
 4820TIP3    H214404   2.029   2.642   5.990
 4821TIP3   OH214405   7.844   1.593   4.416
 4821TIP3    H114406   7.837   1.621   4.324
 4821TIP3    H214407   7.937   1.571   4.427
 4822TIP3   OH214408   0.439   6.359   1.968
 4822TIP3    H114409   0.384   6.318   1.902
 4822TIP3    H214410   0.464   6.288   2.027
 4823TIP3   OH214411   6.106   4.071   0.569
 4823TIP3    H114412   6.102   4.021   0.651
 4823TIP3    H214413   6.097   4.005   0.501
 4824TIP3   OH214414   1.983   0.290   2.645
 4824TIP3    H114415   2.056   0.303   2.584
 4824TIP3    H214416   1.945   0.206   2.619
 4825TIP3   OH214417   4.356   3.436   6.089
 4825TIP3    H114418   4.440   3.412   6.049
 4825TIP3    H214419   4.291   3.409   6.025
 4826TIP3   OH214420   8.009   5.585   5.977
 4826TIP3    H114421   7.956   5.519   5.932
 4826TIP3    H214422   8.099   5.564   5.952
 4827TIP3   OH214423   3.291   2.632   6.187
 4827TIP3    H114424   3.233   2.621   6.112
 4827TIP3    H214425   3.288   2.548   6.232
 4828TIP3   OH214426   0.213   3.354   3.230
 4828TIP3    H114427   0.188   3.295   3.158
 4828TIP3    H214428   0.174   3.438   3.206
 4829TIP3   OH214429   6.972   7.787   2.040
 4829TIP3    H114430   6.984   7.882   2.050
 4829TIP3    H214431   7.043   7.749   2.093
 4830TIP3   OH214432   4.216   5.450   1.912
 4830TIP3    H114433   4.183   5.384   1.972
 4830TIP3    H214434   4.241   5.523   1.968
 4831TIP3   OH214435   4.966   6.114   2.340
 4831TIP3    H114436   5.037   6.128   2.278
 4831TIP3    H214437   5.003   6.056   2.406
 4832TIP3   OH214438   0.395   2.343   5.931
 4832TIP3    H114439   0.368   2.417   5.876
 4832TIP3    H214440   0.339   2.349   6.008
 4833TIP3   OH214441   3.214   2.787   1.797
 4833TIP3    H114442   3.199   2.873   1.759
 4833TIP3    H214443   3.308   2.773   1.791
 4834TIP3   OH214444   4.753   3.097   1.867
 4834TIP3    H114445   4.702   3.171   1.900
 4834TIP3    H214446   4.840   3.109   1.904
 4835TIP3   OH214447   4.391   0.684   6.601
 4835TIP3    H114448   4.302   0.718   6.594
 4835TIP3    H214449   4.447   0.761   6.594
 4836TIP3   OH214450   6.581   3.622   6.460
 4836TIP3    H114451   6.558   3.636   6.369
 4836TIP3    H214452   6.546   3.698   6.506
 4837TIP3   OH214453   5.433   4.094   0.133
 4837TIP3    H114454   5.383   4.040   0.194
 4837TIP3    H214455   5.377   4.169   0.116
 4838TIP3   OH214456   1.155   0.911   3.742
 4838TIP3    H114457   1.160   0.952   3.828
 4838TIP3    H214458   1.235   0.937   3.698
 4839TIP3   OH214459   8.215   7.662   2.084
 4839TIP3    H114460   8.177   7.674   2.171
 4839TIP3    H214461   8.154   7.605   2.039
 4840TIP3   OH214462   7.110   3.341   2.049
 4840TIP3    H114463   7.103   3.319   2.142
 4840TIP3    H214464   7.120   3.256   2.005
 4841TIP3   OH214465   1.413   1.236   3.880
 4841TIP3    H114466   1.354   1.218   3.953
 4841TIP3    H214467   1.471   1.160   3.876
 4842TIP3   OH214468   1.184   4.987   6.573
 4842TIP3    H114469   1.164   4.921   6.640
 4842TIP3    H214470   1.105   4.993   6.520
 4843TIP3   OH214471   4.092   3.115   2.029
 4843TIP3    H114472   4.044   3.068   2.096
 4843TIP3    H214473   4.030   3.179   1.995
 4844TIP3   OH214474   3.038   2.127   6.763
 4844TIP3    H114475   2.967   2.187   6.783
 4844TIP3    H214476   3.088   2.170   6.694
 4845TIP3   OH214477   6.002   6.123   2.101
 4845TIP3    H114478   6.027   6.204   2.145
 4845TIP3    H214479   5.942   6.080   2.162
 4846TIP3   OH214480   4.270   0.282   6.463
 4846TIP3    H114481   4.266   0.307   6.555
 4846TIP3    H214482   4.254   0.187   6.463
 4847TIP3   OH214483   6.210   4.538   0.555
 4847TIP3    H114484   6.201   4.489   0.474
 4847TIP3    H214485   6.249   4.476   0.617
 4848TIP3   OH214486   0.884   6.027   2.706
 4848TIP3    H114487   0.944   6.030   2.780
 4848TIP3    H214488   0.902   6.106   2.656
 4849TIP3   OH214489   2.147   4.974   4.980
 4849TIP3    H114490   2.168   4.988   4.888
 4849TIP3    H214491   2.134   4.879   4.988
 4850TIP3   OH214492   4.069   6.368   3.865
 4850TIP3    H114493   4.043   6.456   3.836
 4850TIP3    H214494   4.162   6.363   3.845
 4851TIP3   OH214495   6.949   3.850   4.631
 4851TIP3    H114496   6.967   3.858   4.724
 4851TIP3    H214497   6.941   3.755   4.616
 4852TIP3   OH214498   6.602   6.947   5.895
 4852TIP3    H114499   6.531   7.007   5.873
 4852TIP3    H214500   6.679   6.983   5.850
 4853TIP3   OH214501   2.982   2.070   4.279
 4853TIP3    H114502   2.916   2.003   4.296
 4853TIP3    H214503   3.055   2.046   4.337
 4854TIP3   OH214504   6.730   0.962   0.351
 4854TIP3    H114505   6.643   0.934   0.323
 4854TIP3    H214506   6.716   1.048   0.390
 4855TIP3   OH214507   7.856   1.630   0.495
 4855TIP3    H114508   7.808   1.702   0.454
 4855TIP3    H214509   7.899   1.670   0.571
 4856TIP3   OH214510   6.576   7.067   2.494
 4856TIP3    H114511   6.627   7.094   2.570
 4856TIP3    H214512   6.485   7.082   2.519
 4857TIP3   OH214513   0.264   4.434   5.160
 4857TIP3    H114514   0.219   4.361   5.118
 4857TIP3    H214515   0.200   4.470   5.222
 4858TIP3   OH214516   2.279   5.272   2.457
 4858TIP3    H114517   2.194   5.309   2.478
 4858TIP3    H214518   2.266   5.228   2.372
 4859TIP3   OH214519   5.878   7.043   5.034
 4859TIP3    H114520   5.943   6.980   5.067
 4859TIP3    H214521   5.905   7.127   5.071
 4860TIP3   OH214522   3.767   2.147   3.013
 4860TIP3    H114523   3.845   2.092   3.027
 4860TIP3    H214524   3.756   2.194   3.095
 4861TIP3   OH214525   5.903   6.115   1.050
 4861TIP3    H114526   5.890   6.199   1.093
 4861TIP3    H214527   5.868   6.128   0.962
 4862TIP3   OH214528   7.328   3.364   0.879
 4862TIP3    H114529   7.339   3.448   0.923
 4862TIP3    H214530   7.408   3.353   0.828
 4863TIP3   OH214531   3.838   0.161   3.223
 4863TIP3    H114532   3.805   0.235   3.275
 4863TIP3    H214533   3.767   0.142   3.161
 4864TIP3   OH214534   6.059   5.357   3.872
 4864TIP3    H114535   6.088   5.403   3.794
 4864TIP3    H214536   6.128   5.293   3.889
 4865TIP3   OH214537   4.123   4.326   6.412
 4865TIP3    H114538   4.035   4.301   6.387
 4865TIP3    H214539   4.152   4.259   6.473
 4866TIP3   OH214540   7.253   5.257   4.766
 4866TIP3    H114541   7.287   5.261   4.677
 4866TIP3    H214542   7.312   5.198   4.813
 4867TIP3   OH214543   5.860   7.805   6.725
 4867TIP3    H114544   5.942   7.755   6.729
 4867TIP3    H214545   5.793   7.738   6.712
 4868TIP3   OH214546   5.404   1.408   3.969
 4868TIP3    H114547   5.313   1.402   3.997
 4868TIP3    H214548   5.402   1.387   3.876
 4869TIP3   OH214549   2.168   0.340   3.656
 4869TIP3    H114550   2.140   0.390   3.732
 4869TIP3    H214551   2.251   0.300   3.682
 4870TIP3   OH214552   6.903   4.966   2.934
 4870TIP3    H114553   6.847   4.911   2.988
 4870TIP3    H214554   6.857   5.049   2.928
 4871TIP3   OH214555   3.938   4.652   2.629
 4871TIP3    H114556   3.893   4.568   2.633
 4871TIP3    H214557   4.027   4.634   2.658
 4872TIP3   OH214558   0.823   6.577   0.462
 4872TIP3    H114559   0.798   6.552   0.551
 4872TIP3    H214560   0.832   6.672   0.466
 4873TIP3   OH214561   7.363   4.356   6.061
 4873TIP3    H114562   7.420   4.307   6.001
 4873TIP3    H214563   7.318   4.419   6.004
 4874TIP3   OH214564   4.553   2.498   3.273
 4874TIP3    H114565   4.576   2.566   3.337
 4874TIP3    H214566   4.518   2.426   3.327
 4875TIP3   OH214567   4.401   5.061   0.367
 4875TIP3    H114568   4.409   5.144   0.415
 4875TIP3    H214569   4.433   5.081   0.279
 4876TIP3   OH214570   6.565   0.887   1.953
 4876TIP3    H114571   6.590   0.808   2.001
 4876TIP3    H214572   6.578   0.863   1.861
 4877TIP3   OH214573   4.540   6.783   4.574
 4877TIP3    H114574   4.613   6.819   4.522
 4877TIP3    H214575   4.539   6.837   4.653
 4878TIP3   OH214576   5.434   1.458   4.760
 4878TIP3    H114577   5.497   1.398   4.720
 4878TIP3    H214578   5.368   1.472   4.692
 4879TIP3   OH214579   5.901   6.600   5.364
 4879TIP3    H114580   5.896   6.614   5.269
 4879TIP3    H214581   5.820   6.555   5.386
 4880TIP3   OH214582   1.935   3.959   2.047
 4880TIP3    H114583   2.011   3.962   2.105
 4880TIP3    H214584   1.952   3.884   1.990
 4881TIP3   OH214585   5.542   3.074   6.009
 4881TIP3    H114586   5.536   2.978   6.013
 4881TIP3    H214587   5.630   3.091   5.975
 4882TIP3   OH214588   1.128   1.195   0.669
 4882TIP3    H114589   1.111   1.284   0.699
 4882TIP3    H214590   1.041   1.157   0.655
 4883TIP3   OH214591   4.546   3.113   5.886
 4883TIP3    H114592   4.477   3.159   5.838
 4883TIP3    H214593   4.526   3.020   5.872
 4884TIP3   OH214594   1.905   1.095   6.602
 4884TIP3    H114595   1.814   1.072   6.623
 4884TIP3    H214596   1.923   1.049   6.521
 4885TIP3   OH214597   7.945   4.100   2.546
 4885TIP3    H114598   7.914   4.182   2.585
 4885TIP3    H214599   7.882   4.034   2.575
 4886TIP3   OH214600   7.217   5.292   3.515
 4886TIP3    H114601   7.274   5.317   3.587
 4886TIP3    H214602   7.199   5.373   3.469
 4887TIP3   OH214603   2.316   6.791   6.345
 4887TIP3    H114604   2.324   6.703   6.381
 4887TIP3    H214605   2.302   6.778   6.251
 4888TIP3   OH214606   3.411   0.914   6.301
 4888TIP3    H114607   3.495   0.945   6.335
 4888TIP3    H214608   3.351   0.987   6.316
 4889TIP3   OH214609   0.385   5.674   2.341
 4889TIP3    H114610   0.418   5.610   2.404
 4889TIP3    H214611   0.321   5.626   2.288
 4890TIP3   OH214612   0.472   6.099   6.750
 4890TIP3    H114613   0.474   6.060   6.662
 4890TIP3    H214614   0.382   6.088   6.779
 4891TIP3   OH214615   1.019   3.993   4.769
 4891TIP3    H114616   0.961   3.925   4.735
 4891TIP3    H214617   1.107   3.961   4.748
 4892TIP3   OH214618   2.288   3.844   3.245
 4892TIP3    H114619   2.314   3.757   3.274
 4892TIP3    H214620   2.200   3.833   3.210
 4893TIP3   OH214621   0.534   3.745   0.062
 4893TIP3    H114622   0.626   3.718   0.050
 4893TIP3    H214623   0.529   3.768   0.155
 4894TIP3   OH214624   7.963   7.599   6.710
 4894TIP3    H114625   8.038   7.655   6.727
 4894TIP3    H214626   7.971   7.576   6.617
 4895TIP3   OH214627   7.943   6.622   6.279
 4895TIP3    H114628   7.920   6.705   6.321
 4895TIP3    H214629   7.892   6.556   6.327
 4896TIP3   OH214630   3.153   4.479   2.078
 4896TIP3    H114631   3.157   4.501   1.985
 4896TIP3    H214632   3.094   4.543   2.116
 4897TIP3   OH214633   3.464   0.167   5.804
 4897TIP3    H114634   3.399   0.213   5.857
 4897TIP3    H214635   3.450   0.199   5.715
 4898TIP3   OH214636   5.658   1.803   3.955
 4898TIP3    H114637   5.565   1.779   3.951
 4898TIP3    H214638   5.701   1.736   3.902
 4899TIP3   OH214639   6.449   5.463   4.678
 4899TIP3    H114640   6.444   5.407   4.601
 4899TIP3    H214641   6.541   5.462   4.703
 4900TIP3   OH214642   8.239   0.930   0.336
 4900TIP3    H114643   8.191   0.910   0.416
 4900TIP3    H214644   8.264   1.022   0.345
 4901TIP3   OH214645   7.554   4.959   5.791
 4901TIP3    H114646   7.473   4.969   5.840
 4901TIP3    H214647   7.620   4.939   5.857
 4902TIP3   OH214648   1.749   4.846   2.068
 4902TIP3    H114649   1.656   4.822   2.078
 4902TIP3    H214650   1.756   4.932   2.109
 4903TIP3   OH214651   2.012   5.673   1.321
 4903TIP3    H114652   1.944   5.635   1.377
 4903TIP3    H214653   1.998   5.631   1.236
 4904TIP3   OH214654   6.817   7.299   2.208
 4904TIP3    H114655   6.883   7.289   2.276
 4904TIP3    H214656   6.862   7.275   2.127
 4905TIP3   OH214657   7.903   6.489   4.994
 4905TIP3    H114658   7.937   6.414   4.945
 4905TIP3    H214659   7.825   6.516   4.946
 4906TIP3   OH214660   1.647   0.598   0.871
 4906TIP3    H114661   1.729   0.622   0.828
 4906TIP3    H214662   1.580   0.607   0.803
 4907TIP3   OH214663   8.235   4.972   5.887
 4907TIP3    H114664   8.218   4.879   5.876
 4907TIP3    H214665   8.330   4.979   5.895
 4908TIP3   OH214666   5.381   1.313   3.707
 4908TIP3    H114667   5.423   1.237   3.666
 4908TIP3    H214668   5.296   1.280   3.737
 4909TIP3   OH214669   3.319   6.472   1.142
 4909TIP3    H114670   3.330   6.388   1.186
 4909TIP3    H214671   3.271   6.526   1.204
 4910TIP3   OH214672   5.980   4.651   3.891
 4910TIP3    H114673   5.994   4.745   3.905
 4910TIP3    H214674   6.024   4.632   3.809
 4911TIP3   OH214675   0.042   3.678   2.459
 4911TIP3    H114676   0.033   3.626   2.538
 4911TIP3    H214677  -0.013   3.755   2.474
 4912TIP3   OH214678   0.801   0.139   2.004
 4912TIP3    H114679   0.821   0.185   2.086
 4912TIP3    H214680   0.870   0.168   1.943
 4913TIP3   OH214681   4.693   1.455   6.565
 4913TIP3    H114682   4.600   1.446   6.544
 4913TIP3    H214683   4.701   1.417   6.653
 4914TIP3   OH214684   3.480   5.089   5.794
 4914TIP3    H114685   3.386   5.076   5.784
 4914TIP3    H214686   3.503   5.148   5.721
 4915TIP3   OH214687   1.919   3.818   3.702
 4915TIP3    H114688   1.911   3.908   3.670
 4915TIP3    H214689   2.012   3.797   3.693
 4916TIP3   OH214690   7.765   4.415   0.386
 4916TIP3    H114691   7.752   4.333   0.339
 4916TIP3    H214692   7.831   4.462   0.335
 4917TIP3   OH214693   5.409   4.957   4.150
 4917TIP3    H114694   5.348   4.884   4.152
 4917TIP3    H214695   5.474   4.932   4.084
 4918TIP3   OH214696   4.825   6.998   1.838
 4918TIP3    H114697   4.919   7.015   1.834
 4918TIP3    H214698   4.819   6.905   1.860
 4919TIP3   OH214699   0.899   1.390   6.385
 4919TIP3    H114700   0.907   1.365   6.477
 4919TIP3    H214701   0.979   1.438   6.366
 4920TIP3   OH214702   1.616   5.875   6.702
 4920TIP3    H114703   1.687   5.932   6.732
 4920TIP3    H214704   1.631   5.792   6.748
 4921TIP3   OH214705   0.776   4.274   1.552
 4921TIP3    H114706   0.825   4.322   1.619
 4921TIP3    H214707   0.790   4.324   1.472
 4922TIP3   OH214708   7.080   6.928   2.473
 4922TIP3    H114709   7.082   6.899   2.381
 4922TIP3    H214710   7.161   6.893   2.511
 4923TIP3   OH214711   0.166   0.251   0.902
 4923TIP3    H114712   0.109   0.174   0.912
 4923TIP3    H214713   0.119   0.322   0.946
 4924TIP3   OH214714   6.609   3.093   5.504
 4924TIP3    H114715   6.667   3.019   5.520
 4924TIP3    H214716   6.665   3.159   5.464
 4925TIP3   OH214717   7.364   6.907   5.994
 4925TIP3    H114718   7.427   6.834   5.991
 4925TIP3    H214719   7.319   6.896   6.077
 4926TIP3   OH214720   4.571   3.930   1.352
 4926TIP3    H114721   4.572   3.971   1.438
 4926TIP3    H214722   4.663   3.914   1.331
 4927TIP3   OH214723   3.645   5.203   2.244
 4927TIP3    H114724   3.648   5.112   2.274
 4927TIP3    H214725   3.570   5.207   2.186
 4928TIP3   OH214726   7.682   6.286   0.290
 4928TIP3    H114727   7.609   6.281   0.229
 4928TIP3    H214728   7.699   6.379   0.301
 4929TIP3   OH214729   4.780   1.733   1.505
 4929TIP3    H114730   4.801   1.649   1.546
 4929TIP3    H214731   4.856   1.789   1.524
 4930TIP3   OH214732   2.681   7.199   1.328
 4930TIP3    H114733   2.595   7.239   1.331
 4930TIP3    H214734   2.734   7.258   1.274
 4931TIP3   OH214735   4.683   3.625   5.025
 4931TIP3    H114736   4.655   3.711   5.056
 4931TIP3    H214737   4.632   3.610   4.946
 4932TIP3   OH214738   7.967   6.344   2.334
 4932TIP3    H114739   7.968   6.324   2.240
 4932TIP3    H214740   8.027   6.418   2.343
 4933TIP3   OH214741   8.039   5.164   5.965
 4933TIP3    H114742   8.057   5.221   5.891
 4933TIP3    H214743   8.103   5.093   5.957
 4934TIP3   OH214744   2.009   2.721   1.953
 4934TIP3    H114745   2.020   2.723   2.049
 4934TIP3    H214746   1.941   2.656   1.938
 4935TIP3   OH214747   2.557   0.898   4.584
 4935TIP3    H114748   2.512   0.881   4.501
 4935TIP3    H214749   2.650   0.891   4.563
 4936TIP3   OH214750   0.071   4.752   6.169
 4936TIP3    H114751   0.080   4.657   6.162
 4936TIP3    H214752  -0.020   4.766   6.194
 4937TIP3   OH214753   6.453   1.253   3.484
 4937TIP3    H114754   6.413   1.173   3.518
 4937TIP3    H214755   6.383   1.318   3.486
 4938TIP3   OH214756   3.727   7.618   2.774
 4938TIP3    H114757   3.783   7.602   2.850
 4938TIP3    H214758   3.648   7.567   2.791
 4939TIP3   OH214759   4.717   1.305   0.340
 4939TIP3    H114760   4.725   1.361   0.417
 4939TIP3    H214761   4.624   1.307   0.319
 4940TIP3   OH214762   4.116   0.026   6.480
 4940TIP3    H114763   4.070   0.028   6.395
 4940TIP3    H214764   4.135  -0.066   6.495
 4941TIP3   OH214765   7.110   1.378   5.567
 4941TIP3    H114766   7.169   1.433   5.517
 4941TIP3    H214767   7.125   1.404   5.658
 4942TIP3   OH214768   4.979   0.769   1.373
 4942TIP3    H114769   5.018   0.748   1.457
 4942TIP3    H214770   4.886   0.783   1.393
 4943TIP3   OH214771   2.364   5.489   3.008
 4943TIP3    H114772   2.271   5.504   3.028
 4943TIP3    H214773   2.367   5.400   2.973
 4944TIP3   OH214774   4.321   3.683   5.684
 4944TIP3    H114775   4.329   3.592   5.655
 4944TIP3    H214776   4.248   3.682   5.745
 4945TIP3   OH214777   4.426   3.217   1.657
 4945TIP3    H114778   4.372   3.205   1.579
 4945TIP3    H214779   4.437   3.311   1.664
 4946TIP3   OH214780   0.277   5.335   4.620
 4946TIP3    H114781   0.318   5.360   4.703
 4946TIP3    H214782   0.221   5.260   4.643
 4947TIP3   OH214783   5.548   7.485   0.014
 4947TIP3    H114784   5.481   7.450   0.073
 4947TIP3    H214785   5.508   7.480  -0.072
 4948TIP3   OH214786   7.287   0.096   5.992
 4948TIP3    H114787   7.252   0.057   6.073
 4948TIP3    H214788   7.338   0.171   6.022
 4949TIP3   OH214789   6.097   4.835   5.576
 4949TIP3    H114790   6.148   4.781   5.516
 4949TIP3    H214791   6.112   4.797   5.662
 4950TIP3   OH214792   5.703   6.977   0.749
 4950TIP3    H114793   5.758   6.980   0.827
 4950TIP3    H214794   5.627   6.924   0.775
 4951TIP3   OH214795   6.856   1.480   5.977
 4951TIP3    H114796   6.775   1.434   5.952
 4951TIP3    H214797   6.847   1.493   6.072
 4952TIP3   OH214798   1.173   5.459   1.890
 4952TIP3    H114799   1.238   5.390   1.875
 4952TIP3    H214800   1.169   5.468   1.985
 4953TIP3   OH214801   3.819   3.554   3.604
 4953TIP3    H114802   3.859   3.570   3.519
 4953TIP3    H214803   3.878   3.492   3.647
 4954TIP3   OH214804   5.246   0.140   3.280
 4954TIP3    H114805   5.249   0.232   3.303
 4954TIP3    H214806   5.244   0.094   3.364
 4955TIP3   OH214807   3.637   3.998   5.367
 4955TIP3    H114808   3.559   4.053   5.359
 4955TIP3    H214809   3.668   3.987   5.277
 4956TIP3   OH214810   3.029   6.289   2.625
 4956TIP3    H114811   3.062   6.375   2.599
 4956TIP3    H214812   3.086   6.227   2.578
 4957TIP3   OH214813   6.528   3.293   2.453
 4957TIP3    H114814   6.523   3.306   2.358
 4957TIP3    H214815   6.446   3.247   2.475
 4958TIP3   OH214816   1.919   7.588   4.817
 4958TIP3    H114817   1.849   7.617   4.875
 4958TIP3    H214818   1.873   7.552   4.741
 4959TIP3   OH214819   1.918   7.130   6.760
 4959TIP3    H114820   1.893   7.102   6.671
 4959TIP3    H214821   1.881   7.218   6.767
 4960TIP3   OH214822   6.981   7.844   3.724
 4960TIP3    H114823   6.996   7.758   3.761
 4960TIP3    H214824   7.039   7.847   3.647
 4961TIP3   OH214825   1.843   2.828  -0.006
 4961TIP3    H114826   1.879   2.866   0.074
 4961TIP3    H214827   1.844   2.900  -0.069
 4962TIP3   OH214828   4.233   7.044   3.323
 4962TIP3    H114829   4.250   7.117   3.263
 4962TIP3    H214830   4.301   6.980   3.303
 4963TIP3   OH214831   4.850   7.242   2.566
 4963TIP3    H114832   4.807   7.313   2.518
 4963TIP3    H214833   4.920   7.212   2.508
 4964TIP3   OH214834   2.735   6.229   5.381
 4964TIP3    H114835   2.764   6.236   5.472
 4964TIP3    H214836   2.668   6.297   5.372
 4965TIP3   OH214837   5.909   5.398   4.104
 4965TIP3    H114838   5.879   5.489   4.110
 4965TIP3    H214839   5.924   5.384   4.010
 4966TIP3   OH214840   2.859   1.693   2.969
 4966TIP3    H114841   2.853   1.648   3.053
 4966TIP3    H214842   2.768   1.706   2.942
 4967TIP3   OH214843   1.280   6.784   2.812
 4967TIP3    H114844   1.332   6.801   2.734
 4967TIP3    H214845   1.285   6.690   2.824
 4968TIP3   OH214846   0.712   4.065   2.529
 4968TIP3    H114847   0.797   4.095   2.497
 4968TIP3    H214848   0.703   3.976   2.496
 4969TIP3   OH214849   0.589   4.374   4.182
 4969TIP3    H114850   0.562   4.302   4.125
 4969TIP3    H214851   0.526   4.444   4.163
 4970TIP3   OH214852   7.354   5.723   3.029
 4970TIP3    H114853   7.300   5.764   3.097
 4970TIP3    H214854   7.407   5.658   3.076
 4971TIP3   OH214855   8.029   3.990   0.211
 4971TIP3    H114856   8.039   3.988   0.306
 4971TIP3    H214857   8.114   4.017   0.178
 4972TIP3   OH214858   6.252   7.385   3.223
 4972TIP3    H114859   6.319   7.332   3.180
 4972TIP3    H214860   6.205   7.428   3.152
 4973TIP3   OH214861   4.282   7.663   1.224
 4973TIP3    H114862   4.217   7.637   1.290
 4973TIP3    H214863   4.236   7.653   1.141
 4974TIP3   OH214864   5.448   4.528   1.780
 4974TIP3    H114865   5.503   4.587   1.730
 4974TIP3    H214866   5.467   4.548   1.871
 4975TIP3   OH214867   6.785   5.486   5.191
 4975TIP3    H114868   6.813   5.536   5.114
 4975TIP3    H214869   6.692   5.468   5.176
 4976TIP3   OH214870   2.065   0.547   6.518
 4976TIP3    H114871   2.052   0.622   6.576
 4976TIP3    H214872   2.041   0.471   6.571
 4977TIP3   OH214873   2.422   3.297   5.250
 4977TIP3    H114874   2.367   3.242   5.193
 4977TIP3    H214875   2.448   3.371   5.195
 4978TIP3   OH214876   4.133   0.393   0.568
 4978TIP3    H114877   4.076   0.316   0.564
 4978TIP3    H214878   4.103   0.440   0.645
 4979TIP3   OH214879   6.385   7.615   0.441
 4979TIP3    H114880   6.313   7.638   0.383
 4979TIP3    H214881   6.459   7.597   0.383
 4980TIP3   OH214882   0.265   2.551   3.682
 4980TIP3    H114883   0.349   2.593   3.698
 4980TIP3    H214884   0.211   2.576   3.758
 4981TIP3   OH214885   1.945   4.706   2.415
 4981TIP3    H114886   1.859   4.713   2.457
 4981TIP3    H214887   1.965   4.795   2.386
 4982TIP3   OH214888   7.296   2.823   3.459
 4982TIP3    H114889   7.269   2.851   3.546
 4982TIP3    H214890   7.288   2.901   3.405
 4983TIP3   OH214891   4.057   6.640   0.361
 4983TIP3    H114892   4.009   6.697   0.301
 4983TIP3    H214893   3.989   6.583   0.399
 4984TIP3   OH214894   2.044   7.482   6.161
 4984TIP3    H114895   2.128   7.509   6.125
 4984TIP3    H214896   1.984   7.554   6.139
 4985TIP3   OH214897   6.026   2.188   1.807
 4985TIP3    H114898   5.985   2.199   1.721
 4985TIP3    H214899   5.995   2.102   1.837
 4986TIP3   OH214900   5.254   2.351   1.763
 4986TIP3    H114901   5.213   2.390   1.841
 4986TIP3    H214902   5.342   2.328   1.792
 4987TIP3   OH214903   5.736   3.450   5.356
 4987TIP3    H114904   5.767   3.488   5.438
 4987TIP3    H214905   5.799   3.382   5.336
 4988TIP3   OH214906   3.479   1.062   0.229
 4988TIP3    H114907   3.419   1.016   0.170
 4988TIP3    H214908   3.481   1.152   0.195
 4989TIP3   OH214909   1.969   4.206   0.438
 4989TIP3    H114910   2.040   4.269   0.448
 4989TIP3    H214911   1.969   4.184   0.345
 4990TIP3   OH214912   2.543   6.583   4.218
 4990TIP3    H114913   2.531   6.547   4.130
 4990TIP3    H214914   2.560   6.506   4.273
 4991TIP3   OH214915   4.536   3.023   4.850
 4991TIP3    H114916   4.615   3.056   4.892
 4991TIP3    H214917   4.522   2.937   4.890
 4992TIP3   OH214918   5.313   4.638   6.373
 4992TIP3    H114919   5.224   4.603   6.363
 4992TIP3    H214920   5.323   4.653   6.467
 4993TIP3   OH214921   5.398   3.045   3.062
 4993TIP3    H114922   5.452   3.088   3.129
 4993TIP3    H214923   5.335   2.993   3.112
 4994TIP3   OH214924   4.213   6.806   0.072
 4994TIP3    H114925   4.185   6.728   0.119
 4994TIP3    H214926   4.274   6.773   0.005
 4995TIP3   OH214927   4.270   7.630   2.614
 4995TIP3    H114928   4.242   7.638   2.523
 4995TIP3    H214929   4.365   7.619   2.609
 4996TIP3   OH214930   7.982   7.722   3.164
 4996TIP3    H114931   7.937   7.803   3.141
 4996TIP3    H214932   8.068   7.750   3.195
 4997TIP3   OH214933   0.101   6.931   2.630
 4997TIP3    H114934   0.066   6.849   2.665
 4997TIP3    H214935   0.044   6.951   2.556
 4998TIP3   OH214936   4.690   4.847   4.287
 4998TIP3    H114937   4.656   4.936   4.284
 4998TIP3    H214938   4.664   4.810   4.202
 4999TIP3   OH214939   2.416   7.295   5.079
 4999TIP3    H114940   2.422   7.391   5.086
 4999TIP3    H214941   2.326   7.279   5.051
 5000TIP3   OH214942   7.076   6.169   6.655
 5000TIP3    H114943   7.024   6.100   6.697
 5000TIP3    H214944   7.166   6.138   6.660
 5001TIP3   OH214945   5.829   1.966   6.512
 5001TIP3    H114946   5.839   2.054   6.476
 5001TIP3    H214947   5.743   1.937   6.482
 5002TIP3   OH214948   7.020   0.665   4.524
 5002TIP3    H114949   6.932   0.648   4.491
 5002TIP3    H214950   7.076   0.608   4.470
 5003TIP3   OH214951   6.063   6.305   6.435
 5003TIP3    H114952   6.045   6.290   6.527
 5003TIP3    H214953   6.134   6.245   6.413
 5004TIP3   OH214954   1.728   5.877   4.008
 5004TIP3    H114955   1.707   5.969   3.988
 5004TIP3    H214956   1.740   5.836   3.923
 5005TIP3   OH214957   5.200   1.931   2.278
 5005TIP3    H114958   5.258   2.008   2.268
 5005TIP3    H214959   5.202   1.889   2.193
 5006TIP3   OH214960   0.987   1.686   4.739
 5006TIP3    H114961   0.955   1.596   4.731
 5006TIP3    H214962   0.917   1.740   4.701
 5007TIP3   OH214963   5.305   0.399   0.479
 5007TIP3    H114964   5.288   0.358   0.394
 5007TIP3    H214965   5.288   0.330   0.543
 5008TIP3   OH214966   2.247   1.360   0.013
 5008TIP3    H114967   2.293   1.426  -0.038
 5008TIP3    H214968   2.293   1.359   0.097
 5009TIP3   OH214969   7.474   6.375   4.246
 5009TIP3    H114970   7.419   6.296   4.251
 5009TIP3    H214971   7.507   6.375   4.156
 5010TIP3   OH214972   3.895   6.670   5.397
 5010TIP3    H114973   3.935   6.747   5.357
 5010TIP3    H214974   3.968   6.608   5.407
 5011TIP3   OH214975   0.715   4.712   6.295
 5011TIP3    H114976   0.629   4.669   6.301
 5011TIP3    H214977   0.763   4.659   6.232
 5012TIP3   OH214978   5.554   0.159   3.564
 5012TIP3    H114979   5.647   0.142   3.552
 5012TIP3    H214980   5.521   0.083   3.612
 5013TIP3   OH214981   1.938   3.605   2.630
 5013TIP3    H114982   1.868   3.667   2.654
 5013TIP3    H214983   2.016   3.641   2.671
 5014TIP3   OH214984   1.581   3.084   5.824
 5014TIP3    H114985   1.569   3.003   5.875
 5014TIP3    H214986   1.636   3.057   5.751
 5015TIP3   OH214987   6.698   7.420   5.185
 5015TIP3    H114988   6.712   7.409   5.279
 5015TIP3    H214989   6.780   7.390   5.145
 5016TIP3   OH214990   3.860   1.778   4.893
 5016TIP3    H114991   3.919   1.827   4.835
 5016TIP3    H214992   3.801   1.845   4.928
 5017TIP3   OH214993   6.553   6.044   2.997
 5017TIP3    H114994   6.467   6.001   2.995
 5017TIP3    H214995   6.534   6.136   2.981
 5018TIP3   OH214996   4.756   7.388   0.202
 5018TIP3    H114997   4.769   7.431   0.117
 5018TIP3    H214998   4.716   7.456   0.257
 5019TIP3   OH214999   5.471   0.352   1.736
 5019TIP3    H115000   5.387   0.305   1.738
 5019TIP3    H215001   5.528   0.302   1.795
 5020TIP3   OH215002   3.495   4.066   3.241
 5020TIP3    H115003   3.558   4.008   3.284
 5020TIP3    H215004   3.547   4.142   3.214
 5021TIP3   OH215005   5.228   4.218   0.698
 5021TIP3    H115006   5.147   4.204   0.748
 5021TIP3    H215007   5.203   4.203   0.607
 5022TIP3   OH215008   3.512   0.639   0.118
 5022TIP3    H115009   3.418   0.656   0.124
 5022TIP3    H215010   3.552   0.726   0.122
 5023TIP3   OH215011   1.502   5.915   0.871
 5023TIP3    H115012   1.596   5.906   0.886
 5023TIP3    H215013   1.474   5.983   0.933
 5024TIP3   OH215014   0.986   3.925   0.889
 5024TIP3    H115015   0.907   3.979   0.896
 5024TIP3    H215016   1.001   3.891   0.977
 5025TIP3   OH215017   5.654   5.337   3.082
 5025TIP3    H115018   5.692   5.295   3.159
 5025TIP3    H215019   5.594   5.272   3.046
 5026TIP3   OH215020   2.373   5.415   3.549
 5026TIP3    H115021   2.334   5.487   3.500
 5026TIP3    H215022   2.386   5.346   3.484
 5027TIP3   OH215023   3.563   0.211   1.476
 5027TIP3    H115024   3.471   0.204   1.451
 5027TIP3    H215025   3.611   0.191   1.396
 5028TIP3   OH215026   2.225   4.532   3.143
 5028TIP3    H115027   2.188   4.475   3.076
 5028TIP3    H215028   2.160   4.532   3.213
 5029TIP3   OH215029   5.604   0.563   3.750
 5029TIP3    H115030   5.521   0.551   3.796
 5029TIP3    H215031   5.587   0.533   3.661
 5030TIP3   OH215032   0.199   0.318   2.023
 5030TIP3    H115033   0.129   0.381   2.042
 5030TIP3    H215034   0.188   0.249   2.089
 5031TIP3   OH215035   8.266   4.249   2.327
 5031TIP3    H115036   8.173   4.268   2.327
 5031TIP3    H215037   8.274   4.167   2.279
 5032TIP3   OH215038   2.805   4.331   5.366
 5032TIP3    H115039   2.882   4.318   5.310
 5032TIP3    H215040   2.841   4.350   5.452
 5033TIP3   OH215041   2.969   3.180   4.164
 5033TIP3    H115042   3.016   3.241   4.221
 5033TIP3    H215043   3.037   3.123   4.128
 5034TIP3   OH215044   4.627   3.226   3.828
 5034TIP3    H115045   4.705   3.201   3.878
 5034TIP3    H215046   4.576   3.280   3.889
 5035TIP3   OH215047   2.662   2.159   3.765
 5035TIP3    H115048   2.724   2.180   3.695
 5035TIP3    H215049   2.676   2.066   3.782
 5036TIP3   OH215050   6.862   3.973   6.413
 5036TIP3    H115051   6.912   3.990   6.332
 5036TIP3    H215052   6.827   3.885   6.401
 5037TIP3   OH215053   7.153   5.595   6.727
 5037TIP3    H115054   7.121   5.639   6.648
 5037TIP3    H215055   7.084   5.533   6.750
 5038TIP3   OH215056   0.504   2.041   5.899
 5038TIP3    H115057   0.577   1.988   5.865
 5038TIP3    H215058   0.529   2.131   5.880
 5039TIP3   OH215059   3.389   5.236   2.561
 5039TIP3    H115060   3.398   5.153   2.514
 5039TIP3    H215061   3.471   5.282   2.545
 5040TIP3   OH215062   8.141   0.468   0.545
 5040TIP3    H115063   8.050   0.484   0.520
 5040TIP3    H215064   8.166   0.545   0.596
 5041TIP3   OH215065   7.424   1.050   2.666
 5041TIP3    H115066   7.374   1.013   2.593
 5041TIP3    H215067   7.378   1.131   2.688
 5042TIP3   OH215068   1.346   1.207   1.345
 5042TIP3    H115069   1.386   1.292   1.326
 5042TIP3    H215070   1.421   1.148   1.357
 5043TIP3   OH215071   2.698   5.461   5.841
 5043TIP3    H115072   2.765   5.482   5.906
 5043TIP3    H215073   2.622   5.436   5.893
 5044TIP3   OH215074   0.869   2.342   5.029
 5044TIP3    H115075   0.814   2.388   4.966
 5044TIP3    H215076   0.905   2.268   4.980
 5045TIP3   OH215077   5.501   6.605   1.160
 5045TIP3    H115078   5.490   6.514   1.189
 5045TIP3    H215079   5.489   6.601   1.066
 5046TIP3   OH215080   6.673   4.921   4.130
 5046TIP3    H115081   6.741   4.854   4.133
 5046TIP3    H215082   6.647   4.933   4.221
 5047TIP3   OH215083   7.391   3.427   1.229
 5047TIP3    H115084   7.478   3.388   1.225
 5047TIP3    H215085   7.397   3.506   1.175
 5048TIP3   OH215086   7.229   0.927   5.790
 5048TIP3    H115087   7.177   0.855   5.825
 5048TIP3    H215088   7.183   1.006   5.818
 5049TIP3   OH215089   0.404   6.082   3.190
 5049TIP3    H115090   0.334   6.120   3.243
 5049TIP3    H215091   0.361   6.017   3.135
 5050TIP3   OH215092   6.710   5.394   4.673
 5050TIP3    H115093   6.804   5.387   4.655
 5050TIP3    H215094   6.686   5.307   4.706
 5051TIP3   OH215095   7.302   5.280   1.131
 5051TIP3    H115096   7.381   5.228   1.142
 5051TIP3    H215097   7.245   5.226   1.077
 5052TIP3   OH215098   0.391   2.869   5.363
 5052TIP3    H115099   0.310   2.915   5.341
 5052TIP3    H215100   0.384   2.784   5.320
 5053TIP3   OH215101   7.858   7.145   0.422
 5053TIP3    H115102   7.862   7.188   0.337
 5053TIP3    H215103   7.842   7.053   0.402
 5054TIP3   OH215104   5.298   3.905   0.801
 5054TIP3    H115105   5.289   3.965   0.727
 5054TIP3    H215106   5.221   3.922   0.855
 5055TIP3   OH215107   7.106   2.289   2.035
 5055TIP3    H115108   7.166   2.228   2.076
 5055TIP3    H215109   7.020   2.264   2.070
 5056TIP3   OH215110   6.498   2.815   5.393
 5056TIP3    H115111   6.448   2.896   5.399
 5056TIP3    H215112   6.568   2.835   5.330
 5057TIP3   OH215113   1.295   3.254   0.151
 5057TIP3    H115114   1.200   3.259   0.159
 5057TIP3    H215115   1.328   3.302   0.227
 5058TIP3   OH215116   6.993   2.250   6.613
 5058TIP3    H115117   6.965   2.334   6.577
 5058TIP3    H215118   7.083   2.239   6.583
 5059TIP3   OH215119   7.335   6.232   5.077
 5059TIP3    H115120   7.316   6.200   5.165
 5059TIP3    H215121   7.395   6.305   5.090
 5060TIP3   OH215122   5.541   3.433   3.468
 5060TIP3    H115123   5.535   3.477   3.384
 5060TIP3    H215124   5.544   3.505   3.532
 5061TIP3   OH215125   6.094   0.125   6.545
 5061TIP3    H115126   6.150   0.047   6.544
 5061TIP3    H215127   6.071   0.139   6.453
 5062TIP3   OH215128   3.326   7.404   5.219
 5062TIP3    H115129   3.357   7.411   5.128
 5062TIP3    H215130   3.261   7.473   5.227
 5063TIP3   OH215131   1.820   2.479   6.653
 5063TIP3    H115132   1.811   2.439   6.566
 5063TIP3    H215133   1.838   2.572   6.635
 5064TIP3   OH215134   1.468   2.597   3.959
 5064TIP3    H115135   1.475   2.503   3.973
 5064TIP3    H215136   1.374   2.612   3.949
 5065TIP3   OH215137   2.579   0.373   1.360
 5065TIP3    H115138   2.615   0.459   1.380
 5065TIP3    H215139   2.595   0.321   1.438
 5066TIP3   OH215140   2.714   5.085   4.365
 5066TIP3    H115141   2.676   5.033   4.436
 5066TIP3    H215142   2.763   5.154   4.410
 5067TIP3   OH215143   7.279   7.703   5.303
 5067TIP3    H115144   7.232   7.639   5.249
 5067TIP3    H215145   7.246   7.686   5.392
 5068TIP3   OH215146   2.491   1.437   6.028
 5068TIP3    H115147   2.468   1.425   5.936
 5068TIP3    H215148   2.407   1.457   6.071
 5069TIP3   OH215149   5.581   3.510   0.294
 5069TIP3    H115150   5.651   3.459   0.333
 5069TIP3    H215151   5.625   3.586   0.255
 5070TIP3   OH215152   6.041   3.762   2.520
 5070TIP3    H115153   6.129   3.757   2.483
 5070TIP3    H215154   6.045   3.711   2.601
 5071TIP3   OH215155   6.641   5.623   0.970
 5071TIP3    H115156   6.592   5.544   0.992
 5071TIP3    H215157   6.718   5.620   1.026
 5072TIP3   OH215158   4.860   0.858   5.274
 5072TIP3    H115159   4.871   0.917   5.199
 5072TIP3    H215160   4.766   0.846   5.283
 5073TIP3   OH215161   6.446   6.324   5.809
 5073TIP3    H115162   6.413   6.235   5.798
 5073TIP3    H215163   6.535   6.312   5.842
 5074TIP3   OH215164   6.818   3.436   0.099
 5074TIP3    H115165   6.888   3.409   0.158
 5074TIP3    H215166   6.807   3.530   0.116
 5075TIP3   OH215167   1.967   2.315   0.825
 5075TIP3    H115168   1.891   2.320   0.767
 5075TIP3    H215169   1.930   2.318   0.914
 5076TIP3   OH215170   4.928   3.728   2.134
 5076TIP3    H115171   4.966   3.811   2.105
 5076TIP3    H215172   4.968   3.711   2.219
 5077TIP3   OH215173   2.687   0.079   0.793
 5077TIP3    H115174   2.595   0.062   0.776
 5077TIP3    H215175   2.706   0.032   0.874
 5078TIP3   OH215176   5.627   5.731   5.192
 5078TIP3    H115177   5.620   5.772   5.279
 5078TIP3    H215178   5.688   5.659   5.204
 5079TIP3   OH215179   5.734   5.178   1.446
 5079TIP3    H115180   5.825   5.194   1.470
 5079TIP3    H215181   5.729   5.083   1.435
 5080TIP3   OH215182   8.180   5.544   3.838
 5080TIP3    H115183   8.173   5.593   3.755
 5080TIP3    H215184   8.092   5.546   3.874
 5081TIP3   OH215185   6.177   4.952   2.289
 5081TIP3    H115186   6.156   5.033   2.244
 5081TIP3    H215187   6.093   4.905   2.294
 5082TIP3   OH215188   1.894   2.454   5.546
 5082TIP3    H115189   1.813   2.402   5.550
 5082TIP3    H215190   1.873   2.533   5.596
 5083TIP3   OH215191   0.282   4.534   1.408
 5083TIP3    H115192   0.329   4.487   1.476
 5083TIP3    H215193   0.192   4.500   1.413
 5084TIP3   OH215194   0.886   1.186   1.061
 5084TIP3    H115195   0.845   1.244   1.125
 5084TIP3    H215196   0.977   1.178   1.089
 5085TIP3   OH215197   7.772   2.543   2.205
 5085TIP3    H115198   7.819   2.573   2.283
 5085TIP3    H215199   7.811   2.458   2.184
 5086TIP3   OH215200   6.385   3.430   4.427
 5086TIP3    H115201   6.467   3.473   4.452
 5086TIP3    H215202   6.318   3.474   4.481
 5087TIP3   OH215203   4.263   1.342   2.904
 5087TIP3    H115204   4.198   1.307   2.965
 5087TIP3    H215205   4.278   1.271   2.841
 5088TIP3   OH215206   0.888   7.778   2.591
 5088TIP3    H115207   0.817   7.715   2.579
 5088TIP3    H215208   0.958   7.745   2.536
 5089TIP3   OH215209   3.879   6.504   5.048
 5089TIP3    H115210   3.951   6.500   5.111
 5089TIP3    H215211   3.807   6.544   5.097
 5090TIP3   OH215212   6.192   1.610   6.193
 5090TIP3    H115213   6.141   1.659   6.128
 5090TIP3    H215214   6.157   1.638   6.277
 5091TIP3   OH215215   1.287   7.522   0.605
 5091TIP3    H115216   1.251   7.601   0.644
 5091TIP3    H215217   1.329   7.551   0.524
 5092TIP3   OH215218   7.523   6.405   5.839
 5092TIP3    H115219   7.466   6.351   5.893
 5092TIP3    H215220   7.504   6.378   5.749
 5093TIP3   OH215221   2.018   5.946   3.316
 5093TIP3    H115222   1.928   5.943   3.350
 5093TIP3    H215223   2.011   5.993   3.233
 5094TIP3   OH215224   2.939   1.526   5.927
 5094TIP3    H115225   2.990   1.596   5.885
 5094TIP3    H215226   2.850   1.561   5.932
 5095TIP3   OH215227   2.927   2.801   1.230
 5095TIP3    H115228   2.929   2.890   1.195
 5095TIP3    H215229   2.891   2.748   1.159
 5096TIP3   OH215230   2.258   5.673   2.682
 5096TIP3    H115231   2.274   5.592   2.636
 5096TIP3    H215232   2.336   5.688   2.735
 5097TIP3   OH215233   0.684   3.470   4.197
 5097TIP3    H115234   0.664   3.563   4.186
 5097TIP3    H215235   0.731   3.446   4.117
 5098TIP3   OH215236   3.527   0.696   6.551
 5098TIP3    H115237   3.473   0.769   6.523
 5098TIP3    H215238   3.593   0.687   6.482
 5099TIP3   OH215239   7.272   1.015   1.943
 5099TIP3    H115240   7.273   1.029   1.848
 5099TIP3    H215241   7.190   0.969   1.960
 5100TIP3   OH215242   2.952   4.051   1.576
 5100TIP3    H115243   2.989   4.132   1.542
 5100TIP3    H215244   2.972   3.985   1.510
 5101TIP3   OH215245   5.932   5.828   1.202
 5101TIP3    H115246   6.014   5.816   1.153
 5101TIP3    H215247   5.864   5.823   1.134
 5102TIP3   OH215248   7.192   7.796   5.003
 5102TIP3    H115249   7.270   7.816   5.055
 5102TIP3    H215250   7.124   7.853   5.040
 5103TIP3   OH215251   8.032   3.081   5.519
 5103TIP3    H115252   8.108   3.095   5.576
 5103TIP3    H215253   8.028   3.160   5.465
 5104TIP3   OH215254   4.596   3.753   1.676
 5104TIP3    H115255   4.633   3.665   1.670
 5104TIP3    H215256   4.665   3.811   1.644
 5105TIP3   OH215257   1.429   1.170   6.774
 5105TIP3    H115258   1.480   1.249   6.755
 5105TIP3    H215259   1.338   1.200   6.780
 5106TIP3   OH215260   6.536   2.382   3.018
 5106TIP3    H115261   6.503   2.365   2.929
 5106TIP3    H215262   6.509   2.306   3.069
 5107TIP3   OH215263   4.225   0.917   6.031
 5107TIP3    H115264   4.224   0.878   5.943
 5107TIP3    H215265   4.300   0.877   6.075
 5108TIP3   OH215266   7.315   7.903   4.509
 5108TIP3    H115267   7.265   7.826   4.536
 5108TIP3    H215268   7.405   7.872   4.502
 5109TIP3   OH215269   4.196   2.945   1.832
 5109TIP3    H115270   4.184   3.036   1.858
 5109TIP3    H215271   4.291   2.932   1.831
 5110TIP3   OH215272   5.533   2.966   4.302
 5110TIP3    H115273   5.468   2.911   4.345
 5110TIP3    H215274   5.496   2.985   4.216
 5111TIP3   OH215275   0.564   6.519   3.906
 5111TIP3    H115276   0.557   6.490   3.815
 5111TIP3    H215277   0.622   6.455   3.947
 5112TIP3   OH215278   8.030   4.122   1.277
 5112TIP3    H115279   7.967   4.175   1.228
 5112TIP3    H215280   8.113   4.169   1.266
 5113TIP3   OH215281   3.551   3.296   5.803
 5113TIP3    H115282   3.616   3.306   5.872
 5113TIP3    H215283   3.467   3.293   5.848
 5114TIP3   OH215284   7.423   5.178   0.001
 5114TIP3    H115285   7.507   5.141  -0.027
 5114TIP3    H215286   7.374   5.104   0.035
 5115TIP3   OH215287   3.860  -0.016   1.584
 5115TIP3    H115288   3.866  -0.016   1.679
 5115TIP3    H215289   3.918   0.055   1.556
 5116TIP3   OH215290   2.016   4.050   4.339
 5116TIP3    H115291   2.066   4.131   4.349
 5116TIP3    H215292   2.035   4.020   4.251
 5117TIP3   OH215293   4.668   7.498   1.695
 5117TIP3    H115294   4.746   7.553   1.709
 5117TIP3    H215295   4.603   7.533   1.756
 5118TIP3   OH215296   3.409   4.182   5.359
 5118TIP3    H115297   3.445   4.270   5.353
 5118TIP3    H215298   3.377   4.175   5.449
 5119TIP3   OH215299   4.916   6.379   6.808
 5119TIP3    H115300   4.820   6.380   6.801
 5119TIP3    H215301   4.941   6.471   6.799
 5120TIP3   OH215302   3.853   0.817   0.482
 5120TIP3    H115303   3.940   0.777   0.472
 5120TIP3    H215304   3.792   0.747   0.456
 5121TIP3   OH215305   5.993   5.122   5.533
 5121TIP3    H115306   6.026   5.038   5.565
 5121TIP3    H215307   5.905   5.103   5.501
 5122TIP3   OH215308   7.784   2.237   3.970
 5122TIP3    H115309   7.734   2.309   4.009
 5122TIP3    H215310   7.725   2.200   3.903
 5123TIP3   OH215311   2.210   3.015   0.586
 5123TIP3    H115312   2.188   3.080   0.520
 5123TIP3    H215313   2.241   2.939   0.536
 5124TIP3   OH215314   0.706   6.496   0.983
 5124TIP3    H115315   0.640   6.565   0.971
 5124TIP3    H215316   0.703   6.477   1.076
 5125TIP3   OH215317   1.711   3.695   0.810
 5125TIP3    H115318   1.707   3.740   0.726
 5125TIP3    H215319   1.798   3.715   0.844
 5126TIP3   OH215320   1.597   0.336   3.641
 5126TIP3    H115321   1.595   0.329   3.546
 5126TIP3    H215322   1.667   0.398   3.660
 5127TIP3   OH215323   1.401   6.481   5.504
 5127TIP3    H115324   1.318   6.441   5.476
 5127TIP3    H215325   1.380   6.523   5.588
 5128TIP3   OH215326   6.498   0.412   3.250
 5128TIP3    H115327   6.564   0.441   3.186
 5128TIP3    H215328   6.430   0.371   3.197
 5129TIP3   OH215329   1.962   6.680   2.574
 5129TIP3    H115330   1.909   6.682   2.654
 5129TIP3    H215331   2.047   6.716   2.600
 5130TIP3   OH215332   2.642   6.568   0.796
 5130TIP3    H115333   2.658   6.573   0.702
 5130TIP3    H215334   2.552   6.599   0.807
 5131TIP3   OH215335   7.377   6.210   5.991
 5131TIP3    H115336   7.300   6.178   6.038
 5131TIP3    H215337   7.433   6.133   5.981
 5132TIP3   OH215338   1.613   4.820   1.169
 5132TIP3    H115339   1.595   4.729   1.193
 5132TIP3    H215340   1.531   4.866   1.184
 5133TIP3   OH215341   5.599   6.796   6.065
 5133TIP3    H115342   5.537   6.751   6.007
 5133TIP3    H215343   5.574   6.888   6.061
 5134TIP3   OH215344   2.099   2.388   3.868
 5134TIP3    H115345   2.101   2.293   3.868
 5134TIP3    H215346   2.044   2.412   3.943
 5135TIP3   OH215347   5.516   6.632   6.657
 5135TIP3    H115348   5.482   6.636   6.747
 5135TIP3    H215349   5.609   6.610   6.668
 5136TIP3   OH215350   6.496   7.299   3.108
 5136TIP3    H115351   6.529   7.272   3.022
 5136TIP3    H215352   6.528   7.389   3.119
 5137TIP3   OH215353   1.384   4.470   3.478
 5137TIP3    H115354   1.412   4.555   3.514
 5137TIP3    H215355   1.398   4.409   3.550
 5138TIP3   OH215356   7.299   0.896   5.518
 5138TIP3    H115357   7.294   0.914   5.612
 5138TIP3    H215358   7.221   0.938   5.482
 5139TIP3   OH215359   4.993   6.564   2.848
 5139TIP3    H115360   5.010   6.528   2.761
 5139TIP3    H215361   4.972   6.656   2.833
 5140TIP3   OH215362   2.418   6.193   1.583
 5140TIP3    H115363   2.396   6.127   1.649
 5140TIP3    H215364   2.390   6.276   1.621
 5141TIP3   OH215365   4.847   6.750   6.412
 5141TIP3    H115366   4.869   6.683   6.477
 5141TIP3    H215367   4.891   6.829   6.444
 5142TIP3   OH215368   6.141   7.806   3.253
 5142TIP3    H115369   6.077   7.734   3.253
 5142TIP3    H215370   6.091   7.882   3.225
 5143TIP3   OH215371   3.874   4.592   5.071
 5143TIP3    H115372   3.834   4.676   5.047
 5143TIP3    H215373   3.912   4.608   5.158
 5144TIP3   OH215374   4.264   3.086   4.850
 5144TIP3    H115375   4.198   3.154   4.863
 5144TIP3    H215376   4.303   3.075   4.937
 5145TIP3   OH215377   3.618   7.006   2.141
 5145TIP3    H115378   3.656   6.926   2.176
 5145TIP3    H215379   3.615   6.992   2.046
 5146TIP3   OH215380   7.998   5.382   0.317
 5146TIP3    H115381   7.989   5.453   0.380
 5146TIP3    H215382   7.988   5.424   0.232
 5147TIP3   OH215383   4.577   7.569   3.439
 5147TIP3    H115384   4.582   7.568   3.343
 5147TIP3    H215385   4.541   7.655   3.460
 5148TIP3   OH215386   3.017   5.729   6.124
 5148TIP3    H115387   3.082   5.708   6.192
 5148TIP3    H215388   2.990   5.818   6.145
 5149TIP3   OH215389   3.617   1.447   3.739
 5149TIP3    H115390   3.652   1.529   3.772
 5149TIP3    H215391   3.644   1.381   3.802
 5150TIP3   OH215392   3.873   4.193   6.309
 5150TIP3    H115393   3.815   4.266   6.287
 5150TIP3    H215394   3.860   4.130   6.237
 5151TIP3   OH215395   4.370   4.689   6.332
 5151TIP3    H115396   4.445   4.711   6.276
 5151TIP3    H215397   4.399   4.710   6.420
 5152TIP3   OH215398   2.362   7.666   4.916
 5152TIP3    H115399   2.426   7.651   4.846
 5152TIP3    H215400   2.361   7.761   4.928
 5153TIP3   OH215401   4.397   5.663   2.473
 5153TIP3    H115402   4.396   5.634   2.382
 5153TIP3    H215403   4.304   5.675   2.495
 5154TIP3   OH215404   6.346   3.010   6.151
 5154TIP3    H115405   6.414   3.076   6.132
 5154TIP3    H215406   6.393   2.941   6.198
 5155TIP3   OH215407   3.178   6.163   2.440
 5155TIP3    H115408   3.192   6.212   2.359
 5155TIP3    H215409   3.139   6.080   2.411
 5156TIP3   OH215410   7.779   6.846   0.478
 5156TIP3    H115411   7.685   6.835   0.494
 5156TIP3    H215412   7.811   6.756   0.464
 5157TIP3   OH215413   7.947   5.618   5.629
 5157TIP3    H115414   7.945   5.538   5.681
 5157TIP3    H215415   7.856   5.647   5.624
 5158TIP3   OH215416   1.883   2.480   1.964
 5158TIP3    H115417   1.831   2.499   2.042
 5158TIP3    H215418   1.843   2.401   1.927
 5159TIP3   OH215419   1.926   2.944   5.133
 5159TIP3    H115420   1.877   3.005   5.189
 5159TIP3    H215421   1.978   2.892   5.194
 5160TIP3   OH215422   7.111   1.413   5.873
 5160TIP3    H115423   7.020   1.408   5.899
 5160TIP3    H215424   7.147   1.326   5.893
 5161TIP3   OH215425   5.960   3.284   1.827
 5161TIP3    H115426   6.006   3.294   1.744
 5161TIP3    H215427   5.868   3.272   1.802
 5162TIP3   OH215428   3.600   0.328   6.520
 5162TIP3    H115429   3.521   0.368   6.484
 5162TIP3    H215430   3.672   0.365   6.468
 5163TIP3   OH215431   7.821   6.627   4.671
 5163TIP3    H115432   7.906   6.583   4.662
 5163TIP3    H215433   7.772   6.571   4.731
 5164TIP3   OH215434   5.151   3.964   1.019
 5164TIP3    H115435   5.064   4.004   1.015
 5164TIP3    H215436   5.158   3.934   1.110
 5165TIP3   OH215437   4.955   5.881   5.400
 5165TIP3    H115438   5.049   5.892   5.412
 5165TIP3    H215439   4.931   5.810   5.459
 5166TIP3   OH215440   5.653   5.961   1.917
 5166TIP3    H115441   5.639   6.020   1.843
 5166TIP3    H215442   5.567   5.951   1.957
 5167TIP3   OH215443   1.331   5.111   2.343
 5167TIP3    H115444   1.328   5.031   2.396
 5167TIP3    H215445   1.424   5.127   2.329
 5168TIP3   OH215446   4.008   1.669   2.226
 5168TIP3    H115447   3.915   1.649   2.236
 5168TIP3    H215448   4.036   1.698   2.313
 5169TIP3   OH215449   5.130   3.433   5.805
 5169TIP3    H115450   5.196   3.365   5.794
 5169TIP3    H215451   5.180   3.513   5.818
 5170TIP3   OH215452   2.091   2.294   4.301
 5170TIP3    H115453   2.089   2.344   4.383
 5170TIP3    H215454   2.046   2.350   4.238
 5171TIP3   OH215455   6.648   2.443   6.436
 5171TIP3    H115456   6.655   2.516   6.498
 5171TIP3    H215457   6.736   2.433   6.400
 5172TIP3   OH215458   1.911   0.246   0.316
 5172TIP3    H115459   1.885   0.182   0.250
 5172TIP3    H215460   2.004   0.262   0.299
 5173TIP3   OH215461   1.885   3.889   5.114
 5173TIP3    H115462   1.796   3.878   5.148
 5173TIP3    H215463   1.903   3.982   5.122
 5174TIP3   OH215464   2.865   4.972   4.915
 5174TIP3    H115465   2.942   5.027   4.899
 5174TIP3    H215466   2.886   4.888   4.873
 5175TIP3   OH215467   5.587   5.688   0.435
 5175TIP3    H115468   5.571   5.755   0.502
 5175TIP3    H215469   5.668   5.645   0.463
 5176TIP3   OH215470   6.582   3.919   4.243
 5176TIP3    H115471   6.543   3.862   4.176
 5176TIP3    H215472   6.507   3.947   4.296
 5177TIP3   OH215473   1.305   4.447   1.490
 5177TIP3    H115474   1.212   4.461   1.505
 5177TIP3    H215475   1.340   4.421   1.576
 5178TIP3   OH215476   4.821   1.902   3.473
 5178TIP3    H115477   4.914   1.904   3.497
 5178TIP3    H215478   4.775   1.917   3.556
 5179TIP3   OH215479   7.672   0.641   5.574
 5179TIP3    H115480   7.614   0.568   5.553
 5179TIP3    H215481   7.639   0.714   5.523
 5180TIP3   OH215482   1.998   0.076   6.171
 5180TIP3    H115483   2.029   0.043   6.255
 5180TIP3    H215484   2.047   0.024   6.106
 5181TIP3   OH215485   4.179   7.731   0.059
 5181TIP3    H115486   4.179   7.738   0.155
 5181TIP3    H215487   4.142   7.645   0.041
 5182TIP3   OH215488   5.071   7.125   1.945
 5182TIP3    H115489   5.079   7.209   1.901
 5182TIP3    H215490   5.160   7.088   1.943
 5183TIP3   OH215491   1.437   4.767   3.309
 5183TIP3    H115492   1.513   4.742   3.361
 5183TIP3    H215493   1.424   4.860   3.328
 5184TIP3   OH215494   0.268   1.678   3.818
 5184TIP3    H115495   0.223   1.726   3.748
 5184TIP3    H215496   0.198   1.634   3.866
 5185TIP3   OH215497   3.530   4.445   6.608
 5185TIP3    H115498   3.452   4.429   6.555
 5185TIP3    H215499   3.495   4.466   6.695
 5186TIP3   OH215500   1.597   0.664  -0.008
 5186TIP3    H115501   1.538   0.592   0.013
 5186TIP3    H215502   1.581   0.729   0.060
 5187TIP3   OH215503   5.405   7.747   5.062
 5187TIP3    H115504   5.393   7.704   5.147
 5187TIP3    H215505   5.357   7.691   5.000
 5188TIP3   OH215506   2.240   6.307   6.155
 5188TIP3    H115507   2.251   6.367   6.229
 5188TIP3    H215508   2.326   6.267   6.143
 5189TIP3   OH215509   0.938   6.152   3.236
 5189TIP3    H115510   1.024   6.193   3.247
 5189TIP3    H215511   0.877   6.225   3.230
 5190TIP3   OH215512   6.270   3.154   4.537
 5190TIP3    H115513   6.322   3.234   4.541
 5190TIP3    H215514   6.260   3.136   4.444
 5191TIP3   OH215515   0.900   1.355   0.328
 5191TIP3    H115516   0.868   1.441   0.300
 5191TIP3    H215517   0.866   1.345   0.417
 5192TIP3   OH215518   6.278   7.376   5.324
 5192TIP3    H115519   6.363   7.351   5.360
 5192TIP3    H215520   6.247   7.297   5.278
 5193TIP3   OH215521   1.967   1.788   0.166
 5193TIP3    H115522   1.938   1.835   0.244
 5193TIP3    H215523   2.017   1.714   0.200
 5194TIP3   OH215524   4.422   0.586   0.820
 5194TIP3    H115525   4.357   0.626   0.762
 5194TIP3    H215526   4.506   0.613   0.783
 5195TIP3   OH215527   5.051   4.078   1.704
 5195TIP3    H115528   5.054   3.989   1.740
 5195TIP3    H215529   4.989   4.124   1.760
 5196TIP3   OH215530   0.995   1.839   3.946
 5196TIP3    H115531   0.935   1.908   3.973
 5196TIP3    H215532   1.038   1.875   3.868
 5197TIP3   OH215533   5.468   3.774   5.712
 5197TIP3    H115534   5.489   3.859   5.750
 5197TIP3    H215535   5.502   3.778   5.622
 5198TIP3   OH215536   8.129   5.001   2.013
 5198TIP3    H115537   8.162   5.039   1.931
 5198TIP3    H215538   8.037   5.027   2.016
 5199TIP3   OH215539   6.480   5.343   2.211
 5199TIP3    H115540   6.518   5.262   2.175
 5199TIP3    H215541   6.555   5.389   2.248
 5200TIP3   OH215542   1.186   4.073   0.982
 5200TIP3    H115543   1.122   4.011   0.947
 5200TIP3    H215544   1.228   4.026   1.054
 5201TIP3   OH215545   6.979   2.830   0.939
 5201TIP3    H115546   6.924   2.761   0.903
 5201TIP3    H215547   6.935   2.911   0.913
 5202TIP3   OH215548   2.121   4.622   0.535
 5202TIP3    H115549   2.173   4.609   0.614
 5202TIP3    H215550   2.054   4.685   0.560
 5203TIP3   OH215551   4.870   1.938   1.828
 5203TIP3    H115552   4.904   2.026   1.844
 5203TIP3    H215553   4.859   1.900   1.915
 5204TIP3   OH215554   4.854   7.676   1.792
 5204TIP3    H115555   4.825   7.765   1.809
 5204TIP3    H215556   4.912   7.683   1.717
 5205TIP3   OH215557   3.895   3.322   5.392
 5205TIP3    H115558   3.859   3.266   5.461
 5205TIP3    H215559   3.924   3.260   5.325
 5206TIP3   OH215560   6.033   3.355   5.356
 5206TIP3    H115561   6.028   3.280   5.296
 5206TIP3    H215562   6.126   3.375   5.361
 5207TIP3   OH215563   6.675   4.678   5.373
 5207TIP3    H115564   6.708   4.752   5.425
 5207TIP3    H215565   6.614   4.633   5.432
 5208TIP3   OH215566   5.888   5.910   4.422
 5208TIP3    H115567   5.875   5.966   4.499
 5208TIP3    H215568   5.888   5.821   4.457
 5209TIP3   OH215569   3.594   5.912   1.293
 5209TIP3    H115570   3.539   5.840   1.324
 5209TIP3    H215571   3.654   5.872   1.231
 5210TIP3   OH215572   7.043   6.130   0.270
 5210TIP3    H115573   7.102   6.186   0.320
 5210TIP3    H215574   7.102   6.074   0.218
 5211TIP3   OH215575   2.707   2.349   5.334
 5211TIP3    H115576   2.623   2.324   5.371
 5211TIP3    H215577   2.715   2.295   5.254
 5212TIP3   OH215578   0.199   1.293   3.811
 5212TIP3    H115579   0.271   1.320   3.754
 5212TIP3    H215580   0.237   1.290   3.898
 5213TIP3   OH215581   0.753   4.787   2.377
 5213TIP3    H115582   0.812   4.775   2.303
 5213TIP3    H215583   0.808   4.768   2.454
 5214TIP3   OH215584   7.848   5.812   3.148
 5214TIP3    H115585   7.897   5.781   3.224
 5214TIP3    H215586   7.894   5.774   3.073
 5215TIP3   OH215587   7.855   0.850   0.658
 5215TIP3    H115588   7.770   0.817   0.689
 5215TIP3    H215589   7.881   0.914   0.725
 5216TIP3   OH215590   7.980   3.983   5.839
 5216TIP3    H115591   7.912   4.006   5.903
 5216TIP3    H215592   7.961   4.040   5.764
 5217TIP3   OH215593   0.923   2.750   6.621
 5217TIP3    H115594   1.013   2.746   6.588
 5217TIP3    H215595   0.897   2.841   6.610
 5218TIP3   OH215596   2.451   1.284   0.783
 5218TIP3    H115597   2.435   1.242   0.867
 5218TIP3    H215598   2.546   1.297   0.780
 5219TIP3   OH215599   2.896   4.612   0.964
 5219TIP3    H115600   2.825   4.603   0.900
 5219TIP3    H215601   2.929   4.522   0.975
 5220TIP3   OH215602   0.306   3.897   3.560
 5220TIP3    H115603   0.370   3.860   3.499
 5220TIP3    H215604   0.305   3.991   3.540
 5221TIP3   OH215605   8.078   5.798   2.658
 5221TIP3    H115606   8.078   5.751   2.575
 5221TIP3    H215607   8.134   5.874   2.643
 5222TIP3   OH215608   4.296   4.650   3.186
 5222TIP3    H115609   4.260   4.656   3.275
 5222TIP3    H215610   4.276   4.734   3.146
 5223TIP3   OH215611   2.689   3.464   4.256
 5223TIP3    H115612   2.612   3.519   4.239
 5223TIP3    H215613   2.759   3.505   4.204
 5224TIP3   OH215614   0.927   4.754   3.836
 5224TIP3    H115615   0.900   4.663   3.841
 5224TIP3    H215616   0.848   4.804   3.857
 5225TIP3   OH215617   2.334   6.163   1.174
 5225TIP3    H115618   2.297   6.181   1.261
 5225TIP3    H215619   2.413   6.217   1.170
 5226TIP3   OH215620   2.350   5.481   3.811
 5226TIP3    H115621   2.264   5.518   3.790
 5226TIP3    H215622   2.376   5.435   3.731
 5227TIP3   OH215623   3.072   7.584   1.701
 5227TIP3    H115624   3.064   7.621   1.613
 5227TIP3    H215625   3.150   7.626   1.737
 5228TIP3   OH215626   0.777   6.406   4.058
 5228TIP3    H115627   0.869   6.418   4.078
 5228TIP3    H215628   0.733   6.406   4.143
 5229TIP3   OH215629   0.016   6.670   3.282
 5229TIP3    H115630   0.018   6.595   3.341
 5229TIP3    H215631  -0.009   6.744   3.337
 5230TIP3   OH215632   7.032   1.507   3.991
 5230TIP3    H115633   7.019   1.465   4.076
 5230TIP3    H215634   7.018   1.437   3.927
 5231TIP3   OH215635   1.510   3.142   4.423
 5231TIP3    H115636   1.593   3.164   4.465
 5231TIP3    H215637   1.446   3.147   4.493
 5232TIP3   OH215638   2.729   4.618   2.598
 5232TIP3    H115639   2.702   4.557   2.529
 5232TIP3    H215640   2.673   4.695   2.585
 5233TIP3   OH215641   3.377   0.882   4.530
 5233TIP3    H115642   3.394   0.820   4.601
 5233TIP3    H215643   3.460   0.889   4.483
 5234TIP3   OH215644   5.681   2.705   0.180
 5234TIP3    H115645   5.620   2.775   0.154
 5234TIP3    H215646   5.754   2.752   0.221
 5235TIP3   OH215647   3.776   6.831   1.835
 5235TIP3    H115648   3.862   6.843   1.876
 5235TIP3    H215649   3.792   6.768   1.764
 5236TIP3   OH215650   5.739   0.779   5.347
 5236TIP3    H115651   5.804   0.710   5.334
 5236TIP3    H215652   5.699   0.791   5.261
 5237TIP3   OH215653   1.557   2.050   6.529
 5237TIP3    H115654   1.515   1.966   6.549
 5237TIP3    H215655   1.490   2.099   6.481
 5238TIP3   OH215656   4.082   0.513   2.604
 5238TIP3    H115657   4.085   0.579   2.536
 5238TIP3    H215658   4.160   0.459   2.590
 5239TIP3   OH215659   7.698   5.636   2.836
 5239TIP3    H115660   7.705   5.726   2.802
 5239TIP3    H215661   7.785   5.618   2.872
 5240TIP3   OH215662   7.156   0.466   1.722
 5240TIP3    H115663   7.169   0.477   1.628
 5240TIP3    H215664   7.090   0.397   1.730
 5241TIP3   OH215665   1.600   0.131   2.475
 5241TIP3    H115666   1.567   0.054   2.523
 5241TIP3    H215667   1.695   0.127   2.485
 5242TIP3   OH215668   7.910   6.055   5.831
 5242TIP3    H115669   7.819   6.076   5.810
 5242TIP3    H215670   7.961   6.108   5.769
 5243TIP3   OH215671   1.872   0.333   6.128
 5243TIP3    H115672   1.902   0.250   6.165
 5243TIP3    H215673   1.820   0.373   6.198
 5244TIP3   OH215674   0.775   2.811   1.296
 5244TIP3    H115675   0.861   2.775   1.319
 5244TIP3    H215676   0.743   2.754   1.226
 5245TIP3   OH215677   1.562   5.578   5.318
 5245TIP3    H115678   1.632   5.639   5.339
 5245TIP3    H215679   1.557   5.579   5.222
 5246TIP3   OH215680   5.919   2.933   3.731
 5246TIP3    H115681   6.001   2.975   3.705
 5246TIP3    H215682   5.851   2.987   3.691
 5247TIP3   OH215683   3.126   3.194   5.452
 5247TIP3    H115684   3.178   3.241   5.388
 5247TIP3    H215685   3.038   3.232   5.444
 5248TIP3   OH215686   4.925   5.253   2.501
 5248TIP3    H115687   4.832   5.258   2.520
 5248TIP3    H215688   4.953   5.169   2.536
 5249TIP3   OH215689   1.253   3.897   4.714
 5249TIP3    H115690   1.254   3.811   4.672
 5249TIP3    H215691   1.337   3.936   4.691
 5250TIP3   OH215692   8.150   6.686   3.676
 5250TIP3    H115693   8.074   6.633   3.651
 5250TIP3    H215694   8.219   6.622   3.693
 5251TIP3   OH215695   6.558   4.550   1.498
 5251TIP3    H115696   6.464   4.534   1.497
 5251TIP3    H215697   6.590   4.516   1.415
 5252TIP3   OH215698   7.152   1.590   6.393
 5252TIP3    H115699   7.071   1.615   6.438
 5252TIP3    H215700   7.122   1.537   6.319
 5253TIP3   OH215701   1.360   0.836   6.676
 5253TIP3    H115702   1.277   0.790   6.668
 5253TIP3    H215703   1.366   0.889   6.596
 5254TIP3   OH215704   2.838   5.321   6.581
 5254TIP3    H115705   2.888   5.402   6.590
 5254TIP3    H215706   2.899   5.252   6.610
 5255TIP3   OH215707   5.749   3.658   3.524
 5255TIP3    H115708   5.830   3.608   3.519
 5255TIP3    H215709   5.717   3.643   3.613
 5256TIP3   OH215710   1.544   4.662   0.128
 5256TIP3    H115711   1.621   4.686   0.076
 5256TIP3    H215712   1.576   4.659   0.218
 5257TIP3   OH215713   1.458   2.188   0.071
 5257TIP3    H115714   1.535   2.225   0.028
 5257TIP3    H215715   1.418   2.133   0.004
 5258TIP3   OH215716   1.265   6.923   6.461
 5258TIP3    H115717   1.173   6.898   6.452
 5258TIP3    H215718   1.268   6.973   6.543
 5259TIP3   OH215719   5.847   7.019   0.504
 5259TIP3    H115720   5.907   6.972   0.562
 5259TIP3    H215721   5.762   7.011   0.547
 5260TIP3   OH215722   4.198   3.424   2.514
 5260TIP3    H115723   4.178   3.439   2.422
 5260TIP3    H215724   4.123   3.373   2.547
 5261TIP3   OH215725   5.807   5.002   6.646
 5261TIP3    H115726   5.717   4.974   6.664
 5261TIP3    H215727   5.800   5.096   6.629
 5262TIP3   OH215728   1.058   1.978   0.548
 5262TIP3    H115729   1.006   1.936   0.616
 5262TIP3    H215730   1.013   1.959   0.466
 5263TIP3   OH215731   7.811   2.143   2.871
 5263TIP3    H115732   7.787   2.233   2.850
 5263TIP3    H215733   7.856   2.111   2.792
 5264TIP3   OH215734   2.135   7.139   5.217
 5264TIP3    H115735   2.181   7.065   5.178
 5264TIP3    H215736   2.095   7.185   5.143
 5265TIP3   OH215737   5.596   4.099   4.276
 5265TIP3    H115738   5.562   4.167   4.217
 5265TIP3    H215739   5.610   4.145   4.359
 5266TIP3   OH215740   7.912   7.191   3.032
 5266TIP3    H115741   7.976   7.165   3.097
 5266TIP3    H215742   7.964   7.225   2.959
 5267TIP3   OH215743   4.987   5.015   0.244
 5267TIP3    H115744   4.960   4.964   0.167
 5267TIP3    H215745   4.994   4.950   0.314
 5268TIP3   OH215746   2.532   2.205   2.328
 5268TIP3    H115747   2.467   2.225   2.261
 5268TIP3    H215748   2.506   2.119   2.361
 5269TIP3   OH215749   2.653   5.981   0.905
 5269TIP3    H115750   2.688   6.020   0.985
 5269TIP3    H215751   2.607   6.052   0.861
 5270TIP3   OH215752   3.405   4.257   1.820
 5270TIP3    H115753   3.467   4.244   1.749
 5270TIP3    H215754   3.320   4.263   1.777
 5271TIP3   OH215755   3.402   2.831   2.127
 5271TIP3    H115756   3.457   2.909   2.118
 5271TIP3    H215757   3.430   2.775   2.054
 5272TIP3   OH215758   6.464   3.420   4.930
 5272TIP3    H115759   6.510   3.504   4.917
 5272TIP3    H215760   6.532   3.361   4.962
 5273TIP3   OH215761   5.958   4.201   0.886
 5273TIP3    H115762   5.879   4.224   0.935
 5273TIP3    H215763   5.943   4.238   0.799
 5274TIP3   OH215764   3.549   5.946   2.630
 5274TIP3    H115765   3.564   5.943   2.535
 5274TIP3    H215766   3.499   6.026   2.644
 5275TIP3   OH215767   2.842   0.070   0.300
 5275TIP3    H115768   2.803  -0.012   0.269
 5275TIP3    H215769   2.781   0.101   0.367
 5276TIP3   OH215770   6.548   0.265   0.151
 5276TIP3    H115771   6.537   0.360   0.145
 5276TIP3    H215772   6.529   0.233   0.063
 5277TIP3   OH215773   5.586   5.050   6.151
 5277TIP3    H115774   5.669   5.046   6.200
 5277TIP3    H215775   5.526   4.996   6.202
 5278TIP3   OH215776   7.789   3.630   5.453
 5278TIP3    H115777   7.864   3.573   5.437
 5278TIP3    H215778   7.759   3.607   5.541
 5279TIP3   OH215779   6.836   2.038   2.701
 5279TIP3    H115780   6.894   2.102   2.743
 5279TIP3    H215781   6.817   1.974   2.770
 5280TIP3   OH215782   3.519   1.747   0.550
 5280TIP3    H115783   3.597   1.707   0.587
 5280TIP3    H215784   3.456   1.675   0.542
 5281TIP3   OH215785   0.267   6.655   3.469
 5281TIP3    H115786   0.297   6.644   3.559
 5281TIP3    H215787   0.183   6.700   3.478
 5282TIP3   OH215788   6.059   0.059   6.253
 5282TIP3    H115789   6.092   0.125   6.192
 5282TIP3    H215790   5.964   0.067   6.248
 5283TIP3   OH215791   3.774   6.851   0.792
 5283TIP3    H115792   3.682   6.832   0.807
 5283TIP3    H215793   3.821   6.778   0.832
 5284TIP3   OH215794   3.982   2.227   1.901
 5284TIP3    H115795   3.893   2.262   1.895
 5284TIP3    H215796   4.027   2.263   1.825
 5285TIP3   OH215797   3.382   0.666   6.815
 5285TIP3    H115798   3.458   0.722   6.829
 5285TIP3    H215799   3.364   0.675   6.721
 5286TIP3   OH215800   3.238   0.090   3.008
 5286TIP3    H115801   3.295   0.098   3.084
 5286TIP3    H215802   3.230   0.180   2.975
 5287TIP3   OH215803   7.989   1.418   2.257
 5287TIP3    H115804   7.923   1.350   2.245
 5287TIP3    H215805   7.962   1.489   2.199
 5288TIP3   OH215806   4.413   4.025   6.398
 5288TIP3    H115807   4.336   3.973   6.373
 5288TIP3    H215808   4.475   4.010   6.327
 5289TIP3   OH215809   1.321   6.468   2.177
 5289TIP3    H115810   1.314   6.380   2.215
 5289TIP3    H215811   1.234   6.506   2.189
 5290TIP3   OH215812   0.803   0.699   1.830
 5290TIP3    H115813   0.880   0.748   1.802
 5290TIP3    H215814   0.838   0.615   1.860
 5291TIP3   OH215815   1.195   1.680   0.714
 5291TIP3    H115816   1.133   1.698   0.644
 5291TIP3    H215817   1.156   1.720   0.792
 5292TIP3   OH215818   4.612   2.934   5.160
 5292TIP3    H115819   4.629   3.019   5.121
 5292TIP3    H215820   4.518   2.921   5.150
 5293TIP3   OH215821   6.983   2.949   0.089
 5293TIP3    H115822   7.052   2.930   0.025
 5293TIP3    H215823   6.923   3.007   0.042
 5294TIP3   OH215824   4.240   5.855   6.368
 5294TIP3    H115825   4.219   5.929   6.425
 5294TIP3    H215826   4.286   5.895   6.294
 5295TIP3   OH215827   3.000   1.908   3.612
 5295TIP3    H115828   2.924   1.946   3.570
 5295TIP3    H215829   3.075   1.951   3.571
 5296TIP3   OH215830   2.370   2.090   1.039
 5296TIP3    H115831   2.428   2.039   0.982
 5296TIP3    H215832   2.423   2.165   1.065
 5297TIP3   OH215833   5.979   0.611   3.755
 5297TIP3    H115834   6.067   0.641   3.733
 5297TIP3    H215835   5.922   0.650   3.689
 5298TIP3   OH215836   5.065   3.935   4.451
 5298TIP3    H115837   5.099   3.977   4.530
 5298TIP3    H215838   5.123   3.861   4.436
 5299TIP3   OH215839   6.445   3.316   6.499
 5299TIP3    H115840   6.498   3.336   6.421
 5299TIP3    H215841   6.430   3.222   6.495
 5300TIP3   OH215842   8.219   3.266   1.475
 5300TIP3    H115843   8.250   3.355   1.460
 5300TIP3    H215844   8.182   3.239   1.391
 5301TIP3   OH215845   0.227   4.581   6.627
 5301TIP3    H115846   0.234   4.554   6.719
 5301TIP3    H215847   0.315   4.611   6.605
 5302TIP3   OH215848   1.167   5.528   5.572
 5302TIP3    H115849   1.227   5.574   5.630
 5302TIP3    H215850   1.081   5.535   5.614
 5303TIP3   OH215851   8.205   3.132   3.489
 5303TIP3    H115852   8.296   3.144   3.516
 5303TIP3    H215853   8.207   3.144   3.394
 5304TIP3   OH215854   1.585   6.375   2.861
 5304TIP3    H115855   1.588   6.434   2.786
 5304TIP3    H215856   1.664   6.321   2.852
 5305TIP3   OH215857   3.789   2.670   4.144
 5305TIP3    H115858   3.734   2.676   4.066
 5305TIP3    H215859   3.747   2.603   4.198
 5306TIP3   OH215860   5.781   6.549   2.829
 5306TIP3    H115861   5.782   6.487   2.902
 5306TIP3    H215862   5.831   6.506   2.760
 5307TIP3   OH215863   3.704   2.567   2.888
 5307TIP3    H115864   3.640   2.535   2.951
 5307TIP3    H215865   3.789   2.542   2.926
 5308TIP3   OH215866   0.529   2.999   0.552
 5308TIP3    H115867   0.552   3.057   0.625
 5308TIP3    H215868   0.473   2.932   0.591
 5309TIP3   OH215869   4.573   0.181   6.581
 5309TIP3    H115870   4.636   0.176   6.654
 5309TIP3    H215871   4.533   0.267   6.590
 5310TIP3   OH215872   0.301   3.464   2.591
 5310TIP3    H115873   0.343   3.516   2.523
 5310TIP3    H215874   0.313   3.515   2.671
 5311TIP3   OH215875   3.017   7.409   4.662
 5311TIP3    H115876   3.036   7.316   4.654
 5311TIP3    H215877   2.934   7.412   4.710
 5312TIP3   OH215878   4.523   4.429   4.311
 5312TIP3    H115879   4.514   4.488   4.386
 5312TIP3    H215880   4.445   4.445   4.258
 5313TIP3   OH215881   2.315   1.766   0.756
 5313TIP3    H115882   2.223   1.793   0.753
 5313TIP3    H215883   2.325   1.706   0.683
 5314TIP3   OH215884   5.288   0.972   1.663
 5314TIP3    H115885   5.379   0.997   1.645
 5314TIP3    H215886   5.239   1.004   1.588
 5315TIP3   OH215887   3.260   2.285   1.120
 5315TIP3    H115888   3.180   2.336   1.110
 5315TIP3    H215889   3.328   2.340   1.080
 5316TIP3   OH215890   1.533   0.540   6.066
 5316TIP3    H115891   1.599   0.480   6.032
 5316TIP3    H215892   1.550   0.623   6.021
 5317TIP3   OH215893   3.824   0.532   3.357
 5317TIP3    H115894   3.834   0.589   3.433
 5317TIP3    H215895   3.743   0.561   3.316
 5318TIP3   OH215896   5.144   0.351   6.434
 5318TIP3    H115897   5.106   0.378   6.351
 5318TIP3    H215898   5.202   0.278   6.412
 5319TIP3   OH215899   0.801   0.531   4.167
 5319TIP3    H115900   0.755   0.450   4.189
 5319TIP3    H215901   0.733   0.588   4.131
 5320TIP3   OH215902   0.113   3.147   2.280
 5320TIP3    H115903   0.174   3.192   2.221
 5320TIP3    H215904   0.169   3.087   2.331
 5321TIP3   OH215905   4.813   6.682   5.851
 5321TIP3    H115906   4.852   6.644   5.929
 5321TIP3    H215907   4.844   6.627   5.779
 5322TIP3   OH215908   5.817   0.810   4.446
 5322TIP3    H115909   5.823   0.764   4.363
 5322TIP3    H215910   5.887   0.772   4.499
 5323TIP3   OH215911   2.286   7.112   4.090
 5323TIP3    H115912   2.333   7.041   4.135
 5323TIP3    H215913   2.295   7.187   4.149
 5324TIP3   OH215914   4.750   3.069   1.015
 5324TIP3    H115915   4.767   3.162   1.030
 5324TIP3    H215916   4.810   3.044   0.944
 5325TIP3   OH215917   1.382   4.347   4.549
 5325TIP3    H115918   1.471   4.376   4.527
 5325TIP3    H215919   1.373   4.262   4.506
 5326TIP3   OH215920   1.818   1.368   2.473
 5326TIP3    H115921   1.862   1.368   2.388
 5326TIP3    H215922   1.815   1.276   2.500
 5327TIP3   OH215923   2.948   4.637   5.735
 5327TIP3    H115924   2.923   4.654   5.644
 5327TIP3    H215925   3.024   4.693   5.750
 5328TIP3   OH215926   3.810   3.090   6.471
 5328TIP3    H115927   3.846   3.148   6.404
 5328TIP3    H215928   3.782   3.149   6.542
 5329TIP3   OH215929   7.911   2.287   2.257
 5329TIP3    H115930   7.822   2.255   2.240
 5329TIP3    H215931   7.957   2.211   2.292
 5330TIP3   OH215932   5.940   5.632   1.393
 5330TIP3    H115933   6.022   5.591   1.366
 5330TIP3    H215934   5.939   5.717   1.349
 5331TIP3   OH215935   6.288   4.246   0.397
 5331TIP3    H115936   6.230   4.306   0.350
 5331TIP3    H215937   6.229   4.195   0.452
 5332TIP3   OH215938   0.074   6.353   5.084
 5332TIP3    H115939   0.026   6.423   5.129
 5332TIP3    H215940   0.125   6.312   5.153
 5333TIP3   OH215941   1.603   1.226   1.638
 5333TIP3    H115942   1.673   1.203   1.699
 5333TIP3    H215943   1.614   1.321   1.624
 5334TIP3   OH215944   4.512   3.684   6.135
 5334TIP3    H115945   4.482   3.719   6.050
 5334TIP3    H215946   4.443   3.623   6.161
 5335TIP3   OH215947   2.134   0.497   4.303
 5335TIP3    H115948   2.198   0.540   4.245
 5335TIP3    H215949   2.120   0.560   4.374
 5336TIP3   OH215950   7.357   1.450   0.106
 5336TIP3    H115951   7.274   1.465   0.060
 5336TIP3    H215952   7.346   1.364   0.146
 5337TIP3   OH215953   6.413   1.042   0.986
 5337TIP3    H115954   6.407   1.065   0.893
 5337TIP3    H215955   6.506   1.047   1.006
 5338TIP3   OH215956   2.011   6.085   0.397
 5338TIP3    H115957   2.062   6.024   0.450
 5338TIP3    H215958   1.920   6.063   0.415
 5339TIP3   OH215959   7.985   2.758   3.606
 5339TIP3    H115960   8.068   2.783   3.646
 5339TIP3    H215961   7.938   2.710   3.674
 5340TIP3   OH215962   1.672   7.767   2.887
 5340TIP3    H115963   1.758   7.785   2.849
 5340TIP3    H215964   1.690   7.720   2.968
 5341TIP3   OH215965   3.843   2.887   3.850
 5341TIP3    H115966   3.758   2.893   3.893
 5341TIP3    H215967   3.899   2.946   3.900
 5342TIP3   OH215968   0.629   2.861   4.881
 5342TIP3    H115969   0.601   2.952   4.897
 5342TIP3    H215970   0.550   2.809   4.897
 5343TIP3   OH215971   1.226   5.333   2.601
 5343TIP3    H115972   1.171   5.307   2.528
 5343TIP3    H215973   1.238   5.253   2.652
 5344TIP3   OH215974   2.083   5.363   0.981
 5344TIP3    H115975   2.117   5.297   1.041
 5344TIP3    H215976   2.087   5.321   0.895
 5345TIP3   OH215977   4.288   7.724   4.409
 5345TIP3    H115978   4.220   7.778   4.371
 5345TIP3    H215979   4.247   7.684   4.486
 5346TIP3   OH215980   7.123   1.796   0.161
 5346TIP3    H115981   7.190   1.795   0.229
 5346TIP3    H215982   7.078   1.879   0.172
 5347TIP3   OH215983   0.660   6.673   2.889
 5347TIP3    H115984   0.738   6.621   2.906
 5347TIP3    H215985   0.693   6.762   2.875
 5348TIP3   OH215986   6.349   3.559   6.650
 5348TIP3    H115987   6.402   3.515   6.716
 5348TIP3    H215988   6.372   3.515   6.568
 5349TIP3   OH215989   5.317   2.024   3.655
 5349TIP3    H115990   5.306   2.110   3.614
 5349TIP3    H215991   5.397   2.031   3.706
 5350TIP3   OH215992   4.982   6.806   1.308
 5350TIP3    H115993   5.051   6.840   1.366
 5350TIP3    H215994   4.998   6.711   1.306
 5351TIP3   OH215995   7.584   2.872   3.612
 5351TIP3    H115996   7.502   2.914   3.587
 5351TIP3    H215997   7.559   2.788   3.649
 5352TIP3   OH215998   4.014   1.213   1.937
 5352TIP3    H115999   3.923   1.228   1.964
 5352TIP3    H216000   4.051   1.301   1.927
 5353TIP3   OH216001   7.587   3.903   0.242
 5353TIP3    H116002   7.541   3.934   0.163
 5353TIP3    H216003   7.680   3.916   0.222
 5354TIP3   OH216004   3.934   5.672   1.358
 5354TIP3    H116005   3.966   5.598   1.409
 5354TIP3    H216006   4.009   5.698   1.304
 5355TIP3   OH216007   4.033   5.338   0.281
 5355TIP3    H116008   3.947   5.331   0.239
 5355TIP3    H216009   4.014   5.340   0.374
 5356TIP3   OH216010   7.005   1.866   0.515
 5356TIP3    H116011   7.032   1.863   0.606
 5356TIP3    H216012   7.087   1.876   0.466
 5357TIP3   OH216013   1.522   4.464   0.560
 5357TIP3    H116014   1.515   4.445   0.654
 5357TIP3    H216015   1.593   4.408   0.530
 5358TIP3   OH216016   4.207   6.005   3.306
 5358TIP3    H116017   4.151   5.946   3.256
 5358TIP3    H216018   4.146   6.067   3.347
 5359TIP3   OH216019   0.372   4.934   4.876
 5359TIP3    H116020   0.367   4.900   4.787
 5359TIP3    H216021   0.292   4.903   4.919
 5360TIP3   OH216022   0.349   6.717   2.581
 5360TIP3    H116023   0.365   6.770   2.659
 5360TIP3    H216024   0.310   6.777   2.518
 5361TIP3   OH216025   2.697   1.783   1.502
 5361TIP3    H116026   2.667   1.757   1.589
 5361TIP3    H216027   2.683   1.878   1.499
 5362TIP3   OH216028   2.418   7.335   0.991
 5362TIP3    H116029   2.337   7.311   1.035
 5362TIP3    H216030   2.408   7.302   0.901
 5363TIP3   OH216031   5.752   2.213   0.924
 5363TIP3    H116032   5.739   2.267   0.846
 5363TIP3    H216033   5.744   2.123   0.893
 5364TIP3   OH216034   3.384   7.064   2.762
 5364TIP3    H116035   3.388   7.009   2.840
 5364TIP3    H216036   3.442   7.021   2.699
 5365TIP3   OH216037   1.478   0.418   5.505
 5365TIP3    H116038   1.509   0.480   5.572
 5365TIP3    H216039   1.546   0.418   5.438
 5366TIP3   OH216040   7.889   6.648   3.342
 5366TIP3    H116041   7.957   6.581   3.349
 5366TIP3    H216042   7.937   6.731   3.341
 5367TIP3   OH216043   8.197   0.863   6.203
 5367TIP3    H116044   8.234   0.891   6.286
 5367TIP3    H216045   8.125   0.804   6.226
 5368TIP3   OH216046   2.847   0.756   0.716
 5368TIP3    H116047   2.780   0.793   0.773
 5368TIP3    H216048   2.891   0.832   0.678
 5369TIP3   OH216049   6.547   1.489   0.919
 5369TIP3    H116050   6.513   1.579   0.925
 5369TIP3    H216051   6.473   1.439   0.884
 5370TIP3   OH216052   6.200   0.508   1.655
 5370TIP3    H116053   6.190   0.427   1.705
 5370TIP3    H216054   6.111   0.532   1.629
 5371TIP3   OH216055   5.438   1.912   5.914
 5371TIP3    H116056   5.362   1.879   5.963
 5371TIP3    H216057   5.470   1.836   5.866
 5372TIP3   OH216058   2.881   2.189   6.487
 5372TIP3    H116059   2.931   2.113   6.458
 5372TIP3    H216060   2.938   2.263   6.471
 5373TIP3   OH216061   0.104   0.544   3.632
 5373TIP3    H116062   0.061   0.627   3.654
 5373TIP3    H216063   0.117   0.549   3.538
 5374TIP3   OH216064   6.768   0.540   1.791
 5374TIP3    H116065   6.792   0.546   1.883
 5374TIP3    H216066   6.672   0.533   1.792
 5375TIP3   OH216067   6.869   1.695   6.492
 5375TIP3    H116068   6.803   1.694   6.423
 5375TIP3    H216069   6.891   1.788   6.503
 5376TIP3   OH216070   2.325   4.448   5.463
 5376TIP3    H116071   2.345   4.519   5.524
 5376TIP3    H216072   2.271   4.388   5.514
 5377TIP3   OH216073   3.271   2.364   2.905
 5377TIP3    H116074   3.344   2.393   2.850
 5377TIP3    H216075   3.194   2.406   2.866
 5378TIP3   OH216076   1.991   2.388   2.532
 5378TIP3    H116077   1.912   2.440   2.544
 5378TIP3    H216078   2.058   2.435   2.582
 5379TIP3   OH216079   1.520   6.036   5.306
 5379TIP3    H116080   1.542   6.110   5.249
 5379TIP3    H216081   1.534   6.070   5.395
 5380TIP3   OH216082   5.213   5.330   1.292
 5380TIP3    H116083   5.232   5.323   1.199
 5380TIP3    H216084   5.171   5.416   1.302
 5381TIP3   OH216085   2.913   7.530   1.924
 5381TIP3    H116086   2.962   7.450   1.940
 5381TIP3    H216087   2.962   7.575   1.854
 5382TIP3   OH216088   2.141   3.706   2.815
 5382TIP3    H116089   2.213   3.646   2.837
 5382TIP3    H216090   2.184   3.791   2.803
 5383TIP3   OH216091   6.316   1.485   2.721
 5383TIP3    H116092   6.326   1.530   2.637
 5383TIP3    H216093   6.367   1.405   2.711
 5384TIP3   OH216094   7.753   2.914   4.402
 5384TIP3    H116095   7.714   2.925   4.489
 5384TIP3    H216096   7.847   2.916   4.418
 5385TIP3   OH216097   5.490   2.877   1.163
 5385TIP3    H116098   5.542   2.941   1.114
 5385TIP3    H216099   5.459   2.816   1.096
 5386TIP3   OH216100   0.142   5.105   4.986
 5386TIP3    H116101   0.168   5.174   5.047
 5386TIP3    H216102   0.146   5.025   5.039
 5387TIP3   OH216103   3.162   0.754   1.628
 5387TIP3    H116104   3.112   0.748   1.709
 5387TIP3    H216105   3.099   0.786   1.563
 5388TIP3   OH216106   2.149   7.183   1.032
 5388TIP3    H116107   2.075   7.237   1.061
 5388TIP3    H216108   2.139   7.176   0.937
 5389TIP3   OH216109   7.987   0.304   1.978
 5389TIP3    H116110   7.948   0.227   1.938
 5389TIP3    H216111   8.069   0.317   1.931
 5390TIP3   OH216112   3.225   5.986   1.415
 5390TIP3    H116113   3.198   5.955   1.329
 5390TIP3    H216114   3.255   5.908   1.461
 5391TIP3   OH216115   2.983   0.401   6.298
 5391TIP3    H116116   3.061   0.434   6.253
 5391TIP3    H216117   2.910   0.428   6.242
 5392TIP3   OH216118   5.264   4.726   6.664
 5392TIP3    H116119   5.305   4.640   6.656
 5392TIP3    H216120   5.218   4.723   6.748
 5393TIP3   OH216121   3.221   3.093   3.083
 5393TIP3    H116122   3.180   3.017   3.124
 5393TIP3    H216123   3.311   3.093   3.116
 5394TIP3   OH216124   7.006   2.740   2.929
 5394TIP3    H116125   6.948   2.678   2.974
 5394TIP3    H216126   7.014   2.705   2.840
 5395TIP3   OH216127   0.529   2.896   3.870
 5395TIP3    H116128   0.606   2.950   3.890
 5395TIP3    H216129   0.463   2.925   3.934
 5396TIP3   OH216130   0.582   0.567   1.707
 5396TIP3    H116131   0.529   0.646   1.709
 5396TIP3    H216132   0.671   0.596   1.727
 5397TIP3   OH216133   1.228   2.739   2.425
 5397TIP3    H116134   1.287   2.671   2.457
 5397TIP3    H216135   1.287   2.805   2.387
 5398TIP3   OH216136   1.922   2.698   6.453
 5398TIP3    H116137   1.849   2.713   6.392
 5398TIP3    H216138   1.997   2.681   6.397
 5399TIP3   OH216139   2.683   3.451   5.943
 5399TIP3    H116140   2.627   3.524   5.970
 5399TIP3    H216141   2.766   3.491   5.919
 5400TIP3   OH216142   3.191   7.540   2.902
 5400TIP3    H116143   3.239   7.479   2.958
 5400TIP3    H216144   3.104   7.545   2.941
 5401TIP3   OH216145   4.962   2.806   5.068
 5401TIP3    H116146   4.961   2.901   5.072
 5401TIP3    H216147   4.889   2.784   5.009
 5402TIP3   OH216148   1.157   3.190   2.085
 5402TIP3    H116149   1.121   3.276   2.063
 5402TIP3    H216150   1.231   3.179   2.025
 5403TIP3   OH216151   3.111   0.693   4.193
 5403TIP3    H116152   3.045   0.679   4.125
 5403TIP3    H216153   3.187   0.643   4.163
 5404TIP3   OH216154   6.002   2.717   3.332
 5404TIP3    H116155   6.092   2.707   3.299
 5404TIP3    H216156   5.948   2.719   3.254
 5405TIP3   OH216157   2.288   2.315   1.290
 5405TIP3    H116158   2.237   2.348   1.216
 5405TIP3    H216159   2.360   2.265   1.250
 5406TIP3   OH216160   2.583   7.610   3.422
 5406TIP3    H116161   2.541   7.672   3.482
 5406TIP3    H216162   2.608   7.536   3.477
 5407TIP3   OH216163   2.881   6.427   0.501
 5407TIP3    H116164   2.936   6.425   0.580
 5407TIP3    H216165   2.808   6.369   0.522
 5408TIP3   OH216166   0.937   6.688   4.424
 5408TIP3    H116167   0.948   6.726   4.337
 5408TIP3    H216168   0.957   6.759   4.484
 5409TIP3   OH216169   5.682   0.787   5.075
 5409TIP3    H116170   5.616   0.723   5.049
 5409TIP3    H216171   5.739   0.795   4.999
 5410TIP3   OH216172   6.968   3.792   4.908
 5410TIP3    H116173   7.051   3.782   4.954
 5410TIP3    H216174   6.923   3.708   4.920
 5411TIP3   OH216175   1.043   6.296   2.914
 5411TIP3    H116176   1.046   6.200   2.921
 5411TIP3    H216177   1.101   6.316   2.840
 5412TIP3   OH216178   0.766   2.785   1.875
 5412TIP3    H116179   0.692   2.750   1.825
 5412TIP3    H216180   0.842   2.773   1.818
 5413TIP3   OH216181   7.578   3.467   1.877
 5413TIP3    H116182   7.656   3.424   1.841
 5413TIP3    H216183   7.572   3.550   1.830
 5414TIP3   OH216184   1.307   6.540   5.759
 5414TIP3    H116185   1.234   6.582   5.805
 5414TIP3    H216186   1.384   6.564   5.810
 5415TIP3   OH216187   7.739   5.209   1.013
 5415TIP3    H116188   7.720   5.292   0.969
 5415TIP3    H216189   7.813   5.173   0.964
 5416TIP3   OH216190   1.836   4.923   4.785
 5416TIP3    H116191   1.752   4.963   4.762
 5416TIP3    H216192   1.822   4.885   4.872
 5417TIP3   OH216193   7.400   1.688   4.387
 5417TIP3    H116194   7.428   1.688   4.479
 5417TIP3    H216195   7.341   1.613   4.380
 5418TIP3   OH216196   2.354   7.625   3.246
 5418TIP3    H116197   2.438   7.643   3.289
 5418TIP3    H216198   2.289   7.633   3.315
 5419TIP3   OH216199   2.497   3.206   2.787
 5419TIP3    H116200   2.437   3.235   2.717
 5419TIP3    H216201   2.440   3.194   2.863
 5420TIP3   OH216202   1.425   1.764   2.605
 5420TIP3    H116203   1.452   1.818   2.530
 5420TIP3    H216204   1.507   1.744   2.651
 5421TIP3   OH216205   7.584   2.734   4.923
 5421TIP3    H116206   7.601   2.720   4.830
 5421TIP3    H216207   7.495   2.701   4.936
 5422TIP3   OH216208   5.948   4.608   5.865
 5422TIP3    H116209   5.944   4.597   5.770
 5422TIP3    H216210   6.023   4.555   5.891
 5423TIP3   OH216211   7.032   6.760   4.663
 5423TIP3    H116212   6.958   6.740   4.720
 5423TIP3    H216213   7.030   6.691   4.596
 5424TIP3   OH216214   6.904   7.174   0.646
 5424TIP3    H116215   6.841   7.235   0.683
 5424TIP3    H216216   6.860   7.136   0.570
 5425TIP3   OH216217   3.666   5.168   5.005
 5425TIP3    H116218   3.640   5.081   5.036
 5425TIP3    H216219   3.675   5.220   5.085
 5426TIP3   OH216220   8.257   4.296   3.854
 5426TIP3    H116221   8.283   4.207   3.831
 5426TIP3    H216222   8.163   4.290   3.872
 5427TIP3   OH216223   7.028   0.679   1.328
 5427TIP3    H116224   7.071   0.764   1.314
 5427TIP3    H216225   6.935   0.700   1.338
 5428TIP3   OH216226   4.486   2.636   2.006
 5428TIP3    H116227   4.416   2.579   1.976
 5428TIP3    H216228   4.444   2.721   2.021
 5429TIP3   OH216229   4.685   6.730   3.492
 5429TIP3    H116230   4.769   6.740   3.446
 5429TIP3    H216231   4.651   6.819   3.498
 5430TIP3   OH216232   1.578   2.352   0.367
 5430TIP3    H116233   1.656   2.359   0.311
 5430TIP3    H216234   1.597   2.279   0.425
 5431TIP3   OH216235   3.386   5.582   2.999
 5431TIP3    H116236   3.309   5.638   3.012
 5431TIP3    H216237   3.446   5.636   2.948
 5432TIP3   OH216238   4.615   2.529   0.203
 5432TIP3    H116239   4.654   2.442   0.202
 5432TIP3    H216240   4.638   2.564   0.289
 5433TIP3   OH216241   0.955   1.615   2.965
 5433TIP3    H116242   1.004   1.552   2.912
 5433TIP3    H216243   1.017   1.641   3.034
 5434TIP3   OH216244   1.281   7.453   3.632
 5434TIP3    H116245   1.273   7.537   3.677
 5434TIP3    H216246   1.362   7.415   3.668
 5435TIP3   OH216247   2.393   4.591   3.833
 5435TIP3    H116248   2.313   4.549   3.863
 5435TIP3    H216249   2.388   4.680   3.866
 5436TIP3   OH216250   3.325   6.540   0.312
 5436TIP3    H116251   3.260   6.471   0.297
 5436TIP3    H216252   3.345   6.573   0.224
 5437TIP3   OH216253   2.382   6.620   0.092
 5437TIP3    H116254   2.307   6.578   0.134
 5437TIP3    H216255   2.365   6.612  -0.002
 5438TIP3   OH216256   4.284   3.989   2.653
 5438TIP3    H116257   4.262   3.912   2.704
 5438TIP3    H216258   4.362   4.025   2.695
 5439TIP3   OH216259   7.349   3.608   3.176
 5439TIP3    H116260   7.368   3.614   3.083
 5439TIP3    H216261   7.372   3.518   3.200
 5440TIP3   OH216262   5.281   5.752   1.919
 5440TIP3    H116263   5.270   5.685   1.851
 5440TIP3    H216264   5.196   5.756   1.962
 5441TIP3   OH216265   2.850   2.544   2.367
 5441TIP3    H116266   2.847   2.610   2.297
 5441TIP3    H216267   2.799   2.471   2.333
 5442TIP3   OH216268   4.734   2.040   4.362
 5442TIP3    H116269   4.682   1.974   4.316
 5442TIP3    H216270   4.703   2.037   4.452
 5443TIP3   OH216271   2.781   5.341   3.538
 5443TIP3    H116272   2.751   5.252   3.560
 5443TIP3    H216273   2.825   5.372   3.616
 5444TIP3   OH216274   2.570   5.973   5.627
 5444TIP3    H116275   2.640   5.919   5.663
 5444TIP3    H216276   2.579   5.963   5.532
 5445TIP3   OH216277   0.192   4.096   3.154
 5445TIP3    H116278   0.147   4.163   3.205
 5445TIP3    H216279   0.263   4.143   3.110
 5446TIP3   OH216280   1.835   5.414   4.784
 5446TIP3    H116281   1.913   5.455   4.821
 5446TIP3    H216282   1.850   5.320   4.792
 5447TIP3   OH216283   4.447   4.188   2.370
 5447TIP3    H116284   4.500   4.124   2.417
 5447TIP3    H216285   4.404   4.137   2.301
 5448TIP3   OH216286   5.473   1.672   3.277
 5448TIP3    H116287   5.438   1.614   3.344
 5448TIP3    H216288   5.406   1.739   3.265
 5449TIP3   OH216289   0.570   7.269   5.363
 5449TIP3    H116290   0.536   7.239   5.447
 5449TIP3    H216291   0.582   7.189   5.311
 5450TIP3   OH216292   0.300   7.515   2.709
 5450TIP3    H116293   0.347   7.433   2.691
 5450TIP3    H216294   0.365   7.573   2.748
 5451TIP3   OH216295   7.272   0.761   3.962
 5451TIP3    H116296   7.296   0.850   3.936
 5451TIP3    H216297   7.344   0.732   4.018
 5452TIP3   OH216298   0.752   2.613   2.119
 5452TIP3    H116299   0.790   2.693   2.084
 5452TIP3    H216300   0.711   2.570   2.044
 5453TIP3   OH216301   7.364   2.192   3.602
 5453TIP3    H116302   7.425   2.210   3.531
 5453TIP3    H216303   7.366   2.096   3.611
 5454TIP3   OH216304   0.765   3.785   6.288
 5454TIP3    H116305   0.736   3.816   6.203
 5454TIP3    H216306   0.843   3.837   6.307
 5455TIP3   OH216307   4.170   1.763   4.394
 5455TIP3    H116308   4.125   1.683   4.420
 5455TIP3    H216309   4.107   1.833   4.412
 5456TIP3   OH216310   1.497   1.016   4.163
 5456TIP3    H116311   1.473   0.974   4.245
 5456TIP3    H216312   1.487   1.110   4.180
 5457TIP3   OH216313   6.429   5.865   0.496
 5457TIP3    H116314   6.508   5.816   0.474
 5457TIP3    H216315   6.457   5.927   0.563
 5458TIP3   OH216316   0.129   2.282   3.513
 5458TIP3    H116317   0.051   2.239   3.548
 5458TIP3    H216318   0.133   2.366   3.560
 5459TIP3   OH216319   4.807   6.385   1.080
 5459TIP3    H116320   4.775   6.454   1.023
 5459TIP3    H216321   4.763   6.400   1.163
 5460TIP3   OH216322   4.061   4.054   4.459
 5460TIP3    H116323   4.117   4.109   4.513
 5460TIP3    H216324   3.984   4.108   4.441
 5461TIP3   OH216325   2.267   3.332   4.143
 5461TIP3    H116326   2.281   3.401   4.079
 5461TIP3    H216327   2.333   3.347   4.210
 5462TIP3   OH216328   1.280   7.044   6.705
 5462TIP3    H116329   1.233   7.072   6.783
 5462TIP3    H216330   1.346   7.112   6.691
 5463TIP3   OH216331   6.920   6.269   4.132
 5463TIP3    H116332   6.862   6.235   4.200
 5463TIP3    H216333   6.966   6.192   4.099
 5464TIP3   OH216334   7.572   0.949   3.381
 5464TIP3    H116335   7.595   0.915   3.294
 5464TIP3    H216336   7.644   0.921   3.437
 5465TIP3   OH216337   4.857   6.635   4.411
 5465TIP3    H116338   4.897   6.548   4.419
 5465TIP3    H216339   4.770   6.624   4.449
 5466TIP3   OH216340   2.089   7.222   5.505
 5466TIP3    H116341   2.101   7.311   5.472
 5466TIP3    H216342   2.081   7.169   5.426
 5467TIP3   OH216343   6.488   7.530   3.968
 5467TIP3    H116344   6.487   7.587   4.045
 5467TIP3    H216345   6.396   7.506   3.955
 5468TIP3   OH216346   0.022   6.754   2.259
 5468TIP3    H116347  -0.055   6.705   2.231
 5468TIP3    H216348   0.003   6.844   2.234
 5469TIP3   OH216349   6.384   1.243   2.629
 5469TIP3    H116350   6.334   1.183   2.574
 5469TIP3    H216351   6.396   1.195   2.711
 5470TIP3   OH216352   7.273   6.951   3.939
 5470TIP3    H116353   7.321   6.925   4.017
 5470TIP3    H216354   7.244   7.041   3.957
 5471TIP3   OH216355   5.489   3.239   2.290
 5471TIP3    H116356   5.455   3.322   2.258
 5471TIP3    H216357   5.564   3.263   2.345
 5472TIP3   OH216358   3.504   0.712   5.865
 5472TIP3    H116359   3.464   0.796   5.841
 5472TIP3    H216360   3.576   0.736   5.923
 5473TIP3   OH216361   1.969   7.465   3.142
 5473TIP3    H116362   1.890   7.447   3.193
 5473TIP3    H216363   2.008   7.379   3.127
 5474TIP3   OH216364   4.968   1.201   6.060
 5474TIP3    H116365   4.964   1.144   5.983
 5474TIP3    H216366   4.994   1.286   6.024
 5475TIP3   OH216367   7.523   2.009   4.398
 5475TIP3    H116368   7.576   1.938   4.362
 5475TIP3    H216369   7.472   1.967   4.467
 5476TIP3   OH216370   4.014   6.980   2.786
 5476TIP3    H116371   4.015   7.067   2.826
 5476TIP3    H216372   4.094   6.976   2.735
 5477TIP3   OH216373   0.435   3.005   4.109
 5477TIP3    H116374   0.354   3.039   4.147
 5477TIP3    H216375   0.480   2.963   4.182
 5478TIP3   OH216376   5.088   2.737   1.160
 5478TIP3    H116377   5.154   2.721   1.227
 5478TIP3    H216378   5.127   2.804   1.104
 5479TIP3   OH216379   1.883   0.389   2.235
 5479TIP3    H116380   1.956   0.451   2.233
 5479TIP3    H216381   1.917   0.314   2.284
 5480TIP3   OH216382   3.105   0.221   5.649
 5480TIP3    H116383   3.192   0.183   5.660
 5480TIP3    H216384   3.122   0.315   5.637
 5481TIP3   OH216385   7.067   2.876   3.169
 5481TIP3    H116386   7.060   2.836   3.082
 5481TIP3    H216387   6.979   2.868   3.205
 5482TIP3   OH216388   0.941   7.156   2.692
 5482TIP3    H116389   0.879   7.143   2.621
 5482TIP3    H216390   0.931   7.078   2.748
 5483TIP3   OH216391   6.447   4.612   5.835
 5483TIP3    H116392   6.466   4.679   5.901
 5483TIP3    H216393   6.517   4.548   5.845
 5484TIP3   OH216394   5.627   6.903   4.879
 5484TIP3    H116395   5.603   6.929   4.790
 5484TIP3    H216396   5.715   6.867   4.870
 5485TIP3   OH216397   7.016   5.707   5.840
 5485TIP3    H116398   7.015   5.795   5.877
 5485TIP3    H216399   6.966   5.654   5.902
 5486TIP3   OH216400   5.766   0.552   3.229
 5486TIP3    H116401   5.850   0.515   3.255
 5486TIP3    H216402   5.746   0.510   3.146
 5487TIP3   OH216403   0.785   6.106   1.332
 5487TIP3    H116404   0.695   6.084   1.357
 5487TIP3    H216405   0.836   6.089   1.411
 5488TIP3   OH216406   4.684   7.665   2.806
 5488TIP3    H116407   4.640   7.595   2.854
 5488TIP3    H216408   4.671   7.743   2.860
 5489TIP3   OH216409   5.131   0.955   3.010
 5489TIP3    H116410   5.175   0.925   2.930
 5489TIP3    H216411   5.056   0.896   3.020
 5490TIP3   OH216412   7.774   6.793   4.169
 5490TIP3    H116413   7.797   6.749   4.087
 5490TIP3    H216414   7.710   6.734   4.210
 5491TIP3   OH216415   2.684   5.946   1.609
 5491TIP3    H116416   2.701   6.005   1.536
 5491TIP3    H216417   2.667   6.005   1.683
 5492TIP3   OH216418   2.845   7.446   1.627
 5492TIP3    H116419   2.927   7.486   1.655
 5492TIP3    H216420   2.793   7.519   1.593
 5493TIP3   OH216421   4.333   2.839   1.364
 5493TIP3    H116422   4.265   2.881   1.311
 5493TIP3    H216423   4.388   2.794   1.300
 5494TIP3   OH216424   3.041   7.253   6.763
 5494TIP3    H116425   3.044   7.340   6.803
 5494TIP3    H216426   3.066   7.267   6.672
 5495TIP3   OH216427   4.976   2.064   5.175
 5495TIP3    H116428   4.934   2.106   5.100
 5495TIP3    H216429   4.917   2.081   5.248
 5496TIP3   OH216430   1.917   6.759   6.094
 5496TIP3    H116431   1.916   6.714   6.179
 5496TIP3    H216432   2.009   6.781   6.080
 5497TIP3   OH216433   6.283   4.672   4.403
 5497TIP3    H116434   6.254   4.608   4.467
 5497TIP3    H216435   6.309   4.749   4.454
 5498TIP3   OH216436   0.333   4.665   5.344
 5498TIP3    H116437   0.331   4.570   5.330
 5498TIP3    H216438   0.425   4.687   5.352
 5499TIP3   OH216439   6.514   6.572   6.070
 5499TIP3    H116440   6.462   6.621   6.133
 5499TIP3    H216441   6.530   6.488   6.112
 5500TIP3   OH216442   2.839   1.496   0.427
 5500TIP3    H116443   2.889   1.417   0.406
 5500TIP3    H216444   2.750   1.465   0.440
 5501TIP3   OH216445   4.064   0.560   6.624
 5501TIP3    H116446   4.017   0.604   6.695
 5501TIP3    H216447   4.092   0.477   6.662
 5502TIP3   OH216448   4.839   3.281   0.143
 5502TIP3    H116449   4.933   3.293   0.156
 5502TIP3    H216450   4.801   3.291   0.231
 5503TIP3   OH216451   5.111   1.665   0.754
 5503TIP3    H116452   5.034   1.611   0.771
 5503TIP3    H216453   5.120   1.720   0.832
 5504TIP3   OH216454   2.744   7.037   2.458
 5504TIP3    H116455   2.765   7.130   2.469
 5504TIP3    H216456   2.670   7.036   2.397
 5505TIP3   OH216457   7.527   6.156   0.972
 5505TIP3    H116458   7.542   6.076   1.023
 5505TIP3    H216459   7.557   6.227   1.030
 5506TIP3   OH216460   4.239   7.180   6.683
 5506TIP3    H116461   4.173   7.176   6.751
 5506TIP3    H216462   4.201   7.132   6.609
 5507TIP3   OH216463   3.523   0.900   3.339
 5507TIP3    H116464   3.604   0.866   3.300
 5507TIP3    H216465   3.551   0.978   3.387
 5508TIP3   OH216466   5.984   7.730   5.245
 5508TIP3    H116467   5.912   7.791   5.230
 5508TIP3    H216468   6.040   7.775   5.309
 5509TIP3   OH216469   3.233   4.274   6.241
 5509TIP3    H116470   3.306   4.321   6.201
 5509TIP3    H216471   3.164   4.276   6.175
 5510TIP3   OH216472   0.525   6.428   0.543
 5510TIP3    H116473   0.431   6.442   0.555
 5510TIP3    H216474   0.550   6.371   0.615
 5511TIP3   OH216475   7.889   0.954   3.199
 5511TIP3    H116476   7.974   0.977   3.162
 5511TIP3    H216477   7.908   0.929   3.290
 5512TIP3   OH216478   7.136   0.036   4.848
 5512TIP3    H116479   7.155   0.126   4.873
 5512TIP3    H216480   7.170  -0.018   4.919
 5513TIP3   OH216481   8.158   1.632   4.865
 5513TIP3    H116482   8.234   1.575   4.872
 5513TIP3    H216483   8.185   1.714   4.906
 5514TIP3   OH216484   1.703   4.577   6.169
 5514TIP3    H116485   1.658   4.519   6.108
 5514TIP3    H216486   1.796   4.559   6.155
 5515TIP3   OH216487   5.523   1.948   4.705
 5515TIP3    H116488   5.561   1.899   4.632
 5515TIP3    H216489   5.450   1.895   4.735
 5516TIP3   OH216490   1.969   3.462   1.186
 5516TIP3    H116491   1.987   3.407   1.263
 5516TIP3    H216492   2.054   3.470   1.143
 5517TIP3   OH216493   0.060   0.107   5.491
 5517TIP3    H116494   0.029   0.136   5.406
 5517TIP3    H216495   0.055   0.185   5.547
 5518TIP3   OH216496   6.727   0.062   0.185
 5518TIP3    H116497   6.799   0.123   0.169
 5518TIP3    H216498   6.649   0.117   0.191
 5519TIP3   OH216499   1.161   4.300   5.046
 5519TIP3    H116500   1.077   4.343   5.035
 5519TIP3    H216501   1.210   4.323   4.966
 5520TIP3   OH216502   1.620   7.438   5.850
 5520TIP3    H116503   1.573   7.520   5.858
 5520TIP3    H216504   1.633   7.427   5.755
 5521TIP3   OH216505   6.618   1.610   5.470
 5521TIP3    H116506   6.541   1.565   5.436
 5521TIP3    H216507   6.595   1.703   5.463
 5522TIP3   OH216508   0.497   4.127   5.785
 5522TIP3    H116509   0.553   4.159   5.856
 5522TIP3    H216510   0.554   4.127   5.708
 5523TIP3   OH216511   1.417   7.602   4.977
 5523TIP3    H116512   1.349   7.638   5.034
 5523TIP3    H216513   1.457   7.532   5.029
 5524TIP3   OH216514   4.170   5.883   4.976
 5524TIP3    H116515   4.174   5.787   4.981
 5524TIP3    H216516   4.255   5.912   5.008
 5525TIP3   OH216517   0.105   5.361   6.303
 5525TIP3    H116518   0.022   5.394   6.337
 5525TIP3    H216519   0.154   5.439   6.278
 5526TIP3   OH216520   2.991   2.732   0.800
 5526TIP3    H116521   2.903   2.763   0.780
 5526TIP3    H216522   3.048   2.788   0.747
 5527TIP3   OH216523   5.317   0.445   2.517
 5527TIP3    H116524   5.389   0.499   2.484
 5527TIP3    H216525   5.348   0.355   2.505
 5528TIP3   OH216526   8.126   2.339   2.966
 5528TIP3    H116527   8.123   2.308   3.057
 5528TIP3    H216528   8.081   2.423   2.967
 5529TIP3   OH216529   5.391   6.611   4.685
 5529TIP3    H116530   5.400   6.667   4.762
 5529TIP3    H216531   5.360   6.527   4.720
 5530TIP3   OH216532   7.186   3.687   2.395
 5530TIP3    H116533   7.106   3.716   2.352
 5530TIP3    H216534   7.256   3.707   2.334
 5531TIP3   OH216535   4.082   5.243   6.063
 5531TIP3    H116536   4.040   5.297   6.129
 5531TIP3    H216537   4.112   5.306   5.996
 5532TIP3   OH216538   7.648   6.473   5.519
 5532TIP3    H116539   7.580   6.442   5.579
 5532TIP3    H216540   7.718   6.502   5.576
 5533TIP3   OH216541   3.831   1.987   4.157
 5533TIP3    H116542   3.743   2.007   4.188
 5533TIP3    H216543   3.846   2.049   4.086
 5534TIP3   OH216544   2.761   7.261   0.232
 5534TIP3    H116545   2.827   7.196   0.257
 5534TIP3    H216546   2.796   7.344   0.265
 5535TIP3   OH216547   8.083   5.303   6.478
 5535TIP3    H116548   8.105   5.254   6.399
 5535TIP3    H216549   8.100   5.395   6.455
 5536TIP3   OH216550   8.015   1.835   0.676
 5536TIP3    H116551   8.109   1.853   0.676
 5536TIP3    H216552   7.984   1.868   0.591
 5537TIP3   OH216553   2.527   0.394   3.903
 5537TIP3    H116554   2.505   0.310   3.864
 5537TIP3    H216555   2.465   0.456   3.865
 5538TIP3   OH216556   6.242   6.685   2.599
 5538TIP3    H116557   6.322   6.732   2.621
 5538TIP3    H216558   6.172   6.748   2.616
 5539TIP3   OH216559   5.304   1.297   3.190
 5539TIP3    H116560   5.229   1.345   3.154
 5539TIP3    H216561   5.268   1.247   3.263
 5540TIP3   OH216562   2.075   0.224   2.370
 5540TIP3    H116563   2.144   0.157   2.371
 5540TIP3    H216564   2.116   0.300   2.329
 5541TIP3   OH216565   4.635   5.294   6.057
 5541TIP3    H116566   4.700   5.224   6.065
 5541TIP3    H216567   4.561   5.253   6.012
 5542TIP3   OH216568   0.886   5.993   0.422
 5542TIP3    H116569   0.891   5.915   0.367
 5542TIP3    H216570   0.817   5.974   0.485
 5543TIP3   OH216571   2.386   0.491   6.161
 5543TIP3    H116572   2.335   0.470   6.239
 5543TIP3    H216573   2.362   0.581   6.140
 5544TIP3   OH216574   7.375   4.412   1.452
 5544TIP3    H116575   7.283   4.385   1.452
 5544TIP3    H216576   7.378   4.487   1.512
 5545TIP3   OH216577   1.910   4.013   4.688
 5545TIP3    H116578   1.827   4.059   4.683
 5545TIP3    H216579   1.887   3.925   4.720
 5546TIP3   OH216580   2.355   1.931   3.443
 5546TIP3    H116581   2.439   1.978   3.443
 5546TIP3    H216582   2.378   1.840   3.459
 5547TIP3   OH216583   1.555   4.805   6.251
 5547TIP3    H116584   1.606   4.729   6.223
 5547TIP3    H216585   1.482   4.768   6.300
 5548TIP3   OH216586   1.020   4.257   6.046
 5548TIP3    H116587   1.067   4.279   5.965
 5548TIP3    H216588   0.938   4.218   6.017
 5549TIP3   OH216589   6.842   6.098   2.967
 5549TIP3    H116590   6.880   6.153   2.898
 5549TIP3    H216591   6.905   6.102   3.039
 5550TIP3   OH216592   3.796   0.026   3.587
 5550TIP3    H116593   3.723   0.080   3.617
 5550TIP3    H216594   3.856   0.087   3.545
 5551TIP3   OH216595   7.580   3.215   1.515
 5551TIP3    H116596   7.550   3.304   1.495
 5551TIP3    H216597   7.582   3.171   1.431
 5552TIP3   OH216598   5.041   1.156   5.027
 5552TIP3    H116599   5.093   1.173   5.106
 5552TIP3    H216600   5.106   1.150   4.957
 5553TIP3   OH216601   0.285   0.693   5.204
 5553TIP3    H116602   0.191   0.678   5.199
 5553TIP3    H216603   0.303   0.757   5.135
 5554TIP3   OH216604   8.122   1.849   6.709
 5554TIP3    H116605   8.033   1.835   6.740
 5554TIP3    H216606   8.165   1.764   6.719
 5555TIP3   OH216607   7.947   1.093   6.554
 5555TIP3    H116608   7.909   1.005   6.548
 5555TIP3    H216609   8.009   1.096   6.481
 5556TIP3   OH216610   5.357   3.119   0.813
 5556TIP3    H116611   5.393   3.189   0.868
 5556TIP3    H216612   5.325   3.054   0.875
 5557TIP3   OH216613   3.923   7.649   3.309
 5557TIP3    H116614   3.994   7.701   3.272
 5557TIP3    H216615   3.965   7.568   3.337
 5558TIP3   OH216616   4.666   7.391   2.431
 5558TIP3    H116617   4.731   7.426   2.370
 5558TIP3    H216618   4.586   7.382   2.380
 5559TIP3   OH216619   5.904   4.915   2.352
 5559TIP3    H116620   5.900   4.824   2.321
 5559TIP3    H216621   5.820   4.953   2.327
 5560TIP3   OH216622   4.897   7.382   2.302
 5560TIP3    H116623   4.942   7.304   2.270
 5560TIP3    H216624   4.912   7.448   2.235
 5561TIP3   OH216625   2.895   4.035   0.089
 5561TIP3    H116626   2.837   3.966   0.122
 5561TIP3    H216627   2.976   3.989   0.065
 5562TIP3   OH216628   7.069   4.721   2.501
 5562TIP3    H116629   7.065   4.746   2.409
 5562TIP3    H216630   7.002   4.774   2.544
 5563TIP3   OH216631   1.165   3.566   3.700
 5563TIP3    H116632   1.226   3.632   3.733
 5563TIP3    H216633   1.208   3.531   3.621
 5564TIP3   OH216634   1.671   1.445   2.166
 5564TIP3    H116635   1.637   1.362   2.198
 5564TIP3    H216636   1.695   1.494   2.244
 5565TIP3   OH216637   4.891   1.088   1.645
 5565TIP3    H116638   4.870   1.028   1.717
 5565TIP3    H216639   4.816   1.081   1.586
 5566TIP3   OH216640   7.514   5.524   2.064
 5566TIP3    H116641   7.510   5.523   2.159
 5566TIP3    H216642   7.438   5.575   2.037
 5567TIP3   OH216643   4.013   6.009   0.055
 5567TIP3    H116644   4.087   5.959   0.091
 5567TIP3    H216645   4.030   6.099   0.083
 5568TIP3   OH216646   7.443   4.853   5.202
 5568TIP3    H116647   7.504   4.875   5.132
 5568TIP3    H216648   7.412   4.765   5.180
 5569TIP3   OH216649   8.137   7.797   6.002
 5569TIP3    H116650   8.183   7.877   5.977
 5569TIP3    H216651   8.191   7.727   5.968
 5570TIP3   OH216652   6.567   3.730   2.907
 5570TIP3    H116653   6.644   3.752   2.855
 5570TIP3    H216654   6.537   3.814   2.943
 5571TIP3   OH216655   2.741   1.503   2.317
 5571TIP3    H116656   2.653   1.493   2.280
 5571TIP3    H216657   2.754   1.424   2.370
 5572TIP3   OH216658   4.222   0.883   1.071
 5572TIP3    H116659   4.165   0.959   1.062
 5572TIP3    H216660   4.183   0.817   1.013
 5573TIP3   OH216661   3.122   0.349   1.712
 5573TIP3    H116662   3.055   0.404   1.671
 5573TIP3    H216663   3.187   0.337   1.643
 5574TIP3   OH216664   5.439   1.364   0.530
 5574TIP3    H116665   5.505   1.380   0.463
 5574TIP3    H216666   5.356   1.368   0.482
 5575TIP3   OH216667   0.297   6.531   3.890
 5575TIP3    H116668   0.388   6.556   3.906
 5575TIP3    H216669   0.290   6.442   3.924
 5576TIP3   OH216670   5.426   6.064   5.605
 5576TIP3    H116671   5.446   6.039   5.695
 5576TIP3    H216672   5.495   6.126   5.581
 5577TIP3   OH216673   7.524   4.320   0.856
 5577TIP3    H116674   7.520   4.328   0.761
 5577TIP3    H216675   7.461   4.252   0.877
 5578TIP3   OH216676   7.905   2.877   0.722
 5578TIP3    H116677   7.913   2.823   0.800
 5578TIP3    H216678   7.989   2.923   0.715
 5579TIP3   OH216679   3.457   5.029   3.388
 5579TIP3    H116680   3.373   5.066   3.362
 5579TIP3    H216681   3.519   5.061   3.323
 5580TIP3   OH216682   1.514   2.097   2.798
 5580TIP3    H116683   1.474   2.121   2.881
 5580TIP3    H216684   1.594   2.049   2.823
 5581TIP3   OH216685   6.465   1.411   3.723
 5581TIP3    H116686   6.372   1.428   3.736
 5581TIP3    H216687   6.469   1.356   3.645
 5582TIP3   OH216688   5.112   2.326   5.908
 5582TIP3    H116689   5.047   2.381   5.864
 5582TIP3    H216690   5.060   2.256   5.948
 5583TIP3   OH216691   3.064   1.314   4.997
 5583TIP3    H116692   3.051   1.315   5.092
 5583TIP3    H216693   2.978   1.293   4.961
 5584TIP3   OH216694   2.293   2.223   2.186
 5584TIP3    H116695   2.215   2.227   2.242
 5584TIP3    H216696   2.310   2.314   2.161
 5585TIP3   OH216697   4.842   5.902   1.818
 5585TIP3    H116698   4.870   5.844   1.888
 5585TIP3    H216699   4.904   5.886   1.747
 5586TIP3   OH216700   5.692   0.100   4.670
 5586TIP3    H116701   5.695   0.015   4.626
 5586TIP3    H216702   5.702   0.164   4.600
 5587TIP3   OH216703   6.431   5.661   3.695
 5587TIP3    H116704   6.524   5.645   3.675
 5587TIP3    H216705   6.384   5.612   3.627
 5588TIP3   OH216706   1.357   1.589   5.780
 5588TIP3    H116707   1.296   1.651   5.819
 5588TIP3    H216708   1.441   1.608   5.823
 5589TIP3   OH216709   6.932   3.025   5.245
 5589TIP3    H116710   6.860   2.980   5.288
 5589TIP3    H216711   6.999   3.034   5.312
 5590TIP3   OH216712   4.426   3.610   3.075
 5590TIP3    H116713   4.491   3.626   3.006
 5590TIP3    H216714   4.353   3.667   3.051
 5591TIP3   OH216715   5.293   3.724   2.663
 5591TIP3    H116716   5.328   3.637   2.682
 5591TIP3    H216717   5.352   3.760   2.596
 5592TIP3   OH216718   0.666   5.500   2.823
 5592TIP3    H116719   0.712   5.493   2.740
 5592TIP3    H216720   0.640   5.411   2.844
 5593TIP3   OH216721   8.135   2.602   5.170
 5593TIP3    H116722   8.074   2.534   5.142
 5593TIP3    H216723   8.113   2.678   5.115
 5594TIP3   OH216724   7.703   2.822   3.158
 5594TIP3    H116725   7.698   2.771   3.077
 5594TIP3    H216726   7.652   2.771   3.221
 5595TIP3   OH216727   1.157   3.571   5.381
 5595TIP3    H116728   1.139   3.503   5.315
 5595TIP3    H216729   1.250   3.561   5.399
 5596TIP3   OH216730   5.759   2.000   4.114
 5596TIP3    H116731   5.710   2.076   4.081
 5596TIP3    H216732   5.732   1.928   4.057
 5597TIP3   OH216733   4.126   0.241   5.826
 5597TIP3    H116734   4.042   0.241   5.871
 5597TIP3    H216735   4.111   0.190   5.746
 5598TIP3   OH216736   3.157   4.953   3.607
 5598TIP3    H116737   3.168   5.048   3.600
 5598TIP3    H216738   3.064   4.942   3.627
 5599TIP3   OH216739   4.237   4.750   3.486
 5599TIP3    H116740   4.162   4.748   3.545
 5599TIP3    H216741   4.246   4.843   3.462
 5600TIP3   OH216742   3.964   4.803   4.822
 5600TIP3    H116743   3.901   4.737   4.796
 5600TIP3    H216744   3.947   4.877   4.764
 5601TIP3   OH216745   0.348   6.062   5.057
 5601TIP3    H116746   0.321   6.136   5.111
 5601TIP3    H216747   0.358   5.989   5.118
 5602TIP3   OH216748   0.757   1.492   1.774
 5602TIP3    H116749   0.729   1.407   1.808
 5602TIP3    H216750   0.683   1.521   1.720
 5603TIP3   OH216751   7.758   6.654   3.914
 5603TIP3    H116752   7.805   6.620   3.838
 5603TIP3    H216753   7.679   6.694   3.877
 5604TIP3   OH216754   6.719   0.723   2.733
 5604TIP3    H116755   6.709   0.629   2.742
 5604TIP3    H216756   6.796   0.734   2.677
 5605TIP3   OH216757   5.791   0.843   2.965
 5605TIP3    H116758   5.776   0.766   3.020
 5605TIP3    H216759   5.803   0.914   3.028
 5606TIP3   OH216760   5.100   2.707   2.567
 5606TIP3    H116761   5.176   2.688   2.622
 5606TIP3    H216762   5.136   2.748   2.489
 5607TIP3   OH216763   2.121   4.054   1.406
 5607TIP3    H116764   2.145   3.985   1.344
 5607TIP3    H216765   2.165   4.029   1.488
 5608TIP3   OH216766   2.935   2.434   1.494
 5608TIP3    H116767   2.978   2.518   1.480
 5608TIP3    H216768   2.953   2.413   1.586
 5609TIP3   OH216769   5.552   7.619   4.476
 5609TIP3    H116770   5.464   7.630   4.512
 5609TIP3    H216771   5.608   7.607   4.553
 5610TIP3   OH216772   3.853   4.868   1.179
 5610TIP3    H116773   3.768   4.912   1.172
 5610TIP3    H216774   3.916   4.931   1.143
 5611TIP3   OH216775   7.781   0.529   1.986
 5611TIP3    H116776   7.686   0.522   1.976
 5611TIP3    H216777   7.810   0.569   1.904
 5612TIP3   OH216778   3.703   5.337   6.696
 5612TIP3    H116779   3.700   5.253   6.741
 5612TIP3    H216780   3.632   5.388   6.734
 5613TIP3   OH216781   3.998   3.300   0.480
 5613TIP3    H116782   4.034   3.377   0.436
 5613TIP3    H216783   3.982   3.237   0.410
 5614TIP3   OH216784   4.870   7.538   1.462
 5614TIP3    H116785   4.833   7.626   1.454
 5614TIP3    H216786   4.827   7.489   1.392
 5615TIP3   OH216787   0.558   2.772   2.184
 5615TIP3    H116788   0.622   2.703   2.200
 5615TIP3    H216789   0.606   2.853   2.201
 5616TIP3   OH216790   2.656   4.631   6.132
 5616TIP3    H116791   2.677   4.656   6.042
 5616TIP3    H216792   2.616   4.544   6.124
 5617TIP3   OH216793   1.065   2.485   4.840
 5617TIP3    H116794   1.124   2.483   4.915
 5617TIP3    H216795   0.999   2.551   4.863
 5618TIP3   OH216796   7.048   7.176   0.962
 5618TIP3    H116797   7.004   7.116   1.023
 5618TIP3    H216798   7.014   7.151   0.876
 5619TIP3   OH216799   7.254   7.641   4.636
 5619TIP3    H116800   7.182   7.612   4.691
 5619TIP3    H216801   7.333   7.618   4.685
 5620TIP3   OH216802   3.187   5.692   3.487
 5620TIP3    H116803   3.188   5.767   3.427
 5620TIP3    H216804   3.120   5.634   3.451
 5621TIP3   OH216805   0.499   2.193   4.283
 5621TIP3    H116806   0.425   2.197   4.222
 5621TIP3    H216807   0.573   2.167   4.229
 5622TIP3   OH216808   7.671   1.008   0.455
 5622TIP3    H116809   7.718   1.016   0.538
 5622TIP3    H216810   7.722   1.059   0.393
 5623TIP3   OH216811   8.110   3.832   5.497
 5623TIP3    H116812   8.072   3.786   5.571
 5623TIP3    H216813   8.067   3.917   5.495
 5624TIP3   OH216814   4.573   5.358   2.259
 5624TIP3    H116815   4.613   5.441   2.236
 5624TIP3    H216816   4.647   5.296   2.261
 5625TIP3   OH216817   4.455   0.651   1.525
 5625TIP3    H116818   4.365   0.685   1.530
 5625TIP3    H216819   4.454   0.572   1.579
 5626TIP3   OH216820   4.358   3.495   1.429
 5626TIP3    H116821   4.292   3.426   1.420
 5626TIP3    H216822   4.349   3.525   1.520
 5627TIP3   OH216823   4.117   2.731   0.347
 5627TIP3    H116824   4.048   2.667   0.361
 5627TIP3    H216825   4.193   2.679   0.321
 5628TIP3   OH216826   6.786   2.441   1.438
 5628TIP3    H116827   6.820   2.478   1.357
 5628TIP3    H216828   6.852   2.378   1.465
 5629TIP3   OH216829  -0.005   4.389   3.079
 5629TIP3    H116830   0.050   4.467   3.094
 5629TIP3    H216831   0.027   4.354   2.996
 5630TIP3   OH216832   7.745   5.263   2.824
 5630TIP3    H116833   7.715   5.177   2.793
 5630TIP3    H216834   7.828   5.245   2.869
 5631TIP3   OH216835   0.766   3.833   3.870
 5631TIP3    H116836   0.851   3.841   3.826
 5631TIP3    H216837   0.713   3.781   3.809
 5632TIP3   OH216838   0.983   5.452   2.694
 5632TIP3    H116839   1.064   5.419   2.656
 5632TIP3    H216840   0.929   5.477   2.619
 5633TIP3   OH216841   6.145   2.925   4.751
 5633TIP3    H116842   6.059   2.882   4.748
 5633TIP3    H216843   6.168   2.938   4.659
 5634TIP3   OH216844   7.384   0.005   6.371
 5634TIP3    H116845   7.433  -0.052   6.310
 5634TIP3    H216846   7.442   0.080   6.384
 5635TIP3   OH216847   5.336   2.966   2.003
 5635TIP3    H116848   5.322   3.048   2.050
 5635TIP3    H216849   5.432   2.957   1.999
 5636TIP3   OH216850   2.732   1.944   4.074
 5636TIP3    H116851   2.740   1.927   4.167
 5636TIP3    H216852   2.643   1.978   4.063
 5637TIP3   OH216853   3.028   7.536   5.002
 5637TIP3    H116854   3.103   7.558   4.948
 5637TIP3    H216855   2.962   7.602   4.980
 5638TIP3   OH216856   4.210   1.381   0.380
 5638TIP3    H116857   4.128   1.397   0.427
 5638TIP3    H216858   4.185   1.325   0.307
 5639TIP3   OH216859   0.354   3.481   1.514
 5639TIP3    H116860   0.346   3.388   1.493
 5639TIP3    H216861   0.404   3.518   1.441
 5640TIP3   OH216862   1.793   5.050   0.630
 5640TIP3    H116863   1.706   5.086   0.643
 5640TIP3    H216864   1.842   5.120   0.587
 5641TIP3   OH216865   4.516   6.699  -0.021
 5641TIP3    H116866   4.503   6.792  -0.003
 5641TIP3    H216867   4.606   6.694  -0.055
 5642TIP3   OH216868   2.972   2.014   5.090
 5642TIP3    H116869   2.992   2.089   5.146
 5642TIP3    H216870   2.877   2.020   5.076
 5643TIP3   OH216871   3.172   5.105   2.747
 5643TIP3    H116872   3.239   5.041   2.772
 5643TIP3    H216873   3.209   5.190   2.771
 5644TIP3   OH216874   6.882   4.319   5.964
 5644TIP3    H116875   6.871   4.231   5.927
 5644TIP3    H216876   6.919   4.303   6.051
 5645TIP3   OH216877   0.115   0.479   4.419
 5645TIP3    H116878   0.160   0.428   4.351
 5645TIP3    H216879   0.099   0.565   4.379
 5646TIP3   OH216880   4.510   3.403   5.016
 5646TIP3    H116881   4.565   3.471   5.056
 5646TIP3    H216882   4.468   3.359   5.090
 5647TIP3   OH216883   1.800   6.221   2.826
 5647TIP3    H116884   1.796   6.135   2.866
 5647TIP3    H216885   1.804   6.203   2.732
 5648TIP3   OH216886   7.312   3.779   5.709
 5648TIP3    H116887   7.385   3.831   5.744
 5648TIP3    H216888   7.272   3.835   5.643
 5649TIP3   OH216889   4.677   7.758   1.415
 5649TIP3    H116890   4.638   7.828   1.362
 5649TIP3    H216891   4.603   7.706   1.445
 5650TIP3   OH216892   2.997   0.499   4.391
 5650TIP3    H116893   2.919   0.454   4.359
 5650TIP3    H216894   3.054   0.508   4.315
 5651TIP3   OH216895   1.560   7.382   5.127
 5651TIP3    H116896   1.630   7.317   5.133
 5651TIP3    H216897   1.574   7.440   5.202
 5652TIP3   OH216898   5.150   0.101   4.981
 5652TIP3    H116899   5.215   0.170   4.988
 5652TIP3    H216900   5.119   0.088   5.071
 5653TIP3   OH216901   4.513   0.864   1.906
 5653TIP3    H116902   4.541   0.779   1.938
 5653TIP3    H216903   4.574   0.884   1.835
 5654TIP3   OH216904   3.018   4.105   0.861
 5654TIP3    H116905   2.967   4.089   0.782
 5654TIP3    H216906   3.107   4.078   0.839
 5655TIP3   OH216907   8.071   2.013   2.199
 5655TIP3    H116908   8.116   1.935   2.230
 5655TIP3    H216909   8.138   2.065   2.155
 5656TIP3   OH216910   6.525   3.867   2.555
 5656TIP3    H116911   6.591   3.862   2.625
 5656TIP3    H216912   6.461   3.930   2.588
 5657TIP3   OH216913   3.214   6.384   6.412
 5657TIP3    H116914   3.290   6.439   6.429
 5657TIP3    H216915   3.140   6.445   6.405
 5658TIP3   OH216916   5.576   7.669   1.678
 5658TIP3    H116917   5.639   7.689   1.609
 5658TIP3    H216918   5.591   7.577   1.700
 5659TIP3   OH216919   1.935   1.738   3.306
 5659TIP3    H116920   1.839   1.738   3.311
 5659TIP3    H216921   1.957   1.820   3.263
 5660TIP3   OH216922   0.172   4.820   5.094
 5660TIP3    H116923   0.229   4.864   5.157
 5660TIP3    H216924   0.090   4.808   5.140
 5661TIP3   OH216925   6.231   4.540   4.699
 5661TIP3    H116926   6.190   4.571   4.779
 5661TIP3    H216927   6.169   4.478   4.661
 5662TIP3   OH216928   6.719   4.415   0.090
 5662TIP3    H116929   6.644   4.419   0.030
 5662TIP3    H216930   6.692   4.468   0.165
 5663TIP3   OH216931   5.995   0.106   2.304
 5663TIP3    H116932   6.048   0.185   2.319
 5663TIP3    H216933   5.923   0.113   2.366
 5664TIP3   OH216934   2.566   4.707   4.408
 5664TIP3    H116935   2.637   4.643   4.414
 5664TIP3    H216936   2.581   4.766   4.482
 5665TIP3   OH216937   6.139   1.620   4.541
 5665TIP3    H116938   6.163   1.543   4.592
 5665TIP3    H216939   6.205   1.625   4.472
 5666TIP3   OH216940   3.191   0.708   0.994
 5666TIP3    H116941   3.220   0.617   1.001
 5666TIP3    H216942   3.272   0.759   0.993
 5667TIP3   OH216943   7.789   4.798   6.474
 5667TIP3    H116944   7.858   4.796   6.539
 5667TIP3    H216945   7.762   4.706   6.465
 5668TIP3   OH216946   7.651   6.310   1.157
 5668TIP3    H116947   7.729   6.343   1.203
 5668TIP3    H216948   7.581   6.315   1.222
 5669TIP3   OH216949   7.411   1.069   0.488
 5669TIP3    H116950   7.430   1.104   0.575
 5669TIP3    H216951   7.496   1.037   0.457
 5670TIP3   OH216952   7.040   4.348   2.932
 5670TIP3    H116953   7.011   4.433   2.900
 5670TIP3    H216954   7.121   4.366   2.979
 5671TIP3   OH216955   3.016   5.405   4.254
 5671TIP3    H116956   3.111   5.417   4.259
 5671TIP3    H216957   3.004   5.310   4.244
 5672TIP3   OH216958   5.388   4.833   5.537
 5672TIP3    H116959   5.382   4.923   5.507
 5672TIP3    H216960   5.469   4.830   5.588
 5673TIP3   OH216961   7.137   7.476   2.125
 5673TIP3    H116962   7.151   7.556   2.175
 5673TIP3    H216963   7.225   7.444   2.106
 5674TIP3   OH216964   2.891   3.559   1.410
 5674TIP3    H116965   2.839   3.608   1.473
 5674TIP3    H216966   2.933   3.490   1.461
 5675TIP3   OH216967   4.775   6.626   0.938
 5675TIP3    H116968   4.758   6.659   0.849
 5675TIP3    H216969   4.861   6.584   0.931
 5676TIP3   OH216970   7.917   4.762   4.114
 5676TIP3    H116971   7.865   4.817   4.056
 5676TIP3    H216972   7.923   4.678   4.070
 5677TIP3   OH216973   3.604   1.127   3.468
 5677TIP3    H116974   3.697   1.136   3.487
 5677TIP3    H216975   3.566   1.095   3.550
 5678TIP3   OH216976   4.237   0.935   1.945
 5678TIP3    H116977   4.306   0.897   1.891
 5678TIP3    H216978   4.239   0.884   2.027
 5679TIP3   OH216979   4.689   7.607   6.214
 5679TIP3    H116980   4.597   7.590   6.236
 5679TIP3    H216981   4.686   7.668   6.141
 5680TIP3   OH216982   3.280   3.223   5.687
 5680TIP3    H116983   3.214   3.225   5.618
 5680TIP3    H216984   3.248   3.157   5.749
 5681TIP3   OH216985   6.539   5.684   4.930
 5681TIP3    H116986   6.555   5.606   4.984
 5681TIP3    H216987   6.535   5.756   4.992
 5682TIP3   OH216988   7.572   0.931   1.133
 5682TIP3    H116989   7.575   0.911   1.227
 5682TIP3    H216990   7.479   0.940   1.114
 5683TIP3   OH216991   0.517   5.319   6.237
 5683TIP3    H116992   0.609   5.294   6.237
 5683TIP3    H216993   0.513   5.396   6.293
 5684TIP3   OH216994   2.033   2.226   6.356
 5684TIP3    H116995   2.085   2.274   6.420
 5684TIP3    H216996   1.949   2.210   6.400
 5685TIP3   OH216997   3.425   5.714   2.251
 5685TIP3    H116998   3.463   5.792   2.211
 5685TIP3    H216999   3.498   5.652   2.256
 5686TIP3   OH217000   7.504   3.674   5.431
 5686TIP3    H117001   7.596   3.649   5.434
 5686TIP3    H217002   7.464   3.627   5.504
 5687TIP3   OH217003   4.297   3.174   6.615
 5687TIP3    H117004   4.379   3.224   6.614
 5687TIP3    H217005   4.308   3.108   6.547
 5688TIP3   OH217006   0.271   6.406   0.991
 5688TIP3    H117007   0.336   6.337   1.005
 5688TIP3    H217008   0.284   6.467   1.063
 5689TIP3   OH217009   7.628   6.681   1.187
 5689TIP3    H117010   7.572   6.758   1.177
 5689TIP3    H217011   7.635   6.644   1.099
 5690TIP3   OH217012   1.202   1.821   3.507
 5690TIP3    H117013   1.173   1.764   3.578
 5690TIP3    H217014   1.122   1.859   3.471
 5691TIP3   OH217015   2.213   0.831   3.362
 5691TIP3    H117016   2.164   0.847   3.442
 5691TIP3    H217017   2.286   0.892   3.366
 5692TIP3   OH217018   4.465   2.626   4.096
 5692TIP3    H117019   4.555   2.633   4.063
 5692TIP3    H217020   4.422   2.706   4.067
 5693TIP3   OH217021   1.098   4.572   6.406
 5693TIP3    H117022   1.128   4.518   6.478
 5693TIP3    H217023   1.124   4.525   6.327
 5694TIP3   OH217024   7.337   4.102   6.506
 5694TIP3    H117025   7.377   4.130   6.424
 5694TIP3    H217026   7.407   4.057   6.553
 5695TIP3   OH217027   6.357   1.617   1.596
 5695TIP3    H117028   6.447   1.620   1.563
 5695TIP3    H217029   6.348   1.529   1.633
 5696TIP3   OH217030   1.911   4.100   3.836
 5696TIP3    H117031   1.833   4.125   3.884
 5696TIP3    H217032   1.917   4.165   3.765
 5697TIP3   OH217033   0.488   4.394   3.506
 5697TIP3    H117034   0.410   4.447   3.491
 5697TIP3    H217035   0.539   4.404   3.425
 5698TIP3   OH217036   4.033   4.714   5.445
 5698TIP3    H117037   4.064   4.777   5.510
 5698TIP3    H217038   4.069   4.630   5.473
 5699TIP3   OH217039   1.477   0.915   3.322
 5699TIP3    H117040   1.438   0.828   3.308
 5699TIP3    H217041   1.537   0.903   3.395
 5700TIP3   OH217042   3.915   1.869   3.732
 5700TIP3    H117043   3.984   1.894   3.671
 5700TIP3    H217044   3.917   1.936   3.800
 5701TIP3   OH217045   1.547   4.036   2.780
 5701TIP3    H117046   1.535   3.991   2.863
 5701TIP3    H217047   1.459   4.042   2.743
 5702TIP3   OH217048   7.114   3.253   0.768
 5702TIP3    H117049   7.190   3.290   0.813
 5702TIP3    H217050   7.150   3.213   0.689
 5703TIP3   OH217051   1.304   4.405   0.278
 5703TIP3    H117052   1.381   4.379   0.228
 5703TIP3    H217053   1.298   4.339   0.348
 5704TIP3   OH217054   0.097   4.122   0.722
 5704TIP3    H117055   0.152   4.044   0.733
 5704TIP3    H217056   0.011   4.095   0.754
 5705TIP3   OH217057   8.145   1.717   0.177
 5705TIP3    H117058   8.230   1.704   0.219
 5705TIP3    H217059   8.099   1.634   0.190
 5706TIP3   OH217060   7.172   4.953   1.068
 5706TIP3    H117061   7.122   4.873   1.049
 5706TIP3    H217062   7.150   4.974   1.159
 5707TIP3   OH217063   5.657   3.487   4.457
 5707TIP3    H117064   5.726   3.486   4.390
 5707TIP3    H217065   5.597   3.555   4.427
 5708TIP3   OH217066   4.368   5.287   4.858
 5708TIP3    H117067   4.457   5.281   4.892
 5708TIP3    H217068   4.372   5.245   4.772
 5709TIP3   OH217069   7.461   1.326   6.556
 5709TIP3    H117070   7.503   1.401   6.513
 5709TIP3    H217071   7.529   1.259   6.559
 5710TIP3   OH217072   5.181   0.429   6.709
 5710TIP3    H117073   5.092   0.411   6.739
 5710TIP3    H217074   5.170   0.480   6.629
 5711TIP3   OH217075   4.963   3.547   1.538
 5711TIP3    H117076   5.002   3.628   1.504
 5711TIP3    H217077   5.033   3.506   1.589
 5712TIP3   OH217078   3.220   0.796   1.292
 5712TIP3    H117079   3.136   0.831   1.322
 5712TIP3    H217080   3.198   0.748   1.212
 5713TIP3   OH217081   1.534   7.550   5.356
 5713TIP3    H117082   1.589   7.629   5.348
 5713TIP3    H217083   1.468   7.574   5.421
 5714TIP3   OH217084   3.889   2.093   0.025
 5714TIP3    H117085   3.824   2.147  -0.020
 5714TIP3    H217086   3.846   2.009   0.038
 5715TIP3   OH217087   4.641   2.753   2.573
 5715TIP3    H117088   4.726   2.776   2.610
 5715TIP3    H217089   4.585   2.737   2.650
 5716TIP3   OH217090   4.806   0.486   6.528
 5716TIP3    H117091   4.874   0.548   6.552
 5716TIP3    H217092   4.784   0.441   6.610
 5717TIP3   OH217093   7.033   7.263   2.420
 5717TIP3    H117094   7.068   7.175   2.437
 5717TIP3    H217095   7.061   7.315   2.496
 5718TIP3   OH217096   7.715   4.091   4.765
 5718TIP3    H117097   7.750   4.028   4.829
 5718TIP3    H217098   7.687   4.037   4.691
 5719TIP3   OH217099   0.864   2.336   1.352
 5719TIP3    H117100   0.946   2.310   1.393
 5719TIP3    H217101   0.882   2.335   1.259
 5720TIP3   OH217102   6.435   3.168   4.025
 5720TIP3    H117103   6.431   3.227   3.950
 5720TIP3    H217104   6.359   3.111   4.016
 5721TIP3   OH217105   6.667   3.168   0.164
 5721TIP3    H117106   6.617   3.118   0.229
 5721TIP3    H217107   6.648   3.260   0.185
 5722TIP3   OH217108   5.120   6.100   0.781
 5722TIP3    H117109   5.064   6.026   0.803
 5722TIP3    H217110   5.170   6.117   0.861
 5723TIP3   OH217111   0.202   6.285   2.257
 5723TIP3    H117112   0.283   6.239   2.276
 5723TIP3    H217113   0.139   6.249   2.320
 5724TIP3   OH217114   2.008   6.931   0.386
 5724TIP3    H117115   2.096   6.900   0.361
 5724TIP3    H217116   1.961   6.938   0.303
 5725TIP3   OH217117   8.045   0.613   5.052
 5725TIP3    H117118   8.072   0.664   4.976
 5725TIP3    H217119   7.967   0.657   5.086
 5726TIP3   OH217120   3.233   6.341   2.188
 5726TIP3    H117121   3.240   6.411   2.123
 5726TIP3    H217122   3.150   6.299   2.169
 5727TIP3   OH217123   8.076   1.206   0.027
 5727TIP3    H117124   8.125   1.147   0.085
 5727TIP3    H217125   8.110   1.188  -0.060
 5728TIP3   OH217126   6.963   4.722   1.864
 5728TIP3    H117127   7.028   4.711   1.795
 5728TIP3    H217128   6.995   4.795   1.917
 5729TIP3   OH217129   1.329   2.262   1.991
 5729TIP3    H117130   1.342   2.173   1.961
 5729TIP3    H217131   1.234   2.272   1.998
 5730TIP3   OH217132   3.631   7.035   2.605
 5730TIP3    H117133   3.578   7.037   2.525
 5730TIP3    H217134   3.644   7.127   2.627
 5731TIP3   OH217135   8.257   0.269   5.230
 5731TIP3    H117136   8.180   0.264   5.173
 5731TIP3    H217137   8.327   0.302   5.174
 5732TIP3   OH217138   7.687   1.321   2.073
 5732TIP3    H117139   7.603   1.367   2.070
 5732TIP3    H217140   7.732   1.348   1.993
 5733TIP3   OH217141   0.572   2.706   5.625
 5733TIP3    H117142   0.510   2.778   5.635
 5733TIP3    H217143   0.657   2.744   5.648
 5734TIP3   OH217144   4.142   4.987   1.864
 5734TIP3    H117145   4.145   5.026   1.777
 5734TIP3    H217146   4.083   5.044   1.914
 5735TIP3   OH217147   1.135   2.951   5.930
 5735TIP3    H117148   1.087   2.957   6.013
 5735TIP3    H217149   1.227   2.948   5.956
 5736TIP3   OH217150   4.119   2.017   1.360
 5736TIP3    H117151   4.135   2.004   1.454
 5736TIP3    H217152   4.149   2.107   1.343
 5737TIP3   OH217153   4.214   6.284   0.839
 5737TIP3    H117154   4.130   6.308   0.877
 5737TIP3    H217155   4.236   6.201   0.882
 5738TIP3   OH217156   5.078   3.112   5.354
 5738TIP3    H117157   5.101   3.167   5.279
 5738TIP3    H217158   5.141   3.135   5.421
 5739TIP3   OH217159   4.076   4.441   3.482
 5739TIP3    H117160   4.008   4.508   3.490
 5739TIP3    H217161   4.103   4.445   3.390
 5740TIP3   OH217162   3.630   6.984   4.803
 5740TIP3    H117163   3.539   7.012   4.815
 5740TIP3    H217164   3.649   7.003   4.711
 5741TIP3   OH217165   7.266   2.511   4.726
 5741TIP3    H117166   7.177   2.535   4.752
 5741TIP3    H217167   7.301   2.463   4.801
 5742TIP3   OH217168   3.892   0.378   2.755
 5742TIP3    H117169   3.945   0.428   2.693
 5742TIP3    H217170   3.834   0.324   2.700
 5743TIP3   OH217171   0.460   4.950   5.497
 5743TIP3    H117172   0.555   4.947   5.504
 5743TIP3    H217173   0.429   4.927   5.585
 5744TIP3   OH217174   6.678   5.863   4.233
 5744TIP3    H117175   6.753   5.881   4.291
 5744TIP3    H217176   6.614   5.931   4.255
 5745TIP3   OH217177   2.254   2.904   5.889
 5745TIP3    H117178   2.258   2.985   5.838
 5745TIP3    H217179   2.249   2.835   5.824
 5746TIP3   OH217180   2.362   7.368   4.485
 5746TIP3    H117181   2.296   7.337   4.423
 5746TIP3    H217182   2.368   7.298   4.550
 5747TIP3   OH217183   5.782   7.311   4.780
 5747TIP3    H117184   5.687   7.318   4.771
 5747TIP3    H217185   5.810   7.398   4.807
 5748TIP3   OH217186   5.336   0.109   6.024
 5748TIP3    H117187   5.368   0.080   6.109
 5748TIP3    H217188   5.281   0.036   5.994
 5749TIP3   OH217189   7.193   2.688   0.176
 5749TIP3    H117190   7.171   2.777   0.149
 5749TIP3    H217191   7.266   2.664   0.119
 5750TIP3   OH217192   2.015   2.093   1.906
 5750TIP3    H117193   1.987   2.020   1.852
 5750TIP3    H217194   2.062   2.151   1.847
 5751TIP3   OH217195   3.292   6.272   0.466
 5751TIP3    H117196   3.247   6.311   0.541
 5751TIP3    H217197   3.379   6.249   0.498
 5752TIP3   OH217198   1.237   6.050   6.629
 5752TIP3    H117199   1.299   5.992   6.583
 5752TIP3    H217200   1.288   6.129   6.648
 5753TIP3   OH217201   4.504   2.049   0.603
 5753TIP3    H117202   4.550   2.080   0.525
 5753TIP3    H217203   4.412   2.072   0.588
 5754TIP3   OH217204   2.118   4.516   2.111
 5754TIP3    H117205   2.142   4.609   2.108
 5754TIP3    H217206   2.024   4.516   2.128
 5755TIP3   OH217207   7.483   6.669   5.957
 5755TIP3    H117208   7.545   6.639   6.024
 5755TIP3    H217209   7.442   6.588   5.926
 5756TIP3   OH217210   3.386   0.736   5.458
 5756TIP3    H117211   3.432   0.817   5.434
 5756TIP3    H217212   3.330   0.762   5.531
 5757TIP3   OH217213   6.466   0.478   2.409
 5757TIP3    H117214   6.508   0.508   2.490
 5757TIP3    H217215   6.392   0.426   2.439
 5758TIP3   OH217216   4.085   5.653   3.229
 5758TIP3    H117217   4.016   5.676   3.291
 5758TIP3    H217218   4.137   5.586   3.274
 5759TIP3   OH217219   2.506   2.924   6.201
 5759TIP3    H117220   2.489   2.865   6.274
 5759TIP3    H217221   2.578   2.882   6.153
 5760TIP3   OH217222   5.357   6.349   6.518
 5760TIP3    H117223   5.291   6.288   6.549
 5760TIP3    H217224   5.367   6.329   6.425
 5761TIP3   OH217225   0.071   6.513   3.752
 5761TIP3    H117226   0.061   6.433   3.805
 5761TIP3    H217227   0.138   6.564   3.798
 5762TIP3   OH217228   0.208   4.681   0.887
 5762TIP3    H117229   0.218   4.589   0.913
 5762TIP3    H217230   0.297   4.712   0.874
 5763TIP3   OH217231   0.355   1.863   5.745
 5763TIP3    H117232   0.396   1.894   5.826
 5763TIP3    H217233   0.364   1.768   5.748
 5764TIP3   OH217234   2.550   5.912   4.803
 5764TIP3    H117235   2.481   5.864   4.848
 5764TIP3    H217236   2.549   5.878   4.714
 5765TIP3   OH217237   0.915   7.607   3.573
 5765TIP3    H117238   0.844   7.609   3.636
 5765TIP3    H217239   0.969   7.684   3.593
 5766TIP3   OH217240   5.394   5.739   6.577
 5766TIP3    H117241   5.366   5.647   6.574
 5766TIP3    H217242   5.343   5.782   6.508
 5767TIP3   OH217243   7.523   0.159   0.685
 5767TIP3    H117244   7.541   0.187   0.595
 5767TIP3    H217245   7.607   0.169   0.730
 5768TIP3   OH217246   7.974   3.447   6.096
 5768TIP3    H117247   7.903   3.512   6.101
 5768TIP3    H217248   8.025   3.462   6.176
 5769TIP3   OH217249   3.890   5.912   2.243
 5769TIP3    H117250   3.894   6.007   2.231
 5769TIP3    H217251   3.981   5.885   2.251
 5770TIP3   OH217252   2.431   3.858   4.136
 5770TIP3    H117253   2.500   3.802   4.100
 5770TIP3    H217254   2.475   3.909   4.203
 5771TIP3   OH217255   3.360   0.341   3.001
 5771TIP3    H117256   3.396   0.284   2.933
 5771TIP3    H217257   3.403   0.426   2.986
 5772TIP3   OH217258   2.115   0.218   1.563
 5772TIP3    H117259   2.193   0.233   1.509
 5772TIP3    H217260   2.045   0.201   1.499
 5773TIP3   OH217261   5.826   3.315   3.464
 5773TIP3    H117262   5.771   3.393   3.461
 5773TIP3    H217263   5.890   3.327   3.393
 5774TIP3   OH217264   1.505   5.939   1.367
 5774TIP3    H117265   1.539   5.854   1.337
 5774TIP3    H217266   1.553   6.004   1.315
 5775TIP3   OH217267   6.239   2.591   4.852
 5775TIP3    H117268   6.249   2.550   4.766
 5775TIP3    H217269   6.212   2.681   4.832
 5776TIP3   OH217270   0.401   0.211   3.890
 5776TIP3    H117271   0.339   0.139   3.902
 5776TIP3    H217272   0.423   0.238   3.980
 5777TIP3   OH217273   4.388   3.826   5.463
 5777TIP3    H117274   4.382   3.783   5.548
 5777TIP3    H217275   4.474   3.868   5.462
 5778TIP3   OH217276   3.399   1.303   3.687
 5778TIP3    H117277   3.436   1.220   3.716
 5778TIP3    H217278   3.476   1.359   3.671
 5779TIP3   OH217279   6.776   6.209   4.864
 5779TIP3    H117280   6.695   6.165   4.890
 5779TIP3    H217281   6.818   6.234   4.947
 5780TIP3   OH217282   5.024   1.108   2.215
 5780TIP3    H117283   4.982   1.114   2.301
 5780TIP3    H217284   4.955   1.075   2.157
 5781TIP3   OH217285   4.710   6.025   2.989
 5781TIP3    H117286   4.652   5.953   3.013
 5781TIP3    H217287   4.655   6.103   3.001
 5782TIP3   OH217288   5.415   5.863   5.833
 5782TIP3    H117289   5.509   5.866   5.852
 5782TIP3    H217290   5.402   5.778   5.792
 5783TIP3   OH217291   7.642   0.110   3.320
 5783TIP3    H117292   7.637   0.057   3.400
 5783TIP3    H217293   7.725   0.084   3.280
 5784TIP3   OH217294   8.234   4.586   6.491
 5784TIP3    H117295   8.301   4.520   6.473
 5784TIP3    H217296   8.284   4.666   6.507
 5785TIP3   OH217297   4.016   6.747   3.397
 5785TIP3    H117298   3.932   6.786   3.422
 5785TIP3    H217299   4.016   6.748   3.302
 5786TIP3   OH217300   2.732   1.021   6.529
 5786TIP3    H117301   2.809   1.067   6.493
 5786TIP3    H217302   2.750   0.929   6.514
 5787TIP3   OH217303   5.928   6.436   1.982
 5787TIP3    H117304   5.972   6.387   1.912
 5787TIP3    H217305   6.000   6.477   2.031
 5788TIP3   OH217306   3.212   1.827   5.028
 5788TIP3    H117307   3.229   1.742   5.070
 5788TIP3    H217308   3.120   1.846   5.049
 5789TIP3   OH217309   6.851   6.666   2.054
 5789TIP3    H117310   6.824   6.757   2.061
 5789TIP3    H217311   6.841   6.631   2.143
 5790TIP3   OH217312   3.084   1.052   5.189
 5790TIP3    H117313   3.024   0.985   5.156
 5790TIP3    H217314   3.032   1.103   5.251
 5791TIP3   OH217315   7.177   2.333   3.758
 5791TIP3    H117316   7.240   2.286   3.703
 5791TIP3    H217317   7.092   2.293   3.737
 5792TIP3   OH217318   6.508   3.129   3.159
 5792TIP3    H117319   6.562   3.204   3.186
 5792TIP3    H217320   6.429   3.136   3.212
 5793TIP3   OH217321   4.427   3.705   3.709
 5793TIP3    H117322   4.472   3.743   3.633
 5793TIP3    H217323   4.443   3.611   3.702
 5794TIP3   OH217324   0.991   6.216   1.530
 5794TIP3    H117325   0.943   6.166   1.595
 5794TIP3    H217326   0.956   6.305   1.538
 5795TIP3   OH217327   5.082   0.409   3.641
 5795TIP3    H117328   5.169   0.386   3.610
 5795TIP3    H217329   5.087   0.502   3.660
 5796TIP3   OH217330   0.067   7.085   4.677
 5796TIP3    H117331   0.029   7.041   4.753
 5796TIP3    H217332   0.075   7.017   4.610
 5797TIP3   OH217333   5.217   3.133   2.205
 5797TIP3    H117334   5.294   3.179   2.239
 5797TIP3    H217335   5.166   3.111   2.283
 5798TIP3   OH217336   5.007   2.332   3.639
 5798TIP3    H117337   5.007   2.246   3.597
 5798TIP3    H217338   4.914   2.356   3.646
 5799TIP3   OH217339   1.055   1.058   4.152
 5799TIP3    H117340   1.123   0.997   4.181
 5799TIP3    H217341   1.099   1.142   4.144
 5800TIP3   OH217342   1.343   7.243   5.092
 5800TIP3    H117343   1.417   7.303   5.079
 5800TIP3    H217344   1.324   7.250   5.185
 5801TIP3   OH217345   0.761   6.366   3.245
 5801TIP3    H117346   0.733   6.391   3.157
 5801TIP3    H217347   0.794   6.447   3.284
 5802TIP3   OH217348   7.537   7.030   3.815
 5802TIP3    H117349   7.461   7.085   3.832
 5802TIP3    H217350   7.545   6.974   3.892
 5803TIP3   OH217351   5.603   4.389   1.138
 5803TIP3    H117352   5.541   4.318   1.123
 5803TIP3    H217353   5.597   4.408   1.232
 5804TIP3   OH217354   7.592   4.978   3.552
 5804TIP3    H117355   7.550   4.899   3.588
 5804TIP3    H217356   7.682   4.974   3.586
 5805TIP3   OH217357   1.235   3.127   5.104
 5805TIP3    H117358   1.220   3.053   5.162
 5805TIP3    H217359   1.150   3.144   5.064
 5806TIP3   OH217360   7.149   3.382   1.553
 5806TIP3    H117361   7.204   3.441   1.605
 5806TIP3    H217362   7.109   3.324   1.618
 5807TIP3   OH217363   4.986   1.960   6.136
 5807TIP3    H117364   4.894   1.987   6.132
 5807TIP3    H217365   5.000   1.933   6.227
 5808TIP3   OH217366   6.610   3.987   4.850
 5808TIP3    H117367   6.565   3.912   4.810
 5808TIP3    H217368   6.688   4.000   4.796
 5809TIP3   OH217369   2.286   2.861   2.774
 5809TIP3    H117370   2.376   2.887   2.759
 5809TIP3    H217371   2.291   2.768   2.798
 5810TIP3   OH217372   1.054   6.748   3.258
 5810TIP3    H117373   1.097   6.749   3.343
 5810TIP3    H217374   1.082   6.666   3.217
 5811TIP3   OH217375   7.253   6.836   1.320
 5811TIP3    H117376   7.244   6.777   1.395
 5811TIP3    H217377   7.241   6.779   1.244
 5812TIP3   OH217378   3.412   2.834   2.679
 5812TIP3    H117379   3.345   2.781   2.635
 5812TIP3    H217380   3.362   2.893   2.735
 5813TIP3   OH217381   3.254   3.388   3.498
 5813TIP3    H117382   3.201   3.452   3.451
 5813TIP3    H217383   3.225   3.396   3.589
 5814TIP3   OH217384   5.565   0.565   1.888
 5814TIP3    H117385   5.514   0.496   1.846
 5814TIP3    H217386   5.652   0.558   1.851
 5815TIP3   OH217387   7.874   5.781   6.424
 5815TIP3    H117388   7.951   5.743   6.381
 5815TIP3    H217389   7.807   5.784   6.356
 5816TIP3   OH217390   5.908   6.478   1.015
 5816TIP3    H117391   5.906   6.456   1.108
 5816TIP3    H217392   5.894   6.573   1.013
 5817TIP3   OH217393   7.206   5.760   4.481
 5817TIP3    H117394   7.119   5.740   4.516
 5817TIP3    H217395   7.249   5.675   4.475
 5818TIP3   OH217396   5.625   6.454   6.073
 5818TIP3    H117397   5.680   6.388   6.117
 5818TIP3    H217398   5.652   6.450   5.982
 5819TIP3   OH217399   3.709   4.912   4.692
 5819TIP3    H117400   3.675   5.000   4.709
 5819TIP3    H217401   3.718   4.908   4.597
 5820TIP3   OH217402   8.203   7.128   5.794
 5820TIP3    H117403   8.124   7.130   5.740
 5820TIP3    H217404   8.274   7.107   5.733
 5821TIP3   OH217405   4.414   1.947   1.707
 5821TIP3    H117406   4.487   1.916   1.653
 5821TIP3    H217407   4.450   1.953   1.795
 5822TIP3   OH217408   4.830   3.039   5.500
 5822TIP3    H117409   4.875   3.080   5.426
 5822TIP3    H217410   4.863   2.949   5.500
 5823TIP3   OH217411   1.540   0.840   0.193
 5823TIP3    H117412   1.494   0.918   0.224
 5823TIP3    H217413   1.617   0.834   0.248
 5824TIP3   OH217414   7.441   5.730   0.717
 5824TIP3    H117415   7.417   5.818   0.690
 5824TIP3    H217416   7.530   5.739   0.750
 5825TIP3   OH217417   4.590   5.443   0.030
 5825TIP3    H117418   4.627   5.398  -0.046
 5825TIP3    H217419   4.552   5.523  -0.007
 5826TIP3   OH217420   4.749   4.421   2.224
 5826TIP3    H117421   4.800   4.478   2.281
 5826TIP3    H217422   4.755   4.334   2.265
 5827TIP3   OH217423   8.225   5.262   1.381
 5827TIP3    H117424   8.138   5.277   1.419
 5827TIP3    H217425   8.285   5.305   1.441
 5828TIP3   OH217426   5.449   1.254   2.179
 5828TIP3    H117427   5.497   1.245   2.261
 5828TIP3    H217428   5.507   1.305   2.123
 5829TIP3   OH217429   0.690   2.506   0.760
 5829TIP3    H117430   0.767   2.477   0.807
 5829TIP3    H217431   0.693   2.460   0.676
 5830TIP3   OH217432   7.449   6.994   2.374
 5830TIP3    H117433   7.421   7.018   2.286
 5830TIP3    H217434   7.502   6.915   2.361
 5831TIP3   OH217435   5.569   2.841   3.721
 5831TIP3    H117436   5.522   2.819   3.641
 5831TIP3    H217437   5.638   2.901   3.694
 5832TIP3   OH217438   1.337   6.317   0.452
 5832TIP3    H117439   1.277   6.243   0.443
 5832TIP3    H217440   1.281   6.389   0.482
 5833TIP3   OH217441   3.083   1.618   5.262
 5833TIP3    H117442   3.004   1.584   5.304
 5833TIP3    H217443   3.128   1.667   5.332
 5834TIP3   OH217444   0.228   6.461   4.860
 5834TIP3    H117445   0.274   6.378   4.846
 5834TIP3    H217446   0.193   6.454   4.948
 5835TIP3   OH217447   2.853   2.868   0.261
 5835TIP3    H117448   2.862   2.881   0.355
 5835TIP3    H217449   2.764   2.833   0.251
 5836TIP3   OH217450   3.418   5.298   6.591
 5836TIP3    H117451   3.375   5.280   6.674
 5836TIP3    H217452   3.402   5.221   6.537
 5837TIP3   OH217453   0.119   2.074   2.835
 5837TIP3    H117454   0.024   2.069   2.840
 5837TIP3    H217455   0.138   2.168   2.827
 5838TIP3   OH217456   6.441   0.977   0.368
 5838TIP3    H117457   6.418   1.061   0.329
 5838TIP3    H217458   6.436   0.914   0.295
 5839TIP3   OH217459   3.378   7.356   3.516
 5839TIP3    H117460   3.425   7.374   3.598
 5839TIP3    H217461   3.433   7.293   3.471
 5840TIP3   OH217462   4.258   7.289   2.419
 5840TIP3    H117463   4.218   7.229   2.356
 5840TIP3    H217464   4.185   7.341   2.452
 5841TIP3   OH217465   5.802   3.801   4.580
 5841TIP3    H117466   5.864   3.728   4.572
 5841TIP3    H217467   5.778   3.803   4.672
 5842TIP3   OH217468   3.013   4.169   1.919
 5842TIP3    H117469   2.926   4.131   1.909
 5842TIP3    H217470   3.015   4.200   2.010
 5843TIP3   OH217471  -0.016   2.889   0.572
 5843TIP3    H117472  -0.019   2.862   0.664
 5843TIP3    H217473  -0.093   2.944   0.560
 5844TIP3   OH217474   3.926   0.729   0.125
 5844TIP3    H117475   3.867   0.722   0.049
 5844TIP3    H217476   3.880   0.684   0.195
 5845TIP3   OH217477   0.425   1.223   5.440
 5845TIP3    H117478   0.420   1.200   5.347
 5845TIP3    H217479   0.443   1.140   5.484
 5846TIP3   OH217480   2.300   3.079   0.120
 5846TIP3    H117481   2.332   3.004   0.069
 5846TIP3    H217482   2.251   3.132   0.056
 5847TIP3   OH217483   0.609   0.419   0.852
 5847TIP3    H117484   0.632   0.372   0.772
 5847TIP3    H217485   0.689   0.466   0.876
 5848TIP3   OH217486   3.987   2.929   3.231
 5848TIP3    H117487   3.962   2.928   3.139
 5848TIP3    H217488   3.947   3.008   3.267
 5849TIP3   OH217489   0.269   1.038   6.451
 5849TIP3    H117490   0.324   0.964   6.425
 5849TIP3    H217491   0.302   1.112   6.400
 5850TIP3   OH217492   6.001   7.665   6.118
 5850TIP3    H117493   5.906   7.675   6.115
 5850TIP3    H217494   6.026   7.701   6.203
 5851TIP3   OH217495   1.116   3.870   6.728
 5851TIP3    H117496   1.160   3.901   6.806
 5851TIP3    H217497   1.089   3.949   6.682
 5852TIP3   OH217498   3.534   2.062   1.940
 5852TIP3    H117499   3.456   2.007   1.945
 5852TIP3    H217500   3.584   2.040   2.019
 5853TIP3   OH217501   2.364   3.678   5.493
 5853TIP3    H117502   2.395   3.615   5.558
 5853TIP3    H217503   2.302   3.734   5.541
 5854TIP3   OH217504   1.424   5.444   1.256
 5854TIP3    H117505   1.375   5.375   1.211
 5854TIP3    H217506   1.440   5.409   1.343
 5855TIP3   OH217507   7.634   7.576   1.312
 5855TIP3    H117508   7.547   7.609   1.288
 5855TIP3    H217509   7.628   7.481   1.302
 5856TIP3   OH217510   3.538   1.066   3.753
 5856TIP3    H117511   3.588   1.115   3.819
 5856TIP3    H217512   3.563   0.975   3.766
 5857TIP3   OH217513   7.700   4.038   0.538
 5857TIP3    H117514   7.641   3.964   0.551
 5857TIP3    H217515   7.714   4.074   0.625
 5858TIP3   OH217516   2.504   6.169   4.392
 5858TIP3    H117517   2.585   6.120   4.376
 5858TIP3    H217518   2.434   6.106   4.373
 5859TIP3   OH217519   8.065   0.249   4.482
 5859TIP3    H117520   7.984   0.235   4.530
 5859TIP3    H217521   8.074   0.171   4.426
 5860TIP3   OH217522   7.911   1.399   6.213
 5860TIP3    H117523   7.831   1.365   6.253
 5860TIP3    H217524   7.911   1.492   6.234
 5861TIP3   OH217525   8.289   3.006   4.288
 5861TIP3    H117526   8.234   3.064   4.236
 5861TIP3    H217527   8.228   2.941   4.325
 5862TIP3   OH217528   2.982   4.354   1.047
 5862TIP3    H117529   2.936   4.332   1.128
 5862TIP3    H217530   2.984   4.271   0.998
 5863TIP3   OH217531   5.435   3.484   5.322
 5863TIP3    H117532   5.393   3.514   5.241
 5863TIP3    H217533   5.526   3.466   5.296
 5864TIP3   OH217534   3.626   4.392   4.393
 5864TIP3    H117535   3.593   4.470   4.349
 5864TIP3    H217536   3.614   4.409   4.486
 5865TIP3   OH217537   4.858   2.541   1.862
 5865TIP3    H117538   4.780   2.527   1.808
 5865TIP3    H217539   4.828   2.598   1.933
 5866TIP3   OH217540   7.256   3.612   0.200
 5866TIP3    H117541   7.266   3.684   0.137
 5866TIP3    H217542   7.210   3.652   0.275
 5867TIP3   OH217543   0.103   6.782   3.043
 5867TIP3    H117544   0.189   6.752   3.014
 5867TIP3    H217545   0.080   6.724   3.116
 5868TIP3   OH217546   6.043   6.135   5.595
 5868TIP3    H117547   6.117   6.083   5.625
 5868TIP3    H217548   5.987   6.144   5.673
 5869TIP3   OH217549   4.344   6.398   4.923
 5869TIP3    H117550   4.268   6.456   4.916
 5869TIP3    H217551   4.393   6.411   4.842
 5870TIP3   OH217552   6.365   2.862   3.678
 5870TIP3    H117553   6.386   2.835   3.588
 5870TIP3    H217554   6.434   2.924   3.701
 5871TIP3   OH217555   6.992   0.915   4.338
 5871TIP3    H117556   7.080   0.879   4.323
 5871TIP3    H217557   7.005   1.010   4.334
 5872TIP3   OH217558   1.026   5.038   4.755
 5872TIP3    H117559   0.935   5.029   4.783
 5872TIP3    H217560   1.028   5.000   4.667
 5873TIP3   OH217561   5.517   4.007   0.918
 5873TIP3    H117562   5.429   3.970   0.906
 5873TIP3    H217563   5.570   3.932   0.946
 5874TIP3   OH217564   0.019   4.814   6.584
 5874TIP3    H117565   0.023   4.910   6.575
 5874TIP3    H217566   0.093   4.792   6.640
 5875TIP3   OH217567   5.138   6.224   4.688
 5875TIP3    H117568   5.228   6.198   4.669
 5875TIP3    H217569   5.098   6.147   4.728
 5876TIP3   OH217570   6.251   6.793   1.331
 5876TIP3    H117571   6.185   6.774   1.265
 5876TIP3    H217572   6.277   6.883   1.315
 5877TIP3   OH217573   7.320   7.238   6.632
 5877TIP3    H117574   7.350   7.253   6.543
 5877TIP3    H217575   7.235   7.281   6.636
 5878TIP3   OH217576   5.673   6.532   4.891
 5878TIP3    H117577   5.607   6.525   4.822
 5878TIP3    H217578   5.671   6.447   4.936
 5879TIP3   OH217579   2.008   4.013   2.587
 5879TIP3    H117580   2.031   4.089   2.535
 5879TIP3    H217581   1.914   4.000   2.571
 5880TIP3   OH217582   2.571   2.586   4.651
 5880TIP3    H117583   2.612   2.540   4.578
 5880TIP3    H217584   2.488   2.617   4.616
 5881TIP3   OH217585   0.348   3.081   6.687
 5881TIP3    H117586   0.335   3.173   6.663
 5881TIP3    H217587   0.364   3.084   6.782
 5882TIP3   OH217588   4.286   6.327   3.547
 5882TIP3    H117589   4.338   6.332   3.467
 5882TIP3    H217590   4.259   6.417   3.565
 5883TIP3   OH217591   2.975   6.792   5.364
 5883TIP3    H117592   2.901   6.848   5.341
 5883TIP3    H217593   2.984   6.733   5.290
 5884TIP3   OH217594   4.908   6.636   3.236
 5884TIP3    H117595   4.972   6.671   3.174
 5884TIP3    H217596   4.874   6.557   3.193
 5885TIP3   OH217597   4.107   1.994   1.648
 5885TIP3    H117598   4.191   1.956   1.675
 5885TIP3    H217599   4.046   1.921   1.648
 5886TIP3   OH217600   7.422   7.777   6.423
 5886TIP3    H117601   7.422   7.873   6.413
 5886TIP3    H217602   7.514   7.755   6.436
 5887TIP3   OH217603   2.272   5.657   4.555
 5887TIP3    H117604   2.212   5.723   4.522
 5887TIP3    H217605   2.216   5.597   4.605
 5888TIP3   OH217606   0.882   2.115   2.403
 5888TIP3    H117607   0.909   2.182   2.341
 5888TIP3    H217608   0.960   2.061   2.415
 5889TIP3   OH217609   2.418   1.455   3.660
 5889TIP3    H117610   2.460   1.503   3.589
 5889TIP3    H217611   2.490   1.406   3.701
 5890TIP3   OH217612   4.554   6.552   3.130
 5890TIP3    H117613   4.570   6.626   3.072
 5890TIP3    H217614   4.623   6.490   3.109
 5891TIP3   OH217615   5.151   0.491   0.703
 5891TIP3    H117616   5.122   0.404   0.675
 5891TIP3    H217617   5.172   0.537   0.622
 5892TIP3   OH217618   7.980   2.937   4.608
 5892TIP3    H117619   8.054   2.990   4.638
 5892TIP3    H217620   8.009   2.900   4.525
 5893TIP3   OH217621   1.168   6.495   4.453
 5893TIP3    H117622   1.079   6.489   4.417
 5893TIP3    H217623   1.178   6.416   4.507
 5894TIP3   OH217624   7.452   5.841   6.175
 5894TIP3    H117625   7.423   5.849   6.266
 5894TIP3    H217626   7.537   5.798   6.181
 5895TIP3   OH217627   1.437   3.804   1.669
 5895TIP3    H117628   1.532   3.801   1.681
 5895TIP3    H217629   1.421   3.759   1.586
 5896TIP3   OH217630   3.462   1.572   1.739
 5896TIP3    H117631   3.415   1.611   1.813
 5896TIP3    H217632   3.509   1.645   1.699
 5897TIP3   OH217633   1.619   2.782   3.754
 5897TIP3    H117634   1.569   2.769   3.835
 5897TIP3    H217635   1.556   2.768   3.684
 5898TIP3   OH217636   7.157   5.024   5.642
 5898TIP3    H117637   7.150   4.934   5.609
 5898TIP3    H217638   7.251   5.043   5.642
 5899TIP3   OH217639   7.074   1.377   0.259
 5899TIP3    H117640   7.029   1.294   0.240
 5899TIP3    H217641   7.159   1.350   0.293
 5900TIP3   OH217642   3.337   6.424   5.325
 5900TIP3    H117643   3.402   6.359   5.296
 5900TIP3    H217644   3.339   6.491   5.257
 5901TIP3   OH217645   7.772   2.787   0.309
 5901TIP3    H117646   7.800   2.698   0.286
 5901TIP3    H217647   7.763   2.786   0.404
 5902TIP3   OH217648   6.982   0.879   4.058
 5902TIP3    H117649   6.983   0.847   4.148
 5902TIP3    H217650   7.044   0.823   4.011
 5903TIP3   OH217651   5.137   0.957   4.085
 5903TIP3    H117652   5.068   0.953   4.019
 5903TIP3    H217653   5.218   0.940   4.036
 5904TIP3   OH217654   0.346   3.375   1.955
 5904TIP3    H117655   0.373   3.296   1.909
 5904TIP3    H217656   0.367   3.447   1.895
 5905TIP3   OH217657   4.388   1.897   0.179
 5905TIP3    H117658   4.451   1.893   0.108
 5905TIP3    H217659   4.416   1.829   0.241
 5906TIP3   OH217660   3.408   5.035   6.268
 5906TIP3    H117661   3.416   5.125   6.236
 5906TIP3    H217662   3.493   4.996   6.251
 5907TIP3   OH217663   4.368   1.705   2.503
 5907TIP3    H117664   4.334   1.676   2.588
 5907TIP3    H217665   4.423   1.780   2.525
 5908TIP3   OH217666   4.655   2.355   4.720
 5908TIP3    H117667   4.746   2.372   4.747
 5908TIP3    H217668   4.603   2.377   4.797
 5909TIP3   OH217669   4.899   6.033   6.233
 5909TIP3    H117670   4.951   6.106   6.266
 5909TIP3    H217671   4.811   6.069   6.222
 5910TIP3   OH217672   2.076   0.204   1.121
 5910TIP3    H117673   2.080   0.171   1.031
 5910TIP3    H217674   2.113   0.134   1.174
 5911TIP3   OH217675   0.551   5.617   5.742
 5911TIP3    H117676   0.574   5.562   5.667
 5911TIP3    H217677   0.554   5.557   5.817
 5912TIP3   OH217678   4.669   0.874   4.452
 5912TIP3    H117679   4.693   0.965   4.473
 5912TIP3    H217680   4.643   0.836   4.536
 5913TIP3   OH217681   5.632   2.995   1.745
 5913TIP3    H117682   5.611   3.008   1.838
 5913TIP3    H217683   5.682   2.913   1.743
 5914TIP3   OH217684   0.029   6.391   3.507
 5914TIP3    H117685   0.050   6.448   3.581
 5914TIP3    H217686   0.109   6.343   3.490
 5915TIP3   OH217687   3.046   7.103   1.285
 5915TIP3    H117688   3.065   7.196   1.300
 5915TIP3    H217689   3.098   7.081   1.208
 5916TIP3   OH217690   1.033   1.679   1.124
 5916TIP3    H117691   1.012   1.730   1.046
 5916TIP3    H217692   1.109   1.627   1.099
 5917TIP3   OH217693   4.194   6.082   3.618
 5917TIP3    H117694   4.230   6.159   3.572
 5917TIP3    H217695   4.126   6.117   3.675
 5918TIP3   OH217696   2.015   2.017   1.361
 5918TIP3    H117697   1.982   2.102   1.332
 5918TIP3    H217698   2.101   2.010   1.320
 5919TIP3   OH217699   2.456   7.502   1.655
 5919TIP3    H117700   2.462   7.476   1.563
 5919TIP3    H217701   2.536   7.467   1.695
 5920TIP3   OH217702   3.924   2.674   1.077
 5920TIP3    H117703   3.873   2.755   1.079
 5920TIP3    H217704   3.890   2.622   1.150
 5921TIP3   OH217705   0.580   6.060   5.364
 5921TIP3    H117706   0.552   6.087   5.451
 5921TIP3    H217707   0.508   6.007   5.330
 5922TIP3   OH217708   7.594   2.428   3.146
 5922TIP3    H117709   7.666   2.466   3.196
 5922TIP3    H217710   7.566   2.499   3.088
 5923TIP3   OH217711   5.887   6.722   0.838
 5923TIP3    H117712   5.903   6.660   0.766
 5923TIP3    H217713   5.942   6.798   0.817
 5924TIP3   OH217714   1.875   5.861   2.088
 5924TIP3    H117715   1.863   5.844   2.181
 5924TIP3    H217716   1.852   5.953   2.078
 5925TIP3   OH217717   4.541   3.690   1.059
 5925TIP3    H117718   4.454   3.651   1.067
 5925TIP3    H217719   4.528   3.767   1.004
 5926TIP3   OH217720   5.218   7.194   4.333
 5926TIP3    H117721   5.268   7.273   4.312
 5926TIP3    H217722   5.281   7.122   4.320
 5927TIP3   OH217723   0.184   3.061   0.730
 5927TIP3    H117724   0.198   3.008   0.652
 5927TIP3    H217725   0.246   3.026   0.794
 5928TIP3   OH217726   8.007   0.209   4.185
 5928TIP3    H117727   8.091   0.163   4.180
 5928TIP3    H217728   8.026   0.288   4.235
 5929TIP3   OH217729   0.910   0.347   5.942
 5929TIP3    H117730   0.832   0.298   5.966
 5929TIP3    H217731   0.922   0.330   5.849
 5930TIP3   OH217732   6.309   2.892   2.333
 5930TIP3    H117733   6.246   2.924   2.269
 5930TIP3    H217734   6.303   2.953   2.406
 5931TIP3   OH217735   2.826   1.210   0.022
 5931TIP3    H117736   2.739   1.222  -0.016
 5931TIP3    H217737   2.858   1.299   0.038
 5932TIP3   OH217738   1.427   1.283   4.482
 5932TIP3    H117739   1.444   1.214   4.547
 5932TIP3    H217740   1.393   1.356   4.534
 5933TIP3   OH217741   4.534   3.925   4.553
 5933TIP3    H117742   4.535   3.865   4.478
 5933TIP3    H217743   4.517   3.868   4.629
 5934TIP3   OH217744   5.636   4.524   6.418
 5934TIP3    H117745   5.560   4.554   6.467
 5934TIP3    H217746   5.710   4.541   6.477
 5935TIP3   OH217747   0.261   0.675   4.627
 5935TIP3    H117748   0.180   0.631   4.653
 5935TIP3    H217749   0.317   0.669   4.705
 5936TIP3   OH217750   3.803   5.022   3.529
 5936TIP3    H117751   3.821   5.069   3.610
 5936TIP3    H217752   3.730   4.964   3.551
 5937TIP3   OH217753   0.546   0.296   1.774
 5937TIP3    H117754   0.489   0.250   1.711
 5937TIP3    H217755   0.561   0.382   1.734
 5938TIP3   OH217756   6.599   1.549   5.199
 5938TIP3    H117757   6.526   1.496   5.232
 5938TIP3    H217758   6.560   1.634   5.179
 5939TIP3   OH217759   3.351   0.070   3.800
 5939TIP3    H117760   3.446   0.065   3.793
 5939TIP3    H217761   3.334   0.153   3.845
 5940TIP3   OH217762   3.573   6.153   5.743
 5940TIP3    H117763   3.542   6.166   5.654
 5940TIP3    H217764   3.533   6.071   5.771
 5941TIP3   OH217765   7.748   7.571   2.796
 5941TIP3    H117766   7.792   7.507   2.740
 5941TIP3    H217767   7.787   7.559   2.882
 5942TIP3   OH217768   3.494   0.912   2.356
 5942TIP3    H117769   3.439   0.933   2.281
 5942TIP3    H217770   3.432   0.896   2.427
 5943TIP3   OH217771   4.249   2.524   4.756
 5943TIP3    H117772   4.200   2.570   4.688
 5943TIP3    H217773   4.241   2.580   4.834
 5944TIP3   OH217774   1.301   2.434   5.034
 5944TIP3    H117775   1.365   2.418   4.964
 5944TIP3    H217776   1.306   2.356   5.089
 5945TIP3   OH217777   8.193   2.739   3.021
 5945TIP3    H117778   8.260   2.766   2.959
 5945TIP3    H217779   8.226   2.770   3.106
 5946TIP3   OH217780   2.529   2.199   0.807
 5946TIP3    H117781   2.459   2.264   0.816
 5946TIP3    H217782   2.484   2.115   0.813
 5947TIP3   OH217783   3.073   6.132   0.393
 5947TIP3    H117784   3.027   6.163   0.472
 5947TIP3    H217785   3.131   6.205   0.370
 5948TIP3   OH217786   4.140   3.431   0.284
 5948TIP3    H117787   4.132   3.476   0.200
 5948TIP3    H217788   4.147   3.338   0.260
 5949TIP3   OH217789   3.074   5.507   2.233
 5949TIP3    H117790   2.996   5.552   2.200
 5949TIP3    H217791   3.103   5.561   2.307
 5950TIP3   OH217792   8.228   4.637   2.838
 5950TIP3    H117793   8.172   4.669   2.767
 5950TIP3    H217794   8.317   4.661   2.811
 5951TIP3   OH217795   6.406   1.153   3.210
 5951TIP3    H117796   6.384   1.060   3.203
 5951TIP3    H217797   6.404   1.170   3.304
 5952TIP3   OH217798   4.355   4.975   3.666
 5952TIP3    H117799   4.384   4.884   3.673
 5952TIP3    H217800   4.292   4.985   3.737
 5953TIP3   OH217801   7.391   5.538   0.365
 5953TIP3    H117802   7.410   5.444   0.368
 5953TIP3    H217803   7.341   5.550   0.284
 5954TIP3   OH217804   3.418   6.966   1.645
 5954TIP3    H117805   3.352   6.907   1.607
 5954TIP3    H217806   3.462   7.004   1.569
 5955TIP3   OH217807   5.726   6.680   1.972
 5955TIP3    H117808   5.789   6.630   2.023
 5955TIP3    H217809   5.658   6.705   2.034
 5956TIP3   OH217810   4.265   5.723   1.653
 5956TIP3    H117811   4.322   5.657   1.613
 5956TIP3    H217812   4.316   5.755   1.728
 5957TIP3   OH217813   6.519   4.906   3.726
 5957TIP3    H117814   6.614   4.911   3.721
 5957TIP3    H217815   6.501   4.871   3.814
 5958TIP3   OH217816   8.129   3.244   3.729
 5958TIP3    H117817   8.205   3.286   3.769
 5958TIP3    H217818   8.164   3.200   3.651
 5959TIP3   OH217819   5.403   6.276   0.821
 5959TIP3    H117820   5.364   6.345   0.767
 5959TIP3    H217821   5.334   6.252   0.882
 5960TIP3   OH217822   2.910   6.812   3.907
 5960TIP3    H117823   2.895   6.877   3.839
 5960TIP3    H217824   2.847   6.834   3.975
 5961TIP3   OH217825   5.802   2.496   4.368
 5961TIP3    H117826   5.714   2.470   4.396
 5961TIP3    H217827   5.805   2.473   4.275
 5962TIP3   OH217828   2.902   4.826   1.150
 5962TIP3    H117829   2.882   4.782   1.068
 5962TIP3    H217830   2.895   4.919   1.129
 5963TIP3   OH217831   0.676   1.492   2.226
 5963TIP3    H117832   0.636   1.432   2.163
 5963TIP3    H217833   0.610   1.501   2.295
 5964TIP3   OH217834   2.244   1.501   6.142
 5964TIP3    H117835   2.246   1.596   6.141
 5964TIP3    H217836   2.227   1.477   6.233
 5965TIP3   OH217837   0.912   6.979   1.698
 5965TIP3    H117838   0.935   6.930   1.777
 5965TIP3    H217839   0.818   6.964   1.686
 5966TIP3   OH217840   3.115   5.420   1.238
 5966TIP3    H117841   3.023   5.412   1.265
 5966TIP3    H217842   3.113   5.410   1.143
 5967TIP3   OH217843   5.246   5.921   2.875
 5967TIP3    H117844   5.188   5.942   2.948
 5967TIP3    H217845   5.296   5.846   2.905
 5968TIP3   OH217846   4.594   5.644   0.950
 5968TIP3    H117847   4.552   5.728   0.971
 5968TIP3    H217848   4.536   5.604   0.885
 5969TIP3   OH217849   3.829   5.573   5.578
 5969TIP3    H117850   3.753   5.567   5.520
 5969TIP3    H217851   3.801   5.527   5.658
 5970TIP3   OH217852   0.536   5.255   2.925
 5970TIP3    H117853   0.464   5.291   2.873
 5970TIP3    H217854   0.546   5.165   2.893
 5971TIP3   OH217855   7.856   5.398   1.686
 5971TIP3    H117856   7.830   5.356   1.767
 5971TIP3    H217857   7.802   5.477   1.680
 5972TIP3   OH217858   2.226   1.300   3.158
 5972TIP3    H117859   2.246   1.300   3.064
 5972TIP3    H217860   2.211   1.208   3.179
 5973TIP3   OH217861   2.867   6.497   6.791
 5973TIP3    H117862   2.951   6.498   6.838
 5973TIP3    H217863   2.858   6.587   6.757
 5974TIP3   OH217864   3.277   2.603   1.484
 5974TIP3    H117865   3.302   2.598   1.576
 5974TIP3    H217866   3.307   2.520   1.446
 5975TIP3   OH217867   4.716   6.115   4.243
 5975TIP3    H117868   4.646   6.165   4.200
 5975TIP3    H217869   4.769   6.082   4.170
 5976TIP3   OH217870   1.245   5.730   3.089
 5976TIP3    H117871   1.201   5.684   3.160
 5976TIP3    H217872   1.285   5.807   3.131
 5977TIP3   OH217873   6.860   4.689   6.617
 5977TIP3    H117874   6.877   4.783   6.622
 5977TIP3    H217875   6.765   4.681   6.631
 5978TIP3   OH217876   7.235   4.671   1.256
 5978TIP3    H117877   7.178   4.739   1.291
 5978TIP3    H217878   7.198   4.589   1.289
 5979TIP3   OH217879   0.490   5.659   0.713
 5979TIP3    H117880   0.423   5.614   0.764
 5979TIP3    H217881   0.532   5.719   0.776
 5980TIP3   OH217882   3.945   3.737   2.048
 5980TIP3    H117883   3.863   3.720   2.094
 5980TIP3    H217884   3.921   3.797   1.977
 5981TIP3   OH217885   3.331   0.976   4.975
 5981TIP3    H117886   3.365   0.886   4.978
 5981TIP3    H217887   3.265   0.979   5.044
 5982TIP3   OH217888   0.886   0.263   5.685
 5982TIP3    H117889   0.831   0.301   5.618
 5982TIP3    H217890   0.953   0.215   5.637
 5983TIP3   OH217891   2.073   3.072   4.433
 5983TIP3    H117892   2.162   3.090   4.402
 5983TIP3    H217893   2.017   3.098   4.359
 5984TIP3   OH217894   4.308   7.481   6.398
 5984TIP3    H117895   4.380   7.418   6.395
 5984TIP3    H217896   4.325   7.533   6.476
 5985TIP3   OH217897   0.858   4.744   5.770
 5985TIP3    H117898   0.884   4.745   5.678
 5985TIP3    H217899   0.848   4.651   5.791
 5986TIP3   OH217900   4.724   0.149   5.445
 5986TIP3    H117901   4.723   0.166   5.351
 5986TIP3    H217902   4.637   0.114   5.464
 5987TIP3   OH217903   3.222   7.329   5.854
 5987TIP3    H117904   3.259   7.257   5.804
 5987TIP3    H217905   3.277   7.335   5.932
 5988TIP3   OH217906   5.426   3.857   2.283
 5988TIP3    H117907   5.484   3.855   2.207
 5988TIP3    H217908   5.448   3.939   2.327
 5989TIP3   OH217909   0.457   0.282   2.739
 5989TIP3    H117910   0.489   0.301   2.826
 5989TIP3    H217911   0.534   0.285   2.683
 5990TIP3   OH217912   7.864   1.742   2.692
 5990TIP3    H117913   7.870   1.811   2.625
 5990TIP3    H217914   7.953   1.735   2.726
 5991TIP3   OH217915   3.477   2.032   6.762
 5991TIP3    H117916   3.530   1.991   6.830
 5991TIP3    H217917   3.528   2.021   6.682
 5992TIP3   OH217918   4.083   4.705   2.078
 5992TIP3    H117919   4.099   4.721   1.985
 5992TIP3    H217920   4.147   4.638   2.103
 5993TIP3   OH217921   7.353   2.114   1.411
 5993TIP3    H117922   7.427   2.175   1.401
 5993TIP3    H217923   7.293   2.139   1.341
 5994TIP3   OH217924   0.573   7.100   4.809
 5994TIP3    H117925   0.648   7.045   4.833
 5994TIP3    H217926   0.511   7.039   4.768
 5995TIP3   OH217927   3.270   2.897   4.983
 5995TIP3    H117928   3.191   2.887   5.037
 5995TIP3    H217929   3.325   2.823   5.008
 5996TIP3   OH217930   0.874   7.772   6.311
 5996TIP3    H117931   0.864   7.681   6.338
 5996TIP3    H217932   0.858   7.771   6.217
 5997TIP3   OH217933   2.709   3.068   2.828
 5997TIP3    H117934   2.685   2.978   2.804
 5997TIP3    H217935   2.626   3.116   2.828
 5998TIP3   OH217936   7.973   2.050   4.516
 5998TIP3    H117937   7.967   2.096   4.600
 5998TIP3    H217938   7.949   1.960   4.536
 5999TIP3   OH217939   6.540   4.000   5.409
 5999TIP3    H117940   6.605   3.983   5.341
 5999TIP3    H217941   6.480   4.064   5.370
 6000TIP3   OH217942   6.254   4.337   2.421
 6000TIP3    H117943   6.165   4.312   2.448
 6000TIP3    H217944   6.300   4.351   2.503
 6001TIP3   OH217945   3.411   2.368   4.329
 6001TIP3    H117946   3.385   2.277   4.338
 6001TIP3    H217947   3.359   2.415   4.395
 6002TIP3   OH217948   1.069   5.985   5.406
 6002TIP3    H117949   1.147   6.002   5.459
 6002TIP3    H217950   1.001   5.962   5.469
 6003TIP3   OH217951   3.195   4.061   0.240
 6003TIP3    H117952   3.195   4.016   0.156
 6003TIP3    H217953   3.160   4.148   0.221
 6004TIP3   OH217954   6.784   3.329   2.563
 6004TIP3    H117955   6.822   3.416   2.548
 6004TIP3    H217956   6.691   3.341   2.548
 6005TIP3   OH217957   1.075   4.910   4.031
 6005TIP3    H117958   1.031   4.858   4.099
 6005TIP3    H217959   1.027   4.890   3.951
 6006TIP3   OH217960   1.062   2.112   1.569
 6006TIP3    H117961   1.107   2.035   1.533
 6006TIP3    H217962   0.988   2.076   1.618
 6007TIP3   OH217963   3.665   2.903   6.277
 6007TIP3    H117964   3.677   2.896   6.372
 6007TIP3    H217965   3.675   2.996   6.258
 6008TIP3   OH217966   5.711   2.776   4.050
 6008TIP3    H117967   5.656   2.729   3.987
 6008TIP3    H217968   5.685   2.868   4.040
 6009TIP3   OH217969   5.819   0.125   3.542
 6009TIP3    H117970   5.868   0.081   3.612
 6009TIP3    H217971   5.868   0.206   3.526
 6010TIP3   OH217972   5.457   3.078   2.691
 6010TIP3    H117973   5.479   3.008   2.753
 6010TIP3    H217974   5.541   3.119   2.672
 6011TIP3   OH217975   1.409   3.936   0.785
 6011TIP3    H117976   1.354   3.968   0.713
 6011TIP3    H217977   1.452   4.015   0.819
 6012TIP3   OH217978   7.542   7.551   5.381
 6012TIP3    H117979   7.513   7.497   5.455
 6012TIP3    H217980   7.468   7.608   5.362
 6013TIP3   OH217981   2.908   6.713   0.298
 6013TIP3    H117982   2.837   6.712   0.234
 6013TIP3    H217983   2.867   6.691   0.381
 6014TIP3   OH217984   2.449   0.599   5.875
 6014TIP3    H117985   2.369   0.646   5.899
 6014TIP3    H217986   2.461   0.617   5.782
 6015TIP3   OH217987   6.752   1.708   2.836
 6015TIP3    H117988   6.678   1.767   2.851
 6015TIP3    H217989   6.738   1.635   2.896
 6016TIP3   OH217990   1.150   7.283   3.016
 6016TIP3    H117991   1.164   7.219   2.946
 6016TIP3    H217992   1.089   7.241   3.076
 6017TIP3   OH217993   2.680   7.760   1.584
 6017TIP3    H117994   2.660   7.764   1.678
 6017TIP3    H217995   2.602   7.795   1.542
 6018TIP3   OH217996   0.134   3.884   5.114
 6018TIP3    H117997   0.105   3.934   5.190
 6018TIP3    H217998   0.097   3.796   5.127
 6019TIP3   OH217999   4.558   2.144   3.598
 6019TIP3    H118000   4.473   2.176   3.630
 6019TIP3    H218001   4.572   2.062   3.645
 6020TIP3   OH218002   1.445   4.954   2.083
 6020TIP3    H118003   1.442   4.860   2.064
 6020TIP3    H218004   1.407   4.961   2.171
 6021TIP3   OH218005   3.543   4.737   5.273
 6021TIP3    H118006   3.630   4.715   5.305
 6021TIP3    H218007   3.529   4.679   5.198
 6022TIP3   OH218008   5.480   5.827   4.832
 6022TIP3    H118009   5.566   5.865   4.852
 6022TIP3    H218010   5.475   5.750   4.889
 6023TIP3   OH218011   6.595   4.812   2.625
 6023TIP3    H118012   6.501   4.815   2.640
 6023TIP3    H218013   6.605   4.813   2.530
 6024TIP3   OH218014   7.889   3.639   4.356
 6024TIP3    H118015   7.918   3.703   4.292
 6024TIP3    H218016   7.934   3.664   4.437
 6025TIP3   OH218017   2.288   5.085   2.727
 6025TIP3    H118018   2.361   5.088   2.665
 6025TIP3    H218019   2.233   5.014   2.695
 6026TIP3   OH218020   4.605   7.344   5.016
 6026TIP3    H118021   4.668   7.394   5.069
 6026TIP3    H218022   4.659   7.281   4.967
 6027TIP3   OH218023   2.062   6.780   4.488
 6027TIP3    H118024   2.113   6.748   4.562
 6027TIP3    H218025   2.126   6.792   4.418
 6028TIP3   OH218026   0.485   0.080   1.235
 6028TIP3    H118027   0.464   0.042   1.149
 6028TIP3    H218028   0.402   0.114   1.267
 6029TIP3   OH218029   6.275   3.665   3.247
 6029TIP3    H118030   6.306   3.670   3.156
 6029TIP3    H218031   6.181   3.655   3.240
 6030TIP3   OH218032   2.799   4.801   6.651
 6030TIP3    H118033   2.840   4.841   6.728
 6030TIP3    H218034   2.870   4.796   6.586
 6031TIP3   OH218035   4.823   6.854   5.476
 6031TIP3    H118036   4.831   6.935   5.426
 6031TIP3    H218037   4.738   6.818   5.451
 6032TIP3   OH218038   6.123   0.547   0.947
 6032TIP3    H118039   6.186   0.610   0.912
 6032TIP3    H218040   6.039   0.592   0.945
 6033TIP3   OH218041   0.612   4.896   3.697
 6033TIP3    H118042   0.617   4.815   3.647
 6033TIP3    H218043   0.584   4.962   3.633
 6034TIP3   OH218044   1.824   5.701   0.570
 6034TIP3    H118045   1.832   5.788   0.531
 6034TIP3    H218046   1.757   5.658   0.518
 6035TIP3   OH218047   5.651   0.236   3.027
 6035TIP3    H118048   5.738   0.274   3.013
 6035TIP3    H218049   5.590   0.298   2.988
 6036TIP3   OH218050   7.424   5.405   6.271
 6036TIP3    H118051   7.473   5.458   6.209
 6036TIP3    H218052   7.459   5.316   6.261
 6037TIP3   OH218053   6.339   0.137   4.973
 6037TIP3    H118054   6.427   0.151   4.938
 6037TIP3    H218055   6.340   0.182   5.057
 6038TIP3   OH218056   5.654   6.500   5.417
 6038TIP3    H118057   5.595   6.560   5.463
 6038TIP3    H218058   5.608   6.478   5.336
 6039TIP3   OH218059   7.364   3.390   6.602
 6039TIP3    H118060   7.382   3.471   6.554
 6039TIP3    H218061   7.423   3.393   6.677
 6040TIP3   OH218062   6.807   1.976   5.495
 6040TIP3    H118063   6.872   2.045   5.485
 6040TIP3    H218064   6.744   2.011   5.559
 6041TIP3   OH218065   0.981   4.248   4.369
 6041TIP3    H118066   0.989   4.306   4.445
 6041TIP3    H218067   0.888   4.226   4.366
 6042TIP3   OH218068   0.513   0.401   0.021
 6042TIP3    H118069   0.459   0.395  -0.058
 6042TIP3    H218070   0.596   0.360  -0.004
 6043TIP3   OH218071   6.741   2.853   0.530
 6043TIP3    H118072   6.751   2.758   0.533
 6043TIP3    H218073   6.807   2.883   0.468
 6044TIP3   OH218074   6.296   5.761   6.086
 6044TIP3    H118075   6.314   5.683   6.033
 6044TIP3    H218076   6.221   5.737   6.140
 6045TIP3   OH218077   6.653   3.715   3.199
 6045TIP3    H118078   6.748   3.724   3.198
 6045TIP3    H218079   6.630   3.695   3.108
 6046TIP3   OH218080   6.193   1.837   3.733
 6046TIP3    H118081   6.211   1.902   3.800
 6046TIP3    H218082   6.097   1.831   3.730
 6047TIP3   OH218083   0.749   4.483   5.764
 6047TIP3    H118084   0.664   4.508   5.728
 6047TIP3    H218085   0.728   4.434   5.844
 6048TIP3   OH218086   7.869   4.739   4.387
 6048TIP3    H118087   7.880   4.733   4.292
 6048TIP3    H218088   7.919   4.665   4.421
 6049TIP3   OH218089   6.306   6.565   4.916
 6049TIP3    H118090   6.312   6.496   4.849
 6049TIP3    H218091   6.290   6.518   4.998
 6050TIP3   OH218092   8.246   2.539   6.447
 6050TIP3    H118093   8.163   2.505   6.414
 6050TIP3    H218094   8.290   2.462   6.483
 6051TIP3   OH218095   0.111   5.203   3.527
 6051TIP3    H118096   0.024   5.214   3.566
 6051TIP3    H218097   0.159   5.150   3.591
 6052TIP3   OH218098   5.006   0.289   0.545
 6052TIP3    H118099   4.921   0.319   0.578
 6052TIP3    H218100   4.990   0.200   0.514
 6053TIP3   OH218101   7.564   0.759   5.065
 6053TIP3    H118102   7.478   0.799   5.079
 6053TIP3    H218103   7.562   0.729   4.974
 6054TIP3   OH218104   1.312   6.358   1.120
 6054TIP3    H118105   1.364   6.307   1.058
 6054TIP3    H218106   1.279   6.294   1.183
 6055TIP3   OH218107   3.869   6.861   0.276
 6055TIP3    H118108   3.821   6.811   0.341
 6055TIP3    H218109   3.807   6.869   0.203
 6056TIP3   OH218110   0.713   3.879   2.078
 6056TIP3    H118111   0.791   3.912   2.033
 6056TIP3    H218112   0.643   3.887   2.013
 6057TIP3   OH218113   7.394   1.280   5.391
 6057TIP3    H118114   7.454   1.311   5.460
 6057TIP3    H218115   7.443   1.290   5.310
 6058TIP3   OH218116   1.944   4.941   2.279
 6058TIP3    H118117   1.890   4.977   2.209
 6058TIP3    H218118   1.955   5.013   2.341
 6059TIP3   OH218119   3.842   0.590   1.265
 6059TIP3    H118120   3.794   0.637   1.333
 6059TIP3    H218121   3.917   0.647   1.245
 6060TIP3   OH218122   6.046   6.230   4.369
 6060TIP3    H118123   5.981   6.291   4.334
 6060TIP3    H218124   5.994   6.155   4.400
 6061TIP3   OH218125   1.776   3.269   6.249
 6061TIP3    H118126   1.837   3.204   6.285
 6061TIP3    H218127   1.762   3.241   6.159
 6062TIP3   OH218128   5.970   0.244   1.985
 6062TIP3    H118129   5.965   0.334   2.019
 6062TIP3    H218130   5.960   0.189   2.063
 6063TIP3   OH218131   6.619   0.931   1.413
 6063TIP3    H118132   6.538   0.900   1.372
 6063TIP3    H218133   6.597   1.019   1.444
 6064TIP3   OH218134   7.411   6.172   1.944
 6064TIP3    H118135   7.436   6.185   1.852
 6064TIP3    H218136   7.316   6.177   1.944
 6065TIP3   OH218137   1.089   3.296   1.139
 6065TIP3    H118138   1.163   3.259   1.186
 6065TIP3    H218139   1.106   3.276   1.047
 6066TIP3   OH218140   7.013   0.477   1.138
 6066TIP3    H118141   6.983   0.519   1.218
 6066TIP3    H218142   6.941   0.420   1.112
 6067TIP3   OH218143   7.036   0.685   5.855
 6067TIP3    H118144   7.024   0.738   5.934
 6067TIP3    H218145   7.009   0.597   5.881
 6068TIP3   OH218146   7.965   6.060   2.395
 6068TIP3    H118147   7.956   6.144   2.350
 6068TIP3    H218148   7.919   5.997   2.339
 6069TIP3   OH218149   7.426   0.222   4.284
 6069TIP3    H118150   7.495   0.218   4.218
 6069TIP3    H218151   7.381   0.138   4.278
 6070TIP3   OH218152   2.970   1.007   4.091
 6070TIP3    H118153   3.007   1.018   4.003
 6070TIP3    H218154   3.046   0.989   4.146
 6071TIP3   OH218155   7.274   0.401   1.186
 6071TIP3    H118156   7.184   0.432   1.172
 6071TIP3    H218157   7.308   0.383   1.098
 6072TIP3   OH218158   4.496   4.609   2.700
 6072TIP3    H118159   4.456   4.695   2.715
 6072TIP3    H218160   4.422   4.553   2.676
 6073TIP3   OH218161   7.687   2.854   0.567
 6073TIP3    H118162   7.761   2.869   0.626
 6073TIP3    H218163   7.614   2.833   0.625
 6074TIP3   OH218164   1.620   1.886   4.366
 6074TIP3    H118165   1.673   1.880   4.287
 6074TIP3    H218166   1.644   1.970   4.405
 6075TIP3   OH218167   6.448   2.819   4.092
 6075TIP3    H118168   6.543   2.806   4.099
 6075TIP3    H218169   6.411   2.731   4.092
 6076TIP3   OH218170   6.676   0.961   3.197
 6076TIP3    H118171   6.658   0.906   3.122
 6076TIP3    H218172   6.770   0.951   3.214
 6077TIP3   OH218173   7.161   0.878   2.742
 6077TIP3    H118174   7.186   0.883   2.650
 6077TIP3    H218175   7.109   0.957   2.757
 6078TIP3   OH218176   2.188   7.495   5.837
 6078TIP3    H118177   2.097   7.471   5.850
 6078TIP3    H218178   2.231   7.414   5.811
 6079TIP3   OH218179   7.816   1.731   5.430
 6079TIP3    H118180   7.868   1.690   5.499
 6079TIP3    H218181   7.852   1.820   5.423
 6080TIP3   OH218182   0.463   6.174   2.293
 6080TIP3    H118183   0.518   6.097   2.305
 6080TIP3    H218184   0.518   6.247   2.321
 6081TIP3   OH218185   4.392   2.222   3.358
 6081TIP3    H118186   4.465   2.192   3.304
 6081TIP3    H218187   4.431   2.241   3.444
 6082TIP3   OH218188   4.625   2.707   1.497
 6082TIP3    H118189   4.581   2.664   1.570
 6082TIP3    H218190   4.587   2.795   1.494
 6083TIP3   OH218191   0.917   1.073   3.236
 6083TIP3    H118192   0.839   1.059   3.290
 6083TIP3    H218193   0.980   1.116   3.295
 6084TIP3   OH218194   2.907   7.039   0.353
 6084TIP3    H118195   2.973   6.991   0.303
 6084TIP3    H218196   2.957   7.087   0.419
 6085TIP3   OH218197   6.812   4.106   6.636
 6085TIP3    H118198   6.766   4.030   6.672
 6085TIP3    H218199   6.841   4.078   6.549
 6086TIP3   OH218200   0.479   0.876   3.327
 6086TIP3    H118201   0.490   0.956   3.276
 6086TIP3    H218202   0.568   0.853   3.355
 6087TIP3   OH218203   6.028   5.761   1.991
 6087TIP3    H118204   6.021   5.849   1.954
 6087TIP3    H218205   6.055   5.775   2.082
 6088TIP3   OH218206   6.274   2.474   4.607
 6088TIP3    H118207   6.325   2.396   4.585
 6088TIP3    H218208   6.260   2.518   4.523
 6089TIP3   OH218209   7.861   3.645  -0.064
 6089TIP3    H118210   7.900   3.582  -0.002
 6089TIP3    H218211   7.831   3.717  -0.009
 6090TIP3   OH218212   5.770   6.241   2.680
 6090TIP3    H118213   5.761   6.180   2.607
 6090TIP3    H218214   5.684   6.240   2.722
 6091TIP3   OH218215   4.446   6.522   6.165
 6091TIP3    H118216   4.499   6.444   6.176
 6091TIP3    H218217   4.484   6.585   6.226
 6092TIP3   OH218218   2.087   4.797   1.706
 6092TIP3    H118219   2.052   4.842   1.783
 6092TIP3    H218220   2.122   4.868   1.651
 6093TIP3   OH218221   5.510   0.965   5.869
 6093TIP3    H118222   5.484   1.033   5.930
 6093TIP3    H218223   5.580   1.004   5.817
 6094TIP3   OH218224   5.046   4.911   1.921
 6094TIP3    H118225   4.962   4.894   1.963
 6094TIP3    H218226   5.086   4.824   1.910
 6095TIP3   OH218227   1.054   2.421   2.518
 6095TIP3    H118228   1.057   2.389   2.428
 6095TIP3    H218229   1.020   2.510   2.510
 6096TIP3   OH218230   0.108   5.924   3.242
 6096TIP3    H118231   0.064   5.946   3.160
 6096TIP3    H218232   0.172   5.857   3.218
 6097TIP3   OH218233   2.235   0.736   5.952
 6097TIP3    H118234   2.178   0.738   6.029
 6097TIP3    H218235   2.233   0.825   5.918
 6098TIP3   OH218236   0.840   7.201   0.405
 6098TIP3    H118237   0.886   7.238   0.480
 6098TIP3    H218238   0.878   7.114   0.393
 6099TIP3   OH218239   6.924   6.992   6.731
 6099TIP3    H118240   6.917   7.057   6.661
 6099TIP3    H218241   6.963   6.916   6.690
 6100TIP3   OH218242   3.620   0.991   4.036
 6100TIP3    H118243   3.687   1.058   4.046
 6100TIP3    H218244   3.670   0.909   4.024
 6101TIP3   OH218245   5.667   6.558   1.436
 6101TIP3    H118246   5.645   6.553   1.529
 6101TIP3    H218247   5.583   6.578   1.393
 6102TIP3   OH218248   0.433   5.069   3.260
 6102TIP3    H118249   0.453   5.114   3.178
 6102TIP3    H218250   0.438   5.137   3.327
 6103TIP3   OH218251   1.954   7.856   4.691
 6103TIP3    H118252   1.904   7.810   4.623
 6103TIP3    H218253   2.045   7.831   4.675
 6104TIP3   OH218254   6.458   6.851   2.670
 6104TIP3    H118255   6.545   6.862   2.634
 6104TIP3    H218256   6.469   6.858   2.765
 6105TIP3   OH218257   4.767   1.444   1.018
 6105TIP3    H118258   4.757   1.352   0.995
 6105TIP3    H218259   4.831   1.443   1.090
 6106TIP3   OH218260   7.737   6.473   4.364
 6106TIP3    H118261   7.700   6.511   4.444
 6106TIP3    H218262   7.832   6.481   4.375
 6107TIP3   OH218263   4.025   0.426   3.710
 6107TIP3    H118264   4.116   0.433   3.683
 6107TIP3    H218265   4.027   0.365   3.784
 6108TIP3   OH218266   6.454   5.053   5.654
 6108TIP3    H118267   6.380   5.062   5.594
 6108TIP3    H218268   6.508   4.984   5.615
 6109TIP3   OH218269   8.101   7.616   4.311
 6109TIP3    H118270   8.044   7.540   4.318
 6109TIP3    H218271   8.112   7.647   4.401
 6110TIP3   OH218272   3.721   6.706   5.916
 6110TIP3    H118273   3.782   6.697   5.843
 6110TIP3    H218274   3.744   6.635   5.976
 6111TIP3   OH218275   5.026   5.777   2.041
 6111TIP3    H118276   5.053   5.777   2.133
 6111TIP3    H218277   4.964   5.706   2.034
 6112TIP3   OH218278   5.536   0.550   5.027
 6112TIP3    H118279   5.461   0.579   5.078
 6112TIP3    H218280   5.599   0.519   5.092
 6113TIP3   OH218281   2.500   6.738   2.585
 6113TIP3    H118282   2.456   6.819   2.561
 6113TIP3    H218283   2.430   6.673   2.592
 6114TIP3   OH218284   2.370   0.102   1.492
 6114TIP3    H118285   2.445   0.145   1.534
 6114TIP3    H218286   2.384   0.009   1.508
 6115TIP3   OH218287   5.468   1.321   1.219
 6115TIP3    H118288   5.508   1.275   1.145
 6115TIP3    H218289   5.376   1.293   1.217
 6116TIP3   OH218290   5.488   2.035  -0.001
 6116TIP3    H118291   5.532   1.960   0.040
 6116TIP3    H218292   5.429   1.996  -0.066
 6117TIP3   OH218293   6.491   7.038   3.700
 6117TIP3    H118294   6.423   7.102   3.720
 6117TIP3    H218295   6.514   6.999   3.784
 6118TIP3   OH218296   0.584   0.172   3.665
 6118TIP3    H118297   0.515   0.225   3.703
 6118TIP3    H218298   0.656   0.176   3.729
 6119TIP3   OH218299   8.195   0.346   5.504
 6119TIP3    H118300   8.206   0.329   5.410
 6119TIP3    H218301   8.253   0.421   5.521
 6120TIP3   OH218302   3.915   3.732   1.392
 6120TIP3    H118303   3.894   3.682   1.471
 6120TIP3    H218304   3.941   3.818   1.425
 6121TIP3   OH218305   7.499   1.655   1.770
 6121TIP3    H118306   7.581   1.658   1.721
 6121TIP3    H218307   7.436   1.700   1.713
 6122TIP3   OH218308   5.170   5.482   6.676
 6122TIP3    H118309   5.239   5.441   6.623
 6122TIP3    H218310   5.216   5.515   6.753
 6123TIP3   OH218311   2.460   5.376   5.169
 6123TIP3    H118312   2.461   5.471   5.180
 6123TIP3    H218313   2.553   5.352   5.164
 6124TIP3   OH218314   3.354   4.834   2.183
 6124TIP3    H118315   3.411   4.766   2.146
 6124TIP3    H218316   3.301   4.788   2.248
 6125TIP3   OH218317   6.297   3.321   1.835
 6125TIP3    H118318   6.230   3.343   1.770
 6125TIP3    H218319   6.379   3.350   1.795
 6126TIP3   OH218320   1.436   2.655   4.255
 6126TIP3    H118321   1.500   2.673   4.186
 6126TIP3    H218322   1.409   2.742   4.285
 6127TIP3   OH218323   6.820   6.618   3.305
 6127TIP3    H118324   6.754   6.680   3.338
 6127TIP3    H218325   6.781   6.532   3.319
 6128TIP3   OH218326   3.405   2.674   3.644
 6128TIP3    H118327   3.495   2.704   3.642
 6128TIP3    H218328   3.391   2.647   3.735
 6129TIP3   OH218329   3.050   2.099   2.068
 6129TIP3    H118330   3.041   2.185   2.110
 6129TIP3    H218331   3.050   2.118   1.975
 6130TIP3   OH218332   3.491   2.757   1.818
 6130TIP3    H118333   3.483   2.669   1.782
 6130TIP3    H218334   3.561   2.750   1.883
 6131TIP3   OH218335   5.731   3.490   2.753
 6131TIP3    H118336   5.725   3.584   2.769
 6131TIP3    H218337   5.791   3.458   2.820
 6132TIP3   OH218338   6.893   4.405   3.318
 6132TIP3    H118339   6.870   4.463   3.245
 6132TIP3    H218340   6.894   4.462   3.395
 6133TIP3   OH218341   5.829   3.834   0.851
 6133TIP3    H118342   5.782   3.851   0.769
 6133TIP3    H218343   5.916   3.873   0.837
 6134TIP3   OH218344   3.596   7.035   3.858
 6134TIP3    H118345   3.524   7.076   3.906
 6134TIP3    H218346   3.649   7.109   3.827
 6135TIP3   OH218347   4.112   0.059   0.850
 6135TIP3    H118348   4.138   0.132   0.906
 6135TIP3    H218349   4.155  -0.017   0.887
 6136TIP3   OH218350   2.234   3.518   2.477
 6136TIP3    H118351   2.240   3.573   2.399
 6136TIP3    H218352   2.148   3.538   2.514
 6137TIP3   OH218353   2.460   4.131   2.132
 6137TIP3    H118354   2.436   4.066   2.198
 6137TIP3    H218355   2.549   4.157   2.155
 6138TIP3   OH218356   5.051   5.638   1.050
 6138TIP3    H118357   5.123   5.693   1.080
 6138TIP3    H218358   5.027   5.587   1.128
 6139TIP3   OH218359   5.661   3.321   6.054
 6139TIP3    H118360   5.650   3.316   6.148
 6139TIP3    H218361   5.608   3.249   6.019
 6140TIP3   OH218362   0.771   0.597   5.616
 6140TIP3    H118363   0.857   0.584   5.575
 6140TIP3    H218364   0.718   0.523   5.586
 6141TIP3   OH218365   1.796   7.077   6.040
 6141TIP3    H118366   1.773   7.089   5.948
 6141TIP3    H218367   1.717   7.041   6.081
 6142TIP3   OH218368   5.895   4.232   3.743
 6142TIP3    H118369   5.988   4.255   3.743
 6142TIP3    H218370   5.856   4.293   3.805
 6143TIP3   OH218371   0.399   7.181   4.526
 6143TIP3    H118372   0.414   7.090   4.554
 6143TIP3    H218373   0.314   7.178   4.483
 6144TIP3   OH218374   4.211   1.661   2.044
 6144TIP3    H118375   4.271   1.708   2.101
 6144TIP3    H218376   4.132   1.648   2.097
 6145TIP3   OH218377   7.541   6.248   6.614
 6145TIP3    H118378   7.452   6.278   6.633
 6145TIP3    H218379   7.571   6.207   6.695
 6146TIP3   OH218380   2.249   4.751   3.637
 6146TIP3    H118381   2.254   4.803   3.556
 6146TIP3    H218382   2.263   4.661   3.607
 6147TIP3   OH218383   6.576   2.361   5.721
 6147TIP3    H118384   6.496   2.393   5.680
 6147TIP3    H218385   6.546   2.311   5.797
 6148TIP3   OH218386   3.486   3.186   4.402
 6148TIP3    H118387   3.499   3.137   4.483
 6148TIP3    H218388   3.426   3.133   4.350
 6149TIP3   OH218389   1.528   4.101   6.069
 6149TIP3    H118390   1.576   4.019   6.061
 6149TIP3    H218391   1.561   4.155   5.997
 6150TIP3   OH218392   6.186   7.556   0.250
 6150TIP3    H118393   6.261   7.535   0.195
 6150TIP3    H218394   6.115   7.574   0.188
 6151TIP3   OH218395   8.005   5.452   3.560
 6151TIP3    H118396   7.962   5.458   3.475
 6151TIP3    H218397   7.948   5.396   3.613
 6152TIP3   OH218398   0.456   2.168   6.205
 6152TIP3    H118399   0.498   2.254   6.209
 6152TIP3    H218400   0.474   2.137   6.116
 6153TIP3   OH218401   5.162   4.372   0.344
 6153TIP3    H118402   5.145   4.428   0.420
 6153TIP3    H218403   5.161   4.283   0.380
 6154TIP3   OH218404   5.401   3.459   2.165
 6154TIP3    H118405   5.440   3.487   2.082
 6154TIP3    H218406   5.388   3.539   2.214
 6155TIP3   OH218407   4.466   4.729   3.625
 6155TIP3    H118408   4.524   4.664   3.665
 6155TIP3    H218409   4.424   4.683   3.553
 6156TIP3   OH218410   2.425   0.461   4.417
 6156TIP3    H118411   2.500   0.521   4.420
 6156TIP3    H218412   2.354   0.511   4.458
 6157TIP3   OH218413   6.549   4.747   3.495
 6157TIP3    H118414   6.492   4.803   3.547
 6157TIP3    H218415   6.507   4.743   3.409
 6158TIP3   OH218416   5.751   2.440   2.864
 6158TIP3    H118417   5.735   2.513   2.804
 6158TIP3    H218418   5.667   2.428   2.910
 6159TIP3   OH218419   2.282   6.255   5.406
 6159TIP3    H118420   2.233   6.290   5.481
 6159TIP3    H218421   2.267   6.161   5.410
 6160TIP3   OH218422   7.284   5.733   5.826
 6160TIP3    H118423   7.198   5.690   5.826
 6160TIP3    H218424   7.343   5.668   5.865
 6161TIP3   OH218425   6.039   7.682   2.387
 6161TIP3    H118426   5.959   7.629   2.380
 6161TIP3    H218427   6.048   7.699   2.480
 6162TIP3   OH218428   0.747   2.360   0.548
 6162TIP3    H118429   0.821   2.305   0.573
 6162TIP3    H218430   0.731   2.340   0.456
 6163TIP3   OH218431   1.722   3.011   5.598
 6163TIP3    H118432   1.737   2.948   5.528
 6163TIP3    H218433   1.718   3.096   5.554
 6164TIP3   OH218434   5.532   6.970   3.895
 6164TIP3    H118435   5.502   6.932   3.813
 6164TIP3    H218436   5.482   6.924   3.963
 6165TIP3   OH218437   6.685   3.272   3.327
 6165TIP3    H118438   6.748   3.338   3.295
 6165TIP3    H218439   6.739   3.198   3.352
 6166TIP3   OH218440   5.075   0.679   5.338
 6166TIP3    H118441   4.996   0.726   5.310
 6166TIP3    H218442   5.127   0.746   5.382
 6167TIP3   OH218443   8.244   3.298   0.367
 6167TIP3    H118444   8.177   3.255   0.313
 6167TIP3    H218445   8.319   3.240   0.363
 6168TIP3   OH218446   3.145   6.266   3.671
 6168TIP3    H118447   3.053   6.291   3.678
 6168TIP3    H218448   3.145   6.194   3.608
 6169TIP3   OH218449   7.892   0.964   5.075
 6169TIP3    H118450   7.887   0.918   4.991
 6169TIP3    H218451   7.859   0.901   5.139
 6170TIP3   OH218452   4.111   6.525   5.510
 6170TIP3    H118453   4.187   6.581   5.491
 6170TIP3    H218454   4.144   6.436   5.496
 6171TIP3   OH218455   0.851   1.536   5.547
 6171TIP3    H118456   0.836   1.490   5.465
 6171TIP3    H218457   0.946   1.546   5.552
 6172TIP3   OH218458   6.697   7.772   2.003
 6172TIP3    H118459   6.792   7.781   2.003
 6172TIP3    H218460   6.676   7.735   1.917
 6173TIP3   OH218461   4.385   5.917   6.663
 6173TIP3    H118462   4.425   5.862   6.731
 6173TIP3    H218463   4.299   5.877   6.648
 6174TIP3   OH218464   4.140   3.441   5.020
 6174TIP3    H118465   4.197   3.363   5.016
 6174TIP3    H218466   4.106   3.449   4.931
 6175TIP3   OH218467   1.678   0.260   3.351
 6175TIP3    H118468   1.682   0.238   3.258
 6175TIP3    H218469   1.764   0.237   3.384
 6176TIP3   OH218470   5.344   6.097   4.568
 6176TIP3    H118471   5.439   6.103   4.576
 6176TIP3    H218472   5.327   6.100   4.474
 6177TIP3   OH218473   7.686   7.055   6.046
 6177TIP3    H118474   7.774   7.094   6.049
 6177TIP3    H218475   7.702   6.961   6.036
 6178TIP3   OH218476   6.619   4.028   0.203
 6178TIP3    H118477   6.706   4.015   0.240
 6178TIP3    H218478   6.634   4.072   0.119
 6179TIP3   OH218479   1.870   5.474   3.895
 6179TIP3    H118480   1.853   5.497   3.804
 6179TIP3    H218481   1.963   5.450   3.897
 6180TIP3   OH218482   6.065   5.239   2.642
 6180TIP3    H118483   6.159   5.251   2.628
 6180TIP3    H218484   6.032   5.206   2.558
 6181TIP3   OH218485   0.894   4.799   0.283
 6181TIP3    H118486   0.879   4.705   0.270
 6181TIP3    H218487   0.819   4.828   0.336
 6182TIP3   OH218488   5.648   5.235   4.273
 6182TIP3    H118489   5.556   5.232   4.247
 6182TIP3    H218490   5.695   5.261   4.194
 6183TIP3   OH218491   1.814   0.560   1.415
 6183TIP3    H118492   1.871   0.483   1.413
 6183TIP3    H218493   1.814   0.592   1.325
 6184TIP3   OH218494   1.679   1.896   2.946
 6184TIP3    H118495   1.656   1.836   3.018
 6184TIP3    H218496   1.733   1.963   2.986
 6185TIP3   OH218497   2.659   6.037   6.424
 6185TIP3    H118498   2.640   6.007   6.514
 6185TIP3    H218499   2.599   6.110   6.410
 6186TIP3   OH218500   5.427   2.884   5.309
 6186TIP3    H118501   5.383   2.837   5.379
 6186TIP3    H218502   5.402   2.836   5.229
 6187TIP3   OH218503   2.816   5.126   2.334
 6187TIP3    H118504   2.781   5.054   2.281
 6187TIP3    H218505   2.890   5.159   2.284
 6188TIP3   OH218506   0.713   1.761   5.459
 6188TIP3    H118507   0.747   1.680   5.498
 6188TIP3    H218508   0.776   1.828   5.483
 6189TIP3   OH218509   6.153   4.860   3.048
 6189TIP3    H118510   6.151   4.771   3.012
 6189TIP3    H218511   6.062   4.876   3.075
 6190TIP3   OH218512   5.528   7.079   6.197
 6190TIP3    H118513   5.545   7.159   6.148
 6190TIP3    H218514   5.435   7.060   6.181
 6191TIP3   OH218515   5.406   0.719   4.476
 6191TIP3    H118516   5.375   0.634   4.508
 6191TIP3    H218517   5.327   0.774   4.475
 6192TIP3   OH218518   3.060   5.882   3.997
 6192TIP3    H118519   3.026   5.797   4.024
 6192TIP3    H218520   3.092   5.868   3.908
 6193TIP3   OH218521   2.501   6.805   6.042
 6193TIP3    H118522   2.499   6.814   5.947
 6193TIP3    H218523   2.448   6.878   6.074
 6194TIP3   OH218524   3.584   7.285   5.682
 6194TIP3    H118525   3.580   7.339   5.761
 6194TIP3    H218526   3.664   7.315   5.637
 6195TIP3   OH218527   1.666   3.626   4.774
 6195TIP3    H118528   1.656   3.571   4.852
 6195TIP3    H218529   1.726   3.696   4.803
 6196TIP3   OH218530   6.176   0.630   0.077
 6196TIP3    H118531   6.263   0.642   0.037
 6196TIP3    H218532   6.182   0.674   0.161
 6197TIP3   OH218533   4.260   0.480   1.050
 6197TIP3    H118534   4.313   0.526   0.985
 6197TIP3    H218535   4.170   0.496   1.023
 6198TIP3   OH218536   2.295   0.744   2.694
 6198TIP3    H118537   2.319   0.703   2.778
 6198TIP3    H218538   2.220   0.694   2.664
 6199TIP3   OH218539   0.386   0.608   0.341
 6199TIP3    H118540   0.308   0.644   0.382
 6199TIP3    H218541   0.355   0.570   0.259
 6200TIP3   OH218542   1.252   4.074   5.999
 6200TIP3    H118543   1.256   4.167   5.973
 6200TIP3    H218544   1.343   4.046   6.003
 6201TIP3   OH218545   3.916   4.567   0.271
 6201TIP3    H118546   3.938   4.649   0.229
 6201TIP3    H218547   3.840   4.587   0.325
 6202TIP3   OH218548   4.197   1.247   5.319
 6202TIP3    H118549   4.269   1.276   5.375
 6202TIP3    H218550   4.138   1.322   5.316
 6203TIP3   OH218551   5.720   0.583   4.009
 6203TIP3    H118552   5.763   0.664   4.036
 6203TIP3    H218553   5.702   0.595   3.915
 6204TIP3   OH218554   8.176   1.054   6.003
 6204TIP3    H118555   8.239   1.118   6.037
 6204TIP3    H218556   8.174   0.986   6.071
 6205TIP3   OH218557   4.039   3.409   3.750
 6205TIP3    H118558   4.029   3.327   3.798
 6205TIP3    H218559   4.042   3.476   3.818
 6206TIP3   OH218560   4.677   2.067   2.109
 6206TIP3    H118561   4.631   2.149   2.093
 6206TIP3    H218562   4.670   2.054   2.204
 6207TIP3   OH218563   5.628   0.284   2.527
 6207TIP3    H118564   5.544   0.279   2.573
 6207TIP3    H218565   5.623   0.215   2.461
 6208TIP3   OH218566   8.258   5.312   1.784
 6208TIP3    H118567   8.272   5.385   1.846
 6208TIP3    H218568   8.169   5.281   1.804
 6209TIP3   OH218569   4.984   7.384   3.285
 6209TIP3    H118570   4.941   7.445   3.226
 6209TIP3    H218571   4.960   7.414   3.373
 6210TIP3   OH218572   4.882   7.170   6.783
 6210TIP3    H118573   4.826   7.169   6.861
 6210TIP3    H218574   4.840   7.232   6.724
 6211TIP3   OH218575   5.075   5.794   4.358
 6211TIP3    H118576   5.096   5.741   4.435
 6211TIP3    H218577   4.981   5.806   4.362
 6212TIP3   OH218578   7.956   4.479   4.027
 6212TIP3    H118579   7.955   4.391   4.066
 6212TIP3    H218580   7.957   4.463   3.933
 6213TIP3   OH218581   7.201   2.590   0.596
 6213TIP3    H118582   7.172   2.610   0.507
 6213TIP3    H218583   7.120   2.585   0.646
 6214TIP3   OH218584   4.043   7.270   2.749
 6214TIP3    H118585   4.121   7.304   2.793
 6214TIP3    H218586   4.052   7.300   2.658
 6215TIP3   OH218587   0.431   4.580   0.199
 6215TIP3    H118588   0.350   4.529   0.195
 6215TIP3    H218589   0.426   4.626   0.282
 6216TIP3   OH218590   4.547   2.561   5.396
 6216TIP3    H118591   4.556   2.579   5.302
 6216TIP3    H218592   4.610   2.490   5.412
 6217TIP3   OH218593   2.231   6.942   0.075
 6217TIP3    H118594   2.166   7.011   0.089
 6217TIP3    H218595   2.274   6.965  -0.007
 6218TIP3   OH218596   1.161   4.175   3.185
 6218TIP3    H118597   1.192   4.168   3.095
 6218TIP3    H218598   1.178   4.266   3.209
 6219TIP3   OH218599   1.047   5.866   6.289
 6219TIP3    H118600   1.037   5.932   6.221
 6219TIP3    H218601   1.142   5.858   6.301
 6220TIP3   OH218602   1.175   1.829   1.526
 6220TIP3    H118603   1.105   1.801   1.467
 6220TIP3    H218604   1.193   1.753   1.581
 6221TIP3   OH218605   4.675   2.971   4.301
 6221TIP3    H118606   4.704   3.014   4.382
 6221TIP3    H218607   4.640   2.887   4.330
 6222TIP3   OH218608   6.118   1.603   3.997
 6222TIP3    H118609   6.052   1.557   4.049
 6222TIP3    H218610   6.162   1.661   4.060
 6223TIP3   OH218611   1.993   5.471   0.299
 6223TIP3    H118612   1.958   5.529   0.232
 6223TIP3    H218613   2.052   5.526   0.350
 6224TIP3   OH218614   5.003   1.212   6.567
 6224TIP3    H118615   5.082   1.168   6.598
 6224TIP3    H218616   4.975   1.161   6.491
 6225TIP3   OH218617   1.455   4.439   3.874
 6225TIP3    H118618   1.411   4.382   3.936
 6225TIP3    H218619   1.399   4.516   3.868
 6226TIP3   OH218620   7.956   0.507   0.096
 6226TIP3    H118621   7.979   0.414   0.103
 6226TIP3    H218622   8.034   0.553   0.127
 6227TIP3   OH218623   6.952   0.413   3.306
 6227TIP3    H118624   6.873   0.405   3.360
 6227TIP3    H218625   7.021   0.372   3.359
 6228TIP3   OH218626   4.945   2.979   5.894
 6228TIP3    H118627   4.954   3.073   5.913
 6228TIP3    H218628   5.005   2.963   5.822
 6229TIP3   OH218629   8.071   1.315   0.755
 6229TIP3    H118630   8.028   1.388   0.798
 6229TIP3    H218631   8.133   1.356   0.694
 6230TIP3   OH218632   0.732   6.529   4.329
 6230TIP3    H118633   0.807   6.588   4.333
 6230TIP3    H218634   0.748   6.464   4.397
 6231TIP3   OH218635   6.311   0.418   2.066
 6231TIP3    H118636   6.284   0.353   2.001
 6231TIP3    H218637   6.358   0.484   2.015
 6232TIP3   OH218638   6.731   7.370   0.194
 6232TIP3    H118639   6.784   7.398   0.119
 6232TIP3    H218640   6.792   7.369   0.267
 6233TIP3   OH218641   7.799   3.535   6.370
 6233TIP3    H118642   7.833   3.585   6.445
 6233TIP3    H218643   7.778   3.602   6.304
 6234TIP3   OH218644   7.640   3.009   5.255
 6234TIP3    H118645   7.626   3.070   5.327
 6234TIP3    H218646   7.596   3.049   5.180
 6235TIP3   OH218647   7.101   7.410   4.771
 6235TIP3    H118648   7.042   7.348   4.729
 6235TIP3    H218649   7.082   7.403   4.864
 6236TIP3   OH218650   0.420   3.121   1.768
 6236TIP3    H118651   0.365   3.115   1.689
 6236TIP3    H218652   0.381   3.058   1.829
 6237TIP3   OH218653   6.775   3.845   3.792
 6237TIP3    H118654   6.762   3.920   3.733
 6237TIP3    H218655   6.844   3.873   3.852
 6238TIP3   OH218656   7.049   6.316   0.659
 6238TIP3    H118657   6.966   6.359   0.683
 6238TIP3    H218658   7.111   6.388   0.649
 6239TIP3   OH218659   1.909   7.170   0.471
 6239TIP3    H118660   1.956   7.093   0.437
 6239TIP3    H218661   1.881   7.217   0.393
 6240TIP3   OH218662   1.091   3.564   1.757
 6240TIP3    H118663   1.051   3.645   1.725
 6240TIP3    H218664   1.183   3.586   1.771
 6241TIP3   OH218665   6.251   2.701   1.608
 6241TIP3    H118666   6.249   2.756   1.687
 6241TIP3    H218667   6.204   2.752   1.542
 6242TIP3   OH218668   7.206   7.062   0.286
 6242TIP3    H118669   7.283   7.059   0.230
 6242TIP3    H218670   7.207   7.151   0.322
 6243TIP3   OH218671   5.445   2.062   0.683
 6243TIP3    H118672   5.365   2.020   0.653
 6243TIP3    H218673   5.464   2.128   0.616
 6244TIP3   OH218674   6.448   7.845   3.752
 6244TIP3    H118675   6.407   7.782   3.813
 6244TIP3    H218676   6.507   7.896   3.807
 6245TIP3   OH218677   2.072   5.871   4.381
 6245TIP3    H118678   2.012   5.829   4.442
 6245TIP3    H218679   2.016   5.926   4.326
 6246TIP3   OH218680   0.249   5.446   1.232
 6246TIP3    H118681   0.160   5.469   1.208
 6246TIP3    H218682   0.286   5.525   1.271
 6247TIP3   OH218683   6.901   1.074   6.032
 6247TIP3    H118684   6.907   0.980   6.048
 6247TIP3    H218685   6.875   1.112   6.116
 6248TIP3   OH218686   0.390   6.053   0.016
 6248TIP3    H118687   0.458   6.076   0.079
 6248TIP3    H218688   0.432   6.065  -0.070
 6249TIP3   OH218689   5.668   4.811   0.426
 6249TIP3    H118690   5.746   4.756   0.420
 6249TIP3    H218691   5.619   4.791   0.346
 6250TIP3   OH218692   5.698   1.077   0.726
 6250TIP3    H118693   5.742   1.131   0.660
 6250TIP3    H218694   5.678   0.995   0.681
 6251TIP3   OH218695   1.183   4.425   3.317
 6251TIP3    H118696   1.161   4.505   3.269
 6251TIP3    H218697   1.255   4.451   3.375
 6252TIP3   OH218698   0.711   2.870   1.585
 6252TIP3    H118699   0.788   2.834   1.630
 6252TIP3    H218700   0.684   2.801   1.524
 6253TIP3   OH218701   2.355   1.702   4.533
 6253TIP3    H118702   2.296   1.661   4.469
 6253TIP3    H218703   2.300   1.767   4.577
 6254TIP3   OH218704   6.073   0.656   2.550
 6254TIP3    H118705   6.065   0.647   2.645
 6254TIP3    H218706   6.032   0.740   2.530
 6255TIP3   OH218707   2.897   4.142   3.764
 6255TIP3    H118708   2.956   4.204   3.721
 6255TIP3    H218709   2.934   4.130   3.851
 6256TIP3   OH218710   7.794   4.112   5.230
 6256TIP3    H118711   7.795   4.021   5.199
 6256TIP3    H218712   7.803   4.164   5.151
 6257TIP3   OH218713   0.735   4.105   3.850
 6257TIP3    H118714   0.667   4.143   3.908
 6257TIP3    H218715   0.742   4.014   3.879
 6258TIP3   OH218716   6.523   4.896   5.272
 6258TIP3    H118717   6.513   4.902   5.177
 6258TIP3    H218718   6.612   4.864   5.285
 6259TIP3   OH218719   6.409   7.095   3.265
 6259TIP3    H118720   6.415   7.159   3.194
 6259TIP3    H218721   6.316   7.078   3.275
 6260TIP3   OH218722   4.604   0.860   0.232
 6260TIP3    H118723   4.663   0.915   0.282
 6260TIP3    H218724   4.638   0.861   0.143
 6261TIP3   OH218725   1.604   3.746   5.446
 6261TIP3    H118726   1.537   3.756   5.379
 6261TIP3    H218727   1.578   3.667   5.495
 6262TIP3   OH218728   8.271   0.357   1.802
 6262TIP3    H118729   8.271   0.285   1.739
 6262TIP3    H218730   8.358   0.355   1.841
 6263TIP3   OH218731   5.985   3.485   6.648
 6263TIP3    H118732   6.051   3.454   6.585
 6263TIP3    H218733   5.947   3.562   6.607
 6264TIP3   OH218734   0.211   7.192   6.331
 6264TIP3    H118735   0.165   7.237   6.402
 6264TIP3    H218736   0.303   7.212   6.345
 6265TIP3   OH218737   3.474   3.812   6.483
 6265TIP3    H118738   3.556   3.766   6.467
 6265TIP3    H218739   3.485   3.855   6.567
 6266TIP3   OH218740   4.335   5.334   1.674
 6266TIP3    H118741   4.305   5.404   1.733
 6266TIP3    H218742   4.414   5.370   1.634
 6267TIP3   OH218743   2.287   2.147   1.524
 6267TIP3    H118744   2.278   2.207   1.450
 6267TIP3    H218745   2.374   2.110   1.514
 6268TIP3   OH218746   3.831   7.704   1.218
 6268TIP3    H118747   3.793   7.767   1.157
 6268TIP3    H218748   3.763   7.638   1.231
 6269TIP3   OH218749   2.203   1.729   1.903
 6269TIP3    H118750   2.274   1.696   1.957
 6269TIP3    H218751   2.232   1.816   1.874
 6270TIP3   OH218752   1.061   1.405   3.591
 6270TIP3    H118753   0.983   1.372   3.635
 6270TIP3    H218754   1.131   1.398   3.656
 6271TIP3   OH218755   7.966   5.236   4.365
 6271TIP3    H118756   7.982   5.260   4.274
 6271TIP3    H218757   8.005   5.149   4.374
 6272TIP3   OH218758   0.498   3.010   5.641
 6272TIP3    H118759   0.489   2.996   5.547
 6272TIP3    H218760   0.424   3.066   5.664
 6273TIP3   OH218761   7.598   5.870   5.398
 6273TIP3    H118762   7.660   5.942   5.413
 6273TIP3    H218763   7.575   5.878   5.305
 6274TIP3   OH218764   8.244   6.828   1.954
 6274TIP3    H118765   8.187   6.887   1.904
 6274TIP3    H218766   8.304   6.792   1.888
 6275TIP3   OH218767   1.898   1.630   1.607
 6275TIP3    H118768   1.992   1.638   1.621
 6275TIP3    H218769   1.883   1.670   1.521
 6276TIP3   OH218770   1.631   2.672   3.228
 6276TIP3    H118771   1.676   2.697   3.309
 6276TIP3    H218772   1.619   2.578   3.236
 6277TIP3   OH218773   0.680   0.752   0.673
 6277TIP3    H118774   0.612   0.816   0.695
 6277TIP3    H218775   0.739   0.752   0.749
 6278TIP3   OH218776   3.607   4.364   1.304
 6278TIP3    H118777   3.534   4.302   1.311
 6278TIP3    H218778   3.579   4.426   1.237
 6279TIP3   OH218779   2.665   3.766   1.221
 6279TIP3    H118780   2.690   3.835   1.282
 6279TIP3    H218781   2.699   3.795   1.136
 6280TIP3   OH218782   2.949   4.985   3.384
 6280TIP3    H118783   2.961   5.036   3.304
 6280TIP3    H218784   2.955   5.051   3.454
 6281TIP3   OH218785   5.210   3.811   1.809
 6281TIP3    H118786   5.296   3.778   1.834
 6281TIP3    H218787   5.191   3.881   1.872
 6282TIP3   OH218788   2.538   3.734   0.019
 6282TIP3    H118789   2.457   3.784   0.033
 6282TIP3    H218790   2.600   3.771   0.083
 6283TIP3   OH218791   3.323   0.090   1.477
 6283TIP3    H118792   3.337   0.009   1.526
 6283TIP3    H218793   3.273   0.064   1.400
 6284TIP3   OH218794   5.241   6.621   3.822
 6284TIP3    H118795   5.200   6.538   3.799
 6284TIP3    H218796   5.173   6.687   3.808
 6285TIP3   OH218797   5.442   2.622   5.782
 6285TIP3    H118798   5.452   2.528   5.796
 6285TIP3    H218799   5.368   2.629   5.721
 6286TIP3   OH218800   5.974   0.580   1.297
 6286TIP3    H118801   5.921   0.511   1.337
 6286TIP3    H218802   6.048   0.534   1.257
 6287TIP3   OH218803   7.156   2.554   6.087
 6287TIP3    H118804   7.214   2.477   6.090
 6287TIP3    H218805   7.216   2.629   6.082
 6288TIP3   OH218806   2.271   2.677   6.057
 6288TIP3    H118807   2.319   2.595   6.068
 6288TIP3    H218808   2.298   2.709   5.971
 6289TIP3   OH218809   5.778   1.715   1.920
 6289TIP3    H118810   5.750   1.747   1.834
 6289TIP3    H218811   5.697   1.711   1.972
 6290TIP3   OH218812   7.468   6.485   4.494
 6290TIP3    H118813   7.412   6.417   4.530
 6290TIP3    H218814   7.497   6.451   4.409
 6291TIP3   OH218815   4.493   6.958   4.780
 6291TIP3    H118816   4.498   6.955   4.875
 6291TIP3    H218817   4.425   7.021   4.761
 6292TIP3   OH218818   6.578   1.326   3.963
 6292TIP3    H118819   6.520   1.261   4.003
 6292TIP3    H218820   6.530   1.357   3.886
 6293TIP3   OH218821   2.020   2.491   4.485
 6293TIP3    H118822   2.079   2.471   4.557
 6293TIP3    H218823   2.045   2.580   4.458
 6294TIP3   OH218824   4.741   2.336   3.625
 6294TIP3    H118825   4.681   2.406   3.601
 6294TIP3    H218826   4.686   2.258   3.633
 6295TIP3   OH218827   7.512   2.485   6.654
 6295TIP3    H118828   7.472   2.446   6.731
 6295TIP3    H218829   7.491   2.578   6.660
 6296TIP3   OH218830   5.586   0.910   5.517
 6296TIP3    H118831   5.630   0.868   5.443
 6296TIP3    H218832   5.540   0.984   5.477
 6297TIP3   OH218833   4.460   1.251   0.236
 6297TIP3    H118834   4.443   1.343   0.216
 6297TIP3    H218835   4.463   1.208   0.151
 6298TIP3   OH218836   1.308   7.532   2.385
 6298TIP3    H118837   1.238   7.468   2.373
 6298TIP3    H218838   1.365   7.494   2.451
 6299TIP3   OH218839   5.163   0.829   6.019
 6299TIP3    H118840   5.098   0.775   5.975
 6299TIP3    H218841   5.147   0.917   5.986
 6300TIP3   OH218842   2.358   7.713   2.082
 6300TIP3    H118843   2.354   7.618   2.096
 6300TIP3    H218844   2.296   7.729   2.011
 6301TIP3   OH218845   1.028   1.037   6.310
 6301TIP3    H118846   0.973   1.099   6.262
 6301TIP3    H218847   0.967   0.971   6.342
 6302TIP3   OH218848   6.745   2.856   5.575
 6302TIP3    H118849   6.655   2.827   5.592
 6302TIP3    H218850   6.798   2.777   5.586
 6303TIP3   OH218851   7.660   7.684   4.720
 6303TIP3    H118852   7.581   7.634   4.743
 6303TIP3    H218853   7.720   7.670   4.793
 6304TIP3   OH218854   0.033   2.091   5.507
 6304TIP3    H118855   0.102   2.082   5.573
 6304TIP3    H218856  -0.037   2.139   5.551
 6305TIP3   OH218857   3.137   5.959   0.189
 6305TIP3    H118858   3.155   6.018   0.116
 6305TIP3    H218859   3.130   6.017   0.265
 6306TIP3   OH218860   6.535   7.090   5.643
 6306TIP3    H118861   6.459   7.064   5.694
 6306TIP3    H218862   6.586   7.010   5.632
 6307TIP3   OH218863   5.695   2.135   0.266
 6307TIP3    H118864   5.783   2.110   0.294
 6307TIP3    H218865   5.705   2.225   0.235
 6308TIP3   OH218866   3.573   7.028   4.517
 6308TIP3    H118867   3.498   7.051   4.463
 6308TIP3    H218868   3.591   6.936   4.496
 6309TIP3   OH218869   2.648   0.396   5.372
 6309TIP3    H118870   2.579   0.420   5.310
 6309TIP3    H218871   2.713   0.351   5.318
 6310TIP3   OH218872   4.428   7.503   5.934
 6310TIP3    H118873   4.505   7.494   5.878
 6310TIP3    H218874   4.420   7.418   5.977
 6311TIP3   OH218875   4.173   5.523   5.961
 6311TIP3    H118876   4.231   5.532   6.036
 6311TIP3    H218877   4.129   5.607   5.954
 6312TIP3   OH218878   2.624   5.484   2.126
 6312TIP3    H118879   2.531   5.497   2.108
 6312TIP3    H218880   2.662   5.467   2.040
 6313TIP3   OH218881   4.851   4.511   2.837
 6313TIP3    H118882   4.932   4.523   2.787
 6313TIP3    H218883   4.817   4.599   2.849
 6314TIP3   OH218884   7.842   4.885   5.197
 6314TIP3    H118885   7.813   4.865   5.286
 6314TIP3    H218886   7.762   4.914   5.153
 6315TIP3   OH218887   3.852   3.902   4.570
 6315TIP3    H118888   3.931   3.949   4.596
 6315TIP3    H218889   3.871   3.868   4.483
 6316TIP3   OH218890   3.824   1.113   3.106
 6316TIP3    H118891   3.803   1.199   3.141
 6316TIP3    H218892   3.770   1.105   3.027
 6317TIP3   OH218893   2.240   7.362   1.730
 6317TIP3    H118894   2.248   7.272   1.700
 6317TIP3    H218895   2.317   7.407   1.694
 6318TIP3   OH218896   7.274   6.288   0.888
 6318TIP3    H118897   7.271   6.193   0.898
 6318TIP3    H218898   7.190   6.318   0.923
 6319TIP3   OH218899   0.582   5.853   3.786
 6319TIP3    H118900   0.535   5.775   3.815
 6319TIP3    H218901   0.592   5.842   3.691
 6320TIP3   OH218902   4.655   5.333   4.312
 6320TIP3    H118903   4.644   5.327   4.407
 6320TIP3    H218904   4.698   5.417   4.298
 6321TIP3   OH218905   8.130   7.522   0.442
 6321TIP3    H118906   8.153   7.434   0.472
 6321TIP3    H218907   8.049   7.543   0.488
 6322TIP3   OH218908   6.779   4.727   4.960
 6322TIP3    H118909   6.805   4.674   4.884
 6322TIP3    H218910   6.693   4.694   4.984
 6323TIP3   OH218911   5.467   5.397   0.811
 6323TIP3    H118912   5.523   5.466   0.847
 6323TIP3    H218913   5.422   5.438   0.737
 6324TIP3   OH218914   3.325   3.895   4.838
 6324TIP3    H118915   3.257   3.911   4.904
 6324TIP3    H218916   3.363   3.811   4.864
 6325TIP3   OH218917   3.185   1.650   5.882
 6325TIP3    H118918   3.190   1.567   5.930
 6325TIP3    H218919   3.246   1.708   5.927
 6326TIP3   OH218920   1.051   6.487   4.099
 6326TIP3    H118921   1.059   6.514   4.007
 6326TIP3    H218922   1.129   6.435   4.115
 6327TIP3   OH218923   6.700   0.927   0.627
 6327TIP3    H118924   6.772   0.964   0.576
 6327TIP3    H218925   6.621   0.958   0.585
 6328TIP3   OH218926   3.563   2.671   2.315
 6328TIP3    H118927   3.482   2.721   2.310
 6328TIP3    H218928   3.622   2.715   2.254
 6329TIP3   OH218929   6.466   4.713   0.530
 6329TIP3    H118930   6.422   4.792   0.499
 6329TIP3    H218931   6.397   4.647   0.535
 6330TIP3   OH218932   1.588   4.988   5.038
 6330TIP3    H118933   1.571   4.915   4.979
 6330TIP3    H218934   1.544   5.063   4.998
 6331TIP3   OH218935   5.345   1.867   4.148
 6331TIP3    H118936   5.356   1.825   4.062
 6331TIP3    H218937   5.397   1.813   4.207
 6332TIP3   OH218938   2.575   6.262   0.898
 6332TIP3    H118939   2.564   6.357   0.903
 6332TIP3    H218940   2.609   6.237   0.984
 6333TIP3   OH218941   6.334   2.545   5.985
 6333TIP3    H118942   6.355   2.529   6.077
 6333TIP3    H218943   6.293   2.632   5.984
 6334TIP3   OH218944   1.977   1.561   2.959
 6334TIP3    H118945   1.955   1.531   2.871
 6334TIP3    H218946   1.931   1.501   3.017
 6335TIP3   OH218947   8.196   0.083   0.032
 6335TIP3    H118948   8.279   0.039   0.016
 6335TIP3    H218949   8.135   0.012   0.055
 6336TIP3   OH218950   7.806   3.253   6.263
 6336TIP3    H118951   7.754   3.274   6.186
 6336TIP3    H218952   7.827   3.338   6.303
 6337TIP3   OH218953   0.427   4.654   2.564
 6337TIP3    H118954   0.467   4.734   2.597
 6337TIP3    H218955   0.446   4.656   2.470
 6338TIP3   OH218956   3.722   6.689   3.512
 6338TIP3    H118957   3.753   6.779   3.515
 6338TIP3    H218958   3.633   6.693   3.547
 6339TIP3   OH218959   3.537   2.380   5.125
 6339TIP3    H118960   3.485   2.331   5.062
 6339TIP3    H218961   3.609   2.320   5.147
 6340TIP3   OH218962   7.026   2.066   5.789
 6340TIP3    H118963   7.033   2.060   5.694
 6340TIP3    H218964   7.112   2.039   5.821
 6341TIP3   OH218965   1.997   1.658   5.714
 6341TIP3    H118966   1.950   1.734   5.679
 6341TIP3    H218967   1.981   1.588   5.652
 6342TIP3   OH218968   8.134   1.536   5.419
 6342TIP3    H118969   8.192   1.568   5.489
 6342TIP3    H218970   8.092   1.458   5.457
 6343TIP3   OH218971   0.823   4.470   1.740
 6343TIP3    H118972   0.875   4.429   1.810
 6343TIP3    H218973   0.849   4.562   1.742
 6344TIP3   OH218974   0.495   6.209   3.814
 6344TIP3    H118975   0.459   6.272   3.876
 6344TIP3    H218976   0.544   6.147   3.869
 6345TIP3   OH218977   5.410   7.407   4.293
 6345TIP3    H118978   5.482   7.420   4.232
 6345TIP3    H218979   5.452   7.375   4.373
 6346TIP3   OH218980   1.631   1.703   4.028
 6346TIP3    H118981   1.631   1.608   4.018
 6346TIP3    H218982   1.538   1.728   4.024
 6347TIP3   OH218983   6.181   5.793   2.268
 6347TIP3    H118984   6.182   5.888   2.282
 6347TIP3    H218985   6.142   5.758   2.349
 6348TIP3   OH218986   1.546   0.488   4.383
 6348TIP3    H118987   1.474   0.443   4.429
 6348TIP3    H218988   1.614   0.421   4.375
 6349TIP3   OH218989   3.381   2.823   0.687
 6349TIP3    H118990   3.469   2.854   0.708
 6349TIP3    H218991   3.368   2.748   0.746
 6350TIP3   OH218992   1.936   0.741   6.691
 6350TIP3    H118993   1.862   0.746   6.630
 6350TIP3    H218994   1.905   0.683   6.761
 6351TIP3   OH218995   5.479   1.697   5.756
 6351TIP3    H118996   5.510   1.740   5.676
 6351TIP3    H218997   5.481   1.604   5.735
 6352TIP3   OH218998   5.612   5.523   4.520
 6352TIP3    H118999   5.589   5.434   4.548
 6352TIP3    H219000   5.560   5.537   4.441
 6353TIP3   OH219001   2.258   0.813   0.074
 6353TIP3    H119002   2.233   0.905   0.078
 6353TIP3    H219003   2.200   0.770   0.137
 6354TIP3   OH219004   4.720   5.391   0.708
 6354TIP3    H119005   4.654   5.354   0.766
 6354TIP3    H219006   4.803   5.357   0.742
 6355TIP3   OH219007   4.367   0.041   5.674
 6355TIP3    H119008   4.419   0.115   5.706
 6355TIP3    H219009   4.431  -0.026   5.652
 6356TIP3   OH219010   4.680   0.213   2.741
 6356TIP3    H119011   4.743   0.284   2.745
 6356TIP3    H219012   4.603   0.247   2.786
 6357TIP3   OH219013   4.441   7.756   2.024
 6357TIP3    H119014   4.455   7.791   2.112
 6357TIP3    H219015   4.459   7.829   1.966
 6358TIP3   OH219016   4.026   7.393   2.484
 6358TIP3    H119017   3.967   7.348   2.424
 6358TIP3    H219018   4.003   7.486   2.476
 6359TIP3   OH219019   3.203   0.542   3.321
 6359TIP3    H119020   3.265   0.604   3.282
 6359TIP3    H219021   3.152   0.509   3.247
 6360TIP3   OH219022  -0.046   0.809   5.843
 6360TIP3    H119023   0.029   0.771   5.888
 6360TIP3    H219024  -0.027   0.902   5.839
 6361TIP3   OH219025   5.966   2.103   3.795
 6361TIP3    H119026   5.970   2.131   3.703
 6361TIP3    H219027   5.980   2.008   3.792
 6362TIP3   OH219028   5.561   3.102   3.307
 6362TIP3    H119029   5.544   3.144   3.392
 6362TIP3    H219030   5.640   3.144   3.275
 6363TIP3   OH219031   2.919   1.651   3.600
 6363TIP3    H119032   2.956   1.734   3.631
 6363TIP3    H219033   2.861   1.623   3.670
 6364TIP3   OH219034   4.079   0.296   3.967
 6364TIP3    H119035   4.134   0.218   3.969
 6364TIP3    H219036   4.026   0.290   4.047
 6365TIP3   OH219037   2.157   5.097   3.167
 6365TIP3    H119038   2.196   5.028   3.113
 6365TIP3    H219039   2.089   5.135   3.111
 6366TIP3   OH219040   2.024   4.702   4.937
 6366TIP3    H119041   2.045   4.673   5.025
 6366TIP3    H219042   1.930   4.719   4.938
 6367TIP3   OH219043   2.188   0.091   0.321
 6367TIP3    H119044   2.276   0.054   0.318
 6367TIP3    H219045   2.199   0.184   0.304
 6368TIP3   OH219046   4.844   0.850   3.374
 6368TIP3    H119047   4.769   0.876   3.320
 6368TIP3    H219048   4.911   0.916   3.357
 6369TIP3   OH219049   1.706   6.935   4.963
 6369TIP3    H119050   1.696   6.949   5.057
 6369TIP3    H219051   1.633   6.984   4.924
 6370TIP3   OH219052   5.408   6.552   2.620
 6370TIP3    H119053   5.424   6.527   2.529
 6370TIP3    H219054   5.478   6.613   2.641
 6371TIP3   OH219055   2.299   3.762   2.040
 6371TIP3    H119056   2.388   3.732   2.019
 6371TIP3    H219057   2.294   3.850   2.003
 6372TIP3   OH219058   7.187   7.727   2.252
 6372TIP3    H119059   7.190   7.753   2.344
 6372TIP3    H219060   7.266   7.764   2.213
 6373TIP3   OH219061   6.213   5.932   4.538
 6373TIP3    H119062   6.296   5.917   4.584
 6373TIP3    H219063   6.190   6.023   4.558
 6374TIP3   OH219064   0.877   0.364   4.979
 6374TIP3    H119065   0.854   0.454   5.000
 6374TIP3    H219066   0.969   0.367   4.953
 6375TIP3   OH219067   7.435   5.412   3.697
 6375TIP3    H119068   7.509   5.377   3.648
 6375TIP3    H219069   7.455   5.505   3.707
 6376TIP3   OH219070   0.639   6.002   3.289
 6376TIP3    H119071   0.559   6.027   3.242
 6376TIP3    H219072   0.710   6.021   3.228
 6377TIP3   OH219073   6.225   0.634   4.579
 6377TIP3    H119074   6.147   0.579   4.582
 6377TIP3    H219075   6.291   0.585   4.628
 6378TIP3   OH219076   7.336   1.385   2.535
 6378TIP3    H119077   7.310   1.363   2.625
 6378TIP3    H219078   7.275   1.338   2.480
 6379TIP3   OH219079   7.677   4.542   4.629
 6379TIP3    H119080   7.692   4.461   4.579
 6379TIP3    H219081   7.759   4.556   4.675
 6380TIP3   OH219082   5.388   4.167   5.910
 6380TIP3    H119083   5.466   4.113   5.925
 6380TIP3    H219084   5.398   4.241   5.970
 6381TIP3   OH219085   7.076   4.213   3.342
 6381TIP3    H119086   6.998   4.266   3.327
 6381TIP3    H219087   7.073   4.192   3.435
 6382TIP3   OH219088   4.600   1.563   3.506
 6382TIP3    H119089   4.552   1.644   3.488
 6382TIP3    H219090   4.589   1.549   3.600
 6383TIP3   OH219091   7.175   1.146   3.549
 6383TIP3    H119092   7.092   1.178   3.514
 6383TIP3    H219093   7.241   1.182   3.489
 6384TIP3   OH219094   2.496   1.487   1.558
 6384TIP3    H119095   2.538   1.402   1.549
 6384TIP3    H219096   2.466   1.490   1.649
 6385TIP3   OH219097   2.420   3.312   0.848
 6385TIP3    H119098   2.439   3.227   0.808
 6385TIP3    H219099   2.425   3.296   0.942
 6386TIP3   OH219100   0.330   3.378   2.244
 6386TIP3    H119101   0.343   3.465   2.281
 6386TIP3    H219102   0.359   3.385   2.153
 6387TIP3   OH219103   5.344   3.268   4.913
 6387TIP3    H119104   5.385   3.184   4.889
 6387TIP3    H219105   5.413   3.315   4.960
 6388TIP3   OH219106   0.492   0.966   4.720
 6388TIP3    H119107   0.560   0.942   4.783
 6388TIP3    H219108   0.521   1.050   4.684
 6389TIP3   OH219109   5.574   3.912   2.031
 6389TIP3    H119110   5.583   3.962   1.951
 6389TIP3    H219111   5.636   3.952   2.092
 6390TIP3   OH219112   2.179   4.965   2.495
 6390TIP3    H119113   2.112   4.932   2.555
 6390TIP3    H219114   2.133   5.031   2.443
 6391TIP3   OH219115   7.200   1.259   3.040
 6391TIP3    H119116   7.211   1.305   3.122
 6391TIP3    H219117   7.225   1.168   3.059
 6392TIP3   OH219118   5.110   6.378   6.025
 6392TIP3    H119119   5.188   6.353   5.976
 6392TIP3    H219120   5.058   6.298   6.030
 6393TIP3   OH219121   2.366   3.519   2.930
 6393TIP3    H119122   2.319   3.440   2.960
 6393TIP3    H219123   2.438   3.529   2.992
 6394TIP3   OH219124   1.270   1.168   2.229
 6394TIP3    H119125   1.178   1.194   2.225
 6394TIP3    H219126   1.272   1.094   2.289
 6395TIP3   OH219127   6.695   6.893   1.848
 6395TIP3    H119128   6.773   6.948   1.840
 6395TIP3    H219129   6.706   6.826   1.780
 6396TIP3   OH219130   0.842   5.215   0.075
 6396TIP3    H119131   0.763   5.268   0.089
 6396TIP3    H219132   0.870   5.191   0.163
 6397TIP3   OH219133   5.484   0.460   4.098
 6397TIP3    H119134   5.490   0.403   4.174
 6397TIP3    H219135   5.566   0.446   4.051
 6398TIP3   OH219136   2.020   6.336   0.517
 6398TIP3    H119137   2.102   6.339   0.467
 6398TIP3    H219138   2.002   6.243   0.526
 6399TIP3   OH219139   7.946   7.213   1.468
 6399TIP3    H119140   7.997   7.247   1.395
 6399TIP3    H219141   7.895   7.141   1.431
 6400TIP3   OH219142   8.213   4.362   1.273
 6400TIP3    H119143   8.159   4.419   1.217
 6400TIP3    H219144   8.206   4.401   1.360
 6401TIP3   OH219145   6.512   4.538   3.300
 6401TIP3    H119146   6.443   4.605   3.294
 6401TIP3    H219147   6.547   4.531   3.212
 6402TIP3   OH219148   0.609   4.409   2.266
 6402TIP3    H119149   0.687   4.358   2.245
 6402TIP3    H219150   0.606   4.411   2.361
 6403TIP3   OH219151   1.001   1.536   5.196
 6403TIP3    H119152   0.996   1.472   5.125
 6403TIP3    H219153   0.952   1.495   5.268
 6404TIP3   OH219154   5.551   0.751   3.259
 6404TIP3    H119155   5.473   0.799   3.233
 6404TIP3    H219156   5.561   0.684   3.191
 6405TIP3   OH219157   6.071   5.412   2.856
 6405TIP3    H119158   5.982   5.414   2.890
 6405TIP3    H219159   6.063   5.372   2.769
 6406TIP3   OH219160   7.131   4.978   4.093
 6406TIP3    H119161   7.176   4.908   4.140
 6406TIP3    H219162   7.041   4.975   4.125
 6407TIP3   OH219163   1.639   1.792   3.329
 6407TIP3    H119164   1.668   1.870   3.375
 6407TIP3    H219165   1.562   1.763   3.376
 6408TIP3   OH219166   6.760   7.228   6.249
 6408TIP3    H119167   6.812   7.177   6.188
 6408TIP3    H219168   6.800   7.315   6.249
 6409TIP3   OH219169   6.753   7.721   6.069
 6409TIP3    H119170   6.774   7.637   6.027
 6409TIP3    H219171   6.687   7.760   6.012
 6410TIP3   OH219172   6.690   4.405   5.787
 6410TIP3    H119173   6.713   4.439   5.700
 6410TIP3    H219174   6.774   4.382   5.826
 6411TIP3   OH219175   5.312   0.801   1.903
 6411TIP3    H119176   5.315   0.706   1.890
 6411TIP3    H219177   5.290   0.836   1.817
 6412TIP3   OH219178   7.525   3.014   3.332
 6412TIP3    H119179   7.533   2.950   3.261
 6412TIP3    H219180   7.438   3.052   3.320
 6413TIP3   OH219181   5.283   0.431   1.193
 6413TIP3    H119182   5.254   0.495   1.128
 6413TIP3    H219183   5.333   0.482   1.257
 6414TIP3   OH219184   4.801   7.422   5.209
 6414TIP3    H119185   4.890   7.401   5.236
 6414TIP3    H219186   4.763   7.470   5.282
 6415TIP3   OH219187   4.182   2.776   2.910
 6415TIP3    H119188   4.256   2.835   2.924
 6415TIP3    H219189   4.197   2.704   2.971
 6416TIP3   OH219190   0.194   5.641   0.477
 6416TIP3    H119191   0.218   5.698   0.550
 6416TIP3    H219192   0.098   5.648   0.472
 6417TIP3   OH219193   3.937   4.214   2.340
 6417TIP3    H119194   3.894   4.204   2.255
 6417TIP3    H219195   3.893   4.150   2.397
 6418TIP3   OH219196   6.568   3.106   1.096
 6418TIP3    H119197   6.630   3.178   1.111
 6418TIP3    H219198   6.483   3.149   1.089
 6419TIP3   OH219199   1.799   2.375   0.628
 6419TIP3    H119200   1.735   2.338   0.567
 6419TIP3    H219201   1.746   2.410   0.700
 6420TIP3   OH219202   6.818   7.276   3.366
 6420TIP3    H119203   6.841   7.369   3.369
 6420TIP3    H219204   6.728   7.273   3.398
 6421TIP3   OH219205   3.137   4.158   2.929
 6421TIP3    H119206   3.174   4.184   2.844
 6421TIP3    H219207   3.148   4.063   2.932
 6422TIP3   OH219208   3.189   4.409   2.430
 6422TIP3    H119209   3.109   4.446   2.468
 6422TIP3    H219210   3.159   4.335   2.377
 6423TIP3   OH219211   5.192   7.223   1.616
 6423TIP3    H119212   5.207   7.316   1.604
 6423TIP3    H219213   5.101   7.209   1.590
 6424TIP3   OH219214   5.286   3.329   3.205
 6424TIP3    H119215   5.274   3.364   3.294
 6424TIP3    H219216   5.218   3.263   3.196
 6425TIP3   OH219217   0.864   0.907   1.177
 6425TIP3    H119218   0.855   0.991   1.132
 6425TIP3    H219219   0.819   0.920   1.260
 6426TIP3   OH219220   6.447   5.894   2.607
 6426TIP3    H119221   6.435   5.799   2.600
 6426TIP3    H219222   6.461   5.909   2.701
 6427TIP3   OH219223   4.896   0.519   1.608
 6427TIP3    H119224   4.973   0.553   1.652
 6427TIP3    H219225   4.881   0.433   1.648
 6428TIP3   OH219226   2.712   2.312   5.675
 6428TIP3    H119227   2.658   2.382   5.710
 6428TIP3    H219228   2.753   2.350   5.598
 6429TIP3   OH219229   8.125   4.063   0.697
 6429TIP3    H119230   8.096   4.075   0.607
 6429TIP3    H219231   8.129   3.968   0.709
 6430TIP3   OH219232   2.714   4.795   5.115
 6430TIP3    H119233   2.624   4.806   5.148
 6430TIP3    H219234   2.734   4.878   5.071
 6431TIP3   OH219235   4.997   1.856   5.617
 6431TIP3    H119236   4.990   1.840   5.523
 6431TIP3    H219237   5.070   1.801   5.645
 6432TIP3   OH219238   3.906   1.608   5.114
 6432TIP3    H119239   3.879   1.643   5.030
 6432TIP3    H219240   4.002   1.611   5.111
 6433TIP3   OH219241   8.039   1.138   6.298
 6433TIP3    H119242   8.110   1.107   6.242
 6433TIP3    H219243   8.027   1.230   6.272
 6434TIP3   OH219244   5.100   1.584   2.695
 6434TIP3    H119245   5.191   1.560   2.711
 6434TIP3    H219246   5.087   1.570   2.602
 6435TIP3   OH219247   1.218   5.757   4.261
 6435TIP3    H119248   1.234   5.837   4.311
 6435TIP3    H219249   1.277   5.764   4.186
 6436TIP3   OH219250   5.773   6.586   3.988
 6436TIP3    H119251   5.864   6.604   3.965
 6436TIP3    H219252   5.779   6.524   4.062
 6437TIP3   OH219253   3.659   6.704   6.476
 6437TIP3    H119254   3.660   6.724   6.570
 6437TIP3    H219255   3.618   6.780   6.436
 6438TIP3   OH219256   5.269   7.444   3.502
 6438TIP3    H119257   5.273   7.397   3.419
 6438TIP3    H219258   5.177   7.466   3.512
 6439TIP3   OH219259   7.276   6.504   5.623
 6439TIP3    H119260   7.317   6.579   5.579
 6439TIP3    H219261   7.193   6.538   5.655
 6440TIP3   OH219262   4.025   7.627   1.917
 6440TIP3    H119263   4.058   7.716   1.927
 6440TIP3    H219264   4.075   7.591   1.844
 6441TIP3   OH219265   3.119   0.450   3.052
 6441TIP3    H119266   3.206   0.418   3.028
 6441TIP3    H219267   3.071   0.453   2.970
 6442TIP3   OH219268   6.611   0.279   0.705
 6442TIP3    H119269   6.529   0.286   0.754
 6442TIP3    H219270   6.661   0.356   0.730
 6443TIP3   OH219271   1.715   7.120   3.772
 6443TIP3    H119272   1.625   7.147   3.791
 6443TIP3    H219273   1.731   7.047   3.832
 6444TIP3   OH219274   7.993   3.476   4.121
 6444TIP3    H119275   7.960   3.429   4.197
 6444TIP3    H219276   8.085   3.451   4.116
 6445TIP3   OH219277   1.654   5.626   2.175
 6445TIP3    H119278   1.661   5.719   2.196
 6445TIP3    H219279   1.689   5.581   2.252
 6446TIP3   OH219280   2.792   3.022   5.132
 6446TIP3    H119281   2.724   2.959   5.155
 6446TIP3    H219282   2.744   3.096   5.094
 6447TIP3   OH219283   2.285   6.939   4.584
 6447TIP3    H119284   2.334   6.859   4.599
 6447TIP3    H219285   2.233   6.951   4.664
 6448TIP3   OH219286   1.480   3.863   0.022
 6448TIP3    H119287   1.412   3.880  -0.043
 6448TIP3    H219288   1.440   3.803   0.085
 6449TIP3   OH219289   1.908   5.585   1.016
 6449TIP3    H119290   1.962   5.506   1.011
 6449TIP3    H219291   1.822   5.552   1.042
 6450TIP3   OH219292   1.543   4.147   1.134
 6450TIP3    H119293   1.552   4.155   1.039
 6450TIP3    H219294   1.626   4.181   1.168
 6451TIP3   OH219295   5.075   6.497   1.287
 6451TIP3    H119296   5.055   6.409   1.255
 6451TIP3    H219297   5.065   6.491   1.382
 6452TIP3   OH219298   7.902   3.591   2.746
 6452TIP3    H119299   7.926   3.501   2.770
 6452TIP3    H219300   7.811   3.585   2.718
 6453TIP3   OH219301   8.215   2.887   3.650
 6453TIP3    H119302   8.308   2.886   3.628
 6453TIP3    H219303   8.181   2.965   3.606
 6454TIP3   OH219304   6.358   4.777   1.339
 6454TIP3    H119305   6.396   4.766   1.252
 6454TIP3    H219306   6.411   4.845   1.380
 6455TIP3   OH219307   6.325   2.150   0.235
 6455TIP3    H119308   6.253   2.198   0.275
 6455TIP3    H219309   6.347   2.081   0.297
 6456TIP3   OH219310   2.462   7.236   2.811
 6456TIP3    H119311   2.409   7.308   2.776
 6456TIP3    H219312   2.552   7.266   2.800
 6457TIP3   OH219313   1.053   6.339   0.032
 6457TIP3    H119314   1.057   6.412   0.094
 6457TIP3    H219315   1.123   6.357  -0.031
 6458TIP3   OH219316   1.377   0.674   3.308
 6458TIP3    H119317   1.310   0.665   3.376
 6458TIP3    H219318   1.429   0.594   3.315
 6459TIP3   OH219319   0.785   4.367   5.508
 6459TIP3    H119320   0.880   4.377   5.520
 6459TIP3    H219321   0.748   4.377   5.596
 6460TIP3   OH219322   4.620   0.449   4.574
 6460TIP3    H119323   4.559   0.461   4.501
 6460TIP3    H219324   4.564   0.444   4.652
 6461TIP3   OH219325   6.095   5.717   0.578
 6461TIP3    H119326   6.040   5.750   0.649
 6461TIP3    H219327   6.096   5.789   0.514
 6462TIP3   OH219328   1.894   3.440   5.675
 6462TIP3    H119329   1.958   3.503   5.708
 6462TIP3    H219330   1.816   3.454   5.728
 6463TIP3   OH219331   5.989   3.958   4.748
 6463TIP3    H119332   5.950   3.874   4.775
 6463TIP3    H219333   6.026   3.940   4.661
 6464TIP3   OH219334   5.255   7.467   2.264
 6464TIP3    H119335   5.336   7.485   2.217
 6464TIP3    H219336   5.279   7.400   2.328
 6465TIP3   OH219337   5.574   6.869   1.239
 6465TIP3    H119338   5.549   6.781   1.210
 6465TIP3    H219339   5.552   6.870   1.332
 6466TIP3   OH219340   0.626   6.824   3.403
 6466TIP3    H119341   0.548   6.824   3.348
 6466TIP3    H219342   0.680   6.896   3.367
 6467TIP3   OH219343   6.417   7.018   1.309
 6467TIP3    H119344   6.510   7.039   1.311
 6467TIP3    H219345   6.374   7.102   1.293
 6468TIP3   OH219346   0.880   5.447   0.896
 6468TIP3    H119347   0.955   5.395   0.867
 6468TIP3    H219348   0.900   5.469   0.987
 6469TIP3   OH219349   4.144   6.565   4.816
 6469TIP3    H119350   4.048   6.574   4.820
 6469TIP3    H219351   4.176   6.655   4.812
 6470TIP3   OH219352   0.286   5.040   0.163
 6470TIP3    H119353   0.216   5.105   0.153
 6470TIP3    H219354   0.353   5.067   0.100
 6471TIP3   OH219355   3.754   0.901   1.185
 6471TIP3    H119356   3.705   0.915   1.266
 6471TIP3    H219357   3.697   0.936   1.116
 6472TIP3   OH219358   5.227   0.558   1.799
 6472TIP3    H119359   5.239   0.463   1.798
 6472TIP3    H219360   5.204   0.580   1.709
 6473TIP3   OH219361   2.631   4.291   4.563
 6473TIP3    H119362   2.673   4.225   4.508
 6473TIP3    H219363   2.567   4.242   4.615
 6474TIP3   OH219364   3.764   4.128   2.126
 6474TIP3    H119365   3.693   4.162   2.180
 6474TIP3    H219366   3.721   4.088   2.051
 6475TIP3   OH219367   4.147   2.936   4.348
 6475TIP3    H119368   4.189   2.850   4.343
 6475TIP3    H219369   4.120   2.944   4.439
 6476TIP3   OH219370   2.209   1.200   6.387
 6476TIP3    H119371   2.163   1.276   6.421
 6476TIP3    H219372   2.301   1.224   6.390
 6477TIP3   OH219373   4.588   6.984   1.189
 6477TIP3    H119374   4.543   6.944   1.115
 6477TIP3    H219375   4.542   7.067   1.204
 6478TIP3   OH219376   2.554   1.201   5.490
 6478TIP3    H119377   2.645   1.220   5.514
 6478TIP3    H219378   2.534   1.264   5.421
 6479TIP3   OH219379   1.763   5.389   2.824
 6479TIP3    H119380   1.815   5.348   2.755
 6479TIP3    H219381   1.673   5.382   2.794
 6480TIP3   OH219382   1.941   1.857   5.498
 6480TIP3    H119383   2.030   1.825   5.486
 6480TIP3    H219384   1.895   1.831   5.418
 6481TIP3   OH219385   4.479   0.440   4.813
 6481TIP3    H119386   4.391   0.405   4.796
 6481TIP3    H219387   4.471   0.485   4.897
 6482TIP3   OH219388   3.870   0.224   4.470
 6482TIP3    H119389   3.923   0.303   4.481
 6482TIP3    H219390   3.841   0.202   4.558
 6483TIP3   OH219391   0.588   4.133   5.501
 6483TIP3    H119392   0.632   4.218   5.500
 6483TIP3    H219393   0.512   4.144   5.445
 6484TIP3   OH219394   7.099   7.521   0.289
 6484TIP3    H119395   7.111   7.465   0.213
 6484TIP3    H219396   7.057   7.465   0.355
 6485TIP3   OH219397   5.833   1.598   6.120
 6485TIP3    H119398   5.852   1.682   6.079
 6485TIP3    H219399   5.743   1.577   6.092
 6486TIP3   OH219400   3.593   0.535   4.818
 6486TIP3    H119401   3.686   0.519   4.827
 6486TIP3    H219402   3.553   0.448   4.817
 6487TIP3   OH219403   3.644   5.458   4.258
 6487TIP3    H119404   3.640   5.377   4.208
 6487TIP3    H219405   3.729   5.496   4.236
 6488TIP3   OH219406   7.000   3.539   6.569
 6488TIP3    H119407   7.047   3.460   6.542
 6488TIP3    H219408   7.006   3.539   6.665
 6489TIP3   OH219409   4.441   1.095   1.324
 6489TIP3    H119410   4.536   1.103   1.335
 6489TIP3    H219411   4.412   1.048   1.402
 6490TIP3   OH219412   3.677   4.696   0.405
 6490TIP3    H119413   3.704   4.753   0.477
 6490TIP3    H219414   3.687   4.750   0.327
 6491TIP3   OH219415   7.088   5.692   2.926
 6491TIP3    H119416   7.045   5.714   3.008
 6491TIP3    H219417   7.178   5.671   2.950
 6492TIP3   OH219418   8.023   3.801   0.655
 6492TIP3    H119419   7.946   3.822   0.709
 6492TIP3    H219420   7.990   3.806   0.565
 6493TIP3   OH219421   5.696   7.801   6.418
 6493TIP3    H119422   5.642   7.722   6.433
 6493TIP3    H219423   5.687   7.852   6.499
 6494TIP3   OH219424   4.572   4.354   1.203
 6494TIP3    H119425   4.661   4.321   1.199
 6494TIP3    H219426   4.517   4.279   1.178
 6495TIP3   OH219427   2.838   1.227   3.623
 6495TIP3    H119428   2.844   1.186   3.537
 6495TIP3    H219429   2.925   1.217   3.661
 6496TIP3   OH219430   2.695   7.793   0.903
 6496TIP3    H119431   2.631   7.864   0.907
 6496TIP3    H219432   2.653   7.721   0.949
 6497TIP3   OH219433   0.138   5.053   0.424
 6497TIP3    H119434   0.182   5.020   0.346
 6497TIP3    H219435   0.138   5.148   0.414
 6498TIP3   OH219436   2.456   1.133   0.542
 6498TIP3    H119437   2.438   1.183   0.622
 6498TIP3    H219438   2.392   1.166   0.479
 6499TIP3   OH219439   2.736   0.632   0.232
 6499TIP3    H119440   2.714   0.722   0.205
 6499TIP3    H219441   2.723   0.631   0.327
 6500TIP3   OH219442   8.015   5.007   5.687
 6500TIP3    H119443   8.096   4.982   5.733
 6500TIP3    H219444   8.041   5.083   5.634
 6501TIP3   OH219445   1.003   0.465   5.474
 6501TIP3    H119446   1.036   0.550   5.443
 6501TIP3    H219447   1.074   0.403   5.454
 6502TIP3   OH219448   6.954   5.820   6.184
 6502TIP3    H119449   7.048   5.808   6.173
 6502TIP3    H219450   6.917   5.732   6.176
 6503TIP3   OH219451   5.161   2.673   4.307
 6503TIP3    H119452   5.234   2.714   4.354
 6503TIP3    H219453   5.187   2.678   4.215
 6504TIP3   OH219454   6.014   1.385   5.614
 6504TIP3    H119455   5.993   1.317   5.678
 6504TIP3    H219456   6.109   1.379   5.604
 6505TIP3   OH219457   2.895   6.266   1.410
 6505TIP3    H119458   2.801   6.250   1.416
 6505TIP3    H219459   2.921   6.226   1.327
 6506TIP3   OH219460   5.079   4.501   5.921
 6506TIP3    H119461   5.022   4.454   5.981
 6506TIP3    H219462   5.130   4.560   5.977
 6507TIP3   OH219463   3.521   3.840   5.709
 6507TIP3    H119464   3.536   3.759   5.756
 6507TIP3    H219465   3.433   3.867   5.735
 6508TIP3   OH219466   2.510   1.650   2.062
 6508TIP3    H119467   2.533   1.732   2.107
 6508TIP3    H219468   2.482   1.592   2.132
 6509TIP3   OH219469   2.533   7.164   5.631
 6509TIP3    H119470   2.625   7.188   5.629
 6509TIP3    H219471   2.512   7.140   5.541
 6510TIP3   OH219472   2.305   7.194   6.520
 6510TIP3    H119473   2.381   7.146   6.553
 6510TIP3    H219474   2.273   7.244   6.595
 6511TIP3   OH219475   7.834   2.372   3.328
 6511TIP3    H119476   7.898   2.397   3.262
 6511TIP3    H219477   7.856   2.282   3.350
 6512TIP3   OH219478   1.726   7.357   4.214
 6512TIP3    H119479   1.741   7.326   4.124
 6512TIP3    H219480   1.788   7.307   4.267
 6513TIP3   OH219481   7.156   7.437   1.214
 6513TIP3    H119482   7.181   7.454   1.304
 6513TIP3    H219483   7.062   7.417   1.219
 6514TIP3   OH219484   0.995   5.386   5.095
 6514TIP3    H119485   1.059   5.333   5.047
 6514TIP3    H219486   1.015   5.369   5.187
 6515TIP3   OH219487   5.089   6.817   6.260
 6515TIP3    H119488   5.040   6.738   6.236
 6515TIP3    H219489   5.170   6.784   6.298
 6516TIP3   OH219490   6.164   0.417   1.184
 6516TIP3    H119491   6.140   0.325   1.177
 6516TIP3    H219492   6.152   0.452   1.096
 6517TIP3   OH219493   7.730   7.191   5.527
 6517TIP3    H119494   7.773   7.117   5.484
 6517TIP3    H219495   7.744   7.264   5.467
 6518TIP3   OH219496   3.155   7.760   5.755
 6518TIP3    H119497   3.215   7.701   5.710
 6518TIP3    H219498   3.181   7.756   5.847
 6519TIP3   OH219499   3.144   7.488   2.238
 6519TIP3    H119500   3.104   7.571   2.213
 6519TIP3    H219501   3.082   7.422   2.211
 6520TIP3   OH219502   3.655   7.298   5.263
 6520TIP3    H119503   3.607   7.377   5.236
 6520TIP3    H219504   3.708   7.276   5.187
 6521TIP3   OH219505   6.378   3.352   1.119
 6521TIP3    H119506   6.465   3.379   1.092
 6521TIP3    H219507   6.340   3.430   1.160
 6522TIP3   OH219508   2.450   5.448   1.019
 6522TIP3    H119509   2.444   5.513   0.949
 6522TIP3    H219510   2.368   5.399   1.014
 6523TIP3   OH219511   1.737   3.928   4.152
 6523TIP3    H119512   1.797   3.923   4.226
 6523TIP3    H219513   1.790   3.903   4.076
 6524TIP3   OH219514   5.595   5.834   4.550
 6524TIP3    H119515   5.537   5.831   4.626
 6524TIP3    H219516   5.654   5.760   4.561
 6525TIP3   OH219517   0.927   1.936   1.755
 6525TIP3    H119518   0.998   1.886   1.795
 6525TIP3    H219519   0.876   1.970   1.828
 6526TIP3   OH219520   0.046   7.582   2.674
 6526TIP3    H119521   0.139   7.574   2.693
 6526TIP3    H219522   0.006   7.601   2.759
 6527TIP3   OH219523   0.213   1.607   4.201
 6527TIP3    H119524   0.145   1.660   4.242
 6527TIP3    H219525   0.289   1.665   4.196
 6528TIP3   OH219526   2.778   2.474   6.028
 6528TIP3    H119527   2.838   2.443   5.959
 6528TIP3    H219528   2.713   2.526   5.981
 6529TIP3   OH219529   6.483   4.412   4.693
 6529TIP3    H119530   6.503   4.411   4.599
 6529TIP3    H219531   6.396   4.452   4.698
 6530TIP3   OH219532   7.628   2.212   0.929
 6530TIP3    H119533   7.651   2.297   0.892
 6530TIP3    H219534   7.680   2.149   0.879
 6531TIP3   OH219535   4.943   7.143   0.529
 6531TIP3    H119536   5.016   7.108   0.478
 6531TIP3    H219537   4.865   7.118   0.481
 6532TIP3   OH219538   1.001   4.731   3.056
 6532TIP3    H119539   1.080   4.697   3.097
 6532TIP3    H219540   0.930   4.702   3.114
 6533TIP3   OH219541   4.074   0.048   2.810
 6533TIP3    H119542   4.006   0.084   2.866
 6533TIP3    H219543   4.098  -0.035   2.852
 6534TIP3   OH219544   3.847   5.107   2.089
 6534TIP3    H119545   3.785   5.155   2.145
 6534TIP3    H219546   3.809   5.112   2.001
 6535TIP3   OH219547   3.612   4.696   1.395
 6535TIP3    H119548   3.646   4.607   1.384
 6535TIP3    H219549   3.659   4.730   1.471
 6536TIP3   OH219550   2.522   6.392   0.194
 6536TIP3    H119551   2.480   6.478   0.184
 6536TIP3    H219552   2.474   6.335   0.134
 6537TIP3   OH219553   2.981   4.315   1.506
 6537TIP3    H119554   2.992   4.368   1.427
 6537TIP3    H219555   2.933   4.372   1.566
 6538TIP3   OH219556   4.035   0.707   3.743
 6538TIP3    H119557   4.030   0.611   3.746
 6538TIP3    H219558   4.058   0.732   3.832
 6539TIP3   OH219559   0.363   3.949   0.535
 6539TIP3    H119560   0.390   3.910   0.618
 6539TIP3    H219561   0.367   4.044   0.551
 6540TIP3   OH219562   5.577   1.897   6.457
 6540TIP3    H119563   5.540   1.821   6.411
 6540TIP3    H219564   5.503   1.935   6.504
 6541TIP3   OH219565   0.218   1.064   4.707
 6541TIP3    H119566   0.247   1.149   4.673
 6541TIP3    H219567   0.298   1.012   4.713
 6542TIP3   OH219568   5.740   1.297   6.641
 6542TIP3    H119569   5.665   1.299   6.700
 6542TIP3    H219570   5.816   1.292   6.698
 6543TIP3   OH219571   6.969   0.798   5.272
 6543TIP3    H119572   7.010   0.883   5.254
 6543TIP3    H219573   6.945   0.764   5.186
 6544TIP3   OH219574   7.654   5.050   4.245
 6544TIP3    H119575   7.680   4.995   4.319
 6544TIP3    H219576   7.639   4.989   4.173
 6545TIP3   OH219577   3.490   2.623   5.878
 6545TIP3    H119578   3.541   2.658   5.805
 6545TIP3    H219579   3.555   2.601   5.944
 6546TIP3   OH219580   3.608   5.707   5.160
 6546TIP3    H119581   3.611   5.743   5.249
 6546TIP3    H219582   3.700   5.703   5.133
 6547TIP3   OH219583   2.038   5.636   6.544
 6547TIP3    H119584   2.077   5.575   6.482
 6547TIP3    H219585   2.045   5.592   6.629
 6548TIP3   OH219586   6.947   3.419   0.897
 6548TIP3    H119587   7.006   3.362   0.848
 6548TIP3    H219588   6.988   3.429   0.983
 6549TIP3   OH219589   6.168   4.064   1.550
 6549TIP3    H119590   6.089   4.033   1.596
 6549TIP3    H219591   6.223   4.100   1.620
 6550TIP3   OH219592   5.488   7.430   2.479
 6550TIP3    H119593   5.504   7.386   2.562
 6550TIP3    H219594   5.420   7.493   2.498
 6551TIP3   OH219595   1.325   1.131   0.900
 6551TIP3    H119596   1.358   1.045   0.927
 6551TIP3    H219597   1.230   1.119   0.892
 6552TIP3   OH219598   1.940   0.862   0.156
 6552TIP3    H119599   1.925   0.945   0.109
 6552TIP3    H219600   1.902   0.876   0.243
 6553TIP3   OH219601   1.375   0.363   1.862
 6553TIP3    H119602   1.345   0.321   1.782
 6553TIP3    H219603   1.327   0.446   1.864
 6554TIP3   OH219604   6.456   1.592   1.952
 6554TIP3    H119605   6.404   1.588   1.872
 6554TIP3    H219606   6.537   1.636   1.926
 6555TIP3   OH219607   7.905   2.656   5.670
 6555TIP3    H119608   7.986   2.698   5.698
 6555TIP3    H219609   7.913   2.648   5.575
 6556TIP3   OH219610   6.044   6.630   1.468
 6556TIP3    H119611   6.112   6.650   1.403
 6556TIP3    H219612   6.084   6.564   1.525
 6557TIP3   OH219613   3.749   5.663   3.141
 6557TIP3    H119614   3.787   5.751   3.138
 6557TIP3    H219615   3.725   5.651   3.233
 6558TIP3   OH219616   5.043   2.365   3.941
 6558TIP3    H119617   4.981   2.346   3.870
 6558TIP3    H219618   5.049   2.282   3.990
 6559TIP3   OH219619   2.069   0.527   4.923
 6559TIP3    H119620   1.979   0.559   4.929
 6559TIP3    H219621   2.097   0.516   5.013
 6560TIP3   OH219622   4.926   3.604   5.301
 6560TIP3    H119623   4.888   3.564   5.379
 6560TIP3    H219624   4.887   3.556   5.228
 6561TIP3   OH219625   7.761   0.893   4.158
 6561TIP3    H119626   7.827   0.843   4.110
 6561TIP3    H219627   7.755   0.976   4.111
 6562TIP3   OH219628   1.490   7.755   1.074
 6562TIP3    H119629   1.441   7.800   1.142
 6562TIP3    H219630   1.572   7.802   1.068
 6563TIP3   OH219631   5.220   4.711   4.158
 6563TIP3    H119632   5.215   4.627   4.203
 6563TIP3    H219633   5.129   4.733   4.138
 6564TIP3   OH219634   1.732   5.250   3.688
 6564TIP3    H119635   1.782   5.186   3.739
 6564TIP3    H219636   1.681   5.298   3.753
 6565TIP3   OH219637   1.642   0.134   5.524
 6565TIP3    H119638   1.626   0.186   5.603
 6565TIP3    H219639   1.554   0.114   5.492
 6566TIP3   OH219640   6.925   5.515   4.942
 6566TIP3    H119641   6.984   5.587   4.965
 6566TIP3    H219642   6.969   5.471   4.869
 6567TIP3   OH219643   7.088   6.386   1.710
 6567TIP3    H119644   7.173   6.407   1.671
 6567TIP3    H219645   7.059   6.467   1.750
 6568TIP3   OH219646   2.517   5.581   1.305
 6568TIP3    H119647   2.552   5.620   1.225
 6568TIP3    H219648   2.426   5.560   1.283
 6569TIP3   OH219649   0.134   3.136   1.673
 6569TIP3    H119650   0.056   3.177   1.634
 6569TIP3    H219651   0.125   3.150   1.767
 6570TIP3   OH219652   3.854   7.478   3.735
 6570TIP3    H119653   3.848   7.548   3.800
 6570TIP3    H219654   3.931   7.500   3.683
 6571TIP3   OH219655   6.276   1.607   5.879
 6571TIP3    H119656   6.279   1.561   5.963
 6571TIP3    H219657   6.212   1.559   5.827
 6572TIP3   OH219658   0.784   7.682   4.868
 6572TIP3    H119659   0.775   7.714   4.778
 6572TIP3    H219660   0.862   7.726   4.901
 6573TIP3   OH219661   1.784   6.704   2.055
 6573TIP3    H119662   1.706   6.649   2.055
 6573TIP3    H219663   1.813   6.704   2.146
 6574TIP3   OH219664   2.549   4.458   3.402
 6574TIP3    H119665   2.515   4.405   3.331
 6574TIP3    H219666   2.603   4.524   3.360
 6575TIP3   OH219667   2.331   2.901   3.929
 6575TIP3    H119668   2.320   2.809   3.906
 6575TIP3    H219669   2.259   2.946   3.885
 6576TIP3   OH219670   1.757   5.497   5.570
 6576TIP3    H119671   1.694   5.455   5.511
 6576TIP3    H219672   1.761   5.588   5.538
 6577TIP3   OH219673   7.662   3.453   2.658
 6577TIP3    H119674   7.637   3.397   2.732
 6577TIP3    H219675   7.583   3.457   2.604
 6578TIP3   OH219676   3.819   7.352   2.902
 6578TIP3    H119677   3.896   7.310   2.864
 6578TIP3    H219678   3.756   7.281   2.913
 6579TIP3   OH219679   6.400   5.457   6.437
 6579TIP3    H119680   6.440   5.539   6.405
 6579TIP3    H219681   6.450   5.388   6.394
 6580TIP3   OH219682   3.453   5.323   3.410
 6580TIP3    H119683   3.506   5.278   3.343
 6580TIP3    H219684   3.472   5.276   3.491
 6581TIP3   OH219685   6.119   4.227   6.628
 6581TIP3    H119686   6.070   4.217   6.710
 6581TIP3    H219687   6.111   4.319   6.606
 6582TIP3   OH219688   6.734   6.504   4.897
 6582TIP3    H119689   6.690   6.475   4.977
 6582TIP3    H219690   6.765   6.424   4.855
 6583TIP3   OH219691   4.195   4.918   0.493
 6583TIP3    H119692   4.117   4.941   0.442
 6583TIP3    H219693   4.265   4.967   0.451
 6584TIP3   OH219694   1.851   7.380   6.326
 6584TIP3    H119695   1.913   7.376   6.254
 6584TIP3    H219696   1.854   7.292   6.364
 6585TIP3   OH219697   0.569   3.713   3.680
 6585TIP3    H119698   0.545   3.642   3.620
 6585TIP3    H219699   0.562   3.793   3.627
 6586TIP3   OH219700   3.517   2.350   0.306
 6586TIP3    H119701   3.468   2.404   0.368
 6586TIP3    H219702   3.450   2.299   0.260
 6587TIP3   OH219703   0.260   4.866   1.280
 6587TIP3    H119704   0.210   4.875   1.198
 6587TIP3    H219705   0.305   4.782   1.271
 6588TIP3   OH219706   4.093   5.702   5.590
 6588TIP3    H119707   4.049   5.786   5.572
 6588TIP3    H219708   4.022   5.639   5.596
 6589TIP3   OH219709   6.382   5.809   5.428
 6589TIP3    H119710   6.366   5.825   5.521
 6589TIP3    H219711   6.363   5.715   5.416
 6590TIP3   OH219712   7.785   7.249   4.452
 6590TIP3    H119713   7.804   7.162   4.419
 6590TIP3    H219714   7.719   7.236   4.520
 6591TIP3   OH219715   7.115   6.383  -0.014
 6591TIP3    H119716   7.138   6.290  -0.006
 6591TIP3    H219717   7.138   6.421   0.070
 6592TIP3   OH219718   5.229   5.412   0.991
 6592TIP3    H119719   5.223   5.505   1.009
 6592TIP3    H219720   5.285   5.405   0.914
 6593TIP3   OH219721   6.573   0.784   2.952
 6593TIP3    H119722   6.639   0.806   2.886
 6593TIP3    H219723   6.591   0.693   2.975
 6594TIP3   OH219724   0.140   0.761   0.774
 6594TIP3    H119725   0.053   0.722   0.766
 6594TIP3    H219726   0.201   0.687   0.770
 6595TIP3   OH219727   0.127   1.824   4.662
 6595TIP3    H119728   0.089   1.885   4.724
 6595TIP3    H219729   0.058   1.808   4.598
 6596TIP3   OH219730   4.162   5.676   0.475
 6596TIP3    H119731   4.083   5.622   0.471
 6596TIP3    H219732   4.173   5.697   0.568
 6597TIP3   OH219733   2.112   7.212   2.040
 6597TIP3    H119734   2.158   7.131   2.018
 6597TIP3    H219735   2.162   7.281   1.996
 6598TIP3   OH219736   2.497   6.388   4.544
 6598TIP3    H119737   2.405   6.408   4.561
 6598TIP3    H219738   2.495   6.321   4.476
 6599TIP3   OH219739   1.134   6.468   0.804
 6599TIP3    H119740   1.052   6.514   0.784
 6599TIP3    H219741   1.191   6.535   0.841
 6600TIP3   OH219742   3.814   0.998   4.702
 6600TIP3    H119743   3.729   1.006   4.745
 6600TIP3    H219744   3.833   1.086   4.669
 6601TIP3   OH219745   8.040   2.954   1.342
 6601TIP3    H119746   8.093   2.908   1.277
 6601TIP3    H219747   7.967   2.990   1.291
 6602TIP3   OH219748   2.898   4.917   3.717
 6602TIP3    H119749   2.862   4.933   3.804
 6602TIP3    H219750   2.911   4.823   3.713
 6603TIP3   OH219751   8.170   4.337   4.783
 6603TIP3    H119752   8.131   4.421   4.806
 6603TIP3    H219753   8.261   4.357   4.762
 6604TIP3   OH219754   5.712   1.536   5.368
 6604TIP3    H119755   5.637   1.478   5.381
 6604TIP3    H219756   5.750   1.506   5.285
 6605TIP3   OH219757   0.285   7.614   0.119
 6605TIP3    H119758   0.342   7.541   0.142
 6605TIP3    H219759   0.197   7.585   0.144
 6606TIP3   OH219760   3.601   1.447   0.372
 6606TIP3    H119761   3.618   1.392   0.448
 6606TIP3    H219762   3.688   1.462   0.334
 6607TIP3   OH219763   6.610   4.165   0.668
 6607TIP3    H119764   6.641   4.092   0.722
 6607TIP3    H219765   6.515   4.156   0.668
 6608TIP3   OH219766   7.512   5.873   2.593
 6608TIP3    H119767   7.603   5.888   2.620
 6608TIP3    H219768   7.486   5.794   2.641
 6609TIP3   OH219769   3.863   2.644   0.346
 6609TIP3    H119770   3.788   2.672   0.399
 6609TIP3    H219771   3.825   2.590   0.277
 6610TIP3   OH219772   4.307   2.436   3.943
 6610TIP3    H119773   4.342   2.494   4.010
 6610TIP3    H219774   4.213   2.453   3.942
 6611TIP3   OH219775   0.839   4.507   6.183
 6611TIP3    H119776   0.910   4.530   6.123
 6611TIP3    H219777   0.797   4.430   6.142
 6612TIP3   OH219778   5.044   4.431   2.120
 6612TIP3    H119779   4.990   4.394   2.190
 6612TIP3    H219780   5.018   4.523   2.117
 6613TIP3   OH219781   7.519   2.317   1.976
 6613TIP3    H119782   7.502   2.265   2.054
 6613TIP3    H219783   7.519   2.408   2.007
 6614TIP3   OH219784   0.197   6.738   4.830
 6614TIP3    H119785   0.248   6.768   4.906
 6614TIP3    H219786   0.203   6.643   4.834
 6615TIP3   OH219787   2.531   4.941   2.893
 6615TIP3    H119788   2.601   4.887   2.930
 6615TIP3    H219789   2.571   4.984   2.817
 6616TIP3   OH219790   3.652   7.529   0.878
 6616TIP3    H119791   3.576   7.529   0.821
 6616TIP3    H219792   3.650   7.614   0.921
 6617TIP3   OH219793   7.936   1.301   3.879
 6617TIP3    H119794   7.976   1.300   3.791
 6617TIP3    H219795   8.010   1.313   3.938
 6618TIP3   OH219796   2.541   5.773   4.578
 6618TIP3    H119797   2.447   5.762   4.562
 6618TIP3    H219798   2.580   5.771   4.491
 6619TIP3   OH219799   2.061   6.159   1.002
 6619TIP3    H119800   1.994   6.194   0.943
 6619TIP3    H219801   2.120   6.233   1.018
 6620TIP3   OH219802   3.922   0.281   4.173
 6620TIP3    H119803   3.843   0.234   4.145
 6620TIP3    H219804   3.935   0.254   4.264
 6621TIP3   OH219805   1.548   5.597   0.840
 6621TIP3    H119806   1.505   5.649   0.772
 6621TIP3    H219807   1.634   5.576   0.803
 6622TIP3   OH219808   4.087   4.815   1.343
 6622TIP3    H119809   4.180   4.799   1.332
 6622TIP3    H219810   4.052   4.817   1.253
 6623TIP3   OH219811   2.683   1.993   6.518
 6623TIP3    H119812   2.751   1.933   6.489
 6623TIP3    H219813   2.723   2.080   6.511
 6624TIP3   OH219814   0.884   5.655   1.713
 6624TIP3    H119815   0.858   5.655   1.805
 6624TIP3    H219816   0.812   5.611   1.668
 6625TIP3   OH219817   0.522   1.672   4.780
 6625TIP3    H119818   0.506   1.617   4.857
 6625TIP3    H219819   0.435   1.706   4.756
 6626TIP3   OH219820   5.312   4.961   3.345
 6626TIP3    H119821   5.358   4.944   3.428
 6626TIP3    H219822   5.328   4.883   3.293
 6627TIP3   OH219823   0.075   3.479   1.509
 6627TIP3    H119824   0.169   3.461   1.499
 6627TIP3    H219825   0.062   3.489   1.603
 6628TIP3   OH219826   4.523   4.880   5.860
 6628TIP3    H119827   4.555   4.828   5.934
 6628TIP3    H219828   4.523   4.970   5.892
 6629TIP3   OH219829   4.650   6.467   6.770
 6629TIP3    H119830   4.665   6.562   6.766
 6629TIP3    H219831   4.575   6.453   6.711
 6630TIP3   OH219832   7.284   3.813   1.988
 6630TIP3    H119833   7.280   3.852   1.901
 6630TIP3    H219834   7.271   3.719   1.973
 6631TIP3   OH219835   1.766   2.618   0.310
 6631TIP3    H119836   1.670   2.621   0.314
 6631TIP3    H219837   1.786   2.525   0.298
 6632TIP3   OH219838   0.064   7.174   0.999
 6632TIP3    H119839   0.003   7.248   0.996
 6632TIP3    H219840   0.011   7.097   0.980
 6633TIP3   OH219841   4.457   2.609   6.543
 6633TIP3    H119842   4.408   2.551   6.601
 6633TIP3    H219843   4.546   2.608   6.578
 6634TIP3   OH219844   0.317   1.916   0.540
 6634TIP3    H119845   0.269   1.990   0.578
 6634TIP3    H219846   0.348   1.867   0.616
 6635TIP3   OH219847   1.469   6.890   3.944
 6635TIP3    H119848   1.464   6.802   3.980
 6635TIP3    H219849   1.562   6.910   3.940
 6636TIP3   OH219850   7.231   0.923   2.471
 6636TIP3    H119851   7.194   0.954   2.389
 6636TIP3    H219852   7.254   0.831   2.454
 6637TIP3   OH219853   2.999   1.584   2.138
 6637TIP3    H119854   2.988   1.679   2.127
 6637TIP3    H219855   2.922   1.557   2.188
 6638TIP3   OH219856   0.539   7.394   4.740
 6638TIP3    H119857   0.548   7.309   4.784
 6638TIP3    H219858   0.586   7.383   4.657
 6639TIP3   OH219859   0.830   3.441   2.953
 6639TIP3    H119860   0.790   3.527   2.968
 6639TIP3    H219861   0.808   3.419   2.863
 6640TIP3   OH219862   5.044   1.830   5.336
 6640TIP3    H119863   4.979   1.779   5.287
 6640TIP3    H219864   5.049   1.914   5.290
 6641TIP3   OH219865   0.467   4.738   1.023
 6641TIP3    H119866   0.540   4.798   1.038
 6641TIP3    H219867   0.507   4.651   1.030
 6642TIP3   OH219868   0.208   0.449   1.423
 6642TIP3    H119869   0.177   0.534   1.392
 6642TIP3    H219870   0.139   0.418   1.481
 6643TIP3   OH219871   6.220   0.676   2.180
 6643TIP3    H119872   6.135   0.657   2.219
 6643TIP3    H219873   6.268   0.723   2.249
 6644TIP3   OH219874   5.832   6.907   5.427
 6644TIP3    H119875   5.829   6.904   5.331
 6644TIP3    H219876   5.786   6.988   5.450
 6645TIP3   OH219877   1.791   5.893   6.260
 6645TIP3    H119878   1.839   5.869   6.339
 6645TIP3    H219879   1.846   5.960   6.218
 6646TIP3   OH219880   6.310   3.971   2.028
 6646TIP3    H119881   6.405   3.965   2.025
 6646TIP3    H219882   6.289   3.985   2.120
 6647TIP3   OH219883   3.127   7.557   0.979
 6647TIP3    H119884   3.213   7.598   0.987
 6647TIP3    H219885   3.112   7.517   1.065
 6648TIP3   OH219886   6.613   1.939   3.828
 6648TIP3    H119887   6.672   1.971   3.897
 6648TIP3    H219888   6.643   1.985   3.749
 6649TIP3   OH219889   3.581   3.213   3.425
 6649TIP3    H119890   3.539   3.131   3.447
 6649TIP3    H219891   3.558   3.272   3.497
 6650TIP3   OH219892   1.137   2.465   6.409
 6650TIP3    H119893   1.151   2.540   6.351
 6650TIP3    H219894   1.051   2.481   6.448
 6651TIP3   OH219895   2.165   2.984   2.164
 6651TIP3    H119896   2.133   3.006   2.077
 6651TIP3    H219897   2.125   2.899   2.184
 6652TIP3   OH219898   2.933   0.108   5.060
 6652TIP3    H119899   2.882   0.145   5.132
 6652TIP3    H219900   2.895   0.021   5.047
 6653TIP3   OH219901   2.387   5.957   6.218
 6653TIP3    H119902   2.379   5.884   6.156
 6653TIP3    H219903   2.439   6.023   6.171
 6654TIP3   OH219904   2.757   6.689   2.222
 6654TIP3    H119905   2.743   6.693   2.128
 6654TIP3    H219906   2.847   6.718   2.234
 6655TIP3   OH219907   0.057   1.394   2.914
 6655TIP3    H119908  -0.001   1.359   2.982
 6655TIP3    H219909   0.107   1.318   2.884
 6656TIP3   OH219910   5.379   4.061   2.709
 6656TIP3    H119911   5.369   4.100   2.796
 6656TIP3    H219912   5.377   4.136   2.649
 6657TIP3   OH219913   4.823   3.158   6.316
 6657TIP3    H119914   4.798   3.109   6.237
 6657TIP3    H219915   4.867   3.236   6.283
 6658TIP3   OH219916   0.222   0.156   2.452
 6658TIP3    H119917   0.158   0.087   2.433
 6658TIP3    H219918   0.280   0.157   2.376
 6659TIP3   OH219919   0.013   6.390   4.689
 6659TIP3    H119920   0.082   6.416   4.750
 6659TIP3    H219921   0.050   6.408   4.602
 6660TIP3   OH219922   4.046   5.264   1.741
 6660TIP3    H119923   4.137   5.276   1.770
 6660TIP3    H219924   4.049   5.279   1.647
 6661TIP3   OH219925   5.240   1.385   5.131
 6661TIP3    H119926   5.299   1.363   5.058
 6661TIP3    H219927   5.258   1.477   5.149
 6662TIP3   OH219928   3.460   3.677   1.092
 6662TIP3    H119929   3.553   3.681   1.070
 6662TIP3    H219930   3.451   3.598   1.145
 6663TIP3   OH219931   2.254   3.266   2.235
 6663TIP3    H119932   2.277   3.207   2.307
 6663TIP3    H219933   2.161   3.250   2.220
 6664TIP3   OH219934   4.433   7.636   0.208
 6664TIP3    H119935   4.399   7.725   0.215
 6664TIP3    H219936   4.503   7.632   0.274
 6665TIP3   OH219937   6.569   4.035   1.314
 6665TIP3    H119938   6.575   4.002   1.404
 6665TIP3    H219939   6.644   4.094   1.305
 6666TIP3   OH219940   4.750   3.534   3.607
 6666TIP3    H119941   4.731   3.541   3.701
 6666TIP3    H219942   4.793   3.449   3.598
 6667TIP3   OH219943   6.063   4.556   2.643
 6667TIP3    H119944   6.041   4.465   2.623
 6667TIP3    H219945   6.042   4.604   2.563
 6668TIP3   OH219946   4.745   0.006   2.248
 6668TIP3    H119947   4.693  -0.055   2.300
 6668TIP3    H219948   4.744  -0.030   2.160
 6669TIP3   OH219949   0.539   3.681   0.725
 6669TIP3    H119950   0.444   3.670   0.718
 6669TIP3    H219951   0.570   3.674   0.635
 6670TIP3   OH219952   3.454   1.306   1.798
 6670TIP3    H119953   3.385   1.246   1.771
 6670TIP3    H219954   3.436   1.387   1.750
 6671TIP3   OH219955   8.109   6.207   0.858
 6671TIP3    H119956   8.021   6.189   0.892
 6671TIP3    H219957   8.095   6.270   0.787
 6672TIP3   OH219958   2.519   0.954   3.951
 6672TIP3    H119959   2.456   1.021   3.925
 6672TIP3    H219960   2.604   0.988   3.923
 6673TIP3   OH219961   2.149   7.335   0.224
 6673TIP3    H119962   2.219   7.286   0.268
 6673TIP3    H219963   2.193   7.382   0.153
 6674TIP3   OH219964   0.545   5.632   3.219
 6674TIP3    H119965   0.610   5.669   3.160
 6674TIP3    H219966   0.539   5.540   3.194
 6675TIP3   OH219967   4.933   6.068   2.742
 6675TIP3    H119968   5.000   6.114   2.691
 6675TIP3    H219969   4.850   6.105   2.711
 6676TIP3   OH219970   1.598   4.435   4.893
 6676TIP3    H119971   1.646   4.390   4.963
 6676TIP3    H219972   1.665   4.455   4.827
 6677TIP3   OH219973   4.390   0.144   5.038
 6677TIP3    H119974   4.462   0.152   4.976
 6677TIP3    H219975   4.311   0.140   4.983
 6678TIP3   OH219976   2.535   5.095   2.593
 6678TIP3    H119977   2.561   5.182   2.622
 6678TIP3    H219978   2.527   5.103   2.498
 6679TIP3   OH219979   3.951   1.438   5.328
 6679TIP3    H119980   3.918   1.382   5.258
 6679TIP3    H219981   3.901   1.519   5.320
 6680TIP3   OH219982   4.407   6.431   5.193
 6680TIP3    H119983   4.374   6.388   5.114
 6680TIP3    H219984   4.399   6.366   5.262
 6681TIP3   OH219985   5.845   2.650   3.128
 6681TIP3    H119986   5.754   2.655   3.100
 6681TIP3    H219987   5.870   2.559   3.115
 6682TIP3   OH219988   2.912   4.836   2.218
 6682TIP3    H119989   2.914   4.855   2.312
 6682TIP3    H219990   2.973   4.899   2.180
 6683TIP3   OH219991   4.016   7.591   0.788
 6683TIP3    H119992   3.943   7.550   0.835
 6683TIP3    H219993   3.979   7.673   0.756
 6684TIP3   OH219994   4.869   4.810   3.742
 6684TIP3    H119995   4.817   4.817   3.661
 6684TIP3    H219996   4.850   4.892   3.789
 6685TIP3   OH219997   1.856   3.780   4.869
 6685TIP3    H119998   1.900   3.698   4.891
 6685TIP3    H219999   1.852   3.828   4.952
 6686TIP3   OH220000   7.866   1.039   2.193
 6686TIP3    H120001   7.835   1.106   2.254
 6686TIP3    H220002   7.803   1.040   2.122
 6687TIP3   OH220003   0.368   3.741   5.863
 6687TIP3    H120004   0.460   3.740   5.837
 6687TIP3    H220005   0.350   3.651   5.890
 6688TIP3   OH220006   1.720   0.803   2.536
 6688TIP3    H120007   1.697   0.716   2.506
 6688TIP3    H220008   1.805   0.821   2.497
 6689TIP3   OH220009   7.334   0.934   4.533
 6689TIP3    H120010   7.380   1.015   4.553
 6689TIP3    H220011   7.399   0.865   4.546
 6690TIP3   OH220012   1.156   6.327   5.462
 6690TIP3    H120013   1.154   6.298   5.553
 6690TIP3    H220014   1.080   6.284   5.422
 6691TIP3   OH220015   0.157   2.532   2.639
 6691TIP3    H120016   0.110   2.520   2.556
 6691TIP3    H220017   0.238   2.577   2.615
 6692TIP3   OH220018   4.874   0.833   5.880
 6692TIP3    H120019   4.807   0.839   5.949
 6692TIP3    H220020   4.903   0.742   5.883
 6693TIP3   OH220021   1.826   7.526   5.214
 6693TIP3    H120022   1.915   7.562   5.219
 6693TIP3    H220023   1.772   7.591   5.260
 6694TIP3   OH220024   5.137   7.445   4.106
 6694TIP3    H120025   5.052   7.421   4.142
 6694TIP3    H220026   5.200   7.394   4.157
 6695TIP3   OH220027   6.847   1.568   5.620
 6695TIP3    H120028   6.757   1.568   5.585
 6695TIP3    H220029   6.836   1.588   5.713
 6696TIP3   OH220030   5.218   1.798   6.060
 6696TIP3    H120031   5.150   1.865   6.070
 6696TIP3    H220032   5.173   1.715   6.078
 6697TIP3   OH220033   2.081   2.380   3.450
 6697TIP3    H120034   2.158   2.381   3.393
 6697TIP3    H220035   2.053   2.289   3.451
 6698TIP3   OH220036   1.032   7.579   0.792
 6698TIP3    H120037   1.018   7.658   0.845
 6698TIP3    H220038   1.069   7.516   0.853
 6699TIP3   OH220039   3.448   1.647   0.258
 6699TIP3    H120040   3.362   1.606   0.245
 6699TIP3    H220041   3.505   1.575   0.286
 6700TIP3   OH220042   4.088   3.968   4.080
 6700TIP3    H120043   4.101   3.896   4.019
 6700TIP3    H220044   4.165   3.967   4.137
 6701TIP3   OH220045   2.544   3.453   5.066
 6701TIP3    H120046   2.594   3.394   5.009
 6701TIP3    H220047   2.609   3.486   5.128
 6702TIP3   OH220048   5.941   6.934   3.150
 6702TIP3    H120049   5.940   6.946   3.055
 6702TIP3    H220050   5.889   6.855   3.165
 6703TIP3   OH220051   4.236   7.311   5.605
 6703TIP3    H120052   4.302   7.329   5.538
 6703TIP3    H220053   4.190   7.395   5.617
 6704TIP3   OH220054   1.903   0.226   6.424
 6704TIP3    H120055   1.835   0.292   6.412
 6704TIP3    H220056   1.929   0.234   6.516
 6705TIP3   OH220057   0.664   4.173   6.585
 6705TIP3    H120058   0.619   4.223   6.652
 6705TIP3    H220059   0.711   4.239   6.533
 6706TIP3   OH220060   3.624   1.133   2.893
 6706TIP3    H120061   3.540   1.091   2.912
 6706TIP3    H220062   3.605   1.191   2.820
 6707TIP3   OH220063   5.378   3.314   2.921
 6707TIP3    H120064   5.378   3.219   2.921
 6707TIP3    H220065   5.385   3.338   3.013
 6708TIP3   OH220066   3.436   4.432   2.355
 6708TIP3    H120067   3.399   4.438   2.266
 6708TIP3    H220068   3.360   4.438   2.413
 6709TIP3   OH220069   5.443   6.270   4.123
 6709TIP3    H120070   5.402   6.220   4.194
 6709TIP3    H220071   5.515   6.215   4.093
 6710TIP3   OH220072   4.188   5.989   5.433
 6710TIP3    H120073   4.170   6.052   5.503
 6710TIP3    H220074   4.283   5.984   5.429
 6711TIP3   OH220075   7.644   3.137   4.287
 6711TIP3    H120076   7.692   3.063   4.324
 6711TIP3    H220077   7.703   3.212   4.297
 6712TIP3   OH220078   1.229   5.940   2.182
 6712TIP3    H120079   1.234   5.907   2.093
 6712TIP3    H220080   1.136   5.933   2.205
 6713TIP3   OH220081   6.188   1.112   5.701
 6713TIP3    H120082   6.108   1.152   5.736
 6713TIP3    H220083   6.175   1.018   5.713
 6714TIP3   OH220084   7.251   7.601   4.366
 6714TIP3    H120085   7.216   7.513   4.374
 6714TIP3    H220086   7.265   7.630   4.457
 6715TIP3   OH220087   3.747   2.249   6.400
 6715TIP3    H120088   3.797   2.222   6.477
 6715TIP3    H220089   3.799   2.320   6.361
 6716TIP3   OH220090   8.026   6.263   6.054
 6716TIP3    H120091   7.985   6.284   5.970
 6716TIP3    H220092   7.954   6.230   6.108
 6717TIP3   OH220093   0.291   0.361   6.181
 6717TIP3    H120094   0.247   0.324   6.105
 6717TIP3    H220095   0.220   0.379   6.243
 6718TIP3   OH220096   6.342   5.958   3.644
 6718TIP3    H120097   6.373   5.878   3.600
 6718TIP3    H220098   6.387   5.958   3.728
 6719TIP3   OH220099   2.727   4.143   4.924
 6719TIP3    H120100   2.706   4.083   4.995
 6719TIP3    H220101   2.645   4.190   4.907
 6720TIP3   OH220102   8.076   4.828   0.278
 6720TIP3    H120103   8.098   4.799   0.366
 6720TIP3    H220104   8.155   4.812   0.227
 6721TIP3   OH220105   1.075   5.068   1.110
 6721TIP3    H120106   0.988   5.105   1.094
 6721TIP3    H220107   1.095   5.019   1.030
 6722TIP3   OH220108   0.249   6.234   5.271
 6722TIP3    H120109   0.266   6.307   5.331
 6722TIP3    H220110   0.183   6.181   5.316
 6723TIP3   OH220111   2.622   7.534   0.959
 6723TIP3    H120112   2.549   7.472   0.957
 6723TIP3    H220113   2.645   7.540   1.052
 6724TIP3   OH220114   4.432   0.417   1.673
 6724TIP3    H120115   4.499   0.351   1.655
 6724TIP3    H220116   4.351   0.379   1.640
 6725TIP3   OH220117   6.338   1.967   2.157
 6725TIP3    H120118   6.430   1.980   2.177
 6725TIP3    H220119   6.306   2.053   2.129
 6726TIP3   OH220120   5.424   3.330   1.005
 6726TIP3    H120121   5.370   3.406   0.985
 6726TIP3    H220122   5.475   3.357   1.082
 6727TIP3   OH220123   7.569   2.347   0.414
 6727TIP3    H120124   7.639   2.391   0.461
 6727TIP3    H220125   7.602   2.337   0.325
 6728TIP3   OH220126   4.981   7.449   2.961
 6728TIP3    H120127   4.894   7.468   2.995
 6728TIP3    H220128   4.986   7.497   2.879
 6729TIP3   OH220129   0.935   3.219   6.527
 6729TIP3    H120130   0.852   3.265   6.515
 6729TIP3    H220131   0.999   3.289   6.537
 6730TIP3   OH220132   4.809   7.688   4.698
 6730TIP3    H120133   4.734   7.747   4.705
 6730TIP3    H220134   4.771   7.606   4.666
 6731TIP3   OH220135   4.114   3.195   0.887
 6731TIP3    H120136   4.078   3.141   0.957
 6731TIP3    H220137   4.149   3.132   0.823
 6732TIP3   OH220138   0.448   2.133   3.150
 6732TIP3    H120139   0.372   2.192   3.151
 6732TIP3    H220140   0.516   2.181   3.197
 6733TIP3   OH220141   5.033   0.215   3.826
 6733TIP3    H120142   5.057   0.299   3.787
 6733TIP3    H220143   5.105   0.194   3.886
 6734TIP3   OH220144   1.840   5.898   0.798
 6734TIP3    H120145   1.870   5.815   0.760
 6734TIP3    H220146   1.816   5.877   0.888
 6735TIP3   OH220147   6.599   7.501   6.516
 6735TIP3    H120148   6.616   7.414   6.550
 6735TIP3    H220149   6.608   7.492   6.421
 6736TIP3   OH220150   8.215   3.478   2.637
 6736TIP3    H120151   8.146   3.422   2.674
 6736TIP3    H220152   8.280   3.417   2.604
 6737TIP3   OH220153   7.947   3.026   6.207
 6737TIP3    H120154   7.880   2.969   6.168
 6737TIP3    H220155   7.897   3.101   6.241
 6738TIP3   OH220156   3.060   6.255   2.892
 6738TIP3    H120157   2.974   6.228   2.925
 6738TIP3    H220158   3.055   6.237   2.798
 6739TIP3   OH220159   3.631   7.752   6.792
 6739TIP3    H120160   3.593   7.664   6.790
 6739TIP3    H220161   3.725   7.736   6.802
 6740TIP3   OH220162   7.749   1.565   4.138
 6740TIP3    H120163   7.729   1.486   4.190
 6740TIP3    H220164   7.705   1.551   4.055
 6741TIP3   OH220165   4.540   7.674   4.988
 6741TIP3    H120166   4.601   7.747   5.002
 6741TIP3    H220167   4.538   7.629   5.072
 6742TIP3   OH220168   7.665   2.574   2.606
 6742TIP3    H120169   7.737   2.524   2.568
 6742TIP3    H220170   7.666   2.658   2.559
 6743TIP3   OH220171   1.985   0.670   0.390
 6743TIP3    H120172   1.939   0.593   0.425
 6743TIP3    H220173   2.001   0.648   0.298
 6744TIP3   OH220174   5.557   4.200   2.087
 6744TIP3    H120175   5.551   4.220   2.180
 6744TIP3    H220176   5.644   4.231   2.061
 6745TIP3   OH220177   4.194   5.398   5.637
 6745TIP3    H120178   4.120   5.359   5.591
 6745TIP3    H220179   4.155   5.448   5.709
 6746TIP3   OH220180   0.100   4.255   5.933
 6746TIP3    H120181   0.104   4.160   5.945
 6746TIP3    H220182   0.026   4.284   5.986
 6747TIP3   OH220183   7.815   1.280   0.624
 6747TIP3    H120184   7.876   1.230   0.677
 6747TIP3    H220185   7.767   1.334   0.687
 6748TIP3   OH220186   2.868   1.608   1.650
 6748TIP3    H120187   2.858   1.513   1.653
 6748TIP3    H220188   2.818   1.635   1.573
 6749TIP3   OH220189   2.875   6.715   6.590
 6749TIP3    H120190   2.929   6.793   6.599
 6749TIP3    H220191   2.841   6.719   6.501
 6750TIP3   OH220192   6.346   4.033   3.267
 6750TIP3    H120193   6.351   4.126   3.289
 6750TIP3    H220194   6.361   3.987   3.350
 6751TIP3   OH220195   5.356   4.315   3.154
 6751TIP3    H120196   5.428   4.357   3.202
 6751TIP3    H220197   5.325   4.246   3.213
 6752TIP3   OH220198   7.315   3.555   3.898
 6752TIP3    H120199   7.300   3.552   3.993
 6752TIP3    H220200   7.232   3.584   3.861
 6753TIP3   OH220201   6.969   4.098   0.733
 6753TIP3    H120202   7.016   4.180   0.750
 6753TIP3    H220203   6.977   4.049   0.815
 6754TIP3   OH220204   0.932   2.501   3.890
 6754TIP3    H120205   0.871   2.427   3.891
 6754TIP3    H220206   0.882   2.574   3.925
 6755TIP3   OH220207   4.815   1.445   4.671
 6755TIP3    H120208   4.884   1.459   4.735
 6755TIP3    H220209   4.859   1.404   4.596
 6756TIP3   OH220210   7.374   5.749   6.789
 6756TIP3    H120211   7.450   5.767   6.733
 6756TIP3    H220212   7.343   5.663   6.761
 6757TIP3   OH220213   4.650   5.317   5.425
 6757TIP3    H120214   4.677   5.393   5.373
 6757TIP3    H220215   4.554   5.318   5.420
 6758TIP3   OH220216   4.972   0.699   4.864
 6758TIP3    H120217   4.888   0.672   4.899
 6758TIP3    H220218   4.961   0.698   4.769
 6759TIP3   OH220219   1.569  -0.014   3.421
 6759TIP3    H120220   1.609   0.073   3.415
 6759TIP3    H220221   1.483  -0.004   3.381
 6760TIP3   OH220222   6.558   4.303   0.346
 6760TIP3    H120223   6.588   4.212   0.355
 6760TIP3    H220224   6.467   4.301   0.377
 6761TIP3   OH220225   2.546   4.474   0.125
 6761TIP3    H120226   2.464   4.475   0.075
 6761TIP3    H220227   2.614   4.477   0.058
 6762TIP3   OH220228   0.416   7.263   2.688
 6762TIP3    H120229   0.454   7.215   2.761
 6762TIP3    H220230   0.491   7.304   2.644
 6763TIP3   OH220231   3.276   0.639   2.308
 6763TIP3    H120232   3.366   0.629   2.339
 6763TIP3    H220233   3.236   0.553   2.324
 6764TIP3   OH220234   2.364   3.455   2.070
 6764TIP3    H120235   2.380   3.535   2.120
 6764TIP3    H220236   2.315   3.399   2.130
 6765TIP3   OH220237   6.653   2.682   3.711
 6765TIP3    H120238   6.733   2.651   3.754
 6765TIP3    H220239   6.628   2.611   3.652
 6766TIP3   OH220240   6.338   7.531   6.635
 6766TIP3    H120241   6.299   7.593   6.572
 6766TIP3    H220242   6.424   7.512   6.599
 6767TIP3   OH220243   1.481   2.393   4.828
 6767TIP3    H120244   1.540   2.419   4.757
 6767TIP3    H220245   1.471   2.299   4.816
 6768TIP3   OH220246   0.655   1.244   5.000
 6768TIP3    H120247   0.591   1.209   5.062
 6768TIP3    H220248   0.719   1.173   4.991
 6769TIP3   OH220249   1.974   4.326   5.428
 6769TIP3    H120250   1.894   4.356   5.385
 6769TIP3    H220251   2.011   4.405   5.468
 6770TIP3   OH220252   8.181   1.046   1.666
 6770TIP3    H120253   8.245   0.999   1.719
 6770TIP3    H220254   8.168   0.990   1.590
 6771TIP3   OH220255   3.801   3.325   0.899
 6771TIP3    H120256   3.886   3.324   0.855
 6771TIP3    H220257   3.741   3.285   0.836
 6772TIP3   OH220258   2.050   0.955   4.036
 6772TIP3    H120259   2.073   1.048   4.032
 6772TIP3    H220260   2.010   0.936   3.952
 6773TIP3   OH220261   7.680   5.314   1.437
 6773TIP3    H120262   7.700   5.407   1.438
 6773TIP3    H220263   7.584   5.310   1.441
 6774TIP3   OH220264   0.699   3.447   0.872
 6774TIP3    H120265   0.712   3.506   0.799
 6774TIP3    H220266   0.778   3.456   0.926
 6775TIP3   OH220267   3.936   2.036   3.458
 6775TIP3    H120268   4.019   2.047   3.504
 6775TIP3    H220269   3.883   2.112   3.483
 6776TIP3   OH220270   1.329   6.672   0.086
 6776TIP3    H120271   1.355   6.723   0.163
 6776TIP3    H220272   1.307   6.737   0.020
 6777TIP3   OH220273   5.991   7.227   4.235
 6777TIP3    H120274   5.946   7.300   4.193
 6777TIP3    H220275   6.035   7.182   4.163
 6778TIP3   OH220276   6.298   6.464   6.691
 6778TIP3    H120277   6.354   6.498   6.621
 6778TIP3    H220278   6.230   6.530   6.703
 6779TIP3   OH220279   5.374   1.170   0.717
 6779TIP3    H120280   5.391   1.242   0.656
 6779TIP3    H220281   5.428   1.191   0.794
 6780TIP3   OH220282   7.715   3.990   1.120
 6780TIP3    H120283   7.719   4.081   1.089
 6780TIP3    H220284   7.785   3.985   1.185
 6781TIP3   OH220285   1.641   5.548   1.107
 6781TIP3    H120286   1.585   5.539   1.184
 6781TIP3    H220287   1.582   5.535   1.033
 6782TIP3   OH220288   7.394   3.604   1.015
 6782TIP3    H120289   7.329   3.666   0.982
 6782TIP3    H220290   7.476   3.654   1.015
 6783TIP3   OH220291   1.647   1.608   5.755
 6783TIP3    H120292   1.665   1.638   5.666
 6783TIP3    H220293   1.641   1.512   5.747
 6784TIP3   OH220294   0.643   1.238   4.686
 6784TIP3    H120295   0.730   1.211   4.718
 6784TIP3    H220296   0.661   1.296   4.613
 6785TIP3   OH220297   5.399   1.733   2.987
 6785TIP3    H120298   5.446   1.804   2.942
 6785TIP3    H220299   5.430   1.737   3.077
 6786TIP3   OH220300   8.094   6.752   5.898
 6786TIP3    H120301   8.029   6.819   5.879
 6786TIP3    H220302   8.133   6.779   5.981
 6787TIP3   OH220303   2.886   0.062   3.927
 6787TIP3    H120304   2.879  -0.031   3.946
 6787TIP3    H220305   2.802   0.085   3.887
 6788TIP3   OH220306   5.984   5.756   2.470
 6788TIP3    H120307   5.901   5.799   2.489
 6788TIP3    H220308   5.974   5.667   2.504
 6789TIP3   OH220309   2.304   7.555   4.167
 6789TIP3    H120310   2.393   7.585   4.149
 6789TIP3    H220311   2.252   7.586   4.093
 6790TIP3   OH220312   3.977   3.912   6.557
 6790TIP3    H120313   3.946   3.891   6.469
 6790TIP3    H220314   3.972   3.830   6.605
 6791TIP3   OH220315   5.807   0.279   3.909
 6791TIP3    H120316   5.890   0.285   3.957
 6791TIP3    H220317   5.804   0.359   3.856
 6792TIP3   OH220318   4.715   3.349   4.824
 6792TIP3    H120319   4.655   3.394   4.884
 6792TIP3    H220320   4.659   3.313   4.756
 6793TIP3   OH220321   2.521   7.454   5.677
 6793TIP3    H120322   2.453   7.390   5.699
 6793TIP3    H220323   2.494   7.491   5.593
 6794TIP3   OH220324   2.823   6.745   3.306
 6794TIP3    H120325   2.839   6.750   3.212
 6794TIP3    H220326   2.780   6.660   3.318
 6795TIP3   OH220327   3.609   7.848   1.069
 6795TIP3    H120328   3.516   7.831   1.088
 6795TIP3    H220329   3.615   7.843   0.974
 6796TIP3   OH220330   0.814   1.216   6.169
 6796TIP3    H120331   0.851   1.271   6.100
 6796TIP3    H220332   0.833   1.264   6.250
 6797TIP3   OH220333   2.378   2.308   4.031
 6797TIP3    H120334   2.461   2.345   4.001
 6797TIP3    H220335   2.324   2.305   3.953
 6798TIP3   OH220336   3.148   6.694   1.213
 6798TIP3    H120337   3.055   6.680   1.234
 6798TIP3    H220338   3.177   6.758   1.278
 6799TIP3   OH220339   4.734   7.470   2.080
 6799TIP3    H120340   4.761   7.499   1.992
 6799TIP3    H220341   4.723   7.375   2.072
 6800TIP3   OH220342   0.422   7.620   3.808
 6800TIP3    H120343   0.499   7.670   3.833
 6800TIP3    H220344   0.454   7.558   3.742
 6801TIP3   OH220345   5.388   0.547   0.891
 6801TIP3    H120346   5.303   0.590   0.894
 6801TIP3    H220347   5.449   0.612   0.926
 6802TIP3   OH220348   7.560   7.668   0.877
 6802TIP3    H120349   7.615   7.591   0.893
 6802TIP3    H220350   7.482   7.653   0.930
 6803TIP3   OH220351   6.211   4.825   1.057
 6803TIP3    H120352   6.199   4.751   1.116
 6803TIP3    H220353   6.272   4.794   0.991
 6804TIP3   OH220354   3.491   0.396   3.511
 6804TIP3    H120355   3.484   0.418   3.604
 6804TIP3    H220356   3.498   0.300   3.510
 6805TIP3   OH220357   5.128   3.709   3.782
 6805TIP3    H120358   5.068   3.759   3.726
 6805TIP3    H220359   5.101   3.618   3.771
 6806TIP3   OH220360   7.526   2.072   2.531
 6806TIP3    H120361   7.489   2.006   2.589
 6806TIP3    H220362   7.621   2.060   2.538
 6807TIP3   OH220363   7.569   0.789   4.536
 6807TIP3    H120364   7.548   0.740   4.456
 6807TIP3    H220365   7.662   0.812   4.526
 6808TIP3   OH220366   4.915   0.296   2.519
 6808TIP3    H120367   4.950   0.259   2.438
 6808TIP3    H220368   4.852   0.362   2.490
 6809TIP3   OH220369   1.227   6.609   2.537
 6809TIP3    H120370   1.273   6.525   2.532
 6809TIP3    H220371   1.157   6.594   2.600
 6810TIP3   OH220372   1.468   3.322   2.640
 6810TIP3    H120373   1.525   3.327   2.563
 6810TIP3    H220374   1.392   3.271   2.610
 6811TIP3   OH220375   6.381   4.285   5.495
 6811TIP3    H120376   6.470   4.320   5.487
 6811TIP3    H220377   6.372   4.226   5.421
 6812TIP3   OH220378   1.039   7.381   0.508
 6812TIP3    H120379   1.109   7.439   0.539
 6812TIP3    H220380   1.006   7.424   0.429
 6813TIP3   OH220381   5.740   6.391   4.330
 6813TIP3    H120382   5.652   6.355   4.340
 6813TIP3    H220383   5.732   6.482   4.357
 6814TIP3   OH220384   0.378   1.505   1.391
 6814TIP3    H120385   0.366   1.561   1.469
 6814TIP3    H220386   0.462   1.532   1.355
 6815TIP3   OH220387   6.896   7.460   2.926
 6815TIP3    H120388   6.870   7.384   2.977
 6815TIP3    H220389   6.871   7.439   2.836
 6816TIP3   OH220390   5.195   6.911   5.899
 6816TIP3    H120391   5.103   6.892   5.880
 6816TIP3    H220392   5.209   6.999   5.865
 6817TIP3   OH220393   0.088   6.645   0.519
 6817TIP3    H120394   0.148   6.589   0.470
 6817TIP3    H220395   0.088   6.609   0.607
 6818TIP3   OH220396   3.364   7.283   5.457
 6818TIP3    H120397   3.450   7.324   5.460
 6818TIP3    H220398   3.321   7.323   5.381
 6819TIP3   OH220399   4.278   1.208   6.392
 6819TIP3    H120400   4.257   1.223   6.300
 6819TIP3    H220401   4.196   1.175   6.430
 6820TIP3   OH220402   7.757   1.682   1.652
 6820TIP3    H120403   7.813   1.644   1.584
 6820TIP3    H220404   7.807   1.756   1.687
 6821TIP3   OH220405   6.465   3.568   3.402
 6821TIP3    H120406   6.397   3.581   3.337
 6821TIP3    H220407   6.543   3.607   3.363
 6822TIP3   OH220408   1.658   4.176   4.259
 6822TIP3    H120409   1.654   4.080   4.256
 6822TIP3    H220410   1.605   4.204   4.184
 6823TIP3   OH220411   5.046   4.829   6.247
 6823TIP3    H120412   4.988   4.812   6.321
 6823TIP3    H220413   5.083   4.916   6.264
 6824TIP3   OH220414   5.927   2.643   0.488
 6824TIP3    H120415   5.963   2.621   0.574
 6824TIP3    H220416   5.991   2.610   0.426
 6825TIP3   OH220417   3.884   3.249   4.147
 6825TIP3    H120418   3.936   3.240   4.227
 6825TIP3    H220419   3.811   3.188   4.159
 6826TIP3   OH220420   3.924   6.401   5.831
 6826TIP3    H120421   3.949   6.492   5.817
 6826TIP3    H220422   3.828   6.402   5.830
 6827TIP3   OH220423   1.361   4.612   4.620
 6827TIP3    H120424   1.453   4.632   4.638
 6827TIP3    H220425   1.358   4.517   4.608
 6828TIP3   OH220426   3.224   3.120   1.369
 6828TIP3    H120427   3.211   3.208   1.403
 6828TIP3    H220428   3.299   3.127   1.310
 6829TIP3   OH220429   3.709   2.283   1.937
 6829TIP3    H120430   3.641   2.334   1.980
 6829TIP3    H220431   3.664   2.206   1.902
 6830TIP3   OH220432   0.496   5.449   6.476
 6830TIP3    H120433   0.568   5.510   6.490
 6830TIP3    H220434   0.430   5.475   6.540
 6831TIP3   OH220435   2.335   5.825   1.503
 6831TIP3    H120436   2.269   5.890   1.478
 6831TIP3    H220437   2.370   5.792   1.420
 6832TIP3   OH220438   5.395   3.582   1.403
 6832TIP3    H120439   5.346   3.652   1.445
 6832TIP3    H220440   5.435   3.534   1.475
 6833TIP3   OH220441   3.150   2.095   5.336
 6833TIP3    H120442   3.090   2.168   5.326
 6833TIP3    H220443   3.224   2.130   5.385
 6834TIP3   OH220444   0.132   3.878   2.915
 6834TIP3    H120445   0.064   3.848   2.855
 6834TIP3    H220446   0.084   3.912   2.990
 6835TIP3   OH220447   6.479   6.275   0.445
 6835TIP3    H120448   6.428   6.301   0.522
 6835TIP3    H220449   6.441   6.191   0.418
 6836TIP3   OH220450   2.273   4.906   2.969
 6836TIP3    H120451   2.357   4.940   2.937
 6836TIP3    H220452   2.242   4.848   2.900
 6837TIP3   OH220453   4.654   2.085   4.640
 6837TIP3    H120454   4.634   2.179   4.647
 6837TIP3    H220455   4.569   2.044   4.626
 6838TIP3   OH220456   5.127   4.205   3.936
 6838TIP3    H120457   5.074   4.244   4.005
 6838TIP3    H220458   5.116   4.110   3.948
 6839TIP3   OH220459   3.714   0.412   2.021
 6839TIP3    H120460   3.640   0.357   2.047
 6839TIP3    H220461   3.720   0.478   2.091
 6840TIP3   OH220462   4.650   4.363   2.692
 6840TIP3    H120463   4.693   4.405   2.767
 6840TIP3    H220464   4.584   4.426   2.663
 6841TIP3   OH220465   7.146   7.753   6.318
 6841TIP3    H120466   7.097   7.694   6.374
 6841TIP3    H220467   7.224   7.776   6.369
 6842TIP3   OH220468   0.752   7.235   1.221
 6842TIP3    H120469   0.704   7.318   1.219
 6842TIP3    H220470   0.747   7.206   1.312
 6843TIP3   OH220471   1.432   5.390   0.295
 6843TIP3    H120472   1.448   5.348   0.210
 6843TIP3    H220473   1.343   5.424   0.288
 6844TIP3   OH220474   7.768   0.703   1.253
 6844TIP3    H120475   7.684   0.678   1.214
 6844TIP3    H220476   7.754   0.695   1.348
 6845TIP3   OH220477   2.474   6.990   1.463
 6845TIP3    H120478   2.502   6.910   1.509
 6845TIP3    H220479   2.540   7.003   1.395
 6846TIP3   OH220480   3.067   0.720   4.731
 6846TIP3    H120481   3.124   0.686   4.800
 6846TIP3    H220482   3.001   0.771   4.777
 6847TIP3   OH220483   3.067   2.961   3.439
 6847TIP3    H120484   3.089   3.044   3.397
 6847TIP3    H220485   3.146   2.908   3.431
 6848TIP3   OH220486   1.113   1.562   6.319
 6848TIP3    H120487   1.166   1.581   6.242
 6848TIP3    H220488   1.176   1.552   6.390
 6849TIP3   OH220489   6.220   7.239   1.239
 6849TIP3    H120490   6.283   7.312   1.241
 6849TIP3    H220491   6.148   7.269   1.294
 6850TIP3   OH220492   7.056   0.430   2.111
 6850TIP3    H120493   7.023   0.346   2.080
 6850TIP3    H220494   6.980   0.475   2.147
 6851TIP3   OH220495   5.225   0.054   3.535
 6851TIP3    H120496   5.150   0.036   3.592
 6851TIP3    H220497   5.254   0.142   3.560
 6852TIP3   OH220498   8.168   6.540   0.838
 6852TIP3    H120499   8.141   6.625   0.804
 6852TIP3    H220500   8.086   6.497   0.864
 6853TIP3   OH220501   2.103   0.107   0.860
 6853TIP3    H120502   2.086   0.012   0.857
 6853TIP3    H220503   2.110   0.133   0.768
 6854TIP3   OH220504   3.556   2.381   3.032
 6854TIP3    H120505   3.615   2.350   3.102
 6854TIP3    H220506   3.514   2.302   2.999
 6855TIP3   OH220507   1.133   7.193   3.649
 6855TIP3    H120508   1.135   7.272   3.703
 6855TIP3    H220509   1.096   7.221   3.566
 6856TIP3   OH220510   6.443   4.851   3.995
 6856TIP3    H120511   6.524   4.853   4.047
 6856TIP3    H220512   6.374   4.868   4.059
 6857TIP3   OH220513   1.741   1.222   1.134
 6857TIP3    H120514   1.732   1.176   1.217
 6857TIP3    H220515   1.651   1.236   1.105
 6858TIP3   OH220516   1.317   4.391   4.826
 6858TIP3    H120517   1.332   4.380   4.733
 6858TIP3    H220518   1.400   4.423   4.861
 6859TIP3   OH220519   6.299   7.391   0.600
 6859TIP3    H120520   6.247   7.331   0.546
 6859TIP3    H220521   6.314   7.467   0.543
 6860TIP3   OH220522   6.710   7.757   6.746
 6860TIP3    H120523   6.658   7.838   6.741
 6860TIP3    H220524   6.791   7.783   6.790
 6861TIP3   OH220525   6.766   1.970   0.498
 6861TIP3    H120526   6.856   1.937   0.503
 6861TIP3    H220527   6.727   1.922   0.424
 6862TIP3   OH220528   2.831   0.877   4.580
 6862TIP3    H120529   2.872   0.932   4.647
 6862TIP3    H220530   2.897   0.871   4.511
 6863TIP3   OH220531   3.104   3.318   1.708
 6863TIP3    H120532   3.180   3.350   1.756
 6863TIP3    H220533   3.135   3.308   1.618
 6864TIP3   OH220534   4.390   7.414   6.737
 6864TIP3    H120535   4.371   7.411   6.831
 6864TIP3    H220536   4.344   7.338   6.701
 6865TIP3   OH220537   3.406   6.451   2.537
 6865TIP3    H120538   3.420   6.546   2.531
 6865TIP3    H220539   3.314   6.438   2.513
 6866TIP3   OH220540   7.893   2.084   1.973
 6866TIP3    H120541   7.971   2.064   1.920
 6866TIP3    H220542   7.918   2.059   2.062
 6867TIP3   OH220543   7.357   5.044   1.502
 6867TIP3    H120544   7.424   5.000   1.450
 6867TIP3    H220545   7.375   5.137   1.491
 6868TIP3   OH220546   3.680   1.630   4.664
 6868TIP3    H120547   3.768   1.610   4.633
 6868TIP3    H220548   3.689   1.646   4.757
 6869TIP3   OH220549   0.751   0.748   6.041
 6869TIP3    H120550   0.713   0.827   6.079
 6869TIP3    H220551   0.725   0.750   5.950
 6870TIP3   OH220552   5.404   0.318   4.337
 6870TIP3    H120553   5.396   0.346   4.428
 6870TIP3    H220554   5.326   0.353   4.294
 6871TIP3   OH220555   1.330   0.346   1.340
 6871TIP3    H120556   1.416   0.344   1.380
 6871TIP3    H220557   1.338   0.292   1.261
 6872TIP3   OH220558   1.303   2.966   0.103
 6872TIP3    H120559   1.297   3.059   0.125
 6872TIP3    H220560   1.394   2.955   0.073
 6873TIP3   OH220561   4.123   0.747   0.846
 6873TIP3    H120562   4.164   0.784   0.768
 6873TIP3    H220563   4.082   0.666   0.816
 6874TIP3   OH220564   8.317   5.641   0.752
 6874TIP3    H120565   8.256   5.611   0.684
 6874TIP3    H220566   8.334   5.733   0.730
 6875TIP3   OH220567   3.886   5.534   0.562
 6875TIP3    H120568   3.803   5.506   0.523
 6875TIP3    H220569   3.880   5.630   0.563
 6876TIP3   OH220570   4.510   2.348   4.972
 6876TIP3    H120571   4.514   2.252   4.972
 6876TIP3    H220572   4.416   2.368   4.971
 6877TIP3   OH220573   6.827   0.142   0.893
 6877TIP3    H120574   6.810   0.216   0.835
 6877TIP3    H220575   6.855   0.072   0.835
 6878TIP3   OH220576   5.426   7.464   3.130
 6878TIP3    H120577   5.509   7.464   3.178
 6878TIP3    H220578   5.374   7.394   3.169
 6879TIP3   OH220579   6.220   6.075   0.591
 6879TIP3    H120580   6.269   5.994   0.576
 6879TIP3    H220581   6.163   6.055   0.666
 6880TIP3   OH220582   2.781   0.495   6.142
 6880TIP3    H120583   2.734   0.579   6.145
 6880TIP3    H220584   2.802   0.483   6.049
 6881TIP3   OH220585   1.142   2.375   4.592
 6881TIP3    H120586   1.202   2.445   4.565
 6881TIP3    H220587   1.128   2.390   4.685
 6882TIP3   OH220588   7.342   7.384   5.853
 6882TIP3    H120589   7.368   7.292   5.860
 6882TIP3    H220590   7.419   7.433   5.880
 6883TIP3   OH220591   7.854   7.405   0.545
 6883TIP3    H120592   7.884   7.399   0.635
 6883TIP3    H220593   7.859   7.315   0.512
 6884TIP3   OH220594   2.637   7.114   6.557
 6884TIP3    H120595   2.719   7.136   6.601
 6884TIP3    H220596   2.616   7.192   6.506
 6885TIP3   OH220597   2.403   7.459   6.355
 6885TIP3    H120598   2.351   7.433   6.431
 6885TIP3    H220599   2.394   7.385   6.294
 6886TIP3   OH220600   6.383   2.477   5.576
 6886TIP3    H120601   6.324   2.546   5.605
 6886TIP3    H220602   6.406   2.502   5.486
 6887TIP3   OH220603   4.295   4.476   4.916
 6887TIP3    H120604   4.342   4.393   4.904
 6887TIP3    H220605   4.326   4.532   4.845
 6888TIP3   OH220606   6.855   6.989   3.438
 6888TIP3    H120607   6.858   6.988   3.534
 6888TIP3    H220608   6.855   7.082   3.415
 6889TIP3   OH220609   3.383   3.567   3.057
 6889TIP3    H120610   3.442   3.541   3.128
 6889TIP3    H220611   3.385   3.663   3.058
 6890TIP3   OH220612   5.521   2.520   5.013
 6890TIP3    H120613   5.606   2.492   5.048
 6890TIP3    H220614   5.504   2.459   4.941
 6891TIP3   OH220615   7.179   5.222   6.118
 6891TIP3    H120616   7.231   5.147   6.147
 6891TIP3    H220617   7.138   5.255   6.198
 6892TIP3   OH220618   5.268   7.277   3.287
 6892TIP3    H120619   5.266   7.183   3.272
 6892TIP3    H220620   5.180   7.307   3.265
 6893TIP3   OH220621   7.698   3.743   3.042
 6893TIP3    H120622   7.728   3.833   3.029
 6893TIP3    H220623   7.656   3.743   3.128
 6894TIP3   OH220624   6.501   7.339   1.255
 6894TIP3    H120625   6.569   7.320   1.190
 6894TIP3    H220626   6.536   7.413   1.305
 6895TIP3   OH220627   3.485   2.201   3.594
 6895TIP3    H120628   3.527   2.138   3.652
 6895TIP3    H220629   3.472   2.153   3.512
 6896TIP3   OH220630   3.334   0.613   3.757
 6896TIP3    H120631   3.402   0.651   3.702
 6896TIP3    H220632   3.372   0.613   3.845
 6897TIP3   OH220633   0.443   7.027   1.495
 6897TIP3    H120634   0.362   6.981   1.473
 6897TIP3    H220635   0.463   7.078   1.417
 6898TIP3   OH220636   1.791   2.705   0.950
 6898TIP3    H120637   1.749   2.723   1.034
 6898TIP3    H220638   1.786   2.788   0.903
 6899TIP3   OH220639   1.592   1.460   3.282
 6899TIP3    H120640   1.628   1.462   3.371
 6899TIP3    H220641   1.505   1.499   3.290
 6900TIP3   OH220642   6.891   3.411   0.475
 6900TIP3    H120643   6.896   3.318   0.493
 6900TIP3    H220644   6.797   3.428   0.462
 6901TIP3   OH220645   7.493   5.111   0.708
 6901TIP3    H120646   7.588   5.118   0.700
 6901TIP3    H220647   7.460   5.196   0.676
 6902TIP3   OH220648   6.036   7.355   2.616
 6902TIP3    H120649   5.962   7.385   2.564
 6902TIP3    H220650   5.998   7.329   2.700
 6903TIP3   OH220651   6.142   1.528   1.815
 6903TIP3    H120652   6.108   1.518   1.726
 6903TIP3    H220653   6.225   1.480   1.814
 6904TIP3   OH220654   4.575   1.673   5.185
 6904TIP3    H120655   4.516   1.687   5.258
 6904TIP3    H220656   4.534   1.719   5.112
 6905TIP3   OH220657   1.816   2.162   3.038
 6905TIP3    H120658   1.851   2.251   3.035
 6905TIP3    H220659   1.735   2.170   3.088
 6906TIP3   OH220660   0.258   7.691   4.397
 6906TIP3    H120661   0.214   7.653   4.321
 6906TIP3    H220662   0.231   7.783   4.397
 6907TIP3   OH220663   6.830   2.766   2.731
 6907TIP3    H120664   6.792   2.854   2.738
 6907TIP3    H220665   6.798   2.733   2.647
 6908TIP3   OH220666   0.996   5.391   1.660
 6908TIP3    H120667   1.060   5.398   1.731
 6908TIP3    H220668   0.974   5.482   1.639
 6909TIP3   OH220669   3.572   6.381   6.691
 6909TIP3    H120670   3.582   6.416   6.602
 6909TIP3    H220671   3.545   6.457   6.743
 6910TIP3   OH220672   4.429   4.875   2.775
 6910TIP3    H120673   4.353   4.865   2.831
 6910TIP3    H220674   4.483   4.941   2.818
 6911TIP3   OH220675   7.395   3.133   1.080
 6911TIP3    H120676   7.464   3.138   1.014
 6911TIP3    H220677   7.324   3.187   1.044
 6912TIP3   OH220678   4.406   3.712   2.329
 6912TIP3    H120679   4.323   3.732   2.287
 6912TIP3    H220680   4.439   3.636   2.282
 6913TIP3   OH220681   2.355   2.506   2.124
 6913TIP3    H120682   2.305   2.523   2.045
 6913TIP3    H220683   2.319   2.567   2.189
 6914TIP3   OH220684   3.244   0.365   6.208
 6914TIP3    H120685   3.303   0.290   6.217
 6914TIP3    H220686   3.289   0.424   6.148
 6915TIP3   OH220687   6.820   5.975   1.272
 6915TIP3    H120688   6.762   6.023   1.332
 6915TIP3    H220689   6.851   6.041   1.210
 6916TIP3   OH220690   5.578   2.056   2.000
 6916TIP3    H120691   5.583   1.961   1.990
 6916TIP3    H220692   5.600   2.071   2.092
 6917TIP3   OH220693   7.116   4.079   1.603
 6917TIP3    H120694   7.156   4.095   1.517
 6917TIP3    H220695   7.177   4.118   1.665
 6918TIP3   OH220696   3.324   0.768   3.183
 6918TIP3    H120697   3.393   0.824   3.219
 6918TIP3    H220698   3.265   0.828   3.139
 6919TIP3   OH220699   3.549   1.113   2.622
 6919TIP3    H120700   3.616   1.169   2.582
 6919TIP3    H220701   3.467   1.161   2.611
 6920TIP3   OH220702   0.846   0.164   6.537
 6920TIP3    H120703   0.902   0.120   6.601
 6920TIP3    H220704   0.906   0.191   6.467
 6921TIP3   OH220705   2.058   2.017   5.160
 6921TIP3    H120706   2.048   2.108   5.133
 6921TIP3    H220707   2.141   2.015   5.208
 6922TIP3   OH220708   7.210   1.035   1.669
 6922TIP3    H120709   7.138   0.972   1.658
 6922TIP3    H220710   7.177   1.116   1.631
 6923TIP3   OH220711   5.269   3.775   1.238
 6923TIP3    H120712   5.246   3.752   1.328
 6923TIP3    H220713   5.356   3.738   1.225
 6924TIP3   OH220714   7.910   6.097   1.191
 6924TIP3    H120715   7.872   6.094   1.279
 6924TIP3    H220716   7.976   6.166   1.196
 6925TIP3   OH220717   0.706   0.267   5.188
 6925TIP3    H120718   0.683   0.179   5.158
 6925TIP3    H220719   0.767   0.299   5.122
 6926TIP3   OH220720   2.113   7.401   0.587
 6926TIP3    H120721   2.194   7.367   0.626
 6926TIP3    H220722   2.057   7.324   0.577
 6927TIP3   OH220723   2.817   6.523   4.926
 6927TIP3    H120724   2.742   6.512   4.867
 6927TIP3    H220725   2.860   6.438   4.925
 6928TIP3   OH220726   5.036   4.817   2.538
 6928TIP3    H120727   4.948   4.779   2.528
 6928TIP3    H220728   5.091   4.742   2.562
 6929TIP3   OH220729   6.508   3.649   2.381
 6929TIP3    H120730   6.572   3.632   2.450
 6929TIP3    H220731   6.467   3.732   2.405
 6930TIP3   OH220732   3.908   3.889   6.300
 6930TIP3    H120733   3.897   3.915   6.209
 6930TIP3    H220734   3.957   3.807   6.296
 6931TIP3   OH220735   2.916   5.343   3.760
 6931TIP3    H120736   2.949   5.430   3.780
 6931TIP3    H220737   2.949   5.288   3.832
 6932TIP3   OH220738   2.776   3.014   2.311
 6932TIP3    H120739   2.722   2.994   2.234
 6932TIP3    H220740   2.743   3.099   2.341
 6933TIP3   OH220741   7.980   2.249   4.986
 6933TIP3    H120742   7.970   2.158   5.013
 6933TIP3    H220743   7.939   2.252   4.899
 6934TIP3   OH220744   7.089   3.213   5.391
 6934TIP3    H120745   7.107   3.221   5.485
 6934TIP3    H220746   7.120   3.296   5.354
 6935TIP3   OH220747   2.380   5.431   1.671
 6935TIP3    H120748   2.352   5.518   1.642
 6935TIP3    H220749   2.321   5.411   1.744
 6936TIP3   OH220750   5.537   1.232   4.636
 6936TIP3    H120751   5.465   1.175   4.662
 6936TIP3    H220752   5.554   1.209   4.544
 6937TIP3   OH220753   6.385   1.547   0.493
 6937TIP3    H120754   6.473   1.581   0.510
 6937TIP3    H220755   6.359   1.506   0.575
 6938TIP3   OH220756   6.641   7.162   4.211
 6938TIP3    H120757   6.682   7.078   4.187
 6938TIP3    H220758   6.691   7.228   4.163
 6939TIP3   OH220759   1.603   0.336   0.933
 6939TIP3    H120760   1.631   0.280   0.860
 6939TIP3    H220761   1.618   0.425   0.901
 6940TIP3   OH220762   1.759   4.327   5.069
 6940TIP3    H120763   1.747   4.379   5.148
 6940TIP3    H220764   1.813   4.253   5.096
 6941TIP3   OH220765   0.879   7.633   6.025
 6941TIP3    H120766   0.815   7.635   5.954
 6941TIP3    H220767   0.866   7.547   6.066
 6942TIP3   OH220768   6.971   0.186   3.773
 6942TIP3    H120769   7.061   0.199   3.802
 6942TIP3    H220770   6.919   0.245   3.827
 6943TIP3   OH220771   3.061   2.022   0.814
 6943TIP3    H120772   3.108   2.029   0.898
 6943TIP3    H220773   2.971   2.046   0.835
 6944TIP3   OH220774   4.594   1.097   0.539
 6944TIP3    H120775   4.537   1.170   0.564
 6944TIP3    H220776   4.647   1.132   0.467
 6945TIP3   OH220777   5.515   3.869   2.576
 6945TIP3    H120778   5.526   3.919   2.495
 6945TIP3    H220779   5.467   3.928   2.634
 6946TIP3   OH220780   5.014   7.328   5.350
 6946TIP3    H120781   5.079   7.283   5.296
 6946TIP3    H220782   5.065   7.371   5.419
 6947TIP3   OH220783   3.509   7.192   6.290
 6947TIP3    H120784   3.461   7.241   6.357
 6947TIP3    H220785   3.600   7.221   6.300
 6948TIP3   OH220786   7.017   3.835   3.581
 6948TIP3    H120787   6.958   3.863   3.512
 6948TIP3    H220788   7.073   3.910   3.597
 6949TIP3   OH220789   1.738   3.785   0.546
 6949TIP3    H120790   1.797   3.754   0.478
 6949TIP3    H220791   1.650   3.773   0.509
 6950TIP3   OH220792   4.087   4.526   5.643
 6950TIP3    H120793   4.003   4.563   5.672
 6950TIP3    H220794   4.131   4.500   5.723
 6951TIP3   OH220795   2.417   6.667   1.932
 6951TIP3    H120796   2.351   6.598   1.920
 6951TIP3    H220797   2.391   6.711   2.013
 6952TIP3   OH220798   2.269   1.656   2.845
 6952TIP3    H120799   2.345   1.673   2.790
 6952TIP3    H220800   2.240   1.568   2.820
 6953TIP3   OH220801   1.607   3.837   5.119
 6953TIP3    H120802   1.611   3.925   5.082
 6953TIP3    H220803   1.516   3.811   5.110
 6954TIP3   OH220804   0.636   4.466   2.737
 6954TIP3    H120805   0.609   4.427   2.654
 6954TIP3    H220806   0.702   4.532   2.712
 6955TIP3   OH220807   4.331   3.763   1.606
 6955TIP3    H120808   4.424   3.783   1.620
 6955TIP3    H220809   4.289   3.849   1.600
 6956TIP3   OH220810   1.389   4.800   4.012
 6956TIP3    H120811   1.303   4.781   3.975
 6956TIP3    H220812   1.403   4.730   4.077
 6957TIP3   OH220813   0.882   1.087   2.347
 6957TIP3    H120814   0.908   1.143   2.420
 6957TIP3    H220815   0.883   1.145   2.270
 6958TIP3   OH220816   5.822   2.681   5.351
 6958TIP3    H120817   5.905   2.718   5.381
 6958TIP3    H220818   5.763   2.690   5.426
 6959TIP3   OH220819   7.603   5.819   4.691
 6959TIP3    H120820   7.607   5.754   4.761
 6959TIP3    H220821   7.510   5.841   4.684
 6960TIP3   OH220822   6.668   5.137   2.980
 6960TIP3    H120823   6.645   5.229   2.988
 6960TIP3    H220824   6.680   5.107   3.070
 6961TIP3   OH220825   6.320   4.109   2.277
 6961TIP3    H120826   6.286   4.165   2.206
 6961TIP3    H220827   6.318   4.165   2.354
 6962TIP3   OH220828   4.651   2.767   3.708
 6962TIP3    H120829   4.727   2.787   3.653
 6962TIP3    H220830   4.603   2.850   3.715
 6963TIP3   OH220831   3.306   2.172   3.100
 6963TIP3    H120832   3.360   2.121   3.040
 6963TIP3    H220833   3.239   2.212   3.045
 6964TIP3   OH220834   4.807   1.735   6.653
 6964TIP3    H120835   4.855   1.685   6.720
 6964TIP3    H220836   4.771   1.669   6.595
 6965TIP3   OH220837   5.724   5.761   2.921
 6965TIP3    H120838   5.639   5.722   2.903
 6965TIP3    H220839   5.706   5.854   2.932
 6966TIP3   OH220840   1.560   5.590   6.526
 6966TIP3    H120841   1.588   5.675   6.560
 6966TIP3    H220842   1.628   5.565   6.464
 6967TIP3   OH220843   8.185   6.882   6.121
 6967TIP3    H120844   8.163   6.878   6.214
 6967TIP3    H220845   8.259   6.943   6.117
 6968TIP3   OH220846   5.847   1.856   5.423
 6968TIP3    H120847   5.893   1.777   5.452
 6968TIP3    H220848   5.757   1.828   5.412
 6969TIP3   OH220849   0.499   1.180   0.310
 6969TIP3    H120850   0.578   1.132   0.283
 6969TIP3    H220851   0.498   1.173   0.405
 6970TIP3   OH220852   7.997   7.559   0.056
 6970TIP3    H120853   8.001   7.512  -0.027
 6970TIP3    H220854   8.014   7.493   0.123
 6971TIP3   OH220855   1.713   0.587   5.698
 6971TIP3    H120856   1.731   0.533   5.775
 6971TIP3    H220857   1.630   0.631   5.719
 6972TIP3   OH220858   2.107   2.079   0.168
 6972TIP3    H120859   2.060   2.023   0.106
 6972TIP3    H220860   2.162   2.018   0.217
 6973TIP3   OH220861   7.101   5.596   0.203
 6973TIP3    H120862   7.162   5.641   0.144
 6973TIP3    H220863   7.141   5.509   0.214
 6974TIP3   OH220864   5.962   1.278   0.400
 6974TIP3    H120865   6.035   1.316   0.449
 6974TIP3    H220866   5.936   1.347   0.339
 6975TIP3   OH220867   8.044   5.453   2.609
 6975TIP3    H120868   8.116   5.500   2.568
 6975TIP3    H220869   7.984   5.521   2.639
 6976TIP3   OH220870   3.301   2.066   5.709
 6976TIP3    H120871   3.257   2.005   5.649
 6976TIP3    H220872   3.393   2.061   5.684
 6977TIP3   OH220873   8.109   0.264   6.235
 6977TIP3    H120874   8.128   0.335   6.174
 6977TIP3    H220875   8.038   0.297   6.289
 6978TIP3   OH220876   0.338   3.051   0.979
 6978TIP3    H120877   0.430   3.027   0.968
 6978TIP3    H220878   0.339   3.147   0.983
 6979TIP3   OH220879   0.106   6.161   2.020
 6979TIP3    H120880   0.133   6.222   2.088
 6979TIP3    H220881   0.127   6.206   1.938
 6980TIP3   OH220882   0.752   1.599   0.329
 6980TIP3    H120883   0.793   1.637   0.251
 6980TIP3    H220884   0.675   1.552   0.296
 6981TIP3   OH220885   2.739   7.399   3.166
 6981TIP3    H120886   2.762   7.434   3.253
 6981TIP3    H220887   2.782   7.313   3.163
 6982TIP3   OH220888   8.001   7.482   1.944
 6982TIP3    H120889   7.918   7.436   1.934
 6982TIP3    H220890   7.977   7.569   1.977
 6983TIP3   OH220891   8.218   5.595   2.472
 6983TIP3    H120892   8.157   5.638   2.411
 6983TIP3    H220893   8.294   5.574   2.418
 6984TIP3   OH220894   5.002   0.341   2.059
 6984TIP3    H120895   5.050   0.337   1.976
 6984TIP3    H220896   4.910   0.334   2.032
 6985TIP3   OH220897   2.600   4.499   6.423
 6985TIP3    H120898   2.623   4.591   6.429
 6985TIP3    H220899   2.515   4.492   6.468
 6986TIP3   OH220900   6.947   3.033   5.706
 6986TIP3    H120901   6.885   2.961   5.692
 6986TIP3    H220902   6.913   3.078   5.784
 6987TIP3   OH220903   2.840   3.775   1.622
 6987TIP3    H120904   2.876   3.863   1.633
 6987TIP3    H220905   2.906   3.717   1.659
 6988TIP3   OH220906   6.362   4.076   2.697
 6988TIP3    H120907   6.394   4.023   2.769
 6988TIP3    H220908   6.273   4.101   2.722
 6989TIP3   OH220909   4.052   6.345   4.155
 6989TIP3    H120910   4.061   6.354   4.060
 6989TIP3    H220911   3.982   6.281   4.166
 6990TIP3   OH220912   1.579   6.714   5.432
 6990TIP3    H120913   1.538   6.643   5.481
 6990TIP3    H220914   1.666   6.723   5.471
 6991TIP3   OH220915   2.666   1.431   0.139
 6991TIP3    H120916   2.581   1.401   0.174
 6991TIP3    H220917   2.651   1.522   0.115
 6992TIP3   OH220918   6.153   7.255   4.822
 6992TIP3    H120919   6.197   7.169   4.820
 6992TIP3    H220920   6.145   7.279   4.730
 6993TIP3   OH220921   4.614   5.492   4.550
 6993TIP3    H120922   4.586   5.583   4.558
 6993TIP3    H220923   4.532   5.441   4.551
 6994TIP3   OH220924   2.265   7.719   2.429
 6994TIP3    H120925   2.223   7.633   2.432
 6994TIP3    H220926   2.226   7.763   2.354
 6995TIP3   OH220927   5.904   2.388   3.083
 6995TIP3    H120928   5.893   2.398   2.989
 6995TIP3    H220929   5.958   2.310   3.093
 6996TIP3   OH220930   5.810   2.517   3.669
 6996TIP3    H120931   5.891   2.528   3.618
 6996TIP3    H220932   5.823   2.572   3.747
 6997TIP3   OH220933   7.815   1.235   4.838
 6997TIP3    H120934   7.863   1.162   4.799
 6997TIP3    H220935   7.883   1.298   4.863
 6998TIP3   OH220936   1.865   6.661   1.570
 6998TIP3    H120937   1.780   6.699   1.591
 6998TIP3    H220938   1.867   6.578   1.618
 6999TIP3   OH220939   7.408   4.977   0.241
 6999TIP3    H120940   7.351   4.927   0.183
 6999TIP3    H220941   7.490   4.926   0.243
 7000TIP3   OH220942   0.877   2.103   2.079
 7000TIP3    H120943   0.953   2.045   2.076
 7000TIP3    H220944   0.816   2.060   2.139
 7001TIP3   OH220945   8.030   6.948   2.345
 7001TIP3    H120946   7.993   7.037   2.338
 7001TIP3    H220947   7.992   6.902   2.270
 7002TIP3   OH220948   7.880   4.719   0.978
 7002TIP3    H120949   7.944   4.790   0.983
 7002TIP3    H220950   7.850   4.706   1.068
 7003TIP3   OH220951   1.913   4.822   6.281
 7003TIP3    H120952   1.825   4.794   6.307
 7003TIP3    H220953   1.930   4.899   6.335
 7004TIP3   OH220954   4.108   1.149   6.109
 7004TIP3    H120955   4.150   1.071   6.073
 7004TIP3    H220956   4.078   1.198   6.032
 7005TIP3   OH220957   5.284   2.628  -0.012
 7005TIP3    H120958   5.251   2.610   0.076
 7005TIP3    H220959   5.283   2.724  -0.018
 7006TIP3   OH220960   5.614   4.337   6.233
 7006TIP3    H120961   5.702   4.303   6.219
 7006TIP3    H220962   5.626   4.417   6.283
 7007TIP3   OH220963   6.290   5.163   2.871
 7007TIP3    H120964   6.292   5.118   2.787
 7007TIP3    H220965   6.205   5.207   2.872
 7008TIP3   OH220966   5.523   1.662   6.123
 7008TIP3    H120967   5.505   1.748   6.160
 7008TIP3    H220968   5.540   1.607   6.199
 7009TIP3   OH220969   3.133   5.538   0.344
 7009TIP3    H120970   3.188   5.615   0.360
 7009TIP3    H220971   3.044   5.569   0.361
 7010TIP3   OH220972   2.425   0.179   4.399
 7010TIP3    H120973   2.342   0.141   4.428
 7010TIP3    H220974   2.422   0.269   4.432
 7011TIP3   OH220975   1.727   1.749   6.663
 7011TIP3    H120976   1.711   1.778   6.753
 7011TIP3    H220977   1.802   1.801   6.635
 7012TIP3   OH220978   0.137   0.926   1.731
 7012TIP3    H120979   0.159   0.833   1.733
 7012TIP3    H220980   0.119   0.948   1.823
 7013TIP3   OH220981   1.397   4.372   2.273
 7013TIP3    H120982   1.474   4.338   2.228
 7013TIP3    H220983   1.414   4.466   2.282
 7014TIP3   OH220984   3.022   6.603   4.772
 7014TIP3    H120985   2.938   6.608   4.818
 7014TIP3    H220986   3.078   6.551   4.830
 7015TIP3   OH220987   3.118   2.567   1.956
 7015TIP3    H120988   3.140   2.615   1.877
 7015TIP3    H220989   3.123   2.632   2.026
 7016TIP3   OH220990   4.370   6.882   6.475
 7016TIP3    H120991   4.315   6.821   6.524
 7016TIP3    H220992   4.312   6.956   6.456
 7017TIP3   OH220993   0.621   7.287   3.804
 7017TIP3    H120994   0.533   7.250   3.814
 7017TIP3    H220995   0.676   7.213   3.779
 7018TIP3   OH220996   5.377   7.232   5.552
 7018TIP3    H120997   5.303   7.171   5.552
 7018TIP3    H220998   5.359   7.292   5.624
 7019TIP3   OH220999   1.317   7.428   1.335
 7019TIP3    H121000   1.234   7.463   1.368
 7019TIP3    H221001   1.320   7.455   1.243
 7020TIP3   OH221002   5.688   7.567   6.695
 7020TIP3    H121003   5.613   7.511   6.677
 7020TIP3    H221004   5.733   7.523   6.768
 7021TIP3   OH221005   2.637  -0.058   6.736
 7021TIP3    H121006   2.694  -0.027   6.666
 7021TIP3    H221007   2.629   0.016   6.796
 7022TIP3   OH221008   5.846   5.664   4.137
 7022TIP3    H121009   5.891   5.716   4.203
 7022TIP3    H221010   5.860   5.711   4.055
 7023TIP3   OH221011   3.807   5.156   0.497
 7023TIP3    H121012   3.738   5.160   0.564
 7023TIP3    H221013   3.877   5.211   0.532
 7024TIP3   OH221014   2.740   2.231   4.268
 7024TIP3    H121015   2.771   2.228   4.177
 7024TIP3    H221016   2.804   2.179   4.317
 7025TIP3   OH221017   4.347   1.504   3.917
 7025TIP3    H121018   4.345   1.469   4.006
 7025TIP3    H221019   4.255   1.518   3.895
 7026TIP3   OH221020   5.908   3.394   3.729
 7026TIP3    H121021   5.954   3.322   3.773
 7026TIP3    H221022   5.900   3.364   3.638
 7027TIP3   OH221023   6.726   5.371   2.334
 7027TIP3    H121024   6.793   5.423   2.378
 7027TIP3    H221025   6.754   5.280   2.348
 7028TIP3   OH221026   5.134   4.995   2.348
 7028TIP3    H121027   5.178   4.929   2.294
 7028TIP3    H221028   5.099   4.946   2.423
 7029TIP3   OH221029   5.819   7.223   0.082
 7029TIP3    H121030   5.870   7.202   0.004
 7029TIP3    H221031   5.732   7.244   0.048
 7030TIP3   OH221032   3.585   3.158   2.410
 7030TIP3    H121033   3.627   3.091   2.463
 7030TIP3    H221034   3.536   3.212   2.472
 7031TIP3   OH221035   3.393   6.035   4.424
 7031TIP3    H121036   3.350   6.000   4.502
 7031TIP3    H221037   3.348   5.993   4.351
 7032TIP3   OH221038   5.985   4.595   4.173
 7032TIP3    H121039   6.012   4.665   4.231
 7032TIP3    H221040   6.002   4.628   4.085
 7033TIP3   OH221041   3.155   7.285   5.001
 7033TIP3    H121042   3.123   7.375   5.007
 7033TIP3    H221043   3.249   7.291   5.018
 7034TIP3   OH221044   0.278   3.339   1.052
 7034TIP3    H121045   0.373   3.327   1.062
 7034TIP3    H221046   0.263   3.430   1.075
 7035TIP3   OH221047   4.487   0.356   0.613
 7035TIP3    H121048   4.422   0.388   0.676
 7035TIP3    H221049   4.470   0.407   0.533
 7036TIP3   OH221050   3.626   6.513   2.770
 7036TIP3    H121051   3.707   6.554   2.800
 7036TIP3    H221052   3.605   6.557   2.688
 7037TIP3   OH221053   3.471   6.200   2.252
 7037TIP3    H121054   3.387   6.236   2.225
 7037TIP3    H221055   3.490   6.132   2.187
 7038TIP3   OH221056   6.721   1.333   5.425
 7038TIP3    H121057   6.663   1.279   5.371
 7038TIP3    H221058   6.679   1.419   5.428
 7039TIP3   OH221059   5.941   4.257   0.000
 7039TIP3    H121060   5.995   4.243   0.078
 7039TIP3    H221061   5.851   4.242   0.029
 7040TIP3   OH221062   1.180   0.853   1.114
 7040TIP3    H121063   1.163   0.759   1.123
 7040TIP3    H221064   1.121   0.881   1.045
 7041TIP3   OH221065   8.305   0.432   2.177
 7041TIP3    H121066   8.233   0.388   2.222
 7041TIP3    H221067   8.318   0.513   2.225
 7042TIP3   OH221068   2.341   4.618   0.740
 7042TIP3    H121069   2.312   4.709   0.746
 7042TIP3    H221070   2.398   4.616   0.663
 7043TIP3   OH221071   7.072   4.850   6.037
 7043TIP3    H121072   6.990   4.827   5.994
 7043TIP3    H221073   7.047   4.908   6.108
 7044TIP3   OH221074   3.715   3.910   3.372
 7044TIP3    H121075   3.666   3.837   3.410
 7044TIP3    H221076   3.758   3.952   3.446
 7045TIP3   OH221077   1.663   6.059   3.174
 7045TIP3    H121078   1.621   6.143   3.191
 7045TIP3    H221079   1.693   6.030   3.260
 7046TIP3   OH221080   4.467   3.236   5.266
 7046TIP3    H121081   4.515   3.315   5.290
 7046TIP3    H221082   4.440   3.197   5.349
 7047TIP3   OH221083   0.585   7.707   3.283
 7047TIP3    H121084   0.534   7.638   3.239
 7047TIP3    H221085   0.675   7.673   3.283
 7048TIP3   OH221086   4.276   0.809   4.375
 7048TIP3    H121087   4.354   0.825   4.323
 7048TIP3    H221088   4.234   0.895   4.384
 7049TIP3   OH221089   6.732   2.368   3.304
 7049TIP3    H121090   6.637   2.362   3.302
 7049TIP3    H221091   6.751   2.413   3.387
 7050TIP3   OH221092   7.680   1.310   6.367
 7050TIP3    H121093   7.713   1.224   6.339
 7050TIP3    H221094   7.619   1.335   6.297
 7051TIP3   OH221095   6.899   1.893   3.250
 7051TIP3    H121096   6.848   1.972   3.271
 7051TIP3    H221097   6.960   1.885   3.324
 7052TIP3   OH221098   1.729   6.546   4.144
 7052TIP3    H121099   1.774   6.610   4.199
 7052TIP3    H221100   1.749   6.572   4.055
 7053TIP3   OH221101   4.797   0.886   4.739
 7053TIP3    H121102   4.805   0.950   4.809
 7053TIP3    H221103   4.883   0.884   4.697
 7054TIP3   OH221104   0.825   1.743   2.751
 7054TIP3    H121105   0.864   1.676   2.808
 7054TIP3    H221106   0.894   1.809   2.741
 7055TIP3   OH221107   6.919   0.395   6.669
 7055TIP3    H121108   6.855   0.465   6.654
 7055TIP3    H221109   6.888   0.351   6.748
 7056TIP3   OH221110   7.099   3.140   4.591
 7056TIP3    H121111   7.083   3.049   4.568
 7056TIP3    H221112   7.013   3.175   4.613
 7057TIP3   OH221113   3.139   3.853   5.032
 7057TIP3    H121114   3.056   3.839   5.079
 7057TIP3    H221115   3.150   3.774   4.979
 7058TIP3   OH221116   0.811   4.129   0.014
 7058TIP3    H121117   0.800   4.135   0.108
 7058TIP3    H221118   0.835   4.037  -0.002
 7059TIP3   OH221119   6.853   6.735   4.880
 7059TIP3    H121120   6.807   6.774   4.954
 7059TIP3    H221121   6.821   6.644   4.877
 7060TIP3   OH221122   2.595   2.787   6.681
 7060TIP3    H121123   2.635   2.746   6.758
 7060TIP3    H221124   2.658   2.856   6.656
 7061TIP3   OH221125   3.790   3.346   6.672
 7061TIP3    H121126   3.837   3.331   6.754
 7061TIP3    H221127   3.705   3.380   6.698
 7062TIP3   OH221128   3.952   2.802   5.829
 7062TIP3    H121129   3.912   2.750   5.900
 7062TIP3    H221130   3.918   2.890   5.843
 7063TIP3   OH221131   2.358   6.619   3.307
 7063TIP3    H121132   2.388   6.704   3.339
 7063TIP3    H221133   2.341   6.569   3.386
 7064TIP3   OH221134   0.145   7.598   3.748
 7064TIP3    H121135   0.127   7.642   3.665
 7064TIP3    H221136   0.234   7.626   3.771
 7065TIP3   OH221137   0.871   3.036   5.748
 7065TIP3    H121138   0.937   3.076   5.804
 7065TIP3    H221139   0.824   3.109   5.708
 7066TIP3   OH221140   3.170   3.819   4.071
 7066TIP3    H121141   3.142   3.828   4.162
 7066TIP3    H221142   3.167   3.725   4.053
 7067TIP3   OH221143   5.350   0.604   5.212
 7067TIP3    H121144   5.392   0.549   5.278
 7067TIP3    H221145   5.258   0.609   5.240
 7068TIP3   OH221146   0.189   4.456   0.248
 7068TIP3    H121147   0.139   4.420   0.175
 7068TIP3    H221148   0.128   4.515   0.293
 7069TIP3   OH221149   1.789   7.250   5.193
 7069TIP3    H121150   1.833   7.215   5.116
 7069TIP3    H221151   1.810   7.343   5.193
 7070TIP3   OH221152   4.395   4.206   4.794
 7070TIP3    H121153   4.327   4.200   4.727
 7070TIP3    H221154   4.402   4.117   4.829
 7071TIP3   OH221155   4.071   4.622   6.387
 7071TIP3    H121156   4.141   4.678   6.353
 7071TIP3    H221157   4.117   4.548   6.427
 7072TIP3   OH221158   6.109   0.102   4.543
 7072TIP3    H121159   6.179   0.049   4.503
 7072TIP3    H221160   6.109   0.076   4.635
 7073TIP3   OH221161   1.065   3.384   4.368
 7073TIP3    H121162   0.992   3.391   4.429
 7073TIP3    H221163   1.025   3.369   4.283
 7074TIP3   OH221164   0.509   0.731   5.581
 7074TIP3    H121165   0.445   0.660   5.583
 7074TIP3    H221166   0.541   0.737   5.671
 7075TIP3   OH221167   1.433   1.046   0.294
 7075TIP3    H121168   1.438   1.063   0.388
 7075TIP3    H221169   1.449   1.131   0.253
 7076TIP3   OH221170   6.887   6.060   0.026
 7076TIP3    H121171   6.793   6.051   0.037
 7076TIP3    H221172   6.920   6.079   0.114
 7077TIP3   OH221173   5.138   0.669   3.933
 7077TIP3    H121174   5.096   0.645   4.016
 7077TIP3    H221175   5.202   0.736   3.958
 7078TIP3   OH221176   6.138   7.084   3.274
 7078TIP3    H121177   6.055   7.048   3.244
 7078TIP3    H221178   6.127   7.179   3.267
 7079TIP3   OH221179   5.956   1.296   3.516
 7079TIP3    H121180   6.016   1.361   3.479
 7079TIP3    H221181   5.871   1.315   3.475
 7080TIP3   OH221182   8.018   0.564   1.181
 7080TIP3    H121183   7.933   0.585   1.220
 7080TIP3    H221184   8.009   0.474   1.149
 7081TIP3   OH221185   5.177   5.739   2.257
 7081TIP3    H121186   5.202   5.762   2.346
 7081TIP3    H221187   5.205   5.648   2.247
 7082TIP3   OH221188   5.440   6.546   2.906
 7082TIP3    H121189   5.358   6.499   2.924
 7082TIP3    H221190   5.421   6.599   2.828
 7083TIP3   OH221191   0.908   0.490   0.875
 7083TIP3    H121192   0.936   0.523   0.961
 7083TIP3    H221193   0.872   0.567   0.831
 7084TIP3   OH221194   2.010   7.614   3.719
 7084TIP3    H121195   1.922   7.652   3.717
 7084TIP3    H221196   2.019   7.569   3.635
 7085TIP3   OH221197   7.965   4.479   4.883
 7085TIP3    H121198   7.903   4.552   4.886
 7085TIP3    H221199   7.919   4.407   4.924
 7086TIP3   OH221200   8.068   1.286   5.504
 7086TIP3    H121201   8.109   1.223   5.445
 7086TIP3    H221202   8.050   1.237   5.584
 7087TIP3   OH221203   1.781   5.136   5.444
 7087TIP3    H121204   1.728   5.114   5.520
 7087TIP3    H221205   1.720   5.181   5.385
 7088TIP3   OH221206   0.828   1.320   4.472
 7088TIP3    H121207   0.823   1.235   4.430
 7088TIP3    H221208   0.868   1.377   4.407
 7089TIP3   OH221209   7.485   1.107   3.084
 7089TIP3    H121210   7.575   1.096   3.118
 7089TIP3    H221211   7.440   1.155   3.153
 7090TIP3   OH221212   2.776   3.307   1.013
 7090TIP3    H121213   2.762   3.370   1.083
 7090TIP3    H221214   2.851   3.343   0.964
 7091TIP3   OH221215   2.114   7.700   0.640
 7091TIP3    H121216   2.101   7.605   0.638
 7091TIP3    H221217   2.166   7.719   0.562
 7092TIP3   OH221218   3.222   3.724   0.975
 7092TIP3    H121219   3.307   3.712   1.018
 7092TIP3    H221220   3.164   3.663   1.020
 7093TIP3   OH221221   0.196   1.005   5.757
 7093TIP3    H121222   0.165   0.965   5.676
 7093TIP3    H221223   0.268   0.948   5.786
 7094TIP3   OH221224   4.489   3.492   2.201
 7094TIP3    H121225   4.455   3.437   2.130
 7094TIP3    H221226   4.576   3.519   2.171
 7095TIP3   OH221227   0.847   0.313   3.239
 7095TIP3    H121228   0.805   0.276   3.317
 7095TIP3    H221229   0.897   0.388   3.273
 7096TIP3   OH221230   1.398   5.079   4.019
 7096TIP3    H121231   1.432   5.087   4.108
 7096TIP3    H221232   1.420   4.989   3.993
 7097TIP3   OH221233   6.900   2.396   0.224
 7097TIP3    H121234   6.935   2.343   0.152
 7097TIP3    H221235   6.917   2.344   0.303
 7098TIP3   OH221236   5.469   2.477   0.916
 7098TIP3    H121237   5.466   2.487   0.821
 7098TIP3    H221238   5.417   2.399   0.934
 7099TIP3   OH221239   0.301   0.010   0.656
 7099TIP3    H121240   0.352   0.055   0.588
 7099TIP3    H221241   0.228  -0.029   0.608
 7100TIP3   OH221242   6.774   0.567   4.435
 7100TIP3    H121243   6.819   0.512   4.371
 7100TIP3    H221244   6.749   0.506   4.505
 7101TIP3   OH221245   6.622   1.554   4.714
 7101TIP3    H121246   6.646   1.489   4.780
 7101TIP3    H221247   6.705   1.597   4.691
 7102TIP3   OH221248   4.171   3.771   2.194
 7102TIP3    H121249   4.137   3.817   2.271
 7102TIP3    H221250   4.094   3.759   2.138
 7103TIP3   OH221251   0.722   1.308   2.490
 7103TIP3    H121252   0.663   1.244   2.449
 7103TIP3    H221253   0.669   1.388   2.498
 7104TIP3   OH221254   5.929   0.048   6.740
 7104TIP3    H121255   5.940  -0.046   6.759
 7104TIP3    H221256   6.001   0.069   6.681
 7105TIP3   OH221257   4.872   2.246   5.752
 7105TIP3    H121258   4.917   2.172   5.792
 7105TIP3    H221259   4.792   2.210   5.715
 7106TIP3   OH221260   1.658   5.657   5.911
 7106TIP3    H121261   1.713   5.585   5.881
 7106TIP3    H221262   1.691   5.676   5.999
 7107TIP3   OH221263   6.955   2.211   3.517
 7107TIP3    H121264   7.016   2.148   3.556
 7107TIP3    H221265   7.001   2.244   3.440
 7108TIP3   OH221266   8.098   2.488   0.848
 7108TIP3    H121267   8.040   2.563   0.863
 7108TIP3    H221268   8.153   2.514   0.774
 7109TIP3   OH221269   2.812   4.528   4.470
 7109TIP3    H121270   2.861   4.555   4.547
 7109TIP3    H221271   2.760   4.453   4.500
 7110TIP3   OH221272   2.456   2.224   6.677
 7110TIP3    H121273   2.433   2.175   6.756
 7110TIP3    H221274   2.453   2.158   6.607
 7111TIP3   OH221275   3.379   3.082   3.571
 7111TIP3    H121276   3.332   3.162   3.547
 7111TIP3    H221277   3.315   3.012   3.558
 7112TIP3   OH221278   1.736   0.649   1.154
 7112TIP3    H121279   1.683   0.726   1.175
 7112TIP3    H221280   1.711   0.626   1.065
 7113TIP3   OH221281   2.957   0.996   4.847
 7113TIP3    H121282   3.042   1.009   4.806
 7113TIP3    H221283   2.900   1.061   4.806
 7114TIP3   OH221284   0.953   4.437   0.939
 7114TIP3    H121285   1.032   4.411   0.986
 7114TIP3    H221286   0.953   4.533   0.944
 7115TIP3   OH221287   2.439   1.794   3.695
 7115TIP3    H121288   2.513   1.820   3.748
 7115TIP3    H221289   2.477   1.752   3.618
 7116TIP3   OH221290   7.650   4.721   0.730
 7116TIP3    H121291   7.698   4.642   0.708
 7116TIP3    H221292   7.577   4.723   0.669
 7117TIP3   OH221293   0.640   3.369   5.675
 7117TIP3    H121294   0.724   3.391   5.716
 7117TIP3    H221295   0.618   3.447   5.624
 7118TIP3   OH221296   0.344   7.606   1.142
 7118TIP3    H121297   0.361   7.692   1.181
 7118TIP3    H221298   0.308   7.626   1.056
 7119TIP3   OH221299   1.103   1.732   1.839
 7119TIP3    H121300   1.165   1.728   1.912
 7119TIP3    H221301   1.107   1.645   1.801
 7120TIP3   OH221302   5.287   5.005   0.131
 7120TIP3    H121303   5.232   4.988   0.055
 7120TIP3    H221304   5.237   4.969   0.205
 7121TIP3   OH221305   6.994   5.164   1.336
 7121TIP3    H121306   7.013   5.220   1.411
 7121TIP3    H221307   6.966   5.225   1.267
 7122TIP3   OH221308   3.074   5.552   3.767
 7122TIP3    H121309   3.167   5.573   3.757
 7122TIP3    H221310   3.030   5.603   3.699
 7123TIP3   OH221311   0.471   1.103   3.149
 7123TIP3    H121312   0.525   1.167   3.103
 7123TIP3    H221313   0.386   1.107   3.104
 7124TIP3   OH221314   0.271   5.238   1.075
 7124TIP3    H121315   0.234   5.299   1.138
 7124TIP3    H221316   0.221   5.252   0.995
 7125TIP3   OH221317   3.459   0.537   5.645
 7125TIP3    H121318   3.511   0.586   5.708
 7125TIP3    H221319   3.455   0.593   5.568
 7126TIP3   OH221320   5.502   4.936   1.275
 7126TIP3    H121321   5.422   4.946   1.326
 7126TIP3    H221322   5.563   4.891   1.334
 7127TIP3   OH221323   5.153   3.520   3.062
 7127TIP3    H121324   5.207   3.468   3.122
 7127TIP3    H221325   5.179   3.611   3.079
 7128TIP3   OH221326   3.634   2.977   2.599
 7128TIP3    H121327   3.576   2.903   2.620
 7128TIP3    H221328   3.647   3.021   2.683
 7129TIP3   OH221329   5.238   6.727   2.081
 7129TIP3    H121330   5.304   6.658   2.083
 7129TIP3    H221331   5.174   6.698   2.017
 7130TIP3   OH221332   3.026   3.096   4.997
 7130TIP3    H121333   3.019   3.017   4.943
 7130TIP3    H221334   2.957   3.086   5.062
 7131TIP3   OH221335   2.827   1.554   3.195
 7131TIP3    H121336   2.801   1.462   3.188
 7131TIP3    H221337   2.900   1.552   3.257
 7132TIP3   OH221338   8.019   0.456   2.496
 7132TIP3    H121339   7.940   0.441   2.445
 7132TIP3    H221340   8.029   0.377   2.550
 7133TIP3   OH221341   1.580   1.662   0.294
 7133TIP3    H121342   1.593   1.753   0.268
 7133TIP3    H221343   1.506   1.665   0.355
 7134TIP3   OH221344   3.875   3.854   1.793
 7134TIP3    H121345   3.904   3.897   1.713
 7134TIP3    H221346   3.855   3.765   1.766
 7135TIP3   OH221347   2.745   3.089   0.849
 7135TIP3    H121348   2.687   3.107   0.775
 7135TIP3    H221349   2.747   3.171   0.898
 7136TIP3   OH221350   4.324   7.810   6.445
 7136TIP3    H121351   4.412   7.815   6.409
 7136TIP3    H221352   4.333   7.755   6.523
 7137TIP3   OH221353   0.559   4.559   1.690
 7137TIP3    H121354   0.646   4.541   1.725
 7137TIP3    H221355   0.547   4.654   1.702
 7138TIP3   OH221356   6.974   3.260   2.751
 7138TIP3    H121357   6.933   3.216   2.826
 7138TIP3    H221358   6.900   3.285   2.695
 7139TIP3   OH221359   2.236   7.287   3.261
 7139TIP3    H121360   2.322   7.258   3.293
 7139TIP3    H221361   2.256   7.333   3.179
 7140TIP3   OH221362   0.662   5.842   0.281
 7140TIP3    H121363   0.597   5.911   0.294
 7140TIP3    H221364   0.641   5.777   0.348
 7141TIP3   OH221365   1.693   6.098   1.198
 7141TIP3    H121366   1.756   6.134   1.260
 7141TIP3    H221367   1.645   6.174   1.165
 7142TIP3   OH221368   0.915   6.513   5.298
 7142TIP3    H121369   0.930   6.418   5.290
 7142TIP3    H221370   0.823   6.520   5.323
 7143TIP3   OH221371   3.257   2.482   5.230
 7143TIP3    H121372   3.282   2.491   5.138
 7143TIP3    H221373   3.340   2.464   5.275
 7144TIP3   OH221374   1.386   6.996   2.186
 7144TIP3    H121375   1.375   6.920   2.243
 7144TIP3    H221376   1.298   7.015   2.154
 7145TIP3   OH221377   3.238   5.444   3.976
 7145TIP3    H121378   3.187   5.503   3.921
 7145TIP3    H221379   3.304   5.407   3.917
 7146TIP3   OH221380   5.221   6.921   4.721
 7146TIP3    H121381   5.128   6.941   4.730
 7146TIP3    H221382   5.241   6.863   4.795
 7147TIP3   OH221383   1.825   1.744   2.729
 7147TIP3    H121384   1.799   1.654   2.748
 7147TIP3    H221385   1.757   1.798   2.770
 7148TIP3   OH221386   6.743   2.577   0.537
 7148TIP3    H121387   6.705   2.546   0.454
 7148TIP3    H221388   6.720   2.509   0.600
 7149TIP3   OH221389   5.931   1.996   2.112
 7149TIP3    H121390   5.915   2.037   2.027
 7149TIP3    H221391   5.979   1.915   2.091
 7150TIP3   OH221392   0.366   7.164   3.650
 7150TIP3    H121393   0.328   7.230   3.708
 7150TIP3    H221394   0.425   7.212   3.593
 7151TIP3   OH221395   8.129   0.580   1.726
 7151TIP3    H121396   8.051   0.551   1.678
 7151TIP3    H221397   8.167   0.499   1.760
 7152TIP3   OH221398   3.282   1.992   6.331
 7152TIP3    H121399   3.297   1.904   6.365
 7152TIP3    H221400   3.367   2.021   6.299
 7153TIP3   OH221401   1.237   2.103   2.679
 7153TIP3    H121402   1.327   2.080   2.697
 7153TIP3    H221403   1.211   2.045   2.607
 7154TIP3   OH221404   6.463   4.576   3.739
 7154TIP3    H121405   6.426   4.633   3.670
 7154TIP3    H221406   6.456   4.488   3.703
 7155TIP3   OH221407   4.161   1.663   5.905
 7155TIP3    H121408   4.223   1.684   5.975
 7155TIP3    H221409   4.078   1.652   5.950
 7156TIP3   OH221410   6.678   3.594   2.014
 7156TIP3    H121411   6.767   3.611   2.046
 7156TIP3    H221412   6.680   3.621   1.922
 7157TIP3   OH221413   1.840   6.320   0.121
 7157TIP3    H121414   1.756   6.361   0.102
 7157TIP3    H221415   1.863   6.353   0.208
 7158TIP3   OH221416   1.288   7.000   1.835
 7158TIP3    H121417   1.379   6.985   1.809
 7158TIP3    H221418   1.260   7.075   1.783
 7159TIP3   OH221419   6.251   3.253   4.253
 7159TIP3    H121420   6.287   3.292   4.174
 7159TIP3    H221421   6.294   3.299   4.325
 7160TIP3   OH221422   5.748   0.394   5.478
 7160TIP3    H121423   5.663   0.350   5.488
 7160TIP3    H221424   5.808   0.342   5.532
 7161TIP3   OH221425   0.897   7.678   0.533
 7161TIP3    H121426   0.958   7.732   0.482
 7161TIP3    H221427   0.931   7.682   0.622
 7162TIP3   OH221428   5.259   0.486   1.506
 7162TIP3    H121429   5.342   0.445   1.530
 7162TIP3    H221430   5.197   0.413   1.501
 7163TIP3   OH221431   4.305   7.296   1.468
 7163TIP3    H121432   4.314   7.244   1.548
 7163TIP3    H221433   4.369   7.367   1.479
 7164TIP3   OH221434   0.507   6.074   0.330
 7164TIP3    H121435   0.462   6.079   0.414
 7164TIP3    H221436   0.597   6.100   0.349
 7165TIP3   OH221437   7.841   4.240   4.988
 7165TIP3    H121438   7.929   4.218   4.958
 7165TIP3    H221439   7.783   4.193   4.928
 7166TIP3   OH221440   3.433   6.730   3.949
 7166TIP3    H121441   3.492   6.795   3.986
 7166TIP3    H221442   3.427   6.662   4.016
 7167TIP3   OH221443   7.149   6.132   1.780
 7167TIP3    H121444   7.060   6.119   1.813
 7167TIP3    H221445   7.144   6.210   1.726
 7168TIP3   OH221446   4.275   6.943   2.715
 7168TIP3    H121447   4.296   6.923   2.807
 7168TIP3    H221448   4.360   6.959   2.674
 7169TIP3   OH221449   0.719   1.911   1.563
 7169TIP3    H121450   0.803   1.877   1.593
 7169TIP3    H221451   0.664   1.833   1.552
 7170TIP3   OH221452   2.773   0.809   1.048
 7170TIP3    H121453   2.680   0.791   1.056
 7170TIP3    H221454   2.800   0.836   1.136
 7171TIP3   OH221455   1.218   0.868   2.773
 7171TIP3    H121456   1.133   0.905   2.794
 7171TIP3    H221457   1.274   0.892   2.846
 7172TIP3   OH221458   6.423   2.468   1.819
 7172TIP3    H121459   6.401   2.559   1.798
 7172TIP3    H221460   6.347   2.434   1.865
 7173TIP3   OH221461   4.183   6.985   1.224
 7173TIP3    H121462   4.262   7.035   1.241
 7173TIP3    H221463   4.172   6.930   1.302
 7174TIP3   OH221464   3.488   4.899   0.921
 7174TIP3    H121465   3.481   4.872   1.013
 7174TIP3    H221466   3.578   4.931   0.912
 7175TIP3   OH221467   7.837   6.535   2.115
 7175TIP3    H121468   7.881   6.452   2.096
 7175TIP3    H221469   7.784   6.516   2.193
 7176TIP3   OH221470   3.952   1.234   3.402
 7176TIP3    H121471   4.031   1.287   3.392
 7176TIP3    H221472   3.881   1.297   3.404
 7177TIP3   OH221473   2.240   0.628   4.539
 7177TIP3    H121474   2.220   0.635   4.632
 7177TIP3    H221475   2.284   0.711   4.518
 7178TIP3   OH221476   5.290   2.680   2.105
 7178TIP3    H121477   5.283   2.613   2.037
 7178TIP3    H221478   5.298   2.763   2.057
 7179TIP3   OH221479   6.676   5.518   6.730
 7179TIP3    H121480   6.652   5.592   6.675
 7179TIP3    H221481   6.771   5.525   6.741
 7180TIP3   OH221482   2.217   0.018   1.258
 7180TIP3    H121483   2.176  -0.064   1.284
 7180TIP3    H221484   2.261   0.049   1.337
 7181TIP3   OH221485   2.105   5.450   0.005
 7181TIP3    H121486   2.125   5.396   0.081
 7181TIP3    H221487   2.017   5.484   0.022
 7182TIP3   OH221488   0.406   3.766   1.281
 7182TIP3    H121489   0.472   3.699   1.298
 7182TIP3    H221490   0.330   3.716   1.250
 7183TIP3   OH221491   3.490   7.398   2.327
 7183TIP3    H121492   3.478   7.464   2.395
 7183TIP3    H221493   3.419   7.335   2.341
 7184TIP3   OH221494   5.079   5.101   3.331
 7184TIP3    H121495   5.043   5.131   3.248
 7184TIP3    H221496   5.165   5.064   3.308
 7185TIP3   OH221497   1.192   0.677   2.512
 7185TIP3    H121498   1.104   0.714   2.505
 7185TIP3    H221499   1.222   0.667   2.422
 7186TIP3   OH221500   3.889   5.427   2.139
 7186TIP3    H121501   3.875   5.418   2.044
 7186TIP3    H221502   3.808   5.395   2.178
 7187TIP3   OH221503   3.990   0.858   3.371
 7187TIP3    H121504   4.066   0.912   3.391
 7187TIP3    H221505   4.025   0.783   3.324
 7188TIP3   OH221506   8.073   1.623   6.063
 7188TIP3    H121507   8.049   1.578   5.982
 7188TIP3    H221508   8.058   1.715   6.044
 7189TIP3   OH221509   5.048   0.585   4.219
 7189TIP3    H121510   5.041   0.492   4.200
 7189TIP3    H221511   5.015   0.595   4.308
 7190TIP3   OH221512   1.027   3.919   3.189
 7190TIP3    H121513   0.942   3.922   3.233
 7190TIP3    H221514   1.048   4.010   3.169
 7191TIP3   OH221515   4.035   2.802   2.687
 7191TIP3    H121516   4.062   2.767   2.772
 7191TIP3    H221517   4.088   2.880   2.674
 7192TIP3   OH221518   4.960   1.621   6.173
 7192TIP3    H121519   4.924   1.567   6.243
 7192TIP3    H221520   4.908   1.598   6.096
 7193TIP3   OH221521   4.059   4.437   1.935
 7193TIP3    H121522   3.999   4.363   1.949
 7193TIP3    H221523   4.103   4.448   2.019
 7194TIP3   OH221524   4.765   6.774   3.887
 7194TIP3    H121525   4.833   6.788   3.952
 7194TIP3    H221526   4.703   6.715   3.929
 7195TIP3   OH221527   0.342   1.041   3.523
 7195TIP3    H121528   0.272   1.078   3.469
 7195TIP3    H221529   0.378   0.970   3.470
 7196TIP3   OH221530   0.034   2.487   1.415
 7196TIP3    H121531  -0.028   2.454   1.350
 7196TIP3    H221532   0.028   2.582   1.409
 7197TIP3   OH221533   0.240   1.974   1.071
 7197TIP3    H121534   0.153   1.987   1.034
 7197TIP3    H221535   0.240   2.028   1.150
 7198TIP3   OH221536   5.890   7.449   2.847
 7198TIP3    H121537   5.893   7.417   2.937
 7198TIP3    H221538   5.981   7.473   2.827
 7199TIP3   OH221539   5.518   4.823   6.316
 7199TIP3    H121540   5.560   4.834   6.402
 7199TIP3    H221541   5.459   4.748   6.328
 7200TIP3   OH221542   1.498   6.239   4.319
 7200TIP3    H121543   1.572   6.291   4.350
 7200TIP3    H221544   1.483   6.270   4.229
 7201TIP3   OH221545   5.803   7.734   5.572
 7201TIP3    H121546   5.856   7.797   5.620
 7201TIP3    H221547   5.728   7.784   5.539
 7202TIP3   OH221548   3.758   4.181   0.925
 7202TIP3    H121549   3.666   4.185   0.949
 7202TIP3    H221550   3.798   4.258   0.965
 7203TIP3   OH221551   7.301   2.510   3.531
 7203TIP3    H121552   7.277   2.592   3.488
 7203TIP3    H221553   7.274   2.442   3.469
 7204TIP3   OH221554   0.611   3.890   3.480
 7204TIP3    H121555   0.653   3.975   3.475
 7204TIP3    H221556   0.612   3.856   3.390
 7205TIP3   OH221557   0.350   4.837   3.840
 7205TIP3    H121558   0.327   4.916   3.889
 7205TIP3    H221559   0.429   4.860   3.792
 7206TIP3   OH221560   6.784   6.833   6.329
 7206TIP3    H121561   6.817   6.802   6.414
 7206TIP3    H221562   6.702   6.877   6.350
 7207TIP3   OH221563   6.457   5.133   4.129
 7207TIP3    H121564   6.519   5.062   4.112
 7207TIP3    H221565   6.512   5.210   4.143
 7208TIP3   OH221566   5.216   4.908   0.526
 7208TIP3    H121567   5.244   4.994   0.558
 7208TIP3    H221568   5.164   4.872   0.597
 7209TIP3   OH221569   7.084   0.965   1.338
 7209TIP3    H121570   7.053   1.000   1.254
 7209TIP3    H221571   7.046   1.024   1.403
 7210TIP3   OH221572   2.444   4.144   4.729
 7210TIP3    H121573   2.395   4.226   4.733
 7210TIP3    H221574   2.378   4.077   4.715
 7211TIP3   OH221575   3.190   4.974   0.348
 7211TIP3    H121576   3.247   5.041   0.311
 7211TIP3    H221577   3.237   4.892   0.332
 7212TIP3   OH221578   0.018   7.839   2.410
 7212TIP3    H121579   0.092   7.900   2.410
 7212TIP3    H221580   0.058   7.754   2.425
 7213TIP3   OH221581   6.810   4.794   3.643
 7213TIP3    H121582   6.724   4.780   3.604
 7213TIP3    H221583   6.819   4.725   3.709
 7214TIP3   OH221584   3.145   6.214   1.692
 7214TIP3    H121585   3.118   6.293   1.646
 7214TIP3    H221586   3.231   6.193   1.656
 7215TIP3   OH221587   5.905   0.047   3.809
 7215TIP3    H121588   5.964   0.042   3.884
 7215TIP3    H221589   5.863   0.132   3.816
 7216TIP3   OH221590   2.459   6.940   0.363
 7216TIP3    H121591   2.501   6.886   0.431
 7216TIP3    H221592   2.378   6.893   0.343
 7217TIP3   OH221593   2.947   0.380   2.344
 7217TIP3    H121594   2.925   0.354   2.433
 7217TIP3    H221595   3.036   0.348   2.330
 7218TIP3   OH221596   1.904   5.624   3.241
 7218TIP3    H121597   1.934   5.597   3.328
 7218TIP3    H221598   1.964   5.580   3.181
 7219TIP3   OH221599   1.512   6.304   0.883
 7219TIP3    H121600   1.456   6.235   0.848
 7219TIP3    H221601   1.497   6.379   0.826
 7220TIP3   OH221602   1.539   6.955   5.823
 7220TIP3    H121603   1.559   6.863   5.806
 7220TIP3    H221604   1.493   6.954   5.907
 7221TIP3   OH221605   2.062   1.740   4.089
 7221TIP3    H121606   2.081   1.818   4.037
 7221TIP3    H221607   1.992   1.696   4.040
 7222TIP3   OH221608   0.964   2.625   0.593
 7222TIP3    H121609   0.889   2.675   0.561
 7222TIP3    H221610   0.932   2.534   0.597
 7223TIP3   OH221611   0.588   1.298   5.898
 7223TIP3    H121612   0.650   1.224   5.899
 7223TIP3    H221613   0.616   1.351   5.823
 7224TIP3   OH221614   6.518   6.487   2.632
 7224TIP3    H121615   6.580   6.496   2.704
 7224TIP3    H221616   6.452   6.554   2.649
 7225TIP3   OH221617   7.098   5.875   2.722
 7225TIP3    H121618   7.092   5.812   2.793
 7225TIP3    H221619   7.169   5.933   2.747
 7226TIP3   OH221620   1.742   4.683   5.002
 7226TIP3    H121621   1.767   4.690   5.094
 7226TIP3    H221622   1.694   4.601   4.995
 7227TIP3   OH221623   3.123   0.635   5.896
 7227TIP3    H121624   3.033   0.605   5.886
 7227TIP3    H221625   3.115   0.728   5.916
 7228TIP3   OH221626   2.456   4.361   3.171
 7228TIP3    H121627   2.479   4.321   3.087
 7228TIP3    H221628   2.385   4.422   3.150
 7229TIP3   OH221629   5.317   0.167   1.274
 7229TIP3    H121630   5.277   0.145   1.358
 7229TIP3    H221631   5.297   0.260   1.261
 7230TIP3   OH221632   6.381   1.702   4.750
 7230TIP3    H121633   6.361   1.627   4.694
 7230TIP3    H221634   6.477   1.708   4.749
 7231TIP3   OH221635   0.590   4.856   0.316
 7231TIP3    H121636   0.552   4.867   0.229
 7231TIP3    H221637   0.517   4.831   0.372
 7232TIP3   OH221638   3.815   7.696   2.293
 7232TIP3    H121639   3.804   7.627   2.358
 7232TIP3    H221640   3.737   7.751   2.302
 7233TIP3   OH221641   4.513   0.081   0.554
 7233TIP3    H121642   4.428   0.042   0.535
 7233TIP3    H221643   4.495   0.175   0.562
 7234TIP3   OH221644   4.037   2.555   2.392
 7234TIP3    H121645   3.986   2.561   2.473
 7234TIP3    H221646   4.128   2.549   2.420
 7235TIP3   OH221647   6.118   6.175   1.239
 7235TIP3    H121648   6.204   6.161   1.199
 7235TIP3    H221649   6.056   6.135   1.178
 7236TIP3   OH221650   4.746   7.271   6.557
 7236TIP3    H121651   4.777   7.322   6.482
 7236TIP3    H221652   4.653   7.257   6.539
 7237TIP3   OH221653   6.894   6.917   1.122
 7237TIP3    H121654   6.808   6.930   1.081
 7237TIP3    H221655   6.886   6.834   1.168
 7238TIP3   OH221656   6.523   0.989   6.104
 7238TIP3    H121657   6.609   0.984   6.147
 7238TIP3    H221658   6.538   1.041   6.025
 7239TIP3   OH221659   5.201   2.511   3.679
 7239TIP3    H121660   5.130   2.451   3.654
 7239TIP3    H221661   5.250   2.463   3.745
 7240TIP3   OH221662   4.356   6.224   2.066
 7240TIP3    H121663   4.381   6.183   1.983
 7240TIP3    H221664   4.434   6.219   2.121
 7241TIP3   OH221665   2.677   2.961   4.588
 7241TIP3    H121666   2.693   2.986   4.497
 7241TIP3    H221667   2.583   2.976   4.600
 7242TIP3   OH221668   0.608   4.089   1.441
 7242TIP3    H121669   0.668   4.162   1.457
 7242TIP3    H221670   0.661   4.026   1.391
 7243TIP3   OH221671   1.047   6.531   2.214
 7243TIP3    H121672   1.024   6.480   2.137
 7243TIP3    H221673   1.011   6.481   2.287
 7244TIP3   OH221674   7.026   6.404   1.436
 7244TIP3    H121675   7.020   6.499   1.446
 7244TIP3    H221676   7.026   6.370   1.526
 7245TIP3   OH221677   3.713   2.997   0.441
 7245TIP3    H121678   3.627   2.962   0.416
 7245TIP3    H221679   3.717   3.082   0.399
 7246TIP3   OH221680   0.301   5.800   4.781
 7246TIP3    H121681   0.348   5.854   4.718
 7246TIP3    H221682   0.367   5.775   4.846
 7247TIP3   OH221683   0.423   7.330   0.663
 7247TIP3    H121684   0.467   7.318   0.747
 7247TIP3    H221685   0.493   7.354   0.602
 7248TIP3   OH221686   8.294   3.614   5.454
 7248TIP3    H121687   8.325   3.601   5.364
 7248TIP3    H221688   8.229   3.684   5.447
 7249TIP3   OH221689   0.258   1.858   0.823
 7249TIP3    H121690   0.168   1.890   0.814
 7249TIP3    H221691   0.274   1.856   0.917
 7250TIP3   OH221692   7.744   7.112   1.006
 7250TIP3    H121693   7.665   7.062   1.022
 7250TIP3    H221694   7.804   7.051   0.963
 7251TIP3   OH221695   2.187   1.873   4.677
 7251TIP3    H121696   2.225   1.864   4.765
 7251TIP3    H221697   2.177   1.967   4.665
 7252TIP3   OH221698   7.152   1.127   5.455
 7252TIP3    H121699   7.105   1.197   5.501
 7252TIP3    H221700   7.238   1.163   5.437
 7253TIP3   OH221701   5.827   2.002   2.993
 7253TIP3    H121702   5.849   2.077   2.937
 7253TIP3    H221703   5.859   2.027   3.080
 7254TIP3   OH221704   6.162   0.669   4.927
 7254TIP3    H121705   6.199   0.675   5.016
 7254TIP3    H221706   6.218   0.605   4.882
 7255TIP3   OH221707   4.460   0.614   5.341
 7255TIP3    H121708   4.498   0.584   5.423
 7255TIP3    H221709   4.372   0.645   5.365
 7256TIP3   OH221710   6.521   5.043   1.113
 7256TIP3    H121711   6.442   5.085   1.147
 7256TIP3    H221712   6.532   5.082   1.026
 7257TIP3   OH221713   3.099   0.357   5.020
 7257TIP3    H121714   3.137   0.298   4.955
 7257TIP3    H221715   3.039   0.301   5.070
 7258TIP3   OH221716   5.966   3.402   0.749
 7258TIP3    H121717   6.006   3.346   0.816
 7258TIP3    H221718   5.892   3.444   0.794
 7259TIP3   OH221719   2.258   0.689   4.824
 7259TIP3    H121720   2.215   0.613   4.862
 7259TIP3    H221721   2.203   0.763   4.849
 7260TIP3   OH221722   3.957   1.957   4.388
 7260TIP3    H121723   3.901   2.017   4.439
 7260TIP3    H221724   3.924   1.964   4.299
 7261TIP3   OH221725   3.626   7.050   1.838
 7261TIP3    H121726   3.654   6.958   1.829
 7261TIP3    H221727   3.544   7.055   1.789
 7262TIP3   OH221728   8.037   0.298   1.128
 7262TIP3    H121729   8.123   0.301   1.170
 7262TIP3    H221730   8.038   0.218   1.077
 7263TIP3   OH221731   1.266   5.688   5.766
 7263TIP3    H121732   1.360   5.704   5.762
 7263TIP3    H221733   1.238   5.728   5.848
 7264TIP3   OH221734   5.078   1.651   4.761
 7264TIP3    H121735   5.013   1.697   4.706
 7264TIP3    H221736   5.042   1.656   4.849
 7265TIP3   OH221737   2.503   5.408   3.223
 7265TIP3    H121738   2.462   5.321   3.222
 7265TIP3    H221739   2.488   5.442   3.134
 7266TIP3   OH221740   4.429   2.669   1.161
 7266TIP3    H121741   4.437   2.581   1.123
 7266TIP3    H221742   4.355   2.708   1.115
 7267TIP3   OH221743   3.604   1.703   1.400
 7267TIP3    H121744   3.563   1.747   1.475
 7267TIP3    H221745   3.556   1.736   1.324
 7268TIP3   OH221746   0.973   0.886   3.550
 7268TIP3    H121747   1.018   0.897   3.634
 7268TIP3    H221748   1.013   0.952   3.493
 7269TIP3   OH221749   5.238   5.342   3.585
 7269TIP3    H121750   5.179   5.268   3.573
 7269TIP3    H221751   5.326   5.305   3.580
 7270TIP3   OH221752   0.223   5.739   1.043
 7270TIP3    H121753   0.265   5.813   0.999
 7270TIP3    H221754   0.214   5.767   1.134
 7271TIP3   OH221755   5.840   3.507   5.619
 7271TIP3    H121756   5.930   3.476   5.607
 7271TIP3    H221757   5.835   3.534   5.711
 7272TIP3   OH221758   1.089   3.387   3.891
 7272TIP3    H121759   1.106   3.441   3.813
 7272TIP3    H221760   1.173   3.386   3.938
 7273TIP3   OH221761   2.316   4.805   0.007
 7273TIP3    H121762   2.275   4.722  -0.018
 7273TIP3    H221763   2.242   4.866   0.018
 7274TIP3   OH221764   1.672   2.486   4.675
 7274TIP3    H121765   1.706   2.524   4.594
 7274TIP3    H221766   1.718   2.533   4.745
 7275TIP3   OH221767   4.388   6.946   0.421
 7275TIP3    H121768   4.301   6.916   0.395
 7275TIP3    H221769   4.387   7.040   0.403
 7276TIP3   OH221770   7.583   6.088   1.371
 7276TIP3    H121771   7.571   6.032   1.295
 7276TIP3    H221772   7.662   6.053   1.414
 7277TIP3   OH221773   4.972   2.022   5.863
 7277TIP3    H121774   4.987   2.013   5.957
 7277TIP3    H221775   4.994   1.937   5.827
 7278TIP3   OH221776   3.300   3.615   2.390
 7278TIP3    H121777   3.275   3.671   2.464
 7278TIP3    H221778   3.265   3.529   2.413
 7279TIP3   OH221779   3.604   3.192   0.711
 7279TIP3    H121780   3.656   3.266   0.679
 7279TIP3    H221781   3.515   3.212   0.683
 7280TIP3   OH221782   3.713   1.759   2.325
 7280TIP3    H121783   3.675   1.731   2.241
 7280TIP3    H221784   3.716   1.679   2.377
 7281TIP3   OH221785   1.664   4.182   4.700
 7281TIP3    H121786   1.648   4.259   4.755
 7281TIP3    H221787   1.724   4.214   4.632
 7282TIP3   OH221788   4.738   2.710   2.051
 7282TIP3    H121789   4.656   2.674   2.017
 7282TIP3    H221790   4.719   2.729   2.143
 7283TIP3   OH221791   0.211   5.274   5.219
 7283TIP3    H121792   0.303   5.250   5.212
 7283TIP3    H221793   0.212   5.368   5.236
 7284TIP3   OH221794   3.482   4.286   6.047
 7284TIP3    H121795   3.576   4.277   6.033
 7284TIP3    H221796   3.472   4.370   6.091
 7285TIP3   OH221797   5.530   0.616   2.429
 7285TIP3    H121798   5.613   0.572   2.410
 7285TIP3    H221799   5.550   0.709   2.421
 7286TIP3   OH221800   4.547   5.033   1.942
 7286TIP3    H121801   4.547   5.129   1.946
 7286TIP3    H221802   4.563   5.013   1.850
 7287TIP3   OH221803   0.567   6.281   4.915
 7287TIP3    H121804   0.584   6.207   4.857
 7287TIP3    H221805   0.570   6.358   4.858
 7288TIP3   OH221806   7.050   1.332   0.539
 7288TIP3    H121807   7.126   1.315   0.484
 7288TIP3    H221808   7.009   1.410   0.502
 7289TIP3   OH221809   6.766   4.350   1.613
 7289TIP3    H121810   6.719   4.413   1.559
 7289TIP3    H221811   6.780   4.395   1.696
 7290TIP3   OH221812   4.201   3.681   5.946
 7290TIP3    H121813   4.194   3.585   5.943
 7290TIP3    H221814   4.129   3.712   5.891
 7291TIP3   OH221815   5.719   4.543   3.836
 7291TIP3    H121816   5.706   4.605   3.908
 7291TIP3    H221817   5.642   4.487   3.838
 7292TIP3   OH221818   2.185   4.698   4.674
 7292TIP3    H121819   2.189   4.666   4.764
 7292TIP3    H221820   2.246   4.643   4.625
 7293TIP3   OH221821   5.600   1.580   2.548
 7293TIP3    H121822   5.591   1.519   2.475
 7293TIP3    H221823   5.589   1.666   2.509
 7294TIP3   OH221824   4.617   5.950   0.747
 7294TIP3    H121825   4.657   6.024   0.792
 7294TIP3    H221826   4.585   5.987   0.664
 7295TIP3   OH221827   7.153   0.170   4.566
 7295TIP3    H121828   7.143   0.208   4.479
 7295TIP3    H221829   7.119   0.081   4.557
 7296TIP3   OH221830   7.888   2.752   0.983
 7296TIP3    H121831   7.888   2.821   1.050
 7296TIP3    H221832   7.799   2.717   0.984
 7297TIP3   OH221833   5.952   3.294   6.272
 7297TIP3    H121834   5.863   3.273   6.303
 7297TIP3    H221835   5.978   3.371   6.323
 7298TIP3   OH221836   1.773   7.210   5.462
 7298TIP3    H121837   1.780   7.219   5.367
 7298TIP3    H221838   1.818   7.287   5.497
 7299TIP3   OH221839   3.854   7.199   1.949
 7299TIP3    H121840   3.772   7.163   1.915
 7299TIP3    H221841   3.921   7.166   1.890
 7300TIP3   OH221842   6.719   6.306   2.090
 7300TIP3    H121843   6.771   6.342   2.162
 7300TIP3    H221844   6.779   6.245   2.046
 7301TIP3   OH221845   2.318   3.056   4.220
 7301TIP3    H121846   2.292   3.137   4.176
 7301TIP3    H221847   2.371   3.010   4.156
 7302TIP3   OH221848   7.758   6.143   2.786
 7302TIP3    H121849   7.767   6.215   2.723
 7302TIP3    H221850   7.665   6.142   2.809
 7303TIP3   OH221851   5.565   5.542   2.029
 7303TIP3    H121852   5.636   5.491   1.991
 7303TIP3    H221853   5.501   5.552   1.959
 7304TIP3   OH221854   7.366   3.753   1.367
 7304TIP3    H121855   7.460   3.742   1.355
 7304TIP3    H221856   7.342   3.821   1.304
 7305TIP3   OH221857   1.720   2.847   3.027
 7305TIP3    H121858   1.751   2.907   3.095
 7305TIP3    H221859   1.663   2.786   3.074
 7306TIP3   OH221860   2.523   2.494   0.057
 7306TIP3    H121861   2.607   2.474   0.017
 7306TIP3    H221862   2.461   2.498  -0.016
 7307TIP3   OH221863   3.081   6.986   2.457
 7307TIP3    H121864   3.126   7.053   2.406
 7307TIP3    H221865   3.092   7.013   2.548
 7308TIP3   OH221866   4.567   0.954   2.566
 7308TIP3    H121867   4.519   1.007   2.502
 7308TIP3    H221868   4.647   0.928   2.519
 7309TIP3   OH221869   5.140   2.635   0.275
 7309TIP3    H121870   5.071   2.657   0.213
 7309TIP3    H221871   5.177   2.719   0.302
 7310TIP3   OH221872   4.612   1.756   2.018
 7310TIP3    H121873   4.564   1.839   2.009
 7310TIP3    H221874   4.615   1.720   1.930
 7311TIP3   OH221875   6.680   5.293   0.153
 7311TIP3    H121876   6.735   5.371   0.161
 7311TIP3    H221877   6.596   5.319   0.192
 7312TIP3   OH221878   4.459   4.072   0.708
 7312TIP3    H121879   4.485   3.985   0.676
 7312TIP3    H221880   4.379   4.055   0.758
 7313TIP3   OH221881   4.682   1.870   2.924
 7313TIP3    H121882   4.715   1.783   2.945
 7313TIP3    H221883   4.649   1.863   2.835
 7314TIP3   OH221884   1.894   0.307   3.891
 7314TIP3    H121885   1.814   0.355   3.911
 7314TIP3    H221886   1.965   0.362   3.925
 7315TIP3   OH221887   4.200   4.829   4.995
 7315TIP3    H121888   4.117   4.791   4.966
 7315TIP3    H221889   4.247   4.755   5.034
 7316TIP3   OH221890   5.202   3.800   6.402
 7316TIP3    H121891   5.135   3.868   6.398
 7316TIP3    H221892   5.269   3.829   6.339
 7317TIP3   OH221893   4.461   5.343   4.078
 7317TIP3    H121894   4.533   5.357   4.140
 7317TIP3    H221895   4.399   5.414   4.097
 7318TIP3   OH221896   5.769   0.110   6.219
 7318TIP3    H121897   5.742   0.106   6.311
 7318TIP3    H221898   5.729   0.033   6.179
 7319TIP3   OH221899   6.157   5.963   5.027
 7319TIP3    H121900   6.113   5.921   4.953
 7319TIP3    H221901   6.125   5.915   5.104
 7320TIP3   OH221902   6.706   2.065   6.625
 7320TIP3    H121903   6.633   2.010   6.600
 7320TIP3    H221904   6.774   2.047   6.559
 7321TIP3   OH221905   0.828   1.664   0.071
 7321TIP3    H121906   0.922   1.683   0.064
 7321TIP3    H221907   0.787   1.726   0.011
 7322TIP3   OH221908   3.852   5.826   5.747
 7322TIP3    H121909   3.861   5.738   5.710
 7322TIP3    H221910   3.758   5.837   5.763
 7323TIP3   OH221911   7.940   7.120   3.410
 7323TIP3    H121912   8.018   7.162   3.373
 7323TIP3    H221913   7.920   7.170   3.489
 7324TIP3   OH221914   8.262   2.156   1.594
 7324TIP3    H121915   8.270   2.139   1.501
 7324TIP3    H221916   8.338   2.111   1.633
 7325TIP3   OH221917   4.408   6.236   6.641
 7325TIP3    H121918   4.416   6.321   6.598
 7325TIP3    H221919   4.390   6.175   6.569
 7326TIP3   OH221920   3.472   5.377   0.948
 7326TIP3    H121921   3.397   5.380   0.889
 7326TIP3    H221922   3.535   5.439   0.910
 7327TIP3   OH221923   8.222   2.199   6.170
 7327TIP3    H121924   8.295   2.165   6.118
 7327TIP3    H221925   8.243   2.174   6.260
 7328TIP3   OH221926   4.388   3.411   3.626
 7328TIP3    H121927   4.328   3.368   3.687
 7328TIP3    H221928   4.466   3.354   3.626
 7329TIP3   OH221929   8.056   3.047   3.237
 7329TIP3    H121930   8.062   3.138   3.208
 7329TIP3    H221931   7.999   3.050   3.314
 7330TIP3   OH221932   0.736   7.779   5.557
 7330TIP3    H121933   0.650   7.779   5.599
 7330TIP3    H221934   0.716   7.782   5.463
 7331TIP3   OH221935   1.818   0.705   4.098
 7331TIP3    H121936   1.862   0.784   4.066
 7331TIP3    H221937   1.784   0.730   4.184
 7332TIP3   OH221938   5.148   3.384   2.023
 7332TIP3    H121939   5.091   3.411   2.095
 7332TIP3    H221940   5.236   3.408   2.052
 7333TIP3   OH221941   5.969   4.079   5.002
 7333TIP3    H121942   5.988   4.026   4.924
 7333TIP3    H221943   5.952   4.014   5.071
 7334TIP3   OH221944   6.033   2.637   4.134
 7334TIP3    H121945   5.984   2.713   4.166
 7334TIP3    H221946   6.005   2.626   4.043
 7335TIP3   OH221947   4.988   3.839   3.978
 7335TIP3    H121948   5.043   3.795   3.912
 7335TIP3    H221949   4.906   3.856   3.932
 7336TIP3   OH221950   5.825   5.941   0.559
 7336TIP3    H121951   5.840   5.925   0.466
 7336TIP3    H221952   5.811   6.035   0.565
 7337TIP3   OH221953   4.718   1.408   4.262
 7337TIP3    H121954   4.788   1.391   4.325
 7337TIP3    H221955   4.762   1.450   4.188
 7338TIP3   OH221956   1.292   5.361   3.293
 7338TIP3    H121957   1.282   5.289   3.356
 7338TIP3    H221958   1.381   5.351   3.259
 7339TIP3   OH221959   0.572   5.433   2.015
 7339TIP3    H121960   0.629   5.502   2.051
 7339TIP3    H221961   0.602   5.353   2.056
 7340TIP3   OH221962   7.993   4.738   2.052
 7340TIP3    H121963   8.051   4.680   2.102
 7340TIP3    H221964   7.970   4.808   2.113
 7341TIP3   OH221965   1.746   3.768   5.771
 7341TIP3    H121966   1.794   3.851   5.760
 7341TIP3    H221967   1.666   3.780   5.720
 7342TIP3   OH221968   1.061   5.644   1.380
 7342TIP3    H121969   1.015   5.672   1.301
 7342TIP3    H221970   1.153   5.665   1.363
 7343TIP3   OH221971   2.439   2.096   6.259
 7343TIP3    H121972   2.506   2.162   6.244
 7343TIP3    H221973   2.358   2.146   6.271
 7344TIP3   OH221974   1.484   7.263   4.358
 7344TIP3    H121975   1.571   7.272   4.320
 7344TIP3    H221976   1.494   7.195   4.425
 7345TIP3   OH221977   4.799   3.240   5.703
 7345TIP3    H121978   4.824   3.167   5.648
 7345TIP3    H221979   4.709   3.220   5.731
 7346TIP3   OH221980   5.446   3.187   6.621
 7346TIP3    H121981   5.461   3.122   6.553
 7346TIP3    H221982   5.532   3.223   6.640
 7347TIP3   OH221983   0.404   3.847   3.026
 7347TIP3    H121984   0.308   3.847   3.022
 7347TIP3    H221985   0.431   3.911   2.961
 7348TIP3   OH221986   6.126   0.070   4.810
 7348TIP3    H121987   6.054   0.057   4.872
 7348TIP3    H221988   6.202   0.086   4.865
 7349TIP3   OH221989   5.019   7.522   3.799
 7349TIP3    H121990   5.078   7.448   3.811
 7349TIP3    H221991   5.065   7.597   3.837
 7350TIP3   OH221992   4.304   3.573   1.111
 7350TIP3    H121993   4.299   3.615   1.196
 7350TIP3    H221994   4.214   3.547   1.091
 7351TIP3   OH221995   4.608   0.884   6.600
 7351TIP3    H121996   4.696   0.878   6.564
 7351TIP3    H221997   4.620   0.927   6.685
 7352TIP3   OH221998   6.276   2.207   1.687
 7352TIP3    H121999   6.346   2.151   1.721
 7352TIP3    H222000   6.196   2.173   1.728
 7353TIP3   OH222001   6.269   4.092   4.237
 7353TIP3    H122002   6.201   4.024   4.235
 7353TIP3    H222003   6.223   4.171   4.209
 7354TIP3   OH222004   1.671   3.974   6.382
 7354TIP3    H122005   1.655   3.940   6.294
 7354TIP3    H222006   1.759   4.011   6.378
 7355TIP3   OH222007   3.258   1.613   5.568
 7355TIP3    H122008   3.220   1.534   5.606
 7355TIP3    H222009   3.205   1.685   5.603
 7356TIP3   OH222010   4.484   1.336   4.598
 7356TIP3    H122011   4.534   1.354   4.678
 7356TIP3    H222012   4.442   1.252   4.615
 7357TIP3   OH222013   3.564   4.435   3.556
 7357TIP3    H122014   3.516   4.444   3.474
 7357TIP3    H222015   3.534   4.352   3.593
 7358TIP3   OH222016   4.034   7.535   1.128
 7358TIP3    H122017   3.985   7.488   1.061
 7358TIP3    H222018   3.966   7.581   1.178
 7359TIP3   OH222019   6.858   5.422   1.777
 7359TIP3    H122020   6.919   5.466   1.718
 7359TIP3    H222021   6.911   5.398   1.853
 7360TIP3   OH222022   1.102   6.634   6.435
 7360TIP3    H122023   1.189   6.653   6.399
 7360TIP3    H222024   1.079   6.549   6.399
 7361TIP3   OH222025   1.025   2.382   5.774
 7361TIP3    H122026   1.044   2.393   5.681
 7361TIP3    H222027   0.948   2.436   5.789
 7362TIP3   OH222028   1.529   4.041   0.240
 7362TIP3    H122029   1.525   4.000   0.154
 7362TIP3    H222030   1.444   4.021   0.280
 7363TIP3   OH222031   8.014   4.494   4.414
 7363TIP3    H122032   8.094   4.463   4.373
 7363TIP3    H222033   8.042   4.562   4.475
 7364TIP3   OH222034   2.915   5.749   0.553
 7364TIP3    H122035   2.922   5.799   0.634
 7364TIP3    H222036   2.945   5.661   0.576
 7365TIP3   OH222037   0.304   3.960   0.942
 7365TIP3    H122038   0.234   3.946   1.006
 7365TIP3    H222039   0.284   3.899   0.872
 7366TIP3   OH222040   7.161   2.440   1.606
 7366TIP3    H122041   7.238   2.412   1.655
 7366TIP3    H222042   7.180   2.419   1.515
 7367TIP3   OH222043   4.239   5.116   1.549
 7367TIP3    H122044   4.297   5.182   1.589
 7367TIP3    H222045   4.278   5.032   1.573
 7368TIP3   OH222046   1.835   4.428   4.758
 7368TIP3    H122047   1.881   4.409   4.676
 7368TIP3    H222048   1.903   4.464   4.816
 7369TIP3   OH222049   0.335   1.314   2.938
 7369TIP3    H122050   0.362   1.400   2.907
 7369TIP3    H222051   0.387   1.252   2.887
 7370TIP3   OH222052   0.018   1.738   1.094
 7370TIP3    H122053   0.093   1.710   1.146
 7370TIP3    H222054  -0.002   1.663   1.038
 7371TIP3   OH222055   3.754   0.513   6.022
 7371TIP3    H122056   3.753   0.418   6.028
 7371TIP3    H222057   3.846   0.537   6.032
 7372TIP3   OH222058   2.847   3.356   1.636
 7372TIP3    H122059   2.938   3.340   1.659
 7372TIP3    H222060   2.811   3.269   1.620
 7373TIP3   OH222061   2.951   7.359   0.845
 7373TIP3    H122062   2.886   7.400   0.788
 7373TIP3    H222063   3.008   7.431   0.872
 7374TIP3   OH222064   2.729   5.479   1.017
 7374TIP3    H122065   2.641   5.514   0.999
 7374TIP3    H222066   2.715   5.387   1.038
 7375TIP3   OH222067   3.183   6.114   0.931
 7375TIP3    H122068   3.211   6.049   0.867
 7375TIP3    H222069   3.260   6.130   0.985
 7376TIP3   OH222070   3.618   2.684   0.480
 7376TIP3    H122071   3.608   2.645   0.566
 7376TIP3    H222072   3.565   2.764   0.483
 7377TIP3   OH222073   5.168   3.881   2.873
 7377TIP3    H122074   5.194   3.815   2.809
 7377TIP3    H222075   5.233   3.950   2.864
 7378TIP3   OH222076   7.761   4.258   5.850
 7378TIP3    H122077   7.701   4.189   5.876
 7378TIP3    H222078   7.798   4.290   5.933
 7379TIP3   OH222079   5.758   1.221   0.117
 7379TIP3    H122080   5.668   1.191   0.101
 7379TIP3    H222081   5.805   1.198   0.037
 7380TIP3   OH222082   3.042   4.697   0.198
 7380TIP3    H122083   2.968   4.747   0.232
 7380TIP3    H222084   3.022   4.683   0.106
 7381TIP3   OH222085   7.857   5.000   0.254
 7381TIP3    H122086   7.883   5.032   0.168
 7381TIP3    H222087   7.930   4.944   0.281
 7382TIP3   OH222088   2.576   3.391   1.616
 7382TIP3    H122089   2.670   3.388   1.602
 7382TIP3    H222090   2.557   3.482   1.636
 7383TIP3   OH222091   2.839   7.231   4.447
 7383TIP3    H122092   2.811   7.314   4.408
 7383TIP3    H222093   2.934   7.228   4.433
 7384TIP3   OH222094   4.505   7.266   1.748
 7384TIP3    H122095   4.559   7.335   1.786
 7384TIP3    H222096   4.452   7.234   1.821
 7385TIP3   OH222097   7.241   2.990   3.683
 7385TIP3    H122098   7.275   2.985   3.773
 7385TIP3    H222099   7.281   3.069   3.647
 7386TIP3   OH222100   0.886   6.707   3.630
 7386TIP3    H122101   0.852   6.640   3.571
 7386TIP3    H222102   0.902   6.783   3.573
 7387TIP3   OH222103   3.806   5.785   6.349
 7387TIP3    H122104   3.763   5.799   6.264
 7387TIP3    H222105   3.887   5.738   6.327
 7388TIP3   OH222106   6.769   2.956   5.973
 7388TIP3    H122107   6.786   2.951   6.067
 7388TIP3    H222108   6.829   2.892   5.935
 7389TIP3   OH222109   3.872   7.015   4.903
 7389TIP3    H122110   3.916   6.957   4.842
 7389TIP3    H222111   3.778   6.998   4.890
 7390TIP3   OH222112   0.575   7.706   0.464
 7390TIP3    H122113   0.605   7.792   0.437
 7390TIP3    H222114   0.479   7.712   0.464
 7391TIP3   OH222115   3.744   3.630   5.776
 7391TIP3    H122116   3.734   3.570   5.850
 7391TIP3    H222117   3.706   3.583   5.702
 7392TIP3   OH222118   4.852   5.311   4.078
 7392TIP3    H122119   4.829   5.361   4.157
 7392TIP3    H222120   4.833   5.371   4.006
 7393TIP3   OH222121   6.182   0.149   5.256
 7393TIP3    H122122   6.139   0.076   5.211
 7393TIP3    H222123   6.198   0.116   5.344
 7394TIP3   OH222124   1.085   1.265   5.533
 7394TIP3    H122125   1.141   1.250   5.457
 7394TIP3    H222126   1.140   1.241   5.608
 7395TIP3   OH222127   6.503   0.845   2.578
 7395TIP3    H122128   6.554   0.919   2.611
 7395TIP3    H222129   6.473   0.799   2.656
 7396TIP3   OH222130   3.713   3.698   6.423
 7396TIP3    H122131   3.727   3.791   6.405
 7396TIP3    H222132   3.782   3.654   6.373
 7397TIP3   OH222133   5.340   1.942   1.069
 7397TIP3    H122134   5.430   1.919   1.096
 7397TIP3    H222135   5.349   1.978   0.981
 7398TIP3   OH222136   3.729   3.367   2.257
 7398TIP3    H122137   3.743   3.458   2.283
 7398TIP3    H222138   3.650   3.341   2.305
 7399TIP3   OH222139   6.091   7.089   5.820
 7399TIP3    H122140   6.070   7.139   5.742
 7399TIP3    H222141   6.014   7.096   5.876
 7400TIP3   OH222142   2.615   7.339   3.534
 7400TIP3    H122143   2.554   7.329   3.607
 7400TIP3    H222144   2.566   7.309   3.457
 7401TIP3   OH222145   2.363   0.990   2.804
 7401TIP3    H122146   2.449   0.949   2.803
 7401TIP3    H222147   2.303   0.920   2.780
 7402TIP3   OH222148   3.738   2.875   1.067
 7402TIP3    H122149   3.764   2.967   1.073
 7402TIP3    H222150   3.651   2.877   1.029
 7403TIP3   OH222151   5.805   2.306   3.879
 7403TIP3    H122152   5.825   2.367   3.807
 7403TIP3    H222153   5.854   2.227   3.857
 7404TIP3   OH222154   5.124   5.566   1.380
 7404TIP3    H122155   5.047   5.512   1.359
 7404TIP3    H222156   5.094   5.656   1.371
 7405TIP3   OH222157   5.460   0.418   5.378
 7405TIP3    H122158   5.418   0.333   5.390
 7405TIP3    H222159   5.459   0.458   5.464
 7406TIP3   OH222160   7.672   1.024   3.761
 7406TIP3    H122161   7.760   1.018   3.725
 7406TIP3    H222162   7.686   1.049   3.853
 7407TIP3   OH222163   1.122   3.668   6.178
 7407TIP3    H122164   1.166   3.584   6.173
 7407TIP3    H222165   1.113   3.686   6.271
 7408TIP3   OH222166   4.299   1.003   0.662
 7408TIP3    H122167   4.312   1.064   0.735
 7408TIP3    H222168   4.215   1.028   0.623
 7409TIP3   OH222169   1.391   1.823   6.614
 7409TIP3    H122170   1.302   1.857   6.599
 7409TIP3    H222171   1.408   1.767   6.538
 7410TIP3   OH222172   7.318   4.949   5.958
 7410TIP3    H122173   7.226   4.922   5.957
 7410TIP3    H222174   7.359   4.897   6.027
 7411TIP3   OH222175   7.947   2.047   0.450
 7411TIP3    H122176   7.937   2.113   0.518
 7411TIP3    H222177   8.039   2.053   0.424
 7412TIP3   OH222178   6.203   6.527   0.884
 7412TIP3    H122179   6.230   6.475   0.809
 7412TIP3    H222180   6.120   6.488   0.911
 7413TIP3   OH222181   3.512   5.400   4.902
 7413TIP3    H122182   3.551   5.394   4.989
 7413TIP3    H222183   3.569   5.461   4.854
 7414TIP3   OH222184   7.629   3.521   3.491
 7414TIP3    H122185   7.646   3.435   3.453
 7414TIP3    H222186   7.554   3.508   3.549
 7415TIP3   OH222187   0.588   5.878   2.959
 7415TIP3    H122188   0.624   5.957   2.999
 7415TIP3    H222189   0.652   5.810   2.981
 7416TIP3   OH222190   1.150   5.754   4.713
 7416TIP3    H122191   1.169   5.710   4.796
 7416TIP3    H222192   1.203   5.833   4.716
 7417TIP3   OH222193   6.414   2.689   1.195
 7417TIP3    H122194   6.328   2.668   1.230
 7417TIP3    H222195   6.451   2.751   1.258
 7418TIP3   OH222196   8.166   4.310   6.152
 7418TIP3    H122197   8.190   4.220   6.172
 7418TIP3    H222198   8.232   4.364   6.196
 7419TIP3   OH222199   6.635   1.670   1.157
 7419TIP3    H122200   6.613   1.577   1.163
 7419TIP3    H222201   6.687   1.687   1.236
 7420TIP3   OH222202   1.889   1.123   5.732
 7420TIP3    H122203   1.876   1.030   5.753
 7420TIP3    H222204   1.840   1.170   5.800
 7421TIP3   OH222205   8.090   4.321   5.438
 7421TIP3    H122206   8.059   4.277   5.517
 7421TIP3    H222207   8.020   4.381   5.415
 7422TIP3   OH222208   7.436   2.992   2.868
 7422TIP3    H122209   7.511   2.974   2.811
 7422TIP3    H222210   7.414   2.907   2.907
 7423TIP3   OH222211   6.023   7.371   1.397
 7423TIP3    H122212   6.035   7.466   1.407
 7423TIP3    H222213   6.074   7.333   1.468
 7424TIP3   OH222214   6.265   2.096   5.443
 7424TIP3    H122215   6.274   2.185   5.407
 7424TIP3    H222216   6.171   2.086   5.459
 7425TIP3   OH222217   0.799   7.507   1.141
 7425TIP3    H122218   0.742   7.470   1.073
 7425TIP3    H222219   0.818   7.596   1.110
 7426TIP3   OH222220   7.280   6.270   4.565
 7426TIP3    H122221   7.211   6.270   4.498
 7426TIP3    H222222   7.241   6.224   4.639
 7427TIP3   OH222223   2.538   2.764   0.988
 7427TIP3    H122224   2.455   2.769   0.942
 7427TIP3    H222225   2.516   2.736   1.077
 7428TIP3   OH222226   7.338   4.814   3.344
 7428TIP3    H122227   7.316   4.890   3.398
 7428TIP3    H222228   7.421   4.836   3.302
 7429TIP3   OH222229   3.304   7.449   6.086
 7429TIP3    H122230   3.269   7.469   6.173
 7429TIP3    H222231   3.350   7.366   6.097
 7430TIP3   OH222232   6.494   3.471   2.175
 7430TIP3    H122233   6.544   3.515   2.107
 7430TIP3    H222234   6.508   3.523   2.254
 7431TIP3   OH222235   4.977   0.312   4.335
 7431TIP3    H122236   5.052   0.339   4.388
 7431TIP3    H222237   4.910   0.288   4.399
 7432TIP3   OH222238   7.088   2.021   3.718
 7432TIP3    H122239   7.165   1.964   3.721
 7432TIP3    H222240   7.045   2.008   3.802
 7433TIP3   OH222241   5.411   6.974   5.145
 7433TIP3    H122242   5.330   6.999   5.189
 7433TIP3    H222243   5.420   6.880   5.164
 7434TIP3   OH222244   7.827   7.526   2.263
 7434TIP3    H122245   7.761   7.500   2.199
 7434TIP3    H222246   7.833   7.621   2.253
 7435TIP3   OH222247   5.795   2.370   1.842
 7435TIP3    H122248   5.886   2.386   1.816
 7435TIP3    H222249   5.754   2.335   1.763
 7436TIP3   OH222250   5.684   7.736   5.069
 7436TIP3    H122251   5.699   7.817   5.119
 7436TIP3    H222252   5.591   7.739   5.046
 7437TIP3   OH222253   3.420   0.640   4.042
 7437TIP3    H122254   3.426   0.732   4.068
 7437TIP3    H222255   3.508   0.605   4.057
 7438TIP3   OH222256   3.836   1.525   0.235
 7438TIP3    H122257   3.862   1.547   0.146
 7438TIP3    H222258   3.889   1.448   0.257
 7439TIP3   OH222259   5.356   5.602   4.385
 7439TIP3    H122260   5.357   5.666   4.314
 7439TIP3    H222261   5.323   5.651   4.460
 7440TIP3   OH222262   6.778   2.163   5.934
 7440TIP3    H122263   6.862   2.136   5.898
 7440TIP3    H222264   6.784   2.258   5.943
 7441TIP3   OH222265   7.371   7.234   1.186
 7441TIP3    H122266   7.295   7.287   1.162
 7441TIP3    H222267   7.446   7.291   1.170
 7442TIP3   OH222268   5.923   2.723   3.896
 7442TIP3    H122269   5.853   2.741   3.959
 7442TIP3    H222270   5.918   2.795   3.833
 7443TIP3   OH222271   6.945   0.241   1.683
 7443TIP3    H122272   6.927   0.223   1.591
 7443TIP3    H222273   6.859   0.245   1.724
 7444TIP3   OH222274   3.934   1.362   4.882
 7444TIP3    H122275   3.948   1.446   4.925
 7444TIP3    H222276   3.997   1.361   4.810
 7445TIP3   OH222277   4.634   2.911   0.099
 7445TIP3    H122278   4.574   2.872   0.163
 7445TIP3    H222279   4.719   2.910   0.143
 7446TIP3   OH222280   5.843   2.908   0.494
 7446TIP3    H122281   5.878   2.821   0.516
 7446TIP3    H222282   5.894   2.969   0.547
 7447TIP3   OH222283   8.161   2.757   5.771
 7447TIP3    H122284   8.218   2.681   5.761
 7447TIP3    H222285   8.221   2.830   5.786
 7448TIP3   OH222286   6.132   0.123   3.120
 7448TIP3    H122287   6.065   0.093   3.182
 7448TIP3    H222288   6.146   0.049   3.062
 7449TIP3   OH222289   1.969   6.479   2.119
 7449TIP3    H122290   1.914   6.514   2.048
 7449TIP3    H222291   1.935   6.520   2.198
 7450TIP3   OH222292   0.076   6.297   6.607
 7450TIP3    H122293   0.056   6.388   6.627
 7450TIP3    H222294  -0.003   6.263   6.564
 7451TIP3   OH222295   7.919   7.194   5.749
 7451TIP3    H122296   7.922   7.288   5.766
 7451TIP3    H222297   7.862   7.185   5.674
 7452TIP3   OH222298   0.399   3.248   3.405
 7452TIP3    H122299   0.319   3.257   3.353
 7452TIP3    H222300   0.396   3.158   3.439
 7453TIP3   OH222301   1.609   6.360   1.131
 7453TIP3    H122302   1.574   6.433   1.182
 7453TIP3    H222303   1.549   6.352   1.057
 7454TIP3   OH222304   4.481   1.550   1.531
 7454TIP3    H122305   4.413   1.500   1.576
 7454TIP3    H222306   4.508   1.493   1.458
 7455TIP3   OH222307   4.943   5.717   5.644
 7455TIP3    H122308   5.008   5.738   5.711
 7455TIP3    H222309   4.874   5.670   5.692
 7456TIP3   OH222310   6.464   7.627   5.917
 7456TIP3    H122311   6.422   7.674   5.989
 7456TIP3    H222312   6.464   7.535   5.946
 7457TIP3   OH222313   2.633   2.803   5.186
 7457TIP3    H122314   2.682   2.768   5.260
 7457TIP3    H222315   2.541   2.796   5.212
 7458TIP3   OH222316   0.605   1.414   0.177
 7458TIP3    H122317   0.681   1.367   0.143
 7458TIP3    H222318   0.544   1.345   0.203
 7459TIP3   OH222319   2.923   3.909   6.663
 7459TIP3    H122320   2.959   3.826   6.634
 7459TIP3    H222321   2.917   3.962   6.583
 7460TIP3   OH222322   4.241   0.786   5.415
 7460TIP3    H122323   4.195   0.856   5.369
 7460TIP3    H222324   4.268   0.825   5.498
 7461TIP3   OH222325   1.745   7.374   0.865
 7461TIP3    H122326   1.723   7.295   0.816
 7461TIP3    H222327   1.695   7.444   0.822
 7462TIP3   OH222328   0.855   2.834   4.724
 7462TIP3    H122329   0.776   2.840   4.778
 7462TIP3    H222330   0.827   2.783   4.647
 7463TIP3   OH222331   1.896   4.474   3.033
 7463TIP3    H122332   1.886   4.382   3.009
 7463TIP3    H222333   1.961   4.474   3.103
 7464TIP3   OH222334   4.277   4.956   6.634
 7464TIP3    H122335   4.348   4.897   6.610
 7464TIP3    H222336   4.198   4.911   6.605
 7465TIP3   OH222337   5.927   1.940   5.810
 7465TIP3    H122338   5.938   2.034   5.828
 7465TIP3    H222339   5.842   1.919   5.848
 7466TIP3   OH222340   7.423   2.950   6.247
 7466TIP3    H122341   7.497   2.962   6.188
 7466TIP3    H222342   7.458   2.897   6.319
 7467TIP3   OH222343   7.414   3.212   3.643
 7467TIP3    H122344   7.437   3.222   3.736
 7467TIP3    H222345   7.373   3.295   3.619
 7468TIP3   OH222346   4.794   2.332   0.667
 7468TIP3    H122347   4.831   2.355   0.752
 7468TIP3    H222348   4.854   2.371   0.603
 7469TIP3   OH222349   2.305   1.897   2.254
 7469TIP3    H122350   2.253   1.934   2.182
 7469TIP3    H222351   2.271   1.808   2.265
 7470TIP3   OH222352   5.479   5.977   6.441
 7470TIP3    H122353   5.515   5.890   6.425
 7470TIP3    H222354   5.397   5.977   6.391
 7471TIP3   OH222355   3.737   4.776   1.631
 7471TIP3    H122356   3.806   4.842   1.626
 7471TIP3    H222357   3.755   4.730   1.713
 7472TIP3   OH222358   4.461   6.136   0.245
 7472TIP3    H122359   4.419   6.087   0.174
 7472TIP3    H222360   4.522   6.194   0.201
 7473TIP3   OH222361   7.035   7.804   4.123
 7473TIP3    H122362   7.000   7.884   4.084
 7473TIP3    H222363   7.125   7.826   4.146
 7474TIP3   OH222364   4.401   3.699   6.501
 7474TIP3    H122365   4.409   3.623   6.443
 7474TIP3    H222366   4.479   3.751   6.485
 7475TIP3   OH222367   4.967   6.760   4.658
 7475TIP3    H122368   4.923   6.708   4.590
 7475TIP3    H222369   5.058   6.766   4.629
 7476TIP3   OH222370   3.876   3.596   0.711
 7476TIP3    H122371   3.938   3.547   0.764
 7476TIP3    H222372   3.927   3.627   0.636
 7477TIP3   OH222373   2.520   4.565   2.958
 7477TIP3    H122374   2.449   4.612   3.000
 7477TIP3    H222375   2.594   4.574   3.018
 7478TIP3   OH222376   3.768   0.124   0.358
 7478TIP3    H122377   3.756   0.207   0.311
 7478TIP3    H222378   3.745   0.145   0.449
 7479TIP3   OH222379   0.088   5.284   0.840
 7479TIP3    H122380   0.038   5.215   0.798
 7479TIP3    H222381   0.024   5.333   0.892
 7480TIP3   OH222382   4.386   2.864   4.003
 7480TIP3    H122383   4.461   2.914   4.037
 7480TIP3    H222384   4.310   2.917   4.027
 7481TIP3   OH222385   5.466   5.686   2.248
 7481TIP3    H122386   5.394   5.648   2.197
 7481TIP3    H222387   5.536   5.699   2.185
 7482TIP3   OH222388   5.042   5.374   5.409
 7482TIP3    H122389   5.050   5.298   5.351
 7482TIP3    H222390   5.009   5.337   5.491
 7483TIP3   OH222391   4.044   7.140   5.626
 7483TIP3    H122392   4.120   7.199   5.622
 7483TIP3    H222393   4.035   7.120   5.719
 7484TIP3   OH222394   3.201   6.426   0.903
 7484TIP3    H122395   3.192   6.331   0.912
 7484TIP3    H222396   3.233   6.455   0.989
 7485TIP3   OH222397   7.419   3.053   2.486
 7485TIP3    H122398   7.458   3.018   2.407
 7485TIP3    H222399   7.492   3.064   2.547
 7486TIP3   OH222400   3.895   7.155   1.526
 7486TIP3    H122401   3.864   7.079   1.476
 7486TIP3    H222402   3.924   7.217   1.459
 7487TIP3   OH222403   7.334   0.501   0.555
 7487TIP3    H122404   7.287   0.434   0.604
 7487TIP3    H222405   7.317   0.583   0.602
 7488TIP3   OH222406   6.129   5.423   4.351
 7488TIP3    H122407   6.034   5.433   4.360
 7488TIP3    H222408   6.152   5.357   4.417
 7489TIP3   OH222409   1.873   4.959   1.244
 7489TIP3    H122410   1.844   4.869   1.227
 7489TIP3    H222411   1.892   4.960   1.338
 7490TIP3   OH222412   2.014   4.938   4.308
 7490TIP3    H122413   2.056   5.022   4.323
 7490TIP3    H222414   2.023   4.891   4.391
 7491TIP3   OH222415   1.149   5.111   4.196
 7491TIP3    H122416   1.168   5.059   4.118
 7491TIP3    H222417   1.172   5.055   4.270
 7492TIP3   OH222418   2.578   0.204   2.346
 7492TIP3    H122419   2.523   0.198   2.425
 7492TIP3    H222420   2.642   0.134   2.357
 7493TIP3   OH222421   4.362   4.731   2.447
 7493TIP3    H122422   4.297   4.681   2.497
 7493TIP3    H222423   4.406   4.665   2.394
 7494TIP3   OH222424   7.258   3.845   0.906
 7494TIP3    H122425   7.277   3.832   0.813
 7494TIP3    H222426   7.164   3.828   0.915
 7495TIP3   OH222427   1.898   1.108   0.502
 7495TIP3    H122428   1.834   1.132   0.570
 7495TIP3    H222429   1.974   1.162   0.522
 7496TIP3   OH222430   0.643   7.803   6.077
 7496TIP3    H122431   0.667   7.794   5.984
 7496TIP3    H222432   0.591   7.725   6.096
 7497TIP3   OH222433   5.435   5.901   2.070
 7497TIP3    H122434   5.361   5.861   2.023
 7497TIP3    H222435   5.436   5.856   2.155
 7498TIP3   OH222436   0.262   7.142   4.998
 7498TIP3    H122437   0.295   7.173   4.914
 7498TIP3    H222438   0.169   7.166   4.998
 7499TIP3   OH222439   6.023   0.311   2.675
 7499TIP3    H122440   5.974   0.232   2.653
 7499TIP3    H222441   5.958   0.382   2.670
 7500TIP3   OH222442   0.508   6.678   0.896
 7500TIP3    H122443   0.445   6.658   0.965
 7500TIP3    H222444   0.458   6.729   0.832
 7501TIP3   OH222445   8.111   7.205   6.405
 7501TIP3    H122446   8.091   7.294   6.377
 7501TIP3    H222447   8.195   7.212   6.449
 7502TIP3   OH222448   7.640   1.624   2.011
 7502TIP3    H122449   7.598   1.639   1.926
 7502TIP3    H222450   7.580   1.567   2.057
 7503TIP3   OH222451   1.470   0.363   4.845
 7503TIP3    H122452   1.561   0.392   4.844
 7503TIP3    H222453   1.419   0.443   4.832
 7504TIP3   OH222454   2.167   7.468   2.419
 7504TIP3    H122455   2.082   7.446   2.381
 7504TIP3    H222456   2.215   7.386   2.421
 7505TIP3   OH222457   8.155   3.782   3.740
 7505TIP3    H122458   8.197   3.704   3.704
 7505TIP3    H222459   8.097   3.749   3.808
 7506TIP3   OH222460   2.478   6.963   4.205
 7506TIP3    H122461   2.557   6.955   4.151
 7506TIP3    H222462   2.512   6.972   4.294
 7507TIP3   OH222463   7.152   7.548   3.318
 7507TIP3    H122464   7.135   7.530   3.225
 7507TIP3    H222465   7.148   7.643   3.325
 7508TIP3   OH222466   5.781   0.856   5.736
 7508TIP3    H122467   5.727   0.882   5.662
 7508TIP3    H222468   5.828   0.778   5.705
 7509TIP3   OH222469   6.403  -0.049   5.923
 7509TIP3    H122470   6.487  -0.003   5.933
 7509TIP3    H222471   6.347  -0.010   5.989
 7510TIP3   OH222472   6.969   5.019   6.249
 7510TIP3    H122473   6.887   4.975   6.226
 7510TIP3    H222474   6.941   5.102   6.288
 7511TIP3   OH222475   6.206   0.634   3.290
 7511TIP3    H122476   6.290   0.680   3.284
 7511TIP3    H222477   6.140   0.703   3.291
 7512TIP3   OH222478   3.267   6.183   5.129
 7512TIP3    H122479   3.315   6.115   5.175
 7512TIP3    H222480   3.192   6.138   5.090
 7513TIP3   OH222481   2.984   3.345   2.082
 7513TIP3    H122482   2.900   3.367   2.123
 7513TIP3    H222483   3.020   3.428   2.053
 7514TIP3   OH222484   1.620   2.160   0.561
 7514TIP3    H122485   1.693   2.097   0.554
 7514TIP3    H222486   1.567   2.127   0.634
 7515TIP3   OH222487   2.788   7.455   5.723
 7515TIP3    H122488   2.804   7.361   5.730
 7515TIP3    H222489   2.693   7.464   5.727
 7516TIP3   OH222490   8.246   2.296   4.348
 7516TIP3    H122491   8.244   2.214   4.299
 7516TIP3    H222492   8.154   2.314   4.368
 7517TIP3   OH222493   2.483   5.470   2.431
 7517TIP3    H122494   2.456   5.427   2.513
 7517TIP3    H222495   2.493   5.398   2.369
 7518TIP3   OH222496   5.376   6.885   0.965
 7518TIP3    H122497   5.450   6.825   0.954
 7518TIP3    H222498   5.340   6.896   0.877
 7519TIP3   OH222499   8.079   4.568   2.249
 7519TIP3    H122500   8.042   4.493   2.297
 7519TIP3    H222501   8.146   4.529   2.193
 7520TIP3   OH222502   5.864   5.389   4.406
 7520TIP3    H122503   5.793   5.353   4.353
 7520TIP3    H222504   5.827   5.470   4.443
 7521TIP3   OH222505   6.190   5.171   4.869
 7521TIP3    H122506   6.100   5.165   4.901
 7521TIP3    H222507   6.243   5.131   4.937
 7522TIP3   OH222508   4.438   6.495   6.552
 7522TIP3    H122509   4.360   6.535   6.590
 7522TIP3    H222510   4.447   6.535   6.466
 7523TIP3   OH222511   0.328   6.163   1.786
 7523TIP3    H122512   0.410   6.197   1.750
 7523TIP3    H222513   0.269   6.158   1.711
 7524TIP3   OH222514   3.600   2.438   3.651
 7524TIP3    H122515   3.543   2.362   3.664
 7524TIP3    H222516   3.665   2.431   3.721
 7525TIP3   OH222517   0.267   1.140   2.171
 7525TIP3    H122518   0.249   1.144   2.078
 7525TIP3    H222519   0.181   1.131   2.212
 7526TIP3   OH222520   1.442   2.667   2.240
 7526TIP3    H122521   1.366   2.609   2.249
 7526TIP3    H222522   1.419   2.725   2.168
 7527TIP3   OH222523   1.841   0.528   3.600
 7527TIP3    H122524   1.801   0.550   3.684
 7527TIP3    H222525   1.928   0.566   3.604
 7528TIP3   OH222526   0.815   2.476   6.179
 7528TIP3    H122527   0.770   2.553   6.145
 7528TIP3    H222528   0.775   2.461   6.265
 7529TIP3   OH222529   6.031   0.435   4.581
 7529TIP3    H122530   5.968   0.422   4.510
 7529TIP3    H222531   5.996   0.383   4.654
 7530TIP3   OH222532   2.156   1.209   3.605
 7530TIP3    H122533   2.233   1.255   3.639
 7530TIP3    H222534   2.091   1.277   3.593
 7531TIP3   OH222535   5.245   7.413   6.621
 7531TIP3    H122536   5.309   7.479   6.645
 7531TIP3    H222537   5.189   7.456   6.556
 7532TIP3   OH222538   7.091   4.681   5.012
 7532TIP3    H122539   7.089   4.686   4.916
 7532TIP3    H222540   7.105   4.771   5.040
 7533TIP3   OH222541   2.467   0.341   4.163
 7533TIP3    H122542   2.444   0.406   4.228
 7533TIP3    H222543   2.477   0.391   4.081
 7534TIP3   OH222544   7.635   3.754   1.008
 7534TIP3    H122545   7.713   3.714   0.971
 7534TIP3    H222546   7.661   3.845   1.026
 7535TIP3   OH222547   6.485   0.125   6.423
 7535TIP3    H122548   6.488   0.206   6.372
 7535TIP3    H222549   6.423   0.070   6.376
 7536TIP3   OH222550   5.269   3.330   3.479
 7536TIP3    H122551   5.220   3.279   3.544
 7536TIP3    H222552   5.361   3.305   3.493
 7537TIP3   OH222553   4.480   1.717   0.378
 7537TIP3    H122554   4.456   1.698   0.469
 7537TIP3    H222555   4.573   1.695   0.372
 7538TIP3   OH222556   1.449   6.808   0.294
 7538TIP3    H122557   1.481   6.880   0.239
 7538TIP3    H222558   1.505   6.810   0.371
 7539TIP3   OH222559   6.911   1.572   0.173
 7539TIP3    H122560   6.968   1.504   0.209
 7539TIP3    H222561   6.967   1.620   0.112
 7540TIP3   OH222562   4.113   3.901   5.445
 7540TIP3    H122563   4.086   3.843   5.516
 7540TIP3    H222564   4.203   3.875   5.425
 7541TIP3   OH222565   5.378   3.559   3.830
 7541TIP3    H122566   5.411   3.595   3.912
 7541TIP3    H222567   5.290   3.596   3.821
 7542TIP3   OH222568   6.131   4.060   5.588
 7542TIP3    H122569   6.114   4.154   5.578
 7542TIP3    H222570   6.162   4.033   5.502
 7543TIP3   OH222571   3.705   7.768   3.432
 7543TIP3    H122572   3.639   7.699   3.423
 7543TIP3    H222573   3.786   7.728   3.399
 7544TIP3   OH222574   0.260   7.260   5.755
 7544TIP3    H122575   0.171   7.251   5.791
 7544TIP3    H222576   0.313   7.202   5.809
 7545TIP3   OH222577   3.569   7.558   3.990
 7545TIP3    H122578   3.662   7.579   3.990
 7545TIP3    H222579   3.544   7.561   3.897
 7546TIP3   OH222580   7.117   7.469   1.747
 7546TIP3    H122581   7.094   7.561   1.761
 7546TIP3    H222582   7.069   7.445   1.667
 7547TIP3   OH222583   2.479   3.208   6.235
 7547TIP3    H122584   2.405   3.248   6.189
 7547TIP3    H222585   2.498   3.129   6.185
 7548TIP3   OH222586   2.955   5.903   2.657
 7548TIP3    H122587   2.934   5.995   2.648
 7548TIP3    H222588   3.035   5.902   2.710
 7549TIP3   OH222589   2.518   6.361   5.278
 7549TIP3    H122590   2.429   6.338   5.305
 7549TIP3    H222591   2.506   6.434   5.217
 7550TIP3   OH222592   6.895   7.341   5.020
 7550TIP3    H122593   6.903   7.253   4.984
 7550TIP3    H222594   6.808   7.370   4.993
 7551TIP3   OH222595   3.795   7.776   5.251
 7551TIP3    H122596   3.742   7.855   5.238
 7551TIP3    H222597   3.839   7.763   5.166
 7552TIP3   OH222598   7.208   2.899   6.717
 7552TIP3    H122599   7.251   2.979   6.750
 7552TIP3    H222600   7.189   2.848   6.796
 7553TIP3   OH222601   4.568   6.770   5.397
 7553TIP3    H122602   4.592   6.692   5.348
 7553TIP3    H222603   4.488   6.746   5.443
 7554TIP3   OH222604   4.284   0.341   2.958
 7554TIP3    H122605   4.279   0.288   3.038
 7554TIP3    H222606   4.293   0.278   2.887
 7555TIP3   OH222607   3.539   1.918   0.243
 7555TIP3    H122608   3.504   1.828   0.243
 7555TIP3    H222609   3.606   1.918   0.175
 7556TIP3   OH222610   3.389   6.143   6.011
 7556TIP3    H122611   3.348   6.195   6.080
 7556TIP3    H222612   3.365   6.188   5.930
 7557TIP3   OH222613   8.212   7.067   0.175
 7557TIP3    H122614   8.297   7.030   0.149
 7557TIP3    H222615   8.161   6.991   0.201
 7558TIP3   OH222616   7.354   6.662   6.456
 7558TIP3    H122617   7.372   6.592   6.519
 7558TIP3    H222618   7.325   6.736   6.509
 7559TIP3   OH222619   5.788   4.981   4.088
 7559TIP3    H122620   5.876   5.016   4.072
 7559TIP3    H222621   5.735   5.059   4.107
 7560TIP3   OH222622   0.508   0.446   1.477
 7560TIP3    H122623   0.544   0.475   1.561
 7560TIP3    H222624   0.414   0.439   1.492
 7561TIP3   OH222625   2.225   3.346   1.579
 7561TIP3    H122626   2.294   3.372   1.518
 7561TIP3    H222627   2.193   3.428   1.616
 7562TIP3   OH222628   6.300   4.413   3.059
 7562TIP3    H122629   6.291   4.505   3.033
 7562TIP3    H222630   6.248   4.364   2.995
 7563TIP3   OH222631   2.655   5.632   4.778
 7563TIP3    H122632   2.618   5.701   4.723
 7563TIP3    H222633   2.696   5.679   4.851
 7564TIP3   OH222634   2.571   6.024   3.996
 7564TIP3    H122635   2.600   5.933   3.988
 7564TIP3    H222636   2.578   6.042   4.090
 7565TIP3   OH222637   5.751   3.816   4.890
 7565TIP3    H122638   5.775   3.724   4.903
 7565TIP3    H222639   5.753   3.854   4.978
 7566TIP3   OH222640   7.245   3.780   5.365
 7566TIP3    H122641   7.204   3.695   5.346
 7566TIP3    H222642   7.339   3.761   5.369
 7567TIP3   OH222643   0.481   7.553   6.143
 7567TIP3    H122644   0.396   7.517   6.118
 7567TIP3    H222645   0.518   7.489   6.203
 7568TIP3   OH222646   1.079   7.055   5.149
 7568TIP3    H122647   1.081   6.993   5.222
 7568TIP3    H222648   1.029   7.130   5.182
 7569TIP3   OH222649   4.173   0.898   5.006
 7569TIP3    H122650   4.086   0.932   5.028
 7569TIP3    H222651   4.229   0.976   5.003
 7570TIP3   OH222652   4.086   7.459   4.996
 7570TIP3    H122653   4.130   7.510   5.064
 7570TIP3    H222654   4.128   7.486   4.914
 7571TIP3   OH222655   2.904   0.800   5.165
 7571TIP3    H122656   2.859   0.791   5.249
 7571TIP3    H222657   2.835   0.794   5.100
 7572TIP3   OH222658   4.130   2.218   4.187
 7572TIP3    H122659   4.128   2.181   4.100
 7572TIP3    H222660   4.191   2.163   4.236
 7573TIP3   OH222661   8.179   3.107   6.050
 7573TIP3    H122662   8.208   3.198   6.044
 7573TIP3    H222663   8.091   3.108   6.011
 7574TIP3   OH222664   4.178   2.747   1.020
 7574TIP3    H122665   4.137   2.751   0.934
 7574TIP3    H222666   4.106   2.739   1.082
 7575TIP3   OH222667   3.846   1.542   2.010
 7575TIP3    H122668   3.910   1.512   2.075
 7575TIP3    H222669   3.815   1.462   1.968
 7576TIP3   OH222670   5.894   2.907   6.498
 7576TIP3    H122671   5.944   2.831   6.528
 7576TIP3    H222672   5.809   2.871   6.473
 7577TIP3   OH222673   5.229   2.119   4.080
 7577TIP3    H122674   5.268   2.032   4.082
 7577TIP3    H222675   5.155   2.115   4.140
 7578TIP3   OH222676   4.206   5.105   0.842
 7578TIP3    H122677   4.264   5.100   0.918
 7578TIP3    H222678   4.230   5.187   0.799
 7579TIP3   OH222679   1.523   4.908   0.500
 7579TIP3    H122680   1.465   4.956   0.441
 7579TIP3    H222681   1.570   4.976   0.549
 7580TIP3   OH222682   4.929   5.495   6.294
 7580TIP3    H122683   5.018   5.506   6.262
 7580TIP3    H222684   4.927   5.539   6.379
 7581TIP3   OH222685   0.305   2.509   2.014
 7581TIP3    H122686   0.223   2.538   2.054
 7581TIP3    H222687   0.350   2.589   1.991
 7582TIP3   OH222688   1.179   2.957   5.661
 7582TIP3    H122689   1.156   2.947   5.753
 7582TIP3    H222690   1.095   2.957   5.615
 7583TIP3   OH222691   1.708   0.748   4.346
 7583TIP3    H122692   1.627   0.772   4.301
 7583TIP3    H222693   1.691   0.662   4.383
 7584TIP3   OH222694   6.865   6.700   0.902
 7584TIP3    H122695   6.850   6.788   0.869
 7584TIP3    H222696   6.960   6.692   0.912
 7585TIP3   OH222697   8.233   4.580   1.016
 7585TIP3    H122698   8.150   4.577   1.063
 7585TIP3    H222699   8.260   4.489   1.009
 7586TIP3   OH222700   2.478   3.111   6.787
 7586TIP3    H122701   2.477   3.115   6.692
 7586TIP3    H222702   2.559   3.155   6.813
 7587TIP3   OH222703   0.779   4.728   4.930
 7587TIP3    H122704   0.780   4.636   4.902
 7587TIP3    H222705   0.719   4.730   5.005
 7588TIP3   OH222706   3.386   0.894   1.664
 7588TIP3    H122707   3.309   0.837   1.663
 7588TIP3    H222708   3.355   0.977   1.628
 7589TIP3   OH222709   0.748   2.750   6.056
 7589TIP3    H122710   0.705   2.769   6.139
 7589TIP3    H222711   0.712   2.815   5.996
 7590TIP3   OH222712   5.358   2.201   1.210
 7590TIP3    H122713   5.308   2.126   1.178
 7590TIP3    H222714   5.342   2.269   1.145
 7591TIP3   OH222715   1.764   1.741   6.269
 7591TIP3    H122716   1.795   1.823   6.230
 7591TIP3    H222717   1.693   1.712   6.213
 7592TIP3   OH222718   4.528   5.311   0.368
 7592TIP3    H122719   4.526   5.328   0.273
 7592TIP3    H222720   4.580   5.231   0.377
 7593TIP3   OH222721   1.754   4.938   4.255
 7593TIP3    H122722   1.715   5.012   4.302
 7593TIP3    H222723   1.848   4.950   4.266
 7594TIP3   OH222724   2.847   1.506   5.399
 7594TIP3    H122725   2.848   1.495   5.494
 7594TIP3    H222726   2.769   1.459   5.370
 7595TIP3   OH222727   5.499   6.247   2.865
 7595TIP3    H122728   5.408   6.222   2.846
 7595TIP3    H222729   5.495   6.340   2.885
 7596TIP3   OH222730   6.911   7.792   5.461
 7596TIP3    H122731   6.991   7.754   5.496
 7596TIP3    H222732   6.896   7.745   5.378
 7597TIP3   OH222733   0.788   2.636   4.239
 7597TIP3    H122734   0.709   2.685   4.215
 7597TIP3    H222735   0.758   2.546   4.249
 7598TIP3   OH222736   5.727   1.157   0.436
 7598TIP3    H122737   5.818   1.188   0.428
 7598TIP3    H222738   5.731   1.065   0.413
 7599TIP3   OH222739   7.609   7.600   6.142
 7599TIP3    H122740   7.579   7.639   6.060
 7599TIP3    H222741   7.682   7.543   6.116
 7600TIP3   OH222742   1.397   4.074   6.761
 7600TIP3    H122743   1.395   3.982   6.788
 7600TIP3    H222744   1.432   4.073   6.673
 7601TIP3   OH222745   2.663   0.235   1.844
 7601TIP3    H122746   2.731   0.175   1.874
 7601TIP3    H222747   2.626   0.272   1.924
 7602TIP3   OH222748   4.146   2.346   1.052
 7602TIP3    H122749   4.106   2.415   0.999
 7602TIP3    H222750   4.093   2.269   1.034
 7603TIP3   OH222751   2.856   3.043   1.653
 7603TIP3    H122752   2.818   3.001   1.576
 7603TIP3    H222753   2.814   2.999   1.727
 7604TIP3   OH222754   6.397   0.630   1.492
 7604TIP3    H122755   6.348   0.585   1.560
 7604TIP3    H222756   6.407   0.565   1.423
 7605TIP3   OH222757   7.856   0.088   2.453
 7605TIP3    H122758   7.942   0.049   2.440
 7605TIP3    H222759   7.853   0.161   2.392
 7606TIP3   OH222760   7.844   0.519   2.847
 7606TIP3    H122761   7.817   0.447   2.790
 7606TIP3    H222762   7.825   0.487   2.936
 7607TIP3   OH222763   1.294   4.114   5.213
 7607TIP3    H122764   1.279   4.181   5.146
 7607TIP3    H222765   1.206   4.080   5.232
 7608TIP3   OH222766   3.977   3.916   2.789
 7608TIP3    H122767   4.051   3.974   2.808
 7608TIP3    H222768   3.969   3.860   2.866
 7609TIP3   OH222769   6.259   0.220   0.243
 7609TIP3    H122770   6.323   0.290   0.228
 7609TIP3    H222771   6.307   0.139   0.226
 7610TIP3   OH222772   6.890   1.203   6.489
 7610TIP3    H122773   6.829   1.183   6.560
 7610TIP3    H222774   6.950   1.128   6.486
 7611TIP3   OH222775   3.019   1.780   5.692
 7611TIP3    H122776   2.933   1.788   5.734
 7611TIP3    H222777   3.079   1.761   5.765
 7612TIP3   OH222778   1.909   0.825   3.359
 7612TIP3    H122779   1.969   0.862   3.423
 7612TIP3    H222780   1.957   0.830   3.276
 7613TIP3   OH222781   5.732   0.238   6.781
 7613TIP3    H122782   5.813   0.188   6.793
 7613TIP3    H222783   5.733   0.263   6.688
 7614TIP3   OH222784   4.875   5.598   3.049
 7614TIP3    H122785   4.784   5.582   3.073
 7614TIP3    H222786   4.873   5.679   2.999
 7615TIP3   OH222787   6.308   4.694   5.380
 7615TIP3    H122788   6.373   4.655   5.439
 7615TIP3    H222789   6.346   4.779   5.356
 7616TIP3   OH222790   2.276   3.719   6.734
 7616TIP3    H122791   2.343   3.735   6.667
 7616TIP3    H222792   2.215   3.658   6.692
 7617TIP3   OH222793   6.655   2.994   4.932
 7617TIP3    H122794   6.567   2.989   4.895
 7617TIP3    H222795   6.662   3.083   4.968
 7618TIP3   OH222796   5.845   5.407   3.538
 7618TIP3    H122797   5.927   5.452   3.558
 7618TIP3    H222798   5.821   5.440   3.451
 7619TIP3   OH222799   0.824   2.062   4.436
 7619TIP3    H122800   0.822   1.983   4.489
 7619TIP3    H222801   0.877   2.124   4.486
 7620TIP3   OH222802   2.308   0.134   6.432
 7620TIP3    H122803   2.286   0.041   6.422
 7620TIP3    H222804   2.338   0.142   6.523
 7621TIP3   OH222805   6.766   7.695   3.993
 7621TIP3    H122806   6.833   7.677   3.927
 7621TIP3    H222807   6.726   7.778   3.964
 7622TIP3   OH222808   6.839   4.042   5.877
 7622TIP3    H122809   6.828   3.953   5.845
 7622TIP3    H222810   6.918   4.039   5.931
 7623TIP3   OH222811   2.855   2.711   5.054
 7623TIP3    H122812   2.860   2.781   4.990
 7623TIP3    H222813   2.778   2.731   5.107
 7624TIP3   OH222814   2.654   3.523   6.551
 7624TIP3    H122815   2.663   3.576   6.472
 7624TIP3    H222816   2.580   3.465   6.532
 7625TIP3   OH222817   8.091   6.249   4.558
 7625TIP3    H122818   8.140   6.187   4.504
 7625TIP3    H222819   8.159   6.299   4.605
 7626TIP3   OH222820   5.404   3.874   3.345
 7626TIP3    H122821   5.314   3.851   3.366
 7626TIP3    H222822   5.453   3.792   3.358
 7627TIP3   OH222823   7.414   2.249   4.086
 7627TIP3    H122824   7.423   2.155   4.075
 7627TIP3    H222825   7.440   2.286   4.001
 7628TIP3   OH222826   5.717   2.404   0.160
 7628TIP3    H122827   5.718   2.499   0.164
 7628TIP3    H222828   5.793   2.381   0.107
 7629TIP3   OH222829   0.075   0.673   0.041
 7629TIP3    H122830   0.062   0.727  -0.037
 7629TIP3    H222831   0.000   0.694   0.097
 7630TIP3   OH222832   3.173   1.067   5.648
 7630TIP3    H122833   3.083   1.078   5.678
 7630TIP3    H222834   3.166   1.009   5.573
 7631TIP3   OH222835   1.127   7.752   6.025
 7631TIP3    H122836   1.037   7.723   6.007
 7631TIP3    H222837   1.161   7.781   5.940
 7632TIP3   OH222838   3.685   6.304   0.808
 7632TIP3    H122839   3.608   6.359   0.817
 7632TIP3    H222840   3.758   6.360   0.834
 7633TIP3   OH222841   2.204   4.182   1.689
 7633TIP3    H122842   2.205   4.234   1.769
 7633TIP3    H222843   2.161   4.237   1.625
 7634TIP3   OH222844   1.611   6.925   0.747
 7634TIP3    H122845   1.549   6.994   0.725
 7634TIP3    H222846   1.583   6.893   0.832
 7635TIP3   OH222847   6.372   7.808   5.082
 7635TIP3    H122848   6.446   7.829   5.026
 7635TIP3    H222849   6.391   7.721   5.116
 7636TIP3   OH222850   8.022   2.987   2.952
 7636TIP3    H122851   8.043   2.988   3.045
 7636TIP3    H222852   8.104   3.011   2.909
 7637TIP3   OH222853   4.847   5.526   4.308
 7637TIP3    H122854   4.942   5.513   4.299
 7637TIP3    H222855   4.830   5.512   4.401
 7638TIP3   OH222856   2.425   4.812   6.741
 7638TIP3    H122857   2.521   4.811   6.744
 7638TIP3    H222858   2.404   4.783   6.653
 7639TIP3   OH222859   4.910   2.889   4.683
 7639TIP3    H122860   4.915   2.984   4.695
 7639TIP3    H222861   4.899   2.877   4.589
 7640TIP3   OH222862   5.989   3.339   4.399
 7640TIP3    H122863   5.936   3.357   4.321
 7640TIP3    H222864   6.059   3.283   4.367
 7641TIP3   OH222865   7.977   6.373   6.529
 7641TIP3    H122866   7.993   6.436   6.599
 7641TIP3    H222867   7.882   6.372   6.518
 7642TIP3   OH222868   1.542   5.218   0.581
 7642TIP3    H122869   1.539   5.308   0.614
 7642TIP3    H222870   1.456   5.204   0.542
 7643TIP3   OH222871   1.560   6.346   0.072
 7643TIP3    H122872   1.560   6.264   0.022
 7643TIP3    H222873   1.472   6.352   0.108
 7644TIP3   OH222874   3.469   6.454   0.773
 7644TIP3    H122875   3.395   6.443   0.833
 7644TIP3    H222876   3.429   6.469   0.688
 7645TIP3   OH222877   1.048   1.100   0.285
 7645TIP3    H122878   1.010   1.178   0.326
 7645TIP3    H222879   1.019   1.027   0.340
 7646TIP3   OH222880   4.350   6.933   4.145
 7646TIP3    H122881   4.354   6.876   4.068
 7646TIP3    H222882   4.351   6.873   4.220
 7647TIP3   OH222883   6.057   5.378   6.130
 7647TIP3    H122884   6.065   5.424   6.047
 7647TIP3    H222885   5.964   5.381   6.151
 7648TIP3   OH222886   7.330   7.403   1.900
 7648TIP3    H122887   7.257   7.410   1.838
 7648TIP3    H222888   7.395   7.466   1.868
 7649TIP3   OH222889   4.530   0.602   2.019
 7649TIP3    H122890   4.571   0.541   1.958
 7649TIP3    H222891   4.587   0.601   2.096
 7650TIP3   OH222892   5.475   1.461   3.016
 7650TIP3    H122893   5.434   1.547   3.003
 7650TIP3    H222894   5.431   1.426   3.094
 7651TIP3   OH222895   5.852   4.590   0.441
 7651TIP3    H122896   5.802   4.536   0.502
 7651TIP3    H222897   5.865   4.535   0.364
 7652TIP3   OH222898   4.097   6.608   1.783
 7652TIP3    H122899   4.050   6.618   1.700
 7652TIP3    H222900   4.079   6.517   1.809
 7653TIP3   OH222901   1.532   5.560   4.277
 7653TIP3    H122902   1.483   5.477   4.272
 7653TIP3    H222903   1.591   5.558   4.202
 7654TIP3   OH222904   0.400   0.587   0.768
 7654TIP3    H122905   0.475   0.535   0.796
 7654TIP3    H222906   0.341   0.524   0.726
 7655TIP3   OH222907   0.972   0.815   3.154
 7655TIP3    H122908   0.955   0.909   3.166
 7655TIP3    H222909   1.067   0.807   3.161
 7656TIP3   OH222910   7.806   1.871   6.534
 7656TIP3    H122911   7.718   1.892   6.502
 7656TIP3    H222912   7.862   1.882   6.458
 7657TIP3   OH222913   6.917   7.444   6.168
 7657TIP3    H122914   6.991   7.412   6.115
 7657TIP3    H222915   6.866   7.498   6.107
 7658TIP3   OH222916   0.351   1.469   3.674
 7658TIP3    H122917   0.332   1.545   3.730
 7658TIP3    H222918   0.445   1.475   3.657
 7659TIP3   OH222919   2.240   1.765   6.136
 7659TIP3    H122920   2.269   1.817   6.061
 7659TIP3    H222921   2.204   1.829   6.197
 7660TIP3   OH222922   5.235   5.422   6.029
 7660TIP3    H122923   5.181   5.343   6.025
 7660TIP3    H222924   5.318   5.393   6.066
 7661TIP3   OH222925   0.727   2.600   1.116
 7661TIP3    H122926   0.821   2.585   1.111
 7661TIP3    H222927   0.688   2.520   1.081
 7662TIP3   OH222928   5.155   5.197   4.549
 7662TIP3    H122929   5.149   5.105   4.522
 7662TIP3    H222930   5.224   5.233   4.494
 7663TIP3   OH222931   2.345   6.269   1.862
 7663TIP3    H122932   2.318   6.361   1.851
 7663TIP3    H222933   2.269   6.227   1.903
 7664TIP3   OH222934   3.449   2.576   6.450
 7664TIP3    H122935   3.387   2.521   6.403
 7664TIP3    H222936   3.487   2.633   6.383
 7665TIP3   OH222937   7.652   0.354   6.654
 7665TIP3    H122938   7.625   0.262   6.646
 7665TIP3    H222939   7.645   0.373   6.748
 7666TIP3   OH222940   2.264   7.674   0.408
 7666TIP3    H122941   2.265   7.601   0.346
 7666TIP3    H222942   2.352   7.675   0.446
 7667TIP3   OH222943   1.139   6.971   2.526
 7667TIP3    H122944   1.114   6.887   2.487
 7667TIP3    H222945   1.231   6.960   2.550
 7668TIP3   OH222946   0.396   0.574   2.694
 7668TIP3    H122947   0.451   0.496   2.697
 7668TIP3    H222948   0.317   0.549   2.742
 7669TIP3   OH222949   6.799   1.401   2.352
 7669TIP3    H122950   6.711   1.435   2.333
 7669TIP3    H222951   6.841   1.471   2.403
 7670TIP3   OH222952   1.335   1.718   4.002
 7670TIP3    H122953   1.334   1.782   4.073
 7670TIP3    H222954   1.340   1.771   3.922
 7671TIP3   OH222955   2.629   1.772   3.148
 7671TIP3    H122956   2.712   1.743   3.184
 7671TIP3    H222957   2.570   1.697   3.158
 7672TIP3   OH222958   1.879   5.553   2.015
 7672TIP3    H122959   1.943   5.544   2.086
 7672TIP3    H222960   1.796   5.571   2.060
 7673TIP3   OH222961   3.594   1.779   5.138
 7673TIP3    H122962   3.520   1.831   5.171
 7673TIP3    H222963   3.670   1.813   5.185
 7674TIP3   OH222964   0.498   5.343   4.427
 7674TIP3    H122965   0.530   5.253   4.421
 7674TIP3    H222966   0.430   5.339   4.495
 7675TIP3   OH222967   7.360   3.634   4.873
 7675TIP3    H122968   7.365   3.656   4.780
 7675TIP3    H222969   7.450   3.611   4.897
 7676TIP3   OH222970   8.146   6.843   1.688
 7676TIP3    H122971   8.227   6.890   1.667
 7676TIP3    H222972   8.092   6.908   1.734
 7677TIP3   OH222973   2.724   3.868   0.223
 7677TIP3    H122974   2.687   3.786   0.255
 7677TIP3    H222975   2.690   3.935   0.282
 7678TIP3   OH222976   1.305   5.061   4.624
 7678TIP3    H122977   1.285   5.153   4.605
 7678TIP3    H222978   1.243   5.036   4.692
 7679TIP3   OH222979   5.542   6.120   0.620
 7679TIP3    H122980   5.534   6.173   0.541
 7679TIP3    H222981   5.505   6.174   0.690
 7680TIP3   OH222982   1.629   6.288   2.351
 7680TIP3    H122983   1.697   6.223   2.336
 7680TIP3    H222984   1.674   6.361   2.394
 7681TIP3   OH222985   0.390   3.568   6.232
 7681TIP3    H122986   0.342   3.640   6.272
 7681TIP3    H222987   0.341   3.547   6.153
 7682TIP3   OH222988   0.235   4.650   3.977
 7682TIP3    H122989   0.144   4.673   3.957
 7682TIP3    H222990   0.287   4.717   3.932
 7683TIP3   OH222991   2.664   4.644   0.749
 7683TIP3    H122992   2.680   4.735   0.775
 7683TIP3    H222993   2.594   4.651   0.683
 7684TIP3   OH222994   4.341   6.739   5.841
 7684TIP3    H122995   4.373   6.649   5.838
 7684TIP3    H222996   4.419   6.793   5.830
 7685TIP3   OH222997   5.549   4.309   3.408
 7685TIP3    H122998   5.480   4.374   3.422
 7685TIP3    H222999   5.517   4.231   3.452
 7686TIP3   OH223000   2.717   0.783   6.742
 7686TIP3    H123001   2.686   0.707   6.792
 7686TIP3    H223002   2.742   0.847   6.808
 7687TIP3   OH223003   4.973   6.149   6.622
 7687TIP3    H123004   4.939   6.197   6.697
 7687TIP3    H223005   5.066   6.135   6.643
 7688TIP3   OH223006   3.969   5.011   3.305
 7688TIP3    H123007   3.894   5.012   3.365
 7688TIP3    H223008   4.045   5.020   3.362
 7689TIP3   OH223009   0.241   2.346   1.778
 7689TIP3    H123010   0.249   2.407   1.851
 7689TIP3    H223011   0.158   2.368   1.736
 7690TIP3   OH223012   6.221   5.700   3.434
 7690TIP3    H123013   6.161   5.714   3.360
 7690TIP3    H223014   6.308   5.713   3.398
 7691TIP3   OH223015   7.410   3.352   3.255
 7691TIP3    H123016   7.407   3.338   3.350
 7691TIP3    H223017   7.386   3.267   3.218
 7692TIP3   OH223018   1.403   5.834   5.153
 7692TIP3    H123019   1.444   5.907   5.199
 7692TIP3    H223020   1.356   5.786   5.221
 7693TIP3   OH223021   4.929   3.409   3.276
 7693TIP3    H123022   4.970   3.340   3.225
 7693TIP3    H223023   4.842   3.421   3.237
 7694TIP3   OH223024   3.133   3.369   0.203
 7694TIP3    H123025   3.183   3.340   0.279
 7694TIP3    H223026   3.057   3.311   0.200
 7695TIP3   OH223027   5.834   7.094   4.590
 7695TIP3    H123028   5.832   7.164   4.655
 7695TIP3    H223029   5.819   7.014   4.640
 7696TIP3   OH223030   7.259   5.024   2.348
 7696TIP3    H123031   7.214   5.107   2.367
 7696TIP3    H223032   7.352   5.043   2.360
 7697TIP3   OH223033   6.017   3.993   6.226
 7697TIP3    H123034   6.059   4.031   6.304
 7697TIP3    H223035   6.078   3.926   6.196
 7698TIP3   OH223036   2.303   6.747   4.279
 7698TIP3    H123037   2.378   6.692   4.302
 7698TIP3    H223038   2.342   6.828   4.246
 7699TIP3   OH223039   6.775   6.033   6.112
 7699TIP3    H123040   6.818   5.966   6.165
 7699TIP3    H223041   6.760   6.106   6.172
 7700TIP3   OH223042   7.367   3.139   4.225
 7700TIP3    H123043   7.309   3.195   4.276
 7700TIP3    H223044   7.448   3.134   4.276
 7701TIP3   OH223045   3.334   4.622   1.427
 7701TIP3    H123046   3.308   4.675   1.503
 7701TIP3    H223047   3.429   4.622   1.429
 7702TIP3   OH223048   7.581   5.895   3.161
 7702TIP3    H123049   7.663   5.846   3.156
 7702TIP3    H223050   7.513   5.829   3.146
 7703TIP3   OH223051   7.197   0.465   0.047
 7703TIP3    H123052   7.102   0.463   0.063
 7703TIP3    H223053   7.229   0.533   0.106
 7704TIP3   OH223054   5.105   4.834   0.762
 7704TIP3    H123055   5.144   4.747   0.754
 7704TIP3    H223056   5.175   4.888   0.800
 7705TIP3   OH223057   6.439   4.110   4.022
 7705TIP3    H123058   6.389   4.093   4.102
 7705TIP3    H223059   6.512   4.164   4.050
 7706TIP3   OH223060   7.386   4.332   5.076
 7706TIP3    H123061   7.396   4.285   4.994
 7706TIP3    H223062   7.446   4.289   5.136
 7707TIP3   OH223063   2.269   4.884   0.716
 7707TIP3    H123064   2.282   4.942   0.641
 7707TIP3    H223065   2.225   4.938   0.782
 7708TIP3   OH223066   2.719   6.348   5.965
 7708TIP3    H123067   2.695   6.398   5.887
 7708TIP3    H223068   2.766   6.272   5.931
 7709TIP3   OH223069   4.617   6.223   5.019
 7709TIP3    H123070   4.659   6.137   5.018
 7709TIP3    H223071   4.662   6.273   4.951
 7710TIP3   OH223072   2.730   0.857   4.939
 7710TIP3    H123073   2.792   0.926   4.916
 7710TIP3    H223074   2.652   0.876   4.886
 7711TIP3   OH223075   7.654   7.766   2.131
 7711TIP3    H123076   7.559   7.764   2.137
 7711TIP3    H223077   7.679   7.850   2.168
 7712TIP3   OH223078   7.301   0.204   2.161
 7712TIP3    H123079   7.264   0.220   2.075
 7712TIP3    H223080   7.388   0.243   2.158
 7713TIP3   OH223081   4.799   6.450   3.041
 7713TIP3    H123082   4.813   6.355   3.037
 7713TIP3    H223083   4.857   6.486   2.974
 7714TIP3   OH223084   1.405   2.950   6.025
 7714TIP3    H123085   1.474   2.902   6.072
 7714TIP3    H223086   1.404   3.037   6.066
 7715TIP3   OH223087   3.182   0.067   5.163
 7715TIP3    H123088   3.094   0.062   5.127
 7715TIP3    H223089   3.238   0.089   5.088
 7716TIP3   OH223090   2.564   5.653   6.647
 7716TIP3    H123091   2.487   5.709   6.643
 7716TIP3    H223092   2.581   5.642   6.740
 7717TIP3   OH223093   4.653   6.424   1.820
 7717TIP3    H123094   4.674   6.336   1.850
 7717TIP3    H223095   4.557   6.430   1.829
 7718TIP3   OH223096   8.237   5.722   0.387
 7718TIP3    H123097   8.227   5.756   0.298
 7718TIP3    H223098   8.195   5.786   0.443
 7719TIP3   OH223099   2.895   7.242   2.744
 7719TIP3    H123100   2.885   7.199   2.829
 7719TIP3    H223101   2.968   7.197   2.702
 7720TIP3   OH223102   8.146   3.205   0.082
 7720TIP3    H123103   8.100   3.282   0.048
 7720TIP3    H223104   8.078   3.154   0.126
 7721TIP3   OH223105   4.506   6.842   1.877
 7721TIP3    H123106   4.559   6.847   1.798
 7721TIP3    H223107   4.570   6.838   1.948
 7722TIP3   OH223108   3.893   3.642   6.653
 7722TIP3    H123109   3.834   3.625   6.579
 7722TIP3    H223110   3.845   3.704   6.707
 7723TIP3   OH223111   8.238   3.052   2.812
 7723TIP3    H123112   8.296   3.101   2.754
 7723TIP3    H223113   8.231   2.965   2.772
 7724TIP3   OH223114   3.604   3.413   4.728
 7724TIP3    H123115   3.640   3.423   4.816
 7724TIP3    H223116   3.679   3.386   4.675
 7725TIP3   OH223117   7.493   2.845   6.533
 7725TIP3    H123118   7.508   2.938   6.547
 7725TIP3    H223119   7.568   2.816   6.481
 7726TIP3   OH223120   6.776   1.894   4.899
 7726TIP3    H123121   6.800   1.843   4.976
 7726TIP3    H223122   6.708   1.954   4.929
 7727TIP3   OH223123   3.897   1.465   2.900
 7727TIP3    H123124   3.913   1.416   2.981
 7727TIP3    H223125   3.841   1.538   2.927
 7728TIP3   OH223126   5.301   6.914   1.247
 7728TIP3    H123127   5.384   6.903   1.201
 7728TIP3    H223128   5.248   6.968   1.188
 7729TIP3   OH223129   6.300   1.555   6.522
 7729TIP3    H123130   6.256   1.619   6.578
 7729TIP3    H223131   6.361   1.607   6.470
 7730TIP3   OH223132   6.093   1.705   2.010
 7730TIP3    H123133   6.109   1.791   1.970
 7730TIP3    H223134   6.117   1.642   1.942
 7731TIP3   OH223135   0.496   4.696   2.306
 7731TIP3    H123136   0.587   4.720   2.288
 7731TIP3    H223137   0.470   4.643   2.230
 7732TIP3   OH223138   0.810   3.269   3.185
 7732TIP3    H123139   0.844   3.322   3.113
 7732TIP3    H223140   0.768   3.331   3.244
 7733TIP3   OH223141   1.529   3.542   3.559
 7733TIP3    H123142   1.474   3.508   3.488
 7733TIP3    H223143   1.526   3.637   3.547
 7734TIP3   OH223144   6.351   5.831   3.064
 7734TIP3    H123145   6.351   5.840   3.159
 7734TIP3    H223146   6.431   5.782   3.044
 7735TIP3   OH223147   7.479   4.170   5.875
 7735TIP3    H123148   7.455   4.078   5.891
 7735TIP3    H223149   7.514   4.170   5.786
 7736TIP3   OH223150   6.281   0.803   2.420
 7736TIP3    H123151   6.364   0.800   2.467
 7736TIP3    H223152   6.220   0.755   2.476
 7737TIP3   OH223153   5.542   2.440   4.394
 7737TIP3    H123154   5.499   2.368   4.440
 7737TIP3    H223155   5.524   2.518   4.447
 7738TIP3   OH223156   6.528   6.290   3.707
 7738TIP3    H123157   6.594   6.285   3.776
 7738TIP3    H223158   6.451   6.245   3.743
 7739TIP3   OH223159   6.537   7.368   5.809
 7739TIP3    H123160   6.565   7.335   5.724
 7739TIP3    H223161   6.442   7.354   5.811
 7740TIP3   OH223162   0.880   4.373   1.307
 7740TIP3    H123163   0.852   4.442   1.248
 7740TIP3    H223164   0.921   4.307   1.251
 7741TIP3   OH223165   7.320   3.553   1.683
 7741TIP3    H123166   7.304   3.559   1.777
 7741TIP3    H223167   7.285   3.635   1.648
 7742TIP3   OH223168   0.432   2.641   2.872
 7742TIP3    H123169   0.426   2.661   2.778
 7742TIP3    H223170   0.498   2.702   2.905
 7743TIP3   OH223171   4.958   1.402   4.905
 7743TIP3    H123172   5.047   1.400   4.869
 7743TIP3    H223173   4.929   1.310   4.903
 7744TIP3   OH223174   0.809   5.028   1.471
 7744TIP3    H123175   0.739   5.018   1.536
 7744TIP3    H223176   0.810   4.945   1.425
 7745TIP3   OH223177   4.465   0.843   3.522
 7745TIP3    H123178   4.396   0.784   3.493
 7745TIP3    H223179   4.535   0.786   3.555
 7746TIP3   OH223180   0.181   7.594   2.063
 7746TIP3    H123181   0.092   7.628   2.074
 7746TIP3    H223182   0.236   7.657   2.110
 7747TIP3   OH223183   0.525   6.261   1.643
 7747TIP3    H123184   0.582   6.184   1.645
 7747TIP3    H223185   0.576   6.330   1.685
 7748TIP3   OH223186   3.973   0.856   6.183
 7748TIP3    H123187   3.979   0.779   6.239
 7748TIP3    H223188   4.054   0.856   6.133
 7749TIP3   OH223189   2.778   5.736   4.978
 7749TIP3    H123190   2.858   5.714   5.025
 7749TIP3    H223191   2.736   5.804   5.032
 7750TIP3   OH223192   0.416   1.815   2.054
 7750TIP3    H123193   0.413   1.846   2.145
 7750TIP3    H223194   0.324   1.799   2.032
 7751TIP3   OH223195   7.795   0.000   2.154
 7751TIP3    H123196   7.802   0.025   2.062
 7751TIP3    H223197   7.862   0.053   2.198
 7752TIP3   OH223198   2.102   1.365   5.403
 7752TIP3    H123199   2.051   1.402   5.475
 7752TIP3    H223200   2.046   1.297   5.366
 7753TIP3   OH223201   5.814   3.935   4.327
 7753TIP3    H123202   5.743   3.992   4.297
 7753TIP3    H223203   5.774   3.881   4.395
 7754TIP3   OH223204   5.094   3.120   3.570
 7754TIP3    H123205   5.042   3.105   3.649
 7754TIP3    H223206   5.144   3.039   3.558
 7755TIP3   OH223207   4.766   4.249   4.489
 7755TIP3    H123208   4.774   4.237   4.583
 7755TIP3    H223209   4.822   4.325   4.469
 7756TIP3   OH223210   4.850   5.807   2.510
 7756TIP3    H123211   4.781   5.864   2.543
 7756TIP3    H223212   4.817   5.719   2.523
 7757TIP3   OH223213   5.118   1.554   4.350
 7757TIP3    H123214   5.053   1.610   4.310
 7757TIP3    H223215   5.195   1.610   4.361
 7758TIP3   OH223216   4.363   3.775   1.295
 7758TIP3    H123217   4.447   3.822   1.299
 7758TIP3    H223218   4.361   3.723   1.375
 7759TIP3   OH223219   7.280   1.532   5.437
 7759TIP3    H123220   7.356   1.580   5.469
 7759TIP3    H223221   7.316   1.453   5.396
 7760TIP3   OH223222   3.145   6.568   2.546
 7760TIP3    H123223   3.145   6.628   2.472
 7760TIP3    H223224   3.081   6.604   2.607
 7761TIP3   OH223225   2.197   1.430   0.820
 7761TIP3    H123226   2.287   1.397   0.825
 7761TIP3    H223227   2.183   1.474   0.904
 7762TIP3   OH223228   4.581   6.172   5.683
 7762TIP3    H123229   4.599   6.102   5.746
 7762TIP3    H223230   4.650   6.237   5.700
 7763TIP3   OH223231   6.430   3.748   0.095
 7763TIP3    H123232   6.481   3.779   0.019
 7763TIP3    H223233   6.345   3.789   0.085
 7764TIP3   OH223234   0.972   0.908   5.753
 7764TIP3    H123235   1.033   0.921   5.681
 7764TIP3    H223236   0.991   0.980   5.814
 7765TIP3   OH223237   2.395   7.621   4.617
 7765TIP3    H123238   2.359   7.558   4.554
 7765TIP3    H223239   2.490   7.613   4.607
 7766TIP3   OH223240   7.065   3.695   0.409
 7766TIP3    H123241   7.073   3.621   0.469
 7766TIP3    H223242   7.001   3.753   0.450
 7767TIP3   OH223243   4.488   4.697   0.221
 7767TIP3    H123244   4.488   4.758   0.147
 7767TIP3    H223245   4.398   4.699   0.254
 7768TIP3   OH223246   5.233   1.687   1.037
 7768TIP3    H123247   5.143   1.719   1.046
 7768TIP3    H223248   5.288   1.758   1.069
 7769TIP3   OH223249   1.196   4.087   3.748
 7769TIP3    H123250   1.163   4.174   3.728
 7769TIP3    H223251   1.291   4.094   3.734
 7770TIP3   OH223252   3.592   7.273   0.729
 7770TIP3    H123253   3.635   7.306   0.651
 7770TIP3    H223254   3.612   7.338   0.797
 7771TIP3   OH223255   1.376   7.298   4.072
 7771TIP3    H123256   1.437   7.370   4.058
 7771TIP3    H223257   1.356   7.300   4.165
 7772TIP3   OH223258   0.899   5.255   3.383
 7772TIP3    H123259   0.872   5.244   3.292
 7772TIP3    H223260   0.947   5.338   3.384
 7773TIP3   OH223261   7.091   1.706   5.634
 7773TIP3    H123262   7.051   1.769   5.574
 7773TIP3    H223263   7.033   1.630   5.631
 7774TIP3   OH223264   4.651   7.014   3.873
 7774TIP3    H123265   4.730   7.039   3.825
 7774TIP3    H223266   4.664   6.922   3.895
 7775TIP3   OH223267   6.799   2.072   4.029
 7775TIP3    H123268   6.879   2.020   4.032
 7775TIP3    H223269   6.769   2.073   4.120
 7776TIP3   OH223270   7.739   1.837   0.120
 7776TIP3    H123271   7.733   1.876   0.207
 7776TIP3    H223272   7.760   1.746   0.136
 7777TIP3   OH223273   5.174   2.427   2.894
 7777TIP3    H123274   5.221   2.364   2.839
 7777TIP3    H223275   5.107   2.374   2.938
 7778TIP3   OH223276   2.828   7.471   4.319
 7778TIP3    H123277   2.743   7.469   4.274
 7778TIP3    H223278   2.829   7.556   4.363
 7779TIP3   OH223279   6.127   2.118   2.609
 7779TIP3    H123280   6.196   2.135   2.545
 7779TIP3    H223281   6.114   2.023   2.605
 7780TIP3   OH223282   1.696   3.380   3.253
 7780TIP3    H123283   1.602   3.369   3.267
 7780TIP3    H223284   1.735   3.302   3.293
 7781TIP3   OH223285   7.493   5.403   3.374
 7781TIP3    H123286   7.576   5.413   3.422
 7781TIP3    H223287   7.475   5.309   3.377
 7782TIP3   OH223288   1.779   6.642   0.826
 7782TIP3    H123289   1.802   6.564   0.775
 7782TIP3    H223290   1.814   6.715   0.775
 7783TIP3   OH223291   0.450   2.329   2.636
 7783TIP3    H123292   0.467   2.319   2.730
 7783TIP3    H223293   0.434   2.422   2.624
 7784TIP3   OH223294   2.571   5.219   1.181
 7784TIP3    H123295   2.604   5.262   1.259
 7784TIP3    H223296   2.543   5.290   1.124
 7785TIP3   OH223297   7.456   4.653   1.602
 7785TIP3    H123298   7.391   4.637   1.670
 7785TIP3    H223299   7.521   4.711   1.643
 7786TIP3   OH223300   3.444   3.429   3.305
 7786TIP3    H123301   3.503   3.354   3.311
 7786TIP3    H223302   3.369   3.405   3.359
 7787TIP3   OH223303   7.899   2.072   2.617
 7787TIP3    H123304   7.981   2.109   2.583
 7787TIP3    H223305   7.847   2.054   2.538
 7788TIP3   OH223306   5.437   3.674   1.893
 7788TIP3    H123307   5.493   3.744   1.926
 7788TIP3    H223308   5.488   3.594   1.907
 7789TIP3   OH223309   4.430   5.328   6.674
 7789TIP3    H123310   4.391   5.370   6.598
 7789TIP3    H223311   4.465   5.245   6.640
 7790TIP3   OH223312   0.130   5.563   3.735
 7790TIP3    H123313   0.062   5.568   3.802
 7790TIP3    H223314   0.089   5.514   3.663
 7791TIP3   OH223315   1.395   6.385   2.513
 7791TIP3    H123316   1.470   6.435   2.543
 7791TIP3    H223317   1.431   6.322   2.451
 7792TIP3   OH223318   2.749   2.966   1.405
 7792TIP3    H123319   2.710   3.047   1.371
 7792TIP3    H223320   2.834   2.960   1.361
 7793TIP3   OH223321   1.798   7.597   1.009
 7793TIP3    H123322   1.762   7.577   1.096
 7793TIP3    H223323   1.780   7.518   0.957
 7794TIP3   OH223324   7.567   6.918   0.781
 7794TIP3    H123325   7.594   6.877   0.863
 7794TIP3    H223326   7.500   6.861   0.746
 7795TIP3   OH223327   0.397   3.881   4.877
 7795TIP3    H123328   0.379   3.963   4.921
 7795TIP3    H223329   0.312   3.850   4.845
 7796TIP3   OH223330   0.929   4.792   6.898
 7796TIP3    H123331   1.011   4.745   6.879
 7796TIP3    H223332   0.900   4.823   6.812
 7797TIP3   OH223333   6.614   3.181   1.384
 7797TIP3    H123334   6.683   3.164   1.449
 7797TIP3    H223335   6.662   3.207   1.306
 7798TIP3   OH223336   0.329   7.297   0.980
 7798TIP3    H123337   0.338   7.223   0.920
 7798TIP3    H223338   0.235   7.302   0.998
 7799TIP3   OH223339   6.599   7.377   4.385
 7799TIP3    H123340   6.509   7.368   4.353
 7799TIP3    H223341   6.650   7.318   4.331
 7800TIP3   OH223342   5.355   1.852   6.288
 7800TIP3    H123343   5.316   1.847   6.201
 7800TIP3    H223344   5.302   1.792   6.341
 7801TIP3   OH223345   8.194   1.118   3.826
 7801TIP3    H123346   8.181   1.213   3.825
 7801TIP3    H223347   8.281   1.105   3.789
 7802TIP3   OH223348   3.331   4.177   3.443
 7802TIP3    H123349   3.426   4.187   3.443
 7802TIP3    H223350   3.312   4.123   3.366
 7803TIP3   OH223351   1.819   6.097   1.992
 7803TIP3    H123352   1.783   6.053   1.915
 7803TIP3    H223353   1.751   6.159   2.019
 7804TIP3   OH223354   6.949   2.758   5.872
 7804TIP3    H123355   7.018   2.818   5.845
 7804TIP3    H223356   6.952   2.688   5.807
 7805TIP3   OH223357   2.887   4.020   6.413
 7805TIP3    H123358   2.803   3.996   6.373
 7805TIP3    H223359   2.903   4.109   6.382
 7806TIP3   OH223360   6.984   3.041   1.337
 7806TIP3    H123361   6.971   2.946   1.345
 7806TIP3    H223362   6.923   3.078   1.400
 7807TIP3   OH223363   4.174   5.622   2.959
 7807TIP3    H123364   4.147   5.644   3.048
 7807TIP3    H223365   4.168   5.527   2.955
 7808TIP3   OH223366   3.862   4.614   1.814
 7808TIP3    H123367   3.944   4.564   1.822
 7808TIP3    H223368   3.793   4.548   1.814
 7809TIP3   OH223369   4.892   4.672   4.800
 7809TIP3    H123370   4.929   4.596   4.845
 7809TIP3    H223371   4.849   4.635   4.723
 7810TIP3   OH223372   7.762   1.858   0.388
 7810TIP3    H123373   7.843   1.909   0.379
 7810TIP3    H223374   7.694   1.924   0.407
 7811TIP3   OH223375   0.387   0.719   6.174
 7811TIP3    H123376   0.362   0.715   6.267
 7811TIP3    H223377   0.362   0.808   6.147
 7812TIP3   OH223378   3.486   7.086   1.405
 7812TIP3    H123379   3.487   7.179   1.383
 7812TIP3    H223380   3.408   7.053   1.361
 7813TIP3   OH223381   1.902   6.625   2.858
 7813TIP3    H123382   1.983   6.593   2.819
 7813TIP3    H223383   1.898   6.584   2.944
 7814TIP3   OH223384   7.381   1.614   4.701
 7814TIP3    H123385   7.301   1.623   4.753
 7814TIP3    H223386   7.403   1.521   4.708
 7815TIP3   OH223387   3.767   0.479   5.111
 7815TIP3    H123388   3.818   0.551   5.149
 7815TIP3    H223389   3.802   0.468   5.023
 7816TIP3   OH223390   1.883   5.974   1.528
 7816TIP3    H123391   1.834   5.995   1.608
 7816TIP3    H223392   1.862   6.046   1.468
 7817TIP3   OH223393   2.017   7.680   2.001
 7817TIP3    H123394   2.069   7.728   1.936
 7817TIP3    H223395   1.972   7.613   1.951
 7818TIP3   OH223396   7.790   4.764   0.484
 7818TIP3    H123397   7.721   4.778   0.420
 7818TIP3    H223398   7.748   4.779   0.569
 7819TIP3   OH223399   5.958   6.836   6.338
 7819TIP3    H123400   5.986   6.745   6.332
 7819TIP3    H223401   5.871   6.832   6.377
 7820TIP3   OH223402   1.526   0.845   4.888
 7820TIP3    H123403   1.456   0.780   4.897
 7820TIP3    H223404   1.585   0.808   4.821
 7821TIP3   OH223405   2.761   7.569   4.009
 7821TIP3    H123406   2.803   7.585   3.924
 7821TIP3    H223407   2.832   7.575   4.072
 7822TIP3   OH223408   5.095   4.929   4.520
 7822TIP3    H123409   5.032   4.907   4.452
 7822TIP3    H223410   5.180   4.928   4.475
 7823TIP3   OH223411   3.739   7.525   2.499
 7823TIP3    H123412   3.695   7.440   2.496
 7823TIP3    H223413   3.735   7.551   2.592
 7824TIP3   OH223414   2.278   2.845   4.950
 7824TIP3    H123415   2.285   2.904   5.025
 7824TIP3    H223416   2.185   2.844   4.928
 7825TIP3   OH223417   3.525   3.217   3.821
 7825TIP3    H123418   3.483   3.136   3.790
 7825TIP3    H223419   3.585   3.241   3.750
 7826TIP3   OH223420   6.937   1.959   6.497
 7826TIP3    H123421   7.007   1.995   6.552
 7826TIP3    H223422   6.958   1.990   6.409
 7827TIP3   OH223423   7.243   5.190   1.756
 7827TIP3    H123424   7.274   5.272   1.795
 7827TIP3    H223425   7.295   5.180   1.677
 7828TIP3   OH223426   3.182   1.372   5.690
 7828TIP3    H123427   3.154   1.359   5.781
 7828TIP3    H223428   3.181   1.285   5.651
 7829TIP3   OH223429   6.180   4.993   0.161
 7829TIP3    H123430   6.113   4.972   0.096
 7829TIP3    H223431   6.166   5.086   0.180
 7830TIP3   OH223432   7.006   3.586   0.688
 7830TIP3    H123433   6.935   3.545   0.640
 7830TIP3    H223434   7.006   3.543   0.774
 7831TIP3   OH223435   7.690   7.709   6.406
 7831TIP3    H123436   7.682   7.636   6.467
 7831TIP3    H223437   7.718   7.669   6.324
 7832TIP3   OH223438   7.654   5.576   3.621
 7832TIP3    H123439   7.727   5.625   3.659
 7832TIP3    H223440   7.695   5.502   3.578
 7833TIP3   OH223441   3.831   7.648   3.951
 7833TIP3    H123442   3.896   7.617   4.014
 7833TIP3    H223443   3.861   7.735   3.925
 7834TIP3   OH223444   5.073   0.553   2.254
 7834TIP3    H123445   5.028   0.489   2.200
 7834TIP3    H223446   5.004   0.598   2.302
 7835TIP3   OH223447   3.846   4.413   6.718
 7835TIP3    H123448   3.881   4.336   6.763
 7835TIP3    H223449   3.819   4.381   6.632
 7836TIP3   OH223450   6.598   2.826   2.277
 7836TIP3    H123451   6.510   2.862   2.286
 7836TIP3    H223452   6.651   2.901   2.247
 7837TIP3   OH223453   2.058   7.114   3.929
 7837TIP3    H123454   2.069   7.180   3.861
 7837TIP3    H223455   2.142   7.111   3.975
 7838TIP3   OH223456   3.245   3.098   4.136
 7838TIP3    H123457   3.272   3.161   4.069
 7838TIP3    H223458   3.213   3.022   4.087
 7839TIP3   OH223459   3.319   5.276   1.635
 7839TIP3    H123460   3.311   5.217   1.710
 7839TIP3    H223461   3.368   5.226   1.570
 7840TIP3   OH223462   2.614   7.583   1.963
 7840TIP3    H123463   2.708   7.573   1.951
 7840TIP3    H223464   2.592   7.662   1.913
 7841TIP3   OH223465   3.236   2.923   5.392
 7841TIP3    H123466   3.195   2.884   5.315
 7841TIP3    H223467   3.192   3.007   5.404
 7842TIP3   OH223468   5.487   5.940   2.578
 7842TIP3    H123469   5.462   5.851   2.599
 7842TIP3    H223470   5.406   5.991   2.585
 7843TIP3   OH223471   5.811   4.269   4.888
 7843TIP3    H123472   5.878   4.218   4.933
 7843TIP3    H223473   5.814   4.240   4.797
 7844TIP3   OH223474   0.171   7.529   3.138
 7844TIP3    H123475   0.261   7.498   3.133
 7844TIP3    H223476   0.169   7.584   3.217
 7845TIP3   OH223477   6.602   3.910   6.025
 7845TIP3    H123478   6.517   3.951   6.040
 7845TIP3    H223479   6.639   3.958   5.951
 7846TIP3   OH223480   3.465   5.295   2.052
 7846TIP3    H123481   3.403   5.237   2.007
 7846TIP3    H223482   3.414   5.375   2.069
 7847TIP3   OH223483   2.073   4.845   0.249
 7847TIP3    H123484   2.031   4.928   0.270
 7847TIP3    H223485   2.153   4.843   0.301
 7848TIP3   OH223486   3.853   4.697   0.902
 7848TIP3    H123487   3.808   4.769   0.946
 7848TIP3    H223488   3.946   4.715   0.915
 7849TIP3   OH223489   7.595   5.498   2.319
 7849TIP3    H123490   7.581   5.593   2.322
 7849TIP3    H223491   7.661   5.481   2.387
 7850TIP3   OH223492   4.247   2.387   2.845
 7850TIP3    H123493   4.234   2.469   2.796
 7850TIP3    H223494   4.306   2.335   2.790
 7851TIP3   OH223495   7.409   2.457   5.302
 7851TIP3    H123496   7.452   2.372   5.291
 7851TIP3    H223497   7.316   2.435   5.311
 7852TIP3   OH223498   2.950   6.591   2.024
 7852TIP3    H123499   2.979   6.500   2.032
 7852TIP3    H223500   2.857   6.584   2.003
 7853TIP3   OH223501   1.380   4.462   6.080
 7853TIP3    H123502   1.412   4.548   6.052
 7853TIP3    H223503   1.306   4.443   6.022
 7854TIP3   OH223504   6.890   5.750   2.430
 7854TIP3    H123505   6.824   5.788   2.489
 7854TIP3    H223506   6.842   5.731   2.349
 7855TIP3   OH223507   6.352   3.185   0.792
 7855TIP3    H123508   6.351   3.098   0.752
 7855TIP3    H223509   6.405   3.238   0.734
 7856TIP3   OH223510   3.856   4.935   6.414
 7856TIP3    H123511   3.891   4.856   6.373
 7856TIP3    H223512   3.933   4.986   6.438
 7857TIP3   OH223513   3.171   4.227   4.439
 7857TIP3    H123514   3.189   4.248   4.530
 7857TIP3    H223515   3.256   4.202   4.403
 7858TIP3   OH223516   0.378   4.716   0.473
 7858TIP3    H123517   0.287   4.735   0.448
 7858TIP3    H223518   0.370   4.674   0.559
 7859TIP3   OH223519   1.066   6.550   1.304
 7859TIP3    H123520   1.019   6.513   1.229
 7859TIP3    H223521   1.111   6.475   1.343
 7860TIP3   OH223522   5.605   3.310   6.331
 7860TIP3    H123523   5.588   3.402   6.352
 7860TIP3    H223524   5.638   3.273   6.413
 7861TIP3   OH223525   3.839   1.772   1.878
 7861TIP3    H123526   3.864   1.688   1.916
 7861TIP3    H223527   3.851   1.835   1.949
 7862TIP3   OH223528   5.237   3.688   5.370
 7862TIP3    H123529   5.184   3.653   5.299
 7862TIP3    H223530   5.293   3.615   5.396
 7863TIP3   OH223531   1.290   4.146   0.097
 7863TIP3    H123532   1.256   4.107   0.177
 7863TIP3    H223533   1.217   4.142   0.035
 7864TIP3   OH223534   7.306   7.576   1.018
 7864TIP3    H123535   7.230   7.587   0.962
 7864TIP3    H223536   7.274   7.527   1.094
 7865TIP3   OH223537   5.793   2.325   0.648
 7865TIP3    H123538   5.794   2.385   0.573
 7865TIP3    H223539   5.875   2.276   0.641
 7866TIP3   OH223540   6.473   5.588   5.592
 7866TIP3    H123541   6.409   5.533   5.545
 7866TIP3    H223542   6.555   5.576   5.543
 7867TIP3   OH223543   3.052   0.315   1.302
 7867TIP3    H123544   3.046   0.395   1.249
 7867TIP3    H223545   3.008   0.337   1.384
 7868TIP3   OH223546   2.996   4.956   5.930
 7868TIP3    H123547   2.969   4.943   5.839
 7868TIP3    H223548   2.931   4.909   5.981
 7869TIP3   OH223549   7.744   1.355   2.777
 7869TIP3    H123550   7.723   1.401   2.696
 7869TIP3    H223551   7.708   1.268   2.766
 7870TIP3   OH223552   1.987   7.629   2.928
 7870TIP3    H123553   2.070   7.675   2.944
 7870TIP3    H223554   1.976   7.574   3.006
 7871TIP3   OH223555   4.019   7.469   0.409
 7871TIP3    H123556   3.999   7.378   0.389
 7871TIP3    H223557   4.094   7.465   0.469
 7872TIP3   OH223558   7.780   2.780   1.535
 7872TIP3    H123559   7.828   2.742   1.609
 7872TIP3    H223560   7.843   2.782   1.464
 7873TIP3   OH223561   0.489   5.669   4.932
 7873TIP3    H123562   0.580   5.668   4.903
 7873TIP3    H223563   0.493   5.643   5.024
 7874TIP3   OH223564   1.954   5.579   6.167
 7874TIP3    H123565   1.942   5.632   6.088
 7874TIP3    H223566   2.038   5.607   6.203
 7875TIP3   OH223567   2.842   1.491   1.909
 7875TIP3    H123568   2.918   1.502   1.965
 7875TIP3    H223569   2.864   1.538   1.828
 7876TIP3   OH223570   1.009   3.247   0.148
 7876TIP3    H123571   0.999   3.152   0.140
 7876TIP3    H223572   0.921   3.282   0.139
 7877TIP3   OH223573   4.420   7.664   1.503
 7877TIP3    H123574   4.399   7.727   1.434
 7877TIP3    H223575   4.455   7.588   1.457
 7878TIP3   OH223576   0.209   7.473   4.926
 7878TIP3    H123577   0.296   7.489   4.961
 7878TIP3    H223578   0.220   7.404   4.861
 7879TIP3   OH223579   1.572   4.164   0.879
 7879TIP3    H123580   1.533   4.249   0.862
 7879TIP3    H223581   1.656   4.167   0.834
 7880TIP3   OH223582   4.324   0.163   2.778
 7880TIP3    H123583   4.231   0.141   2.774
 7880TIP3    H223584   4.366   0.084   2.811
 7881TIP3   OH223585   2.536   1.511   4.573
 7881TIP3    H123586   2.492   1.596   4.576
 7881TIP3    H223587   2.469   1.449   4.601
 7882TIP3   OH223588   0.430   3.562   1.782
 7882TIP3    H123589   0.462   3.529   1.698
 7882TIP3    H223590   0.502   3.617   1.814
 7883TIP3   OH223591   5.410   3.522   4.293
 7883TIP3    H123592   5.417   3.576   4.214
 7883TIP3    H223593   5.428   3.433   4.262
 7884TIP3   OH223594   7.269   5.129   0.857
 7884TIP3    H123595   7.345   5.097   0.808
 7884TIP3    H223596   7.261   5.067   0.930
 7885TIP3   OH223597   5.400   4.337   2.669
 7885TIP3    H123598   5.322   4.369   2.623
 7885TIP3    H223599   5.472   4.356   2.610
 7886TIP3   OH223600   5.094   2.632   3.204
 7886TIP3    H123601   5.033   2.623   3.278
 7886TIP3    H223602   5.166   2.572   3.225
 7887TIP3   OH223603   5.022   6.569   2.330
 7887TIP3    H123604   4.975   6.487   2.345
 7887TIP3    H223605   5.067   6.556   2.246
 7888TIP3   OH223606   1.878   3.102   1.074
 7888TIP3    H123607   1.818   3.105   1.148
 7888TIP3    H223608   1.936   3.028   1.093
 7889TIP3   OH223609   0.763   6.251   4.656
 7889TIP3    H123610   0.802   6.302   4.585
 7889TIP3    H223611   0.820   6.269   4.732
 7890TIP3   OH223612   6.044   7.670   4.653
 7890TIP3    H123613   6.026   7.612   4.580
 7890TIP3    H223614   6.139   7.682   4.652
 7891TIP3   OH223615   4.735   5.181   3.640
 7891TIP3    H123616   4.640   5.169   3.644
 7891TIP3    H223617   4.766   5.144   3.723
 7892TIP3   OH223618   5.758   3.707   3.017
 7892TIP3    H123619   5.746   3.728   2.924
 7892TIP3    H223620   5.697   3.766   3.063
 7893TIP3   OH223621   4.670   4.820   3.962
 7893TIP3    H123622   4.719   4.737   3.966
 7893TIP3    H223623   4.582   4.794   3.934
 7894TIP3   OH223624   3.882   0.137   2.098
 7894TIP3    H123625   3.962   0.102   2.137
 7894TIP3    H223626   3.853   0.205   2.159
 7895TIP3   OH223627   6.903   0.469   2.355
 7895TIP3    H123628   6.934   0.452   2.444
 7895TIP3    H223629   6.912   0.563   2.344
 7896TIP3   OH223630   6.131   6.257   5.144
 7896TIP3    H123631   6.056   6.260   5.203
 7896TIP3    H223632   6.125   6.171   5.102
 7897TIP3   OH223633   5.295   1.463   0.180
 7897TIP3    H123634   5.335   1.519   0.246
 7897TIP3    H223635   5.305   1.374   0.214
 7898TIP3   OH223636   2.269   5.060   6.456
 7898TIP3    H123637   2.301   5.085   6.543
 7898TIP3    H223638   2.174   5.077   6.460
 7899TIP3   OH223639   7.789   2.431   2.824
 7899TIP3    H123640   7.813   2.491   2.895
 7899TIP3    H223641   7.746   2.487   2.759
 7900TIP3   OH223642   0.611   5.122   0.298
 7900TIP3    H123643   0.615   5.027   0.281
 7900TIP3    H223644   0.554   5.130   0.375
 7901TIP3   OH223645   1.217   5.589   4.509
 7901TIP3    H123646   1.189   5.616   4.422
 7901TIP3    H223647   1.174   5.652   4.568
 7902TIP3   OH223648   0.219   6.359   0.519
 7902TIP3    H123649   0.215   6.265   0.506
 7902TIP3    H223650   0.185   6.374   0.607
 7903TIP3   OH223651   1.451   1.604   5.000
 7903TIP3    H123652   1.405   1.539   4.947
 7903TIP3    H223653   1.536   1.614   4.957
 7904TIP3   OH223654   7.655   7.640   2.538
 7904TIP3    H123655   7.684   7.643   2.629
 7904TIP3    H223656   7.579   7.582   2.538
 7905TIP3   OH223657   2.014   3.537   6.677
 7905TIP3    H123658   1.927   3.574   6.662
 7905TIP3    H223659   2.007   3.446   6.650
 7906TIP3   OH223660   6.371   0.880   1.370
 7906TIP3    H123661   6.290   0.861   1.321
 7906TIP3    H223662   6.388   0.799   1.419
 7907TIP3   OH223663   4.832   0.870   1.810
 7907TIP3    H123664   4.771   0.798   1.791
 7907TIP3    H223665   4.901   0.830   1.864
 7908TIP3   OH223666   5.793   7.488   5.441
 7908TIP3    H123667   5.820   7.569   5.485
 7908TIP3    H223668   5.746   7.517   5.363
 7909TIP3   OH223669   2.150   1.331   4.954
 7909TIP3    H123670   2.096   1.293   4.885
 7909TIP3    H223671   2.209   1.391   4.907
 7910TIP3   OH223672   2.042   5.486   3.005
 7910TIP3    H123673   2.081   5.410   2.962
 7910TIP3    H223674   2.017   5.544   2.934
 7911TIP3   OH223675   2.191   1.619   4.304
 7911TIP3    H123676   2.171   1.699   4.255
 7911TIP3    H223677   2.107   1.573   4.312
 7912TIP3   OH223678   1.644   4.445   4.505
 7912TIP3    H123679   1.653   4.517   4.567
 7912TIP3    H223680   1.733   4.429   4.474
 7913TIP3   OH223681   3.256   1.030   1.453
 7913TIP3    H123682   3.302   1.069   1.379
 7913TIP3    H223683   3.252   0.937   1.433
 7914TIP3   OH223684   3.870   2.442   4.527
 7914TIP3    H123685   3.840   2.355   4.555
 7914TIP3    H223686   3.798   2.476   4.474
 7915TIP3   OH223687   6.365   5.354   5.440
 7915TIP3    H123688   6.299   5.285   5.445
 7915TIP3    H223689   6.447   5.308   5.426
 7916TIP3   OH223690   1.466   5.510   4.539
 7916TIP3    H123691   1.371   5.524   4.537
 7916TIP3    H223692   1.499   5.553   4.460
 7917TIP3   OH223693   7.906   2.519   3.798
 7917TIP3    H123694   7.966   2.456   3.757
 7917TIP3    H223695   7.820   2.499   3.760
 7918TIP3   OH223696   6.829   5.866   2.682
 7918TIP3    H123697   6.917   5.890   2.653
 7918TIP3    H223698   6.811   5.925   2.755
 7919TIP3   OH223699   3.689   7.225   1.198
 7919TIP3    H123700   3.597   7.201   1.189
 7919TIP3    H223701   3.736   7.159   1.147
 7920TIP3   OH223702   2.623   2.740   0.134
 7920TIP3    H123703   2.556   2.705   0.076
 7920TIP3    H223704   2.583   2.816   0.175
 7921TIP3   OH223705   0.832   6.780   2.622
 7921TIP3    H123706   0.808   6.799   2.712
 7921TIP3    H223707   0.889   6.703   2.628
 7922TIP3   OH223708   1.869   1.018   4.788
 7922TIP3    H123709   1.943   0.958   4.777
 7922TIP3    H223710   1.900   1.101   4.751
 7923TIP3   OH223711   0.322   4.229   2.399
 7923TIP3    H123712   0.346   4.196   2.312
 7923TIP3    H223713   0.248   4.287   2.383
 7924TIP3   OH223714   5.886   0.040   4.394
 7924TIP3    H123715   5.840   0.123   4.381
 7924TIP3    H223716   5.964   0.063   4.444
 7925TIP3   OH223717   5.072   0.729   1.639
 7925TIP3    H123718   5.140   0.796   1.641
 7925TIP3    H223719   4.996   0.770   1.681
 7926TIP3   OH223720   7.640   2.265   4.960
 7926TIP3    H123721   7.689   2.346   4.975
 7926TIP3    H223722   7.673   2.233   4.876
 7927TIP3   OH223723   4.000   6.147   4.535
 7927TIP3    H123724   4.022   6.240   4.545
 7927TIP3    H223725   4.073   6.100   4.574
 7928TIP3   OH223726   7.838   4.953   2.178
 7928TIP3    H123727   7.742   4.959   2.176
 7928TIP3    H223728   7.868   5.042   2.162
 7929TIP3   OH223729   3.593   3.010   4.898
 7929TIP3    H123730   3.667   3.019   4.957
 7929TIP3    H223731   3.546   3.093   4.905
 7930TIP3   OH223732   5.385   5.690   2.940
 7930TIP3    H123733   5.325   5.615   2.942
 7930TIP3    H223734   5.416   5.698   3.030
 7931TIP3   OH223735   1.360   4.093   3.426
 7931TIP3    H123736   1.390   4.136   3.506
 7931TIP3    H223737   1.271   4.126   3.413
 7932TIP3   OH223738   6.969   1.735   1.783
 7932TIP3    H123739   7.031   1.731   1.710
 7932TIP3    H223740   7.011   1.793   1.847
 7933TIP3   OH223741   2.505   6.025   0.557
 7933TIP3    H123742   2.542   5.993   0.474
 7933TIP3    H223743   2.418   5.985   0.561
 7934TIP3   OH223744   1.682   1.829   4.763
 7934TIP3    H123745   1.746   1.849   4.695
 7934TIP3    H223746   1.597   1.850   4.724
 7935TIP3   OH223747   4.148   0.764   2.501
 7935TIP3    H123748   4.217   0.769   2.567
 7935TIP3    H223749   4.140   0.853   2.467
 7936TIP3   OH223750   7.457   0.774   0.162
 7936TIP3    H123751   7.549   0.755   0.180
 7936TIP3    H223752   7.459   0.849   0.101
 7937TIP3   OH223753   0.153   6.208   6.211
 7937TIP3    H123754   0.086   6.276   6.197
 7937TIP3    H223755   0.209   6.214   6.134
 7938TIP3   OH223756   3.410   4.162   1.343
 7938TIP3    H123757   3.337   4.179   1.284
 7938TIP3    H223758   3.455   4.087   1.305
 7939TIP3   OH223759   2.867   4.406   6.488
 7939TIP3    H123760   2.902   4.378   6.403
 7939TIP3    H223761   2.774   4.424   6.470
 7940TIP3   OH223762   8.279   6.796   0.055
 7940TIP3    H123763   8.251   6.810  -0.036
 7940TIP3    H223764   8.324   6.711   0.053
 7941TIP3   OH223765   4.895   5.354   5.880
 7941TIP3    H123766   4.894   5.265   5.846
 7941TIP3    H223767   4.831   5.353   5.952
 7942TIP3   OH223768   6.010   6.271   1.743
 7942TIP3    H123769   5.945   6.205   1.766
 7942TIP3    H223770   6.044   6.243   1.658
 7943TIP3   OH223771   0.284   6.561   5.679
 7943TIP3    H123772   0.273   6.656   5.665
 7943TIP3    H223773   0.207   6.535   5.729
 7944TIP3   OH223774   6.030   2.617   2.070
 7944TIP3    H123775   6.108   2.619   2.126
 7944TIP3    H223776   6.010   2.709   2.054
 7945TIP3   OH223777   3.437   1.826   1.594
 7945TIP3    H123778   3.508   1.889   1.603
 7945TIP3    H223779   3.357   1.879   1.597
 7946TIP3   OH223780   5.592   4.035   3.547
 7946TIP3    H123781   5.575   3.957   3.494
 7946TIP3    H223782   5.687   4.043   3.549
 7947TIP3   OH223783   4.252   1.808   5.171
 7947TIP3    H123784   4.297   1.817   5.087
 7947TIP3    H223785   4.179   1.869   5.165
 7948TIP3   OH223786   7.964   0.840   3.447
 7948TIP3    H123787   8.048   0.794   3.459
 7948TIP3    H223788   7.951   0.888   3.529
 7949TIP3   OH223789   6.071   1.810   5.633
 7949TIP3    H123790   6.024   1.727   5.619
 7949TIP3    H223791   6.014   1.860   5.690
 7950TIP3   OH223792   4.607   1.899   5.630
 7950TIP3    H123793   4.618   1.994   5.626
 7950TIP3    H223794   4.563   1.876   5.549
 7951TIP3   OH223795   1.077   3.698   2.637
 7951TIP3    H123796   1.066   3.680   2.543
 7951TIP3    H223797   1.049   3.789   2.647
 7952TIP3   OH223798   2.753   0.354   3.429
 7952TIP3    H123799   2.812   0.368   3.355
 7952TIP3    H223800   2.810   0.351   3.506
 7953TIP3   OH223801   1.403   2.544   2.531
 7953TIP3    H123802   1.482   2.562   2.480
 7953TIP3    H223803   1.427   2.472   2.588
 7954TIP3   OH223804   1.218   6.225   3.225
 7954TIP3    H123805   1.281   6.227   3.154
 7954TIP3    H223806   1.249   6.156   3.283
 7955TIP3   OH223807   5.693   0.245   0.085
 7955TIP3    H123808   5.699   0.198   0.002
 7955TIP3    H223809   5.776   0.225   0.130
 7956TIP3   OH223810   1.205   0.646   3.531
 7956TIP3    H123811   1.179   0.737   3.548
 7956TIP3    H223812   1.278   0.630   3.591
 7957TIP3   OH223813   3.869   3.333   2.845
 7957TIP3    H123814   3.848   3.347   2.937
 7957TIP3    H223815   3.784   3.320   2.803
 7958TIP3   OH223816   0.977   0.062   4.134
 7958TIP3    H123817   0.972  -0.032   4.151
 7958TIP3    H223818   0.917   0.101   4.198
 7959TIP3   OH223819   4.064   5.269   5.278
 7959TIP3    H123820   4.144   5.218   5.267
 7959TIP3    H223821   4.037   5.253   5.368
 7960TIP3   OH223822   3.268   5.659   0.975
 7960TIP3    H123823   3.294   5.689   0.888
 7960TIP3    H223824   3.324   5.583   0.993
 7961TIP3   OH223825   8.064   2.638   6.227
 7961TIP3    H123826   8.027   2.674   6.146
 7961TIP3    H223827   8.111   2.711   6.267
 7962TIP3   OH223828   1.178   5.340   3.026
 7962TIP3    H123829   1.263   5.373   2.998
 7962TIP3    H223830   1.179   5.348   3.121
 7963TIP3   OH223831   0.863   2.534   6.459
 7963TIP3    H123832   0.881   2.613   6.510
 7963TIP3    H223833   0.810   2.479   6.518
 7964TIP3   OH223834   1.305   3.179   1.282
 7964TIP3    H123835   1.299   3.130   1.364
 7964TIP3    H223836   1.352   3.120   1.223
 7965TIP3   OH223837   3.327   2.829   5.772
 7965TIP3    H123838   3.379   2.828   5.691
 7965TIP3    H223839   3.363   2.757   5.824
 7966TIP3   OH223840   5.111   7.118   3.673
 7966TIP3    H123841   5.195   7.094   3.635
 7966TIP3    H223842   5.065   7.035   3.685
 7967TIP3   OH223843   2.478   1.242   2.597
 7967TIP3    H123844   2.420   1.318   2.591
 7967TIP3    H223845   2.474   1.202   2.511
 7968TIP3   OH223846   1.783   1.143   0.233
 7968TIP3    H123847   1.694   1.152   0.197
 7968TIP3    H223848   1.773   1.162   0.326
 7969TIP3   OH223849   4.344   1.668   0.638
 7969TIP3    H123850   4.321   1.579   0.668
 7969TIP3    H223851   4.335   1.722   0.717
 7970TIP3   OH223852   7.614   5.101   3.094
 7970TIP3    H123853   7.624   5.196   3.104
 7970TIP3    H223854   7.556   5.090   3.019
 7971TIP3   OH223855   4.959   4.209   1.959
 7971TIP3    H123856   5.027   4.150   1.992
 7971TIP3    H223857   4.984   4.295   1.991
 7972TIP3   OH223858   0.396   4.564   4.193
 7972TIP3    H123859   0.352   4.634   4.241
 7972TIP3    H223860   0.369   4.577   4.102
 7973TIP3   OH223861   4.090   4.159   3.454
 7973TIP3    H123862   4.099   4.252   3.476
 7973TIP3    H223863   4.144   4.149   3.375
 7974TIP3   OH223864   4.034   4.565   1.493
 7974TIP3    H123865   4.085   4.640   1.463
 7974TIP3    H223866   4.092   4.518   1.552
 7975TIP3   OH223867   1.882   7.066   4.689
 7975TIP3    H123868   1.837   6.994   4.645
 7975TIP3    H223869   1.955   7.024   4.735
 7976TIP3   OH223870   1.482   5.355   2.730
 7976TIP3    H123871   1.496   5.291   2.800
 7976TIP3    H223872   1.392   5.338   2.700
 7977TIP3   OH223873   4.200   3.833   6.365
 7977TIP3    H123874   4.273   3.786   6.405
 7977TIP3    H223875   4.129   3.769   6.362
 7978TIP3   OH223876   0.176   4.925   4.186
 7978TIP3    H123877   0.226   4.902   4.265
 7978TIP3    H223878   0.085   4.932   4.216
 7979TIP3   OH223879   3.570   7.544   5.481
 7979TIP3    H123880   3.578   7.573   5.390
 7979TIP3    H223881   3.649   7.492   5.497
 7980TIP3   OH223882   2.273   2.728   0.512
 7980TIP3    H123883   2.332   2.668   0.466
 7980TIP3    H223884   2.187   2.686   0.505
 7981TIP3   OH223885   6.536   7.177   0.278
 7981TIP3    H123886   6.619   7.215   0.249
 7981TIP3    H223887   6.515   7.224   0.359
 7982TIP3   OH223888   6.457   5.037   0.825
 7982TIP3    H123889   6.418   5.116   0.789
 7982TIP3    H223890   6.394   4.968   0.806
 7983TIP3   OH223891   0.448   2.657   5.179
 7983TIP3    H123892   0.372   2.685   5.128
 7983TIP3    H223893   0.509   2.622   5.115
 7984TIP3   OH223894   6.785   1.354   0.043
 7984TIP3    H123895   6.863   1.297   0.044
 7984TIP3    H223896   6.814   1.434   0.085
 7985TIP3   OH223897   0.784   4.536   3.490
 7985TIP3    H123898   0.719   4.599   3.520
 7985TIP3    H223899   0.859   4.548   3.549
 7986TIP3   OH223900   7.490   6.948   4.082
 7986TIP3    H123901   7.526   6.871   4.125
 7986TIP3    H223902   7.555   7.017   4.097
 7987TIP3   OH223903   1.895   5.581   4.474
 7987TIP3    H123904   1.828   5.647   4.454
 7987TIP3    H223905   1.907   5.587   4.569
 7988TIP3   OH223906   1.719   3.433   0.745
 7988TIP3    H123907   1.710   3.524   0.771
 7988TIP3    H223908   1.756   3.390   0.822
 7989TIP3   OH223909   0.467   7.507   3.140
 7989TIP3    H123910   0.550   7.525   3.094
 7989TIP3    H223911   0.466   7.412   3.149
 7990TIP3   OH223912   5.057   2.145   3.449
 7990TIP3    H123913   5.069   2.054   3.474
 7990TIP3    H223914   5.145   2.177   3.429
 7991TIP3   OH223915   0.875   3.323   2.586
 7991TIP3    H123916   0.809   3.259   2.611
 7991TIP3    H223917   0.847   3.405   2.628
 7992TIP3   OH223918   0.468   2.965   3.483
 7992TIP3    H123919   0.483   2.940   3.392
 7992TIP3    H223920   0.474   2.884   3.533
 7993TIP3   OH223921   5.355   0.573   0.132
 7993TIP3    H123922   5.402   0.533   0.058
 7993TIP3    H223923   5.275   0.608   0.093
 7994TIP3   OH223924   1.683   3.427   3.761
 7994TIP3    H123925   1.620   3.449   3.693
 7994TIP3    H223926   1.636   3.443   3.843
 7995TIP3   OH223927   1.404   3.370   1.652
 7995TIP3    H123928   1.365   3.442   1.702
 7995TIP3    H223929   1.499   3.385   1.658
 7996TIP3   OH223930   7.535   2.802   0.795
 7996TIP3    H123931   7.442   2.777   0.793
 7996TIP3    H223932   7.570   2.758   0.872
 7997TIP3   OH223933   0.834   2.574   5.855
 7997TIP3    H123934   0.828   2.638   5.784
 7997TIP3    H223935   0.805   2.622   5.933
 7998TIP3   OH223936   7.172   1.561   0.733
 7998TIP3    H123937   7.259   1.583   0.698
 7998TIP3    H223938   7.115   1.564   0.656
 7999TIP3   OH223939   0.009   2.708   4.368
 7999TIP3    H123940   0.042   2.735   4.283
 7999TIP3    H223941   0.085   2.713   4.426
 8000TIP3   OH223942   2.272   2.467   4.594
 8000TIP3    H123943   2.291   2.483   4.687
 8000TIP3    H223944   2.273   2.554   4.554
 8001TIP3   OH223945   6.659   6.858   3.292
 8001TIP3    H123946   6.737   6.895   3.335
 8001TIP3    H223947   6.586   6.888   3.346
 8002TIP3   OH223948   6.538   3.397   5.435
 8002TIP3    H123949   6.563   3.413   5.526
 8002TIP3    H223950   6.621   3.380   5.391
 8003TIP3   OH223951   1.028   1.957   1.253
 8003TIP3    H123952   1.031   1.870   1.212
 8003TIP3    H223953   0.936   1.969   1.276
 8004TIP3   OH223954   4.843   6.363   0.325
 8004TIP3    H123955   4.783   6.339   0.254
 8004TIP3    H223956   4.852   6.282   0.376
 8005TIP3   OH223957   2.867   6.025   5.582
 8005TIP3    H123958   2.839   6.035   5.491
 8005TIP3    H223959   2.886   5.932   5.591
 8006TIP3   OH223960   3.021   7.122   5.855
 8006TIP3    H123961   3.067   7.191   5.806
 8006TIP3    H223962   2.938   7.162   5.880
 8007TIP3   OH223963   1.395   4.414   0.827
 8007TIP3    H123964   1.378   4.458   0.911
 8007TIP3    H223965   1.312   4.372   0.805
 8008TIP3   OH223966   1.700   4.465   2.693
 8008TIP3    H123967   1.767   4.495   2.755
 8008TIP3    H223968   1.628   4.526   2.704
 8009TIP3   OH223969   1.159   5.357   0.242
 8009TIP3    H123970   1.106   5.436   0.255
 8009TIP3    H223971   1.097   5.290   0.216
 8010TIP3   OH223972   8.349   4.260   3.508
 8010TIP3    H123973   8.278   4.258   3.573
 8010TIP3    H223974   8.304   4.279   3.425
 8011TIP3   OH223975   3.452   2.844   5.538
 8011TIP3    H123976   3.528   2.903   5.541
 8011TIP3    H223977   3.388   2.890   5.484
 8012TIP3   OH223978   5.309   2.191   5.737
 8012TIP3    H123979   5.317   2.096   5.727
 8012TIP3    H223980   5.226   2.204   5.783
 8013TIP3   OH223981   3.293   5.798   6.584
 8013TIP3    H123982   3.359   5.867   6.580
 8013TIP3    H223983   3.341   5.718   6.563
 8014TIP3   OH223984   3.541   3.874   1.503
 8014TIP3    H123985   3.451   3.896   1.478
 8014TIP3    H223986   3.580   3.835   1.425
 8015TIP3   OH223987   2.249   3.553   3.972
 8015TIP3    H123988   2.234   3.607   4.049
 8015TIP3    H223989   2.162   3.524   3.945
 8016TIP3   OH223990   4.787   4.930   1.404
 8016TIP3    H123991   4.811   4.849   1.358
 8016TIP3    H223992   4.807   4.912   1.496
 8017TIP3   OH223993   3.027   1.033   1.923
 8017TIP3    H123994   2.994   0.984   1.999
 8017TIP3    H223995   2.979   0.997   1.848
 8018TIP3   OH223996   6.268   7.632   5.626
 8018TIP3    H123997   6.215   7.598   5.553
 8018TIP3    H223998   6.234   7.587   5.703
 8019TIP3   OH223999   7.421   1.987   5.546
 8019TIP3    H124000   7.469   2.064   5.575
 8019TIP3    H224001   7.438   1.981   5.452
 8020TIP3   OH224002   0.963   3.577   5.597
 8020TIP3    H124003   0.970   3.670   5.620
 8020TIP3    H224004   0.993   3.573   5.507
 8021TIP3   OH224005   5.434   2.176   4.474
 8021TIP3    H124006   5.507   2.125   4.438
 8021TIP3    H224007   5.410   2.130   4.554
 8022TIP3   OH224008   7.635   5.324   5.551
 8022TIP3    H124009   7.578   5.348   5.477
 8022TIP3    H224010   7.580   5.337   5.628
 8023TIP3   OH224011   3.092   7.288   5.528
 8023TIP3    H124012   3.076   7.378   5.557
 8023TIP3    H224013   3.186   7.285   5.511
 8024TIP3   OH224014   4.777   1.947   0.752
 8024TIP3    H124015   4.866   1.982   0.758
 8024TIP3    H224016   4.788   1.853   0.765
 8025TIP3   OH224017   6.756   5.774   0.647
 8025TIP3    H124018   6.773   5.684   0.673
 8025TIP3    H224019   6.698   5.808   0.715
 8026TIP3   OH224020   0.854   2.421   3.114
 8026TIP3    H124021   0.913   2.479   3.162
 8026TIP3    H224022   0.766   2.455   3.132
 8027TIP3   OH224023   7.873   3.811   0.399
 8027TIP3    H124024   7.862   3.718   0.417
 8027TIP3    H224025   7.785   3.847   0.401
 8028TIP3   OH224026   3.825   3.686   5.247
 8028TIP3    H124027   3.840   3.778   5.226
 8028TIP3    H224028   3.821   3.684   5.343
 8029TIP3   OH224029   5.987   2.957   3.416
 8029TIP3    H124030   5.979   2.863   3.399
 8029TIP3    H224031   5.909   2.979   3.468
 8030TIP3   OH224032   0.887   6.931   0.260
 8030TIP3    H124033   0.805   6.897   0.294
 8030TIP3    H224034   0.889   6.902   0.169
 8031TIP3   OH224035   6.311   5.428   1.787
 8031TIP3    H124036   6.286   5.454   1.876
 8031TIP3    H224037   6.407   5.436   1.787
 8032TIP3   OH224038   7.579   7.012   5.006
 8032TIP3    H124039   7.664   7.040   4.971
 8032TIP3    H224040   7.543   7.091   5.045
 8033TIP3   OH224041   6.806   6.854   2.480
 8033TIP3    H124042   6.883   6.910   2.472
 8033TIP3    H224043   6.834   6.783   2.537
 8034TIP3   OH224044   4.789   4.908   6.425
 8034TIP3    H124045   4.738   4.898   6.344
 8034TIP3    H224046   4.779   4.824   6.470
 8035TIP3   OH224047   7.348   2.025   4.674
 8035TIP3    H124048   7.288   1.962   4.714
 8035TIP3    H224049   7.290   2.088   4.630
 8036TIP3   OH224050   5.814   5.484   3.801
 8036TIP3    H124051   5.901   5.454   3.825
 8036TIP3    H224052   5.802   5.456   3.710
 8037TIP3   OH224053   3.016   6.820   2.268
 8037TIP3    H124054   3.012   6.869   2.350
 8037TIP3    H224055   3.091   6.762   2.279
 8038TIP3   OH224056   4.985   1.943   1.522
 8038TIP3    H124057   5.051   1.949   1.591
 8038TIP3    H224058   5.035   1.926   1.442
 8039TIP3   OH224059   6.262   0.025   5.513
 8039TIP3    H124060   6.229  -0.050   5.562
 8039TIP3    H224061   6.357   0.012   5.510
 8040TIP3   OH224062   0.226   2.508   4.750
 8040TIP3    H124063   0.184   2.496   4.835
 8040TIP3    H224064   0.176   2.451   4.691
 8041TIP3   OH224065   0.553   1.269   2.765
 8041TIP3    H124066   0.641   1.301   2.782
 8041TIP3    H224067   0.543   1.274   2.670
 8042TIP3   OH224068   1.052   0.743   1.360
 8042TIP3    H124069   1.032   0.807   1.292
 8042TIP3    H224070   1.055   0.794   1.441
 8043TIP3   OH224071   1.609   5.674   2.655
 8043TIP3    H124072   1.597   5.764   2.624
 8043TIP3    H224073   1.643   5.683   2.744
 8044TIP3   OH224074   0.024   2.165   6.422
 8044TIP3    H124075   0.118   2.183   6.410
 8044TIP3    H224076   0.002   2.205   6.506
 8045TIP3   OH224077   0.644   0.649   0.050
 8045TIP3    H124078   0.576   0.585   0.072
 8045TIP3    H224079   0.684   0.672   0.134
 8046TIP3   OH224080   8.209   5.556   6.408
 8046TIP3    H124081   8.167   5.623   6.354
 8046TIP3    H224082   8.295   5.593   6.430
 8047TIP3   OH224083   6.632   7.023   4.976
 8047TIP3    H124084   6.640   7.078   5.054
 8047TIP3    H224085   6.614   7.085   4.905
 8048TIP3   OH224086   0.962   4.614   5.258
 8048TIP3    H124087   1.023   4.540   5.254
 8048TIP3    H224088   0.996   4.677   5.195
 8049TIP3   OH224089   5.230   5.367   6.352
 8049TIP3    H124090   5.236   5.276   6.321
 8049TIP3    H224091   5.211   5.417   6.273
 8050TIP3   OH224092   1.645   1.131   0.633
 8050TIP3    H124093   1.677   1.048   0.670
 8050TIP3    H224094   1.556   1.111   0.604
 8051TIP3   OH224095   6.186   0.604   6.509
 8051TIP3    H124096   6.250   0.632   6.444
 8051TIP3    H224097   6.114   0.567   6.458
 8052TIP3   OH224098   6.737   6.238   3.898
 8052TIP3    H124099   6.723   6.147   3.926
 8052TIP3    H224100   6.770   6.282   3.976
 8053TIP3   OH224101   2.806   2.671   2.133
 8053TIP3    H124102   2.761   2.633   2.057
 8053TIP3    H224103   2.784   2.764   2.129
 8054TIP3   OH224104   7.837   2.977   1.127
 8054TIP3    H124105   7.761   2.991   1.184
 8054TIP3    H224106   7.819   3.032   1.051
 8055TIP3   OH224107   3.487   1.315   5.611
 8055TIP3    H124108   3.398   1.341   5.587
 8055TIP3    H224109   3.519   1.267   5.535
 8056TIP3   OH224110   6.729   4.188   3.897
 8056TIP3    H124111   6.813   4.221   3.866
 8056TIP3    H224112   6.672   4.264   3.896
 8057TIP3   OH224113   3.941   3.928   3.591
 8057TIP3    H124114   4.001   3.855   3.602
 8057TIP3    H224115   3.995   3.998   3.553
 8058TIP3   OH224116   7.366   4.208   3.666
 8058TIP3    H124117   7.314   4.157   3.603
 8058TIP3    H224118   7.321   4.196   3.749
 8059TIP3   OH224119   1.419   7.615   2.904
 8059TIP3    H124120   1.417   7.548   2.973
 8059TIP3    H224121   1.502   7.660   2.915
 8060TIP3   OH224122   6.987   3.807   6.210
 8060TIP3    H124123   6.944   3.740   6.262
 8060TIP3    H224124   7.081   3.786   6.218
 8061TIP3   OH224125   1.792   7.385   2.455
 8061TIP3    H124126   1.839   7.437   2.521
 8061TIP3    H224127   1.794   7.439   2.376
 8062TIP3   OH224128   5.213   5.325   1.563
 8062TIP3    H124129   5.300   5.300   1.594
 8062TIP3    H224130   5.222   5.326   1.468
 8063TIP3   OH224131   3.124   1.149   3.649
 8063TIP3    H124132   3.188   1.087   3.615
 8063TIP3    H224133   3.136   1.148   3.744
 8064TIP3   OH224134   2.812   7.016   2.151
 8064TIP3    H124135   2.826   6.964   2.230
 8064TIP3    H224136   2.867   6.974   2.085
 8065TIP3   OH224137   6.504   4.529   2.796
 8065TIP3    H124138   6.446   4.577   2.854
 8065TIP3    H224139   6.540   4.595   2.737
 8066TIP3   OH224140   3.860   5.701   4.395
 8066TIP3    H124141   3.899   5.627   4.348
 8066TIP3    H224142   3.853   5.770   4.329
 8067TIP3   OH224143   2.432   6.522   1.414
 8067TIP3    H124144   2.377   6.595   1.385
 8067TIP3    H224145   2.409   6.510   1.507
 8068TIP3   OH224146   5.865   7.717   3.288
 8068TIP3    H124147   5.881   7.762   3.371
 8068TIP3    H224148   5.794   7.655   3.308
 8069TIP3   OH224149   5.630   1.449   3.772
 8069TIP3    H124150   5.583   1.404   3.703
 8069TIP3    H224151   5.569   1.452   3.846
 8070TIP3   OH224152   0.515   4.202   3.987
 8070TIP3    H124153   0.437   4.161   4.024
 8070TIP3    H224154   0.482   4.259   3.917
 8071TIP3   OH224155   8.051   3.634   6.561
 8071TIP3    H124156   8.007   3.625   6.645
 8071TIP3    H224157   8.119   3.567   6.562
 8072TIP3   OH224158   8.031   3.585   4.597
 8072TIP3    H124159   7.940   3.557   4.583
 8072TIP3    H224160   8.035   3.608   4.690
 8073TIP3   OH224161   0.994   2.343   2.256
 8073TIP3    H124162   1.083   2.366   2.227
 8073TIP3    H224163   0.950   2.314   2.177
 8074TIP3   OH224164   6.437   5.897   6.500
 8074TIP3    H124165   6.436   5.938   6.414
 8074TIP3    H224166   6.373   5.946   6.551
 8075TIP3   OH224167   5.389   7.040   1.705
 8075TIP3    H124168   5.391   7.065   1.797
 8075TIP3    H224169   5.340   7.110   1.662
 8076TIP3   OH224170   0.575   0.246   4.706
 8076TIP3    H124171   0.540   0.330   4.676
 8076TIP3    H224172   0.500   0.203   4.747
 8077TIP3   OH224173   8.029   7.500   5.536
 8077TIP3    H124174   7.953   7.467   5.487
 8077TIP3    H224175   8.103   7.484   5.479
 8078TIP3   OH224176   2.281   2.976   3.409
 8078TIP3    H124177   2.330   3.056   3.393
 8078TIP3    H224178   2.195   3.005   3.441
 8079TIP3   OH224179   7.330   4.122   0.939
 8079TIP3    H124180   7.244   4.161   0.953
 8079TIP3    H224181   7.313   4.028   0.939
 8080TIP3   OH224182   4.119   4.491   0.097
 8080TIP3    H124183   4.037   4.510   0.141
 8080TIP3    H224184   4.164   4.575   0.093
 8081TIP3   OH224185   6.536   2.895   1.366
 8081TIP3    H124186   6.585   2.976   1.349
 8081TIP3    H224187   6.588   2.850   1.432
 8082TIP3   OH224188   4.194   7.453   0.646
 8082TIP3    H124189   4.134   7.508   0.697
 8082TIP3    H224190   4.279   7.497   0.655
 8083TIP3   OH224191   3.828   5.987   6.153
 8083TIP3    H124192   3.761   6.046   6.189
 8083TIP3    H224193   3.849   6.025   6.067
 8084TIP3   OH224194   0.004   1.358   2.032
 8084TIP3    H124195   0.041   1.372   2.120
 8084TIP3    H224196   0.072   1.311   1.984
 8085TIP3   OH224197   5.868   5.186   0.353
 8085TIP3    H124198   5.934   5.119   0.370
 8085TIP3    H224199   5.790   5.156   0.400
 8086TIP3   OH224200   5.535   4.037   3.839
 8086TIP3    H124201   5.603   4.082   3.889
 8086TIP3    H224202   5.553   4.060   3.748
 8087TIP3   OH224203   7.623   5.502   4.635
 8087TIP3    H124204   7.636   5.557   4.712
 8087TIP3    H224205   7.663   5.418   4.658
 8088TIP3   OH224206   0.387   6.516   6.696
 8088TIP3    H124207   0.362   6.443   6.639
 8088TIP3    H224208   0.304   6.550   6.730
 8089TIP3   OH224209   4.125   3.474   0.805
 8089TIP3    H124210   4.125   3.391   0.854
 8089TIP3    H224211   4.206   3.472   0.755
 8090TIP3   OH224212   3.498   4.431   5.310
 8090TIP3    H124213   3.537   4.413   5.224
 8090TIP3    H224214   3.572   4.432   5.370
 8091TIP3   OH224215   8.001   6.192   1.568
 8091TIP3    H124216   7.968   6.221   1.653
 8091TIP3    H224217   8.071   6.130   1.589
 8092TIP3   OH224218   1.856   5.561   0.061
 8092TIP3    H124219   1.788   5.502   0.028
 8092TIP3    H224220   1.811   5.613   0.128
 8093TIP3   OH224221   0.599   3.975   4.250
 8093TIP3    H124222   0.614   3.902   4.189
 8093TIP3    H224223   0.504   3.982   4.255
 8094TIP3   OH224224   6.126   2.546   0.334
 8094TIP3    H124225   6.169   2.560   0.250
 8094TIP3    H224226   6.182   2.591   0.397
 8095TIP3   OH224227   3.956   6.753   2.923
 8095TIP3    H124228   3.869   6.755   2.883
 8095TIP3    H224229   4.001   6.830   2.889
 8096TIP3   OH224230   7.241   0.600   3.161
 8096TIP3    H124231   7.184   0.649   3.221
 8096TIP3    H224232   7.270   0.665   3.097
 8097TIP3   OH224233   3.680   7.561   0.477
 8097TIP3    H124234   3.764   7.604   0.465
 8097TIP3    H224235   3.701   7.467   0.477
 8098TIP3   OH224236   1.564   1.540   0.812
 8098TIP3    H124237   1.504   1.499   0.750
 8098TIP3    H224238   1.547   1.634   0.804
 8099TIP3   OH224239   2.239   3.802   1.274
 8099TIP3    H124240   2.232   3.849   1.191
 8099TIP3    H224241   2.301   3.731   1.257
 8100TIP3   OH224242   4.392   1.060   2.349
 8100TIP3    H124243   4.362   1.138   2.395
 8100TIP3    H224244   4.322   0.996   2.360
 8101TIP3   OH224245   7.698   3.399   1.206
 8101TIP3    H124246   7.728   3.357   1.286
 8101TIP3    H224247   7.683   3.490   1.231
 8102TIP3   OH224248   1.918   4.416   3.848
 8102TIP3    H124249   1.830   4.397   3.813
 8102TIP3    H224250   1.905   4.490   3.906
 8103TIP3   OH224251   0.064   4.600   4.486
 8103TIP3    H124252   0.052   4.518   4.438
 8103TIP3    H224253   0.131   4.580   4.551
 8104TIP3   OH224254   7.023   5.949   4.814
 8104TIP3    H124255   7.055   6.037   4.831
 8104TIP3    H224256   7.061   5.896   4.885
 8105TIP3   OH224257   2.354   6.133   4.821
 8105TIP3    H124258   2.440   6.106   4.788
 8105TIP3    H224259   2.294   6.114   4.748
 8106TIP3   OH224260   2.178   6.456   6.447
 8106TIP3    H124261   2.244   6.386   6.438
 8106TIP3    H224262   2.219   6.520   6.505
 8107TIP3   OH224263   6.866   2.873   3.896
 8107TIP3    H124264   6.771   2.887   3.896
 8107TIP3    H224265   6.877   2.787   3.937
 8108TIP3   OH224266   3.181   7.615   1.248
 8108TIP3    H124267   3.206   7.618   1.341
 8108TIP3    H224268   3.233   7.685   1.208
 8109TIP3   OH224269   6.709   0.718   5.501
 8109TIP3    H124270   6.634   0.776   5.491
 8109TIP3    H224271   6.686   0.660   5.572
 8110TIP3   OH224272   4.338   4.205   4.019
 8110TIP3    H124273   4.297   4.151   3.951
 8110TIP3    H224274   4.313   4.162   4.101
 8111TIP3   OH224275   5.183   4.751   2.233
 8111TIP3    H124276   5.201   4.715   2.320
 8111TIP3    H224277   5.096   4.719   2.212
 8112TIP3   OH224278   7.000   3.590   4.217
 8112TIP3    H124279   7.016   3.533   4.142
 8112TIP3    H224280   6.909   3.616   4.209
 8113TIP3   OH224281   5.287   0.687   6.411
 8113TIP3    H124282   5.296   0.780   6.432
 8113TIP3    H224283   5.196   0.677   6.384
 8114TIP3   OH224284   5.217   1.117   2.757
 8114TIP3    H124285   5.151   1.162   2.811
 8114TIP3    H224286   5.299   1.162   2.777
 8115TIP3   OH224287   0.803   4.594   4.162
 8115TIP3    H124288   0.727   4.537   4.174
 8115TIP3    H224289   0.791   4.631   4.075
 8116TIP3   OH224290   2.371   0.294   2.830
 8116TIP3    H124291   2.410   0.380   2.811
 8116TIP3    H224292   2.415   0.234   2.769
 8117TIP3   OH224293   7.702   7.450   0.927
 8117TIP3    H124294   7.741   7.383   0.871
 8117TIP3    H224295   7.720   7.420   1.016
 8118TIP3   OH224296   1.514   2.516   1.530
 8118TIP3    H124297   1.469   2.438   1.563
 8118TIP3    H224298   1.503   2.581   1.599
 8119TIP3   OH224299   6.313   1.119   1.516
 8119TIP3    H124300   6.266   1.192   1.476
 8119TIP3    H224301   6.363   1.081   1.443
 8120TIP3   OH224302   3.179   1.877   4.417
 8120TIP3    H124303   3.096   1.832   4.430
 8120TIP3    H224304   3.246   1.812   4.441
 8121TIP3   OH224305   2.960   2.478   4.936
 8121TIP3    H124306   2.900   2.542   4.973
 8121TIP3    H224307   3.047   2.514   4.952
 8122TIP3   OH224308   5.696   1.391   5.935
 8122TIP3    H124309   5.685   1.323   5.869
 8122TIP3    H224310   5.666   1.471   5.892
 8123TIP3   OH224311   5.871   5.917   2.249
 8123TIP3    H124312   5.912   5.858   2.312
 8123TIP3    H224313   5.783   5.880   2.236
 8124TIP3   OH224314   0.329   2.316   0.006
 8124TIP3    H124315   0.245   2.330  -0.038
 8124TIP3    H224316   0.340   2.394   0.061
 8125TIP3   OH224317   5.590   7.769   1.191
 8125TIP3    H124318   5.657   7.705   1.166
 8125TIP3    H224319   5.509   7.736   1.152
 8126TIP3   OH224320   4.659   0.413   1.907
 8126TIP3    H124321   4.731   0.377   1.855
 8126TIP3    H224322   4.589   0.349   1.896
 8127TIP3   OH224323   1.882   5.293   0.491
 8127TIP3    H124324   1.811   5.268   0.431
 8127TIP3    H224325   1.934   5.355   0.441
 8128TIP3   OH224326   8.197   1.801   2.548
 8128TIP3    H124327   8.280   1.848   2.557
 8128TIP3    H224328   8.175   1.775   2.638
 8129TIP3   OH224329   7.308   4.457   5.575
 8129TIP3    H124330   7.389   4.444   5.626
 8129TIP3    H224331   7.238   4.454   5.640
 8130TIP3   OH224332   2.553   6.608   2.973
 8130TIP3    H124333   2.463   6.631   2.994
 8130TIP3    H224334   2.546   6.544   2.902
 8131TIP3   OH224335   3.152   1.324   3.186
 8131TIP3    H124336   3.170   1.279   3.269
 8131TIP3    H224337   3.131   1.414   3.212
 8132TIP3   OH224338   3.237   2.073   0.178
 8132TIP3    H124339   3.168   2.007   0.188
 8132TIP3    H224340   3.190   2.154   0.157
 8133TIP3   OH224341   4.697   6.574   4.758
 8133TIP3    H124342   4.644   6.635   4.707
 8133TIP3    H224343   4.705   6.615   4.844
 8134TIP3   OH224344   0.862   6.015   1.880
 8134TIP3    H124345   0.859   6.075   1.955
 8134TIP3    H224346   0.845   5.929   1.918
 8135TIP3   OH224347   1.905   2.419   2.983
 8135TIP3    H124348   1.896   2.481   2.911
 8135TIP3    H224349   1.956   2.465   3.049
 8136TIP3   OH224350   5.991   2.124   1.235
 8136TIP3    H124351   5.896   2.128   1.221
 8136TIP3    H224352   6.020   2.048   1.185
 8137TIP3   OH224353   2.245   1.495   4.747
 8137TIP3    H124354   2.270   1.443   4.671
 8137TIP3    H224355   2.158   1.528   4.725
 8138TIP3   OH224356   5.103   1.389   1.755
 8138TIP3    H124357   5.174   1.353   1.808
 8138TIP3    H224358   5.138   1.388   1.665
 8139TIP3   OH224359   2.118   5.607   4.198
 8139TIP3    H124360   2.025   5.582   4.198
 8139TIP3    H224361   2.119   5.697   4.230
 8140TIP3   OH224362   8.026   3.477   5.453
 8140TIP3    H124363   8.077   3.459   5.374
 8140TIP3    H224364   8.092   3.500   5.519
 8141TIP3   OH224365   7.978   4.169   6.738
 8141TIP3    H124366   8.048   4.176   6.674
 8141TIP3    H224367   8.018   4.125   6.813
 8142TIP3   OH224368   8.254   5.913   6.480
 8142TIP3    H124369   8.188   5.858   6.522
 8142TIP3    H224370   8.205   5.990   6.450
 8143TIP3   OH224371   7.218   5.484   6.029
 8143TIP3    H124372   7.304   5.467   5.989
 8143TIP3    H224373   7.200   5.405   6.081
 8144TIP3   OH224374   1.987   2.481   1.262
 8144TIP3    H124375   2.052   2.543   1.230
 8144TIP3    H224376   1.959   2.517   1.346
 8145TIP3   OH224377   3.398   0.111   0.292
 8145TIP3    H124378   3.465   0.133   0.226
 8145TIP3    H224379   3.383   0.193   0.339
 8146TIP3   OH224380   5.132   4.169   5.511
 8146TIP3    H124381   5.138   4.184   5.605
 8146TIP3    H224382   5.137   4.074   5.501
 8147TIP3   OH224383   7.713   6.157   2.135
 8147TIP3    H124384   7.640   6.205   2.175
 8147TIP3    H224385   7.671   6.094   2.077
 8148TIP3   OH224386   2.660   3.722   0.715
 8148TIP3    H124387   2.605   3.796   0.689
 8148TIP3    H224388   2.736   3.761   0.756
 8149TIP3   OH224389   6.042   3.181   0.100
 8149TIP3    H124390   6.018   3.145   0.186
 8149TIP3    H224391   5.997   3.125   0.037
 8150TIP3   OH224392   2.484   1.923   2.455
 8150TIP3    H124393   2.421   1.922   2.382
 8150TIP3    H224394   2.536   1.844   2.442
 8151TIP3   OH224395   2.736   7.430   4.700
 8151TIP3    H124396   2.715   7.400   4.789
 8151TIP3    H224397   2.739   7.350   4.648
 8152TIP3   OH224398   7.095   6.216   3.475
 8152TIP3    H124399   7.036   6.220   3.550
 8152TIP3    H224400   7.158   6.287   3.490
 8153TIP3   OH224401   5.026   2.263   0.361
 8153TIP3    H124402   4.989   2.176   0.373
 8153TIP3    H224403   5.120   2.248   0.347
 8154TIP3   OH224404   4.101   0.525   4.843
 8154TIP3    H124405   4.150   0.445   4.824
 8154TIP3    H224406   4.162   0.596   4.825
 8155TIP3   OH224407   1.710   5.589   6.303
 8155TIP3    H124408   1.699   5.683   6.289
 8155TIP3    H224409   1.804   5.574   6.289
 8156TIP3   OH224410   0.687   6.854   1.184
 8156TIP3    H124411   0.623   6.916   1.150
 8156TIP3    H224412   0.720   6.894   1.264
 8157TIP3   OH224413   1.096   5.972   3.644
 8157TIP3    H124414   1.031   5.946   3.579
 8157TIP3    H224415   1.045   5.990   3.723
 8158TIP3   OH224416   5.643   6.100   0.230
 8158TIP3    H124417   5.548   6.110   0.228
 8158TIP3    H224418   5.676   6.189   0.242
 8159TIP3   OH224419   7.660   2.936   6.101
 8159TIP3    H124420   7.682   3.026   6.080
 8159TIP3    H224421   7.678   2.887   6.021
 8160TIP3   OH224422   1.186   6.893   4.741
 8160TIP3    H124423   1.171   6.799   4.749
 8160TIP3    H224424   1.195   6.923   4.831
 8161TIP3   OH224425   3.306   2.389   6.321
 8161TIP3    H124426   3.283   2.320   6.383
 8161TIP3    H224427   3.358   2.344   6.253
 8162TIP3   OH224428   1.270   2.925   5.278
 8162TIP3    H124429   1.303   2.908   5.366
 8162TIP3    H224430   1.291   2.845   5.229
 8163TIP3   OH224431   0.930   1.390   4.947
 8163TIP3    H124432   0.839   1.374   4.922
 8163TIP3    H224433   0.976   1.400   4.864
 8164TIP3   OH224434   7.137   0.278   0.583
 8164TIP3    H124435   7.190   0.201   0.565
 8164TIP3    H224436   7.096   0.299   0.499
 8165TIP3   OH224437   3.958   0.339   1.827
 8165TIP3    H124438   3.893   0.333   1.896
 8165TIP3    H224439   4.004   0.422   1.844
 8166TIP3   OH224440   1.516   5.081   4.276
 8166TIP3    H124441   1.438   5.031   4.300
 8166TIP3    H224442   1.556   5.105   4.359
 8167TIP3   OH224443   2.456   1.753   5.293
 8167TIP3    H124444   2.384   1.698   5.325
 8167TIP3    H224445   2.534   1.716   5.335
 8168TIP3   OH224446   7.366   6.340   0.622
 8168TIP3    H124447   7.396   6.431   0.625
 8168TIP3    H224448   7.320   6.327   0.705
 8169TIP3   OH224449   1.662   4.651   1.536
 8169TIP3    H124450   1.674   4.691   1.622
 8169TIP3    H224451   1.750   4.644   1.499
 8170TIP3   OH224452   0.284   3.004   5.989
 8170TIP3    H124453   0.224   3.005   6.063
 8170TIP3    H224454   0.344   3.076   6.005
 8171TIP3   OH224455   3.362   3.373   4.581
 8171TIP3    H124456   3.406   3.333   4.506
 8171TIP3    H224457   3.431   3.384   4.646
 8172TIP3   OH224458   7.791   3.261   0.975
 8172TIP3    H124459   7.707   3.230   0.940
 8172TIP3    H224460   7.768   3.308   1.055
 8173TIP3   OH224461   0.306   5.816   6.642
 8173TIP3    H124462   0.274   5.894   6.687
 8173TIP3    H224463   0.397   5.837   6.619
 8174TIP3   OH224464   6.907   3.556   4.641
 8174TIP3    H124465   6.988   3.519   4.677
 8174TIP3    H224466   6.842   3.541   4.710
 8175TIP3   OH224467   7.577   1.568   6.047
 8175TIP3    H124468   7.621   1.642   6.007
 8175TIP3    H224469   7.512   1.541   5.983
 8176TIP3   OH224470   5.277   6.867   2.460
 8176TIP3    H124471   5.315   6.865   2.548
 8176TIP3    H224472   5.183   6.879   2.476
 8177TIP3   OH224473   5.000   4.357   6.133
 8177TIP3    H124474   5.008   4.375   6.227
 8177TIP3    H224475   4.905   4.354   6.118
 8178TIP3   OH224476   6.234   6.410   5.996
 8178TIP3    H124477   6.304   6.390   5.933
 8178TIP3    H224478   6.280   6.438   6.075
 8179TIP3   OH224479   1.840   6.594   3.895
 8179TIP3    H124480   1.935   6.604   3.895
 8179TIP3    H224481   1.816   6.589   3.802
 8180TIP3   OH224482   7.590   3.634   4.398
 8180TIP3    H124483   7.593   3.723   4.361
 8180TIP3    H224484   7.530   3.641   4.472
 8181TIP3   OH224485   4.046   6.203   1.649
 8181TIP3    H124486   4.066   6.267   1.717
 8181TIP3    H224487   3.950   6.206   1.641
 8182TIP3   OH224488   2.838   2.911   1.904
 8182TIP3    H124489   2.905   2.980   1.902
 8182TIP3    H224490   2.875   2.841   1.850
 8183TIP3   OH224491   2.024   7.149   0.075
 8183TIP3    H124492   1.972   7.106   0.143
 8183TIP3    H224493   2.051   7.232   0.115
 8184TIP3   OH224494   5.672   6.028   2.949
 8184TIP3    H124495   5.607   6.093   2.924
 8184TIP3    H224496   5.666   6.023   3.045
 8185TIP3   OH224497   5.582   3.726   5.460
 8185TIP3    H124498   5.505   3.765   5.418
 8185TIP3    H224499   5.588   3.638   5.423
 8186TIP3   OH224500   6.990   4.293   3.834
 8186TIP3    H124501   7.057   4.359   3.814
 8186TIP3    H224502   7.009   4.265   3.923
 8187TIP3   OH224503   6.716   2.107   3.229
 8187TIP3    H124504   6.726   2.198   3.258
 8187TIP3    H224505   6.701   2.114   3.135
 8188TIP3   OH224506   0.332   0.772   1.339
 8188TIP3    H124507   0.278   0.731   1.272
 8188TIP3    H224508   0.279   0.846   1.370
 8189TIP3   OH224509   5.106   4.139   2.274
 8189TIP3    H124510   5.077   4.071   2.334
 8189TIP3    H224511   5.110   4.219   2.327
 8190TIP3   OH224512   4.687   5.957   4.955
 8190TIP3    H124513   4.730   5.884   5.000
 8190TIP3    H224514   4.742   5.973   4.878
 8191TIP3   OH224515   0.096   5.366   4.107
 8191TIP3    H124516   0.051   5.443   4.141
 8191TIP3    H224517   0.178   5.362   4.157
 8192TIP3   OH224518   6.264   5.457   4.890
 8192TIP3    H124519   6.302   5.466   4.803
 8192TIP3    H224520   6.228   5.369   4.893
 8193TIP3   OH224521   6.837   1.489   0.857
 8193TIP3    H124522   6.883   1.550   0.915
 8193TIP3    H224523   6.744   1.509   0.871
 8194TIP3   OH224524   2.973   1.591   0.199
 8194TIP3    H124525   2.910   1.566   0.267
 8194TIP3    H224526   2.945   1.542   0.122
 8195TIP3   OH224527   5.154   4.777   2.786
 8195TIP3    H124528   5.241   4.816   2.792
 8195TIP3    H224529   5.094   4.849   2.805
 8196TIP3   OH224530   1.329   1.712   2.012
 8196TIP3    H124531   1.417   1.751   2.011
 8196TIP3    H224532   1.323   1.669   2.098
 8197TIP3   OH224533   3.461   1.926   2.697
 8197TIP3    H124534   3.485   1.965   2.613
 8197TIP3    H224535   3.372   1.893   2.684
 8198TIP3   OH224536   2.045   5.510   2.296
 8198TIP3    H124537   2.039   5.465   2.380
 8198TIP3    H224538   2.041   5.603   2.318
 8199TIP3   OH224539   6.504   1.259  -0.006
 8199TIP3    H124540   6.448   1.298   0.061
 8199TIP3    H224541   6.593   1.281   0.021
 8200TIP3   OH224542   4.701   3.502   1.693
 8200TIP3    H124543   4.775   3.487   1.635
 8200TIP3    H224544   4.727   3.461   1.776
 8201TIP3   OH224545   1.053   6.759   2.960
 8201TIP3    H124546   0.983   6.821   2.944
 8201TIP3    H224547   1.132   6.802   2.928
 8202TIP3   OH224548   6.757   1.462   6.241
 8202TIP3    H124549   6.703   1.386   6.266
 8202TIP3    H224550   6.838   1.450   6.290
 8203TIP3   OH224551   1.004   6.733   1.623
 8203TIP3    H124552   0.966   6.818   1.604
 8203TIP3    H224553   1.098   6.749   1.628
 8204TIP3   OH224554   4.904   2.786   4.418
 8204TIP3    H124555   4.978   2.736   4.383
 8204TIP3    H224556   4.828   2.752   4.371
 8205TIP3   OH224557   1.565   1.865   1.964
 8205TIP3    H124558   1.645   1.835   1.921
 8205TIP3    H224559   1.596   1.926   2.031
 8206TIP3   OH224560   6.457   6.815   1.098
 8206TIP3    H124561   6.455   6.906   1.130
 8206TIP3    H224562   6.437   6.762   1.175
 8207TIP3   OH224563   4.553   5.323   1.975
 8207TIP3    H124564   4.527   5.407   1.936
 8207TIP3    H224565   4.546   5.338   2.069
 8208TIP3   OH224566   3.816   4.539   3.804
 8208TIP3    H124567   3.870   4.466   3.835
 8208TIP3    H224568   3.741   4.496   3.763
 8209TIP3   OH224569   0.044   7.755   6.428
 8209TIP3    H124570   0.006   7.803   6.355
 8209TIP3    H224571   0.138   7.768   6.419
 8210TIP3   OH224572   7.279   2.728   4.441
 8210TIP3    H124573   7.243   2.810   4.407
 8210TIP3    H224574   7.203   2.672   4.456
 8211TIP3   OH224575   4.940   1.881   3.222
 8211TIP3    H124576   4.885   1.949   3.260
 8211TIP3    H224577   4.888   1.801   3.230
 8212TIP3   OH224578   2.292   6.117   3.985
 8212TIP3    H124579   2.382   6.085   3.975
 8212TIP3    H224580   2.302   6.210   4.005
 8213TIP3   OH224581   3.272   7.594   1.481
 8213TIP3    H124582   3.311   7.546   1.554
 8213TIP3    H224583   3.302   7.684   1.493
 8214TIP3   OH224584   3.984   3.206   4.956
 8214TIP3    H124585   3.928   3.163   4.891
 8214TIP3    H224586   4.024   3.279   4.908
 8215TIP3   OH224587   6.745   1.525   3.027
 8215TIP3    H124588   6.719   1.572   3.106
 8215TIP3    H224589   6.749   1.433   3.054
 8216TIP3   OH224590   1.455   0.421   3.354
 8216TIP3    H124591   1.385   0.361   3.378
 8216TIP3    H224592   1.529   0.365   3.333
 8217TIP3   OH224593   5.821   7.167   1.379
 8217TIP3    H124594   5.907   7.211   1.381
 8217TIP3    H224595   5.838   7.084   1.334
 8218TIP3   OH224596   2.040   0.700   3.832
 8218TIP3    H124597   2.090   0.720   3.753
 8218TIP3    H224598   1.955   0.741   3.818
 8219TIP3   OH224599   0.872   7.354   6.070
 8219TIP3    H124600   0.856   7.343   5.976
 8219TIP3    H224601   0.930   7.282   6.093
 8220TIP3   OH224602   4.560   5.696   5.482
 8220TIP3    H124603   4.542   5.776   5.433
 8220TIP3    H224604   4.575   5.629   5.415
 8221TIP3   OH224605   8.240   3.918   3.150
 8221TIP3    H124606   8.280   3.848   3.201
 8221TIP3    H224607   8.287   3.997   3.177
 8222TIP3   OH224608   0.149   2.602   5.400
 8222TIP3    H124609   0.055   2.594   5.415
 8222TIP3    H224610   0.178   2.670   5.460
 8223TIP3   OH224611   7.762   6.759   6.117
 8223TIP3    H124612   7.696   6.712   6.168
 8223TIP3    H224613   7.844   6.714   6.138
 8224TIP3   OH224614   8.357   3.616   5.097
 8224TIP3    H124615   8.290   3.548   5.091
 8224TIP3    H224616   8.440   3.568   5.099
 8225TIP3   OH224617   3.952   6.357   2.115
 8225TIP3    H124618   3.871   6.339   2.068
 8225TIP3    H224619   3.982   6.272   2.145
 8226TIP3   OH224620   8.113   2.215   0.901
 8226TIP3    H124621   8.153   2.193   0.817
 8226TIP3    H224622   8.104   2.311   0.899
 8227TIP3   OH224623   2.718   4.145   2.440
 8227TIP3    H124624   2.679   4.066   2.477
 8227TIP3    H224625   2.797   4.159   2.493
 8228TIP3   OH224626   2.459   1.035   0.111
 8228TIP3    H124627   2.375   1.069   0.080
 8228TIP3    H224628   2.435   0.960   0.167
 8229TIP3   OH224629   2.741   1.209   0.480
 8229TIP3    H124630   2.652   1.177   0.494
 8229TIP3    H224631   2.789   1.180   0.557
 8230TIP3   OH224632   3.675   3.732   1.270
 8230TIP3    H124633   3.767   3.726   1.292
 8230TIP3    H224634   3.650   3.643   1.245
 8231TIP3   OH224635   6.740   4.904   1.052
 8231TIP3    H124636   6.685   4.959   1.108
 8231TIP3    H224637   6.752   4.956   0.972
 8232TIP3   OH224638   5.706   4.195   5.750
 8232TIP3    H124639   5.637   4.237   5.699
 8232TIP3    H224640   5.723   4.113   5.705
 8233TIP3   OH224641   0.296   1.587   0.212
 8233TIP3    H124642   0.215   1.633   0.232
 8233TIP3    H224643   0.331   1.633   0.135
 8234TIP3   OH224644   2.182   3.859   5.194
 8234TIP3    H124645   2.194   3.949   5.226
 8234TIP3    H224646   2.106   3.865   5.136
 8235TIP3   OH224647   3.749   6.079   0.978
 8235TIP3    H124648   3.722   6.137   0.907
 8235TIP3    H224649   3.742   5.991   0.941
 8236TIP3   OH224650   3.822   1.871   6.470
 8236TIP3    H124651   3.820   1.775   6.464
 8236TIP3    H224652   3.827   1.889   6.564
 8237TIP3   OH224653   7.881   4.260   4.189
 8237TIP3    H124654   7.855   4.191   4.129
 8237TIP3    H224655   7.918   4.214   4.264
 8238TIP3   OH224656   4.587   5.544   4.952
 8238TIP3    H124657   4.520   5.580   4.894
 8238TIP3    H224658   4.658   5.608   4.949
 8239TIP3   OH224659   3.861   0.082   5.407
 8239TIP3    H124660   3.950   0.115   5.392
 8239TIP3    H224661   3.846   0.095   5.501
 8240TIP3   OH224662   2.225   1.484   6.443
 8240TIP3    H124663   2.316   1.513   6.440
 8240TIP3    H224664   2.177   1.558   6.481
 8241TIP3   OH224665   1.283   2.462   1.119
 8241TIP3    H124666   1.370   2.455   1.159
 8241TIP3    H224667   1.273   2.555   1.101
 8242TIP3   OH224668   6.395  -0.013   0.803
 8242TIP3    H124669   6.336  -0.022   0.728
 8242TIP3    H224670   6.482  -0.008   0.765
 8243TIP3   OH224671   6.397   6.547   4.526
 8243TIP3    H124672   6.446   6.522   4.448
 8243TIP3    H224673   6.458   6.602   4.576
 8244TIP3   OH224674   6.593   3.208   5.757
 8244TIP3    H124675   6.581   3.146   5.685
 8244TIP3    H224676   6.630   3.286   5.715
 8245TIP3   OH224677   4.625   0.132   4.223
 8245TIP3    H124678   4.661   0.122   4.311
 8245TIP3    H224679   4.701   0.152   4.168
 8246TIP3   OH224680   4.505   2.209   1.652
 8246TIP3    H124681   4.446   2.134   1.660
 8246TIP3    H224682   4.591   2.169   1.635
 8247TIP3   OH224683   3.744   1.078   0.291
 8247TIP3    H124684   3.653   1.062   0.269
 8247TIP3    H224685   3.760   1.023   0.368
 8248TIP3   OH224686   2.601   5.331   6.095
 8248TIP3    H124687   2.689   5.339   6.132
 8248TIP3    H224688   2.554   5.277   6.159
 8249TIP3   OH224689   3.929   7.017   4.290
 8249TIP3    H124690   3.900   7.009   4.199
 8249TIP3    H224691   3.964   6.931   4.312
 8250TIP3   OH224692   7.754   7.011   1.391
 8250TIP3    H124693   7.661   6.999   1.410
 8250TIP3    H224694   7.793   6.927   1.412
 8251TIP3   OH224695   3.647   1.942   1.724
 8251TIP3    H124696   3.688   1.871   1.773
 8251TIP3    H224697   3.601   1.994   1.790
 8252TIP3   OH224698   8.054   1.613   3.819
 8252TIP3    H124699   8.092   1.664   3.748
 8252TIP3    H224700   7.964   1.643   3.826
 8253TIP3   OH224701   8.225   4.522   5.059
 8253TIP3    H124702   8.233   4.530   5.154
 8253TIP3    H224703   8.135   4.547   5.040
 8254TIP3   OH224704   5.067   1.035   0.172
 8254TIP3    H124705   5.154   0.994   0.178
 8254TIP3    H224706   5.079   1.122   0.209
 8255TIP3   OH224707   4.224   5.055   6.194
 8255TIP3    H124708   4.189   5.128   6.143
 8255TIP3    H224709   4.163   4.983   6.178
 8256TIP3   OH224710   5.865   1.445   1.724
 8256TIP3    H124711   5.900   1.531   1.700
 8256TIP3    H224712   5.921   1.383   1.676
 8257TIP3   OH224713   7.015   1.445   2.901
 8257TIP3    H124714   7.048   1.370   2.952
 8257TIP3    H224715   6.934   1.470   2.945
 8258TIP3   OH224716   7.107   6.360   4.336
 8258TIP3    H124717   7.047   6.318   4.275
 8258TIP3    H224718   7.160   6.419   4.282
 8259TIP3   OH224719   6.991   4.773   1.049
 8259TIP3    H124720   6.955   4.690   1.019
 8259TIP3    H224721   6.917   4.834   1.047
 8260TIP3   OH224722   0.549   6.397   4.495
 8260TIP3    H124723   0.530   6.483   4.532
 8260TIP3    H224724   0.576   6.345   4.571
 8261TIP3   OH224725   5.536   5.862   4.279
 8261TIP3    H124726   5.556   5.769   4.267
 8261TIP3    H224727   5.539   5.875   4.374
 8262TIP3   OH224728   6.237   2.225   2.098
 8262TIP3    H124729   6.236   2.270   2.013
 8262TIP3    H224730   6.152   2.245   2.136
 8263TIP3   OH224731   2.780   5.186   1.020
 8263TIP3    H124732   2.701   5.182   1.073
 8263TIP3    H224733   2.849   5.153   1.077
 8264TIP3   OH224734   8.129   2.504   1.209
 8264TIP3    H124735   8.135   2.592   1.173
 8264TIP3    H224736   8.056   2.508   1.270
 8265TIP3   OH224737   0.501   5.305   3.372
 8265TIP3    H124738   0.416   5.346   3.387
 8265TIP3    H224739   0.540   5.357   3.302
 8266TIP3   OH224740   5.814   1.143   4.061
 8266TIP3    H124741   5.720   1.143   4.042
 8266TIP3    H224742   5.838   1.235   4.066
 8267TIP3   OH224743   0.611   7.616   2.197
 8267TIP3    H124744   0.634   7.681   2.131
 8267TIP3    H224745   0.567   7.546   2.148
 8268TIP3   OH224746   6.053   3.609   0.552
 8268TIP3    H124747   5.980   3.670   0.562
 8268TIP3    H224748   6.030   3.534   0.607
 8269TIP3   OH224749   3.316   4.431   0.267
 8269TIP3    H124750   3.222   4.417   0.274
 8269TIP3    H224751   3.340   4.394   0.182
 8270TIP3   OH224752   0.146   2.531   1.043
 8270TIP3    H124753   0.081   2.471   1.078
 8270TIP3    H224754   0.225   2.515   1.094
 8271TIP3   OH224755   5.672   3.249   2.616
 8271TIP3    H124756   5.688   3.334   2.657
 8271TIP3    H224757   5.715   3.255   2.531
 8272TIP3   OH224758   7.231   5.243   0.585
 8272TIP3    H124759   7.247   5.326   0.630
 8272TIP3    H224760   7.227   5.179   0.656
 8273TIP3   OH224761   0.020   6.117   0.475
 8273TIP3    H124762   0.095   6.121   0.416
 8273TIP3    H224763  -0.054   6.147   0.423
 8274TIP3   OH224764   6.157   1.890   3.104
 8274TIP3    H124765   6.112   1.806   3.093
 8274TIP3    H224766   6.197   1.907   3.018
 8275TIP3   OH224767   1.589   3.802   3.873
 8275TIP3    H124768   1.624   3.832   3.957
 8275TIP3    H224769   1.630   3.716   3.860
 8276TIP3   OH224770   3.272   6.671   4.356
 8276TIP3    H124771   3.348   6.715   4.320
 8276TIP3    H224772   3.198   6.702   4.304
 8277TIP3   OH224773   1.926   7.519   0.391
 8277TIP3    H124774   1.956   7.487   0.476
 8277TIP3    H224775   1.986   7.478   0.328
 8278TIP3   OH224776   3.619   5.824   3.453
 8278TIP3    H124777   3.621   5.826   3.548
 8278TIP3    H224778   3.569   5.746   3.431
 8279TIP3   OH224779   3.681   4.849   5.501
 8279TIP3    H124780   3.708   4.758   5.493
 8279TIP3    H224781   3.602   4.846   5.555
 8280TIP3   OH224782   7.588   3.726   3.305
 8280TIP3    H124783   7.504   3.687   3.279
 8280TIP3    H224784   7.628   3.662   3.363
 8281TIP3   OH224785   1.273   4.740   1.664
 8281TIP3    H124786   1.313   4.741   1.577
 8281TIP3    H224787   1.327   4.800   1.716
 8282TIP3   OH224788   3.770   1.345   6.140
 8282TIP3    H124789   3.714   1.410   6.097
 8282TIP3    H224790   3.788   1.280   6.072
 8283TIP3   OH224791   3.810   4.247   1.787
 8283TIP3    H124792   3.745   4.297   1.837
 8283TIP3    H224793   3.762   4.216   1.711
 8284TIP3   OH224794   6.867   4.637   0.700
 8284TIP3    H124795   6.914   4.598   0.627
 8284TIP3    H224796   6.935   4.659   0.764
 8285TIP3   OH224797   4.691   0.267   3.126
 8285TIP3    H124798   4.770   0.219   3.099
 8285TIP3    H224799   4.645   0.284   3.043
 8286TIP3   OH224800   4.448   2.273   1.378
 8286TIP3    H124801   4.479   2.190   1.342
 8286TIP3    H224802   4.470   2.267   1.471
 8287TIP3   OH224803   7.507   6.684   4.210
 8287TIP3    H124804   7.469   6.607   4.166
 8287TIP3    H224805   7.455   6.694   4.289
 8288TIP3   OH224806   1.043   3.592   3.345
 8288TIP3    H124807   0.986   3.658   3.385
 8288TIP3    H224808   1.131   3.615   3.375
 8289TIP3   OH224809   0.518   0.483   6.176
 8289TIP3    H124810   0.505   0.577   6.192
 8289TIP3    H224811   0.431   0.445   6.187
 8290TIP3   OH224812   1.185   3.837   3.484
 8290TIP3    H124813   1.151   3.888   3.411
 8290TIP3    H224814   1.280   3.842   3.475
 8291TIP3   OH224815   1.345   6.476   3.626
 8291TIP3    H124816   1.328   6.521   3.708
 8291TIP3    H224817   1.258   6.456   3.590
 8292TIP3   OH224818   3.190   0.448   3.579
 8292TIP3    H124819   3.263   0.476   3.634
 8292TIP3    H224820   3.197   0.502   3.500
 8293TIP3   OH224821   4.193   7.038   4.552
 8293TIP3    H124822   4.219   7.083   4.632
 8293TIP3    H224823   4.097   7.045   4.551
 8294TIP3   OH224824   0.033   4.817   1.920
 8294TIP3    H124825  -0.055   4.852   1.938
 8294TIP3    H224826   0.092   4.889   1.939
 8295TIP3   OH224827   0.671   4.744   0.781
 8295TIP3    H124828   0.589   4.780   0.816
 8295TIP3    H224829   0.668   4.763   0.687
 8296TIP3   OH224830   0.589   2.297   5.236
 8296TIP3    H124831   0.553   2.349   5.164
 8296TIP3    H224832   0.534   2.320   5.311
 8297TIP3   OH224833   0.897   6.236   3.549
 8297TIP3    H124834   0.878   6.253   3.641
 8297TIP3    H224835   0.817   6.261   3.503
 8298TIP3   OH224836   4.629   2.067   5.279
 8298TIP3    H124837   4.571   2.084   5.353
 8298TIP3    H224838   4.715   2.055   5.320
 8299TIP3   OH224839  -0.021   7.396   2.484
 8299TIP3    H124840   0.043   7.336   2.522
 8299TIP3    H224841  -0.022   7.471   2.544
 8300TIP3   OH224842   0.716   6.232   6.500
 8300TIP3    H124843   0.739   6.162   6.561
 8300TIP3    H224844   0.652   6.192   6.441
 8301TIP3   OH224845   0.992   5.674   5.739
 8301TIP3    H124846   0.952   5.619   5.807
 8301TIP3    H224847   1.084   5.682   5.766
 8302TIP3   OH224848   5.115   5.239   4.044
 8302TIP3    H124849   5.023   5.239   4.069
 8302TIP3    H224850   5.139   5.332   4.037
 8303TIP3   OH224851   1.509   0.433   2.254
 8303TIP3    H124852   1.502   0.342   2.282
 8303TIP3    H224853   1.424   0.472   2.275
 8304TIP3   OH224854   6.822   5.638   3.921
 8304TIP3    H124855   6.764   5.584   3.868
 8304TIP3    H224856   6.859   5.702   3.860
 8305TIP3   OH224857   5.510   0.615   5.572
 8305TIP3    H124858   5.586   0.651   5.527
 8305TIP3    H224859   5.469   0.691   5.614
 8306TIP3   OH224860   0.848   3.344   0.537
 8306TIP3    H124861   0.880   3.425   0.577
 8306TIP3    H224862   0.777   3.372   0.479
 8307TIP3   OH224863   3.875   5.642   0.878
 8307TIP3    H124864   3.825   5.720   0.856
 8307TIP3    H224865   3.960   5.655   0.838
 8308TIP3   OH224866   5.215   4.444   1.621
 8308TIP3    H124867   5.278   4.474   1.687
 8308TIP3    H224868   5.231   4.349   1.615
 8309TIP3   OH224869   6.038   4.991   0.411
 8309TIP3    H124870   6.037   4.920   0.475
 8309TIP3    H224871   6.111   4.969   0.353
 8310TIP3   OH224872   1.613   0.745   6.627
 8310TIP3    H124873   1.592   0.656   6.599
 8310TIP3    H224874   1.529   0.781   6.655
 8311TIP3   OH224875   3.476   1.358   2.424
 8311TIP3    H124876   3.427   1.301   2.483
 8311TIP3    H224877   3.409   1.399   2.369
 8312TIP3   OH224878   7.611   0.464   6.341
 8312TIP3    H124879   7.630   0.531   6.276
 8312TIP3    H224880   7.624   0.508   6.425
 8313TIP3   OH224881   7.445   2.181   0.666
 8313TIP3    H124882   7.417   2.271   0.680
 8313TIP3    H224883   7.538   2.188   0.642
 8314TIP3   OH224884   2.283   5.266   3.346
 8314TIP3    H124885   2.317   5.199   3.405
 8314TIP3    H224886   2.220   5.220   3.290
 8315TIP3   OH224887   5.649   5.374   1.754
 8315TIP3    H124888   5.681   5.429   1.683
 8315TIP3    H224889   5.715   5.382   1.822
 8316TIP3   OH224890   5.723   1.079   4.806
 8316TIP3    H124891   5.714   0.992   4.767
 8316TIP3    H224892   5.713   1.064   4.900
 8317TIP3   OH224893   1.423   3.654   0.212
 8317TIP3    H124894   1.516   3.635   0.225
 8317TIP3    H224895   1.382   3.631   0.295
 8318TIP3   OH224896   6.182   1.933   2.840
 8318TIP3    H124897   6.269   1.961   2.811
 8318TIP3    H224898   6.157   1.864   2.779
 8319TIP3   OH224899   6.052   5.088   0.860
 8319TIP3    H124900   6.088   5.157   0.915
 8319TIP3    H224901   5.995   5.133   0.799
 8320TIP3   OH224902   5.108   0.133   2.624
 8320TIP3    H124903   5.047   0.192   2.579
 8320TIP3    H224904   5.106   0.053   2.571
 8321TIP3   OH224905   6.861   4.745   2.189
 8321TIP3    H124906   6.826   4.780   2.107
 8321TIP3    H224907   6.933   4.805   2.211
 8322TIP3   OH224908   0.556   4.568   1.362
 8322TIP3    H124909   0.466   4.576   1.331
 8322TIP3    H224910   0.555   4.490   1.419
 8323TIP3   OH224911   2.161   5.136   2.246
 8323TIP3    H124912   2.208   5.053   2.256
 8323TIP3    H224913   2.138   5.140   2.154
 8324TIP3   OH224914   5.646   2.550   6.245
 8324TIP3    H124915   5.716   2.536   6.181
 8324TIP3    H224916   5.573   2.498   6.212
 8325TIP3   OH224917   1.265   5.917   5.587
 8325TIP3    H124918   1.301   5.852   5.526
 8325TIP3    H224919   1.216   5.865   5.651
 8326TIP3   OH224920   6.296   6.763   3.846
 8326TIP3    H124921   6.372   6.778   3.790
 8326TIP3    H224922   6.255   6.850   3.853
 8327TIP3   OH224923   5.463   3.665   4.062
 8327TIP3    H124924   5.434   3.744   4.108
 8327TIP3    H224925   5.555   3.683   4.042
 8328TIP3   OH224926   6.962   2.088   0.200
 8328TIP3    H124927   6.993   2.133   0.279
 8328TIP3    H224928   7.006   2.132   0.128
 8329TIP3   OH224929   1.323   4.291   1.234
 8329TIP3    H124930   1.396   4.241   1.198
 8329TIP3    H224931   1.356   4.327   1.316
 8330TIP3   OH224932   3.587   6.908   6.308
 8330TIP3    H124933   3.591   7.004   6.311
 8330TIP3    H224934   3.635   6.885   6.229
 8331TIP3   OH224935   7.468   7.296   2.113
 8331TIP3    H124936   7.430   7.321   2.028
 8331TIP3    H224937   7.414   7.222   2.142
 8332TIP3   OH224938   0.069   3.731   1.892
 8332TIP3    H124939   0.035   3.755   1.978
 8332TIP3    H224940   0.036   3.642   1.877
 8333TIP3   OH224941   3.581   0.311   0.487
 8333TIP3    H124942   3.521   0.260   0.542
 8333TIP3    H224943   3.524   0.369   0.437
 8334TIP3   OH224944   2.438   2.800   3.533
 8334TIP3    H124945   2.394   2.864   3.477
 8334TIP3    H224946   2.435   2.718   3.484
 8335TIP3   OH224947   5.763   5.558   4.809
 8335TIP3    H124948   5.840   5.502   4.823
 8335TIP3    H224949   5.689   5.497   4.807
 8336TIP3   OH224950   6.509   3.533   3.668
 8336TIP3    H124951   6.493   3.520   3.575
 8336TIP3    H224952   6.479   3.622   3.686
 8337TIP3   OH224953  -0.025   4.094   0.151
 8337TIP3    H124954   0.049   4.120   0.096
 8337TIP3    H224955  -0.026   4.158   0.222
 8338TIP3   OH224956   7.824   4.684   1.253
 8338TIP3    H124957   7.728   4.678   1.245
 8338TIP3    H224958   7.839   4.685   1.348
 8339TIP3   OH224959   0.316   1.133   1.172
 8339TIP3    H124960   0.234   1.162   1.134
 8339TIP3    H224961   0.331   1.046   1.135
 8340TIP3   OH224962   4.443   7.572   0.709
 8340TIP3    H124963   4.489   7.656   0.700
 8340TIP3    H224964   4.473   7.537   0.793
 8341TIP3   OH224965   0.424   0.450   2.388
 8341TIP3    H124966   0.486   0.460   2.460
 8341TIP3    H224967   0.451   0.369   2.345
 8342TIP3   OH224968   0.368   2.362   1.548
 8342TIP3    H124969   0.334   2.345   1.636
 8342TIP3    H224970   0.339   2.451   1.528
 8343TIP3   OH224971   3.049   4.275   6.639
 8343TIP3    H124972   2.962   4.288   6.603
 8343TIP3    H224973   3.042   4.305   6.730
 8344TIP3   OH224974   5.765   3.135   5.374
 8344TIP3    H124975   5.669   3.127   5.372
 8344TIP3    H224976   5.784   3.167   5.462
 8345TIP3   OH224977   6.211   7.209   2.308
 8345TIP3    H124978   6.124   7.247   2.304
 8345TIP3    H224979   6.269   7.282   2.332
 8346TIP3   OH224980   6.731   3.844   2.344
 8346TIP3    H124981   6.701   3.860   2.254
 8346TIP3    H224982   6.651   3.825   2.393
 8347TIP3   OH224983   6.584   5.151   5.377
 8347TIP3    H124984   6.529   5.074   5.385
 8347TIP3    H224985   6.605   5.156   5.284
 8348TIP3   OH224986   5.322   5.078   5.403
 8348TIP3    H124987   5.228   5.080   5.416
 8348TIP3    H224988   5.333   5.066   5.308
 8349TIP3   OH224989   7.119   6.474   3.516
 8349TIP3    H124990   7.036   6.517   3.535
 8349TIP3    H224991   7.186   6.539   3.539
 8350TIP3   OH224992   1.732   3.244   5.983
 8350TIP3    H124993   1.680   3.321   6.004
 8350TIP3    H224994   1.678   3.195   5.921
 8351TIP3   OH224995   1.149   2.143   0.329
 8351TIP3    H124996   1.221   2.206   0.332
 8351TIP3    H224997   1.128   2.127   0.421
 8352TIP3   OH224998   4.433   5.565   1.444
 8352TIP3    H124999   4.527   5.580   1.455
 8352TIP3    H225000   4.405   5.633   1.382
 8353TIP3   OH225001   0.167   5.091   5.586
 8353TIP3    H125002   0.079   5.120   5.561
 8353TIP3    H225003   0.170   4.999   5.559
 8354TIP3   OH225004   3.441   1.640   2.581
 8354TIP3    H125005   3.524   1.680   2.608
 8354TIP3    H225006   3.467   1.577   2.513
 8355TIP3   OH225007   8.099   5.209   3.840
 8355TIP3    H125008   8.188   5.245   3.837
 8355TIP3    H225009   8.101   5.146   3.912
 8356TIP3   OH225010   5.028   0.695   3.676
 8356TIP3    H125011   5.046   0.691   3.770
 8356TIP3    H225012   5.030   0.789   3.656
 8357TIP3   OH225013   1.457   4.764   4.890
 8357TIP3    H125014   1.524   4.720   4.942
 8357TIP3    H225015   1.378   4.712   4.905
 8358TIP3   OH225016   3.287   4.790   1.647
 8358TIP3    H125017   3.234   4.870   1.652
 8358TIP3    H225018   3.365   4.810   1.698
 8359TIP3   OH225019   0.844   1.711   1.922
 8359TIP3    H125020   0.805   1.633   1.883
 8359TIP3    H225021   0.933   1.714   1.887
 8360TIP3   OH225022   6.260   3.507   5.432
 8360TIP3    H125023   6.348   3.539   5.412
 8360TIP3    H225024   6.272   3.454   5.511
 8361TIP3   OH225025   3.017   4.469   2.628
 8361TIP3    H125026   2.956   4.424   2.687
 8361TIP3    H225027   3.008   4.562   2.652
 8362TIP3   OH225028   0.269   5.651   4.098
 8362TIP3    H125029   0.314   5.580   4.142
 8362TIP3    H225030   0.176   5.634   4.114
 8363TIP3   OH225031   0.624   5.253   2.208
 8363TIP3    H125032   0.580   5.170   2.189
 8363TIP3    H225033   0.574   5.292   2.279
 8364TIP3   OH225034   4.957   4.553   5.252
 8364TIP3    H125035   5.024   4.541   5.185
 8364TIP3    H225036   5.005   4.571   5.332
 8365TIP3   OH225037   6.171   3.330   3.556
 8365TIP3    H125038   6.262   3.341   3.526
 8365TIP3    H225039   6.163   3.237   3.575
 8366TIP3   OH225040   6.514   1.790   5.094
 8366TIP3    H125041   6.500   1.878   5.129
 8366TIP3    H225042   6.434   1.771   5.045
 8367TIP3   OH225043   1.671   7.035   1.293
 8367TIP3    H125044   1.671   6.939   1.286
 8367TIP3    H225045   1.641   7.065   1.207
 8368TIP3   OH225046   7.807   2.336   1.970
 8368TIP3    H125047   7.713   2.324   1.956
 8368TIP3    H225048   7.841   2.248   1.986
 8369TIP3   OH225049   5.615   7.059   5.896
 8369TIP3    H125050   5.555   7.127   5.924
 8369TIP3    H225051   5.695   7.105   5.871
 8370TIP3   OH225052   0.647   5.094   4.123
 8370TIP3    H125053   0.688   5.032   4.184
 8370TIP3    H225054   0.689   5.076   4.039
 8371TIP3   OH225055   5.324   2.267   4.948
 8371TIP3    H125056   5.285   2.345   4.989
 8371TIP3    H225057   5.389   2.237   5.012
 8372TIP3   OH225058   4.172   2.512   0.673
 8372TIP3    H125059   4.101   2.531   0.734
 8372TIP3    H225060   4.223   2.593   0.669
 8373TIP3   OH225061   3.337   2.447   5.732
 8373TIP3    H125062   3.395   2.501   5.786
 8373TIP3    H225063   3.396   2.396   5.677
 8374TIP3   OH225064   5.780   1.772   3.548
 8374TIP3    H125065   5.685   1.768   3.563
 8374TIP3    H225066   5.794   1.720   3.469
 8375TIP3   OH225067   4.806   0.973   3.651
 8375TIP3    H125068   4.806   0.949   3.558
 8375TIP3    H225069   4.762   1.058   3.653
 8376TIP3   OH225070   5.619   3.457   1.958
 8376TIP3    H125071   5.629   3.398   1.883
 8376TIP3    H225072   5.670   3.415   2.028
 8377TIP3   OH225073   6.233   0.842   5.525
 8377TIP3    H125074   6.148   0.853   5.481
 8377TIP3    H225075   6.231   0.752   5.558
 8378TIP3   OH225076   1.599   1.420   1.916
 8378TIP3    H125077   1.622   1.440   2.006
 8378TIP3    H225078   1.517   1.370   1.922
 8379TIP3   OH225079   3.316   6.524   2.008
 8379TIP3    H125080   3.386   6.468   1.974
 8379TIP3    H225081   3.275   6.562   1.930
 8380TIP3   OH225082   5.617   6.531   4.553
 8380TIP3    H125083   5.545   6.578   4.595
 8380TIP3    H225084   5.696   6.565   4.594
 8381TIP3   OH225085   1.268   0.328   0.414
 8381TIP3    H125086   1.224   0.406   0.379
 8381TIP3    H225087   1.210   0.297   0.483
 8382TIP3   OH225088   1.429   3.152   2.854
 8382TIP3    H125089   1.504   3.105   2.817
 8382TIP3    H225090   1.420   3.230   2.799
 8383TIP3   OH225091   0.301   2.223   6.421
 8383TIP3    H125092   0.344   2.184   6.344
 8383TIP3    H225093   0.369   2.226   6.488
 8384TIP3   OH225094   7.337   1.310   3.282
 8384TIP3    H125095   7.419   1.295   3.331
 8384TIP3    H225096   7.338   1.403   3.261
 8385TIP3   OH225097   6.352   3.326   1.495
 8385TIP3    H125098   6.399   3.281   1.425
 8385TIP3    H225099   6.418   3.381   1.537
 8386TIP3   OH225100   4.485   2.398   5.783
 8386TIP3    H125101   4.525   2.360   5.705
 8386TIP3    H225102   4.501   2.492   5.774
 8387TIP3   OH225103   1.598   7.599   3.908
 8387TIP3    H125104   1.634   7.688   3.907
 8387TIP3    H225105   1.578   7.582   4.000
 8388TIP3   OH225106   1.021   3.285   4.919
 8388TIP3    H125107   0.995   3.373   4.890
 8388TIP3    H225108   0.973   3.226   4.862
 8389TIP3   OH225109   3.708   3.177   6.101
 8389TIP3    H125110   3.778   3.223   6.055
 8389TIP3    H225111   3.647   3.246   6.126
 8390TIP3   OH225112   7.612   4.799   3.217
 8390TIP3    H125113   7.654   4.882   3.196
 8390TIP3    H225114   7.635   4.742   3.143
 8391TIP3   OH225115   5.018   6.529   0.882
 8391TIP3    H125116   5.028   6.434   0.884
 8391TIP3    H225117   5.081   6.561   0.947
 8392TIP3   OH225118   3.988   0.339   2.310
 8392TIP3    H125119   4.002   0.432   2.330
 8392TIP3    H225120   4.069   0.310   2.268
 8393TIP3   OH225121   3.884   5.492   3.000
 8393TIP3    H125122   3.819   5.533   3.058
 8393TIP3    H225123   3.930   5.565   2.960
 8394TIP3   OH225124   6.098   4.295   2.899
 8394TIP3    H125125   6.048   4.213   2.908
 8394TIP3    H225126   6.067   4.333   2.817
 8395TIP3   OH225127   2.649   6.024   3.198
 8395TIP3    H125128   2.738   6.021   3.165
 8395TIP3    H225129   2.634   5.937   3.236
 8396TIP3   OH225130   0.376   0.890   0.233
 8396TIP3    H125131   0.468   0.895   0.257
 8396TIP3    H225132   0.334   0.847   0.307
 8397TIP3   OH225133   8.161   2.890   6.304
 8397TIP3    H125134   8.116   2.961   6.259
 8397TIP3    H225135   8.121   2.887   6.391
 8398TIP3   OH225136   0.958   0.381   3.879
 8398TIP3    H125137   0.980   0.470   3.852
 8398TIP3    H225138   0.863   0.377   3.872
 8399TIP3   OH225139   3.624   5.000   1.280
 8399TIP3    H125140   3.567   4.960   1.214
 8399TIP3    H225141   3.647   4.928   1.338
 8400TIP3   OH225142   2.768   6.644   1.682
 8400TIP3    H125143   2.781   6.739   1.681
 8400TIP3    H225144   2.727   6.625   1.598
 8401TIP3   OH225145   1.909   3.234   2.780
 8401TIP3    H125146   1.821   3.229   2.815
 8401TIP3    H225147   1.964   3.253   2.855
 8402TIP3   OH225148   6.713   6.665   1.656
 8402TIP3    H125149   6.783   6.600   1.657
 8402TIP3    H225150   6.724   6.711   1.573
 8403TIP3   OH225151   3.339   1.184   1.235
 8403TIP3    H125152   3.252   1.167   1.200
 8403TIP3    H225153   3.347   1.280   1.236
 8404TIP3   OH225154   5.666   1.636   4.205
 8404TIP3    H125155   5.692   1.678   4.123
 8404TIP3    H225156   5.734   1.661   4.268
 8405TIP3   OH225157   6.092   5.646   4.733
 8405TIP3    H125158   6.177   5.688   4.724
 8405TIP3    H225159   6.109   5.571   4.790
 8406TIP3   OH225160   8.283   0.988   1.946
 8406TIP3    H125161   8.228   0.912   1.932
 8406TIP3    H225162   8.224   1.055   1.980
 8407TIP3   OH225163   4.001   4.915   1.581
 8407TIP3    H125164   4.012   4.904   1.487
 8407TIP3    H225165   4.079   4.875   1.619
 8408TIP3   OH225166   7.175   1.539   4.430
 8408TIP3    H125167   7.133   1.616   4.467
 8408TIP3    H225168   7.117   1.510   4.360
 8409TIP3   OH225169   4.408   1.047   3.942
 8409TIP3    H125170   4.435   1.100   4.017
 8409TIP3    H225171   4.484   0.990   3.924
 8410TIP3   OH225172   7.748   2.574   3.509
 8410TIP3    H125173   7.769   2.512   3.439
 8410TIP3    H225174   7.780   2.658   3.477
 8411TIP3   OH225175   1.271   6.293   6.299
 8411TIP3    H125176   1.250   6.299   6.392
 8411TIP3    H225177   1.204   6.344   6.255
 8412TIP3   OH225178   7.655   4.834   5.386
 8412TIP3    H125179   7.578   4.864   5.337
 8412TIP3    H225180   7.620   4.777   5.454
 8413TIP3   OH225181   0.452   2.362   4.533
 8413TIP3    H125182   0.363   2.396   4.547
 8413TIP3    H225183   0.445   2.310   4.453
 8414TIP3   OH225184   2.276   7.709   1.625
 8414TIP3    H125185   2.204   7.654   1.594
 8414TIP3    H225186   2.335   7.649   1.670
 8415TIP3   OH225187   2.119   0.291   5.359
 8415TIP3    H125188   2.043   0.233   5.356
 8415TIP3    H225189   2.127   0.316   5.451
 8416TIP3   OH225190   0.294   5.839   2.957
 8416TIP3    H125191   0.390   5.841   2.961
 8416TIP3    H225192   0.270   5.926   2.924
 8417TIP3   OH225193   0.557   6.647   5.881
 8417TIP3    H125194   0.505   6.615   5.955
 8417TIP3    H225195   0.602   6.570   5.848
 8418TIP3   OH225196   5.324   6.535   3.424
 8418TIP3    H125197   5.388   6.499   3.485
 8418TIP3    H225198   5.333   6.481   3.345
 8419TIP3   OH225199   0.268   4.127   3.435
 8419TIP3    H125200   0.320   4.161   3.362
 8419TIP3    H225201   0.199   4.192   3.447
 8420TIP3   OH225202   4.589   3.840   0.599
 8420TIP3    H125203   4.670   3.814   0.642
 8420TIP3    H225204   4.611   3.845   0.506
 8421TIP3   OH225205   7.498   2.876   0.272
 8421TIP3    H125206   7.486   2.782   0.258
 8421TIP3    H225207   7.586   2.883   0.310
 8422TIP3   OH225208   0.063   6.789   6.435
 8422TIP3    H125209   0.074   6.695   6.426
 8422TIP3    H225210   0.147   6.826   6.407
 8423TIP3   OH225211   5.448   5.633   0.189
 8423TIP3    H125212   5.380   5.585   0.237
 8423TIP3    H225213   5.506   5.666   0.257
 8424TIP3   OH225214   4.182   5.098   5.779
 8424TIP3    H125215   4.141   5.116   5.694
 8424TIP3    H225216   4.137   5.155   5.841
 8425TIP3   OH225217   0.378   4.206   0.629
 8425TIP3    H125218   0.451   4.239   0.682
 8425TIP3    H225219   0.305   4.201   0.690
 8426TIP3   OH225220   1.964   4.741   0.988
 8426TIP3    H125221   1.876   4.704   0.976
 8426TIP3    H225222   1.961   4.826   0.944
 8427TIP3   OH225223   1.448   4.854   5.498
 8427TIP3    H125224   1.381   4.907   5.542
 8427TIP3    H225225   1.503   4.820   5.570
 8428TIP3   OH225226   6.169   4.164   6.373
 8428TIP3    H125227   6.158   4.235   6.310
 8428TIP3    H225228   6.149   4.202   6.458
 8429TIP3   OH225229   0.725   2.381   4.330
 8429TIP3    H125230   0.643   2.331   4.337
 8429TIP3    H225231   0.793   2.314   4.323
 8430TIP3   OH225232   1.786   5.008   0.979
 8430TIP3    H125233   1.753   5.098   0.980
 8430TIP3    H225234   1.808   4.989   1.070
 8431TIP3   OH225235   0.050   2.365   4.584
 8431TIP3    H125236   0.067   2.281   4.627
 8431TIP3    H225237   0.011   2.342   4.500
 8432TIP3   OH225238   2.342   6.024   6.468
 8432TIP3    H125239   2.368   5.997   6.380
 8432TIP3    H225240   2.325   5.942   6.514
 8433TIP3   OH225241   0.026   2.054   0.026
 8433TIP3    H125242   0.072   2.064   0.109
 8433TIP3    H225243   0.089   2.084  -0.040
 8434TIP3   OH225244   6.881   6.183   1.106
 8434TIP3    H125245   6.972   6.204   1.126
 8434TIP3    H225246   6.837   6.267   1.102
 8435TIP3   OH225247   2.584   6.964   3.736
 8435TIP3    H125248   2.600   7.027   3.806
 8435TIP3    H225249   2.664   6.965   3.683
 8436TIP3   OH225250   0.557   2.985   1.276
 8436TIP3    H125251   0.488   2.938   1.230
 8436TIP3    H225252   0.632   2.926   1.273
 8437TIP3   OH225253   0.955   6.654   0.763
 8437TIP3    H125254   0.965   6.734   0.710
 8437TIP3    H225255   0.957   6.686   0.854
 8438TIP3   OH225256   7.297   6.060   3.092
 8438TIP3    H125257   7.335   6.143   3.121
 8438TIP3    H225258   7.349   5.993   3.136
 8439TIP3   OH225259   2.162   3.031   1.317
 8439TIP3    H125260   2.246   3.034   1.362
 8439TIP3    H225261   2.185   3.035   1.224
 8440TIP3   OH225262   5.257   5.483   4.002
 8440TIP3    H125263   5.317   5.507   3.931
 8440TIP3    H225264   5.268   5.552   4.067
 8441TIP3   OH225265   3.395   4.505   6.185
 8441TIP3    H125266   3.456   4.573   6.213
 8441TIP3    H225267   3.318   4.553   6.155
 8442TIP3   OH225268   5.485   3.462   1.647
 8442TIP3    H125269   5.437   3.427   1.722
 8442TIP3    H225270   5.520   3.385   1.602
 8443TIP3   OH225271   1.977   5.791   0.262
 8443TIP3    H125272   1.905   5.819   0.318
 8443TIP3    H225273   2.015   5.873   0.230
 8444TIP3   OH225274   3.669   2.905   1.593
 8444TIP3    H125275   3.731   2.957   1.643
 8444TIP3    H225276   3.615   2.862   1.659
 8445TIP3   OH225277   7.025   1.616   0.993
 8445TIP3    H125278   7.062   1.697   1.030
 8445TIP3    H225279   7.089   1.587   0.929
 8446TIP3   OH225280   5.146   6.957   5.250
 8446TIP3    H125281   5.102   6.999   5.176
 8446TIP3    H225282   5.128   6.864   5.239
 8447TIP3   OH225283   6.885   5.904   1.877
 8447TIP3    H125284   6.805   5.858   1.904
 8447TIP3    H225285   6.889   5.891   1.782
 8448TIP3   OH225286   0.693   0.323   0.616
 8448TIP3    H125287   0.689   0.232   0.586
 8448TIP3    H225288   0.624   0.367   0.566
 8449TIP3   OH225289   3.706   5.283   0.735
 8449TIP3    H125290   3.677   5.374   0.746
 8449TIP3    H225291   3.775   5.272   0.799
 8450TIP3   OH225292   7.517   4.698   1.329
 8450TIP3    H125293   7.427   4.697   1.296
 8450TIP3    H225294   7.509   4.684   1.423
 8451TIP3   OH225295   5.055   7.396   1.874
 8451TIP3    H125296   5.018   7.451   1.804
 8451TIP3    H225297   5.038   7.446   1.954
 8452TIP3   OH225298   4.913   4.867   5.022
 8452TIP3    H125299   5.005   4.840   5.021
 8452TIP3    H225300   4.875   4.824   4.946
 8453TIP3   OH225301   8.200   3.556   6.242
 8453TIP3    H125302   8.200   3.496   6.316
 8453TIP3    H225303   8.197   3.643   6.281
 8454TIP3   OH225304   5.789   1.744   0.684
 8454TIP3    H125305   5.734   1.667   0.697
 8454TIP3    H225306   5.857   1.714   0.623
 8455TIP3   OH225307   3.599   5.522   1.269
 8455TIP3    H125308   3.676   5.497   1.217
 8455TIP3    H225309   3.549   5.440   1.276
 8456TIP3   OH225310   3.573   5.205   5.554
 8456TIP3    H125311   3.555   5.187   5.462
 8456TIP3    H225312   3.553   5.298   5.565
 8457TIP3   OH225313   2.243   0.421   1.385
 8457TIP3    H125314   2.254   0.516   1.377
 8457TIP3    H225315   2.316   0.385   1.335
 8458TIP3   OH225316   1.739   5.532   2.441
 8458TIP3    H125317   1.809   5.476   2.475
 8458TIP3    H225318   1.712   5.585   2.515
 8459TIP3   OH225319   6.747   1.102   6.268
 8459TIP3    H125320   6.658   1.128   6.289
 8459TIP3    H225321   6.790   1.092   6.353
 8460TIP3   OH225322   1.010   6.201   2.520
 8460TIP3    H125323   0.967   6.272   2.473
 8460TIP3    H225324   1.075   6.245   2.575
 8461TIP3   OH225325   6.033   2.938   1.138
 8461TIP3    H125326   5.968   2.928   1.208
 8461TIP3    H225327   6.113   2.966   1.183
 8462TIP3   OH225328   4.087   3.691   3.565
 8462TIP3    H125329   4.099   3.601   3.596
 8462TIP3    H225330   4.163   3.706   3.508
 8463TIP3   OH225331   0.817   2.154   5.303
 8463TIP3    H125332   0.840   2.085   5.366
 8463TIP3    H225333   0.722   2.147   5.293
 8464TIP3   OH225334   6.079   0.365   6.666
 8464TIP3    H125335   6.140   0.341   6.735
 8464TIP3    H225336   6.045   0.282   6.634
 8465TIP3   OH225337   1.844   2.704   5.626
 8465TIP3    H125338   1.857   2.781   5.680
 8465TIP3    H225339   1.821   2.738   5.540
 8466TIP3   OH225340   0.072   0.150   4.147
 8466TIP3    H125341   0.098   0.241   4.131
 8466TIP3    H225342   0.077   0.140   4.243
 8467TIP3   OH225343   8.142   5.975   3.964
 8467TIP3    H125344   8.094   5.971   3.881
 8467TIP3    H225345   8.232   5.954   3.941
 8468TIP3   OH225346   4.073   6.631   0.636
 8468TIP3    H125347   4.156   6.669   0.665
 8468TIP3    H225348   4.065   6.658   0.545
 8469TIP3   OH225349   8.190   0.956   0.625
 8469TIP3    H125350   8.121   1.006   0.668
 8469TIP3    H225351   8.271   0.980   0.671
 8470TIP3   OH225352   0.985   0.466   3.577
 8470TIP3    H125353   0.998   0.376   3.546
 8470TIP3    H225354   1.074   0.500   3.588
 8471TIP3   OH225355   0.286   6.814   2.326
 8471TIP3    H125356   0.194   6.830   2.305
 8471TIP3    H225357   0.299   6.720   2.311
 8472TIP3   OH225358   3.105   2.341   0.630
 8472TIP3    H125359   3.078   2.269   0.574
 8472TIP3    H225360   3.038   2.408   0.617
 8473TIP3   OH225361   4.266   0.078   4.003
 8473TIP3    H125362   4.316   0.148   4.044
 8473TIP3    H225363   4.300   0.072   3.914
 8474TIP3   OH225364   6.371   0.252   4.311
 8474TIP3    H125365   6.318   0.312   4.258
 8474TIP3    H225366   6.353   0.279   4.402
 8475TIP3   OH225367   3.271   3.263   3.920
 8475TIP3    H125368   3.258   3.341   3.975
 8475TIP3    H225369   3.351   3.282   3.871
 8476TIP3   OH225370   5.421   2.772   0.827
 8476TIP3    H125371   5.401   2.683   0.855
 8476TIP3    H225372   5.358   2.826   0.873
 8477TIP3   OH225373   0.165   2.037   3.296
 8477TIP3    H125374   0.075   2.033   3.329
 8477TIP3    H225375   0.196   2.125   3.320
 8478TIP3   OH225376   7.103   6.511   2.450
 8478TIP3    H125377   7.133   6.444   2.512
 8478TIP3    H225378   7.056   6.574   2.504
 8479TIP3   OH225379   0.073   6.911   0.398
 8479TIP3    H125380   0.154   6.901   0.348
 8479TIP3    H225381   0.058   6.825   0.437
 8480TIP3   OH225382   3.870   7.658   5.023
 8480TIP3    H125383   3.908   7.570   5.031
 8480TIP3    H225384   3.926   7.702   4.959
 8481TIP3   OH225385   4.475   7.536   1.017
 8481TIP3    H125386   4.463   7.445   1.044
 8481TIP3    H225387   4.411   7.585   1.068
 8482TIP3   OH225388   4.298   7.500   3.123
 8482TIP3    H125389   4.365   7.562   3.151
 8482TIP3    H225390   4.278   7.524   3.033
 8483TIP3   OH225391   0.047   7.683   5.007
 8483TIP3    H125392   0.027   7.717   4.920
 8483TIP3    H225393   0.110   7.612   4.992
 8484TIP3   OH225394   5.089   6.500   3.576
 8484TIP3    H125395   5.056   6.586   3.549
 8484TIP3    H225396   5.177   6.495   3.538
 8485TIP3   OH225397   1.356   3.624   1.400
 8485TIP3    H125398   1.401   3.556   1.350
 8485TIP3    H225399   1.264   3.597   1.401
 8486TIP3   OH225400   4.694   5.115   0.274
 8486TIP3    H125401   4.764   5.172   0.242
 8486TIP3    H225402   4.740   5.040   0.312
 8487TIP3   OH225403   5.181   2.337   0.717
 8487TIP3    H125404   5.131   2.379   0.647
 8487TIP3    H225405   5.251   2.290   0.672
 8488TIP3   OH225406   6.415   5.422   3.530
 8488TIP3    H125407   6.426   5.334   3.566
 8488TIP3    H225408   6.345   5.413   3.466
 8489TIP3   OH225409   4.935   7.569   2.724
 8489TIP3    H125410   4.848   7.608   2.732
 8489TIP3    H225411   4.945   7.550   2.630
 8490TIP3   OH225412   0.493   5.938   0.626
 8490TIP3    H125413   0.521   5.847   0.637
 8490TIP3    H225414   0.400   5.937   0.649
 8491TIP3   OH225415   0.942   2.413   0.810
 8491TIP3    H125416   0.940   2.338   0.751
 8491TIP3    H225417   1.030   2.411   0.848
 8492TIP3   OH225418   1.978   3.641   0.836
 8492TIP3    H125419   2.016   3.597   0.760
 8492TIP3    H225420   2.051   3.686   0.877
 8493TIP3   OH225421   4.851   3.331   0.421
 8493TIP3    H125422   4.761   3.333   0.455
 8493TIP3    H225423   4.867   3.421   0.393
 8494TIP3   OH225424   0.061   2.592   2.092
 8494TIP3    H125425  -0.027   2.571   2.122
 8494TIP3    H225426   0.064   2.688   2.092
 8495TIP3   OH225427   8.211   7.455   3.190
 8495TIP3    H125428   8.294   7.483   3.153
 8495TIP3    H225429   8.204   7.503   3.273
 8496TIP3   OH225430   4.895   0.160   2.947
 8496TIP3    H125431   4.962   0.180   2.882
 8496TIP3    H225432   4.814   0.156   2.898
 8497TIP3   OH225433   6.807   1.816   3.615
 8497TIP3    H125434   6.807   1.911   3.607
 8497TIP3    H225435   6.804   1.799   3.709
 8498TIP3   OH225436   1.227   4.368   4.291
 8498TIP3    H125437   1.189   4.288   4.325
 8498TIP3    H225438   1.209   4.434   4.358
 8499TIP3   OH225439   4.503   5.595   5.223
 8499TIP3    H125440   4.515   5.673   5.168
 8499TIP3    H225441   4.510   5.522   5.161
 8500TIP3   OH225442   1.172   3.136   0.914
 8500TIP3    H125443   1.172   3.087   0.832
 8500TIP3    H225444   1.151   3.071   0.981
 8501TIP3   OH225445   3.901   2.093   3.921
 8501TIP3    H125446   3.971   2.112   3.858
 8501TIP3    H225447   3.834   2.158   3.901
 8502TIP3   OH225448   4.258   2.980   3.256
 8502TIP3    H125449   4.187   2.925   3.287
 8502TIP3    H225450   4.267   2.959   3.164
 8503TIP3   OH225451   1.729   0.866   2.993
 8503TIP3    H125452   1.808   0.851   3.046
 8503TIP3    H225453   1.721   0.786   2.941
 8504TIP3   OH225454   1.008   0.650   0.663
 8504TIP3    H125455   0.985   0.557   0.671
 8504TIP3    H225456   1.042   0.659   0.574
 8505TIP3   OH225457   7.204   3.401   2.736
 8505TIP3    H125458   7.126   3.350   2.758
 8505TIP3    H225459   7.272   3.367   2.794
 8506TIP3   OH225460   6.630   5.537   3.416
 8506TIP3    H125461   6.652   5.497   3.332
 8506TIP3    H225462   6.575   5.472   3.461
 8507TIP3   OH225463   3.681   2.793   3.638
 8507TIP3    H125464   3.685   2.850   3.715
 8507TIP3    H225465   3.762   2.743   3.641
 8508TIP3   OH225466   1.860   4.247   1.030
 8508TIP3    H125467   1.832   4.264   0.940
 8508TIP3    H225468   1.856   4.332   1.072
 8509TIP3   OH225469   4.819   5.813   2.241
 8509TIP3    H125470   4.850   5.776   2.324
 8509TIP3    H225471   4.839   5.906   2.247
 8510TIP3   OH225472   2.747   6.568   6.126
 8510TIP3    H125473   2.728   6.626   6.052
 8510TIP3    H225474   2.731   6.480   6.093
 8511TIP3   OH225475   1.249   0.258   3.384
 8511TIP3    H125476   1.264   0.168   3.357
 8511TIP3    H225477   1.189   0.252   3.458
 8512TIP3   OH225478   8.107   0.376   0.811
 8512TIP3    H125479   8.086   0.391   0.719
 8512TIP3    H225480   8.025   0.390   0.857
 8513TIP3   OH225481   1.127   1.546   5.600
 8513TIP3    H125482   1.133   1.470   5.542
 8513TIP3    H225483   1.206   1.541   5.654
 8514TIP3   OH225484   1.539   2.115   0.833
 8514TIP3    H125485   1.628   2.116   0.870
 8514TIP3    H225486   1.484   2.084   0.905
 8515TIP3   OH225487   2.850   5.889   0.332
 8515TIP3    H125488   2.875   5.843   0.412
 8515TIP3    H225489   2.906   5.966   0.329
 8516TIP3   OH225490   6.316   4.556   1.968
 8516TIP3    H125491   6.379   4.629   1.971
 8516TIP3    H225492   6.261   4.575   1.892
 8517TIP3   OH225493   5.764   3.314   2.351
 8517TIP3    H125494   5.831   3.382   2.360
 8517TIP3    H225495   5.812   3.235   2.330
 8518TIP3   OH225496   7.924   2.418   5.177
 8518TIP3    H125497   7.853   2.478   5.153
 8518TIP3    H225498   7.920   2.348   5.111
 8519TIP3   OH225499   3.085   5.065   1.556
 8519TIP3    H125500   3.011   5.096   1.504
 8519TIP3    H225501   3.045   5.015   1.627
 8520TIP3   OH225502   1.195   3.913   4.007
 8520TIP3    H125503   1.202   3.966   3.928
 8520TIP3    H225504   1.111   3.938   4.045
 8521TIP3   OH225505   4.786   2.980   1.616
 8521TIP3    H125506   4.726   2.912   1.646
 8521TIP3    H225507   4.763   3.057   1.668
 8522TIP3   OH225508   6.367   1.683   2.201
 8522TIP3    H125509   6.335   1.773   2.208
 8522TIP3    H225510   6.377   1.668   2.107
 8523TIP3   OH225511   0.258   4.440   0.987
 8523TIP3    H125512   0.300   4.394   1.060
 8523TIP3    H225513   0.172   4.398   0.978
 8524TIP3   OH225514   3.827   1.727   0.760
 8524TIP3    H125515   3.766   1.656   0.780
 8524TIP3    H225516   3.868   1.702   0.677
 8525TIP3   OH225517   1.943   3.066   4.183
 8525TIP3    H125518   1.974   3.052   4.094
 8525TIP3    H225519   1.864   3.119   4.172
 8526TIP3   OH225520   3.692   6.254   6.123
 8526TIP3    H125521   3.602   6.231   6.145
 8526TIP3    H225522   3.684   6.308   6.044
 8527TIP3   OH225523   6.529   6.790   0.589
 8527TIP3    H125524   6.445   6.745   0.590
 8527TIP3    H225525   6.530   6.837   0.505
 8528TIP3   OH225526   3.342   6.688   2.782
 8528TIP3    H125527   3.395   6.651   2.711
 8528TIP3    H225528   3.292   6.613   2.815
 8529TIP3   OH225529   5.973   2.260   4.419
 8529TIP3    H125530   6.034   2.291   4.352
 8529TIP3    H225531   5.901   2.323   4.418
 8530TIP3   OH225532   1.304   3.093   2.569
 8530TIP3    H125533   1.291   3.098   2.474
 8530TIP3    H225534   1.216   3.099   2.605
 8531TIP3   OH225535   5.743   2.601   2.123
 8531TIP3    H125536   5.703   2.515   2.132
 8531TIP3    H225537   5.829   2.583   2.084
 8532TIP3   OH225538   0.079   3.142   1.142
 8532TIP3    H125539   0.144   3.205   1.111
 8532TIP3    H225540   0.129   3.062   1.157
 8533TIP3   OH225541   2.204   5.023   4.718
 8533TIP3    H125542   2.169   5.065   4.639
 8533TIP3    H225543   2.241   5.095   4.769
 8534TIP3   OH225544   0.230   7.648   1.816
 8534TIP3    H125545   0.321   7.622   1.797
 8534TIP3    H225546   0.212   7.608   1.901
 8535TIP3   OH225547   2.862   5.535   1.263
 8535TIP3    H125548   2.871   5.556   1.170
 8535TIP3    H225549   2.904   5.608   1.308
 8536TIP3   OH225550   2.655   6.029   2.840
 8536TIP3    H125551   2.707   6.056   2.765
 8536TIP3    H225552   2.630   6.111   2.883
 8537TIP3   OH225553   4.252   4.047   1.544
 8537TIP3    H125554   4.192   4.092   1.605
 8537TIP3    H225555   4.309   4.116   1.511
 8538TIP3   OH225556   0.471   2.013   3.719
 8538TIP3    H125557   0.458   2.103   3.689
 8538TIP3    H225558   0.448   1.959   3.644
 8539TIP3   OH225559   3.827   0.692   3.568
 8539TIP3    H125560   3.907   0.678   3.619
 8539TIP3    H225561   3.792   0.775   3.600
 8540TIP3   OH225562   3.615   4.395   4.656
 8540TIP3    H125563   3.559   4.349   4.718
 8540TIP3    H225564   3.704   4.374   4.684
 8541TIP3   OH225565   3.828   7.728   6.263
 8541TIP3    H125566   3.751   7.741   6.207
 8541TIP3    H225567   3.797   7.673   6.335
 8542TIP3   OH225568   7.851   3.345   4.338
 8542TIP3    H125569   7.873   3.434   4.366
 8542TIP3    H225570   7.899   3.288   4.398
 8543TIP3   OH225571   3.062   5.924   2.348
 8543TIP3    H125572   3.112   5.856   2.393
 8543TIP3    H225573   2.973   5.888   2.342
 8544TIP3   OH225574   7.305   3.532   1.955
 8544TIP3    H125575   7.395   3.498   1.962
 8544TIP3    H225576   7.251   3.464   1.997
 8545TIP3   OH225577   2.782   3.549   3.273
 8545TIP3    H125578   2.803   3.465   3.314
 8545TIP3    H225579   2.801   3.614   3.341
 8546TIP3   OH225580   2.171   1.058   1.848
 8546TIP3    H125581   2.247   1.085   1.901
 8546TIP3    H225582   2.108   1.026   1.912
 8547TIP3   OH225583   0.231   5.035   2.986
 8547TIP3    H125584   0.232   5.087   2.906
 8547TIP3    H225585   0.138   5.027   3.008
 8548TIP3   OH225586   3.442   6.989   3.599
 8548TIP3    H125587   3.485   7.039   3.669
 8548TIP3    H225588   3.467   6.898   3.616
 8549TIP3   OH225589   6.063   4.235   1.951
 8549TIP3    H125590   6.096   4.292   2.021
 8549TIP3    H225591   6.131   4.237   1.884
 8550TIP3   OH225592   7.092   4.176   1.073
 8550TIP3    H125593   7.007   4.163   1.030
 8550TIP3    H225594   7.104   4.271   1.073
 8551TIP3   OH225595   2.785   2.231   2.187
 8551TIP3    H125596   2.708   2.224   2.244
 8551TIP3    H225597   2.819   2.142   2.182
 8552TIP3   OH225598   0.122   4.456   2.374
 8552TIP3    H125599   0.072   4.379   2.346
 8552TIP3    H225600   0.082   4.482   2.457
 8553TIP3   OH225601   3.973   5.680   2.135
 8553TIP3    H125602   3.920   5.713   2.207
 8553TIP3    H225603   3.974   5.585   2.149
 8554TIP3   OH225604   0.641   1.227   3.863
 8554TIP3    H125605   0.612   1.314   3.890
 8554TIP3    H225606   0.574   1.197   3.802
 8555TIP3   OH225607   0.556   7.080   4.293
 8555TIP3    H125608   0.500   7.004   4.313
 8555TIP3    H225609   0.496   7.143   4.252
 8556TIP3   OH225610   2.249   2.027   6.567
 8556TIP3    H125611   2.235   2.083   6.643
 8556TIP3    H225612   2.267   1.940   6.604
 8557TIP3   OH225613   5.209   2.906   3.194
 8557TIP3    H125614   5.291   2.872   3.229
 8557TIP3    H225615   5.153   2.830   3.185
 8558TIP3   OH225616   7.545   2.682   5.385
 8558TIP3    H125617   7.489   2.616   5.344
 8558TIP3    H225618   7.630   2.671   5.342
 8559TIP3   OH225619   8.082   5.784   0.642
 8559TIP3    H125620   8.009   5.779   0.703
 8559TIP3    H225621   8.131   5.862   0.669
 8560TIP3   OH225622   7.682   6.122   3.254
 8560TIP3    H125623   7.646   6.042   3.216
 8560TIP3    H225624   7.624   6.192   3.224
 8561TIP3   OH225625   4.043   7.404   6.391
 8561TIP3    H125626   4.138   7.398   6.376
 8561TIP3    H225627   4.035   7.433   6.482
 8562TIP3   OH225628   4.295   0.726   0.611
 8562TIP3    H125629   4.316   0.817   0.588
 8562TIP3    H225630   4.364   0.674   0.569
 8563TIP3   OH225631   7.674   5.654   5.552
 8563TIP3    H125632   7.636   5.734   5.517
 8563TIP3    H225633   7.687   5.598   5.476
 8564TIP3   OH225634   7.728   4.935   4.752
 8564TIP3    H125635   7.687   4.946   4.666
 8564TIP3    H225636   7.821   4.950   4.736
 8565TIP3   OH225637   5.714   0.994   2.546
 8565TIP3    H125638   5.694   0.955   2.631
 8565TIP3    H225639   5.806   0.972   2.530
 8566TIP3   OH225640   3.452   6.562   0.043
 8566TIP3    H125641   3.488   6.503  -0.023
 8566TIP3    H225642   3.406   6.629  -0.007
 8567TIP3   OH225643   6.728   5.797   3.032
 8567TIP3    H125644   6.766   5.720   3.074
 8567TIP3    H225645   6.667   5.762   2.968
 8568TIP3   OH225646   6.679   7.231   4.613
 8568TIP3    H125647   6.651   7.273   4.531
 8568TIP3    H225648   6.620   7.157   4.623
 8569TIP3   OH225649   6.611   0.865   2.299
 8569TIP3    H125650   6.589   0.863   2.392
 8569TIP3    H225651   6.559   0.794   2.260
 8570TIP3   OH225652   2.850   1.687   4.035
 8570TIP3    H125653   2.814   1.775   4.047
 8570TIP3    H225654   2.943   1.696   4.056
 8571TIP3   OH225655   4.377   6.490   1.268
 8571TIP3    H125656   4.363   6.582   1.247
 8571TIP3    H225657   4.291   6.458   1.296
 8572TIP3   OH225658   3.887   4.042   6.069
 8572TIP3    H125659   3.914   4.018   5.980
 8572TIP3    H225660   3.800   4.004   6.079
 8573TIP3   OH225661   3.912   6.010   0.702
 8573TIP3    H125662   3.927   6.098   0.669
 8573TIP3    H225663   3.995   5.984   0.742
 8574TIP3   OH225664   1.056   2.807   2.941
 8574TIP3    H125665   1.101   2.888   2.961
 8574TIP3    H225666   1.121   2.753   2.896
 8575TIP3   OH225667   6.791   4.208   1.328
 8575TIP3    H125668   6.802   4.214   1.423
 8575TIP3    H225669   6.822   4.120   1.306
 8576TIP3   OH225670   4.045   4.285   1.353
 8576TIP3    H125671   4.118   4.311   1.409
 8576TIP3    H225672   4.077   4.298   1.264
 8577TIP3   OH225673   1.894   7.559   2.674
 8577TIP3    H125674   1.919   7.572   2.765
 8577TIP3    H225675   1.923   7.638   2.629
 8578TIP3   OH225676   1.743   0.527   5.412
 8578TIP3    H125677   1.721   0.539   5.505
 8578TIP3    H225678   1.836   0.546   5.407
 8579TIP3   OH225679   5.039   5.176   1.774
 8579TIP3    H125680   4.948   5.203   1.764
 8579TIP3    H225681   5.081   5.203   1.692
 8580TIP3   OH225682   5.441   4.448   0.468
 8580TIP3    H125683   5.405   4.515   0.527
 8580TIP3    H225684   5.367   4.389   0.451
 8581TIP3   OH225685   5.148   7.381   2.675
 8581TIP3    H125686   5.108   7.467   2.662
 8581TIP3    H225687   5.080   7.329   2.717
 8582TIP3   OH225688   7.833   4.142   3.695
 8582TIP3    H125689   7.753   4.164   3.646
 8582TIP3    H225690   7.847   4.049   3.675
 8583TIP3   OH225691   1.088   7.844   0.884
 8583TIP3    H125692   1.092   7.822   0.977
 8583TIP3    H225693   1.179   7.845   0.855
 8584TIP3   OH225694   3.029   3.827   1.370
 8584TIP3    H125695   3.117   3.801   1.344
 8584TIP3    H225696   2.974   3.751   1.348
 8585TIP3   OH225697   1.359   2.902   4.369
 8585TIP3    H125698   1.434   2.958   4.388
 8585TIP3    H225699   1.300   2.958   4.319
 8586TIP3   OH225700   8.313   5.516   4.898
 8586TIP3    H125701   8.227   5.498   4.938
 8586TIP3    H225702   8.365   5.554   4.969
 8587TIP3   OH225703   1.435   1.172   1.929
 8587TIP3    H125704   1.378   1.157   2.004
 8587TIP3    H225705   1.490   1.094   1.924
 8588TIP3   OH225706   0.169   6.420   4.475
 8588TIP3    H125707   0.220   6.348   4.513
 8588TIP3    H225708   0.132   6.383   4.395
 8589TIP3   OH225709   3.549   2.322   5.623
 8589TIP3    H125710   3.584   2.307   5.711
 8589TIP3    H225711   3.627   2.331   5.568
 8590TIP3   OH225712   0.751   3.204   1.201
 8590TIP3    H125713   0.690   3.139   1.236
 8590TIP3    H225714   0.833   3.188   1.247
 8591TIP3   OH225715   4.216   0.315   2.115
 8591TIP3    H125716   4.228   0.251   2.045
 8591TIP3    H225717   4.195   0.397   2.069
 8592TIP3   OH225718   8.121   4.837   2.987
 8592TIP3    H125719   8.026   4.838   2.993
 8592TIP3    H225720   8.142   4.757   2.939
 8593TIP3   OH225721   2.774   2.669   2.945
 8593TIP3    H125722   2.706   2.613   2.908
 8593TIP3    H225723   2.762   2.662   3.039
 8594TIP3   OH225724   1.345   3.708   3.878
 8594TIP3    H125725   1.291   3.778   3.914
 8594TIP3    H225726   1.429   3.750   3.859
 8595TIP3   OH225727   4.789   3.743   5.854
 8595TIP3    H125728   4.698   3.766   5.875
 8595TIP3    H225729   4.831   3.827   5.837
 8596TIP3   OH225730   6.641   5.711   6.528
 8596TIP3    H125731   6.583   5.772   6.573
 8596TIP3    H225732   6.614   5.715   6.436
 8597TIP3   OH225733   2.164   6.168   0.156
 8597TIP3    H125734   2.077   6.192   0.189
 8597TIP3    H225735   2.204   6.118   0.227
 8598TIP3   OH225736   0.834   4.535   0.232
 8598TIP3    H125737   0.771   4.559   0.164
 8598TIP3    H225738   0.781   4.492   0.299
 8599TIP3   OH225739   4.296   3.420   3.370
 8599TIP3    H125740   4.327   3.431   3.460
 8599TIP3    H225741   4.376   3.418   3.318
 8600TIP3   OH225742   2.889   7.039   2.955
 8600TIP3    H125743   2.814   6.981   2.941
 8600TIP3    H225744   2.966   6.984   2.937
 8601TIP3   OH225745   1.961   6.605   6.317
 8601TIP3    H125746   1.886   6.589   6.375
 8601TIP3    H225747   2.035   6.563   6.361
 8602TIP3   OH225748   1.395   7.396   3.052
 8602TIP3    H125749   1.307   7.358   3.042
 8602TIP3    H225750   1.448   7.323   3.085
 8603TIP3   OH225751   1.169   0.740   2.037
 8603TIP3    H125752   1.143   0.832   2.038
 8603TIP3    H225753   1.156   0.712   1.946
 8604TIP3   OH225754   1.355   2.298   5.452
 8604TIP3    H125755   1.410   2.358   5.504
 8604TIP3    H225756   1.309   2.245   5.517
 8605TIP3   OH225757   8.004   2.609   1.689
 8605TIP3    H125758   7.953   2.628   1.767
 8605TIP3    H225759   8.094   2.603   1.721
 8606TIP3   OH225760   2.332   0.619   4.186
 8606TIP3    H125761   2.314   0.707   4.152
 8606TIP3    H225762   2.427   0.615   4.193
 8607TIP3   OH225763   4.012   0.782   1.199
 8607TIP3    H125764   4.097   0.819   1.173
 8607TIP3    H225765   3.950   0.854   1.185
 8608TIP3   OH225766   3.329   1.639   4.283
 8608TIP3    H125767   3.285   1.575   4.337
 8608TIP3    H225768   3.411   1.597   4.257
 8609TIP3   OH225769   0.987   7.702   3.995
 8609TIP3    H125770   0.995   7.608   4.008
 8609TIP3    H225771   1.076   7.736   3.998
 8610TIP3   OH225772   7.511   4.902   0.884
 8610TIP3    H125773   7.501   4.964   0.811
 8610TIP3    H225774   7.554   4.826   0.845
 8611TIP3   OH225775   2.967   1.336   4.301
 8611TIP3    H125776   2.888   1.353   4.352
 8611TIP3    H225777   2.956   1.388   4.221
 8612TIP3   OH225778   3.052   4.942   4.490
 8612TIP3    H125779   3.103   5.013   4.528
 8612TIP3    H225780   2.965   4.952   4.529
 8613TIP3   OH225781   7.443   1.468   2.119
 8613TIP3    H125782   7.386   1.537   2.153
 8613TIP3    H225783   7.384   1.394   2.103
 8614TIP3   OH225784   2.772   4.410   0.712
 8614TIP3    H125785   2.698   4.467   0.735
 8614TIP3    H225786   2.840   4.471   0.684
 8615TIP3   OH225787   4.308   6.013   0.037
 8615TIP3    H125788   4.313   6.030  -0.057
 8615TIP3    H225789   4.311   5.918   0.044
 8616TIP3   OH225790   5.277   5.352   5.167
 8616TIP3    H125791   5.275   5.278   5.106
 8616TIP3    H225792   5.366   5.387   5.161
 8617TIP3   OH225793   6.278   5.062   5.441
 8617TIP3    H125794   6.189   5.088   5.464
 8617TIP3    H225795   6.277   5.058   5.345
 8618TIP3   OH225796   5.068   5.759   0.269
 8618TIP3    H125797   5.143   5.702   0.286
 8618TIP3    H225798   5.030   5.774   0.355
 8619TIP3   OH225799   2.741   6.335   1.685
 8619TIP3    H125800   2.775   6.288   1.761
 8619TIP3    H225801   2.776   6.287   1.610
 8620TIP3   OH225802   3.236   6.644   2.263
 8620TIP3    H125803   3.236   6.606   2.175
 8620TIP3    H225804   3.317   6.611   2.303
 8621TIP3   OH225805   0.110   3.513   6.756
 8621TIP3    H125806   0.099   3.418   6.765
 8621TIP3    H225807   0.088   3.547   6.843
 8622TIP3   OH225808   0.465   2.668   4.544
 8622TIP3    H125809   0.529   2.622   4.597
 8622TIP3    H225810   0.451   2.611   4.468
 8623TIP3   OH225811   5.037   6.783   3.467
 8623TIP3    H125812   5.032   6.756   3.375
 8623TIP3    H225813   5.110   6.845   3.470
 8624TIP3   OH225814   2.056   4.081   5.599
 8624TIP3    H125815   1.977   4.100   5.548
 8624TIP3    H225816   2.024   4.036   5.677
 8625TIP3   OH225817   0.435   3.029   2.239
 8625TIP3    H125818   0.400   2.977   2.312
 8625TIP3    H225819   0.518   3.062   2.272
 8626TIP3   OH225820   8.084   7.372   0.992
 8626TIP3    H125821   8.143   7.444   0.971
 8626TIP3    H225822   8.070   7.378   1.086
 8627TIP3   OH225823   4.835   3.559   2.429
 8627TIP3    H125824   4.774   3.612   2.377
 8627TIP3    H225825   4.855   3.614   2.505
 8628TIP3   OH225826   3.450  -0.010   5.246
 8628TIP3    H125827   3.389   0.041   5.192
 8628TIP3    H225828   3.466  -0.089   5.195
 8629TIP3   OH225829   0.147   0.189   3.226
 8629TIP3    H125830   0.114   0.120   3.169
 8629TIP3    H225831   0.154   0.266   3.169
 8630TIP3   OH225832   6.855   3.130   4.726
 8630TIP3    H125833   6.852   3.217   4.767
 8630TIP3    H225834   6.794   3.077   4.779
 8631TIP3   OH225835   5.634   1.022   6.515
 8631TIP3    H125836   5.676   1.030   6.429
 8631TIP3    H225837   5.673   1.092   6.568
 8632TIP3   OH225838   2.072   5.868   2.986
 8632TIP3    H125839   2.103   5.958   2.977
 8632TIP3    H225840   2.119   5.834   3.062
 8633TIP3   OH225841   5.132   7.175   1.329
 8633TIP3    H125842   5.130   7.119   1.251
 8633TIP3    H225843   5.049   7.156   1.373
 8634TIP3   OH225844   2.513   0.856   2.135
 8634TIP3    H125845   2.511   0.911   2.213
 8634TIP3    H225846   2.574   0.901   2.076
 8635TIP3   OH225847   6.054   7.599   6.706
 8635TIP3    H125848   6.146   7.578   6.722
 8635TIP3    H225849   6.008   7.564   6.783
 8636TIP3   OH225850   0.833   0.616   5.112
 8636TIP3    H125851   0.901   0.683   5.107
 8636TIP3    H225852   0.789   0.632   5.195
 8637TIP3   OH225853   7.139   4.701   0.652
 8637TIP3    H125854   7.149   4.708   0.557
 8637TIP3    H225855   7.203   4.634   0.678
 8638TIP3   OH225856   0.589   1.465   4.175
 8638TIP3    H125857   0.507   1.478   4.127
 8638TIP3    H225858   0.588   1.373   4.202
 8639TIP3   OH225859   1.088   2.911   1.178
 8639TIP3    H125860   1.027   2.984   1.191
 8639TIP3    H225861   1.057   2.843   1.239
 8640TIP3   OH225862   7.420   1.789   1.025
 8640TIP3    H125863   7.498   1.823   1.068
 8640TIP3    H225864   7.422   1.827   0.937
 8641TIP3   OH225865   1.384   3.715   6.011
 8641TIP3    H125866   1.360   3.626   6.036
 8641TIP3    H225867   1.324   3.771   6.060
 8642TIP3   OH225868   4.998   5.971   5.117
 8642TIP3    H125869   4.979   5.964   5.211
 8642TIP3    H225870   4.987   6.064   5.097
 8643TIP3   OH225871   6.448   1.379   3.085
 8643TIP3    H125872   6.514   1.341   3.027
 8643TIP3    H225873   6.413   1.305   3.135
 8644TIP3   OH225874   7.093   1.505   4.783
 8644TIP3    H125875   7.005   1.530   4.753
 8644TIP3    H225876   7.081   1.485   4.876
 8645TIP3   OH225877   5.565   7.499   6.378
 8645TIP3    H125878   5.522   7.538   6.302
 8645TIP3    H225879   5.514   7.531   6.453
 8646TIP3   OH225880   0.096   5.384   1.558
 8646TIP3    H125881   0.121   5.475   1.574
 8646TIP3    H225882   0.051   5.357   1.638
 8647TIP3   OH225883   4.998   4.516   0.131
 8647TIP3    H125884   4.917   4.537   0.176
 8647TIP3    H225885   5.051   4.470   0.196
 8648TIP3   OH225886   3.520   4.507   5.669
 8648TIP3    H125887   3.570   4.574   5.717
 8648TIP3    H225888   3.567   4.425   5.686
 8649TIP3   OH225889   5.046   3.261   6.472
 8649TIP3    H125890   4.992   3.195   6.429
 8649TIP3    H225891   5.102   3.295   6.402
 8650TIP3   OH225892   3.338   3.334   1.868
 8650TIP3    H125893   3.368   3.367   1.953
 8650TIP3    H225894   3.369   3.244   1.865
 8651TIP3   OH225895   5.924   0.584   0.361
 8651TIP3    H125896   5.870   0.591   0.440
 8651TIP3    H225897   5.983   0.510   0.380
 8652TIP3   OH225898   6.402   6.795   4.395
 8652TIP3    H125899   6.363   6.877   4.364
 8652TIP3    H225900   6.328   6.742   4.421
 8653TIP3   OH225901   3.700   7.171   4.212
 8653TIP3    H125902   3.733   7.255   4.245
 8653TIP3    H225903   3.768   7.108   4.235
 8654TIP3   OH225904   5.783   7.115   3.628
 8654TIP3    H125905   5.708   7.080   3.579
 8654TIP3    H225906   5.787   7.062   3.707
 8655TIP3   OH225907   1.881   1.712   0.929
 8655TIP3    H125908   1.883   1.681   0.838
 8655TIP3    H225909   1.838   1.641   0.977
 8656TIP3   OH225910   0.080   6.578   1.606
 8656TIP3    H125911   0.067   6.665   1.643
 8656TIP3    H225912   0.162   6.547   1.644
 8657TIP3   OH225913   5.769   0.851   1.877
 8657TIP3    H125914   5.778   0.782   1.812
 8657TIP3    H225915   5.858   0.873   1.903
 8658TIP3   OH225916   3.537   2.005   1.003
 8658TIP3    H125917   3.462   1.972   0.953
 8658TIP3    H225918   3.556   2.090   0.964
 8659TIP3   OH225919   0.881   0.503   4.657
 8659TIP3    H125920   0.885   0.453   4.576
 8659TIP3    H225921   0.960   0.479   4.705
 8660TIP3   OH225922   2.344   4.020   0.280
 8660TIP3    H125923   2.292   4.031   0.359
 8660TIP3    H225924   2.390   4.104   0.270
 8661TIP3   OH225925   2.757   6.739   6.344
 8661TIP3    H125926   2.736   6.679   6.272
 8661TIP3    H225927   2.744   6.826   6.306
 8662TIP3   OH225928   5.114   6.720   3.079
 8662TIP3    H125929   5.197   6.768   3.083
 8662TIP3    H225930   5.073   6.748   2.998
 8663TIP3   OH225931   1.050   5.244   6.313
 8663TIP3    H125932   1.025   5.297   6.389
 8663TIP3    H225933   1.068   5.157   6.350
 8664TIP3   OH225934   5.305   5.441  -0.027
 8664TIP3    H125935   5.366   5.513  -0.012
 8664TIP3    H225936   5.343   5.367   0.019
 8665TIP3   OH225937   5.102   5.745   1.692
 8665TIP3    H125938   5.060   5.659   1.697
 8665TIP3    H225939   5.192   5.726   1.666
 8666TIP3   OH225940   5.408  -0.009   5.776
 8666TIP3    H125941   5.419   0.076   5.820
 8666TIP3    H225942   5.345  -0.056   5.831
 8667TIP3   OH225943   5.855   4.405   0.240
 8667TIP3    H125944   5.850   4.309   0.236
 8667TIP3    H225945   5.835   4.434   0.151
 8668TIP3   OH225946   1.107   2.243   5.241
 8668TIP3    H125947   1.195   2.256   5.277
 8668TIP3    H225948   1.108   2.154   5.207
 8669TIP3   OH225949   4.507   5.084   2.914
 8669TIP3    H125950   4.543   5.125   2.836
 8669TIP3    H225951   4.419   5.120   2.921
 8670TIP3   OH225952   3.538   5.089   1.578
 8670TIP3    H125953   3.629   5.076   1.606
 8670TIP3    H225954   3.521   5.018   1.516
 8671TIP3   OH225955   5.566   2.158   2.635
 8671TIP3    H125956   5.636   2.184   2.574
 8671TIP3    H225957   5.537   2.073   2.602
 8672TIP3   OH225958   1.014   3.400   5.187
 8672TIP3    H125959   0.988   3.481   5.145
 8672TIP3    H225960   1.023   3.337   5.115
 8673TIP3   OH225961   3.623   6.034   4.824
 8673TIP3    H125962   3.644   6.117   4.866
 8673TIP3    H225963   3.527   6.030   4.823
 8674TIP3   OH225964   4.157   5.833   2.776
 8674TIP3    H125965   4.168   5.915   2.825
 8674TIP3    H225966   4.162   5.764   2.842
 8675TIP3   OH225967   5.832   0.498   0.084
 8675TIP3    H125968   5.773   0.423   0.083
 8675TIP3    H225969   5.868   0.500   0.172
 8676TIP3   OH225970   4.994   4.009   4.796
 8676TIP3    H125971   5.007   3.918   4.770
 8676TIP3    H225972   4.910   4.034   4.758
 8677TIP3   OH225973   6.396   2.212   4.542
 8677TIP3    H125974   6.326   2.159   4.504
 8677TIP3    H225975   6.379   2.209   4.636
 8678TIP3   OH225976   4.305   0.382   3.647
 8678TIP3    H125977   4.375   0.404   3.586
 8678TIP3    H225978   4.348   0.333   3.716
 8679TIP3   OH225979   5.767   4.723   6.200
 8679TIP3    H125980   5.673   4.714   6.211
 8679TIP3    H225981   5.797   4.765   6.281
 8680TIP3   OH225982   0.831   1.223   5.617
 8680TIP3    H125983   0.782   1.305   5.627
 8680TIP3    H225984   0.919   1.250   5.592
 8681TIP3   OH225985   0.585   5.488   5.510
 8681TIP3    H125986   0.528   5.415   5.487
 8681TIP3    H225987   0.659   5.480   5.450
 8682TIP3   OH225988   3.858   3.750   2.621
 8682TIP3    H125989   3.809   3.718   2.696
 8682TIP3    H225990   3.919   3.814   2.657
 8683TIP3   OH225991   2.525   1.919   4.513
 8683TIP3    H125992   2.480   1.836   4.526
 8683TIP3    H225993   2.493   1.950   4.428
 8684TIP3   OH225994   1.452   4.600   4.196
 8684TIP3    H125995   1.460   4.510   4.228
 8684TIP3    H225996   1.534   4.642   4.222
 8685TIP3   OH225997   5.212   1.115   6.321
 8685TIP3    H125998   5.285   1.060   6.292
 8685TIP3    H225999   5.237   1.204   6.294
 8686TIP3   OH226000   0.470   4.033   4.651
 8686TIP3    H126001   0.566   4.036   4.650
 8686TIP3    H226002   0.449   3.966   4.716
 8687TIP3   OH226003   7.088   1.886   3.441
 8687TIP3    H126004   7.163   1.827   3.449
 8687TIP3    H226005   7.053   1.892   3.530
 8688TIP3   OH226006   8.233   3.215   5.731
 8688TIP3    H126007   8.206   3.304   5.707
 8688TIP3    H226008   8.195   3.201   5.818
 8689TIP3   OH226009   1.347   5.680   6.311
 8689TIP3    H126010   1.325   5.599   6.357
 8689TIP3    H226011   1.366   5.743   6.380
 8690TIP3   OH226012   1.570   0.868   1.965
 8690TIP3    H126013   1.635   0.839   1.901
 8690TIP3    H226014   1.606   0.840   2.049
 8691TIP3   OH226015   1.876   2.222   1.232
 8691TIP3    H126016   1.913   2.308   1.251
 8691TIP3    H226017   1.784   2.228   1.259
 8692TIP3   OH226018   0.488   1.202   2.321
 8692TIP3    H126019   0.398   1.196   2.286
 8692TIP3    H226020   0.502   1.118   2.364
 8693TIP3   OH226021   4.559   4.266   6.543
 8693TIP3    H126022   4.506   4.313   6.478
 8693TIP3    H226023   4.541   4.174   6.526
 8694TIP3   OH226024   3.613   6.497   1.111
 8694TIP3    H126025   3.628   6.406   1.138
 8694TIP3    H226026   3.517   6.505   1.108
 8695TIP3   OH226027   2.315   2.374   5.840
 8695TIP3    H126028   2.398   2.349   5.800
 8695TIP3    H226029   2.339   2.407   5.926
 8696TIP3   OH226030   5.185   1.686   5.701
 8696TIP3    H126031   5.239   1.608   5.686
 8696TIP3    H226032   5.214   1.720   5.785
 8697TIP3   OH226033   3.794   4.038   3.128
 8697TIP3    H126034   3.739   4.115   3.146
 8697TIP3    H226035   3.772   3.976   3.197
 8698TIP3   OH226036   0.540   3.431   4.468
 8698TIP3    H126037   0.487   3.502   4.503
 8698TIP3    H226038   0.584   3.469   4.392
 8699TIP3   OH226039   2.228   1.205   0.436
 8699TIP3    H126040   2.176   1.236   0.510
 8699TIP3    H226041   2.174   1.225   0.359
 8700TIP3   OH226042   5.912   0.953   0.861
 8700TIP3    H126043   5.978   0.998   0.913
 8700TIP3    H226044   5.837   1.013   0.861
 8701TIP3   OH226045   4.058   7.505   1.592
 8701TIP3    H126046   3.987   7.569   1.597
 8701TIP3    H226047   4.047   7.463   1.506
 8702TIP3   OH226048   1.414   2.253   1.677
 8702TIP3    H126049   1.420   2.325   1.739
 8702TIP3    H226050   1.433   2.175   1.729
 8703TIP3   OH226051   6.715   2.894   1.809
 8703TIP3    H126052   6.642   2.892   1.870
 8703TIP3    H226053   6.792   2.881   1.864
 8704TIP3   OH226054   4.817   4.350   5.368
 8704TIP3    H126055   4.878   4.417   5.336
 8704TIP3    H226056   4.734   4.396   5.379
 8705TIP3   OH226057   4.274   0.329   1.467
 8705TIP3    H126058   4.317   0.368   1.391
 8705TIP3    H226059   4.181   0.335   1.447
 8706TIP3   OH226060   0.493   0.627   5.903
 8706TIP3    H126061   0.513   0.648   5.994
 8706TIP3    H226062   0.569   0.576   5.873
 8707TIP3   OH226063   3.669   2.289   4.774
 8707TIP3    H126064   3.740   2.248   4.725
 8707TIP3    H226065   3.599   2.224   4.773
 8708TIP3   OH226066   4.170   2.231   2.590
 8708TIP3    H126067   4.129   2.149   2.564
 8708TIP3    H226068   4.105   2.274   2.645
 8709TIP3   OH226069   6.271   1.006   0.736
 8709TIP3    H126070   6.229   1.057   0.667
 8709TIP3    H226071   6.214   0.930   0.748
 8710TIP3   OH226072   6.342   4.300   3.316
 8710TIP3    H126073   6.281   4.328   3.384
 8710TIP3    H226074   6.333   4.365   3.247
 8711TIP3   OH226075   5.467   6.598   2.322
 8711TIP3    H126076   5.447   6.688   2.296
 8711TIP3    H226077   5.405   6.545   2.272
 8712TIP3   OH226078   4.758   3.093   4.526
 8712TIP3    H126079   4.841   3.136   4.545
 8712TIP3    H226080   4.697   3.128   4.591
 8713TIP3   OH226081   8.265   3.036   4.916
 8713TIP3    H126082   8.306   3.115   4.950
 8713TIP3    H226083   8.238   3.060   4.827
 8714TIP3   OH226084   6.344   6.537   2.357
 8714TIP3    H126085   6.383   6.596   2.293
 8714TIP3    H226086   6.295   6.594   2.416
 8715TIP3   OH226087   4.651   6.445   1.347
 8715TIP3    H126088   4.688   6.476   1.429
 8715TIP3    H226089   4.564   6.487   1.342
 8716TIP3   OH226090   3.254   1.467   2.268
 8716TIP3    H126091   3.215   1.552   2.248
 8716TIP3    H226092   3.184   1.404   2.248
 8717TIP3   OH226093   3.075   3.573   6.432
 8717TIP3    H126094   3.115   3.647   6.387
 8717TIP3    H226095   3.085   3.593   6.525
 8718TIP3   OH226096   1.844   1.795   2.293
 8718TIP3    H126097   1.899   1.872   2.274
 8718TIP3    H226098   1.835   1.751   2.208
 8719TIP3   OH226099   7.651   6.932   0.118
 8719TIP3    H126100   7.598   6.854   0.135
 8719TIP3    H226101   7.689   6.916   0.031
 8720TIP3   OH226102   1.969   2.465   4.088
 8720TIP3    H126103   2.046   2.503   4.131
 8720TIP3    H226104   1.899   2.529   4.103
 8721TIP3   OH226105   0.130   3.620   3.127
 8721TIP3    H126106   0.208   3.644   3.177
 8721TIP3    H226107   0.057   3.657   3.176
 8722TIP3   OH226108   1.062   3.727   0.295
 8722TIP3    H126109   1.140   3.719   0.350
 8722TIP3    H226110   1.093   3.707   0.207
 8723TIP3   OH226111   7.479   1.328   5.113
 8723TIP3    H126112   7.501   1.418   5.090
 8723TIP3    H226113   7.563   1.282   5.114
 8724TIP3   OH226114   4.584   4.410   6.802
 8724TIP3    H126115   4.517   4.477   6.805
 8724TIP3    H226116   4.567   4.362   6.721
 8725TIP3   OH226117   1.062   2.549   3.636
 8725TIP3    H126118   1.125   2.479   3.656
 8725TIP3    H226119   0.987   2.530   3.693
 8726TIP3   OH226120   3.889   6.088   5.631
 8726TIP3    H126121   3.886   6.007   5.682
 8726TIP3    H226122   3.982   6.109   5.625
 8727TIP3   OH226123   2.230   6.210   2.665
 8727TIP3    H126124   2.259   6.147   2.599
 8727TIP3    H226125   2.135   6.212   2.657
 8728TIP3   OH226126   0.483   0.639   3.615
 8728TIP3    H126127   0.560   0.607   3.567
 8728TIP3    H226128   0.432   0.561   3.634
 8729TIP3   OH226129   0.827   2.872   2.369
 8729TIP3    H126130   0.832   2.898   2.277
 8729TIP3    H226131   0.788   2.947   2.414
 8730TIP3   OH226132   2.037   1.825   1.131
 8730TIP3    H126133   2.046   1.912   1.093
 8730TIP3    H226134   1.986   1.776   1.066
 8731TIP3   OH226135   6.176   6.888   3.490
 8731TIP3    H126136   6.089   6.847   3.492
 8731TIP3    H226137   6.171   6.952   3.419
 8732TIP3   OH226138   7.935   0.257   3.707
 8732TIP3    H126139   8.013   0.311   3.697
 8732TIP3    H226140   7.865   0.310   3.669
 8733TIP3   OH226141   7.252   2.403   0.177
 8733TIP3    H126142   7.272   2.496   0.167
 8733TIP3    H226143   7.257   2.387   0.271
 8734TIP3   OH226144   5.179   1.881   1.315
 8734TIP3    H126145   5.269   1.847   1.317
 8734TIP3    H226146   5.174   1.931   1.234
 8735TIP3   OH226147   1.762   0.093   3.698
 8735TIP3    H126148   1.765   0.065   3.789
 8735TIP3    H226149   1.701   0.166   3.697
 8736TIP3   OH226150   3.180   3.530   4.007
 8736TIP3    H126151   3.210   3.541   4.097
 8736TIP3    H226152   3.091   3.565   4.007
 8737TIP3   OH226153   5.201   1.507   6.568
 8737TIP3    H126154   5.179   1.597   6.593
 8737TIP3    H226155   5.216   1.511   6.473
 8738TIP3   OH226156   3.931   2.132   1.126
 8738TIP3    H126157   3.897   2.191   1.194
 8738TIP3    H226158   3.877   2.151   1.050
 8739TIP3   OH226159   7.485   3.980   3.927
 8739TIP3    H126160   7.555   3.987   3.861
 8739TIP3    H226161   7.459   3.888   3.923
 8740TIP3   OH226162   3.470   5.958   2.114
 8740TIP3    H126163   3.378   5.959   2.088
 8740TIP3    H226164   3.518   5.943   2.033
 8741TIP3   OH226165   6.769   0.259   2.218
 8741TIP3    H126166   6.816   0.306   2.286
 8741TIP3    H226167   6.824   0.183   2.197
 8742TIP3   OH226168   3.872   1.022   3.841
 8742TIP3    H126169   3.868   1.001   3.748
 8742TIP3    H226170   3.965   1.040   3.857
 8743TIP3   OH226171   4.420   5.687   4.799
 8743TIP3    H126172   4.447   5.740   4.724
 8743TIP3    H226173   4.340   5.643   4.771
 8744TIP3   OH226174   6.113   5.886   0.352
 8744TIP3    H126175   6.033   5.934   0.332
 8744TIP3    H226176   6.144   5.854   0.267
 8745TIP3   OH226177   2.497   1.173   6.494
 8745TIP3    H126178   2.441   1.131   6.559
 8745TIP3    H226179   2.581   1.128   6.503
 8746TIP3   OH226180   7.969   5.706   0.894
 8746TIP3    H126181   7.996   5.699   0.986
 8746TIP3    H226182   7.874   5.719   0.898
 8747TIP3   OH226183   2.513   5.788   2.740
 8747TIP3    H126184   2.598   5.746   2.724
 8747TIP3    H226185   2.499   5.845   2.664
 8748TIP3   OH226186   5.951   6.266   6.018
 8748TIP3    H126187   5.962   6.360   6.029
 8748TIP3    H226188   5.888   6.241   6.087
 8749TIP3   OH226189   5.215   2.832   2.353
 8749TIP3    H126190   5.286   2.794   2.302
 8749TIP3    H226191   5.259   2.897   2.408
 8750TIP3   OH226192   5.784   2.928   1.265
 8750TIP3    H126193   5.744   2.884   1.339
 8750TIP3    H226194   5.713   2.940   1.202
 8751TIP3   OH226195   1.831   2.082   5.351
 8751TIP3    H126196   1.905   2.033   5.316
 8751TIP3    H226197   1.815   2.150   5.286
 8752TIP3   OH226198   7.211   3.868   2.842
 8752TIP3    H126199   7.230   3.791   2.789
 8752TIP3    H226200   7.140   3.912   2.796
 8753TIP3   OH226201   5.397   7.518   3.905
 8753TIP3    H126202   5.475   7.463   3.914
 8753TIP3    H226203   5.418   7.597   3.954
 8754TIP3   OH226204   0.745   2.648   3.624
 8754TIP3    H126205   0.775   2.639   3.714
 8754TIP3    H226206   0.807   2.709   3.584
 8755TIP3   OH226207   0.271   2.150   4.868
 8755TIP3    H126208   0.232   2.162   4.955
 8755TIP3    H226209   0.197   2.153   4.808
 8756TIP3   OH226210   3.367   4.492   2.671
 8756TIP3    H126211   3.431   4.545   2.625
 8756TIP3    H226212   3.296   4.553   2.692
 8757TIP3   OH226213   2.091   2.093   3.431
 8757TIP3    H126214   2.150   2.108   3.505
 8757TIP3    H226215   2.144   2.044   3.368
 8758TIP3   OH226216   3.404   7.424   4.955
 8758TIP3    H126217   3.463   7.499   4.947
 8758TIP3    H226218   3.330   7.446   4.898
 8759TIP3   OH226219   2.790   6.530   2.447
 8759TIP3    H126220   2.804   6.573   2.362
 8759TIP3    H226221   2.807   6.598   2.512
 8760TIP3   OH226222   0.201   2.130   5.749
 8760TIP3    H126223   0.280   2.076   5.750
 8760TIP3    H226224   0.234   2.219   5.734
 8761TIP3   OH226225   0.380   4.184   6.461
 8761TIP3    H126226   0.433   4.189   6.540
 8761TIP3    H226227   0.442   4.164   6.391
 8762TIP3   OH226228   3.398   6.894   4.234
 8762TIP3    H126229   3.385   6.986   4.210
 8762TIP3    H226230   3.475   6.868   4.184
 8763TIP3   OH226231   6.052   2.143   3.082
 8763TIP3    H126232   6.067   2.149   2.987
 8763TIP3    H226233   6.076   2.054   3.105
 8764TIP3   OH226234   7.716   5.423   4.130
 8764TIP3    H126235   7.702   5.511   4.095
 8764TIP3    H226236   7.677   5.425   4.217
 8765TIP3   OH226237   2.617   2.760   5.570
 8765TIP3    H126238   2.665   2.825   5.620
 8765TIP3    H226239   2.681   2.726   5.507
 8766TIP3   OH226240   2.954   4.043   0.525
 8766TIP3    H126241   2.859   4.039   0.521
 8766TIP3    H226242   2.977   4.120   0.473
 8767TIP3   OH226243   3.715   5.982   5.350
 8767TIP3    H126244   3.795   5.958   5.303
 8767TIP3    H226245   3.744   6.043   5.418
 8768TIP3   OH226246   4.503   7.347   5.491
 8768TIP3    H126247   4.486   7.321   5.401
 8768TIP3    H226248   4.597   7.364   5.494
 8769TIP3   OH226249   3.318   6.031   5.670
 8769TIP3    H126250   3.294   6.104   5.726
 8769TIP3    H226251   3.270   6.046   5.588
 8770TIP3   OH226252   6.952   5.009  -0.006
 8770TIP3    H126253   6.922   5.014  -0.097
 8770TIP3    H226254   6.875   5.030   0.046
 8771TIP3   OH226255   3.309   1.494   5.159
 8771TIP3    H126256   3.232   1.484   5.215
 8771TIP3    H226257   3.325   1.406   5.125
 8772TIP3   OH226258   3.456   2.914   0.444
 8772TIP3    H126259   3.402   2.893   0.521
 8772TIP3    H226260   3.415   2.991   0.406
 8773TIP3   OH226261   3.795   3.895   0.767
 8773TIP3    H126262   3.718   3.894   0.711
 8773TIP3    H226263   3.830   3.806   0.762
 8774TIP3   OH226264   6.784   7.791   6.488
 8774TIP3    H126265   6.701   7.792   6.440
 8774TIP3    H226266   6.758   7.779   6.580
 8775TIP3   OH226267   3.288   0.665   6.279
 8775TIP3    H126268   3.316   0.628   6.195
 8775TIP3    H226269   3.323   0.754   6.279
 8776TIP3   OH226270   3.982   2.948   0.379
 8776TIP3    H126271   4.035   2.868   0.372
 8776TIP3    H226272   3.896   2.918   0.409
 8777TIP3   OH226273   1.555   1.442   4.043
 8777TIP3    H126274   1.518   1.383   3.978
 8777TIP3    H226275   1.565   1.388   4.122
 8778TIP3   OH226276   5.973   3.610   4.605
 8778TIP3    H126277   6.055   3.562   4.609
 8778TIP3    H226278   5.917   3.558   4.548
 8779TIP3   OH226279   1.170   0.031   2.295
 8779TIP3    H126280   1.132   0.038   2.383
 8779TIP3    H226281   1.238   0.099   2.293
 8780TIP3   OH226282   1.903   4.481   1.207
 8780TIP3    H126283   1.943   4.567   1.208
 8780TIP3    H226284   1.962   4.426   1.259
 8781TIP3   OH226285   2.000   5.615   2.755
 8781TIP3    H126286   1.978   5.545   2.694
 8781TIP3    H226287   2.093   5.633   2.738
 8782TIP3   OH226288   4.370   3.684   0.521
 8782TIP3    H126289   4.437   3.736   0.566
 8782TIP3    H226290   4.342   3.620   0.586
 8783TIP3   OH226291   7.031   2.251   0.430
 8783TIP3    H126292   7.119   2.289   0.427
 8783TIP3    H226293   7.032   2.195   0.508
 8784TIP3   OH226294   6.558   1.676   3.833
 8784TIP3    H126295   6.570   1.768   3.809
 8784TIP3    H226296   6.507   1.639   3.761
 8785TIP3   OH226297   0.334   4.098   2.156
 8785TIP3    H126298   0.314   4.010   2.126
 8785TIP3    H226299   0.315   4.154   2.081
 8786TIP3   OH226300   5.904   6.896   4.793
 8786TIP3    H126301   5.990   6.856   4.784
 8786TIP3    H226302   5.912   6.954   4.869
 8787TIP3   OH226303   0.706   6.996   3.967
 8787TIP3    H126304   0.611   7.006   3.964
 8787TIP3    H226305   0.721   6.904   3.944
 8788TIP3   OH226306   5.388   7.811   1.458
 8788TIP3    H126307   5.330   7.828   1.384
 8788TIP3    H226308   5.453   7.750   1.424
 8789TIP3   OH226309   3.539   1.427   2.819
 8789TIP3    H126310   3.605   1.476   2.771
 8789TIP3    H226311   3.482   1.494   2.857
 8790TIP3   OH226312   6.662   5.612   4.452
 8790TIP3    H126313   6.732   5.672   4.477
 8790TIP3    H226314   6.683   5.530   4.498
 8791TIP3   OH226315   5.829   4.765   5.315
 8791TIP3    H126316   5.818   4.853   5.351
 8791TIP3    H226317   5.841   4.779   5.221
 8792TIP3   OH226318   2.222   6.949   1.975
 8792TIP3    H126319   2.298   6.947   1.917
 8792TIP3    H226320   2.167   6.877   1.946
 8793TIP3   OH226321   1.686   0.580   3.802
 8793TIP3    H126322   1.718   0.669   3.812
 8793TIP3    H226323   1.649   0.558   3.888
 8794TIP3   OH226324   6.502   6.604  -0.009
 8794TIP3    H126325   6.423   6.622   0.042
 8794TIP3    H226326   6.555   6.548   0.048
 8795TIP3   OH226327   2.489   0.491   1.118
 8795TIP3    H126328   2.540   0.450   1.187
 8795TIP3    H226329   2.458   0.573   1.157
 8796TIP3   OH226330   5.140   4.554   5.062
 8796TIP3    H126331   5.235   4.543   5.057
 8796TIP3    H226332   5.109   4.528   4.975
 8797TIP3   OH226333   1.629   0.538   1.777
 8797TIP3    H126334   1.596   0.581   1.698
 8797TIP3    H226335   1.551   0.510   1.824
 8798TIP3   OH226336   2.067   5.162   1.968
 8798TIP3    H126337   2.031   5.082   1.929
 8798TIP3    H226338   1.991   5.207   2.005
 8799TIP3   OH226339   1.948   3.964   0.975
 8799TIP3    H126340   1.905   4.046   0.997
 8799TIP3    H226341   1.922   3.904   1.045
 8800TIP3   OH226342   5.868   4.133   0.233
 8800TIP3    H126343   5.793   4.079   0.205
 8800TIP3    H226344   5.932   4.070   0.264
 8801TIP3   OH226345   6.566   3.274   0.660
 8801TIP3    H126346   6.588   3.338   0.592
 8801TIP3    H226347   6.611   3.194   0.632
 8802TIP3   OH226348   1.168   0.268   5.957
 8802TIP3    H126349   1.085   0.316   5.965
 8802TIP3    H226350   1.143   0.184   5.918
 8803TIP3   OH226351   8.186   1.595   1.937
 8803TIP3    H126352   8.196   1.505   1.968
 8803TIP3    H226353   8.132   1.587   1.858
 8804TIP3   OH226354   4.791   6.128   5.444
 8804TIP3    H126355   4.831   6.045   5.420
 8804TIP3    H226356   4.726   6.105   5.511
 8805TIP3   OH226357   3.369   5.000   4.999
 8805TIP3    H126358   3.459   4.986   4.970
 8805TIP3    H226359   3.368   4.969   5.089
 8806TIP3   OH226360   1.848   2.717   4.066
 8806TIP3    H126361   1.783   2.788   4.058
 8806TIP3    H226362   1.863   2.689   3.976
 8807TIP3   OH226363   4.132   4.010   4.770
 8807TIP3    H126364   4.134   4.092   4.722
 8807TIP3    H226365   4.195   3.954   4.724
 8808TIP3   OH226366   3.424   1.748   6.473
 8808TIP3    H126367   3.395   1.706   6.554
 8808TIP3    H226368   3.489   1.813   6.501
 8809TIP3   OH226369   0.460   0.471   4.373
 8809TIP3    H126370   0.501   0.486   4.458
 8809TIP3    H226371   0.390   0.536   4.368
 8810TIP3   OH226372   2.322   7.277   6.123
 8810TIP3    H126373   2.242   7.244   6.082
 8810TIP3    H226374   2.350   7.207   6.181
 8811TIP3   OH226375   4.001   0.269   1.336
 8811TIP3    H126376   3.950   0.298   1.260
 8811TIP3    H226377   3.938   0.270   1.408
 8812TIP3   OH226378   4.586   1.363   5.226
 8812TIP3    H126379   4.611   1.420   5.153
 8812TIP3    H226380   4.534   1.419   5.284
 8813TIP3   OH226381   4.234   0.589   2.837
 8813TIP3    H126382   4.260   0.514   2.891
 8813TIP3    H226383   4.165   0.554   2.781
 8814TIP3   OH226384   8.104   5.848   5.553
 8814TIP3    H126385   8.048   5.778   5.586
 8814TIP3    H226386   8.165   5.805   5.493
 8815TIP3   OH226387   3.824   4.818   2.089
 8815TIP3    H126388   3.842   4.912   2.094
 8815TIP3    H226389   3.910   4.777   2.094
 8816TIP3   OH226390   7.374   1.877   2.661
 8816TIP3    H126391   7.339   1.887   2.750
 8816TIP3    H226392   7.346   1.789   2.634
 8817TIP3   OH226393   7.496   0.786   4.136
 8817TIP3    H126394   7.511   0.719   4.202
 8817TIP3    H226395   7.571   0.845   4.144
 8818TIP3   OH226396   5.565   0.792   2.050
 8818TIP3    H126397   5.637   0.813   1.991
 8818TIP3    H226398   5.546   0.700   2.033
 8819TIP3   OH226399   5.300   3.668   0.348
 8819TIP3    H126400   5.239   3.607   0.390
 8819TIP3    H226401   5.373   3.613   0.319
 8820TIP3   OH226402   6.110   4.466   1.219
 8820TIP3    H126403   6.123   4.492   1.128
 8820TIP3    H226404   6.137   4.374   1.222
 8821TIP3   OH226405   7.169   3.272   5.647
 8821TIP3    H126406   7.246   3.255   5.702
 8821TIP3    H226407   7.096   3.239   5.698
 8822TIP3   OH226408   7.082   3.470   1.125
 8822TIP3    H126409   7.088   3.554   1.170
 8822TIP3    H226410   7.118   3.406   1.187
 8823TIP3   OH226411   1.875   2.080   4.037
 8823TIP3    H126412   1.878   2.011   4.102
 8823TIP3    H226413   1.820   2.148   4.076
 8824TIP3   OH226414   4.373   3.089   6.180
 8824TIP3    H126415   4.329   3.006   6.159
 8824TIP3    H226416   4.371   3.139   6.098
 8825TIP3   OH226417   7.648   1.029   2.014
 8825TIP3    H126418   7.628   1.122   2.018
 8825TIP3    H226419   7.565   0.985   2.031
 8826TIP3   OH226420   1.303   5.218   1.172
 8826TIP3    H126421   1.244   5.146   1.146
 8826TIP3    H226422   1.378   5.209   1.114
 8827TIP3   OH226423   1.708   6.782   2.726
 8827TIP3    H126424   1.651   6.837   2.780
 8827TIP3    H226425   1.761   6.733   2.789
 8828TIP3   OH226426   4.397   0.678   3.871
 8828TIP3    H126427   4.467   0.736   3.842
 8828TIP3    H226428   4.347   0.659   3.792
 8829TIP3   OH226429   5.095   1.887   3.529
 8829TIP3    H126430   5.127   1.798   3.518
 8829TIP3    H226431   5.155   1.927   3.592
 8830TIP3   OH226432   2.390   1.503   5.717
 8830TIP3    H126433   2.315   1.472   5.767
 8830TIP3    H226434   2.374   1.596   5.705
 8831TIP3   OH226435   4.846   4.901   1.687
 8831TIP3    H126436   4.940   4.890   1.680
 8831TIP3    H226437   4.828   4.894   1.781
 8832TIP3   OH226438   2.212   6.248   2.940
 8832TIP3    H126439   2.236   6.215   2.853
 8832TIP3    H226440   2.273   6.204   3.000
 8833TIP3   OH226441   7.787   5.614   1.343
 8833TIP3    H126442   7.854   5.549   1.319
 8833TIP3    H226443   7.826   5.698   1.318
 8834TIP3   OH226444   8.055   1.180   2.010
 8834TIP3    H126445   7.989   1.148   2.072
 8834TIP3    H226446   8.115   1.232   2.063
 8835TIP3   OH226447   0.886   2.043   0.251
 8835TIP3    H126448   0.841   2.003   0.326
 8835TIP3    H226449   0.974   2.064   0.284
 8836TIP3   OH226450   3.326   5.302   4.556
 8836TIP3    H126451   3.399   5.360   4.580
 8836TIP3    H226452   3.298   5.334   4.470
 8837TIP3   OH226453   0.945   3.032   4.308
 8837TIP3    H126454   1.029   3.049   4.266
 8837TIP3    H226455   0.882   3.081   4.255
 8838TIP3   OH226456   3.246   7.269   1.040
 8838TIP3    H126457   3.221   7.180   1.018
 8838TIP3    H226458   3.205   7.323   0.972
 8839TIP3   OH226459   5.372   2.417   5.239
 8839TIP3    H126460   5.446   2.424   5.179
 8839TIP3    H226461   5.365   2.323   5.257
 8840TIP3   OH226462   7.670   3.851   1.974
 8840TIP3    H126463   7.615   3.798   2.031
 8840TIP3    H226464   7.658   3.813   1.887
 8841TIP3   OH226465   6.592   1.465   5.904
 8841TIP3    H126466   6.590   1.386   5.850
 8841TIP3    H226467   6.526   1.450   5.972
 8842TIP3   OH226468   0.090   7.617   4.164
 8842TIP3    H126469   0.010   7.566   4.153
 8842TIP3    H226470   0.060   7.704   4.191
 8843TIP3   OH226471   3.417   0.129   1.150
 8843TIP3    H126472   3.504   0.137   1.189
 8843TIP3    H226473   3.427   0.164   1.062
 8844TIP3   OH226474   0.221   5.599   5.684
 8844TIP3    H126475   0.291   5.662   5.701
 8844TIP3    H226476   0.211   5.551   5.766
 8845TIP3   OH226477   0.365   2.875   6.453
 8845TIP3    H126478   0.297   2.812   6.428
 8845TIP3    H226479   0.339   2.907   6.539
 8846TIP3   OH226480   2.872   4.031   3.041
 8846TIP3    H126481   2.893   3.965   3.107
 8846TIP3    H226482   2.817   4.095   3.087
 8847TIP3   OH226483   7.451   5.268   3.969
 8847TIP3    H126484   7.532   5.218   3.979
 8847TIP3    H226485   7.456   5.304   3.880
 8848TIP3   OH226486   3.153   4.647   6.139
 8848TIP3    H126487   3.146   4.724   6.196
 8848TIP3    H226488   3.067   4.605   6.145
 8849TIP3   OH226489   6.831   5.038   5.377
 8849TIP3    H126490   6.852   4.996   5.460
 8849TIP3    H226491   6.745   5.077   5.391
 8850TIP3   OH226492   1.172   3.933   0.628
 8850TIP3    H126493   1.140   3.920   0.717
 8850TIP3    H226494   1.093   3.943   0.575
 8851TIP3   OH226495   6.010   6.554   6.310
 8851TIP3    H126496   6.038   6.468   6.340
 8851TIP3    H226497   5.990   6.543   6.217
 8852TIP3   OH226498   2.766   3.557   1.953
 8852TIP3    H126499   2.791   3.559   2.045
 8852TIP3    H226500   2.844   3.586   1.906
 8853TIP3   OH226501   3.559   3.906   4.612
 8853TIP3    H126502   3.533   3.874   4.698
 8853TIP3    H226503   3.647   3.941   4.625
 8854TIP3   OH226504   5.363   0.183   2.573
 8854TIP3    H126505   5.415   0.118   2.621
 8854TIP3    H226506   5.278   0.182   2.615
 8855TIP3   OH226507   7.790   1.571   0.225
 8855TIP3    H126508   7.827   1.596   0.310
 8855TIP3    H226509   7.855   1.512   0.187
 8856TIP3   OH226510   2.666   2.590   0.370
 8856TIP3    H126511   2.655   2.619   0.279
 8856TIP3    H226512   2.577   2.583   0.404
 8857TIP3   OH226513   7.302   1.622   1.202
 8857TIP3    H126514   7.325   1.654   1.115
 8857TIP3    H226515   7.261   1.537   1.187
 8858TIP3   OH226516   5.666   5.031   4.460
 8858TIP3    H126517   5.751   4.988   4.454
 8858TIP3    H226518   5.667   5.098   4.393
 8859TIP3   OH226519   5.451   4.388   3.877
 8859TIP3    H126520   5.418   4.315   3.824
 8859TIP3    H226521   5.459   4.350   3.965
 8860TIP3   OH226522   6.243   2.723   2.550
 8860TIP3    H126523   6.284   2.756   2.471
 8860TIP3    H226524   6.205   2.639   2.524
 8861TIP3   OH226525   6.550   7.574   5.604
 8861TIP3    H126526   6.539   7.559   5.698
 8861TIP3    H226527   6.471   7.620   5.576
 8862TIP3   OH226528   2.769   6.319   4.558
 8862TIP3    H126529   2.834   6.368   4.608
 8862TIP3    H226530   2.687   6.365   4.574
 8863TIP3   OH226531   1.495   2.320   3.990
 8863TIP3    H126532   1.563   2.313   4.057
 8863TIP3    H226533   1.506   2.241   3.937
 8864TIP3   OH226534   0.143   4.839   4.667
 8864TIP3    H126535   0.100   4.923   4.686
 8864TIP3    H226536   0.104   4.778   4.729
 8865TIP3   OH226537   3.843   0.957   0.886
 8865TIP3    H126538   3.861   0.866   0.909
 8865TIP3    H226539   3.919   0.985   0.835
 8866TIP3   OH226540   7.856   3.604   2.219
 8866TIP3    H126541   7.857   3.540   2.290
 8866TIP3    H226542   7.905   3.562   2.148
 8867TIP3   OH226543   2.232   2.638   1.552
 8867TIP3    H126544   2.297   2.569   1.539
 8867TIP3    H226545   2.283   2.718   1.562
 8868TIP3   OH226546   7.103   0.439   5.400
 8868TIP3    H126547   7.136   0.375   5.337
 8868TIP3    H226548   7.143   0.522   5.374
 8869TIP3   OH226549   3.116   6.098   5.470
 8869TIP3    H126550   3.132   6.186   5.435
 8869TIP3    H226551   3.033   6.106   5.518
 8870TIP3   OH226552   2.174   5.219   5.471
 8870TIP3    H126553   2.093   5.243   5.516
 8870TIP3    H226554   2.144   5.171   5.393
 8871TIP3   OH226555   5.974   0.539   5.915
 8871TIP3    H126556   5.946   0.450   5.938
 8871TIP3    H226557   5.894   0.590   5.913
 8872TIP3   OH226558   3.311   5.049   6.529
 8872TIP3    H126559   3.304   4.977   6.592
 8872TIP3    H226560   3.378   5.021   6.467
 8873TIP3   OH226561   4.135   6.877   2.487
 8873TIP3    H126562   4.178   6.894   2.571
 8873TIP3    H226563   4.159   6.787   2.465
 8874TIP3   OH226564   4.845   3.163   2.936
 8874TIP3    H126565   4.938   3.182   2.952
 8874TIP3    H226566   4.818   3.114   3.014
 8875TIP3   OH226567   7.920   3.089   4.006
 8875TIP3    H126568   7.898   3.064   3.916
 8875TIP3    H226569   7.846   3.142   4.034
 8876TIP3   OH226570   7.927   2.092   3.371
 8876TIP3    H126571   7.842   2.090   3.414
 8876TIP3    H226572   7.906   2.086   3.278
 8877TIP3   OH226573   6.106   3.647   1.720
 8877TIP3    H126574   6.019   3.634   1.758
 8877TIP3    H226575   6.102   3.604   1.635
 8878TIP3   OH226576   2.331   0.507   6.463
 8878TIP3    H126577   2.240   0.479   6.450
 8878TIP3    H226578   2.323   0.591   6.507
 8879TIP3   OH226579   0.952   2.189   3.049
 8879TIP3    H126580   0.909   2.275   3.049
 8879TIP3    H226581   0.931   2.152   2.963
 8880TIP3   OH226582   3.054   7.518   5.902
 8880TIP3    H126583   3.136   7.469   5.897
 8880TIP3    H226584   3.028   7.531   5.811
 8881TIP3   OH226585   3.467   5.216   3.651
 8881TIP3    H126586   3.421   5.133   3.664
 8881TIP3    H226587   3.459   5.262   3.735
 8882TIP3   OH226588   5.990   4.519   0.791
 8882TIP3    H126589   5.997   4.449   0.727
 8882TIP3    H226590   5.901   4.510   0.827
 8883TIP3   OH226591   3.337   6.543   4.608
 8883TIP3    H126592   3.302   6.615   4.555
 8883TIP3    H226593   3.344   6.470   4.547
 8884TIP3   OH226594   4.196   2.446   4.383
 8884TIP3    H126595   4.107   2.454   4.415
 8884TIP3    H226596   4.187   2.400   4.299
 8885TIP3   OH226597   6.094   6.740   1.833
 8885TIP3    H126598   6.116   6.648   1.848
 8885TIP3    H226599   6.149   6.788   1.896
 8886TIP3   OH226600   7.164   2.653   3.815
 8886TIP3    H126601   7.181   2.570   3.772
 8886TIP3    H226602   7.189   2.639   3.906
 8887TIP3   OH226603   2.289   0.715   6.658
 8887TIP3    H126604   2.262   0.666   6.736
 8887TIP3    H226605   2.362   0.769   6.688
 8888TIP3   OH226606   7.599   0.365   5.609
 8888TIP3    H126607   7.575   0.333   5.522
 8888TIP3    H226608   7.516   0.396   5.646
 8889TIP3   OH226609   6.074   3.769   3.655
 8889TIP3    H126610   5.991   3.803   3.623
 8889TIP3    H226611   6.087   3.687   3.608
 8890TIP3   OH226612   7.461   6.007   4.950
 8890TIP3    H126613   7.401   6.079   4.968
 8890TIP3    H226614   7.548   6.041   4.973
 8891TIP3   OH226615   3.251   0.927   6.778
 8891TIP3    H126616   3.272   0.907   6.687
 8891TIP3    H226617   3.239   0.842   6.820
 8892TIP3   OH226618   1.803   4.063   3.549
 8892TIP3    H126619   1.848   4.034   3.470
 8892TIP3    H226620   1.811   4.158   3.548
 8893TIP3   OH226621   4.666   4.227   4.193
 8893TIP3    H126622   4.619   4.286   4.252
 8893TIP3    H226623   4.700   4.158   4.250
 8894TIP3   OH226624   5.207   1.306   1.225
 8894TIP3    H126625   5.154   1.332   1.149
 8894TIP3    H226626   5.182   1.215   1.241
 8895TIP3   OH226627   3.104   4.970   3.030
 8895TIP3    H126628   3.151   4.945   2.951
 8895TIP3    H226629   3.014   4.940   3.015
 8896TIP3   OH226630   7.874   4.951   3.220
 8896TIP3    H126631   7.911   4.863   3.232
 8896TIP3    H226632   7.836   4.948   3.132
 8897TIP3   OH226633   2.942   2.850   2.824
 8897TIP3    H126634   2.891   2.792   2.881
 8897TIP3    H226635   2.923   2.819   2.736
 8898TIP3   OH226636   0.432   7.031   0.155
 8898TIP3    H126637   0.485   7.062   0.229
 8898TIP3    H226638   0.379   6.960   0.192
 8899TIP3   OH226639   1.756   5.886   3.359
 8899TIP3    H126640   1.688   5.845   3.412
 8899TIP3    H226641   1.762   5.831   3.281
 8900TIP3   OH226642   7.810   5.980   1.470
 8900TIP3    H126643   7.862   5.902   1.492
 8900TIP3    H226644   7.843   6.048   1.528
 8901TIP3   OH226645   7.726   5.286   4.741
 8901TIP3    H126646   7.763   5.265   4.827
 8901TIP3    H226647   7.782   5.240   4.679
 8902TIP3   OH226648   7.370   4.307   2.996
 8902TIP3    H126649   7.353   4.317   3.090
 8902TIP3    H226650   7.386   4.213   2.984
 8903TIP3   OH226651   2.602   0.202   1.590
 8903TIP3    H126652   2.648   0.123   1.562
 8903TIP3    H226653   2.629   0.214   1.681
 8904TIP3   OH226654   2.821   4.443   1.727
 8904TIP3    H126655   2.808   4.424   1.819
 8904TIP3    H226656   2.738   4.480   1.697
 8905TIP3   OH226657   1.304   3.016   3.694
 8905TIP3    H126658   1.271   2.929   3.720
 8905TIP3    H226659   1.298   3.015   3.598
 8906TIP3   OH226660   0.526   3.557   0.287
 8906TIP3    H126661   0.612   3.572   0.247
 8906TIP3    H226662   0.529   3.466   0.316
 8907TIP3   OH226663   7.843   2.155   4.747
 8907TIP3    H126664   7.763   2.104   4.762
 8907TIP3    H226665   7.818   2.219   4.680
 8908TIP3   OH226666   6.470   4.167   6.532
 8908TIP3    H126667   6.449   4.250   6.574
 8908TIP3    H226668   6.467   4.186   6.438
 8909TIP3   OH226669   6.385   3.294   3.796
 8909TIP3    H126670   6.346   3.292   3.709
 8909TIP3    H226671   6.448   3.366   3.793
 8910TIP3   OH226672   2.570   1.237   6.228
 8910TIP3    H126673   2.545   1.217   6.318
 8910TIP3    H226674   2.567   1.153   6.182
 8911TIP3   OH226675   2.885   2.435   0.500
 8911TIP3    H126676   2.840   2.368   0.552
 8911TIP3    H226677   2.822   2.507   0.494
 8912TIP3   OH226678   6.138   6.243   6.726
 8912TIP3    H126679   6.064   6.302   6.742
 8912TIP3    H226680   6.215   6.301   6.727
 8913TIP3   OH226681   8.070   4.394   2.895
 8913TIP3    H126682   8.150   4.348   2.919
 8913TIP3    H226683   8.097   4.485   2.880
 8914TIP3   OH226684   0.676   0.136   5.799
 8914TIP3    H126685   0.687   0.067   5.864
 8914TIP3    H226686   0.765   0.158   5.772
 8915TIP3   OH226687   7.653   2.087   3.519
 8915TIP3    H126688   7.586   2.020   3.508
 8915TIP3    H226689   7.616   2.165   3.477
 8916TIP3   OH226690   6.918   1.544   3.546
 8916TIP3    H126691   6.859   1.494   3.604
 8916TIP3    H226692   6.891   1.635   3.556
 8917TIP3   OH226693   2.509   1.013   6.107
 8917TIP3    H126694   2.414   1.005   6.119
 8917TIP3    H226695   2.546   0.943   6.162
 8918TIP3   OH226696   6.345   5.148   2.587
 8918TIP3    H126697   6.429   5.160   2.631
 8918TIP3    H226698   6.365   5.091   2.513
 8919TIP3   OH226699   2.207   4.715   5.872
 8919TIP3    H126700   2.117   4.722   5.904
 8919TIP3    H226701   2.249   4.796   5.899
 8920TIP3   OH226702   5.078   4.888   5.687
 8920TIP3    H126703   5.018   4.839   5.742
 8920TIP3    H226704   5.134   4.821   5.647
 8921TIP3   OH226705   3.535   1.784   3.929
 8921TIP3    H126706   3.480   1.711   3.960
 8921TIP3    H226707   3.618   1.742   3.906
 8922TIP3   OH226708   6.095   6.788   2.342
 8922TIP3    H126709   6.165   6.852   2.342
 8922TIP3    H226710   6.067   6.782   2.434
 8923TIP3   OH226711   1.186   2.522   3.977
 8923TIP3    H126712   1.190   2.477   4.062
 8923TIP3    H226713   1.094   2.516   3.951
 8924TIP3   OH226714   0.370   6.136   1.444
 8924TIP3    H126715   0.293   6.187   1.418
 8924TIP3    H226716   0.423   6.197   1.496
 8925TIP3   OH226717   2.484   5.725   5.715
 8925TIP3    H126718   2.455   5.774   5.792
 8925TIP3    H226719   2.527   5.791   5.660
 8926TIP3   OH226720   7.056   0.995   6.574
 8926TIP3    H126721   7.046   0.903   6.596
 8926TIP3    H226722   7.130   1.025   6.626
 8927TIP3   OH226723   5.966   7.350   0.283
 8927TIP3    H126724   5.919   7.334   0.202
 8927TIP3    H226725   6.058   7.333   0.262
 8928TIP3   OH226726   7.666   6.929   3.222
 8928TIP3    H126727   7.669   7.003   3.161
 8928TIP3    H226728   7.680   6.968   3.308
 8929TIP3   OH226729   6.570   6.223   3.448
 8929TIP3    H126730   6.476   6.222   3.430
 8929TIP3    H226731   6.575   6.221   3.544
 8930TIP3   OH226732   4.900   7.007   6.528
 8930TIP3    H126733   4.971   7.056   6.487
 8930TIP3    H226734   4.881   7.055   6.609
 8931TIP3   OH226735   2.169   5.694   5.171
 8931TIP3    H126736   2.143   5.680   5.262
 8931TIP3    H226737   2.196   5.786   5.167
 8932TIP3   OH226738   6.048   2.266   3.568
 8932TIP3    H126739   6.140   2.241   3.580
 8932TIP3    H226740   6.052   2.353   3.528
 8933TIP3   OH226741   3.070   4.323   4.069
 8933TIP3    H126742   3.162   4.348   4.083
 8933TIP3    H226743   3.021   4.381   4.128
 8934TIP3   OH226744   1.258   0.407   2.384
 8934TIP3    H126745   1.177   0.436   2.426
 8934TIP3    H226746   1.271   0.318   2.416
 8935TIP3   OH226747   3.935   1.408   3.156
 8935TIP3    H126748   4.016   1.410   3.207
 8935TIP3    H226749   3.869   1.445   3.215
 8936TIP3   OH226750   6.107   6.964   0.266
 8936TIP3    H126751   6.018   6.995   0.286
 8936TIP3    H226752   6.108   6.956   0.171
 8937TIP3   OH226753   2.219   6.377   4.615
 8937TIP3    H126754   2.169   6.306   4.656
 8937TIP3    H226755   2.211   6.361   4.521
 8938TIP3   OH226756   1.078   2.212   1.211
 8938TIP3    H126757   1.166   2.214   1.174
 8938TIP3    H226758   1.061   2.120   1.229
 8939TIP3   OH226759   8.094   6.809   0.674
 8939TIP3    H126760   8.123   6.727   0.635
 8939TIP3    H226761   8.085   6.869   0.599
 8940TIP3   OH226762   6.563   1.142   2.021
 8940TIP3    H126763   6.615   1.125   2.100
 8940TIP3    H226764   6.541   1.056   1.987
 8941TIP3   OH226765   0.855   4.661   2.135
 8941TIP3    H126766   0.855   4.588   2.074
 8941TIP3    H226767   0.841   4.739   2.080
 8942TIP3   OH226768   5.931   5.329   6.565
 8942TIP3    H126769   5.969   5.338   6.478
 8942TIP3    H226770   5.997   5.281   6.615
 8943TIP3   OH226771   3.484   4.135   0.991
 8943TIP3    H126772   3.525   4.080   1.057
 8943TIP3    H226773   3.413   4.179   1.037
 8944TIP3   OH226774   6.533   2.196   0.810
 8944TIP3    H126775   6.555   2.122   0.867
 8944TIP3    H226776   6.447   2.225   0.841
 8945TIP3   OH226777   4.358   3.430   0.661
 8945TIP3    H126778   4.360   3.348   0.611
 8945TIP3    H226779   4.451   3.450   0.677
 8946TIP3   OH226780   7.290   7.071   5.421
 8946TIP3    H126781   7.386   7.067   5.422
 8946TIP3    H226782   7.262   6.980   5.429
 8947TIP3   OH226783   1.996   3.376   1.995
 8947TIP3    H126784   1.931   3.446   1.993
 8947TIP3    H226785   1.971   3.322   2.070
 8948TIP3   OH226786   3.344   4.651   2.988
 8948TIP3    H126787   3.356   4.563   2.953
 8948TIP3    H226788   3.249   4.666   2.983
 8949TIP3   OH226789   3.918   6.405   6.203
 8949TIP3    H126790   3.885   6.409   6.293
 8949TIP3    H226791   3.866   6.337   6.162
 8950TIP3   OH226792   3.666   4.111   1.586
 8950TIP3    H126793   3.614   4.032   1.573
 8950TIP3    H226794   3.693   4.137   1.498
 8951TIP3   OH226795   8.085   1.921   5.791
 8951TIP3    H126796   8.056   2.003   5.749
 8951TIP3    H226797   8.180   1.924   5.786
 8952TIP3   OH226798   8.075   5.967   4.730
 8952TIP3    H126799   7.990   5.931   4.753
 8952TIP3    H226800   8.085   5.949   4.636
 8953TIP3   OH226801   4.662   6.317   2.184
 8953TIP3    H126802   4.617   6.253   2.239
 8953TIP3    H226803   4.738   6.344   2.235
 8954TIP3   OH226804   3.809   0.161   4.724
 8954TIP3    H126805   3.800   0.144   4.818
 8954TIP3    H226806   3.780   0.080   4.682
 8955TIP3   OH226807   5.756   6.846   4.411
 8955TIP3    H126808   5.737   6.816   4.322
 8955TIP3    H226809   5.801   6.772   4.452
 8956TIP3   OH226810   7.222   2.205   5.128
 8956TIP3    H126811   7.131   2.197   5.100
 8956TIP3    H226812   7.251   2.114   5.141
 8957TIP3   OH226813   4.410   6.245   0.628
 8957TIP3    H126814   4.375   6.156   0.637
 8957TIP3    H226815   4.379   6.291   0.706
 8958TIP3   OH226816   4.493   4.316   6.142
 8958TIP3    H126817   4.455   4.401   6.123
 8958TIP3    H226818   4.490   4.309   6.238
 8959TIP3   OH226819   3.006   5.943   6.626
 8959TIP3    H126820   3.093   5.906   6.639
 8959TIP3    H226821   3.019   6.017   6.567
 8960TIP3   OH226822   2.466   1.984   1.312
 8960TIP3    H126823   2.487   1.932   1.389
 8960TIP3    H226824   2.406   1.929   1.262
 8961TIP3   OH226825   3.957   5.418   5.806
 8961TIP3    H126826   4.039   5.417   5.856
 8961TIP3    H226827   3.898   5.472   5.859
 8962TIP3   OH226828   6.241   5.328   1.557
 8962TIP3    H126829   6.266   5.350   1.647
 8962TIP3    H226830   6.323   5.302   1.515
 8963TIP3   OH226831   6.455   1.991   2.809
 8963TIP3    H126832   6.433   1.937   2.733
 8963TIP3    H226833   6.471   1.927   2.879
 8964TIP3   OH226834   6.136   5.212   4.551
 8964TIP3    H126835   6.161   5.126   4.586
 8964TIP3    H226836   6.056   5.234   4.598
 8965TIP3   OH226837   1.993   4.388   4.539
 8965TIP3    H126838   2.081   4.358   4.518
 8965TIP3    H226839   1.940   4.364   4.463
 8966TIP3   OH226840   0.941   4.052   5.098
 8966TIP3    H126841   0.913   4.124   5.041
 8966TIP3    H226842   0.922   4.084   5.187
 8967TIP3   OH226843   7.918   0.211   0.586
 8967TIP3    H126844   7.865   0.148   0.537
 8967TIP3    H226845   7.924   0.287   0.528
 8968TIP3   OH226846   0.854   6.039   6.163
 8968TIP3    H126847   0.855   5.960   6.109
 8968TIP3    H226848   0.900   6.105   6.109
 8969TIP3   OH226849   5.452   6.240   4.917
 8969TIP3    H126850   5.406   6.157   4.907
 8969TIP3    H226851   5.465   6.249   5.012
 8970TIP3   OH226852   0.375   7.649   6.586
 8970TIP3    H126853   0.309   7.585   6.613
 8970TIP3    H226854   0.457   7.601   6.588
 8971TIP3   OH226855   0.995   2.037   4.197
 8971TIP3    H126856   0.935   2.030   4.271
 8971TIP3    H226857   1.023   2.129   4.198
 8972TIP3   OH226858   5.732   7.397   0.455
 8972TIP3    H126859   5.811   7.413   0.404
 8972TIP3    H226860   5.763   7.362   0.538
 8973TIP3   OH226861   4.531   7.147   4.272
 8973TIP3    H126862   4.471   7.195   4.329
 8973TIP3    H226863   4.522   7.056   4.299
 8974TIP3   OH226864   0.268   0.930   3.103
 8974TIP3    H126865   0.244   0.884   3.022
 8974TIP3    H226866   0.363   0.919   3.110
 8975TIP3   OH226867   3.494   3.053   4.627
 8975TIP3    H126868   3.469   3.071   4.718
 8975TIP3    H226869   3.564   2.989   4.633
 8976TIP3   OH226870   6.609   0.160   4.078
 8976TIP3    H126871   6.624   0.159   3.983
 8976TIP3    H226872   6.578   0.249   4.096
 8977TIP3   OH226873   5.104   2.454   5.011
 8977TIP3    H126874   5.045   2.529   5.001
 8977TIP3    H226875   5.104   2.436   5.105
 8978TIP3   OH226876   5.854   6.757   3.501
 8978TIP3    H126877   5.835   6.672   3.541
 8978TIP3    H226878   5.827   6.747   3.410
 8979TIP3   OH226879   0.826   0.738   0.265
 8979TIP3    H126880   0.818   0.659   0.319
 8979TIP3    H226881   0.910   0.727   0.220
 8980TIP3   OH226882   3.024   2.603   5.310
 8980TIP3    H126883   3.052   2.649   5.389
 8980TIP3    H226884   3.102   2.555   5.281
 8981TIP3   OH226885   3.360   1.803   4.801
 8981TIP3    H126886   3.326   1.716   4.779
 8981TIP3    H226887   3.311   1.829   4.879
 8982TIP3   OH226888   1.776   1.955   5.749
 8982TIP3    H126889   1.697   1.901   5.752
 8982TIP3    H226890   1.804   1.952   5.658
 8983TIP3   OH226891   3.380   3.567   2.761
 8983TIP3    H126892   3.292   3.590   2.731
 8983TIP3    H226893   3.376   3.577   2.857
 8984TIP3   OH226894   8.019   2.383   6.449
 8984TIP3    H126895   7.979   2.323   6.513
 8984TIP3    H226896   8.021   2.333   6.367
 8985TIP3   OH226897   8.319   0.468   0.971
 8985TIP3    H126898   8.269   0.440   1.048
 8985TIP3    H226899   8.260   0.453   0.897
 8986TIP3   OH226900   2.309   1.783   1.213
 8986TIP3    H126901   2.220   1.818   1.213
 8986TIP3    H226902   2.314   1.729   1.293
 8987TIP3   OH226903   7.042   7.150   1.617
 8987TIP3    H126904   6.985   7.227   1.617
 8987TIP3    H226905   7.056   7.130   1.525
 8988TIP3   OH226906   5.493   4.083   6.242
 8988TIP3    H126907   5.400   4.097   6.226
 8988TIP3    H226908   5.534   4.166   6.219
 8989TIP3   OH226909   8.189   1.964   5.297
 8989TIP3    H126910   8.254   1.894   5.290
 8989TIP3    H226911   8.224   2.023   5.363
 8990TIP3   OH226912   8.104   1.521   1.016
 8990TIP3    H126913   8.149   1.441   1.041
 8990TIP3    H226914   8.040   1.536   1.086
 8991TIP3   OH226915   0.949   1.164   1.806
 8991TIP3    H126916   0.962   1.136   1.897
 8991TIP3    H226917   0.862   1.203   1.805
 8992TIP3   OH226918   7.536   2.319   3.418
 8992TIP3    H126919   7.485   2.396   3.445
 8992TIP3    H226920   7.533   2.320   3.323
 8993TIP3   OH226921   1.033   2.717   0.045
 8993TIP3    H126922   0.962   2.674   0.092
 8993TIP3    H226923   1.087   2.645   0.011
 8994TIP3   OH226924   2.587   3.781   5.787
 8994TIP3    H126925   2.626   3.721   5.723
 8994TIP3    H226926   2.557   3.855   5.734
 8995TIP3   OH226927   7.524   3.897   6.549
 8995TIP3    H126928   7.569   3.901   6.634
 8995TIP3    H226929   7.579   3.950   6.491
 8996TIP3   OH226930   7.500   4.749   5.618
 8996TIP3    H126931   7.406   4.740   5.601
 8996TIP3    H226932   7.505   4.824   5.678
 8997TIP3   OH226933   3.029   6.739   3.472
 8997TIP3    H126934   3.054   6.660   3.520
 8997TIP3    H226935   2.963   6.709   3.409
 8998TIP3   OH226936   0.438   0.044   3.478
 8998TIP3    H126937   0.422   0.115   3.417
 8998TIP3    H226938   0.499   0.081   3.543
 8999TIP3   OH226939   5.897   4.212   4.571
 8999TIP3    H126940   5.890   4.121   4.542
 8999TIP3    H226941   5.823   4.256   4.528
 9000TIP3   OH226942   4.678   4.492   3.734
 9000TIP3    H126943   4.636   4.432   3.795
 9000TIP3    H226944   4.772   4.482   3.752
 9001TIP3   OH226945   3.914   2.159   4.916
 9001TIP3    H126946   3.840   2.098   4.917
 9001TIP3    H226947   3.899   2.216   4.992
 9002TIP3   OH226948   0.420   5.645   6.256
 9002TIP3    H126949   0.352   5.683   6.313
 9002TIP3    H226950   0.457   5.574   6.308
 9003TIP3   OH226951   7.290   6.874   1.843
 9003TIP3    H126952   7.369   6.840   1.802
 9003TIP3    H226953   7.276   6.959   1.799
 9004TIP3   OH226954   0.440   7.570   5.003
 9004TIP3    H126955   0.464   7.625   5.077
 9004TIP3    H226956   0.524   7.539   4.968
 9005TIP3   OH226957   7.115   5.370   0.898
 9005TIP3    H126958   7.050   5.357   0.828
 9005TIP3    H226959   7.182   5.304   0.881
 9006TIP3   OH226960   4.494   4.936   0.854
 9006TIP3    H126961   4.427   4.980   0.906
 9006TIP3    H226962   4.569   4.930   0.913
 9007TIP3   OH226963   8.080   4.111   4.944
 9007TIP3    H126964   8.120   4.183   4.895
 9007TIP3    H226965   8.116   4.121   5.033
 9008TIP3   OH226966   3.807   6.291   5.448
 9008TIP3    H126967   3.858   6.370   5.467
 9008TIP3    H226968   3.844   6.225   5.507
 9009TIP3   OH226969   8.214   1.373   5.189
 9009TIP3    H126970   8.176   1.286   5.203
 9009TIP3    H226971   8.172   1.429   5.255
 9010TIP3   OH226972   6.878   1.032   3.655
 9010TIP3    H126973   6.838   1.071   3.733
 9010TIP3    H226974   6.806   1.025   3.592
 9011TIP3   OH226975   3.912   3.778   2.368
 9011TIP3    H126976   3.887   3.766   2.460
 9011TIP3    H226977   3.978   3.847   2.370
 9012TIP3   OH226978   7.367   2.412   4.960
 9012TIP3    H126979   7.319   2.345   5.008
 9012TIP3    H226980   7.455   2.375   4.948
 9013TIP3   OH226981   6.452   5.298   6.692
 9013TIP3    H126982   6.437   5.345   6.610
 9013TIP3    H226983   6.480   5.366   6.754
 9014TIP3   OH226984   3.329   3.858   3.139
 9014TIP3    H126985   3.398   3.883   3.078
 9014TIP3    H226986   3.326   3.929   3.202
 9015TIP3   OH226987   2.553   7.069   1.750
 9015TIP3    H126988   2.536   7.048   1.658
 9015TIP3    H226989   2.585   7.159   1.748
 9016TIP3   OH226990   3.295   3.194   2.128
 9016TIP3    H126991   3.218   3.207   2.072
 9016TIP3    H226992   3.289   3.264   2.193
 9017TIP3   OH226993   3.226   5.051   4.161
 9017TIP3    H126994   3.302   5.103   4.184
 9017TIP3    H226995   3.152   5.098   4.199
 9018TIP3   OH226996   6.105   7.189   0.814
 9018TIP3    H126997   6.156   7.120   0.773
 9018TIP3    H226998   6.044   7.218   0.746
 9019TIP3   OH226999   3.004   2.195   6.097
 9019TIP3    H127000   3.004   2.161   6.186
 9019TIP3    H227001   3.048   2.280   6.104
 9020TIP3   OH227002   4.409   1.217   3.354
 9020TIP3    H127003   4.416   1.233   3.260
 9020TIP3    H227004   4.494   1.180   3.379
 9021TIP3   OH227005   6.030   0.755   2.818
 9021TIP3    H127006   6.076   0.837   2.799
 9021TIP3    H227007   5.946   0.782   2.855
 9022TIP3   OH227008   4.419   6.464   0.854
 9022TIP3    H127009   4.349   6.399   0.848
 9022TIP3    H227010   4.407   6.520   0.777
 9023TIP3   OH227011   8.232   5.094   0.733
 9023TIP3    H127012   8.189   5.153   0.671
 9023TIP3    H227013   8.273   5.027   0.679
 9024TIP3   OH227014   2.158   1.975   1.697
 9024TIP3    H127015   2.202   2.027   1.629
 9024TIP3    H227016   2.070   1.959   1.661
 9025TIP3   OH227017   2.349   7.660   5.629
 9025TIP3    H127018   2.257   7.646   5.652
 9025TIP3    H227019   2.392   7.682   5.712
 9026TIP3   OH227020   2.420   6.851   3.413
 9026TIP3    H127021   2.445   6.911   3.342
 9026TIP3    H227022   2.384   6.908   3.480
 9027TIP3   OH227023   7.598   7.269   6.644
 9027TIP3    H127024   7.637   7.252   6.558
 9027TIP3    H227025   7.638   7.350   6.674
 9028TIP3   OH227026   2.147   5.384   3.968
 9028TIP3    H127027   2.203   5.373   3.892
 9028TIP3    H227028   2.162   5.474   3.997
 9029TIP3   OH227029   4.454   6.955   2.958
 9029TIP3    H127030   4.539   6.913   2.947
 9029TIP3    H227031   4.413   6.908   3.030
 9030TIP3   OH227032   1.230   2.340   0.537
 9030TIP3    H127033   1.318   2.303   0.544
 9030TIP3    H227034   1.243   2.435   0.535
 9031TIP3   OH227035   1.869   7.103   3.084
 9031TIP3    H127036   1.930   7.150   3.028
 9031TIP3    H227037   1.844   7.166   3.151
 9032TIP3   OH227038   3.038   0.807   4.432
 9032TIP3    H127039   3.069   0.761   4.353
 9032TIP3    H227040   3.080   0.761   4.504
 9033TIP3   OH227041   4.106   2.529   1.580
 9033TIP3    H127042   4.200   2.524   1.562
 9033TIP3    H227043   4.076   2.439   1.574
 9034TIP3   OH227044   3.505   5.402   3.883
 9034TIP3    H127045   3.561   5.443   3.950
 9034TIP3    H227046   3.504   5.466   3.811
 9035TIP3   OH227047   4.351   4.993   1.101
 9035TIP3    H127048   4.419   4.973   1.166
 9035TIP3    H227049   4.287   5.045   1.149
 9036TIP3   OH227050   4.087   6.665   3.135
 9036TIP3    H127051   4.060   6.576   3.157
 9036TIP3    H227052   4.043   6.684   3.053
 9037TIP3   OH227053   5.405   7.236   3.659
 9037TIP3    H127054   5.445   7.213   3.575
 9037TIP3    H227055   5.362   7.320   3.642
 9038TIP3   OH227056   1.299   5.818   0.098
 9038TIP3    H127057   1.220   5.866   0.073
 9038TIP3    H227058   1.288   5.731   0.059
 9039TIP3   OH227059   4.334   5.500   1.046
 9039TIP3    H127060   4.252   5.487   0.999
 9039TIP3    H227061   4.402   5.478   0.982
 9040TIP3   OH227062   6.420   7.087   0.971
 9040TIP3    H127063   6.331   7.098   1.005
 9040TIP3    H227064   6.443   7.172   0.934
 9041TIP3   OH227065   1.411   2.584   6.659
 9041TIP3    H127066   1.409   2.668   6.612
 9041TIP3    H227067   1.405   2.607   6.751
 9042TIP3   OH227068   4.486   3.854   1.968
 9042TIP3    H127069   4.505   3.771   1.925
 9042TIP3    H227070   4.402   3.882   1.931
 9043TIP3   OH227071   5.190   2.868   0.447
 9043TIP3    H127072   5.126   2.874   0.518
 9043TIP3    H227073   5.274   2.860   0.492
 9044TIP3   OH227074   0.663   5.816   1.393
 9044TIP3    H127075   0.753   5.817   1.426
 9044TIP3    H227076   0.672   5.822   1.298
 9045TIP3   OH227077   1.269   7.080   3.964
 9045TIP3    H127078   1.338   7.013   3.958
 9045TIP3    H227079   1.315   7.159   3.992
 9046TIP3   OH227080   0.283   5.348   2.775
 9046TIP3    H127081   0.241   5.270   2.739
 9046TIP3    H227082   0.215   5.415   2.771
 9047TIP3   OH227083   5.088   5.676   6.478
 9047TIP3    H127084   5.072   5.599   6.532
 9047TIP3    H227085   5.113   5.744   6.540
 9048TIP3   OH227086   3.051   0.439   4.677
 9048TIP3    H127087   3.025   0.456   4.586
 9048TIP3    H227088   3.058   0.526   4.716
 9049TIP3   OH227089   7.390   4.606   2.536
 9049TIP3    H127090   7.380   4.609   2.632
 9049TIP3    H227091   7.304   4.579   2.504
 9050TIP3   OH227092   4.190   4.253   0.607
 9050TIP3    H127093   4.170   4.300   0.526
 9050TIP3    H227094   4.266   4.200   0.586
 9051TIP3   OH227095   5.972   0.042   0.445
 9051TIP3    H127096   5.936   0.100   0.512
 9051TIP3    H227097   6.066   0.039   0.463
 9052TIP3   OH227098   3.295   5.526   2.085
 9052TIP3    H127099   3.326   5.584   2.155
 9052TIP3    H227100   3.206   5.502   2.112
 9053TIP3   OH227101   1.042   5.698   0.497
 9053TIP3    H127102   1.115   5.759   0.499
 9053TIP3    H227103   0.981   5.732   0.563
 9054TIP3   OH227104   1.406   5.703   3.388
 9054TIP3    H127105   1.434   5.780   3.437
 9054TIP3    H227106   1.478   5.685   3.328
 9055TIP3   OH227107   4.723   6.385   3.440
 9055TIP3    H127108   4.700   6.427   3.523
 9055TIP3    H227109   4.815   6.363   3.448
 9056TIP3   OH227110   6.152   2.718   0.980
 9056TIP3    H127111   6.128   2.783   1.045
 9056TIP3    H227112   6.247   2.728   0.969
 9057TIP3   OH227113   0.254   1.156   1.880
 9057TIP3    H127114   0.258   1.105   1.799
 9057TIP3    H227115   0.345   1.174   1.901
 9058TIP3   OH227116   3.652   4.013   5.085
 9058TIP3    H127117   3.587   4.061   5.033
 9058TIP3    H227118   3.711   3.975   5.019
 9059TIP3   OH227119   2.106   7.133   1.348
 9059TIP3    H127120   2.088   7.039   1.352
 9059TIP3    H227121   2.131   7.149   1.257
 9060TIP3   OH227122   4.751   3.562   3.895
 9060TIP3    H127123   4.737   3.512   3.975
 9060TIP3    H227124   4.727   3.652   3.918
 9061TIP3   OH227125   7.717   3.613   5.728
 9061TIP3    H127126   7.669   3.682   5.773
 9061TIP3    H227127   7.662   3.535   5.737
 9062TIP3   OH227128   6.431   0.349   4.009
 9062TIP3    H127129   6.491   0.356   3.936
 9062TIP3    H227130   6.374   0.276   3.986
 9063TIP3   OH227131   5.718   2.162   1.195
 9063TIP3    H127132   5.642   2.203   1.236
 9063TIP3    H227133   5.731   2.211   1.113
 9064TIP3   OH227134   2.792   4.472   2.000
 9064TIP3    H127135   2.852   4.486   2.073
 9064TIP3    H227136   2.706   4.464   2.041
 9065TIP3   OH227137   3.880   6.580   4.790
 9065TIP3    H127138   3.799   6.556   4.747
 9065TIP3    H227139   3.872   6.545   4.879
 9066TIP3   OH227140   5.917   7.052   2.896
 9066TIP3    H127141   5.888   7.086   2.812
 9066TIP3    H227142   5.931   6.959   2.881
 9067TIP3   OH227143   7.803   5.228   5.009
 9067TIP3    H127144   7.882   5.241   5.062
 9067TIP3    H227145   7.734   5.270   5.059
 9068TIP3   OH227146   8.159   3.926   2.555
 9068TIP3    H127147   8.168   3.921   2.651
 9068TIP3    H227148   8.104   4.002   2.540
 9069TIP3   OH227149   1.857   2.973   0.757
 9069TIP3    H127150   1.853   3.055   0.708
 9069TIP3    H227151   1.848   2.905   0.691
 9070TIP3   OH227152   2.563   4.824   2.576
 9070TIP3    H127153   2.471   4.804   2.559
 9070TIP3    H227154   2.568   4.920   2.573
 9071TIP3   OH227155   2.589   6.357   2.512
 9071TIP3    H127156   2.653   6.428   2.519
 9071TIP3    H227157   2.592   6.331   2.420
 9072TIP3   OH227158   7.721   4.649   2.088
 9072TIP3    H127159   7.806   4.681   2.060
 9072TIP3    H227160   7.734   4.555   2.101
 9073TIP3   OH227161   5.855   4.294   3.418
 9073TIP3    H127162   5.824   4.361   3.479
 9073TIP3    H227163   5.776   4.259   3.377
 9074TIP3   OH227164   8.294   0.853   2.445
 9074TIP3    H127165   8.228   0.905   2.491
 9074TIP3    H227166   8.277   0.763   2.473
 9075TIP3   OH227167   6.923   3.251   6.784
 9075TIP3    H127168   6.993   3.316   6.777
 9075TIP3    H227169   6.844   3.302   6.803
 9076TIP3   OH227170   5.348   6.140   0.311
 9076TIP3    H127171   5.302   6.096   0.240
 9076TIP3    H227172   5.337   6.083   0.387
 9077TIP3   OH227173   0.179   4.001   6.642
 9077TIP3    H127174   0.157   3.911   6.617
 9077TIP3    H227175   0.258   4.022   6.592
 9078TIP3   OH227176   4.624   0.652   4.186
 9078TIP3    H127177   4.707   0.698   4.184
 9078TIP3    H227178   4.559   0.717   4.159
 9079TIP3   OH227179   0.449   6.443   0.069
 9079TIP3    H127180   0.398   6.394   0.133
 9079TIP3    H227181   0.483   6.377   0.009
 9080TIP3   OH227182   1.971   0.331   6.669
 9080TIP3    H127183   1.976   0.260   6.733
 9080TIP3    H227184   1.903   0.389   6.704
 9081TIP3   OH227185   3.742   3.039   3.090
 9081TIP3    H127186   3.767   2.947   3.078
 9081TIP3    H227187   3.754   3.054   3.184
 9082TIP3   OH227188   2.835   1.970   0.493
 9082TIP3    H127189   2.872   1.907   0.431
 9082TIP3    H227190   2.905   2.034   0.506
 9083TIP3   OH227191   1.329   2.267   2.418
 9083TIP3    H127192   1.338   2.347   2.470
 9083TIP3    H227193   1.416   2.252   2.382
 9084TIP3   OH227194   0.048   0.198   3.709
 9084TIP3    H127195   0.032   0.115   3.754
 9084TIP3    H227196   0.017   0.183   3.620
 9085TIP3   OH227197   7.874   5.176   1.299
 9085TIP3    H127198   7.847   5.140   1.215
 9085TIP3    H227199   7.794   5.210   1.338
 9086TIP3   OH227200   6.810   6.102   0.465
 9086TIP3    H127201   6.883   6.102   0.402
 9086TIP3    H227202   6.839   6.046   0.536
 9087TIP3   OH227203   6.265   1.310   6.415
 9087TIP3    H127204   6.265   1.396   6.458
 9087TIP3    H227205   6.237   1.329   6.325
 9088TIP3   OH227206   6.418   1.168   4.114
 9088TIP3    H127207   6.467   1.175   4.196
 9088TIP3    H227208   6.388   1.076   4.112
 9089TIP3   OH227209   0.064   0.412   5.019
 9089TIP3    H127210  -0.018   0.403   4.970
 9089TIP3    H227211   0.133   0.404   4.953
 9090TIP3   OH227212   2.747   0.147   6.269
 9090TIP3    H127213   2.660   0.188   6.264
 9090TIP3    H227214   2.795   0.182   6.194
 9091TIP3   OH227215   2.530   1.541   0.630
 9091TIP3    H127216   2.566   1.470   0.684
 9091TIP3    H227217   2.588   1.615   0.647
 9092TIP3   OH227218   0.849   4.104   5.705
 9092TIP3    H127219   0.817   4.149   5.783
 9092TIP3    H227220   0.912   4.165   5.666
 9093TIP3   OH227221   7.348   5.828   2.230
 9093TIP3    H127222   7.298   5.844   2.311
 9093TIP3    H227223   7.281   5.809   2.164
 9094TIP3   OH227224   5.800   6.645   0.271
 9094TIP3    H127225   5.779   6.728   0.228
 9094TIP3    H227226   5.875   6.611   0.221
 9095TIP3   OH227227   6.244   5.192   6.184
 9095TIP3    H127228   6.190   5.113   6.189
 9095TIP3    H227229   6.180   5.263   6.178
 9096TIP3   OH227230   2.131   6.884   6.591
 9096TIP3    H127231   2.175   6.958   6.633
 9096TIP3    H227232   2.168   6.881   6.503
 9097TIP3   OH227233   6.670   2.133   1.152
 9097TIP3    H127234   6.622   2.085   1.085
 9097TIP3    H227235   6.604   2.188   1.195
 9098TIP3   OH227236   6.487   6.602   5.789
 9098TIP3    H127237   6.480   6.610   5.884
 9098TIP3    H227238   6.507   6.510   5.774
 9099TIP3   OH227239   1.568   1.272   4.258
 9099TIP3    H127240   1.524   1.305   4.336
 9099TIP3    H227241   1.648   1.231   4.292
 9100TIP3   OH227242   6.117   1.009   1.031
 9100TIP3    H127243   6.143   1.003   1.123
 9100TIP3    H227244   6.199   1.024   0.984
 9101TIP3   OH227245   3.082   5.982   5.947
 9101TIP3    H127246   3.165   5.984   5.995
 9101TIP3    H227247   3.083   5.898   5.902
 9102TIP3   OH227248   4.446   7.209   2.039
 9102TIP3    H127249   4.540   7.215   2.026
 9102TIP3    H227250   4.429   7.261   2.118
 9103TIP3   OH227251   4.893   2.897   3.980
 9103TIP3    H127252   4.894   2.914   4.075
 9103TIP3    H227253   4.955   2.826   3.967
 9104TIP3   OH227254   1.646   6.182   6.538
 9104TIP3    H127255   1.626   6.269   6.502
 9104TIP3    H227256   1.601   6.121   6.481
 9105TIP3   OH227257   4.763   3.953   1.612
 9105TIP3    H127258   4.815   4.017   1.562
 9105TIP3    H227259   4.793   3.964   1.703
 9106TIP3   OH227260   7.788   5.481   2.066
 9106TIP3    H127261   7.828   5.482   2.153
 9106TIP3    H227262   7.694   5.488   2.082
 9107TIP3   OH227263   5.836   3.847   1.212
 9107TIP3    H127264   5.751   3.890   1.226
 9107TIP3    H227265   5.880   3.900   1.146
 9108TIP3   OH227266   6.951   2.652   5.625
 9108TIP3    H127267   7.035   2.624   5.589
 9108TIP3    H227268   6.895   2.575   5.617
 9109TIP3   OH227269   3.794   5.184   5.768
 9109TIP3    H127270   3.708   5.191   5.726
 9109TIP3    H227271   3.814   5.273   5.797
 9110TIP3   OH227272   7.626   6.926   6.638
 9110TIP3    H127273   7.679   6.978   6.577
 9110TIP3    H227274   7.653   6.955   6.724
 9111TIP3   OH227275   1.066   1.176   3.442
 9111TIP3    H127276   1.061   1.249   3.504
 9111TIP3    H227277   1.160   1.158   3.434
 9112TIP3   OH227278   1.830   1.091   3.292
 9112TIP3    H127279   1.844   0.997   3.291
 9112TIP3    H227280   1.796   1.112   3.205
 9113TIP3   OH227281   1.781   0.464   0.433
 9113TIP3    H127282   1.690   0.438   0.415
 9113TIP3    H227283   1.834   0.393   0.398
 9114TIP3   OH227284   2.701   3.165   5.824
 9114TIP3    H127285   2.783   3.180   5.870
 9114TIP3    H227286   2.690   3.241   5.767
 9115TIP3   OH227287   4.439   0.099   1.324
 9115TIP3    H127288   4.414   0.180   1.279
 9115TIP3    H227289   4.360   0.073   1.372
 9116TIP3   OH227290   3.922   5.516   0.048
 9116TIP3    H127291   4.008   5.482   0.025
 9116TIP3    H227292   3.869   5.502  -0.031
 9117TIP3   OH227293   1.365   6.191   2.225
 9117TIP3    H127294   1.323   6.106   2.212
 9117TIP3    H227295   1.452   6.182   2.186
 9118TIP3   OH227296   6.710   3.923   2.754
 9118TIP3    H127297   6.686   3.982   2.825
 9118TIP3    H227298   6.797   3.954   2.726
 9119TIP3   OH227299   4.650   5.358   2.675
 9119TIP3    H127300   4.653   5.450   2.650
 9119TIP3    H227301   4.558   5.335   2.671
 9120TIP3   OH227302   6.264   5.066   1.676
 9120TIP3    H127303   6.220   5.133   1.624
 9120TIP3    H227304   6.210   4.988   1.666
 9121TIP3   OH227305   3.545   5.431   6.216
 9121TIP3    H127306   3.623   5.435   6.272
 9121TIP3    H227307   3.564   5.364   6.152
 9122TIP3   OH227308   6.063   5.503   5.097
 9122TIP3    H127309   6.098   5.560   5.165
 9122TIP3    H227310   6.126   5.510   5.025
 9123TIP3   OH227311   2.849   1.064   3.332
 9123TIP3    H127312   2.944   1.052   3.334
 9123TIP3    H227313   2.814   0.978   3.308
 9124TIP3   OH227314   2.620   7.159   4.815
 9124TIP3    H127315   2.667   7.213   4.880
 9124TIP3    H227316   2.687   7.100   4.780
 9125TIP3   OH227317   4.079   0.044   6.198
 9125TIP3    H127318   4.145   0.084   6.141
 9125TIP3    H227319   4.017   0.003   6.138
 9126TIP3   OH227320   5.290   6.003   4.284
 9126TIP3    H127321   5.220   5.941   4.304
 9126TIP3    H227322   5.365   5.949   4.261
 9127TIP3   OH227323   3.409   4.762   0.453
 9127TIP3    H127324   3.503   4.751   0.435
 9127TIP3    H227325   3.367   4.750   0.368
 9128TIP3   OH227326   0.419   4.192   3.018
 9128TIP3    H127327   0.484   4.129   2.986
 9128TIP3    H227328   0.404   4.250   2.944
 9129TIP3   OH227329   6.105   7.507   5.463
 9129TIP3    H127330   6.059   7.565   5.402
 9129TIP3    H227331   6.161   7.453   5.407
 9130TIP3   OH227332   0.833   6.623   3.365
 9130TIP3    H127333   0.897   6.683   3.327
 9130TIP3    H227334   0.752   6.675   3.370
 9131TIP3   OH227335   6.971   6.860   6.112
 9131TIP3    H127336   6.912   6.811   6.055
 9131TIP3    H227337   6.922   6.871   6.193
 9132TIP3   OH227338   4.716   2.296   2.464
 9132TIP3    H127339   4.744   2.375   2.511
 9132TIP3    H227340   4.697   2.326   2.375
 9133TIP3   OH227341   4.089   7.339   2.073
 9133TIP3    H127342   4.115   7.329   1.982
 9133TIP3    H227343   4.152   7.403   2.108
 9134TIP3   OH227344   2.417   3.819   6.523
 9134TIP3    H127345   2.453   3.757   6.460
 9134TIP3    H227346   2.472   3.897   6.514
 9135TIP3   OH227347   1.597   1.079   3.098
 9135TIP3    H127348   1.583   1.015   3.167
 9135TIP3    H227349   1.636   1.028   3.026
 9136TIP3   OH227350   1.905   4.605   4.416
 9136TIP3    H127351   1.972   4.541   4.438
 9136TIP3    H227352   1.933   4.685   4.461
 9137TIP3   OH227353   1.259   5.292   4.475
 9137TIP3    H127354   1.231   5.379   4.503
 9137TIP3    H227355   1.303   5.307   4.391
 9138TIP3   OH227356   6.839   4.165   0.986
 9138TIP3    H127357   6.793   4.248   0.976
 9138TIP3    H227358   6.776   4.099   0.957
 9139TIP3   OH227359   5.013   6.447   4.530
 9139TIP3    H127360   5.089   6.485   4.485
 9139TIP3    H227361   5.051   6.385   4.592
 9140TIP3   OH227362  -0.010   5.102   6.509
 9140TIP3    H127363  -0.009   5.078   6.416
 9140TIP3    H227364   0.024   5.192   6.511
 9141TIP3   OH227365   2.224   5.272   0.173
 9141TIP3    H127366   2.257   5.362   0.176
 9141TIP3    H227367   2.300   5.218   0.195
 9142TIP3   OH227368   2.542   7.339   4.284
 9142TIP3    H127369   2.563   7.246   4.294
 9142TIP3    H227370   2.496   7.362   4.364
 9143TIP3   OH227371   4.662   4.030   6.712
 9143TIP3    H127372   4.699   4.002   6.796
 9143TIP3    H227373   4.571   4.052   6.733
 9144TIP3   OH227374   0.291   2.825   3.206
 9144TIP3    H127375   0.319   2.739   3.238
 9144TIP3    H227376   0.200   2.833   3.234
 9145TIP3   OH227377   4.223   5.210   6.438
 9145TIP3    H127378   4.284   5.274   6.402
 9145TIP3    H227379   4.208   5.148   6.367
 9146TIP3   OH227380   2.994   1.827   2.022
 9146TIP3    H127381   2.987   1.915   2.059
 9146TIP3    H227382   2.939   1.829   1.944
 9147TIP3   OH227383   7.132   6.883   3.126
 9147TIP3    H127384   7.106   6.797   3.160
 9147TIP3    H227385   7.220   6.869   3.090
 9148TIP3   OH227386   1.197   7.467   4.815
 9148TIP3    H127387   1.271   7.481   4.875
 9148TIP3    H227388   1.163   7.381   4.839
 9149TIP3   OH227389   6.098   4.323   5.503
 9149TIP3    H127390   6.193   4.318   5.491
 9149TIP3    H227391   6.078   4.416   5.494
 9150TIP3   OH227392   0.593   3.399   4.911
 9150TIP3    H127393   0.662   3.462   4.889
 9150TIP3    H227394   0.607   3.325   4.852
 9151TIP3   OH227395   2.965   5.072   5.196
 9151TIP3    H127396   3.018   5.090   5.118
 9151TIP3    H227397   2.884   5.120   5.182
 9152TIP3   OH227398   2.547   4.382   6.088
 9152TIP3    H127399   2.547   4.294   6.051
 9152TIP3    H227400   2.490   4.376   6.165
 9153TIP3   OH227401   1.384   5.697   2.110
 9153TIP3    H127402   1.293   5.669   2.109
 9153TIP3    H227403   1.426   5.642   2.176
 9154TIP3   OH227404   2.065   7.620   6.677
 9154TIP3    H127405   2.159   7.598   6.678
 9154TIP3    H227406   2.042   7.622   6.585
 9155TIP3   OH227407   3.023   2.635   6.677
 9155TIP3    H127408   3.037   2.566   6.612
 9155TIP3    H227409   2.976   2.592   6.749
 9156TIP3   OH227410   3.464   6.106   6.640
 9156TIP3    H127411   3.404   6.142   6.705
 9156TIP3    H227412   3.530   6.174   6.627
 9157TIP3   OH227413   1.763   2.131   4.498
 9157TIP3    H127414   1.778   2.224   4.478
 9157TIP3    H227415   1.849   2.090   4.485
 9158TIP3   OH227416   0.230   5.917   2.115
 9158TIP3    H127417   0.188   5.990   2.069
 9158TIP3    H227418   0.285   5.959   2.182
 9159TIP3   OH227419   0.839   4.354   2.883
 9159TIP3    H127420   0.841   4.347   2.979
 9159TIP3    H227421   0.760   4.406   2.865
 9160TIP3   OH227422   7.089   3.373  -0.042
 9160TIP3    H127423   7.183   3.367  -0.055
 9160TIP3    H227424   7.079   3.400   0.050
 9161TIP3   OH227425   4.902   6.423   4.131
 9161TIP3    H127426   4.968   6.419   4.061
 9161TIP3    H227427   4.906   6.513   4.163
 9162TIP3   OH227428   7.138   7.057   5.126
 9162TIP3    H127429   7.207   6.991   5.132
 9162TIP3    H227430   7.179   7.129   5.077
 9163TIP3   OH227431   2.597   3.117   5.376
 9163TIP3    H127432   2.540   3.069   5.437
 9163TIP3    H227433   2.542   3.190   5.345
 9164TIP3   OH227434   0.288   4.782   4.413
 9164TIP3    H127435   0.268   4.848   4.478
 9164TIP3    H227436   0.210   4.727   4.409
 9165TIP3   OH227437   4.998   4.314   2.994
 9165TIP3    H127438   5.063   4.362   2.942
 9165TIP3    H227439   4.914   4.351   2.966
 9166TIP3   OH227440   0.802   0.237   3.486
 9166TIP3    H127441   0.858   0.161   3.502
 9166TIP3    H227442   0.722   0.218   3.534
 9167TIP3   OH227443   1.399   0.178   3.937
 9167TIP3    H127444   1.305   0.194   3.943
 9167TIP3    H227445   1.413   0.144   3.849
 9168TIP3   OH227446   2.662   1.996   6.044
 9168TIP3    H127447   2.626   2.078   6.078
 9168TIP3    H227448   2.712   2.023   5.967
 9169TIP3   OH227449   5.095   6.040   1.944
 9169TIP3    H127450   5.123   6.017   1.855
 9169TIP3    H227451   5.057   5.960   1.979
 9170TIP3   OH227452   0.186   4.898   5.932
 9170TIP3    H127453   0.162   4.878   6.023
 9170TIP3    H227454   0.209   4.814   5.894
 9171TIP3   OH227455   4.262   2.974   6.444
 9171TIP3    H127456   4.297   2.985   6.355
 9171TIP3    H227457   4.173   2.942   6.430
 9172TIP3   OH227458   8.120   0.806   6.639
 9172TIP3    H127459   8.131   0.892   6.679
 9172TIP3    H227460   8.195   0.756   6.669
 9173TIP3   OH227461   7.971   3.236   5.910
 9173TIP3    H127462   7.935   3.262   5.825
 9173TIP3    H227463   7.947   3.308   5.968
 9174TIP3   OH227464   5.885   5.655   4.557
 9174TIP3    H127465   5.814   5.594   4.576
 9174TIP3    H227466   5.955   5.630   4.618
 9175TIP3   OH227467   1.893   2.081   4.912
 9175TIP3    H127468   1.874   2.032   4.992
 9175TIP3    H227469   1.907   2.013   4.846
 9176TIP3   OH227470   4.209   5.134   2.875
 9176TIP3    H127471   4.155   5.210   2.854
 9176TIP3    H227472   4.150   5.073   2.919
 9177TIP3   OH227473   6.640   4.594   0.349
 9177TIP3    H127474   6.607   4.625   0.433
 9177TIP3    H227475   6.595   4.510   0.334
 9178TIP3   OH227476   3.285   5.357   6.248
 9178TIP3    H127477   3.248   5.331   6.164
 9178TIP3    H227478   3.376   5.379   6.229
 9179TIP3   OH227479   4.689   5.504   0.455
 9179TIP3    H127480   4.614   5.451   0.429
 9179TIP3    H227481   4.705   5.479   0.546
 9180TIP3   OH227482   5.886   5.220   0.696
 9180TIP3    H127483   5.851   5.309   0.703
 9180TIP3    H227484   5.820   5.171   0.648
 9181TIP3   OH227485   6.060   2.972   3.108
 9181TIP3    H127486   6.152   2.991   3.126
 9181TIP3    H227487   6.017   2.974   3.193
 9182TIP3   OH227488   3.874   5.976   3.487
 9182TIP3    H127489   3.951   6.012   3.531
 9182TIP3    H227490   3.803   6.034   3.513
 9183TIP3   OH227491   3.203   2.473   4.538
 9183TIP3    H127492   3.196   2.566   4.559
 9183TIP3    H227493   3.115   2.449   4.508
 9184TIP3   OH227494   1.012   5.693   3.856
 9184TIP3    H127495   0.947   5.624   3.862
 9184TIP3    H227496   1.073   5.676   3.928
 9185TIP3   OH227497   6.650   0.883   4.920
 9185TIP3    H127498   6.564   0.903   4.956
 9185TIP3    H227499   6.691   0.827   4.985
 9186TIP3   OH227500   3.834   1.128   2.489
 9186TIP3    H127501   3.800   1.181   2.417
 9186TIP3    H227502   3.850   1.191   2.560
 9187TIP3   OH227503   1.274   1.087   4.361
 9187TIP3    H127504   1.318   1.148   4.421
 9187TIP3    H227505   1.294   1.001   4.398
 9188TIP3   OH227506   3.509   4.169   2.285
 9188TIP3    H127507   3.526   4.227   2.359
 9188TIP3    H227508   3.473   4.225   2.217
 9189TIP3   OH227509   0.133   1.952   1.728
 9189TIP3    H127510   0.066   1.942   1.796
 9189TIP3    H227511   0.207   1.992   1.773
 9190TIP3   OH227512   3.777   5.736   1.125
 9190TIP3    H127513   3.803   5.694   1.042
 9190TIP3    H227514   3.834   5.696   1.191
 9191TIP3   OH227515   2.268   5.567   6.061
 9191TIP3    H127516   2.230   5.487   6.096
 9191TIP3    H227517   2.315   5.605   6.136
 9192TIP3   OH227518   0.292   4.935   2.556
 9192TIP3    H127519   0.364   4.978   2.511
 9192TIP3    H227520   0.253   4.877   2.491
 9193TIP3   OH227521   5.910   2.952   5.241
 9193TIP3    H127522   5.989   3.000   5.218
 9193TIP3    H227523   5.851   3.019   5.277
 9194TIP3   OH227524   1.645   7.474   0.399
 9194TIP3    H127525   1.718   7.499   0.455
 9194TIP3    H227526   1.642   7.542   0.332
 9195TIP3   OH227527   2.825   0.661   2.336
 9195TIP3    H127528   2.806   0.688   2.246
 9195TIP3    H227529   2.872   0.578   2.327
 9196TIP3   OH227530   8.104   7.211   2.134
 9196TIP3    H127531   8.038   7.206   2.203
 9196TIP3    H227532   8.147   7.296   2.148
 9197TIP3   OH227533   1.940   2.859   1.301
 9197TIP3    H127534   1.953   2.812   1.383
 9197TIP3    H227535   1.995   2.937   1.309
 9198TIP3   OH227536   0.046   2.933   5.865
 9198TIP3    H127537   0.133   2.971   5.880
 9198TIP3    H227538  -0.004   2.959   5.942
 9199TIP3   OH227539   6.341   3.831   5.790
 9199TIP3    H127540   6.297   3.915   5.777
 9199TIP3    H227541   6.406   3.827   5.721
 9200TIP3   OH227542   7.197   5.802   1.771
 9200TIP3    H127543   7.234   5.781   1.685
 9200TIP3    H227544   7.160   5.889   1.760
 9201TIP3   OH227545   0.508   0.926   6.387
 9201TIP3    H127546   0.550   0.867   6.449
 9201TIP3    H227547   0.536   1.013   6.414
 9202TIP3   OH227548   3.839   4.128   0.368
 9202TIP3    H127549   3.817   4.170   0.451
 9202TIP3    H227550   3.875   4.199   0.314
 9203TIP3   OH227551   3.765   4.268   0.617
 9203TIP3    H127552   3.755   4.359   0.646
 9203TIP3    H227553   3.682   4.226   0.642
 9204TIP3   OH227554   0.384   4.828   3.089
 9204TIP3    H127555   0.339   4.897   3.039
 9204TIP3    H227556   0.405   4.869   3.173
 9205TIP3   OH227557   0.024   3.793   2.177
 9205TIP3    H127558   0.108   3.749   2.168
 9205TIP3    H227559  -0.036   3.726   2.208
 9206TIP3   OH227560   4.829   4.353   6.569
 9206TIP3    H127561   4.855   4.305   6.648
 9206TIP3    H227562   4.742   4.321   6.548
 9207TIP3   OH227563   0.538   3.488   1.298
 9207TIP3    H127564   0.560   3.503   1.206
 9207TIP3    H227565   0.606   3.428   1.329
 9208TIP3   OH227566   4.060   7.377   1.343
 9208TIP3    H127567   4.144   7.338   1.366
 9208TIP3    H227568   4.079   7.428   1.264
 9209TIP3   OH227569   3.250   4.492   5.200
 9209TIP3    H127570   3.329   4.473   5.251
 9209TIP3    H227571   3.274   4.567   5.146
 9210TIP3   OH227572   6.049   0.173   1.282
 9210TIP3    H127573   5.973   0.215   1.323
 9210TIP3    H227574   6.095   0.131   1.355
 9211TIP3   OH227575   6.940   0.697   2.574
 9211TIP3    H127576   6.977   0.763   2.633
 9211TIP3    H227577   6.988   0.617   2.594
 9212TIP3   OH227578   7.396   2.596   2.535
 9212TIP3    H127579   7.373   2.505   2.555
 9212TIP3    H227580   7.483   2.608   2.572
 9213TIP3   OH227581   4.452   4.357   3.261
 9213TIP3    H127582   4.544   4.334   3.247
 9213TIP3    H227583   4.456   4.436   3.316
 9214TIP3   OH227584   4.993   6.908   2.532
 9214TIP3    H127585   4.932   6.915   2.606
 9214TIP3    H227586   4.953   6.841   2.476
 9215TIP3   OH227587   4.736   4.144   2.813
 9215TIP3    H127588   4.830   4.125   2.814
 9215TIP3    H227589   4.726   4.211   2.745
 9216TIP3   OH227590   5.360   7.535   5.260
 9216TIP3    H127591   5.287   7.507   5.315
 9216TIP3    H227592   5.422   7.463   5.265
 9217TIP3   OH227593   3.648   6.395   5.879
 9217TIP3    H127594   3.560   6.433   5.876
 9217TIP3    H227595   3.640   6.313   5.829
 9218TIP3   OH227596   3.596   0.280   6.068
 9218TIP3    H127597   3.555   0.257   5.984
 9218TIP3    H227598   3.545   0.233   6.133
 9219TIP3   OH227599   5.416   6.907   6.588
 9219TIP3    H127600   5.432   6.990   6.544
 9219TIP3    H227601   5.424   6.926   6.681
 9220TIP3   OH227602   4.945   2.251   1.776
 9220TIP3    H127603   4.967   2.343   1.794
 9220TIP3    H227604   4.986   2.233   1.692
 9221TIP3   OH227605   5.469   0.485   6.533
 9221TIP3    H127606   5.416   0.562   6.511
 9221TIP3    H227607   5.419   0.411   6.501
 9222TIP3   OH227608   2.302   3.260   3.006
 9222TIP3    H127609   2.296   3.267   3.102
 9222TIP3    H227610   2.211   3.261   2.977
 9223TIP3   OH227611   6.861   3.465   3.859
 9223TIP3    H127612   6.939   3.520   3.847
 9223TIP3    H227613   6.889   3.397   3.919
 9224TIP3   OH227614   2.461   1.570   3.232
 9224TIP3    H127615   2.366   1.579   3.238
 9224TIP3    H227616   2.474   1.490   3.181
 9225TIP3   OH227617   1.081   2.438   0.219
 9225TIP3    H127618   1.175   2.447   0.234
 9225TIP3    H227619   1.073   2.362   0.161
 9226TIP3   OH227620   7.113   1.015   0.755
 9226TIP3    H127621   7.187   0.982   0.806
 9226TIP3    H227622   7.105   1.107   0.780
 9227TIP3   OH227623   3.870   0.191   2.939
 9227TIP3    H127624   3.902   0.264   2.886
 9227TIP3    H227625   3.877   0.222   3.029
 9228TIP3   OH227626   2.416   4.085   1.135
 9228TIP3    H127627   2.342   4.037   1.098
 9228TIP3    H227628   2.380   4.168   1.165
 9229TIP3   OH227629   3.742   5.417   6.416
 9229TIP3    H127630   3.745   5.352   6.487
 9229TIP3    H227631   3.718   5.499   6.461
 9230TIP3   OH227632   2.835   5.120   1.438
 9230TIP3    H127633   2.782   5.195   1.464
 9230TIP3    H227634   2.790   5.044   1.475
 9231TIP3   OH227635   3.372   4.888   3.757
 9231TIP3    H127636   3.444   4.872   3.696
 9231TIP3    H227637   3.298   4.912   3.701
 9232TIP3   OH227638   2.369   1.309   4.577
 9232TIP3    H127639   2.384   1.221   4.612
 9232TIP3    H227640   2.321   1.295   4.496
 9233TIP3   OH227641   7.484   2.708   3.274
 9233TIP3    H127642   7.440   2.637   3.228
 9233TIP3    H227643   7.433   2.720   3.354
 9234TIP3   OH227644   1.910   2.048   0.788
 9234TIP3    H127645   1.868   2.028   0.872
 9234TIP3    H227646   1.945   2.136   0.798
 9235TIP3   OH227647   4.443   5.238   3.543
 9235TIP3    H127648   4.415   5.284   3.623
 9235TIP3    H227649   4.423   5.146   3.560
 9236TIP3   OH227650   1.444   0.561   1.160
 9236TIP3    H127651   1.501   0.495   1.199
 9236TIP3    H227652   1.501   0.611   1.102
 9237TIP3   OH227653   6.545   5.253   6.320
 9237TIP3    H127654   6.489   5.181   6.349
 9237TIP3    H227655   6.538   5.251   6.224
 9238TIP3   OH227656   5.915   4.551   5.577
 9238TIP3    H127657   5.907   4.612   5.503
 9238TIP3    H227658   5.827   4.516   5.589
 9239TIP3   OH227659   5.186   7.303   0.640
 9239TIP3    H127660   5.166   7.393   0.616
 9239TIP3    H227661   5.193   7.305   0.735
 9240TIP3   OH227662   4.862   5.531   1.961
 9240TIP3    H127663   4.949   5.492   1.971
 9240TIP3    H227664   4.843   5.522   1.867
 9241TIP3   OH227665   2.388   2.820   2.206
 9241TIP3    H127666   2.334   2.892   2.173
 9241TIP3    H227667   2.467   2.823   2.152
 9242TIP3   OH227668   7.298   2.428   2.859
 9242TIP3    H127669   7.283   2.519   2.835
 9242TIP3    H227670   7.370   2.400   2.802
 9243TIP3   OH227671   0.569   3.278   0.424
 9243TIP3    H127672   0.482   3.241   0.406
 9243TIP3    H227673   0.590   3.247   0.512
 9244TIP3   OH227674   4.362   1.248   5.912
 9244TIP3    H127675   4.414   1.228   5.834
 9244TIP3    H227676   4.282   1.289   5.878
 9245TIP3   OH227677   2.477   2.912   0.315
 9245TIP3    H127678   2.384   2.886   0.314
 9245TIP3    H227679   2.475   3.006   0.333
 9246TIP3   OH227680   6.058  -0.011   1.098
 9246TIP3    H127681   6.055   0.058   1.164
 9246TIP3    H227682   6.044   0.035   1.015
 9247TIP3   OH227683   3.960   5.647   1.694
 9247TIP3    H127684   3.964   5.560   1.655
 9247TIP3    H227685   4.051   5.669   1.715
 9248TIP3   OH227686   4.083   3.501   3.196
 9248TIP3    H127687   4.134   3.516   3.117
 9248TIP3    H227688   4.149   3.491   3.265
 9249TIP3   OH227689   1.316   1.962   4.493
 9249TIP3    H127690   1.391   1.906   4.513
 9249TIP3    H227691   1.252   1.902   4.455
 9250TIP3   OH227692   4.645   0.780   0.661
 9250TIP3    H127693   4.669   0.726   0.586
 9250TIP3    H227694   4.629   0.867   0.624
 9251TIP3   OH227695   8.193   6.550   5.183
 9251TIP3    H127696   8.119   6.527   5.239
 9251TIP3    H227697   8.243   6.613   5.234
 9252TIP3   OH227698   7.761   6.065   5.500
 9252TIP3    H127699   7.846   6.108   5.510
 9252TIP3    H227700   7.722   6.067   5.587
 9253TIP3   OH227701   1.673   4.776   2.506
 9253TIP3    H127702   1.648   4.861   2.470
 9253TIP3    H227703   1.659   4.785   2.601
 9254TIP3   OH227704   6.102   6.156   3.083
 9254TIP3    H127705   6.024   6.117   3.042
 9254TIP3    H227706   6.136   6.217   3.017
 9255TIP3   OH227707   3.088   7.311   1.932
 9255TIP3    H127708   3.172   7.356   1.923
 9255TIP3    H227709   3.089   7.276   2.021
 9256TIP3   OH227710   0.311   3.385   4.878
 9256TIP3    H127711   0.293   3.426   4.962
 9256TIP3    H227712   0.403   3.358   4.884
 9257TIP3   OH227713   7.546   1.587   6.518
 9257TIP3    H127714   7.556   1.682   6.524
 9257TIP3    H227715   7.559   1.556   6.608
 9258TIP3   OH227716   5.327   0.287   3.647
 9258TIP3    H127717   5.354   0.346   3.717
 9258TIP3    H227718   5.402   0.229   3.635
 9259TIP3   OH227719   7.135   2.021   5.556
 9259TIP3    H127720   7.198   1.991   5.490
 9259TIP3    H227721   7.084   2.088   5.511
 9260TIP3   OH227722   2.287   2.381   3.287
 9260TIP3    H127723   2.256   2.292   3.269
 9260TIP3    H227724   2.361   2.393   3.228
 9261TIP3   OH227725   1.398   3.454   6.514
 9261TIP3    H127726   1.370   3.368   6.544
 9261TIP3    H227727   1.465   3.436   6.448
 9262TIP3   OH227728   3.923   2.415   4.196
 9262TIP3    H127729   3.841   2.375   4.223
 9262TIP3    H227730   3.984   2.342   4.188
 9263TIP3   OH227731   4.467   7.706   3.226
 9263TIP3    H127732   4.452   7.740   3.314
 9263TIP3    H227733   4.456   7.781   3.168
 9264TIP3   OH227734   0.753   1.103   2.937
 9264TIP3    H127735   0.716   1.163   2.872
 9264TIP3    H227736   0.839   1.140   2.958
 9265TIP3   OH227737   2.217   6.901   1.013
 9265TIP3    H127738   2.183   6.816   1.041
 9265TIP3    H227739   2.146   6.963   1.031
 9266TIP3   OH227740   3.680   6.571   1.477
 9266TIP3    H127741   3.685   6.573   1.382
 9266TIP3    H227742   3.659   6.479   1.498
 9267TIP3   OH227743   6.393   6.585   2.874
 9267TIP3    H127744   6.456   6.619   2.938
 9267TIP3    H227745   6.316   6.639   2.885
 9268TIP3   OH227746   8.063   5.734   2.312
 9268TIP3    H127747   8.124   5.759   2.243
 9268TIP3    H227748   7.994   5.799   2.309
 9269TIP3   OH227749   1.366   4.916   2.560
 9269TIP3    H127750   1.313   4.954   2.631
 9269TIP3    H227751   1.360   4.821   2.575
 9270TIP3   OH227752   6.579   2.533   5.065
 9270TIP3    H127753   6.590   2.474   4.991
 9270TIP3    H227754   6.485   2.545   5.073
 9271TIP3   OH227755   4.541   1.069   2.097
 9271TIP3    H127756   4.502   1.074   2.185
 9271TIP3    H227757   4.476   1.024   2.044
 9272TIP3   OH227758   2.237   3.396   0.312
 9272TIP3    H127759   2.245   3.424   0.221
 9272TIP3    H227760   2.327   3.402   0.346
 9273TIP3   OH227761   6.408   1.759   1.258
 9273TIP3    H127762   6.384   1.670   1.286
 9273TIP3    H227763   6.482   1.745   1.199
 9274TIP3   OH227764   6.761   1.886   1.632
 9274TIP3    H127765   6.823   1.873   1.704
 9274TIP3    H227766   6.811   1.934   1.566
 9275TIP3   OH227767   0.201   1.314   5.144
 9275TIP3    H127768   0.251   1.395   5.154
 9275TIP3    H227769   0.110   1.341   5.147
 9276TIP3   OH227770   0.526   6.506   5.138
 9276TIP3    H127771   0.526   6.489   5.044
 9276TIP3    H227772   0.443   6.469   5.168
 9277TIP3   OH227773   5.889   3.507   1.121
 9277TIP3    H127774   5.836   3.529   1.045
 9277TIP3    H227775   5.846   3.551   1.194
 9278TIP3   OH227776   1.433   0.558   5.758
 9278TIP3    H127777   1.406   0.610   5.833
 9278TIP3    H227778   1.368   0.488   5.751
 9279TIP3   OH227779   7.081   3.965   4.396
 9279TIP3    H127780   6.998   4.010   4.380
 9279TIP3    H227781   7.064   3.912   4.474
 9280TIP3   OH227782   3.361   1.017   2.920
 9280TIP3    H127783   3.306   1.095   2.913
 9280TIP3    H227784   3.300   0.948   2.948
 9281TIP3   OH227785   6.055   4.950   6.804
 9281TIP3    H127786   6.080   5.029   6.756
 9281TIP3    H227787   5.960   4.946   6.795
 9282TIP3   OH227788   1.204   4.936   5.324
 9282TIP3    H127789   1.256   5.015   5.309
 9282TIP3    H227790   1.240   4.871   5.264
 9283TIP3   OH227791   6.557   6.024   5.669
 9283TIP3    H127792   6.632   5.977   5.706
 9283TIP3    H227793   6.481   5.970   5.689
 9284TIP3   OH227794   2.554   0.857   0.658
 9284TIP3    H127795   2.485   0.917   0.628
 9284TIP3    H227796   2.507   0.787   0.703
 9285TIP3   OH227797   4.711   0.565   2.244
 9285TIP3    H127798   4.691   0.552   2.337
 9285TIP3    H227799   4.725   0.477   2.210
 9286TIP3   OH227800   1.286   0.420   6.130
 9286TIP3    H127801   1.245   0.368   6.061
 9286TIP3    H227802   1.368   0.451   6.093
 9287TIP3   OH227803   0.552   4.510   1.089
 9287TIP3    H127804   0.494   4.435   1.096
 9287TIP3    H227805   0.590   4.520   1.177
 9288TIP3   OH227806   2.599   4.907   0.086
 9288TIP3    H127807   2.644   4.968   0.027
 9288TIP3    H227808   2.506   4.922   0.069
 9289TIP3   OH227809   2.908   3.615   5.811
 9289TIP3    H127810   2.981   3.564   5.845
 9289TIP3    H227811   2.948   3.684   5.758
 9290TIP3   OH227812   6.782   5.839   4.762
 9290TIP3    H127813   6.852   5.887   4.806
 9290TIP3    H227814   6.719   5.820   4.832
 9291TIP3   OH227815   3.080   4.550   1.329
 9291TIP3    H127816   3.152   4.580   1.385
 9291TIP3    H227817   3.119   4.544   1.242
 9292TIP3   OH227818   8.247   2.288   3.218
 9292TIP3    H127819   8.210   2.371   3.247
 9292TIP3    H227820   8.327   2.311   3.172
 9293TIP3   OH227821   1.861   0.805   4.949
 9293TIP3    H127822   1.821   0.815   5.036
 9293TIP3    H227823   1.833   0.883   4.901
 9294TIP3   OH227824   4.334   6.363   0.379
 9294TIP3    H127825   4.367   6.319   0.458
 9294TIP3    H227826   4.404   6.352   0.315
 9295TIP3   OH227827   3.006   4.378   5.163
 9295TIP3    H127828   2.949   4.451   5.139
 9295TIP3    H227829   3.092   4.418   5.178
 9296TIP3   OH227830   6.873   6.362   5.785
 9296TIP3    H127831   6.882   6.427   5.855
 9296TIP3    H227832   6.809   6.300   5.819
 9297TIP3   OH227833   4.240   1.378   1.962
 9297TIP3    H127834   4.222   1.471   1.979
 9297TIP3    H227835   4.302   1.353   2.031
 9298TIP3   OH227836   5.856   6.662   4.637
 9298TIP3    H127837   5.851   6.747   4.682
 9298TIP3    H227838   5.949   6.642   4.633
 9299TIP3   OH227839   5.994   0.679   1.575
 9299TIP3    H127840   6.067   0.739   1.585
 9299TIP3    H227841   5.983   0.671   1.480
 9300TIP3   OH227842   2.084   2.232   2.348
 9300TIP3    H127843   2.098   2.167   2.417
 9300TIP3    H227844   2.041   2.306   2.392
 9301TIP3   OH227845   3.076   2.175   4.896
 9301TIP3    H127846   3.031   2.114   4.954
 9301TIP3    H227847   3.007   2.211   4.841
 9302TIP3   OH227848   7.934   7.221   2.342
 9302TIP3    H127849   7.972   7.304   2.371
 9302TIP3    H227850   7.850   7.245   2.303
 9303TIP3   OH227851   2.900   0.942   3.662
 9303TIP3    H127852   2.995   0.953   3.667
 9303TIP3    H227853   2.876   0.979   3.576
 9304TIP3   OH227854   0.446   0.145   2.293
 9304TIP3    H127855   0.476   0.105   2.211
 9304TIP3    H227856   0.492   0.096   2.361
 9305TIP3   OH227857   8.009   2.122   4.149
 9305TIP3    H127858   7.928   2.098   4.104
 9305TIP3    H227859   7.982   2.185   4.216
 9306TIP3   OH227860   6.738   4.813   3.252
 9306TIP3    H127861   6.734   4.802   3.347
 9306TIP3    H227862   6.772   4.729   3.220
 9307TIP3   OH227863   0.796   6.346   2.650
 9307TIP3    H127864   0.713   6.298   2.655
 9307TIP3    H227865   0.784   6.421   2.708
 9308TIP3   OH227866   3.472   5.764   1.653
 9308TIP3    H127867   3.534   5.722   1.593
 9308TIP3    H227868   3.517   5.843   1.681
 9309TIP3   OH227869   1.419   3.517   5.421
 9309TIP3    H127870   1.448   3.487   5.507
 9309TIP3    H227871   1.377   3.441   5.381
 9310TIP3   OH227872   6.324   4.194   0.727
 9310TIP3    H127873   6.232   4.172   0.712
 9310TIP3    H227874   6.373   4.119   0.693
 9311TIP3   OH227875   7.417   5.329   4.279
 9311TIP3    H127876   7.452   5.277   4.206
 9311TIP3    H227877   7.344   5.378   4.240
 9312TIP3   OH227878   7.807   0.318   6.045
 9312TIP3    H127879   7.804   0.406   6.082
 9312TIP3    H227880   7.753   0.323   5.966
 9313TIP3   OH227881   1.723   0.445   4.080
 9313TIP3    H127882   1.751   0.536   4.093
 9313TIP3    H227883   1.769   0.396   4.147
 9314TIP3   OH227884   8.196   6.204   3.266
 9314TIP3    H127885   8.189   6.115   3.233
 9314TIP3    H227886   8.223   6.194   3.357
 9315TIP3   OH227887   3.121   5.191   6.394
 9315TIP3    H127888   3.153   5.271   6.352
 9315TIP3    H227889   3.199   5.147   6.426
 9316TIP3   OH227890   4.557   2.301   2.003
 9316TIP3    H127891   4.482   2.358   1.985
 9316TIP3    H227892   4.588   2.328   2.089
 9317TIP3   OH227893   2.457   4.175   0.782
 9317TIP3    H127894   2.375   4.209   0.746
 9317TIP3    H227895   2.447   4.185   0.877
 9318TIP3   OH227896   2.894   3.291   3.123
 9318TIP3    H127897   2.889   3.201   3.091
 9318TIP3    H227898   2.978   3.323   3.092
 9319TIP3   OH227899   7.668   6.364   5.259
 9319TIP3    H127900   7.637   6.388   5.346
 9319TIP3    H227901   7.597   6.390   5.200
 9320TIP3   OH227902   2.129   6.550   0.196
 9320TIP3    H127903   2.127   6.454   0.195
 9320TIP3    H227904   2.080   6.576   0.118
 9321TIP3   OH227905   5.604   7.291   2.261
 9321TIP3    H127906   5.581   7.344   2.184
 9321TIP3    H227907   5.561   7.336   2.334
 9322TIP3   OH227908   1.478   6.335   4.063
 9322TIP3    H127909   1.489   6.405   3.999
 9322TIP3    H227910   1.384   6.315   4.060
 9323TIP3   OH227911   0.157   5.367   0.492
 9323TIP3    H127912   0.195   5.342   0.576
 9323TIP3    H227913   0.191   5.455   0.476
 9324TIP3   OH227914   4.940   3.517   4.990
 9324TIP3    H127915   4.847   3.535   4.973
 9324TIP3    H227916   4.971   3.474   4.910
 9325TIP3   OH227917   4.669   1.796   4.258
 9325TIP3    H127918   4.610   1.743   4.311
 9325TIP3    H227919   4.613   1.829   4.187
 9326TIP3   OH227920   8.105   5.338   5.757
 9326TIP3    H127921   8.184   5.345   5.811
 9326TIP3    H227922   8.137   5.319   5.669
 9327TIP3   OH227923   0.596   2.417   2.921
 9327TIP3    H127924   0.587   2.438   3.014
 9327TIP3    H227925   0.525   2.466   2.879
 9328TIP3   OH227926   0.078   5.733   4.649
 9328TIP3    H127927   0.156   5.750   4.702
 9328TIP3    H227928   0.032   5.664   4.697
 9329TIP3   OH227929   5.595   1.802   4.472
 9329TIP3    H127930   5.632   1.882   4.434
 9329TIP3    H227931   5.662   1.736   4.456
 9330TIP3   OH227932   7.511   3.859   0.622
 9330TIP3    H127933   7.536   3.772   0.591
 9330TIP3    H227934   7.417   3.853   0.638
 9331TIP3   OH227935   6.941   5.345   4.469
 9331TIP3    H127936   6.915   5.254   4.456
 9331TIP3    H227937   6.923   5.387   4.384
 9332TIP3   OH227938   6.020   6.326   4.802
 9332TIP3    H127939   6.110   6.335   4.769
 9332TIP3    H227940   6.005   6.405   4.853
 9333TIP3   OH227941   3.972   4.524   0.702
 9333TIP3    H127942   4.003   4.566   0.622
 9333TIP3    H227943   3.892   4.572   0.725
 9334TIP3   OH227944   4.692   1.224   3.987
 9334TIP3    H127945   4.623   1.227   4.052
 9334TIP3    H227946   4.725   1.313   3.982
 9335TIP3   OH227947   0.020   2.387   4.068
 9335TIP3    H127948   0.007   2.377   4.162
 9335TIP3    H227949  -0.065   2.417   4.035
 9336TIP3   OH227950   0.785   5.781   2.410
 9336TIP3    H127951   0.862   5.834   2.391
 9336TIP3    H227952   0.793   5.759   2.502
 9337TIP3   OH227953   3.465   5.312   3.064
 9337TIP3    H127954   3.460   5.403   3.036
 9337TIP3    H227955   3.374   5.287   3.082
 9338TIP3   OH227956   1.670   7.821   4.732
 9338TIP3    H127957   1.749   7.825   4.679
 9338TIP3    H227958   1.702   7.830   4.822
 9339TIP3   OH227959   3.186   0.598   4.935
 9339TIP3    H127960   3.190   0.648   5.016
 9339TIP3    H227961   3.157   0.511   4.961
 9340TIP3   OH227962   5.092   0.845   0.756
 9340TIP3    H127963   5.067   0.807   0.671
 9340TIP3    H227964   5.009   0.861   0.801
 9341TIP3   OH227965   5.707   2.538   1.075
 9341TIP3    H127966   5.738   2.597   1.006
 9341TIP3    H227967   5.622   2.507   1.044
 9342TIP3   OH227968   7.984   4.631   5.203
 9342TIP3    H127969   7.933   4.707   5.174
 9342TIP3    H227970   7.949   4.609   5.289
 9343TIP3   OH227971   7.418   0.290   6.154
 9343TIP3    H127972   7.473   0.244   6.217
 9343TIP3    H227973   7.458   0.377   6.147
 9344TIP3   OH227974   4.702   0.974   5.682
 9344TIP3    H127975   4.740   0.910   5.741
 9344TIP3    H227976   4.776   1.010   5.633
 9345TIP3   OH227977   6.062   3.726   4.941
 9345TIP3    H127978   6.050   3.683   5.026
 9345TIP3    H227979   6.118   3.666   4.892
 9346TIP3   OH227980   5.709   1.570   1.005
 9346TIP3    H127981   5.786   1.619   0.979
 9346TIP3    H227982   5.665   1.548   0.923
 9347TIP3   OH227983   1.094   1.562   4.010
 9347TIP3    H127984   1.035   1.636   3.996
 9347TIP3    H227985   1.182   1.601   4.006
 9348TIP3   OH227986   7.418   6.128   2.523
 9348TIP3    H127987   7.324   6.122   2.504
 9348TIP3    H227988   7.443   6.039   2.547
 9349TIP3   OH227989   0.394   5.969   4.022
 9349TIP3    H127990   0.408   5.911   4.097
 9349TIP3    H227991   0.475   5.962   3.971
 9350TIP3   OH227992   3.679   2.291   3.269
 9350TIP3    H127993   3.729   2.269   3.348
 9350TIP3    H227994   3.598   2.240   3.277
 9351TIP3   OH227995   7.009   2.579   4.802
 9351TIP3    H127996   6.970   2.661   4.833
 9351TIP3    H227997   6.973   2.512   4.860
 9352TIP3   OH227998   5.823   0.084   2.536
 9352TIP3    H127999   5.848   0.007   2.586
 9352TIP3    H228000   5.751   0.054   2.481
 9353TIP3   OH228001   3.697   6.125   3.100
 9353TIP3    H128002   3.622   6.178   3.073
 9353TIP3    H228003   3.771   6.165   3.055
 9354TIP3   OH228004   6.466   6.858   3.491
 9354TIP3    H128005   6.473   6.923   3.561
 9354TIP3    H228006   6.373   6.857   3.468
 9355TIP3   OH228007   6.418   2.276   2.788
 9355TIP3    H128008   6.454   2.336   2.723
 9355TIP3    H228009   6.430   2.189   2.750
 9356TIP3   OH228010   5.306   0.847   5.709
 9356TIP3    H128011   5.258   0.928   5.726
 9356TIP3    H228012   5.388   0.857   5.758
 9357TIP3   OH228013   2.144   6.862   2.309
 9357TIP3    H128014   2.172   6.894   2.395
 9357TIP3    H228015   2.100   6.937   2.269
 9358TIP3   OH228016   1.842   7.492   0.050
 9358TIP3    H128017   1.810   7.568   0.098
 9358TIP3    H228018   1.937   7.494   0.061
 9359TIP3   OH228019   4.697   7.702   5.963
 9359TIP3    H128020   4.616   7.752   5.966
 9359TIP3    H228021   4.684   7.638   5.893
 9360TIP3   OH228022   0.077   0.803   3.263
 9360TIP3    H128023   0.120   0.717   3.261
 9360TIP3    H228024   0.147   0.864   3.238
 9361TIP3   OH228025   5.852   4.786   6.471
 9361TIP3    H128026   5.813   4.809   6.555
 9361TIP3    H228027   5.898   4.704   6.487
 9362TIP3   OH228028   7.514   5.938   5.931
 9362TIP3    H128029   7.471   5.863   5.889
 9362TIP3    H228030   7.500   5.924   6.024
 9363TIP3   OH228031   4.259   4.076   3.761
 9363TIP3    H128032   4.254   3.987   3.796
 9363TIP3    H228033   4.304   4.067   3.677
 9364TIP3   OH228034   4.170   2.201   3.192
 9364TIP3    H128035   4.253   2.225   3.235
 9364TIP3    H228036   4.107   2.265   3.225
 9365TIP3   OH228037   6.344   0.786   1.027
 9365TIP3    H128038   6.386   0.871   1.013
 9365TIP3    H228039   6.415   0.729   1.057
 9366TIP3   OH228040   2.736   3.621   5.599
 9366TIP3    H128041   2.776   3.607   5.685
 9366TIP3    H228042   2.810   3.619   5.538
 9367TIP3   OH228043   2.123   7.350   3.732
 9367TIP3    H128044   2.110   7.440   3.761
 9367TIP3    H228045   2.087   7.348   3.644
 9368TIP3   OH228046   2.353   4.833   4.254
 9368TIP3    H128047   2.328   4.921   4.282
 9368TIP3    H228048   2.440   4.820   4.293
 9369TIP3   OH228049   0.618   4.847   3.343
 9369TIP3    H128050   0.701   4.870   3.300
 9369TIP3    H228051   0.566   4.927   3.338
 9370TIP3   OH228052   0.111   3.963   0.415
 9370TIP3    H128053   0.198   3.947   0.451
 9370TIP3    H228054   0.100   4.058   0.417
 9371TIP3   OH228055   2.017   4.636   0.049
 9371TIP3    H128056   1.954   4.589   0.105
 9371TIP3    H228057   2.045   4.711   0.101
 9372TIP3   OH228058   4.025   4.472   2.334
 9372TIP3    H128059   3.945   4.518   2.358
 9372TIP3    H228060   4.001   4.380   2.332
 9373TIP3   OH228061   5.455   7.296   5.969
 9373TIP3    H128062   5.425   7.366   6.026
 9373TIP3    H228063   5.479   7.340   5.887
 9374TIP3   OH228064   1.782   0.361   1.953
 9374TIP3    H128065   1.806   0.391   2.040
 9374TIP3    H228066   1.776   0.441   1.901
 9375TIP3   OH228067   3.626   5.111   1.891
 9375TIP3    H128068   3.669   5.140   1.811
 9375TIP3    H228069   3.586   5.190   1.928
 9376TIP3   OH228070   6.497   4.038   3.761
 9376TIP3    H128071   6.578   4.003   3.725
 9376TIP3    H228072   6.518   4.061   3.851
 9377TIP3   OH228073   2.161   6.106   4.633
 9377TIP3    H128074   2.107   6.027   4.642
 9377TIP3    H228075   2.119   6.155   4.563
 9378TIP3   OH228076   0.764   7.109   4.509
 9378TIP3    H128077   0.745   7.041   4.444
 9378TIP3    H228078   0.725   7.189   4.473
 9379TIP3   OH228079   0.003   7.801   4.770
 9379TIP3    H128080  -0.044   7.795   4.687
 9379TIP3    H228081   0.077   7.859   4.752
 9380TIP3   OH228082   1.764   5.834   1.062
 9380TIP3    H128083   1.733   5.883   1.138
 9380TIP3    H228084   1.742   5.743   1.081
 9381TIP3   OH228085   4.167   7.117   5.364
 9381TIP3    H128086   4.144   7.164   5.444
 9381TIP3    H228087   4.259   7.139   5.349
 9382TIP3   OH228088   2.166   6.610   4.080
 9382TIP3    H128089   2.151   6.681   4.017
 9382TIP3    H228090   2.218   6.652   4.150
 9383TIP3   OH228091   4.539   6.683   6.361
 9383TIP3    H128092   4.482   6.760   6.361
 9383TIP3    H228093   4.627   6.719   6.370
 9384TIP3   OH228094   0.716   7.675   0.748
 9384TIP3    H128095   0.678   7.590   0.726
 9384TIP3    H228096   0.736   7.715   0.663
 9385TIP3   OH228097   3.667   0.705   4.608
 9385TIP3    H128098   3.623   0.645   4.668
 9385TIP3    H228099   3.735   0.747   4.661
 9386TIP3   OH228100   6.271   7.864   0.555
 9386TIP3    H128101   6.344   7.828   0.506
 9386TIP3    H228102   6.252   7.799   0.622
 9387TIP3   OH228103   4.594   6.505   4.426
 9387TIP3    H128104   4.519   6.547   4.467
 9387TIP3    H228105   4.557   6.452   4.356
 9388TIP3   OH228106   0.999   0.503   6.467
 9388TIP3    H128107   0.942   0.500   6.391
 9388TIP3    H228108   1.080   0.459   6.439
 9389TIP3   OH228109   2.091   2.811   4.555
 9389TIP3    H128110   2.034   2.862   4.497
 9389TIP3    H228111   2.180   2.838   4.531
 9390TIP3   OH228112   0.765   5.871   0.032
 9390TIP3    H128113   0.731   5.843   0.116
 9390TIP3    H228114   0.688   5.882  -0.023
 9391TIP3   OH228115   2.705   2.497   0.757
 9391TIP3    H128116   2.738   2.581   0.724
 9391TIP3    H228117   2.610   2.503   0.747
 9392TIP3   OH228118   3.600   7.583   5.225
 9392TIP3    H128119   3.589   7.583   5.130
 9392TIP3    H228120   3.671   7.645   5.241
 9393TIP3   OH228121   4.950   2.872   1.968
 9393TIP3    H128122   4.881   2.844   2.028
 9393TIP3    H228123   4.987   2.950   2.009
 9394TIP3   OH228124   6.358   6.574   3.451
 9394TIP3    H128125   6.276   6.550   3.494
 9394TIP3    H228126   6.357   6.670   3.449
 9395TIP3   OH228127   4.250   2.598   2.671
 9395TIP3    H128128   4.342   2.623   2.663
 9395TIP3    H228129   4.202   2.680   2.670
 9396TIP3   OH228130   4.899   0.746   1.075
 9396TIP3    H128131   4.809   0.730   1.104
 9396TIP3    H228132   4.949   0.759   1.155
 9397TIP3   OH228133   8.015   2.916   6.539
 9397TIP3    H128134   7.985   2.986   6.596
 9397TIP3    H228135   7.945   2.850   6.543
 9398TIP3   OH228136   7.516   5.131   3.352
 9398TIP3    H128137   7.538   5.053   3.404
 9398TIP3    H228138   7.567   5.121   3.272
 9399TIP3   OH228139   1.323   0.709   1.345
 9399TIP3    H128140   1.348   0.667   1.262
 9399TIP3    H228141   1.228   0.706   1.346
 9400TIP3   OH228142   3.087   0.029   2.065
 9400TIP3    H128143   3.124   0.037   1.977
 9400TIP3    H228144   3.123   0.104   2.113
 9401TIP3   OH228145   6.491   1.236   5.590
 9401TIP3    H128146   6.573   1.283   5.574
 9401TIP3    H228147   6.480   1.181   5.512
 9402TIP3   OH228148   3.293   7.422   6.644
 9402TIP3    H128149   3.274   7.510   6.677
 9402TIP3    H228150   3.355   7.386   6.708
 9403TIP3   OH228151   3.107   3.394   3.728
 9403TIP3    H128152   3.022   3.437   3.743
 9403TIP3    H228153   3.133   3.362   3.814
 9404TIP3   OH228154   2.178   5.251   4.529
 9404TIP3    H128155   2.272   5.265   4.539
 9404TIP3    H228156   2.161   5.267   4.436
 9405TIP3   OH228157   4.383   0.598   2.520
 9405TIP3    H128158   4.431   0.597   2.438
 9405TIP3    H228159   4.348   0.510   2.529
 9406TIP3   OH228160   4.660   5.617   6.104
 9406TIP3    H128161   4.697   5.675   6.170
 9406TIP3    H228162   4.663   5.530   6.143
 9407TIP3   OH228163   1.597   5.569   0.441
 9407TIP3    H128164   1.566   5.651   0.401
 9407TIP3    H228165   1.530   5.505   0.418
 9408TIP3   OH228166   3.078   2.596   3.283
 9408TIP3    H128167   3.051   2.534   3.215
 9408TIP3    H228168   3.162   2.563   3.313
 9409TIP3   OH228169   4.528   6.679   0.990
 9409TIP3    H128170   4.623   6.666   0.987
 9409TIP3    H228171   4.492   6.601   0.947
 9410TIP3   OH228172   0.344   0.900   5.005
 9410TIP3    H128173   0.379   0.887   4.917
 9410TIP3    H228174   0.249   0.910   4.991
 9411TIP3   OH228175   2.867   2.209   3.569
 9411TIP3    H128176   2.948   2.256   3.591
 9411TIP3    H228177   2.857   2.224   3.475
 9412TIP3   OH228178   6.826   4.759   5.990
 9412TIP3    H128179   6.825   4.744   5.895
 9412TIP3    H228180   6.762   4.697   6.024
 9413TIP3   OH228181   0.843   2.960   6.462
 9413TIP3    H128182   0.754   2.982   6.435
 9413TIP3    H228183   0.882   3.044   6.487
 9414TIP3   OH228184   3.075   0.236   6.016
 9414TIP3    H128185   3.076   0.140   6.016
 9414TIP3    H228186   3.105   0.260   6.103
 9415TIP3   OH228187   5.448   2.511   2.553
 9415TIP3    H128188   5.420   2.557   2.474
 9415TIP3    H228189   5.408   2.560   2.624
 9416TIP3   OH228190   3.833   6.547   0.679
 9416TIP3    H128191   3.808   6.504   0.598
 9416TIP3    H228192   3.925   6.572   0.666
 9417TIP3   OH228193   2.218   6.696   4.924
 9417TIP3    H128194   2.150   6.721   4.987
 9417TIP3    H228195   2.271   6.775   4.914
 9418TIP3   OH228196   4.377   0.179   2.383
 9418TIP3    H128197   4.318   0.177   2.308
 9418TIP3    H228198   4.405   0.088   2.395
 9419TIP3   OH228199   2.613   3.165   0.625
 9419TIP3    H128200   2.579   3.128   0.543
 9419TIP3    H228201   2.686   3.220   0.597
 9420TIP3   OH228202   0.804   2.432   1.610
 9420TIP3    H128203   0.760   2.350   1.630
 9420TIP3    H228204   0.826   2.426   1.517
 9421TIP3   OH228205   0.988   4.107   6.654
 9421TIP3    H128206   0.907   4.120   6.604
 9421TIP3    H228207   1.057   4.141   6.597
 9422TIP3   OH228208   6.677   1.395   4.922
 9422TIP3    H128209   6.712   1.427   5.005
 9422TIP3    H228210   6.606   1.336   4.947
 9423TIP3   OH228211   2.886   2.003   1.101
 9423TIP3    H128212   2.972   2.010   1.143
 9423TIP3    H228213   2.824   2.018   1.172
 9424TIP3   OH228214   3.414   1.642   3.286
 9424TIP3    H128215   3.468   1.604   3.216
 9424TIP3    H228216   3.458   1.614   3.366
 9425TIP3   OH228217   5.145   6.175   4.111
 9425TIP3    H128218   5.199   6.243   4.069
 9425TIP3    H228219   5.201   6.138   4.179
 9426TIP3   OH228220   7.656   3.869   1.508
 9426TIP3    H128221   7.654   3.842   1.416
 9426TIP3    H228222   7.621   3.958   1.508
 9427TIP3   OH228223   0.651   5.359   0.789
 9427TIP3    H128224   0.598   5.394   0.861
 9427TIP3    H228225   0.739   5.392   0.806
 9428TIP3   OH228226   0.396   5.250   5.496
 9428TIP3    H128227   0.435   5.193   5.430
 9428TIP3    H228228   0.312   5.209   5.516
 9429TIP3   OH228229   6.400   6.938   0.367
 9429TIP3    H128230   6.451   6.995   0.310
 9429TIP3    H228231   6.364   6.872   0.309
 9430TIP3   OH228232   0.150   6.515   6.376
 9430TIP3    H128233   0.082   6.555   6.321
 9430TIP3    H228234   0.117   6.427   6.394
 9431TIP3   OH228235   5.765   1.621   0.391
 9431TIP3    H128236   5.815   1.555   0.342
 9431TIP3    H228237   5.831   1.687   0.415
 9432TIP3   OH228238   1.829   3.414   4.108
 9432TIP3    H128239   1.797   3.326   4.086
 9432TIP3    H228240   1.850   3.409   4.201
 9433TIP3   OH228241   1.893   3.600   1.670
 9433TIP3    H128242   1.925   3.584   1.581
 9433TIP3    H228243   1.811   3.552   1.676
 9434TIP3   OH228244   6.246   1.076   2.475
 9434TIP3    H128245   6.192   1.123   2.412
 9434TIP3    H228246   6.293   1.011   2.422
 9435TIP3   OH228247   0.697   1.798   5.179
 9435TIP3    H128248   0.657   1.885   5.170
 9435TIP3    H228249   0.682   1.775   5.271
 9436TIP3   OH228250   4.741   5.285   3.376
 9436TIP3    H128251   4.743   5.292   3.472
 9436TIP3    H228252   4.786   5.363   3.345
 9437TIP3   OH228253   6.925   0.411   5.674
 9437TIP3    H128254   6.989   0.417   5.603
 9437TIP3    H228255   6.978   0.402   5.753
 9438TIP3   OH228256   1.194   6.140   0.238
 9438TIP3    H128257   1.243   6.214   0.202
 9438TIP3    H228258   1.139   6.111   0.165
 9439TIP3   OH228259   6.355   7.610   1.192
 9439TIP3    H128260   6.383   7.543   1.130
 9439TIP3    H228261   6.297   7.667   1.141
 9440TIP3   OH228262   0.082   4.055   4.708
 9440TIP3    H128263   0.096   4.132   4.764
 9440TIP3    H228264   0.135   4.073   4.630
 9441TIP3   OH228265   5.641   0.182   1.371
 9441TIP3    H128266   5.668   0.164   1.281
 9441TIP3    H228267   5.565   0.125   1.385
 9442TIP3   OH228268   0.715   0.031   6.047
 9442TIP3    H128269   0.644   0.073   6.097
 9442TIP3    H228270   0.733  -0.050   6.095
 9443TIP3   OH228271   5.525   0.443   0.689
 9443TIP3    H128272   5.450   0.399   0.648
 9443TIP3    H228273   5.486   0.503   0.753
 9444TIP3   OH228274   3.145   2.745   2.157
 9444TIP3    H128275   3.230   2.789   2.155
 9444TIP3    H228276   3.082   2.817   2.158
 9445TIP3   OH228277   1.607   2.636   5.301
 9445TIP3    H128278   1.598   2.553   5.253
 9445TIP3    H228279   1.575   2.617   5.389
 9446TIP3   OH228280   5.407   4.767   4.895
 9446TIP3    H128281   5.378   4.680   4.870
 9446TIP3    H228282   5.503   4.764   4.884
 9447TIP3   OH228283   6.133   2.352   4.988
 9447TIP3    H128284   6.050   2.314   4.958
 9447TIP3    H228285   6.145   2.430   4.934
 9448TIP3   OH228286   0.050   0.017   2.871
 9448TIP3    H128287   0.042  -0.079   2.869
 9448TIP3    H228288   0.122   0.035   2.810
 9449TIP3   OH228289   5.857   2.144   3.371
 9449TIP3    H128290   5.817   2.104   3.448
 9449TIP3    H228291   5.904   2.221   3.404
 9450TIP3   OH228292   6.913   4.288   0.236
 9450TIP3    H128293   6.846   4.335   0.186
 9450TIP3    H228294   6.871   4.270   0.320
 9451TIP3   OH228295   5.878   5.607   0.186
 9451TIP3    H128296   5.818   5.598   0.112
 9451TIP3    H228297   5.950   5.660   0.153
 9452TIP3   OH228298   6.752   2.581   6.650
 9452TIP3    H128299   6.844   2.573   6.626
 9452TIP3    H228300   6.736   2.676   6.651
 9453TIP3   OH228301   7.593   4.750   0.242
 9453TIP3    H128302   7.528   4.701   0.193
 9453TIP3    H228303   7.677   4.722   0.206
 9454TIP3   OH228304   6.096   2.547   3.526
 9454TIP3    H128305   6.189   2.560   3.546
 9454TIP3    H228306   6.078   2.609   3.455
 9455TIP3   OH228307   7.086   0.274   4.339
 9455TIP3    H128308   7.097   0.365   4.312
 9455TIP3    H228309   7.030   0.236   4.272
 9456TIP3   OH228310   6.595   7.535   1.853
 9456TIP3    H128311   6.563   7.455   1.810
 9456TIP3    H228312   6.538   7.545   1.930
 9457TIP3   OH228313   7.666   2.014   6.796
 9457TIP3    H128314   7.732   2.015   6.727
 9457TIP3    H228315   7.665   2.104   6.830
 9458TIP3   OH228316   2.595   3.533   3.065
 9458TIP3    H128317   2.626   3.604   3.009
 9458TIP3    H228318   2.639   3.547   3.149
 9459TIP3   OH228319   3.109   1.651   2.901
 9459TIP3    H128320   3.137   1.728   2.851
 9459TIP3    H228321   3.018   1.669   2.924
 9460TIP3   OH228322   3.865   3.319   1.978
 9460TIP3    H128323   3.850   3.294   2.069
 9460TIP3    H228324   3.888   3.412   1.982
 9461TIP3   OH228325   2.347   5.744   0.506
 9461TIP3    H128326   2.437   5.719   0.525
 9461TIP3    H228327   2.336   5.724   0.412
 9462TIP3   OH228328   0.585   1.574   1.572
 9462TIP3    H128329   0.540   1.489   1.577
 9462TIP3    H228330   0.612   1.580   1.480
 9463TIP3   OH228331   7.633   3.237   3.472
 9463TIP3    H128332   7.565   3.228   3.540
 9463TIP3    H228333   7.620   3.161   3.416
 9464TIP3   OH228334   6.037   7.392   1.022
 9464TIP3    H128335   6.059   7.447   0.946
 9464TIP3    H228336   6.091   7.314   1.011
 9465TIP3   OH228337   1.922   1.542   3.846
 9465TIP3    H128338   1.861   1.596   3.796
 9465TIP3    H228339   1.975   1.498   3.780
 9466TIP3   OH228340   0.900   6.050   0.723
 9466TIP3    H128341   0.961   6.079   0.656
 9466TIP3    H228342   0.884   6.128   0.777
 9467TIP3   OH228343   1.224   4.645   4.385
 9467TIP3    H128344   1.275   4.645   4.466
 9467TIP3    H228345   1.287   4.668   4.317
 9468TIP3   OH228346   4.322   1.489   3.581
 9468TIP3    H128347   4.381   1.500   3.656
 9468TIP3    H228348   4.344   1.402   3.547
 9469TIP3   OH228349   0.581   7.468   6.605
 9469TIP3    H128350   0.665   7.427   6.584
 9469TIP3    H228351   0.518   7.397   6.601
 9470TIP3   OH228352   7.324   6.020   6.705
 9470TIP3    H128353   7.296   5.937   6.746
 9470TIP3    H228354   7.419   6.020   6.714
 9471TIP3   OH228355   4.926   2.720   1.511
 9471TIP3    H128356   5.009   2.720   1.558
 9471TIP3    H228357   4.923   2.636   1.465
 9472TIP3   OH228358   5.012  -0.051   3.714
 9472TIP3    H128359   4.932  -0.104   3.718
 9472TIP3    H228360   4.983   0.036   3.740
 9473TIP3   OH228361   3.606   3.140   4.146
 9473TIP3    H128362   3.563   3.060   4.114
 9473TIP3    H228363   3.541   3.209   4.131
 9474TIP3   OH228364   1.069   0.064   4.693
 9474TIP3    H128365   1.091   0.038   4.782
 9474TIP3    H228366   0.990   0.118   4.703
 9475TIP3   OH228367   7.047   4.423   5.361
 9475TIP3    H128368   7.001   4.436   5.278
 9475TIP3    H228369   7.105   4.498   5.369
 9476TIP3   OH228370   4.058   3.567   0.061
 9476TIP3    H128371   4.016   3.495   0.015
 9476TIP3    H228372   4.072   3.634  -0.006
 9477TIP3   OH228373   5.343   2.637   5.428
 9477TIP3    H128374   5.321   2.573   5.360
 9477TIP3    H228375   5.291   2.609   5.504
 9478TIP3   OH228376   4.719   6.397   6.436
 9478TIP3    H128377   4.672   6.415   6.517
 9478TIP3    H228378   4.810   6.422   6.454
 9479TIP3   OH228379   7.470   1.018  -0.011
 9479TIP3    H128380   7.535   1.087  -0.021
 9479TIP3    H228381   7.491   0.955  -0.079
 9480TIP3   OH228382   1.495   5.869   5.919
 9480TIP3    H128383   1.559   5.801   5.899
 9480TIP3    H228384   1.541   5.951   5.899
 9481TIP3   OH228385   1.338   3.843   5.316
 9481TIP3    H128386   1.305   3.861   5.404
 9481TIP3    H228387   1.332   3.927   5.271
 9482TIP3   OH228388   7.646   1.090   2.825
 9482TIP3    H128389   7.604   1.105   2.910
 9482TIP3    H228390   7.573   1.076   2.764
 9483TIP3   OH228391   5.064   2.604   5.244
 9483TIP3    H128392   5.019   2.669   5.190
 9483TIP3    H228393   5.123   2.655   5.299
 9484TIP3   OH228394   4.069   4.474   4.003
 9484TIP3    H128395   4.145   4.471   3.945
 9484TIP3    H228396   4.053   4.383   4.026
 9485TIP3   OH228397   0.124   1.104   5.413
 9485TIP3    H128398   0.180   1.027   5.407
 9485TIP3    H228399   0.153   1.160   5.341
 9486TIP3   OH228400   3.527   7.476   2.926
 9486TIP3    H128401   3.470   7.414   2.880
 9486TIP3    H228402   3.537   7.437   3.014
 9487TIP3   OH228403   5.191   4.811   1.238
 9487TIP3    H128404   5.205   4.891   1.289
 9487TIP3    H228405   5.210   4.740   1.299
 9488TIP3   OH228406   6.052   6.867   0.624
 9488TIP3    H128407   6.052   6.799   0.557
 9488TIP3    H228408   6.144   6.885   0.641
 9489TIP3   OH228409   1.257   0.398   6.396
 9489TIP3    H128410   1.269   0.372   6.304
 9489TIP3    H228411   1.308   0.334   6.445
 9490TIP3   OH228412   0.078   5.106   4.705
 9490TIP3    H128413   0.122   5.118   4.789
 9490TIP3    H228414  -0.013   5.087   4.728
 9491TIP3   OH228415   1.189   5.649   5.037
 9491TIP3    H128416   1.128   5.575   5.040
 9491TIP3    H228417   1.139   5.722   5.072
 9492TIP3   OH228418   3.747   7.110   5.957
 9492TIP3    H128419   3.672   7.067   5.998
 9492TIP3    H228420   3.788   7.041   5.904
 9493TIP3   OH228421   7.920   1.338   5.217
 9493TIP3    H128422   7.860   1.304   5.151
 9493TIP3    H228423   7.965   1.261   5.252
 9494TIP3   OH228424   2.338   0.781   5.629
 9494TIP3    H128425   2.414   0.836   5.645
 9494TIP3    H228426   2.264   0.832   5.664
 9495TIP3   OH228427   3.854   7.693   1.624
 9495TIP3    H128428   3.804   7.622   1.583
 9495TIP3    H228429   3.892   7.740   1.550
 9496TIP3   OH228430   4.527   2.072   5.004
 9496TIP3    H128431   4.433   2.088   5.011
 9496TIP3    H228432   4.552   2.037   5.090
 9497TIP3   OH228433   5.545   0.007   0.416
 9497TIP3    H128434   5.557   0.075   0.350
 9497TIP3    H228435   5.591   0.040   0.494
 9498TIP3   OH228436   2.894   1.312   6.415
 9498TIP3    H128437   2.922   1.250   6.483
 9498TIP3    H228438   2.887   1.259   6.336
 9499TIP3   OH228439   1.373   6.508   6.073
 9499TIP3    H128440   1.285   6.469   6.079
 9499TIP3    H228441   1.390   6.540   6.162
 9500TIP3   OH228442   7.647   1.934   5.084
 9500TIP3    H128443   7.638   2.000   5.016
 9500TIP3    H228444   7.704   1.867   5.046
 9501TIP3   OH228445   2.965   6.297   4.843
 9501TIP3    H128446   2.912   6.217   4.836
 9501TIP3    H228447   3.011   6.302   4.759
 9502TIP3   OH228448   7.725   5.196   4.477
 9502TIP3    H128449   7.694   5.153   4.397
 9502TIP3    H228450   7.809   5.235   4.452
 9503TIP3   OH228451   0.084   2.283   0.705
 9503TIP3    H128452   0.153   2.293   0.771
 9503TIP3    H228453   0.077   2.188   0.692
 9504TIP3   OH228454   5.864   0.478   4.357
 9504TIP3    H128455   5.791   0.518   4.406
 9504TIP3    H228456   5.912   0.553   4.322
 9505TIP3   OH228457   0.668   0.457   2.528
 9505TIP3    H128458   0.733   0.492   2.467
 9505TIP3    H228459   0.718   0.433   2.606
 9506TIP3   OH228460   0.901   2.109   3.798
 9506TIP3    H128461   0.884   2.078   3.709
 9506TIP3    H228462   0.823   2.084   3.848
 9507TIP3   OH228463   6.658   1.742   1.861
 9507TIP3    H128464   6.737   1.696   1.834
 9507TIP3    H228465   6.659   1.824   1.811
 9508TIP3   OH228466   1.202   1.857   4.859
 9508TIP3    H128467   1.110   1.833   4.857
 9508TIP3    H228468   1.248   1.784   4.818
 9509TIP3   OH228469   8.109   6.604   3.018
 9509TIP3    H128470   8.069   6.532   3.067
 9509TIP3    H228471   8.178   6.637   3.075
 9510TIP3   OH228472   6.238   1.832   1.736
 9510TIP3    H128473   6.280   1.773   1.674
 9510TIP3    H228474   6.163   1.868   1.688
 9511TIP3   OH228475   3.282   2.994   4.384
 9511TIP3    H128476   3.238   3.011   4.300
 9511TIP3    H228477   3.228   3.040   4.449
 9512TIP3   OH228478   8.086   1.119   5.702
 9512TIP3    H128479   8.128   1.122   5.788
 9512TIP3    H228480   8.010   1.063   5.715
 9513TIP3   OH228481   3.845   4.856   2.822
 9513TIP3    H128482   3.756   4.883   2.844
 9513TIP3    H228483   3.834   4.796   2.748
 9514TIP3   OH228484   5.230   7.823   0.726
 9514TIP3    H128485   5.307   7.781   0.688
 9514TIP3    H228486   5.226   7.909   0.684
 9515TIP3   OH228487   4.115   3.503   6.749
 9515TIP3    H128488   4.042   3.550   6.707
 9515TIP3    H228489   4.188   3.565   6.747
 9516TIP3   OH228490   0.769   5.126   0.722
 9516TIP3    H128491   0.716   5.205   0.730
 9516TIP3    H228492   0.856   5.157   0.697
 9517TIP3   OH228493   4.094   5.592   6.614
 9517TIP3    H128494   4.089   5.498   6.628
 9517TIP3    H228495   4.187   5.609   6.597
 9518TIP3   OH228496   8.108   5.997   4.221
 9518TIP3    H128497   8.096   6.080   4.267
 9518TIP3    H228498   8.109   6.020   4.129
 9519TIP3   OH228499   0.500   1.395   3.358
 9519TIP3    H128500   0.581   1.362   3.318
 9519TIP3    H228501   0.503   1.364   3.448
 9520TIP3   OH228502   3.400   4.873   6.020
 9520TIP3    H128503   3.415   4.956   6.064
 9520TIP3    H228504   3.460   4.874   5.945
 9521TIP3   OH228505   5.416   7.673   3.546
 9521TIP3    H128506   5.362   7.594   3.535
 9521TIP3    H228507   5.369   7.725   3.611
 9522TIP3   OH228508   3.887   7.390   0.941
 9522TIP3    H128509   3.797   7.423   0.953
 9522TIP3    H228510   3.878   7.295   0.947
 9523TIP3   OH228511   7.987   0.078   5.837
 9523TIP3    H128512   7.982   0.125   5.753
 9523TIP3    H228513   7.898   0.079   5.870
 9524TIP3   OH228514   3.578   2.880   3.925
 9524TIP3    H128515   3.491   2.910   3.898
 9524TIP3    H228516   3.563   2.791   3.957
 9525TIP3   OH228517   0.664   6.486   5.377
 9525TIP3    H128518   0.617   6.441   5.447
 9525TIP3    H228519   0.603   6.487   5.304
 9526TIP3   OH228520   5.813   7.186   2.676
 9526TIP3    H128521   5.741   7.246   2.694
 9526TIP3    H228522   5.814   7.176   2.581
 9527TIP3   OH228523   7.228   0.658   0.738
 9527TIP3    H128524   7.304   0.684   0.790
 9527TIP3    H228525   7.153   0.682   0.792
 9528TIP3   OH228526   4.552   6.136   2.351
 9528TIP3    H128527   4.526   6.051   2.386
 9528TIP3    H228528   4.490   6.198   2.390
 9529TIP3   OH228529   5.796   4.726   1.143
 9529TIP3    H128530   5.831   4.766   1.064
 9529TIP3    H228531   5.702   4.748   1.142
 9530TIP3   OH228532   0.592   5.431   3.762
 9530TIP3    H128533   0.533   5.485   3.814
 9530TIP3    H228534   0.679   5.452   3.794
 9531TIP3   OH228535   7.535   7.139   3.395
 9531TIP3    H128536   7.480   7.139   3.316
 9531TIP3    H228537   7.600   7.206   3.379
 9532TIP3   OH228538   4.497   6.954   0.688
 9532TIP3    H128539   4.493   7.049   0.674
 9532TIP3    H228540   4.478   6.916   0.603
 9533TIP3   OH228541   6.947   1.261   2.142
 9533TIP3    H128542   6.883   1.196   2.172
 9533TIP3    H228543   6.925   1.340   2.191
 9534TIP3   OH228544   2.594   5.774   4.296
 9534TIP3    H128545   2.652   5.709   4.257
 9534TIP3    H228546   2.506   5.748   4.267
 9535TIP3   OH228547   5.496   6.318   2.197
 9535TIP3    H128548   5.489   6.236   2.244
 9535TIP3    H228549   5.590   6.336   2.193
 9536TIP3   OH228550   6.715   7.245   1.060
 9536TIP3    H128551   6.738   7.294   0.982
 9536TIP3    H228552   6.671   7.166   1.028
 9537TIP3   OH228553   4.544   2.754   4.911
 9537TIP3    H128554   4.496   2.734   4.831
 9537TIP3    H228555   4.634   2.728   4.891
 9538TIP3   OH228556   1.613   5.214   5.211
 9538TIP3    H128557   1.576   5.293   5.172
 9538TIP3    H228558   1.603   5.147   5.143
 9539TIP3   OH228559   0.090   4.564   2.025
 9539TIP3    H128560   0.008   4.516   2.012
 9539TIP3    H228561   0.067   4.656   2.013
 9540TIP3   OH228562   2.099   5.770   2.370
 9540TIP3    H128563   2.164   5.838   2.388
 9540TIP3    H228564   2.018   5.818   2.355
 9541TIP3   OH228565   3.429   6.823   0.180
 9541TIP3    H128566   3.343   6.799   0.213
 9541TIP3    H228567   3.475   6.740   0.170
 9542TIP3   OH228568   4.013   1.115   0.714
 9542TIP3    H128569   4.018   1.182   0.783
 9542TIP3    H228570   3.944   1.147   0.655
 9543TIP3   OH228571   2.813   3.431   5.109
 9543TIP3    H128572   2.786   3.367   5.042
 9543TIP3    H228573   2.870   3.492   5.062
 9544TIP3   OH228574   6.810   5.521   0.756
 9544TIP3    H128575   6.741   5.514   0.822
 9544TIP3    H228576   6.843   5.432   0.746
 9545TIP3   OH228577   5.046   2.068   0.824
 9545TIP3    H128578   5.053   2.078   0.919
 9545TIP3    H228579   5.075   2.153   0.789
 9546TIP3   OH228580   8.294   4.653   5.609
 9546TIP3    H128581   8.268   4.654   5.701
 9546TIP3    H228582   8.224   4.700   5.564
 9547TIP3   OH228583   3.823   1.208   1.114
 9547TIP3    H128584   3.805   1.290   1.160
 9547TIP3    H228585   3.858   1.150   1.181
 9548TIP3   OH228586   6.070   5.869   2.709
 9548TIP3    H128587   6.046   5.962   2.708
 9548TIP3    H228588   6.050   5.838   2.621
 9549TIP3   OH228589   4.914   2.435   4.775
 9549TIP3    H128590   5.000   2.422   4.814
 9549TIP3    H228591   4.927   2.415   4.682
 9550TIP3   OH228592   0.594   2.762   0.821
 9550TIP3    H128593   0.675   2.715   0.803
 9550TIP3    H228594   0.549   2.708   0.886
 9551TIP3   OH228595   4.095   4.819   0.964
 9551TIP3    H128596   4.136   4.849   0.883
 9551TIP3    H228597   4.088   4.897   1.018
 9552TIP3   OH228598   8.149   5.072   4.879
 9552TIP3    H128599   8.191   5.057   4.963
 9552TIP3    H228600   8.068   5.021   4.883
 9553TIP3   OH228601   4.176   7.245   1.055
 9553TIP3    H128602   4.148   7.329   1.019
 9553TIP3    H228603   4.094   7.197   1.070
 9554TIP3   OH228604   3.434   6.245   4.629
 9554TIP3    H128605   3.410   6.167   4.678
 9554TIP3    H228606   3.439   6.216   4.538
 9555TIP3   OH228607   3.112   3.818   6.115
 9555TIP3    H128608   3.124   3.896   6.061
 9555TIP3    H228609   3.153   3.839   6.199
 9556TIP3   OH228610   2.266   7.547   3.524
 9556TIP3    H128611   2.277   7.480   3.591
 9556TIP3    H228612   2.309   7.625   3.560
 9557TIP3   OH228613   2.180   4.452   5.207
 9557TIP3    H128614   2.228   4.450   5.290
 9557TIP3    H228615   2.157   4.544   5.195
 9558TIP3   OH228616   5.348   0.493   3.870
 9558TIP3    H128617   5.264   0.538   3.870
 9558TIP3    H228618   5.387   0.514   3.955
 9559TIP3   OH228619   2.124   0.175   4.037
 9559TIP3    H128620   2.143   0.266   4.060
 9559TIP3    H228621   2.070   0.181   3.958
 9560TIP3   OH228622   4.732   2.223   2.727
 9560TIP3    H128623   4.703   2.135   2.753
 9560TIP3    H228624   4.720   2.225   2.632
 9561TIP3   OH228625   7.190   6.041   0.959
 9561TIP3    H128626   7.244   5.972   0.919
 9561TIP3    H228627   7.176   6.012   1.049
 9562TIP3   OH228628   6.522   1.230   0.779
 9562TIP3    H128629   6.615   1.251   0.777
 9562TIP3    H228630   6.509   1.172   0.704
 9563TIP3   OH228631   1.776   3.969   5.407
 9563TIP3    H128632   1.837   3.905   5.443
 9563TIP3    H228633   1.691   3.925   5.408
 9564TIP3   OH228634   5.033   5.073   2.668
 9564TIP3    H128635   4.967   5.085   2.736
 9564TIP3    H228636   5.023   4.983   2.639
 9565TIP3   OH228637   1.877   1.095   6.263
 9565TIP3    H128638   1.932   1.166   6.297
 9565TIP3    H228639   1.900   1.020   6.317
 9566TIP3   OH228640   4.014   7.015   5.890
 9566TIP3    H128641   4.073   6.966   5.947
 9566TIP3    H228642   4.014   7.103   5.926
 9567TIP3   OH228643   1.111   6.630   4.789
 9567TIP3    H128644   1.184   6.570   4.773
 9567TIP3    H228645   1.035   6.585   4.754
 9568TIP3   OH228646   3.384   5.877   2.962
 9568TIP3    H128647   3.463   5.823   2.958
 9568TIP3    H228648   3.399   5.936   3.036
 9569TIP3   OH228649   5.034   3.743   4.757
 9569TIP3    H128650   4.978   3.680   4.710
 9569TIP3    H228651   5.122   3.707   4.749
 9570TIP3   OH228652   1.044   6.583   3.838
 9570TIP3    H128653   1.012   6.501   3.802
 9570TIP3    H228654   1.009   6.650   3.780
 9571TIP3   OH228655   4.837   0.789   4.114
 9571TIP3    H128656   4.928   0.786   4.143
 9571TIP3    H228657   4.813   0.882   4.122
 9572TIP3   OH228658   4.839   3.909   1.299
 9572TIP3    H128659   4.909   3.946   1.354
 9572TIP3    H228660   4.851   3.952   1.214
 9573TIP3   OH228661   2.526   7.444   2.530
 9573TIP3    H128662   2.510   7.537   2.514
 9573TIP3    H228663   2.591   7.443   2.601
 9574TIP3   OH228664   1.415   6.591   5.220
 9574TIP3    H128665   1.414   6.533   5.296
 9574TIP3    H228666   1.495   6.568   5.173
 9575TIP3   OH228667   1.806   1.164   6.007
 9575TIP3    H128668   1.858   1.131   6.080
 9575TIP3    H228669   1.774   1.249   6.037
 9576TIP3   OH228670   5.477   0.220   6.366
 9576TIP3    H128671   5.444   0.139   6.327
 9576TIP3    H228672   5.554   0.192   6.417
 9577TIP3   OH228673   5.224   5.947   6.355
 9577TIP3    H128674   5.186   6.034   6.343
 9577TIP3    H228675   5.188   5.895   6.283
 9578TIP3   OH228676   4.875   2.402   0.916
 9578TIP3    H128677   4.943   2.384   0.981
 9578TIP3    H228678   4.846   2.491   0.936
 9579TIP3   OH228679   8.057   7.034   1.894
 9579TIP3    H128680   7.984   6.984   1.930
 9579TIP3    H228681   8.088   7.089   1.967
 9580TIP3   OH228682   1.532   2.233   5.802
 9580TIP3    H128683   1.578   2.313   5.828
 9580TIP3    H228684   1.489   2.203   5.882
 9581TIP3   OH228685   0.810   4.902   1.972
 9581TIP3    H128686   0.845   4.982   2.012
 9581TIP3    H228687   0.722   4.894   2.009
 9582TIP3   OH228688   6.023   2.639   6.555
 9582TIP3    H128689   5.959   2.588   6.506
 9582TIP3    H228690   6.011   2.611   6.646
 9583TIP3   OH228691   2.280   5.928   5.104
 9583TIP3    H128692   2.346   5.893   5.044
 9583TIP3    H228693   2.304   6.020   5.116
 9584TIP3   OH228694   7.631   7.176   0.741
 9584TIP3    H128695   7.712   7.159   0.789
 9584TIP3    H228696   7.581   7.095   0.748
 9585TIP3   OH228697   6.422   4.290   1.966
 9585TIP3    H128698   6.492   4.273   2.029
 9585TIP3    H228699   6.409   4.385   1.970
 9586TIP3   OH228700   2.833   3.019   3.564
 9586TIP3    H128701   2.781   2.995   3.487
 9586TIP3    H228702   2.923   2.997   3.539
 9587TIP3   OH228703   0.861   6.716   6.582
 9587TIP3    H128704   0.937   6.665   6.554
 9587TIP3    H228705   0.885   6.747   6.670
 9588TIP3   OH228706   0.405   1.126   5.141
 9588TIP3    H128707   0.375   1.058   5.081
 9588TIP3    H228708   0.337   1.194   5.137
 9589TIP3   OH228709   0.704   1.704   0.973
 9589TIP3    H128710   0.745   1.626   0.937
 9589TIP3    H228711   0.680   1.679   1.063
 9590TIP3   OH228712   7.766   1.986   2.396
 9590TIP3    H128713   7.689   1.953   2.350
 9590TIP3    H228714   7.833   1.919   2.382
 9591TIP3   OH228715   7.200   3.741   5.050
 9591TIP3    H128716   7.179   3.665   5.104
 9591TIP3    H228717   7.255   3.706   4.980
 9592TIP3   OH228718   3.761   1.345   1.846
 9592TIP3    H128719   3.682   1.385   1.810
 9592TIP3    H228720   3.751   1.251   1.828
 9593TIP3   OH228721   3.331   0.992   3.978
 9593TIP3    H128722   3.337   0.986   4.073
 9593TIP3    H228723   3.421   1.010   3.949
 9594TIP3   OH228724   1.179   1.884   2.532
 9594TIP3    H128725   1.102   1.840   2.496
 9594TIP3    H228726   1.234   1.813   2.565
 9595TIP3   OH228727   1.957   5.119   5.763
 9595TIP3    H128728   1.874   5.115   5.717
 9595TIP3    H228729   1.999   5.198   5.729
 9596TIP3   OH228730   8.317   1.279   1.759
 9596TIP3    H128731   8.377   1.218   1.801
 9596TIP3    H228732   8.246   1.224   1.725
 9597TIP3   OH228733   6.530   4.887   1.688
 9597TIP3    H128734   6.593   4.958   1.692
 9597TIP3    H228735   6.476   4.907   1.611
 9598TIP3   OH228736   6.497   0.898   5.521
 9598TIP3    H128737   6.402   0.902   5.534
 9598TIP3    H228738   6.514   0.965   5.455
 9599TIP3   OH228739   1.374   7.294   3.322
 9599TIP3    H128740   1.294   7.343   3.305
 9599TIP3    H228741   1.350   7.202   3.311
 9600TIP3   OH228742   5.018   2.581   6.574
 9600TIP3    H128743   5.042   2.522   6.503
 9600TIP3    H228744   5.079   2.655   6.566
 9601TIP3   OH228745   5.382   7.175   2.993
 9601TIP3    H128746   5.373   7.116   3.068
 9601TIP3    H228747   5.292   7.203   2.974
 9602TIP3   OH228748   0.087   6.073   5.419
 9602TIP3    H128749   0.106   6.126   5.497
 9602TIP3    H228750   0.139   5.994   5.430
 9603TIP3   OH228751   5.445   1.694   0.682
 9603TIP3    H128752   5.358   1.733   0.687
 9603TIP3    H228753   5.500   1.764   0.645
 9604TIP3   OH228754   7.379   0.671   3.538
 9604TIP3    H128755   7.458   0.659   3.486
 9604TIP3    H228756   7.398   0.748   3.593
 9605TIP3   OH228757   1.538   2.372   2.711
 9605TIP3    H128758   1.532   2.414   2.797
 9605TIP3    H228759   1.506   2.283   2.725
 9606TIP3   OH228760   2.095   3.218   5.185
 9606TIP3    H128761   2.068   3.309   5.178
 9606TIP3    H228762   2.039   3.182   5.253
 9607TIP3   OH228763   6.611   3.638   3.898
 9607TIP3    H128764   6.674   3.706   3.874
 9607TIP3    H228765   6.610   3.578   3.824
 9608TIP3   OH228766   6.741   5.557   3.657
 9608TIP3    H128767   6.730   5.465   3.630
 9608TIP3    H228768   6.755   5.604   3.576
 9609TIP3   OH228769   7.443   4.184   6.280
 9609TIP3    H128770   7.389   4.225   6.212
 9609TIP3    H228771   7.480   4.107   6.238
 9610TIP3   OH228772   3.032   6.724   4.198
 9610TIP3    H128773   2.999   6.684   4.279
 9610TIP3    H228774   2.954   6.735   4.143
 9611TIP3   OH228775   3.223   3.726   1.676
 9611TIP3    H128776   3.194   3.763   1.592
 9611TIP3    H228777   3.310   3.691   1.658
 9612TIP3   OH228778   0.347   6.632   1.127
 9612TIP3    H128779   0.425   6.620   1.182
 9612TIP3    H228780   0.300   6.704   1.168
 9613TIP3   OH228781   3.258   4.602   5.511
 9613TIP3    H128782   3.350   4.580   5.498
 9613TIP3    H228783   3.233   4.556   5.592
 9614TIP3   OH228784   6.850   4.462   5.564
 9614TIP3    H128785   6.909   4.473   5.489
 9614TIP3    H228786   6.783   4.401   5.532
 9615TIP3   OH228787   5.039   2.711   6.848
 9615TIP3    H128788   5.039   2.652   6.772
 9615TIP3    H228789   5.025   2.798   6.811
 9616TIP3   OH228790   3.757   1.067   1.854
 9616TIP3    H128791   3.719   1.022   1.778
 9616TIP3    H228792   3.851   1.049   1.847
 9617TIP3   OH228793   7.220   4.123   3.897
 9617TIP3    H128794   7.281   4.060   3.937
 9617TIP3    H228795   7.169   4.157   3.970
 9618TIP3   OH228796   8.235   5.823   1.870
 9618TIP3    H128797   8.181   5.748   1.846
 9618TIP3    H228798   8.280   5.796   1.950
 9619TIP3   OH228799   2.022   2.518   3.203
 9619TIP3    H128800   2.027   2.602   3.248
 9619TIP3    H228801   1.995   2.456   3.271
 9620TIP3   OH228802   4.865   3.999   0.988
 9620TIP3    H128803   4.794   4.055   0.958
 9620TIP3    H228804   4.839   3.911   0.963
 9621TIP3   OH228805   0.271   7.682   0.872
 9621TIP3    H128806   0.300   7.633   0.794
 9621TIP3    H228807   0.294   7.773   0.853
 9622TIP3   OH228808   0.365   2.591   3.407
 9622TIP3    H128809   0.458   2.614   3.410
 9622TIP3    H228810   0.346   2.555   3.493
 9623TIP3   OH228811   6.295   2.630   2.200
 9623TIP3    H128812   6.373   2.638   2.144
 9623TIP3    H228813   6.289   2.714   2.245
 9624TIP3   OH228814   2.394   4.750   3.156
 9624TIP3    H128815   2.373   4.805   3.080
 9624TIP3    H228816   2.325   4.685   3.158
 9625TIP3   OH228817   4.349   2.243   4.531
 9625TIP3    H128818   4.332   2.328   4.491
 9625TIP3    H228819   4.282   2.233   4.598
 9626TIP3   OH228820   6.872   3.052   2.524
 9626TIP3    H128821   6.963   3.074   2.503
 9626TIP3    H228822   6.825   3.136   2.517
 9627TIP3   OH228823   2.512   7.248   3.301
 9627TIP3    H128824   2.526   7.161   3.264
 9627TIP3    H228825   2.572   7.305   3.252
 9628TIP3   OH228826   2.233   1.025   3.114
 9628TIP3    H128827   2.301   1.004   3.178
 9628TIP3    H228828   2.276   1.011   3.029
 9629TIP3   OH228829   1.537   1.953   0.241
 9629TIP3    H128830   1.458   1.927   0.288
 9629TIP3    H228831   1.512   2.034   0.196
 9630TIP3   OH228832   6.665   5.152   4.770
 9630TIP3    H128833   6.726   5.079   4.761
 9630TIP3    H228834   6.581   5.116   4.743
 9631TIP3   OH228835   7.015   0.063   2.790
 9631TIP3    H128836   6.998   0.154   2.765
 9631TIP3    H228837   7.045   0.022   2.709
 9632TIP3   OH228838   0.669   1.985   3.877
 9632TIP3    H128839   0.642   1.981   3.969
 9632TIP3    H228840   0.587   1.977   3.828
 9633TIP3   OH228841   5.449   0.597   0.382
 9633TIP3    H128842   5.405   0.527   0.431
 9633TIP3    H228843   5.443   0.569   0.291
 9634TIP3   OH228844   3.088   2.688   4.240
 9634TIP3    H128845   3.074   2.773   4.198
 9634TIP3    H228846   3.014   2.634   4.209
 9635TIP3   OH228847   6.169   7.112   2.576
 9635TIP3    H128848   6.164   7.099   2.482
 9635TIP3    H228849   6.133   7.200   2.590
 9636TIP3   OH228850   0.909   4.338   1.958
 9636TIP3    H128851   0.895   4.307   2.048
 9636TIP3    H228852   0.953   4.266   1.914
 9637TIP3   OH228853   6.809   4.082   4.442
 9637TIP3    H128854   6.730   4.122   4.479
 9637TIP3    H228855   6.779   4.037   4.364
 9638TIP3   OH228856   2.059   1.413   5.922
 9638TIP3    H128857   2.126   1.436   5.986
 9638TIP3    H228858   1.993   1.482   5.931
 9639TIP3   OH228859   8.003   0.813   4.049
 9639TIP3    H128860   8.066   0.744   4.032
 9639TIP3    H228861   8.041   0.891   4.007
 9640TIP3   OH228862   2.992   3.593   4.361
 9640TIP3    H128863   2.958   3.594   4.272
 9640TIP3    H228864   2.919   3.623   4.415
 9641TIP3   OH228865   2.378   1.414   0.238
 9641TIP3    H128866   2.347   1.379   0.322
 9641TIP3    H228867   2.396   1.507   0.256
 9642TIP3   OH228868   5.115   6.588   1.631
 9642TIP3    H128869   5.136   6.680   1.617
 9642TIP3    H228870   5.109   6.578   1.726
 9643TIP3   OH228871   4.049   5.282   0.594
 9643TIP3    H128872   4.023   5.343   0.663
 9643TIP3    H228873   4.135   5.314   0.565
 9644TIP3   OH228874   7.791   3.932   4.975
 9644TIP3    H128875   7.729   3.875   5.021
 9644TIP3    H228876   7.877   3.908   5.010
 9645TIP3   OH228877   2.149   2.823   4.234
 9645TIP3    H128878   2.186   2.909   4.252
 9645TIP3    H228879   2.066   2.840   4.189
 9646TIP3   OH228880   6.395   6.276   1.637
 9646TIP3    H128881   6.400   6.181   1.649
 9646TIP3    H228882   6.449   6.311   1.707
 9647TIP3   OH228883   3.114   2.835   3.132
 9647TIP3    H128884   3.145   2.757   3.086
 9647TIP3    H228885   3.108   2.808   3.223
 9648TIP3   OH228886   1.531   2.686   5.756
 9648TIP3    H128887   1.511   2.769   5.800
 9648TIP3    H228888   1.546   2.624   5.828
 9649TIP3   OH228889   7.150   3.327   4.047
 9649TIP3    H128890   7.081   3.271   4.012
 9649TIP3    H228891   7.157   3.303   4.139
 9650TIP3   OH228892   2.267   4.531   6.075
 9650TIP3    H128893   2.308   4.462   6.023
 9650TIP3    H228894   2.231   4.591   6.010
 9651TIP3   OH228895   4.232   6.491   2.187
 9651TIP3    H128896   4.310   6.438   2.207
 9651TIP3    H228897   4.162   6.450   2.238
 9652TIP3   OH228898   2.691   6.541   1.446
 9652TIP3    H128899   2.712   6.458   1.489
 9652TIP3    H228900   2.605   6.526   1.406
 9653TIP3   OH228901   4.985   0.391   4.829
 9653TIP3    H128902   4.911   0.417   4.884
 9653TIP3    H228903   5.048   0.354   4.890
 9654TIP3   OH228904   3.915   2.491   2.158
 9654TIP3    H128905   3.982   2.455   2.100
 9654TIP3    H228906   3.951   2.481   2.246
 9655TIP3   OH228907   5.708   4.712   1.676
 9655TIP3    H128908   5.777   4.680   1.733
 9655TIP3    H228909   5.647   4.757   1.735
 9656TIP3   OH228910   3.208   2.989   0.005
 9656TIP3    H128911   3.196   3.050  -0.067
 9656TIP3    H228912   3.291   3.015   0.045
 9657TIP3   OH228913   4.314   1.008   1.550
 9657TIP3    H128914   4.270   0.924   1.560
 9657TIP3    H228915   4.269   1.066   1.611
 9658TIP3   OH228916   5.482   7.865   0.859
 9658TIP3    H128917   5.509   7.782   0.821
 9658TIP3    H228918   5.388   7.869   0.842
 9659TIP3   OH228919   7.691   4.378   0.044
 9659TIP3    H128920   7.705   4.469   0.020
 9659TIP3    H228921   7.604   4.376   0.084
 9660TIP3   OH228922   5.957   2.573   1.176
 9660TIP3    H128923   5.873   2.537   1.147
 9660TIP3    H228924   6.005   2.589   1.095
 9661TIP3   OH228925   7.860   0.055   0.963
 9661TIP3    H128926   7.809  -0.019   0.997
 9661TIP3    H228927   7.914   0.017   0.894
 9662TIP3   OH228928   2.528   4.563   4.684
 9662TIP3    H128929   2.506   4.647   4.725
 9662TIP3    H228930   2.608   4.534   4.728
 9663TIP3   OH228931   4.447   5.845   5.057
 9663TIP3    H128932   4.435   5.802   4.972
 9663TIP3    H228933   4.533   5.888   5.050
 9664TIP3   OH228934   1.306   2.737   5.489
 9664TIP3    H128935   1.260   2.785   5.558
 9664TIP3    H228936   1.378   2.694   5.535
 9665TIP3   OH228937   7.119   3.250   4.311
 9665TIP3    H128938   7.114   3.166   4.355
 9665TIP3    H228939   7.036   3.293   4.331
 9666TIP3   OH228940   5.674   4.400   5.520
 9666TIP3    H128941   5.706   4.441   5.439
 9666TIP3    H228942   5.691   4.306   5.507
 9667TIP3   OH228943   5.840   1.780   2.814
 9667TIP3    H128944   5.803   1.704   2.860
 9667TIP3    H228945   5.850   1.847   2.882
 9668TIP3   OH228946   6.645   3.992   3.360
 9668TIP3    H128947   6.630   4.086   3.369
 9668TIP3    H228948   6.602   3.968   3.279
 9669TIP3   OH228949   3.974   2.811   1.902
 9669TIP3    H128950   4.038   2.882   1.901
 9669TIP3    H228951   3.951   2.801   1.995
 9670TIP3   OH228952   2.385   0.746   2.430
 9670TIP3    H128953   2.477   0.747   2.456
 9670TIP3    H228954   2.338   0.717   2.508
 9671TIP3   OH228955   4.465   0.569   5.069
 9671TIP3    H128956   4.488   0.662   5.072
 9671TIP3    H228957   4.462   0.542   5.161
 9672TIP3   OH228958   5.153   5.442   5.729
 9672TIP3    H128959   5.082   5.506   5.729
 9672TIP3    H228960   5.110   5.357   5.717
 9673TIP3   OH228961   4.260   1.189   5.029
 9673TIP3    H128962   4.252   1.262   4.968
 9673TIP3    H228963   4.211   1.216   5.106
 9674TIP3   OH228964   3.687   6.180   3.512
 9674TIP3    H128965   3.620   6.155   3.575
 9674TIP3    H228966   3.650   6.157   3.426
 9675TIP3   OH228967   7.296   0.882   3.338
 9675TIP3    H128968   7.385   0.914   3.347
 9675TIP3    H228969   7.292   0.805   3.395
 9676TIP3   OH228970   6.959   5.274   5.115
 9676TIP3    H128971   6.909   5.262   5.196
 9676TIP3    H228972   6.944   5.365   5.091
 9677TIP3   OH228973   1.356   2.060   3.583
 9677TIP3    H128974   1.301   2.022   3.515
 9677TIP3    H228975   1.387   2.143   3.547
 9678TIP3   OH228976   1.166   5.063   1.700
 9678TIP3    H128977   1.251   5.042   1.739
 9678TIP3    H228978   1.165   5.014   1.617
 9679TIP3   OH228979   4.797   5.070   3.901
 9679TIP3    H128980   4.787   5.138   3.967
 9679TIP3    H228981   4.751   4.994   3.938
 9680TIP3   OH228982   7.410   0.173   1.605
 9680TIP3    H128983   7.377   0.120   1.678
 9680TIP3    H228984   7.500   0.143   1.593
 9681TIP3   OH228985   1.752   2.830   5.400
 9681TIP3    H128986   1.705   2.766   5.347
 9681TIP3    H228987   1.837   2.839   5.358
 9682TIP3   OH228988   4.610   5.036   3.305
 9682TIP3    H128989   4.649   5.117   3.337
 9682TIP3    H228990   4.652   5.020   3.221
 9683TIP3   OH228991   0.807   5.225   1.781
 9683TIP3    H128992   0.835   5.198   1.869
 9683TIP3    H228993   0.888   5.248   1.736
 9684TIP3   OH228994   0.201   7.192   1.380
 9684TIP3    H128995   0.224   7.278   1.414
 9684TIP3    H228996   0.280   7.162   1.334
 9685TIP3   OH228997   2.270   6.833   5.548
 9685TIP3    H128998   2.291   6.740   5.556
 9685TIP3    H228999   2.355   6.875   5.531
 9686TIP3   OH229000   4.809   3.442   6.233
 9686TIP3    H129001   4.739   3.397   6.186
 9686TIP3    H229002   4.854   3.493   6.166
 9687TIP3   OH229003   2.690   6.614   1.946
 9687TIP3    H129004   2.720   6.642   1.860
 9687TIP3    H229005   2.599   6.643   1.951
 9688TIP3   OH229006   3.954   7.580   2.998
 9688TIP3    H129007   3.889   7.601   3.065
 9688TIP3    H229008   3.930   7.493   2.967
 9689TIP3   OH229009   3.376   6.846   1.929
 9689TIP3    H129010   3.415   6.898   1.859
 9689TIP3    H229011   3.315   6.787   1.885
 9690TIP3   OH229012   6.304   6.241   4.201
 9690TIP3    H129013   6.239   6.226   4.270
 9690TIP3    H229014   6.263   6.307   4.145
 9691TIP3   OH229015   5.629   0.992   1.063
 9691TIP3    H129016   5.561   0.925   1.068
 9691TIP3    H229017   5.591   1.060   1.007
 9692TIP3   OH229018   0.293   5.654   4.465
 9692TIP3    H129019   0.221   5.646   4.528
 9692TIP3    H229020   0.372   5.642   4.517
 9693TIP3   OH229021   3.274   6.895   6.291
 9693TIP3    H129022   3.362   6.929   6.310
 9693TIP3    H229023   3.236   6.959   6.231
 9694TIP3   OH229024   1.046   4.398   2.673
 9694TIP3    H129025   0.986   4.344   2.622
 9694TIP3    H229026   1.004   4.407   2.758
 9695TIP3   OH229027   3.308   1.561   1.469
 9695TIP3    H129028   3.230   1.617   1.475
 9695TIP3    H229029   3.368   1.597   1.535
 9696TIP3   OH229030   1.815   1.203   4.396
 9696TIP3    H129031   1.846   1.174   4.310
 9696TIP3    H229032   1.821   1.125   4.451
 9697TIP3   OH229033   5.230   2.958   6.309
 9697TIP3    H129034   5.304   2.992   6.361
 9697TIP3    H229035   5.207   3.031   6.251
 9698TIP3   OH229036   0.015   5.776   2.177
 9698TIP3    H129037   0.076   5.841   2.140
 9698TIP3    H229038   0.070   5.721   2.233
 9699TIP3   OH229039   7.527   4.755   6.067
 9699TIP3    H129040   7.493   4.686   6.126
 9699TIP3    H229041   7.575   4.814   6.125
 9700TIP3   OH229042   1.141   2.186   3.857
 9700TIP3    H129043   1.147   2.223   3.945
 9700TIP3    H229044   1.047   2.181   3.840
 9701TIP3   OH229045   7.933   6.178   0.482
 9701TIP3    H129046   7.896   6.123   0.551
 9701TIP3    H229047   7.979   6.248   0.528
 9702TIP3   OH229048   1.287   5.217   0.497
 9702TIP3    H129049   1.240   5.147   0.453
 9702TIP3    H229050   1.270   5.295   0.444
 9703TIP3   OH229051   1.613   3.532   4.005
 9703TIP3    H129052   1.694   3.571   4.036
 9703TIP3    H229053   1.597   3.459   4.065
 9704TIP3   OH229054   0.169   1.873   2.589
 9704TIP3    H129055   0.190   1.923   2.668
 9704TIP3    H229056   0.232   1.904   2.524
 9705TIP3   OH229057   1.442   1.876   5.904
 9705TIP3    H129058   1.428   1.917   5.819
 9705TIP3    H229059   1.471   1.948   5.961
 9706TIP3   OH229060   4.820   4.533   1.878
 9706TIP3    H129061   4.825   4.467   1.947
 9706TIP3    H229062   4.745   4.508   1.825
 9707TIP3   OH229063   2.944   0.870   6.358
 9707TIP3    H129064   2.878   0.810   6.394
 9707TIP3    H229065   3.027   0.838   6.395
 9708TIP3   OH229066   7.022   2.533   6.551
 9708TIP3    H129067   7.008   2.522   6.457
 9708TIP3    H229068   7.090   2.600   6.557
 9709TIP3   OH229069   5.913   5.809   0.776
 9709TIP3    H129070   5.853   5.806   0.850
 9709TIP3    H229071   5.865   5.857   0.708
 9710TIP3   OH229072   4.078   7.563   3.552
 9710TIP3    H129073   4.062   7.657   3.543
 9710TIP3    H229074   4.174   7.556   3.556
 9711TIP3   OH229075   5.332   1.427   0.931
 9711TIP3    H129076   5.407   1.451   0.876
 9711TIP3    H229077   5.314   1.506   0.982
 9712TIP3   OH229078   6.056   2.439   1.649
 9712TIP3    H129079   6.126   2.376   1.667
 9712TIP3    H229080   6.102   2.521   1.630
 9713TIP3   OH229081   5.511   6.165   5.222
 9713TIP3    H129082   5.471   6.078   5.210
 9713TIP3    H229083   5.605   6.149   5.211
 9714TIP3   OH229084   3.888   2.173   6.016
 9714TIP3    H129085   3.828   2.118   6.067
 9714TIP3    H229086   3.947   2.210   6.082
 9715TIP3   OH229087   3.398   6.893   2.966
 9715TIP3    H129088   3.355   6.852   3.041
 9715TIP3    H229089   3.430   6.819   2.915
 9716TIP3   OH229090   8.068   5.355   1.976
 9716TIP3    H129091   8.099   5.315   2.057
 9716TIP3    H229092   7.974   5.369   1.991
 9717TIP3   OH229093   7.960   7.788   0.325
 9717TIP3    H129094   7.990   7.821   0.410
 9717TIP3    H229095   8.041   7.762   0.280
 9718TIP3   OH229096   7.517   7.230   5.291
 9718TIP3    H129097   7.424   7.235   5.313
 9718TIP3    H229098   7.542   7.141   5.313
 9719TIP3   OH229099   3.955   6.182   3.689
 9719TIP3    H129100   3.899   6.239   3.636
 9719TIP3    H229101   4.003   6.242   3.746
 9720TIP3   OH229102   1.796   0.768   1.813
 9720TIP3    H129103   1.789   0.684   1.767
 9720TIP3    H229104   1.866   0.754   1.878
 9721TIP3   OH229105   4.440   3.119   5.530
 9721TIP3    H129106   4.475   3.031   5.534
 9721TIP3    H229107   4.398   3.133   5.615
 9722TIP3   OH229108   2.500   1.337   3.056
 9722TIP3    H129109   2.438   1.264   3.057
 9722TIP3    H229110   2.581   1.301   3.091
 9723TIP3   OH229111   5.607   6.144   0.946
 9723TIP3    H129112   5.635   6.231   0.917
 9723TIP3    H229113   5.516   6.137   0.915
 9724TIP3   OH229114   0.863   5.470   5.459
 9724TIP3    H129115   0.879   5.417   5.381
 9724TIP3    H229116   0.910   5.425   5.529
 9725TIP3   OH229117   8.051   0.189   5.049
 9725TIP3    H129118   8.079   0.111   5.097
 9725TIP3    H229119   8.004   0.241   5.114
 9726TIP3   OH229120   2.955   1.802   2.448
 9726TIP3    H129121   2.951   1.717   2.492
 9726TIP3    H229122   3.046   1.811   2.421
 9727TIP3   OH229123   3.148   5.596   6.760
 9727TIP3    H129124   3.188   5.510   6.746
 9727TIP3    H229125   3.104   5.616   6.678
 9728TIP3   OH229126   1.602   1.841   1.072
 9728TIP3    H129127   1.641   1.784   1.005
 9728TIP3    H229128   1.597   1.785   1.150
 9729TIP3   OH229129   1.697   1.678   5.491
 9729TIP3    H129130   1.759   1.672   5.418
 9729TIP3    H229131   1.639   1.603   5.479
 9730TIP3   OH229132   8.263   7.538   5.956
 9730TIP3    H129133   8.348   7.555   5.915
 9730TIP3    H229134   8.265   7.444   5.976
 9731TIP3   OH229135   2.213   3.919   1.017
 9731TIP3    H129136   2.206   3.849   0.952
 9731TIP3    H229137   2.128   3.962   1.016
 9732TIP3   OH229138   1.182   4.666   3.796
 9732TIP3    H129139   1.171   4.593   3.857
 9732TIP3    H229140   1.100   4.715   3.803
 9733TIP3   OH229141   1.851   4.034   6.113
 9733TIP3    H129142   1.919   4.042   6.180
 9733TIP3    H229143   1.848   3.940   6.093
 9734TIP3   OH229144   5.883   4.860   4.329
 9734TIP3    H129145   5.817   4.800   4.363
 9734TIP3    H229146   5.859   4.874   4.238
 9735TIP3   OH229147   1.312   5.065   5.595
 9735TIP3    H129148   1.217   5.054   5.589
 9735TIP3    H229149   1.335   5.113   5.516
 9736TIP3   OH229150   5.296   6.252   5.872
 9736TIP3    H129151   5.391   6.251   5.877
 9736TIP3    H229152   5.276   6.287   5.785
 9737TIP3   OH229153   1.360   4.661   5.336
 9737TIP3    H129154   1.344   4.588   5.395
 9737TIP3    H229155   1.380   4.735   5.394
 9738TIP3   OH229156   1.659   5.826   4.929
 9738TIP3    H129157   1.580   5.783   4.962
 9738TIP3    H229158   1.670   5.791   4.841
 9739TIP3   OH229159   3.999   1.079   2.814
 9739TIP3    H129160   3.923   1.128   2.845
 9739TIP3    H229161   3.965   1.021   2.746
 9740TIP3   OH229162   2.023   1.275   0.257
 9740TIP3    H129163   1.939   1.229   0.266
 9740TIP3    H229164   2.002   1.350   0.202
 9741TIP3   OH229165   1.890   1.414   0.044
 9741TIP3    H129166   1.958   1.392  -0.020
 9741TIP3    H229167   1.810   1.420  -0.007
 9742TIP3   OH229168   5.509   2.417   2.993
 9742TIP3    H129169   5.544   2.375   3.071
 9742TIP3    H229170   5.415   2.401   2.997
 9743TIP3   OH229171   3.213   3.394   1.443
 9743TIP3    H129172   3.190   3.381   1.351
 9743TIP3    H229173   3.303   3.425   1.442
 9744TIP3   OH229174   3.820   5.372   1.880
 9744TIP3    H129175   3.896   5.353   1.825
 9744TIP3    H229176   3.751   5.395   1.818
 9745TIP3   OH229177   7.404   6.273   3.280
 9745TIP3    H129178   7.399   6.243   3.371
 9745TIP3    H229179   7.432   6.364   3.286
 9746TIP3   OH229180   4.625   0.238   5.759
 9746TIP3    H129181   4.693   0.177   5.789
 9746TIP3    H229182   4.649   0.322   5.797
 9747TIP3   OH229183   4.008   6.772   4.394
 9747TIP3    H129184   3.973   6.686   4.375
 9747TIP3    H229185   4.103   6.763   4.379
 9748TIP3   OH229186   1.588   4.658   2.264
 9748TIP3    H129187   1.675   4.629   2.236
 9748TIP3    H229188   1.601   4.684   2.356
 9749TIP3   OH229189   2.740   5.296   5.114
 9749TIP3    H129190   2.809   5.356   5.140
 9749TIP3    H229191   2.749   5.287   5.019
 9750TIP3   OH229192   5.006   7.011   0.159
 9750TIP3    H129193   5.046   7.045   0.240
 9750TIP3    H229194   5.080   7.000   0.099
 9751TIP3   OH229195   3.585   1.208   4.519
 9751TIP3    H129196   3.548   1.156   4.590
 9751TIP3    H229197   3.680   1.207   4.535
 9752TIP3   OH229198   0.793   7.730   0.996
 9752TIP3    H129199   0.719   7.778   1.033
 9752TIP3    H229200   0.766   7.713   0.905
 9753TIP3   OH229201   6.563   4.183   4.507
 9753TIP3    H129202   6.492   4.119   4.509
 9753TIP3    H229203   6.561   4.223   4.594
 9754TIP3   OH229204   5.762   4.371   3.096
 9754TIP3    H129205   5.696   4.305   3.118
 9754TIP3    H229206   5.841   4.340   3.140
 9755TIP3   OH229207   5.826   7.474   2.395
 9755TIP3    H129208   5.738   7.497   2.424
 9755TIP3    H229209   5.817   7.451   2.303
 9756TIP3   OH229210   1.819   7.267   0.240
 9756TIP3    H129211   1.730   7.262   0.205
 9756TIP3    H229212   1.846   7.358   0.224
 9757TIP3   OH229213   3.241   2.007   2.223
 9757TIP3    H129214   3.284   2.093   2.226
 9757TIP3    H229215   3.172   2.018   2.158
 9758TIP3   OH229216   7.367   5.703   3.814
 9758TIP3    H129217   7.281   5.735   3.842
 9758TIP3    H229218   7.400   5.771   3.756
 9759TIP3   OH229219   3.571   7.489   6.407
 9759TIP3    H129220   3.555   7.425   6.477
 9759TIP3    H229221   3.610   7.437   6.336
 9760TIP3   OH229222   5.335   1.619   1.874
 9760TIP3    H129223   5.255   1.630   1.925
 9760TIP3    H229224   5.349   1.524   1.873
 9761TIP3   OH229225   3.660   7.023   0.579
 9761TIP3    H129226   3.635   7.097   0.635
 9761TIP3    H229227   3.704   6.962   0.638
 9762TIP3   OH229228   4.890   3.420   1.893
 9762TIP3    H129229   4.948   3.496   1.907
 9762TIP3    H229230   4.937   3.347   1.932
 9763TIP3   OH229231   1.272   2.456   2.204
 9763TIP3    H129232   1.306   2.379   2.157
 9763TIP3    H229233   1.240   2.514   2.135
 9764TIP3   OH229234   8.176   1.934   6.441
 9764TIP3    H129235   8.239   2.006   6.437
 9764TIP3    H229236   8.169   1.913   6.534
 9765TIP3   OH229237   2.194   6.510   1.860
 9765TIP3    H129238   2.173   6.525   1.768
 9765TIP3    H229239   2.131   6.564   1.908
 9766TIP3   OH229240   1.309   3.673   4.501
 9766TIP3    H129241   1.386   3.725   4.521
 9766TIP3    H229242   1.252   3.732   4.451
 9767TIP3   OH229243   1.823   6.136   0.660
 9767TIP3    H129244   1.817   6.065   0.724
 9767TIP3    H229245   1.744   6.127   0.606
 9768TIP3   OH229246   6.020   5.967   5.903
 9768TIP3    H129247   6.034   5.894   5.963
 9768TIP3    H229248   6.013   6.044   5.960
 9769TIP3   OH229249   5.147   7.504   1.237
 9769TIP3    H129250   5.095   7.437   1.281
 9769TIP3    H229251   5.160   7.471   1.148
 9770TIP3   OH229252   4.066   2.808   1.614
 9770TIP3    H129253   4.133   2.742   1.595
 9770TIP3    H229254   4.092   2.846   1.698
 9771TIP3   OH229255   5.547   1.998   3.820
 9771TIP3    H129256   5.599   1.921   3.844
 9771TIP3    H229257   5.528   2.040   3.904
 9772TIP3   OH229258   0.563   2.331   1.336
 9772TIP3    H129259   0.659   2.336   1.334
 9772TIP3    H229260   0.540   2.360   1.424
 9773TIP3   OH229261   2.692   7.424   2.753
 9773TIP3    H129262   2.692   7.442   2.847
 9773TIP3    H229263   2.762   7.359   2.742
 9774TIP3   OH229264   6.527   2.014   3.435
 9774TIP3    H129265   6.450   1.970   3.397
 9774TIP3    H229266   6.587   2.025   3.361
 9775TIP3   OH229267   4.509   2.991   0.552
 9775TIP3    H129268   4.539   3.047   0.480
 9775TIP3    H229269   4.509   3.050   0.628
 9776TIP3   OH229270   2.765   5.542   0.022
 9776TIP3    H129271   2.799   5.453   0.026
 9776TIP3    H229272   2.838   5.596   0.053
 9777TIP3   OH229273   3.246   5.391   0.528
 9777TIP3    H129274   3.193   5.439   0.464
 9777TIP3    H229275   3.326   5.368   0.482
 9778TIP3   OH229276   5.123   1.266   0.869
 9778TIP3    H129277   5.167   1.228   0.792
 9778TIP3    H229278   5.173   1.346   0.887
 9779TIP3   OH229279   5.542   5.230   5.476
 9779TIP3    H129280   5.474   5.175   5.436
 9779TIP3    H229281   5.499   5.268   5.553
 9780TIP3   OH229282   5.463   7.133   0.150
 9780TIP3    H129283   5.540   7.124   0.206
 9780TIP3    H229284   5.426   7.217   0.174
 9781TIP3   OH229285   2.389   3.596   3.349
 9781TIP3    H129286   2.471   3.609   3.396
 9781TIP3    H229287   2.330   3.556   3.413
 9782TIP3   OH229288   6.839   6.086   4.588
 9782TIP3    H129289   6.842   6.160   4.649
 9782TIP3    H229290   6.876   6.013   4.637
 9783TIP3   OH229291   0.744   1.360   3.198
 9783TIP3    H129292   0.807   1.289   3.183
 9783TIP3    H229293   0.792   1.424   3.250
 9784TIP3   OH229294   4.274   0.312   4.717
 9784TIP3    H129295   4.221   0.236   4.741
 9784TIP3    H229296   4.308   0.290   4.630
 9785TIP3   OH229297   4.681   0.000   1.421
 9785TIP3    H129298   4.770   0.023   1.394
 9785TIP3    H229299   4.625   0.036   1.353
 9786TIP3   OH229300   5.365   3.420   0.574
 9786TIP3    H129301   5.450   3.389   0.542
 9786TIP3    H229302   5.386   3.469   0.654
 9787TIP3   OH229303   3.663   0.519   2.789
 9787TIP3    H129304   3.737   0.484   2.839
 9787TIP3    H229305   3.607   0.561   2.855
 9788TIP3   OH229306   1.930   3.770   5.515
 9788TIP3    H129307   1.949   3.753   5.608
 9788TIP3    H229308   1.906   3.685   5.479
 9789TIP3   OH229309   7.135   7.365   2.648
 9789TIP3    H129310   7.193   7.319   2.708
 9789TIP3    H229311   7.136   7.456   2.679
 9790TIP3   OH229312   6.600   2.949   3.888
 9790TIP3    H129313   6.513   2.909   3.882
 9790TIP3    H229314   6.590   3.019   3.953
 9791TIP3   OH229315   3.580   5.490   2.560
 9791TIP3    H129316   3.594   5.434   2.636
 9791TIP3    H229317   3.537   5.568   2.595
 9792TIP3   OH229318   5.877   1.335   1.081
 9792TIP3    H129319   5.869   1.314   1.173
 9792TIP3    H229320   5.805   1.396   1.064
 9793TIP3   OH229321   4.139   2.922   0.757
 9793TIP3    H129322   4.044   2.933   0.762
 9793TIP3    H229323   4.156   2.900   0.665
 9794TIP3   OH229324   4.605   1.696   4.641
 9794TIP3    H129325   4.697   1.680   4.660
 9794TIP3    H229326   4.580   1.624   4.583
 9795TIP3   OH229327   4.199   4.530   2.564
 9795TIP3    H129328   4.234   4.442   2.578
 9795TIP3    H229329   4.134   4.520   2.495
 9796TIP3   OH229330   3.252   4.690   2.384
 9796TIP3    H129331   3.185   4.722   2.444
 9796TIP3    H229332   3.233   4.597   2.373
 9797TIP3   OH229333   2.666   4.480   2.372
 9797TIP3    H129334   2.584   4.494   2.418
 9797TIP3    H229335   2.640   4.437   2.290
 9798TIP3   OH229336   5.964   7.352   6.037
 9798TIP3    H129337   5.901   7.376   5.970
 9798TIP3    H229338   6.018   7.430   6.048
 9799TIP3   OH229339   6.381   7.481   2.005
 9799TIP3    H129340   6.377   7.396   1.961
 9799TIP3    H229341   6.375   7.460   2.099
 9800TIP3   OH229342   5.195   4.374   0.951
 9800TIP3    H129343   5.271   4.408   0.905
 9800TIP3    H229344   5.124   4.379   0.886
 9801TIP3   OH229345   1.130   7.613   2.769
 9801TIP3    H129346   1.209   7.570   2.803
 9801TIP3    H229347   1.095   7.552   2.705
 9802TIP3   OH229348   5.523   2.346   5.753
 9802TIP3    H129349   5.445   2.312   5.797
 9802TIP3    H229350   5.551   2.276   5.695
 9803TIP3   OH229351   3.186   4.715   2.678
 9803TIP3    H129352   3.232   4.797   2.697
 9803TIP3    H229353   3.109   4.717   2.735
 9804TIP3   OH229354   1.711   3.272   5.516
 9804TIP3    H129355   1.644   3.317   5.567
 9804TIP3    H229356   1.792   3.318   5.538
 9805TIP3   OH229357   7.654   2.399   0.134
 9805TIP3    H129358   7.704   2.481   0.133
 9805TIP3    H229359   7.715   2.333   0.100
 9806TIP3   OH229360   3.511   3.711   5.172
 9806TIP3    H129361   3.472   3.798   5.180
 9806TIP3    H229362   3.598   3.720   5.210
 9807TIP3   OH229363   7.194   4.900   0.088
 9807TIP3    H129364   7.155   4.816   0.113
 9807TIP3    H229365   7.120   4.952   0.056
 9808TIP3   OH229366   8.254   1.157   4.094
 9808TIP3    H129367   8.274   1.248   4.116
 9808TIP3    H229368   8.225   1.160   4.003
 9809TIP3   OH229369   5.607   5.480   5.806
 9809TIP3    H129370   5.565   5.394   5.804
 9809TIP3    H229371   5.541   5.540   5.772
 9810TIP3   OH229372   7.539   0.586   4.330
 9810TIP3    H129373   7.467   0.529   4.357
 9810TIP3    H229374   7.599   0.529   4.282
 9811TIP3   OH229375   1.227   2.763   3.719
 9811TIP3    H129376   1.218   2.717   3.802
 9811TIP3    H229377   1.158   2.725   3.664
 9812TIP3   OH229378   3.427   7.519   4.215
 9812TIP3    H129379   3.484   7.528   4.138
 9812TIP3    H229380   3.361   7.455   4.188
 9813TIP3   OH229381   1.597   6.401   3.165
 9813TIP3    H129382   1.555   6.397   3.079
 9813TIP3    H229383   1.529   6.430   3.225
 9814TIP3   OH229384   3.031   7.435   4.153
 9814TIP3    H129385   2.983   7.386   4.220
 9814TIP3    H229386   2.977   7.513   4.137
 9815TIP3   OH229387   7.683   7.478   5.748
 9815TIP3    H129388   7.768   7.522   5.748
 9815TIP3    H229389   7.619   7.549   5.747
 9816TIP3   OH229390   0.863   7.282   0.108
 9816TIP3    H129391   0.772   7.301   0.086
 9816TIP3    H229392   0.864   7.277   0.203
 9817TIP3   OH229393   1.643   6.870   2.326
 9817TIP3    H129394   1.561   6.828   2.299
 9817TIP3    H229395   1.711   6.818   2.283
 9818TIP3   OH229396   4.145   1.910   5.770
 9818TIP3    H129397   4.222   1.943   5.816
 9818TIP3    H229398   4.143   1.817   5.792
 9819TIP3   OH229399   6.337   5.261   0.761
 9819TIP3    H129400   6.389   5.332   0.723
 9819TIP3    H229401   6.304   5.213   0.685
 9820TIP3   OH229402   4.287   3.178   5.766
 9820TIP3    H129403   4.234   3.207   5.692
 9820TIP3    H229404   4.224   3.144   5.829
 9821TIP3   OH229405   5.704   0.599   5.887
 9821TIP3    H129406   5.648   0.677   5.884
 9821TIP3    H229407   5.753   0.602   5.805
 9822TIP3   OH229408   2.893   1.755   6.156
 9822TIP3    H129409   2.943   1.680   6.122
 9822TIP3    H229410   2.825   1.769   6.090
 9823TIP3   OH229411   7.268   3.859   1.716
 9823TIP3    H129412   7.282   3.953   1.706
 9823TIP3    H229413   7.218   3.834   1.639
 9824TIP3   OH229414   1.073   0.676   0.153
 9824TIP3    H129415   1.127   0.751   0.125
 9824TIP3    H229416   1.076   0.616   0.078
 9825TIP3   OH229417   1.344   0.388   3.711
 9825TIP3    H129418   1.409   0.440   3.664
 9825TIP3    H229419   1.392   0.311   3.740
 9826TIP3   OH229420   3.844   3.790   3.825
 9826TIP3    H129421   3.889   3.863   3.783
 9826TIP3    H229422   3.849   3.719   3.760
 9827TIP3   OH229423   0.698   5.608   6.414
 9827TIP3    H129424   0.734   5.697   6.421
 9827TIP3    H229425   0.772   5.554   6.387
 9828TIP3   OH229426   3.938   0.873   2.187
 9828TIP3    H129427   3.991   0.932   2.240
 9828TIP3    H229428   3.858   0.860   2.239
 9829TIP3   OH229429   1.184   6.194   1.287
 9829TIP3    H129430   1.198   6.106   1.321
 9829TIP3    H229431   1.089   6.203   1.283
 9830TIP3   OH229432   3.584   7.385   3.700
 9830TIP3    H129433   3.572   7.478   3.682
 9830TIP3    H229434   3.678   7.373   3.704
 9831TIP3   OH229435   1.133   0.474   2.127
 9831TIP3    H129436   1.180   0.457   2.209
 9831TIP3    H229437   1.150   0.566   2.109
 9832TIP3   OH229438   1.508   7.221   0.381
 9832TIP3    H129439   1.441   7.218   0.449
 9832TIP3    H229440   1.545   7.310   0.387
 9833TIP3   OH229441   4.456   4.092   1.139
 9833TIP3    H129442   4.503   4.045   1.207
 9833TIP3    H229443   4.440   4.027   1.071
 9834TIP3   OH229444   1.314   5.350   5.146
 9834TIP3    H129445   1.288   5.315   5.060
 9834TIP3    H229446   1.374   5.422   5.125
 9835TIP3   OH229447   5.782   7.341   1.144
 9835TIP3    H129448   5.806   7.285   1.218
 9835TIP3    H229449   5.865   7.366   1.105
 9836TIP3   OH229450   2.576   4.494   5.331
 9836TIP3    H129451   2.498   4.442   5.347
 9836TIP3    H229452   2.649   4.433   5.342
 9837TIP3   OH229453   6.544   4.724   2.098
 9837TIP3    H129454   6.603   4.663   2.053
 9837TIP3    H229455   6.504   4.671   2.167
 9838TIP3   OH229456   2.155   3.884   4.141
 9838TIP3    H129457   2.248   3.869   4.161
 9838TIP3    H229458   2.124   3.799   4.108
 9839TIP3   OH229459   3.578   4.613   5.004
 9839TIP3    H129460   3.533   4.572   4.930
 9839TIP3    H229461   3.638   4.545   5.036
 9840TIP3   OH229462   2.182   0.302  -0.002
 9840TIP3    H129463   2.165   0.327   0.088
 9840TIP3    H229464   2.235   0.222   0.005
 9841TIP3   OH229465   0.275   0.269   1.228
 9841TIP3    H129466   0.313   0.295   1.144
 9841TIP3    H229467   0.273   0.350   1.280
 9842TIP3   OH229468   3.623   0.918   2.049
 9842TIP3    H129469   3.666   0.975   1.985
 9842TIP3    H229470   3.618   0.971   2.128
 9843TIP3   OH229471   3.842   1.993   2.387
 9843TIP3    H129472   3.807   2.072   2.346
 9843TIP3    H229473   3.794   1.921   2.346
 9844TIP3   OH229474   3.918   3.054   1.688
 9844TIP3    H129475   3.871   3.034   1.769
 9844TIP3    H229476   3.967   2.975   1.669
 9845TIP3   OH229477   1.432   3.015   3.944
 9845TIP3    H129478   1.412   3.045   3.855
 9845TIP3    H229479   1.355   2.964   3.970
 9846TIP3   OH229480   6.249   1.336   4.311
 9846TIP3    H129481   6.275   1.404   4.250
 9846TIP3    H229482   6.320   1.333   4.376
 9847TIP3   OH229483   3.481   6.496   6.397
 9847TIP3    H129484   3.415   6.544   6.346
 9847TIP3    H229485   3.542   6.564   6.426
 9848TIP3   OH229486   0.825   5.796   0.682
 9848TIP3    H129487   0.866   5.876   0.713
 9848TIP3    H229488   0.770   5.767   0.755
 9849TIP3   OH229489   5.239   6.486   4.345
 9849TIP3    H129490   5.311   6.429   4.372
 9849TIP3    H229491   5.256   6.504   4.253
 9850TIP3   OH229492   3.613   4.612   5.940
 9850TIP3    H129493   3.542   4.607   6.004
 9850TIP3    H229494   3.615   4.704   5.913
 9851TIP3   OH229495   1.694   0.129   0.774
 9851TIP3    H129496   1.750   0.056   0.747
 9851TIP3    H229497   1.606   0.092   0.776
 9852TIP3   OH229498   7.806   5.846   6.018
 9852TIP3    H129499   7.866   5.859   5.944
 9852TIP3    H229500   7.727   5.895   5.993
 9853TIP3   OH229501   2.055   1.846   0.648
 9853TIP3    H129502   1.999   1.771   0.631
 9853TIP3    H229503   1.999   1.908   0.694
 9854TIP3   OH229504   8.062   4.651   1.508
 9854TIP3    H129505   8.090   4.690   1.591
 9854TIP3    H229506   8.121   4.577   1.496
 9855TIP3   OH229507   1.904   1.948   4.280
 9855TIP3    H129508   1.932   1.858   4.266
 9855TIP3    H229509   1.985   2.000   4.271
 9856TIP3   OH229510   5.113   3.251   3.965
 9856TIP3    H129511   5.126   3.274   4.057
 9856TIP3    H229512   5.179   3.301   3.918
 9857TIP3   OH229513   1.344   2.737   1.383
 9857TIP3    H129514   1.288   2.814   1.394
 9857TIP3    H229515   1.430   2.766   1.413
 9858TIP3   OH229516   2.431   7.057   6.229
 9858TIP3    H129517   2.527   7.058   6.227
 9858TIP3    H229518   2.409   6.985   6.288
 9859TIP3   OH229519   1.946   4.298   2.719
 9859TIP3    H129520   1.944   4.264   2.808
 9859TIP3    H229521   1.855   4.292   2.689
 9860TIP3   OH229522   3.869   7.096   5.382
 9860TIP3    H129523   3.804   7.161   5.358
 9860TIP3    H229524   3.931   7.144   5.437
 9861TIP3   OH229525   6.377   2.566   3.608
 9861TIP3    H129526   6.368   2.638   3.670
 9861TIP3    H229527   6.424   2.498   3.657
 9862TIP3   OH229528   8.078   1.122   5.208
 9862TIP3    H129529   8.024   1.072   5.146
 9862TIP3    H229530   8.109   1.056   5.270
 9863TIP3   OH229531   8.024   5.472   0.758
 9863TIP3    H129532   7.994   5.552   0.802
 9863TIP3    H229533   8.030   5.497   0.666
 9864TIP3   OH229534   2.217   3.606   5.248
 9864TIP3    H129535   2.210   3.687   5.197
 9864TIP3    H229536   2.282   3.626   5.316
 9865TIP3   OH229537   7.244   7.042   4.381
 9865TIP3    H129538   7.221   7.036   4.473
 9865TIP3    H229539   7.340   7.031   4.379
 9866TIP3   OH229540   4.177   6.871   4.783
 9866TIP3    H129541   4.095   6.852   4.737
 9866TIP3    H229542   4.239   6.892   4.714
 9867TIP3   OH229543   0.786   0.767   3.839
 9867TIP3    H129544   0.816   0.857   3.854
 9867TIP3    H229545   0.866   0.717   3.824
 9868TIP3   OH229546   2.194   6.972   5.872
 9868TIP3    H129547   2.140   6.997   5.797
 9868TIP3    H229548   2.271   6.931   5.834
 9869TIP3   OH229549   4.784   5.586   3.899
 9869TIP3    H129550   4.851   5.561   3.836
 9869TIP3    H229551   4.702   5.575   3.852
 9870TIP3   OH229552   4.303   4.790   0.713
 9870TIP3    H129553   4.366   4.861   0.720
 9870TIP3    H229554   4.231   4.827   0.662
 9871TIP3   OH229555   4.006   1.266   5.880
 9871TIP3    H129556   4.074   1.329   5.854
 9871TIP3    H229557   3.965   1.240   5.797
 9872TIP3   OH229558   3.983   5.909   5.276
 9872TIP3    H129559   4.046   5.932   5.345
 9872TIP3    H229560   4.027   5.934   5.195
 9873TIP3   OH229561   8.177   4.173   6.540
 9873TIP3    H129562   8.211   4.226   6.468
 9873TIP3    H229563   8.228   4.092   6.536
 9874TIP3   OH229564   6.175   3.794   1.193
 9874TIP3    H129565   6.244   3.845   1.236
 9874TIP3    H229566   6.101   3.854   1.186
 9875TIP3   OH229567   3.173   7.471   0.106
 9875TIP3    H129568   3.150   7.563   0.121
 9875TIP3    H229569   3.156   7.457   0.013
 9876TIP3   OH229570   7.450   7.644   5.886
 9876TIP3    H129571   7.429   7.686   5.802
 9876TIP3    H229572   7.385   7.679   5.947
 9877TIP3   OH229573   0.875   1.657   5.968
 9877TIP3    H129574   0.792   1.686   5.931
 9877TIP3    H229575   0.892   1.720   6.039
 9878TIP3   OH229576   0.370   7.277   6.609
 9878TIP3    H129577   0.393   7.195   6.653
 9878TIP3    H229578   0.399   7.264   6.518
 9879TIP3   OH229579   1.031   1.658   3.665
 9879TIP3    H129580   0.955   1.628   3.715
 9879TIP3    H229581   1.063   1.579   3.621
 9880TIP3   OH229582   3.408   5.649   4.267
 9880TIP3    H129583   3.373   5.561   4.285
 9880TIP3    H229584   3.503   5.637   4.266
 9881TIP3   OH229585   0.745   4.980   5.258
 9881TIP3    H129586   0.802   5.012   5.188
 9881TIP3    H229587   0.680   4.926   5.214
 9882TIP3   OH229588   4.416   7.017   0.947
 9882TIP3    H129589   4.324   7.003   0.924
 9882TIP3    H229590   4.464   6.993   0.868
 9883TIP3   OH229591   6.093   0.923   6.807
 9883TIP3    H129592   6.088   0.827   6.800
 9883TIP3    H229593   6.145   0.949   6.731
 9884TIP3   OH229594   7.047   0.108   5.526
 9884TIP3    H129595   7.105   0.143   5.593
 9884TIP3    H229596   7.100   0.105   5.447
 9885TIP3   OH229597   1.055   1.385   1.925
 9885TIP3    H129598   1.113   1.355   1.855
 9885TIP3    H229599   0.982   1.426   1.879
 9886TIP3   OH229600   1.763   7.007   2.589
 9886TIP3    H129601   1.696   7.029   2.654
 9886TIP3    H229602   1.747   6.916   2.567
 9887TIP3   OH229603   7.060   4.155   4.111
 9887TIP3    H129604   7.116   4.144   4.188
 9887TIP3    H229605   6.971   4.148   4.144
 9888TIP3   OH229606   3.727   6.588   4.041
 9888TIP3    H129607   3.687   6.548   4.118
 9888TIP3    H229608   3.696   6.536   3.967
 9889TIP3   OH229609   1.421   2.474   4.506
 9889TIP3    H129610   1.490   2.489   4.570
 9889TIP3    H229611   1.446   2.527   4.431
 9890TIP3   OH229612   0.887   5.154   3.623
 9890TIP3    H129613   0.901   5.191   3.535
 9890TIP3    H229614   0.793   5.143   3.629
 9891TIP3   OH229615   1.846   4.655   5.833
 9891TIP3    H129616   1.875   4.741   5.862
 9891TIP3    H229617   1.902   4.594   5.880
 9892TIP3   OH229618   5.329   2.698   5.119
 9892TIP3    H129619   5.400   2.653   5.073
 9892TIP3    H229620   5.314   2.645   5.198
 9893TIP3   OH229621   3.691   2.366   2.453
 9893TIP3    H129622   3.670   2.458   2.433
 9893TIP3    H229623   3.673   2.357   2.547
 9894TIP3   OH229624   1.112   3.343   6.789
 9894TIP3    H129625   1.045   3.373   6.851
 9894TIP3    H229626   1.080   3.373   6.704
 9895TIP3   OH229627   1.428   3.433   4.703
 9895TIP3    H129628   1.352   3.492   4.700
 9895TIP3    H229629   1.501   3.488   4.731
 9896TIP3   OH229630   6.054   1.804   6.011
 9896TIP3    H129631   6.014   1.869   5.953
 9896TIP3    H229632   6.087   1.736   5.952
 9897TIP3   OH229633   7.156   6.212   4.830
 9897TIP3    H129634   7.228   6.242   4.884
 9897TIP3    H229635   7.078   6.251   4.869
 9898TIP3   OH229636   3.956   1.937   0.288
 9898TIP3    H129637   3.935   2.022   0.249
 9898TIP3    H229638   4.047   1.945   0.315
 9899TIP3   OH229639   4.063   2.981   4.643
 9899TIP3    H129640   4.013   3.053   4.681
 9899TIP3    H229641   4.143   2.977   4.696
 9900TIP3   OH229642   3.636   5.180   3.227
 9900TIP3    H129643   3.719   5.224   3.244
 9900TIP3    H229644   3.597   5.229   3.154
 9901TIP3   OH229645   0.769   1.082   5.860
 9901TIP3    H129646   0.837   1.078   5.927
 9901TIP3    H229647   0.815   1.104   5.779
 9902TIP3   OH229648   2.566   4.941   1.139
 9902TIP3    H129649   2.549   4.897   1.223
 9902TIP3    H229650   2.594   5.030   1.164
 9903TIP3   OH229651   1.549   6.001   4.454
 9903TIP3    H129652   1.607   6.048   4.514
 9903TIP3    H229653   1.531   6.063   4.384
 9904TIP3   OH229654   0.529   7.043   0.544
 9904TIP3    H129655   0.552   7.126   0.501
 9904TIP3    H229656   0.435   7.033   0.528
 9905TIP3   OH229657   1.598   3.378   5.248
 9905TIP3    H129658   1.607   3.442   5.318
 9905TIP3    H229659   1.526   3.321   5.276
 9906TIP3   OH229660   7.672   2.830   5.830
 9906TIP3    H129661   7.724   2.892   5.779
 9906TIP3    H229662   7.626   2.778   5.763
 9907TIP3   OH229663   2.542   6.084   1.842
 9907TIP3    H129664   2.468   6.024   1.831
 9907TIP3    H229665   2.504   6.171   1.835
 9908TIP3   OH229666   3.142   5.482   1.498
 9908TIP3    H129667   3.062   5.530   1.519
 9908TIP3    H229668   3.139   5.472   1.403
 9909TIP3   OH229669   7.079   6.591   4.452
 9909TIP3    H129670   7.163   6.627   4.480
 9909TIP3    H229671   7.099   6.500   4.429
 9910TIP3   OH229672   7.867   1.798   4.597
 9910TIP3    H129673   7.873   1.710   4.560
 9910TIP3    H229674   7.786   1.797   4.649
 9911TIP3   OH229675   4.769   4.666   4.518
 9911TIP3    H129676   4.795   4.737   4.459
 9911TIP3    H229677   4.674   4.663   4.510
 9912TIP3   OH229678   2.696   1.373   0.773
 9912TIP3    H129679   2.726   1.394   0.861
 9912TIP3    H229680   2.775   1.345   0.727
 9913TIP3   OH229681   0.907   0.993   1.499
 9913TIP3    H129682   0.947   0.955   1.578
 9913TIP3    H229683   0.944   1.082   1.495
 9914TIP3   OH229684   4.524   6.195   5.298
 9914TIP3    H129685   4.602   6.208   5.351
 9914TIP3    H229686   4.550   6.219   5.210
 9915TIP3   OH229687   5.702   3.626   1.318
 9915TIP3    H129688   5.664   3.656   1.401
 9915TIP3    H229689   5.743   3.704   1.281
 9916TIP3   OH229690   1.872   7.248   1.142
 9916TIP3    H129691   1.882   7.158   1.174
 9916TIP3    H229692   1.782   7.252   1.111
 9917TIP3   OH229693   3.588   4.691   2.063
 9917TIP3    H129694   3.669   4.743   2.062
 9917TIP3    H229695   3.606   4.617   2.005
 9918TIP3   OH229696   2.458   2.505   0.884
 9918TIP3    H129697   2.372   2.481   0.851
 9918TIP3    H229698   2.461   2.601   0.877
 9919TIP3   OH229699   6.680   7.769   3.401
 9919TIP3    H129700   6.591   7.762   3.367
 9919TIP3    H229701   6.668   7.785   3.495
 9920TIP3   OH229702   5.352   3.869   6.123
 9920TIP3    H129703   5.423   3.934   6.122
 9920TIP3    H229704   5.310   3.878   6.038
 9921TIP3   OH229705   4.336   4.352   5.811
 9921TIP3    H129706   4.361   4.413   5.880
 9921TIP3    H229707   4.293   4.279   5.857
 9922TIP3   OH229708   1.140   0.708   0.404
 9922TIP3    H129709   1.115   0.685   0.315
 9922TIP3    H229710   1.105   0.796   0.417
 9923TIP3   OH229711   3.505   6.667   3.248
 9923TIP3    H129712   3.530   6.604   3.316
 9923TIP3    H229713   3.587   6.711   3.226
 9924TIP3   OH229714   6.152   7.766   4.219
 9924TIP3    H129715   6.182   7.828   4.151
 9924TIP3    H229716   6.224   7.765   4.282
 9925TIP3   OH229717   1.249   5.471   6.454
 9925TIP3    H129718   1.294   5.387   6.452
 9925TIP3    H229719   1.269   5.507   6.541
 9926TIP3   OH229720   1.986   0.399   4.513
 9926TIP3    H129721   2.047   0.367   4.579
 9926TIP3    H229722   2.043   0.434   4.443
 9927TIP3   OH229723   3.793   1.920   5.289
 9927TIP3    H129724   3.870   1.868   5.311
 9927TIP3    H229725   3.730   1.899   5.357
 9928TIP3   OH229726   5.630   6.441   6.450
 9928TIP3    H129727   5.537   6.442   6.473
 9928TIP3    H229728   5.661   6.355   6.479
 9929TIP3   OH229729   1.102   1.956   3.074
 9929TIP3    H129730   1.158   1.947   2.996
 9929TIP3    H229731   1.044   2.029   3.053
 9930TIP3   OH229732   6.781   2.869   3.007
 9930TIP3    H129733   6.864   2.839   2.971
 9930TIP3    H229734   6.715   2.820   2.959
 9931TIP3   OH229735   1.504   3.810   3.464
 9931TIP3    H129736   1.482   3.903   3.458
 9931TIP3    H229737   1.571   3.796   3.397
 9932TIP3   OH229738   4.916   1.260   0.593
 9932TIP3    H129739   5.007   1.236   0.609
 9932TIP3    H229740   4.870   1.232   0.672
 9933TIP3   OH229741   1.346   7.345   5.956
 9933TIP3    H129742   1.439   7.333   5.937
 9933TIP3    H229743   1.301   7.287   5.894
 9934TIP3   OH229744   1.697   2.518   2.164
 9934TIP3    H129745   1.616   2.534   2.115
 9934TIP3    H229746   1.672   2.458   2.234
 9935TIP3   OH229747   5.641   1.094   2.943
 9935TIP3    H129748   5.613   1.008   2.911
 9935TIP3    H229749   5.714   1.118   2.887
 9936TIP3   OH229750   2.905   0.949   1.677
 9936TIP3    H129751   2.882   1.022   1.621
 9936TIP3    H229752   2.918   0.875   1.617
 9937TIP3   OH229753   2.110   2.116   3.934
 9937TIP3    H129754   2.018   2.112   3.959
 9937TIP3    H229755   2.114   2.071   3.850
 9938TIP3   OH229756   7.106   1.852   1.079
 9938TIP3    H129757   7.185   1.854   1.132
 9938TIP3    H229758   7.041   1.901   1.130
 9939TIP3   OH229759   1.328   0.019   3.216
 9939TIP3    H129760   1.313  -0.024   3.131
 9939TIP3    H229761   1.262  -0.018   3.274
 9940TIP3   OH229762   4.842   6.282   5.725
 9940TIP3    H129763   4.853   6.268   5.819
 9940TIP3    H229764   4.902   6.219   5.685
 9941TIP3   OH229765   2.620   4.998   6.575
 9941TIP3    H129766   2.697   4.949   6.604
 9941TIP3    H229767   2.587   4.947   6.500
 9942TIP3   OH229768   0.819   2.318   3.492
 9942TIP3    H129769   0.886   2.382   3.467
 9942TIP3    H229770   0.867   2.248   3.535
 9943TIP3   OH229771   0.036   1.696   0.570
 9943TIP3    H129772   0.041   1.776   0.623
 9943TIP3    H229773   0.088   1.716   0.492
 9944TIP3   OH229774   5.801   3.015   6.220
 9944TIP3    H129775   5.896   3.010   6.229
 9944TIP3    H229776   5.786   3.050   6.133
 9945TIP3   OH229777   7.467   7.002   1.337
 9945TIP3    H129778   7.393   6.942   1.349
 9945TIP3    H229779   7.427   7.080   1.297
 9946TIP3   OH229780   3.829   3.118   4.756
 9946TIP3    H129781   3.794   3.036   4.723
 9946TIP3    H229782   3.759   3.182   4.742
 9947TIP3   OH229783   7.326   5.838   5.528
 9947TIP3    H129784   7.255   5.783   5.560
 9947TIP3    H229785   7.344   5.899   5.599
 9948TIP3   OH229786   8.139   2.164   2.545
 9948TIP3    H129787   8.137   2.259   2.543
 9948TIP3    H229788   8.216   2.140   2.494
 9949TIP3   OH229789   2.813   4.880   3.991
 9949TIP3    H129790   2.860   4.862   4.072
 9949TIP3    H229791   2.724   4.902   4.019
 9950TIP3   OH229792   8.131   1.198   3.298
 9950TIP3    H129793   8.126   1.214   3.203
 9950TIP3    H229794   8.052   1.238   3.333
 9951TIP3   OH229795   1.267   0.524   3.928
 9951TIP3    H129796   1.315   0.500   4.008
 9951TIP3    H229797   1.302   0.465   3.862
 9952TIP3   OH229798   1.534   1.305   1.022
 9952TIP3    H129799   1.466   1.278   0.960
 9952TIP3    H229800   1.495   1.379   1.069
 9953TIP3   OH229801   5.869   5.512   0.613
 9953TIP3    H129802   5.908   5.598   0.622
 9953TIP3    H229803   5.912   5.475   0.535
 9954TIP3   OH229804   3.745   6.821   2.347
 9954TIP3    H129805   3.800   6.785   2.277
 9954TIP3    H229806   3.802   6.880   2.395
 9955TIP3   OH229807   0.025   1.144   4.514
 9955TIP3    H129808   0.111   1.157   4.475
 9955TIP3    H229809   0.043   1.101   4.598
 9956TIP3   OH229810   6.264   0.323   6.394
 9956TIP3    H129811   6.227   0.261   6.458
 9956TIP3    H229812   6.302   0.393   6.448
 9957TIP3   OH229813   3.585   1.281   0.611
 9957TIP3    H129814   3.532   1.267   0.690
 9957TIP3    H229815   3.633   1.199   0.600
 9958TIP3   OH229816   3.854   4.882   5.081
 9958TIP3    H129817   3.763   4.899   5.057
 9958TIP3    H229818   3.905   4.917   5.009
 9959TIP3   OH229819   6.441   5.696   1.661
 9959TIP3    H129820   6.417   5.751   1.735
 9959TIP3    H229821   6.504   5.634   1.696
 9960TIP3   OH229822   4.415   3.345   1.041
 9960TIP3    H129823   4.353   3.417   1.053
 9960TIP3    H229824   4.500   3.388   1.031
 9961TIP3   OH229825   0.264   7.242   4.767
 9961TIP3    H129826   0.335   7.229   4.705
 9961TIP3    H229827   0.193   7.186   4.735
 9962TIP3   OH229828   8.133   5.957   3.662
 9962TIP3    H129829   8.157   5.865   3.656
 9962TIP3    H229830   8.199   6.003   3.610
 9963TIP3   OH229831   3.760   0.879   2.388
 9963TIP3    H129832   3.782   0.960   2.434
 9963TIP3    H229833   3.672   0.895   2.353
 9964TIP3   OH229834   7.792   1.265   0.903
 9964TIP3    H129835   7.804   1.335   0.967
 9964TIP3    H229836   7.817   1.185   0.949
 9965TIP3   OH229837   0.432   3.659   4.608
 9965TIP3    H129838   0.386   3.639   4.689
 9965TIP3    H229839   0.405   3.748   4.585
 9966TIP3   OH229840   4.391   4.954   5.633
 9966TIP3    H129841   4.419   4.941   5.724
 9966TIP3    H229842   4.461   4.915   5.580
 9967TIP3   OH229843   4.432   1.331   0.555
 9967TIP3    H129844   4.350   1.323   0.508
 9967TIP3    H229845   4.419   1.405   0.614
 9968TIP3   OH229846   6.717   5.814   5.842
 9968TIP3    H129847   6.649   5.837   5.905
 9968TIP3    H229848   6.768   5.746   5.886
 9969TIP3   OH229849   7.338   1.475   4.044
 9969TIP3    H129850   7.253   1.479   4.001
 9969TIP3    H229851   7.352   1.565   4.076
 9970TIP3   OH229852   4.088   3.594   5.250
 9970TIP3    H129853   4.103   3.540   5.173
 9970TIP3    H229854   4.013   3.648   5.228
 9971TIP3   OH229855   1.135   7.338   6.380
 9971TIP3    H129856   1.140   7.359   6.473
 9971TIP3    H229857   1.204   7.390   6.339
 9972TIP3   OH229858   1.817   3.653   5.286
 9972TIP3    H129859   1.846   3.735   5.245
 9972TIP3    H229860   1.761   3.682   5.359
 9973TIP3   OH229861   4.749   4.403   5.753
 9973TIP3    H129862   4.825   4.412   5.696
 9973TIP3    H229863   4.698   4.482   5.737
 9974TIP3   OH229864   6.637   2.021   2.505
 9974TIP3    H129865   6.703   2.042   2.571
 9974TIP3    H229866   6.634   2.098   2.449
 9975TIP3   OH229867   1.825   2.872   1.582
 9975TIP3    H129868   1.861   2.786   1.563
 9975TIP3    H229869   1.893   2.917   1.631
 9976TIP3   OH229870   7.318   5.491   0.717
 9976TIP3    H129871   7.360   5.577   0.705
 9976TIP3    H229872   7.245   5.508   0.776
 9977TIP3   OH229873   4.120   7.734   5.417
 9977TIP3    H129874   4.167   7.791   5.477
 9977TIP3    H229875   4.028   7.743   5.442
 9978TIP3   OH229876   4.392   5.642   2.183
 9978TIP3    H129877   4.485   5.628   2.169
 9978TIP3    H229878   4.361   5.682   2.101
 9979TIP3   OH229879   2.021   6.734   1.911
 9979TIP3    H129880   1.930   6.749   1.935
 9979TIP3    H229881   2.031   6.779   1.827
 9980TIP3   OH229882   5.476   5.312   6.161
 9980TIP3    H129883   5.533   5.330   6.236
 9980TIP3    H229884   5.528   5.255   6.105
 9981TIP3   OH229885   2.950   2.714   1.731
 9981TIP3    H129886   2.956   2.714   1.636
 9981TIP3    H229887   3.039   2.734   1.760
 9982TIP3   OH229888   0.184   6.149   5.662
 9982TIP3    H129889   0.166   6.078   5.724
 9982TIP3    H229890   0.140   6.225   5.699
 9983TIP3   OH229891   5.716   7.753   6.153
 9983TIP3    H129892   5.640   7.696   6.152
 9983TIP3    H229893   5.720   7.787   6.242
 9984TIP3   OH229894   7.701   5.516   4.376
 9984TIP3    H129895   7.663   5.498   4.461
 9984TIP3    H229896   7.791   5.543   4.394
 9985TIP3   OH229897   0.386   1.841   1.425
 9985TIP3    H129898   0.416   1.932   1.432
 9985TIP3    H229899   0.457   1.797   1.378
 9986TIP3   OH229900   2.613   3.748   4.712
 9986TIP3    H129901   2.562   3.675   4.677
 9986TIP3    H229902   2.558   3.785   4.781
 9987TIP3   OH229903   6.457   4.317   6.266
 9987TIP3    H129904   6.490   4.247   6.210
 9987TIP3    H229905   6.378   4.349   6.221
 9988TIP3   OH229906   2.996   3.548   6.111
 9988TIP3    H129907   3.025   3.639   6.103
 9988TIP3    H229908   3.077   3.498   6.120
 9989TIP3   OH229909   0.126   3.862   1.138
 9989TIP3    H129910   0.056   3.799   1.160
 9989TIP3    H229911   0.102   3.941   1.186
 9990TIP3   OH229912   2.189   2.548   4.191
 9990TIP3    H129913   2.267   2.494   4.191
 9990TIP3    H229914   2.219   2.633   4.224
 9991TIP3   OH229915   2.582   1.205   3.464
 9991TIP3    H129916   2.509   1.229   3.520
 9991TIP3    H229917   2.625   1.132   3.509
 9992TIP3   OH229918   2.046   4.705   1.261
 9992TIP3    H129919   2.135   4.697   1.294
 9992TIP3    H229920   2.051   4.770   1.190
 9993TIP3   OH229921   2.414   7.309   3.741
 9993TIP3    H129922   2.320   7.327   3.732
 9993TIP3    H229923   2.435   7.337   3.830
 9994TIP3   OH229924   6.709   1.681   3.245
 9994TIP3    H129925   6.777   1.748   3.253
 9994TIP3    H229926   6.712   1.634   3.328
 9995TIP3   OH229927   7.636   4.393   1.492
 9995TIP3    H129928   7.542   4.412   1.495
 9995TIP3    H229929   7.677   4.478   1.473
 9996TIP3   OH229930   0.894   3.043   0.665
 9996TIP3    H129931   0.847   3.114   0.621
 9996TIP3    H229932   0.878   2.966   0.612
 9997TIP3   OH229933   8.141   5.057   1.734
 9997TIP3    H129934   8.222   5.058   1.683
 9997TIP3    H229935   8.078   5.103   1.680
 9998TIP3   OH229936   0.905   7.264   5.157
 9998TIP3    H129937   0.953   7.343   5.130
 9998TIP3    H229938   0.813   7.287   5.145
 9999TIP3   OH229939   6.708   5.284   3.641
 9999TIP3    H129940   6.787   5.234   3.622
 9999TIP3    H229941   6.636   5.226   3.614
10000TIP3   OH229942   0.866   7.654   3.248
10000TIP3    H129943   0.920   7.608   3.313
10000TIP3    H229944   0.914   7.644   3.166
10001TIP3   OH229945   6.774   0.483   1.515
10001TIP3    H129946   6.762   0.559   1.458
10001TIP3    H229947   6.769   0.519   1.604
10002TIP3   OH229948   4.332   2.624   5.876
10002TIP3    H129949   4.264   2.638   5.810
10002TIP3    H229950   4.311   2.539   5.915
10003TIP3   OH229951   7.515   1.826   5.307
10003TIP3    H129952   7.544   1.739   5.334
10003TIP3    H229953   7.582   1.856   5.246
10004TIP3   OH229954   5.324   6.508   4.082
10004TIP3    H129955   5.288   6.515   3.993
10004TIP3    H229956   5.375   6.428   4.081
10005TIP3   OH229957   3.706   3.582   3.107
10005TIP3    H129958   3.736   3.613   3.193
10005TIP3    H229959   3.733   3.491   3.103
10006TIP3   OH229960   5.117   0.578   0.970
10006TIP3    H129961   5.099   0.556   0.878
10006TIP3    H229962   5.056   0.648   0.990
10007TIP3   OH229963   1.042   3.825   1.130
10007TIP3    H129964   1.061   3.835   1.224
10007TIP3    H229965   1.077   3.739   1.108
10008TIP3   OH229966   5.455   5.608   4.985
10008TIP3    H129967   5.483   5.533   4.932
10008TIP3    H229968   5.516   5.611   5.058
10009TIP3   OH229969   1.391   6.104   6.140
10009TIP3    H129970   1.438   6.166   6.083
10009TIP3    H229971   1.345   6.160   6.202
10010TIP3   OH229972   1.765   2.071   1.018
10010TIP3    H129973   1.801   2.117   1.093
10010TIP3    H229974   1.716   1.997   1.056
10011TIP3   OH229975   7.517   1.201   3.496
10011TIP3    H129976   7.528   1.113   3.459
10011TIP3    H229977   7.587   1.209   3.560
10012TIP3   OH229978   3.192   1.323   3.462
10012TIP3    H129979   3.279   1.340   3.498
10012TIP3    H229980   3.144   1.282   3.534
10013TIP3   OH229981   5.110   4.205   5.183
10013TIP3    H129982   5.148   4.138   5.240
10013TIP3    H229983   5.173   4.277   5.188
10014TIP3   OH229984   5.467   4.090   5.321
10014TIP3    H129985   5.525   4.071   5.394
10014TIP3    H229986   5.461   4.185   5.319
10015TIP3   OH229987   8.259   4.729   3.903
10015TIP3    H129988   8.289   4.819   3.920
10015TIP3    H229989   8.179   4.740   3.852
10016TIP3   OH229990   7.514   7.835   0.162
10016TIP3    H129991   7.550   7.746   0.157
10016TIP3    H229992   7.555   7.872   0.240
10017TIP3   OH229993   6.961   2.759   4.252
10017TIP3    H129994   7.029   2.820   4.225
10017TIP3    H229995   6.992   2.674   4.222
10018TIP3   OH229996   1.477   7.550   3.288
10018TIP3    H129997   1.465   7.457   3.272
10018TIP3    H229998   1.432   7.593   3.214
10019TIP3   OH229999   2.246   5.518   1.324
10019TIP3    H130000   2.213   5.438   1.364
10019TIP3    H230001   2.178   5.583   1.341
10020TIP3   OH230002   5.343   5.109   6.690
10020TIP3    H130003   5.298   5.107   6.775
10020TIP3    H230004   5.274   5.099   6.625
10021TIP3   OH230005   3.331   4.909   2.845
10021TIP3    H130006   3.378   4.992   2.850
10021TIP3    H230007   3.399   4.843   2.831
10022TIP3   OH230008   7.037   4.448   1.034
10022TIP3    H130009   7.061   4.488   1.118
10022TIP3    H230010   6.971   4.506   0.997
10023TIP3   OH230011   6.878   3.234   6.381
10023TIP3    H130012   6.796   3.266   6.419
10023TIP3    H230013   6.925   3.197   6.455
10024TIP3   OH230014   2.894   5.866   0.787
10024TIP3    H130015   2.812   5.905   0.819
10024TIP3    H230016   2.930   5.821   0.864
10025TIP3   OH230017   6.943   5.587   1.563
10025TIP3    H130018   7.003   5.661   1.560
10025TIP3    H230019   6.865   5.618   1.517
10026TIP3   OH230020   6.723   6.611   2.818
10026TIP3    H130021   6.707   6.571   2.903
10026TIP3    H230022   6.699   6.703   2.830
10027TIP3   OH230023   1.550   2.471   2.973
10027TIP3    H130024   1.641   2.445   2.957
10027TIP3    H230025   1.538   2.458   3.067
10028TIP3   OH230026   8.012   7.760   4.813
10028TIP3    H130027   8.097   7.795   4.840
10028TIP3    H230028   7.949   7.827   4.838
10029TIP3   OH230029   6.667   2.101   2.951
10029TIP3    H130030   6.696   2.189   2.929
10029TIP3    H230031   6.591   2.085   2.894
10030TIP3   OH230032   3.662   3.961   4.295
10030TIP3    H130033   3.695   3.893   4.237
10030TIP3    H230034   3.733   4.025   4.301
10031TIP3   OH230035   3.259   3.332   2.347
10031TIP3    H130036   3.324   3.302   2.410
10031TIP3    H230037   3.175   3.307   2.385
10032TIP3   OH230038   1.794   2.139   2.511
10032TIP3    H130039   1.828   2.108   2.595
10032TIP3    H230040   1.838   2.223   2.497
10033TIP3   OH230041   6.165   1.791   0.334
10033TIP3    H130042   6.149   1.856   0.265
10033TIP3    H230043   6.226   1.834   0.394
10034TIP3   OH230044   0.082   0.420   3.896
10034TIP3    H130045   0.096   0.328   3.875
10034TIP3    H230046   0.074   0.463   3.810
10035TIP3   OH230047   3.705   7.680   1.859
10035TIP3    H130048   3.781   7.671   1.802
10035TIP3    H230049   3.677   7.590   1.877
10036TIP3   OH230050   5.495   2.574   1.909
10036TIP3    H130051   5.460   2.584   1.821
10036TIP3    H230052   5.484   2.481   1.929
10037TIP3   OH230053   5.858   2.225   6.422
10037TIP3    H130054   5.812   2.288   6.476
10037TIP3    H230055   5.876   2.271   6.340
10038TIP3   OH230056   3.208   6.485   2.911
10038TIP3    H130057   3.272   6.415   2.896
10038TIP3    H230058   3.125   6.439   2.926
10039TIP3   OH230059   5.798   2.176   2.466
10039TIP3    H130060   5.864   2.236   2.500
10039TIP3    H230061   5.843   2.092   2.458
10040TIP3   OH230062   5.181   1.269   4.783
10040TIP3    H130063   5.217   1.318   4.709
10040TIP3    H230064   5.257   1.225   4.822
10041TIP3   OH230065   3.687   6.495   4.370
10041TIP3    H130066   3.766   6.482   4.317
10041TIP3    H230067   3.706   6.451   4.453
10042TIP3   OH230068   1.410   0.650   6.281
10042TIP3    H130069   1.335   0.589   6.279
10042TIP3    H230070   1.470   0.616   6.214
10043TIP3   OH230071   0.697   7.594   5.102
10043TIP3    H130072   0.707   7.499   5.098
10043TIP3    H230073   0.730   7.626   5.018
10044TIP3   OH230074   4.172   1.641   4.848
10044TIP3    H130075   4.205   1.724   4.815
10044TIP3    H230076   4.140   1.595   4.771
10045TIP3   OH230077   0.671   0.972   0.260
10045TIP3    H130078   0.723   0.893   0.251
10045TIP3    H230079   0.668   0.988   0.354
10046TIP3   OH230080   7.330   5.257   2.645
10046TIP3    H130081   7.376   5.179   2.612
10046TIP3    H230082   7.321   5.314   2.569
10047TIP3   OH230083   5.405   7.175   1.360
10047TIP3    H130084   5.390   7.095   1.310
10047TIP3    H230085   5.319   7.199   1.394
10048TIP3   OH230086   0.384   3.219   5.472
10048TIP3    H130087   0.429   3.227   5.388
10048TIP3    H230088   0.441   3.263   5.535
10049TIP3   OH230089   5.860   0.653   0.879
10049TIP3    H130090   5.872   0.747   0.866
10049TIP3    H230091   5.796   0.646   0.949
10050TIP3   OH230092   1.934   6.290   4.623
10050TIP3    H130093   1.969   6.296   4.712
10050TIP3    H230094   1.942   6.378   4.587
10051TIP3   OH230095   8.199   1.380   3.935
10051TIP3    H130096   8.166   1.461   3.895
10051TIP3    H230097   8.275   1.408   3.986
10052TIP3   OH230098   6.281   1.157   2.913
10052TIP3    H130099   6.250   1.105   2.987
10052TIP3    H230100   6.326   1.232   2.953
10053TIP3   OH230101   8.169   3.499   5.721
10053TIP3    H130102   8.211   3.508   5.807
10053TIP3    H230103   8.108   3.573   5.716
10054TIP3   OH230104   5.618   2.577   3.450
10054TIP3    H130105   5.665   2.513   3.397
10054TIP3    H230106   5.674   2.591   3.526
10055TIP3   OH230107   5.247   3.567   5.096
10055TIP3    H130108   5.189   3.526   5.032
10055TIP3    H230109   5.303   3.625   5.045
10056TIP3   OH230110   7.087   7.149   5.825
10056TIP3    H130111   7.132   7.066   5.812
10056TIP3    H230112   7.136   7.212   5.771
10057TIP3   OH230113   1.424   7.330   1.870
10057TIP3    H130114   1.334   7.331   1.900
10057TIP3    H230115   1.464   7.407   1.911
10058TIP3   OH230116   1.786   0.114   1.717
10058TIP3    H130117   1.714   0.071   1.762
10058TIP3    H230118   1.836   0.159   1.786
10059TIP3   OH230119   0.907   3.251   1.459
10059TIP3    H130120   0.838   3.312   1.485
10059TIP3    H230121   0.935   3.211   1.542
10060TIP3   OH230122   5.582   7.702   3.782
10060TIP3    H130123   5.491   7.731   3.774
10060TIP3    H230124   5.592   7.634   3.716
10061TIP3   OH230125   6.610   3.612   1.437
10061TIP3    H130126   6.704   3.593   1.447
10061TIP3    H230127   6.594   3.685   1.495
10062TIP3   OH230128   4.159   4.777   3.866
10062TIP3    H130129   4.203   4.720   3.930
10062TIP3    H230130   4.118   4.845   3.920
10063TIP3   OH230131   2.096   6.255   1.697
10063TIP3    H130132   2.057   6.169   1.681
10063TIP3    H230133   2.105   6.260   1.792
10064TIP3   OH230134   4.793   1.048   4.161
10064TIP3    H130135   4.874   1.077   4.203
10064TIP3    H230136   4.767   1.122   4.106
10065TIP3   OH230137   0.685   7.559   1.392
10065TIP3    H130138   0.712   7.558   1.300
10065TIP3    H230139   0.742   7.625   1.432
10066TIP3   OH230140   3.162   5.938   3.749
10066TIP3    H130141   3.186   5.958   3.658
10066TIP3    H230142   3.081   5.987   3.764
10067TIP3   OH230143   7.984   4.886   4.659
10067TIP3    H130144   7.976   4.886   4.564
10067TIP3    H230145   8.054   4.823   4.677
10068TIP3   OH230146   1.354   2.368   0.241
10068TIP3    H130147   1.382   2.302   0.177
10068TIP3    H230148   1.433   2.388   0.292
10069TIP3   OH230149   0.169   7.195   2.599
10069TIP3    H130150   0.254   7.212   2.640
10069TIP3    H230151   0.140   7.112   2.637
10070TIP3   OH230152   1.100   3.426   6.484
10070TIP3    H130153   1.176   3.421   6.426
10070TIP3    H230154   1.073   3.518   6.480
10071TIP3   OH230155   0.900   4.537   2.378
10071TIP3    H130156   0.864   4.576   2.298
10071TIP3    H230157   0.962   4.471   2.346
10072TIP3   OH230158   7.915   5.196   3.336
10072TIP3    H130159   7.888   5.114   3.294
10072TIP3    H230160   7.946   5.169   3.423
10073TIP3   OH230161   2.473   4.007   5.656
10073TIP3    H130162   2.562   4.003   5.622
10073TIP3    H230163   2.454   4.101   5.663
10074TIP3   OH230164   2.312   5.686   5.468
10074TIP3    H130165   2.364   5.661   5.545
10074TIP3    H230166   2.230   5.638   5.478
10075TIP3   OH230167   2.515   0.939   5.160
10075TIP3    H130168   2.530   0.918   5.068
10075TIP3    H230169   2.542   1.030   5.169
10076TIP3   OH230170   8.199   2.468   3.624
10076TIP3    H130171   8.185   2.492   3.532
10076TIP3    H230172   8.172   2.377   3.629
10077TIP3   OH230173   2.490   7.651   3.804
10077TIP3    H130174   2.490   7.618   3.893
10077TIP3    H230175   2.407   7.698   3.795
10078TIP3   OH230176   7.923   3.780   1.252
10078TIP3    H130177   7.981   3.719   1.206
10078TIP3    H230178   7.966   3.795   1.336
10079TIP3   OH230179   3.462   0.268   5.537
10079TIP3    H130180   3.465   0.358   5.570
10079TIP3    H230181   3.536   0.263   5.475
10080TIP3   OH230182   1.879   5.321   6.097
10080TIP3    H130183   1.847   5.350   6.011
10080TIP3    H230184   1.886   5.402   6.148
10081TIP3   OH230185   6.973   5.715   6.531
10081TIP3    H130186   6.878   5.709   6.536
10081TIP3    H230187   6.991   5.809   6.528
10082TIP3   OH230188   1.352   7.526   1.087
10082TIP3    H130189   1.383   7.463   1.023
10082TIP3    H230190   1.410   7.602   1.077
10083TIP3   OH230191   2.311   3.855   3.648
10083TIP3    H130192   2.295   3.764   3.625
10083TIP3    H230193   2.374   3.850   3.720
10084TIP3   OH230194   7.324   2.798   2.185
10084TIP3    H130195   7.262   2.822   2.116
10084TIP3    H230196   7.280   2.730   2.235
10085TIP3   OH230197   3.386   6.202   1.516
10085TIP3    H130198   3.305   6.154   1.494
10085TIP3    H230199   3.441   6.137   1.559
10086TIP3   OH230200   1.578   2.489   5.944
10086TIP3    H130201   1.654   2.464   5.995
10086TIP3    H230202   1.505   2.483   6.006
10087TIP3   OH230203   6.271   5.559   0.440
10087TIP3    H130204   6.185   5.527   0.466
10087TIP3    H230205   6.264   5.655   0.446
10088TIP3   OH230206   4.011   1.914   6.214
10088TIP3    H130207   4.086   1.971   6.197
10088TIP3    H230208   3.991   1.929   6.306
10089TIP3   OH230209   6.295   7.520   1.457
10089TIP3    H130210   6.329   7.542   1.370
10089TIP3    H230211   6.362   7.552   1.518
10090TIP3   OH230212   7.493   0.235   2.641
10090TIP3    H130213   7.507   0.321   2.600
10090TIP3    H230214   7.495   0.173   2.567
10091TIP3   OH230215   3.279   5.745   0.716
10091TIP3    H130216   3.266   5.816   0.653
10091TIP3    H230217   3.198   5.694   0.711
10092TIP3   OH230218   5.992   3.663   3.184
10092TIP3    H130219   5.950   3.736   3.231
10092TIP3    H230220   5.932   3.642   3.113
10093TIP3   OH230221   5.891   2.467   1.431
10093TIP3    H130222   5.968   2.460   1.488
10093TIP3    H230223   5.911   2.541   1.374
10094TIP3   OH230224   5.471   7.612   5.512
10094TIP3    H130225   5.435   7.615   5.424
10094TIP3    H230226   5.454   7.699   5.549
10095TIP3   OH230227   2.688   2.353   6.631
10095TIP3    H130228   2.740   2.293   6.578
10095TIP3    H230229   2.599   2.317   6.626
10096TIP3   OH230230   3.216   2.527   3.872
10096TIP3    H130231   3.224   2.432   3.864
10096TIP3    H230232   3.245   2.547   3.961
10097TIP3   OH230233   5.624   7.562   3.393
10097TIP3    H130234   5.628   7.483   3.447
10097TIP3    H230235   5.545   7.607   3.424
10098TIP3   OH230236   1.082   7.763   1.159
10098TIP3    H130237   1.057   7.672   1.177
10098TIP3    H230238   1.157   7.779   1.216
10099TIP3   OH230239   5.020   7.289   6.174
10099TIP3    H130240   5.051   7.240   6.099
10099TIP3    H230241   5.036   7.232   6.249
10100TIP3   OH230242   6.023   1.110   3.821
10100TIP3    H130243   6.071   1.157   3.888
10100TIP3    H230244   6.054   1.147   3.738
10101TIP3   OH230245   5.711   7.235   1.924
10101TIP3    H130246   5.665   7.175   1.983
10101TIP3    H230247   5.756   7.178   1.862
10102TIP3   OH230248   6.339   4.706   0.853
10102TIP3    H130249   6.287   4.768   0.803
10102TIP3    H230250   6.378   4.648   0.788
10103TIP3   OH230251   6.852   1.682   5.216
10103TIP3    H130252   6.900   1.599   5.224
10103TIP3    H230253   6.764   1.662   5.250
10104TIP3   OH230254   0.390   5.356   0.680
10104TIP3    H130255   0.355   5.410   0.751
10104TIP3    H230256   0.482   5.344   0.702
10105TIP3   OH230257   6.898   7.092   4.927
10105TIP3    H130258   6.832   7.022   4.924
10105TIP3    H230259   6.947   7.075   5.008
10106TIP3   OH230260   0.707   0.376   0.261
10106TIP3    H130261   0.623   0.381   0.216
10106TIP3    H230262   0.699   0.441   0.331
10107TIP3   OH230263   2.628   4.125   6.294
10107TIP3    H130264   2.561   4.194   6.289
10107TIP3    H230265   2.617   4.087   6.381
10108TIP3   OH230266   8.034   4.713   3.248
10108TIP3    H130267   8.114   4.673   3.215
10108TIP3    H230268   8.023   4.677   3.336
10109TIP3   OH230269   6.559   3.719   1.740
10109TIP3    H130270   6.484   3.752   1.691
10109TIP3    H230271   6.587   3.793   1.794
10110TIP3   OH230272   1.597   7.115   1.036
10110TIP3    H130273   1.509   7.151   1.044
10110TIP3    H230274   1.632   7.154   0.956
10111TIP3   OH230275   5.432   7.862   3.130
10111TIP3    H130276   5.448   7.884   3.038
10111TIP3    H230277   5.362   7.797   3.127
10112TIP3   OH230278   8.076   3.721   2.050
10112TIP3    H130279   8.015   3.655   2.017
10112TIP3    H230280   8.106   3.686   2.135
10113TIP3   OH230281   6.568   5.131   2.095
10113TIP3    H130282   6.638   5.065   2.091
10113TIP3    H230283   6.541   5.143   2.005
10114TIP3   OH230284   7.429   1.120   6.061
10114TIP3    H130285   7.513   1.159   6.036
10114TIP3    H230286   7.411   1.156   6.148
10115TIP3   OH230287   0.523   7.392   1.139
10115TIP3    H130288   0.477   7.476   1.143
10115TIP3    H230289   0.475   7.342   1.072
10116TIP3   OH230290   2.040   1.979   2.478
10116TIP3    H130291   2.106   1.944   2.418
10116TIP3    H230292   1.995   1.902   2.513
10117TIP3   OH230293   0.189   1.673   2.932
10117TIP3    H130294   0.271   1.632   2.906
10117TIP3    H230295   0.124   1.603   2.922
10118TIP3   OH230296   1.228   7.120   6.254
10118TIP3    H130297   1.197   7.183   6.318
10118TIP3    H230298   1.228   7.036   6.300
10119TIP3   OH230299   0.934   1.392   5.990
10119TIP3    H130300   0.903   1.478   5.961
10119TIP3    H230301   1.028   1.403   6.003
10120TIP3   OH230302   3.633   4.530   3.061
10120TIP3    H130303   3.727   4.517   3.054
10120TIP3    H230304   3.623   4.612   3.108
10121TIP3   OH230305   1.002   7.176   5.516
10121TIP3    H130306   0.955   7.193   5.598
10121TIP3    H230307   1.079   7.233   5.521
10122TIP3   OH230308   2.375   2.626   2.854
10122TIP3    H130309   2.385   2.649   2.946
10122TIP3    H230310   2.446   2.564   2.836
10123TIP3   OH230311   5.610   6.291   3.158
10123TIP3    H130312   5.610   6.203   3.197
10123TIP3    H230313   5.518   6.312   3.146
10124TIP3   OH230314   1.290   2.172   4.678
10124TIP3    H130315   1.267   2.103   4.616
10124TIP3    H230316   1.260   2.252   4.637
10125TIP3   OH230317   1.313   1.636   6.142
10125TIP3    H130318   1.283   1.725   6.128
10125TIP3    H230319   1.407   1.638   6.121
10126TIP3   OH230320   4.824   7.128   4.282
10126TIP3    H130321   4.904   7.148   4.233
10126TIP3    H230322   4.754   7.165   4.228
10127TIP3   OH230323   8.138   7.175   3.203
10127TIP3    H130324   8.153   7.269   3.211
10127TIP3    H230325   8.210   7.143   3.149
10128TIP3   OH230326   6.380   7.456   2.301
10128TIP3    H130327   6.361   7.549   2.316
10128TIP3    H230328   6.475   7.451   2.296
10129TIP3   OH230329   3.959   0.346   5.321
10129TIP3    H130330   3.876   0.314   5.356
10129TIP3    H230331   3.938   0.432   5.284
10130TIP3   OH230332   0.052   2.325   2.806
10130TIP3    H130333   0.072   2.398   2.748
10130TIP3    H230334  -0.040   2.337   2.830
10131TIP3   OH230335   4.227   1.081   5.594
10131TIP3    H130336   4.307   1.028   5.598
10131TIP3    H230337   4.257   1.166   5.560
10132TIP3   OH230338   7.877   3.195   4.598
10132TIP3    H130339   7.883   3.232   4.685
10132TIP3    H230340   7.906   3.104   4.608
10133TIP3   OH230341   8.019   1.327   3.627
10133TIP3    H130342   8.109   1.353   3.648
10133TIP3    H230343   7.995   1.383   3.553
10134TIP3   OH230344   0.374   2.680   6.099
10134TIP3    H130345   0.383   2.771   6.128
10134TIP3    H230346   0.315   2.685   6.024
10135TIP3   OH230347   0.401   3.086   4.629
10135TIP3    H130348   0.344   3.025   4.675
10135TIP3    H230349   0.344   3.157   4.601
10136TIP3   OH230350   2.951   3.134   5.939
10136TIP3    H130351   3.038   3.093   5.948
10136TIP3    H230352   2.924   3.153   6.029
10137TIP3   OH230353   7.270   3.878   4.206
10137TIP3    H130354   7.211   3.896   4.279
10137TIP3    H230355   7.297   3.787   4.219
10138TIP3   OH230356   3.033   4.045   3.970
10138TIP3    H130357   3.091   3.971   3.955
10138TIP3    H230358   3.005   4.036   4.061
10139TIP3   OH230359   2.119   2.847   5.316
10139TIP3    H130360   2.103   2.843   5.410
10139TIP3    H230361   2.198   2.795   5.303
10140TIP3   OH230362   5.930   0.904   5.975
10140TIP3    H130363   5.898   0.981   6.021
10140TIP3    H230364   5.874   0.897   5.897
10141TIP3   OH230365   4.959   5.750   3.618
10141TIP3    H130366   5.038   5.744   3.564
10141TIP3    H230367   4.971   5.684   3.686
10142TIP3   OH230368   5.049   2.305   1.352
10142TIP3    H130369   5.104   2.274   1.424
10142TIP3    H230370   4.963   2.319   1.392
10143TIP3   OH230371   5.502   7.573   2.901
10143TIP3    H130372   5.425   7.613   2.859
10143TIP3    H230373   5.473   7.552   2.989
10144TIP3   OH230374   5.750   1.885   5.041
10144TIP3    H130375   5.683   1.939   5.084
10144TIP3    H230376   5.725   1.795   5.060
10145TIP3   OH230377   3.905   1.107   6.284
10145TIP3    H130378   3.900   1.019   6.247
10145TIP3    H230379   3.975   1.150   6.233
10146TIP3   OH230380   8.153   6.230   1.358
10146TIP3    H130381   8.087   6.282   1.313
10146TIP3    H230382   8.116   6.213   1.444
10147TIP3   OH230383   3.067   3.502   2.786
10147TIP3    H130384   3.110   3.416   2.785
10147TIP3    H230385   3.053   3.522   2.693
10148TIP3   OH230386   1.084   4.328   2.226
10148TIP3    H130387   1.176   4.347   2.245
10148TIP3    H230388   1.082   4.235   2.203
10149TIP3   OH230389   8.106   6.175   6.790
10149TIP3    H130390   8.117   6.201   6.699
10149TIP3    H230391   8.183   6.122   6.810
10150TIP3   OH230392   4.510   2.425   0.622
10150TIP3    H130393   4.497   2.467   0.707
10150TIP3    H230394   4.602   2.400   0.621
10151TIP3   OH230395   7.724   3.809   5.257
10151TIP3    H130396   7.635   3.791   5.286
10151TIP3    H230397   7.780   3.775   5.328
10152TIP3   OH230398   5.260   4.104   3.328
10152TIP3    H130399   5.216   4.096   3.413
10152TIP3    H230400   5.335   4.045   3.335
10153TIP3   OH230401   2.119   0.947   6.747
10153TIP3    H130402   2.088   0.856   6.747
10153TIP3    H230403   2.043   0.998   6.719
10154TIP3   OH230404   3.344   2.222   4.996
10154TIP3    H130405   3.376   2.161   4.929
10154TIP3    H230406   3.252   2.234   4.974
10155TIP3   OH230407   7.123   5.988   1.484
10155TIP3    H130408   7.039   5.970   1.525
10155TIP3    H230409   7.186   5.987   1.556
10156TIP3   OH230410   6.689   6.041   3.253
10156TIP3    H130411   6.729   5.973   3.307
10156TIP3    H230412   6.648   6.101   3.315
10157TIP3   OH230413   3.966   7.146   3.322
10157TIP3    H130414   4.050   7.102   3.306
10157TIP3    H230415   3.989   7.238   3.336
10158TIP3   OH230416   7.664   6.607   1.916
10158TIP3    H130417   7.726   6.597   1.989
10158TIP3    H230418   7.584   6.564   1.947
10159TIP3   OH230419   2.827   5.822   2.286
10159TIP3    H130420   2.829   5.729   2.308
10159TIP3    H230421   2.838   5.824   2.191
10160TIP3   OH230422   4.701   7.151   4.562
10160TIP3    H130423   4.612   7.169   4.529
10160TIP3    H230424   4.722   7.064   4.527
10161TIP3   OH230425   3.180   6.541   3.628
10161TIP3    H130426   3.190   6.446   3.619
10161TIP3    H230427   3.148   6.552   3.718
10162TIP3   OH230428   7.084   6.229   5.476
10162TIP3    H130429   7.008   6.287   5.481
10162TIP3    H230430   7.097   6.200   5.566
10163TIP3   OH230431   6.052   0.835   0.639
10163TIP3    H130432   6.087   0.915   0.599
10163TIP3    H230433   5.997   0.865   0.711
10164TIP3   OH230434   5.858   0.346   1.396
10164TIP3    H130435   5.773   0.303   1.388
10164TIP3    H230436   5.885   0.328   1.486
10165TIP3   OH230437   6.454   2.298   1.204
10165TIP3    H130438   6.460   2.282   1.298
10165TIP3    H230439   6.360   2.294   1.185
10166TIP3   OH230440   3.571   4.719   2.835
10166TIP3    H130441   3.598   4.697   2.746
10166TIP3    H230442   3.595   4.642   2.887
10167TIP3   OH230443   2.165   5.895   3.563
10167TIP3    H130444   2.121   5.896   3.648
10167TIP3    H230445   2.096   5.917   3.500
10168TIP3   OH230446   0.857   0.862   6.463
10168TIP3    H130447   0.814   0.944   6.486
10168TIP3    H230448   0.838   0.803   6.536
10169TIP3   OH230449   8.087   7.322   0.187
10169TIP3    H130450   8.122   7.234   0.203
10169TIP3    H230451   7.992   7.309   0.183
10170TIP3   OH230452   4.094   3.218   3.961
10170TIP3    H130453   4.120   3.138   4.007
10170TIP3    H230454   4.010   3.242   4.000
10171TIP3   OH230455   2.939   1.773   0.913
10171TIP3    H130456   3.014   1.803   0.862
10171TIP3    H230457   2.937   1.833   0.988
10172TIP3   OH230458   0.563   6.465   6.248
10172TIP3    H130459   0.555   6.379   6.207
10172TIP3    H230460   0.572   6.447   6.341
10173TIP3   OH230461   2.780   6.935   1.173
10173TIP3    H130462   2.709   6.990   1.140
10173TIP3    H230463   2.835   6.994   1.224
10174TIP3   OH230464   5.056   6.285   2.088
10174TIP3    H130465   5.080   6.213   2.030
10174TIP3    H230466   4.964   6.302   2.068
10175TIP3   OH230467   4.057   5.750   5.917
10175TIP3    H130468   3.991   5.774   5.851
10175TIP3    H230469   4.131   5.809   5.899
10176TIP3   OH230470   2.256   1.774   5.724
10176TIP3    H130471   2.171   1.733   5.738
10176TIP3    H230472   2.270   1.827   5.802
10177TIP3   OH230473   4.498   1.229   4.169
10177TIP3    H130474   4.427   1.291   4.157
10177TIP3    H230475   4.552   1.268   4.238
10178TIP3   OH230476   3.856   1.991   6.718
10178TIP3    H130477   3.898   1.929   6.778
10178TIP3    H230478   3.798   2.043   6.775
10179TIP3   OH230479   5.721   5.228   3.979
10179TIP3    H130480   5.631   5.204   3.958
10179TIP3    H230481   5.725   5.322   3.962
10180TIP3   OH230482   5.895   7.705   4.347
10180TIP3    H130483   5.923   7.795   4.330
10180TIP3    H230484   5.955   7.650   4.297
10181TIP3   OH230485   0.874   0.250   1.068
10181TIP3    H130486   0.860   0.340   1.038
10181TIP3    H230487   0.815   0.239   1.142
10182TIP3   OH230488   5.536   5.882   1.241
10182TIP3    H130489   5.581   5.844   1.318
10182TIP3    H230490   5.590   5.856   1.167
10183TIP3   OH230491   6.181   7.717   1.007
10183TIP3    H130492   6.239   7.733   0.932
10183TIP3    H230493   6.102   7.766   0.986
10184TIP3   OH230494   2.648   0.496   2.498
10184TIP3    H130495   2.580   0.530   2.439
10184TIP3    H230496   2.726   0.548   2.478
10185TIP3   OH230497   5.254   0.741   4.909
10185TIP3    H130498   5.277   0.728   5.000
10185TIP3    H230499   5.158   0.738   4.907
10186TIP3   OH230500   7.222   5.705   1.483
10186TIP3    H130501   7.268   5.789   1.470
10186TIP3    H230502   7.267   5.645   1.424
10187TIP3   OH230503   0.809   6.905   4.709
10187TIP3    H130504   0.808   6.991   4.667
10187TIP3    H230505   0.861   6.918   4.789
10188TIP3   OH230506   1.253   5.860   0.754
10188TIP3    H130507   1.237   5.769   0.778
10188TIP3    H230508   1.334   5.882   0.800
10189TIP3   OH230509   0.905   3.283   2.178
10189TIP3    H130510   0.971   3.214   2.171
10189TIP3    H230511   0.860   3.281   2.094
10190TIP3   OH230512   1.730   4.225   2.952
10190TIP3    H130513   1.675   4.170   2.897
10190TIP3    H230514   1.681   4.236   3.033
10191TIP3   OH230515   0.712   3.685   1.669
10191TIP3    H130516   0.714   3.728   1.583
10191TIP3    H230517   0.710   3.592   1.649
10192TIP3   OH230518   2.626   7.050   4.420
10192TIP3    H130519   2.698   7.109   4.444
10192TIP3    H230520   2.646   6.968   4.465
10193TIP3   OH230521   7.367   2.095   1.009
10193TIP3    H130522   7.442   2.120   0.954
10193TIP3    H230523   7.336   2.013   0.971
10194TIP3   OH230524   5.774   2.307   2.101
10194TIP3    H130525   5.737   2.218   2.103
10194TIP3    H230526   5.787   2.325   2.008
10195TIP3   OH230527   6.632   4.826   2.350
10195TIP3    H130528   6.566   4.846   2.284
10195TIP3    H230529   6.692   4.766   2.307
10196TIP3   OH230530   1.259   4.699   0.229
10196TIP3    H130531   1.222   4.618   0.264
10196TIP3    H230532   1.347   4.674   0.201
10197TIP3   OH230533   5.835   5.028   6.312
10197TIP3    H130534   5.925   5.018   6.282
10197TIP3    H230535   5.819   4.952   6.367
10198TIP3   OH230536   1.707   2.049   2.087
10198TIP3    H130537   1.796   2.037   2.121
10198TIP3    H230538   1.712   2.127   2.033
10199TIP3   OH230539   2.406   3.388   6.545
10199TIP3    H130540   2.398   3.295   6.526
10199TIP3    H230541   2.338   3.430   6.493
10200TIP3   OH230542   5.942   0.657   2.226
10200TIP3    H130543   5.887   0.601   2.282
10200TIP3    H230544   5.892   0.738   2.218
10201TIP3   OH230545   6.388   6.247   6.465
10201TIP3    H130546   6.356   6.192   6.537
10201TIP3    H230547   6.426   6.324   6.508
10202TIP3   OH230548   3.940   4.812   0.143
10202TIP3    H130549   3.940   4.827   0.049
10202TIP3    H230550   3.862   4.858   0.175
10203TIP3   OH230551   1.805   5.607   3.597
10203TIP3    H130552   1.744   5.536   3.575
10203TIP3    H230553   1.886   5.585   3.549
10204TIP3   OH230554   7.384   3.024   4.849
10204TIP3    H130555   7.355   2.933   4.840
10204TIP3    H230556   7.342   3.070   4.776
10205TIP3   OH230557   8.282   0.037   4.787
10205TIP3    H130558   8.258   0.041   4.879
10205TIP3    H230559   8.325  -0.048   4.777
10206TIP3   OH230560   2.712   0.351   0.533
10206TIP3    H130561   2.739   0.392   0.615
10206TIP3    H230562   2.710   0.423   0.470
10207TIP3   OH230563   2.919   4.413   3.288
10207TIP3    H130564   3.007   4.378   3.299
10207TIP3    H230565   2.884   4.419   3.377
10208TIP3   OH230566   7.851   3.547   0.442
10208TIP3    H130567   7.872   3.537   0.535
10208TIP3    H230568   7.894   3.472   0.400
10209TIP3   OH230569   6.349   3.459   5.701
10209TIP3    H130570   6.264   3.452   5.745
10209TIP3    H230571   6.413   3.464   5.773
10210TIP3   OH230572   7.693   3.091   2.599
10210TIP3    H130573   7.733   3.122   2.517
10210TIP3    H230574   7.753   3.121   2.667
10211TIP3   OH230575   2.190   1.444   2.051
10211TIP3    H130576   2.096   1.436   2.035
10211TIP3    H230577   2.231   1.412   1.971
10212TIP3   OH230578   2.319   1.674   1.450
10212TIP3    H130579   2.388   1.613   1.477
10212TIP3    H230580   2.254   1.669   1.520
10213TIP3   OH230581   6.324   7.714   4.683
10213TIP3    H130582   6.347   7.645   4.746
10213TIP3    H230583   6.327   7.795   4.734
10214TIP3   OH230584   4.799   3.735   0.977
10214TIP3    H130585   4.870   3.719   1.039
10214TIP3    H230586   4.720   3.713   1.026
10215TIP3   OH230587   5.186   3.100   4.669
10215TIP3    H130588   5.273   3.139   4.683
10215TIP3    H230589   5.186   3.021   4.722
10216TIP3   OH230590   0.258   1.965   2.350
10216TIP3    H130591   0.330   2.019   2.380
10216TIP3    H230592   0.180   2.020   2.360
10217TIP3   OH230593   2.258   4.181   5.879
10217TIP3    H130594   2.202   4.191   5.802
10217TIP3    H230595   2.347   4.190   5.845
10218TIP3   OH230596   5.368   2.682   3.521
10218TIP3    H130597   5.301   2.629   3.565
10218TIP3    H230598   5.438   2.621   3.500
10219TIP3   OH230599   3.414   0.403   2.442
10219TIP3    H130600   3.351   0.363   2.502
10219TIP3    H230601   3.484   0.435   2.499
10220TIP3   OH230602   6.987   7.441   5.545
10220TIP3    H130603   7.061   7.383   5.566
10220TIP3    H230604   7.001   7.518   5.599
10221TIP3   OH230605   5.744   7.460   5.132
10221TIP3    H130606   5.674   7.409   5.091
10221TIP3    H230607   5.739   7.545   5.089
10222TIP3   OH230608   5.066   5.735  -0.012
10222TIP3    H130609   5.061   5.701   0.078
10222TIP3    H230610   5.158   5.725  -0.036
10223TIP3   OH230611   0.820   6.379   6.119
10223TIP3    H130612   0.784   6.462   6.150
10223TIP3    H230613   0.744   6.328   6.090
10224TIP3   OH230614   6.384   2.659   0.447
10224TIP3    H130615   6.419   2.652   0.535
10224TIP3    H230616   6.447   2.613   0.392
10225TIP3   OH230617   5.366   3.606   6.103
10225TIP3    H130618   5.361   3.696   6.133
10225TIP3    H230619   5.323   3.606   6.017
10226TIP3   OH230620   2.899   7.246   5.342
10226TIP3    H130621   2.957   7.263   5.416
10226TIP3    H230622   2.854   7.329   5.327
10227TIP3   OH230623   7.674   6.462   2.327
10227TIP3    H130624   7.707   6.401   2.393
10227TIP3    H230625   7.643   6.538   2.378
10228TIP3   OH230626   2.135   0.452   3.926
10228TIP3    H130627   2.086   0.527   3.893
10228TIP3    H230628   2.209   0.491   3.974
10229TIP3   OH230629   0.441   1.559   6.306
10229TIP3    H130630   0.493   1.486   6.272
10229TIP3    H230631   0.506   1.622   6.336
10230TIP3   OH230632   5.037   1.112   4.308
10230TIP3    H130633   5.100   1.118   4.236
10230TIP3    H230634   5.049   1.024   4.344
10231TIP3   OH230635   1.125   5.355   5.348
10231TIP3    H130636   1.148   5.406   5.426
10231TIP3    H230637   1.197   5.371   5.287
10232TIP3   OH230638   3.379   0.036   4.206
10232TIP3    H130639   3.314   0.071   4.145
10232TIP3    H230640   3.435   0.111   4.225
10233TIP3   OH230641   7.317   1.089   0.930
10233TIP3    H130642   7.411   1.100   0.920
10233TIP3    H230643   7.279   1.164   0.884
10234TIP3   OH230644   2.417   0.425   5.165
10234TIP3    H130645   2.345   0.487   5.182
10234TIP3    H230646   2.390   0.344   5.208
10235TIP3   OH230647   3.045   5.317   0.989
10235TIP3    H130648   3.112   5.299   0.924
10235TIP3    H230649   2.964   5.329   0.938
10236TIP3   OH230650   0.799   1.890   0.732
10236TIP3    H130651   0.839   1.809   0.762
10236TIP3    H230652   0.708   1.884   0.761
10237TIP3   OH230653   4.680   3.785   3.130
10237TIP3    H130654   4.670   3.747   3.042
10237TIP3    H230655   4.736   3.723   3.177
10238TIP3   OH230656   2.889   0.484   0.737
10238TIP3    H130657   2.879   0.580   0.737
10238TIP3    H230658   2.837   0.455   0.812
10239TIP3   OH230659   1.108   6.236   4.587
10239TIP3    H130660   1.060   6.182   4.649
10239TIP3    H230661   1.199   6.208   4.595
10240TIP3   OH230662   7.896   4.265   6.098
10240TIP3    H130663   7.846   4.275   6.179
10240TIP3    H230664   7.988   4.264   6.126
10241TIP3   OH230665   3.162   3.263   2.883
10241TIP3    H130666   3.172   3.186   2.940
10241TIP3    H230667   3.132   3.227   2.800
10242TIP3   OH230668   7.618   4.012   3.297
10242TIP3    H130669   7.612   3.916   3.302
10242TIP3    H230670   7.663   4.028   3.214
10243TIP3   OH230671   3.732   0.104   0.658
10243TIP3    H130672   3.768   0.069   0.740
10243TIP3    H230673   3.637   0.098   0.669
10244TIP3   OH230674   1.850   6.243   5.918
10244TIP3    H130675   1.919   6.310   5.912
10244TIP3    H230676   1.814   6.254   6.006
10245TIP3   OH230677   3.003   5.220   0.541
10245TIP3    H130678   3.092   5.255   0.542
10245TIP3    H230679   2.997   5.166   0.619
10246TIP3   OH230680   7.271   0.346   2.821
10246TIP3    H130681   7.319   0.367   2.741
10246TIP3    H230682   7.332   0.368   2.892
10247TIP3   OH230683   3.834   3.509   4.083
10247TIP3    H130684   3.750   3.535   4.121
10247TIP3    H230685   3.845   3.418   4.107
10248TIP3   OH230686   2.910   7.802   2.073
10248TIP3    H130687   2.998   7.772   2.052
10248TIP3    H230688   2.855   7.724   2.063
10249TIP3   OH230689   2.618   0.590   4.559
10249TIP3    H130690   2.675   0.664   4.584
10249TIP3    H230691   2.570   0.569   4.639
10250TIP3   OH230692   5.372   0.277   2.124
10250TIP3    H130693   5.344   0.196   2.166
10250TIP3    H230694   5.311   0.289   2.051
10251TIP3   OH230695   2.532   6.801   4.912
10251TIP3    H130696   2.525   6.725   4.970
10251TIP3    H230697   2.610   6.847   4.943
10252TIP3   OH230698   4.415   1.828   3.834
10252TIP3    H130699   4.340   1.847   3.778
10252TIP3    H230700   4.414   1.733   3.845
10253TIP3   OH230701   0.436   3.556   6.602
10253TIP3    H130702   0.514   3.612   6.609
10253TIP3    H230703   0.367   3.616   6.573
10254TIP3   OH230704   3.156   2.946   0.358
10254TIP3    H130705   3.212   3.023   0.345
10254TIP3    H230706   3.112   2.934   0.273
10255TIP3   OH230707   5.797   5.553   2.285
10255TIP3    H130708   5.766   5.476   2.236
10255TIP3    H230709   5.789   5.625   2.222
10256TIP3   OH230710   3.644   1.150   0.857
10256TIP3    H130711   3.712   1.109   0.911
10256TIP3    H230712   3.562   1.126   0.900
10257TIP3   OH230713   1.966   0.338   1.356
10257TIP3    H130714   2.050   0.374   1.385
10257TIP3    H230715   1.983   0.303   1.269
10258TIP3   OH230716   1.181   6.999   5.878
10258TIP3    H130717   1.215   6.947   5.951
10258TIP3    H230718   1.160   6.934   5.811
10259TIP3   OH230719   7.616   6.971   5.349
10259TIP3    H130720   7.612   6.879   5.322
10259TIP3    H230721   7.690   7.007   5.299
10260TIP3   OH230722   1.879   4.310   4.317
10260TIP3    H130723   1.926   4.324   4.235
10260TIP3    H230724   1.799   4.263   4.292
10261TIP3   OH230725   3.207   7.035   6.033
10261TIP3    H130726   3.157   7.052   5.954
10261TIP3    H230727   3.275   7.103   6.034
10262TIP3   OH230728   0.229   7.823   2.961
10262TIP3    H130729   0.228   7.728   2.949
10262TIP3    H230730   0.321   7.846   2.966
10263TIP3   OH230731   6.191   4.730   6.608
10263TIP3    H130732   6.131   4.788   6.655
10263TIP3    H230733   6.254   4.701   6.675
10264TIP3   OH230734   0.368   1.490   0.788
10264TIP3    H130735   0.276   1.504   0.809
10264TIP3    H230736   0.416   1.522   0.864
10265TIP3   OH230737   0.991   1.577   1.622
10265TIP3    H130738   0.907   1.537   1.642
10265TIP3    H230739   0.980   1.614   1.535
10266TIP3   OH230740   2.982   2.478   6.228
10266TIP3    H130741   3.048   2.538   6.193
10266TIP3    H230742   2.907   2.489   6.170
10267TIP3   OH230743   2.126   3.176   0.409
10267TIP3    H130744   2.177   3.249   0.372
10267TIP3    H230745   2.043   3.180   0.361
10268TIP3   OH230746   6.330   0.890   4.065
10268TIP3    H130747   6.373   0.804   4.060
10268TIP3    H230748   6.246   0.877   4.021
10269TIP3   OH230749   5.046   7.127   2.227
10269TIP3    H130750   4.963   7.081   2.239
10269TIP3    H230751   5.054   7.138   2.132
10270TIP3   OH230752   4.485   5.902   3.970
10270TIP3    H130753   4.504   5.884   3.878
10270TIP3    H230754   4.552   5.855   4.019
10271TIP3   OH230755   7.805   5.859   4.057
10271TIP3    H130756   7.764   5.944   4.046
10271TIP3    H230757   7.899   5.877   4.056
10272TIP3   OH230758   6.998   1.412   4.245
10272TIP3    H130759   7.022   1.348   4.312
10272TIP3    H230760   6.904   1.398   4.232
10273TIP3   OH230761   4.587   4.709   1.534
10273TIP3    H130762   4.575   4.676   1.445
10273TIP3    H230763   4.672   4.675   1.561
10274TIP3   OH230764   2.123   3.164   4.698
10274TIP3    H130765   2.118   3.126   4.611
10274TIP3    H230766   2.059   3.116   4.750
10275TIP3   OH230767   2.680   0.425   5.646
10275TIP3    H130768   2.641   0.354   5.698
10275TIP3    H230769   2.665   0.399   5.555
10276TIP3   OH230770   0.316   4.248   6.144
10276TIP3    H130771   0.391   4.249   6.202
10276TIP3    H230772   0.340   4.188   6.074
10277TIP3   OH230773   3.943   3.683   4.310
10277TIP3    H130774   3.977   3.603   4.271
10277TIP3    H230775   3.889   3.722   4.240
10278TIP3   OH230776   7.827   6.314   2.581
10278TIP3    H130777   7.890   6.354   2.642
10278TIP3    H230778   7.874   6.311   2.497
10279TIP3   OH230779   1.801   6.496   1.325
10279TIP3    H130780   1.825   6.492   1.232
10279TIP3    H230781   1.819   6.587   1.350
10280TIP3   OH230782   7.710   6.488   0.549
10280TIP3    H130783   7.707   6.512   0.456
10280TIP3    H230784   7.628   6.521   0.585
10281TIP3   OH230785   2.560   2.465   5.077
10281TIP3    H130786   2.636   2.409   5.065
10281TIP3    H230787   2.596   2.552   5.094
10282TIP3   OH230788   2.956   2.617   3.560
10282TIP3    H130789   2.998   2.642   3.478
10282TIP3    H230790   2.879   2.674   3.567
10283TIP3   OH230791   6.470   3.268   3.497
10283TIP3    H130792   6.516   3.192   3.533
10283TIP3    H230793   6.538   3.321   3.457
10284TIP3   OH230794   7.049   1.712   5.975
10284TIP3    H130795   7.039   1.626   6.014
10284TIP3    H230796   7.061   1.695   5.881
10285TIP3   OH230797   4.705   4.932   1.054
10285TIP3    H130798   4.688   5.002   1.117
10285TIP3    H230799   4.800   4.924   1.052
10286TIP3   OH230800   0.207   2.442   6.754
10286TIP3    H130801   0.220   2.471   6.845
10286TIP3    H230802   0.113   2.448   6.740
10287TIP3   OH230803   2.464   1.475   1.850
10287TIP3    H130804   2.535   1.413   1.868
10287TIP3    H230805   2.471   1.540   1.921
10288TIP3   OH230806   7.549   7.377   5.029
10288TIP3    H130807   7.552   7.347   5.120
10288TIP3    H230808   7.639   7.398   5.007
10289TIP3   OH230809   4.474   0.584   0.449
10289TIP3    H130810   4.567   0.589   0.429
10289TIP3    H230811   4.431   0.631   0.377
10290TIP3   OH230812   6.337   6.007   1.679
10290TIP3    H130813   6.290   5.955   1.744
10290TIP3    H230814   6.289   5.993   1.598
10291TIP3   OH230815   3.008   5.169   0.241
10291TIP3    H130816   3.049   5.095   0.284
10291TIP3    H230817   2.977   5.225   0.312
10292TIP3   OH230818   8.343   2.112   4.707
10292TIP3    H130819   8.330   2.050   4.635
10292TIP3    H230820   8.258   2.113   4.752
10293TIP3   OH230821   4.911   4.963   4.704
10293TIP3    H130822   4.988   4.985   4.651
10293TIP3    H230823   4.900   4.869   4.692
10294TIP3   OH230824   7.915   5.984   3.504
10294TIP3    H130825   7.964   5.988   3.586
10294TIP3    H230826   7.953   5.909   3.458
10295TIP3   OH230827   6.861   3.098   3.446
10295TIP3    H130828   6.864   3.022   3.387
10295TIP3    H230829   6.906   3.069   3.525
10296TIP3   OH230830   0.459   1.911   0.126
10296TIP3    H130831   0.395   1.855   0.081
10296TIP3    H230832   0.542   1.866   0.113
10297TIP3   OH230833   0.199   0.058   1.424
10297TIP3    H130834   0.153  -0.004   1.368
10297TIP3    H230835   0.201   0.139   1.374
10298TIP3   OH230836   0.939   5.911   3.453
10298TIP3    H130837   0.847   5.887   3.462
10298TIP3    H230838   0.940   5.980   3.388
10299TIP3   OH230839   0.674   2.143   1.919
10299TIP3    H130840   0.618   2.066   1.907
10299TIP3    H230841   0.724   2.124   1.998
10300TIP3   OH230842   3.815   3.845   4.089
10300TIP3    H130843   3.809   3.814   3.998
10300TIP3    H230844   3.886   3.909   4.088
10301TIP3   OH230845   4.155   2.305   1.320
10301TIP3    H130846   4.178   2.296   1.228
10301TIP3    H230847   4.219   2.367   1.355
10302TIP3   OH230848   6.191   4.105   3.838
10302TIP3    H130849   6.180   4.199   3.846
10302TIP3    H230850   6.275   4.086   3.880
10303TIP3   OH230851   0.599   2.218   5.535
10303TIP3    H130852   0.688   2.240   5.562
10303TIP3    H230853   0.546   2.294   5.561
10304TIP3   OH230854   1.492   4.300   2.639
10304TIP3    H130855   1.483   4.302   2.544
10304TIP3    H230856   1.581   4.331   2.655
10305TIP3   OH230857   6.440   0.744   6.684
10305TIP3    H130858   6.453   0.831   6.720
10305TIP3    H230859   6.507   0.690   6.727
10306TIP3   OH230860   4.473   0.393   3.411
10306TIP3    H130861   4.483   0.299   3.426
10306TIP3    H230862   4.542   0.415   3.348
10307TIP3   OH230863   6.987   0.998   1.080
10307TIP3    H130864   7.029   1.025   0.999
10307TIP3    H230865   6.896   0.980   1.055
10308TIP3   OH230866   5.755   6.383   2.198
10308TIP3    H130867   5.788   6.454   2.253
10308TIP3    H230868   5.809   6.386   2.119
10309TIP3   OH230869   2.193   3.622   6.048
10309TIP3    H130870   2.200   3.636   6.142
10309TIP3    H230871   2.120   3.561   6.038
10310TIP3   OH230872   7.520   4.177   5.232
10310TIP3    H130873   7.607   4.154   5.265
10310TIP3    H230874   7.460   4.127   5.288
10311TIP3   OH230875   7.537   1.807   3.048
10311TIP3    H130876   7.567   1.803   2.957
10311TIP3    H230877   7.446   1.775   3.044
10312TIP3   OH230878   3.069   1.580   1.133
10312TIP3    H130879   3.001   1.632   1.176
10312TIP3    H230880   3.107   1.527   1.204
10313TIP3   OH230881   5.746   4.490   4.213
10313TIP3    H130882   5.698   4.561   4.171
10313TIP3    H230883   5.836   4.522   4.221
10314TIP3   OH230884   2.051   1.293   0.632
10314TIP3    H130885   1.993   1.367   0.651
10314TIP3    H230886   2.127   1.306   0.689
10315TIP3   OH230887   1.847   1.777   3.604
10315TIP3    H130888   1.813   1.810   3.687
10315TIP3    H230889   1.937   1.751   3.624
10316TIP3   OH230890   2.564   0.690   3.667
10316TIP3    H130891   2.563   0.612   3.610
10316TIP3    H230892   2.650   0.688   3.708
10317TIP3   OH230893   2.054   5.518   3.450
10317TIP3    H130894   2.132   5.558   3.413
10317TIP3    H230895   2.070   5.424   3.443
10318TIP3   OH230896   5.632   0.642   1.353
10318TIP3    H130897   5.646   0.697   1.430
10318TIP3    H230898   5.599   0.560   1.388
10319TIP3   OH230899   4.035   3.581   1.189
10319TIP3    H130900   4.018   3.500   1.237
10319TIP3    H230901   3.995   3.650   1.243
10320TIP3   OH230902   0.795   0.309   2.748
10320TIP3    H130903   0.882   0.284   2.716
10320TIP3    H230904   0.808   0.328   2.841
10321TIP3   OH230905   4.433   1.386   2.175
10321TIP3    H130906   4.453   1.470   2.134
10321TIP3    H230907   4.513   1.361   2.221
10322TIP3   OH230908   5.753   3.611   5.083
10322TIP3    H130909   5.845   3.591   5.062
10322TIP3    H230910   5.740   3.572   5.169
10323TIP3   OH230911   3.044   4.839   0.840
10323TIP3    H130912   2.990   4.776   0.888
10323TIP3    H230913   3.100   4.786   0.784
10324TIP3   OH230914   5.833   7.867   4.624
10324TIP3    H130915   5.857   7.895   4.712
10324TIP3    H230916   5.862   7.775   4.619
10325TIP3   OH230917   3.638   0.797   3.749
10325TIP3    H130918   3.618   0.780   3.841
10325TIP3    H230919   3.591   0.729   3.701
10326TIP3   OH230920   3.010   2.274   0.241
10326TIP3    H130921   3.011   2.268   0.337
10326TIP3    H230922   3.070   2.346   0.221
10327TIP3   OH230923   5.810   5.115   5.896
10327TIP3    H130924   5.853   5.029   5.890
10327TIP3    H230925   5.717   5.095   5.888
10328TIP3   OH230926   2.421   0.615   2.898
10328TIP3    H130927   2.512   0.617   2.869
10328TIP3    H230928   2.426   0.612   2.994
10329TIP3   OH230929   7.824   6.915   5.541
10329TIP3    H130930   7.757   6.922   5.473
10329TIP3    H230931   7.787   6.854   5.605
10330TIP3   OH230932   0.761   2.692   5.291
10330TIP3    H130933   0.706   2.749   5.237
10330TIP3    H230934   0.734   2.712   5.381
10331TIP3   OH230935   1.469   1.674   1.606
10331TIP3    H130936   1.548   1.624   1.624
10331TIP3    H230937   1.400   1.627   1.652
10332TIP3   OH230938   1.195   0.373   3.121
10332TIP3    H130939   1.195   0.369   3.216
10332TIP3    H230940   1.283   0.343   3.096
10333TIP3   OH230941   2.425   3.616   1.187
10333TIP3    H130942   2.506   3.663   1.209
10333TIP3    H230943   2.427   3.607   1.092
10334TIP3   OH230944   3.772   5.954   4.571
10334TIP3    H130945   3.854   5.907   4.588
10334TIP3    H230946   3.725   5.949   4.653
10335TIP3   OH230947   2.156   5.945   0.824
10335TIP3    H130948   2.216   6.000   0.875
10335TIP3    H230949   2.069   5.975   0.848
10336TIP3   OH230950   2.638   2.575   4.128
10336TIP3    H130951   2.730   2.576   4.153
10336TIP3    H230952   2.624   2.487   4.093
10337TIP3   OH230953   3.422   3.566   2.126
10337TIP3    H130954   3.354   3.606   2.072
10337TIP3    H230955   3.403   3.596   2.215
10338TIP3   OH230956   3.024   0.449   5.353
10338TIP3    H130957   3.082   0.448   5.429
10338TIP3    H230958   3.044   0.532   5.309
10339TIP3   OH230959   3.229   2.482   0.137
10339TIP3    H130960   3.294   2.553   0.142
10339TIP3    H230961   3.146   2.527   0.121
10340TIP3   OH230962   2.636   0.274  -0.008
10340TIP3    H130963   2.594   0.277   0.078
10340TIP3    H230964   2.674   0.361  -0.020
10341TIP3   OH230965   7.102   3.989   5.611
10341TIP3    H130966   7.094   4.077   5.648
10341TIP3    H230967   7.120   4.003   5.518
10342TIP3   OH230968   2.153   3.068   3.776
10342TIP3    H130969   2.078   3.075   3.835
10342TIP3    H230970   2.146   2.981   3.738
10343TIP3   OH230971   3.598   4.975   4.457
10343TIP3    H130972   3.539   4.977   4.381
10343TIP3    H230973   3.591   5.063   4.495
10344TIP3   OH230974   7.822   2.098   0.760
10344TIP3    H130975   7.816   2.013   0.804
10344TIP3    H230976   7.913   2.103   0.731
10345TIP3   OH230977   3.284   0.370   4.440
10345TIP3    H130978   3.287   0.465   4.452
10345TIP3    H230979   3.373   0.341   4.462
10346TIP3   OH230980   3.877   3.639   4.591
10346TIP3    H130981   3.849   3.730   4.606
10346TIP3    H230982   3.858   3.624   4.498
10347TIP3   OH230983   6.917   2.316   3.897
10347TIP3    H130984   6.855   2.244   3.908
10347TIP3    H230985   6.991   2.294   3.953
10348TIP3   OH230986   5.225   5.046   1.371
10348TIP3    H130987   5.218   5.137   1.400
10348TIP3    H230988   5.199   5.048   1.279
10349TIP3   OH230989   1.589   3.193   0.362
10349TIP3    H130990   1.642   3.268   0.389
10349TIP3    H230991   1.498   3.222   0.376
10350TIP3   OH230992   7.322   7.225   6.296
10350TIP3    H130993   7.358   7.307   6.261
10350TIP3    H230994   7.399   7.168   6.308
10351TIP3   OH230995   0.642   3.841   2.337
10351TIP3    H130996   0.660   3.832   2.244
10351TIP3    H230997   0.552   3.874   2.341
10352TIP3   OH230998   1.324   3.292   5.323
10352TIP3    H130999   1.294   3.231   5.391
10352TIP3    H231000   1.289   3.256   5.241
10353TIP3   OH231001   4.915   3.651   2.921
10353TIP3    H131002   4.939   3.712   2.991
10353TIP3    H231003   4.988   3.589   2.918
10354TIP3   OH231004   5.281   2.190   0.287
10354TIP3    H131005   5.302   2.176   0.195
10354TIP3    H231006   5.325   2.273   0.309
10355TIP3   OH231007   4.271   0.746   4.805
10355TIP3    H131008   4.358   0.778   4.781
10355TIP3    H231009   4.240   0.807   4.872
10356TIP3   OH231010   1.859   5.944   4.249
10356TIP3    H131011   1.826   5.920   4.162
10356TIP3    H231012   1.796   5.905   4.310
10357TIP3   OH231013   3.401   1.004   5.795
10357TIP3    H131014   3.341   1.074   5.768
10357TIP3    H231015   3.482   1.050   5.819
10358TIP3   OH231016   4.763   5.567   1.685
10358TIP3    H131017   4.850   5.529   1.674
10358TIP3    H231018   4.741   5.603   1.599
10359TIP3   OH231019   0.153   6.488   0.751
10359TIP3    H131020   0.211   6.467   0.825
10359TIP3    H231021   0.065   6.467   0.783
10360TIP3   OH231022   0.023   6.508   1.992
10360TIP3    H131023  -0.035   6.566   2.041
10360TIP3    H231024   0.105   6.557   1.984
10361TIP3   OH231025   7.530   0.667   4.803
10361TIP3    H131026   7.532   0.700   4.714
10361TIP3    H231027   7.443   0.628   4.812
10362TIP3   OH231028   8.154   6.193   6.451
10362TIP3    H131029   8.092   6.140   6.400
10362TIP3    H231030   8.107   6.274   6.469
10363TIP3   OH231031   0.995   4.952   5.870
10363TIP3    H131032   1.071   4.914   5.914
10363TIP3    H231033   0.935   4.879   5.858
10364TIP3   OH231034   2.959   1.138   6.163
10364TIP3    H131035   2.943   1.044   6.178
10364TIP3    H231036   3.054   1.143   6.148
10365TIP3   OH231037   6.558   5.411   0.511
10365TIP3    H131038   6.577   5.479   0.446
10365TIP3    H231039   6.509   5.457   0.579
10366TIP3   OH231040   2.726   1.008   3.016
10366TIP3    H131041   2.794   1.070   3.041
10366TIP3    H231042   2.676   1.053   2.948
10367TIP3   OH231043   3.256   3.578   4.257
10367TIP3    H131044   3.182   3.612   4.307
10367TIP3    H231045   3.333   3.617   4.300
10368TIP3   OH231046   5.017   4.520   3.873
10368TIP3    H131047   4.973   4.467   3.939
10368TIP3    H231048   4.992   4.480   3.790
10369TIP3   OH231049   2.993   6.657   3.100
10369TIP3    H131050   2.995   6.626   3.009
10369TIP3    H231051   3.083   6.686   3.117
10370TIP3   OH231052   1.990   4.802   6.003
10370TIP3    H131053   1.975   4.751   6.083
10370TIP3    H231054   1.958   4.890   6.024
10371TIP3   OH231055   3.527   5.852   5.769
10371TIP3    H131056   3.497   5.767   5.737
10371TIP3    H231057   3.459   5.913   5.741
10372TIP3   OH231058   2.540   7.400   4.003
10372TIP3    H131059   2.526   7.386   4.097
10372TIP3    H231060   2.629   7.434   3.997
10373TIP3   OH231061   0.145   0.967   1.462
10373TIP3    H131062   0.145   0.937   1.553
10373TIP3    H231063   0.195   1.048   1.463
10374TIP3   OH231064   1.775   5.933   0.422
10374TIP3    H131065   1.692   5.927   0.468
10374TIP3    H231066   1.750   5.942   0.330
10375TIP3   OH231067   5.698   6.519   5.820
10375TIP3    H131068   5.764   6.572   5.776
10375TIP3    H231069   5.622   6.577   5.828
10376TIP3   OH231070   5.697   3.106   3.940
10376TIP3    H131071   5.739   3.058   3.869
10376TIP3    H231072   5.677   3.192   3.902
10377TIP3   OH231073   5.088   7.129   6.386
10377TIP3    H131074   5.124   7.164   6.467
10377TIP3    H231075   5.164   7.095   6.338
10378TIP3   OH231076   0.848   3.348   4.556
10378TIP3    H131077   0.875   3.257   4.556
10378TIP3    H231078   0.762   3.347   4.514
10379TIP3   OH231079   3.608   4.885   4.959
10379TIP3    H131080   3.560   4.807   4.985
10379TIP3    H231081   3.615   4.879   4.864
10380TIP3   OH231082   3.652   5.660   1.472
10380TIP3    H131083   3.609   5.605   1.407
10380TIP3    H231084   3.735   5.685   1.431
10381TIP3   OH231085   6.202   6.489   1.846
10381TIP3    H131086   6.280   6.455   1.889
10381TIP3    H231087   6.157   6.411   1.813
10382TIP3   OH231088   1.436   5.762   0.320
10382TIP3    H131089   1.380   5.798   0.251
10382TIP3    H231090   1.397   5.796   0.401
10383TIP3   OH231091   4.405   5.629   2.791
10383TIP3    H131092   4.377   5.693   2.725
10383TIP3    H231093   4.324   5.599   2.831
10384TIP3   OH231094   5.126   5.866   6.671
10384TIP3    H131095   5.035   5.888   6.689
10384TIP3    H231096   5.167   5.950   6.649
10385TIP3   OH231097   5.121   7.814   3.256
10385TIP3    H131098   5.197   7.774   3.297
10385TIP3    H231099   5.122   7.781   3.166
10386TIP3   OH231100   0.463   0.200   3.199
10386TIP3    H131101   0.438   0.263   3.267
10386TIP3    H231102   0.381   0.155   3.177
10387TIP3   OH231103   6.540   7.282   3.472
10387TIP3    H131104   6.514   7.238   3.391
10387TIP3    H231105   6.494   7.234   3.541
10388TIP3   OH231106   4.478   7.656   3.747
10388TIP3    H131107   4.566   7.651   3.709
10388TIP3    H231108   4.492   7.645   3.841
10389TIP3   OH231109   8.020   1.273   4.333
10389TIP3    H131110   8.029   1.282   4.428
10389TIP3    H231111   8.110   1.263   4.301
10390TIP3   OH231112   1.764   7.450   4.605
10390TIP3    H131113   1.765   7.539   4.569
10390TIP3    H231114   1.797   7.395   4.533
10391TIP3   OH231115   0.951   7.027   3.865
10391TIP3    H131116   0.922   7.055   3.778
10391TIP3    H231117   0.873   6.990   3.906
10392TIP3   OH231118   7.788   4.648   1.519
10392TIP3    H131119   7.759   4.689   1.600
10392TIP3    H231120   7.878   4.621   1.536
10393TIP3   OH231121   7.516   6.095   3.844
10393TIP3    H131122   7.442   6.084   3.903
10393TIP3    H231123   7.550   6.182   3.865
10394TIP3   OH231124   2.661   4.599   3.726
10394TIP3    H131125   2.621   4.634   3.647
10394TIP3    H231126   2.606   4.523   3.748
10395TIP3   OH231127   3.214   2.936   2.838
10395TIP3    H131128   3.238   2.991   2.914
10395TIP3    H231129   3.125   2.907   2.858
10396TIP3   OH231130   5.945   3.182   5.580
10396TIP3    H131131   5.972   3.092   5.596
10396TIP3    H231132   5.987   3.205   5.497
10397TIP3   OH231133   3.727   0.602   1.739
10397TIP3    H131134   3.754   0.575   1.826
10397TIP3    H231135   3.808   0.624   1.694
10398TIP3   OH231136   8.080   1.958   3.787
10398TIP3    H131137   7.991   1.937   3.759
10398TIP3    H231138   8.134   1.888   3.751
10399TIP3   OH231139   3.633   2.549   4.335
10399TIP3    H131140   3.589   2.465   4.323
10399TIP3    H231141   3.562   2.613   4.339
10400TIP3   OH231142   1.459   1.011   1.637
10400TIP3    H131143   1.532   0.954   1.616
10400TIP3    H231144   1.496   1.099   1.637
10401TIP3   OH231145   4.241   3.803   3.875
10401TIP3    H131146   4.192   3.723   3.891
10401TIP3    H231147   4.312   3.777   3.816
10402TIP3   OH231148   2.692   2.315   2.611
10402TIP3    H131149   2.681   2.223   2.587
10402TIP3    H231150   2.787   2.329   2.608
10403TIP3   OH231151   0.484   7.556   5.337
10403TIP3    H131152   0.494   7.461   5.341
10403TIP3    H231153   0.564   7.586   5.293
10404TIP3   OH231154   4.630   0.053   1.126
10404TIP3    H131155   4.643   0.145   1.101
10404TIP3    H231156   4.572   0.057   1.202
10405TIP3   OH231157   5.150   5.529   2.929
10405TIP3    H131158   5.066   5.576   2.930
10405TIP3    H231159   5.161   5.501   2.838
10406TIP3   OH231160   1.878   6.774   6.586
10406TIP3    H131161   1.972   6.794   6.586
10406TIP3    H231162   1.837   6.853   6.553
10407TIP3   OH231163   1.965   1.388   5.649
10407TIP3    H131164   1.950   1.294   5.639
10407TIP3    H231165   1.996   1.398   5.739
10408TIP3   OH231166   3.601   5.572   0.790
10408TIP3    H131167   3.696   5.584   0.799
10408TIP3    H231168   3.576   5.632   0.720
10409TIP3   OH231169   6.098   6.813   5.510
10409TIP3    H131170   6.064   6.892   5.467
10409TIP3    H231171   6.172   6.844   5.561
10410TIP3   OH231172   4.957   5.477   3.272
10410TIP3    H131173   4.929   5.524   3.193
10410TIP3    H231174   4.981   5.546   3.334
10411TIP3   OH231175   5.531   5.741   6.318
10411TIP3    H131176   5.452   5.729   6.266
10411TIP3    H231177   5.554   5.653   6.348
10412TIP3   OH231178   5.300   0.115   4.650
10412TIP3    H131179   5.361   0.183   4.677
10412TIP3    H231180   5.311   0.045   4.715
10413TIP3   OH231181   6.511   4.232   4.951
10413TIP3    H131182   6.571   4.160   4.932
10413TIP3    H231183   6.534   4.301   4.889
10414TIP3   OH231184   6.918   5.675   4.590
10414TIP3    H131185   6.853   5.703   4.655
10414TIP3    H231186   6.959   5.598   4.628
10415TIP3   OH231187   4.927   1.884   6.393
10415TIP3    H131188   4.990   1.943   6.435
10415TIP3    H231189   4.914   1.814   6.456
10416TIP3   OH231190   3.696   1.724   2.613
10416TIP3    H131191   3.758   1.690   2.549
10416TIP3    H231192   3.730   1.810   2.636
10417TIP3   OH231193   1.127   1.939   6.615
10417TIP3    H131194   1.151   1.984   6.696
10417TIP3    H231195   1.053   1.882   6.640
10418TIP3   OH231196   6.125   4.416   0.296
10418TIP3    H131197   6.032   4.397   0.294
10418TIP3    H231198   6.142   4.466   0.216
10419TIP3   OH231199   6.014   2.238   2.244
10419TIP3    H131200   5.931   2.263   2.203
10419TIP3    H231201   6.002   2.258   2.337
10420TIP3   OH231202   6.906   2.630   2.129
10420TIP3    H131203   6.966   2.672   2.190
10420TIP3    H231204   6.963   2.581   2.069
10421TIP3   OH231205   6.518   7.249   0.545
10421TIP3    H131206   6.589   7.274   0.604
10421TIP3    H231207   6.439   7.283   0.586
10422TIP3   OH231208   4.970   0.724   3.032
10422TIP3    H131209   4.875   0.713   3.025
10422TIP3    H231210   5.007   0.648   2.988
10423TIP3   OH231211   7.230   3.669   6.180
10423TIP3    H131212   7.233   3.576   6.203
10423TIP3    H231213   7.261   3.714   6.258
10424TIP3   OH231214   6.949   0.246   6.443
10424TIP3    H131215   7.042   0.221   6.441
10424TIP3    H231216   6.941   0.298   6.523
10425TIP3   OH231217   4.447   7.237   6.408
10425TIP3    H131218   4.518   7.198   6.357
10425TIP3    H231219   4.369   7.191   6.378
10426TIP3   OH231220   1.445   2.381   0.762
10426TIP3    H131221   1.514   2.432   0.805
10426TIP3    H231222   1.465   2.290   0.784
10427TIP3   OH231223   7.801   1.926   4.309
10427TIP3    H131224   7.826   2.010   4.348
10427TIP3    H231225   7.817   1.861   4.377
10428TIP3   OH231226   4.009   7.752   4.314
10428TIP3    H131227   3.923   7.714   4.331
10428TIP3    H231228   4.051   7.691   4.253
10429TIP3   OH231229   7.683   0.587   2.451
10429TIP3    H131230   7.691   0.522   2.381
10429TIP3    H231231   7.650   0.665   2.408
10430TIP3   OH231232   2.022   5.924   1.118
10430TIP3    H131233   2.036   6.008   1.074
10430TIP3    H231234   1.938   5.893   1.084
10431TIP3   OH231235   2.531   7.001   2.022
10431TIP3    H131236   2.626   7.006   2.025
10431TIP3    H231237   2.510   7.006   1.929
10432TIP3   OH231238   3.951   1.725   2.765
10432TIP3    H131239   4.019   1.763   2.821
10432TIP3    H231240   3.930   1.641   2.805
10433TIP3   OH231241   3.673   5.515   5.818
10433TIP3    H131242   3.618   5.511   5.897
10433TIP3    H231243   3.613   5.543   5.749
10434TIP3   OH231244   4.321   1.582   2.753
10434TIP3    H131245   4.285   1.523   2.819
10434TIP3    H231246   4.353   1.657   2.803
10435TIP3   OH231247   1.335   2.683   5.178
10435TIP3    H131248   1.363   2.669   5.268
10435TIP3    H231249   1.304   2.597   5.149
10436TIP3   OH231250   5.627   6.791   5.761
10436TIP3    H131251   5.600   6.854   5.827
10436TIP3    H231252   5.566   6.805   5.688
10437TIP3   OH231253   0.783   2.023   3.530
10437TIP3    H131254   0.782   2.012   3.435
10437TIP3    H231255   0.701   2.068   3.551
10438TIP3   OH231256   5.657   3.867   4.080
10438TIP3    H131257   5.595   3.895   4.147
10438TIP3    H231258   5.698   3.948   4.050
10439TIP3   OH231259   0.680   7.335   5.007
10439TIP3    H131260   0.716   7.369   4.925
10439TIP3    H231261   0.637   7.253   4.982
10440TIP3   OH231262   1.780   6.482   6.040
10440TIP3    H131263   1.852   6.532   6.001
10440TIP3    H231264   1.818   6.439   6.116
10441TIP3   OH231265   0.779   4.379   6.432
10441TIP3    H131266   0.758   4.444   6.365
10441TIP3    H231267   0.838   4.317   6.388
10442TIP3   OH231268   0.969   4.228   3.902
10442TIP3    H131269   0.993   4.182   3.983
10442TIP3    H231270   0.898   4.175   3.865
10443TIP3   OH231271   6.993   2.100   5.028
10443TIP3    H131272   6.944   2.155   4.967
10443TIP3    H231273   6.930   2.036   5.059
10444TIP3   OH231274   0.610   4.602   5.401
10444TIP3    H131275   0.610   4.562   5.488
10444TIP3    H231276   0.702   4.602   5.374
10445TIP3   OH231277   3.099   4.931   1.803
10445TIP3    H131278   3.037   4.987   1.850
10445TIP3    H231279   3.055   4.845   1.800
10446TIP3   OH231280   2.002   7.076   2.529
10446TIP3    H131281   2.008   7.103   2.437
10446TIP3    H231282   1.912   7.044   2.539
10447TIP3   OH231283   5.606   2.865   1.462
10447TIP3    H131284   5.585   2.888   1.552
10447TIP3    H231285   5.570   2.778   1.450
10448TIP3   OH231286   5.491   4.858   6.594
10448TIP3    H131287   5.424   4.808   6.640
10448TIP3    H231288   5.452   4.944   6.580
10449TIP3   OH231289   6.391   3.966   4.461
10449TIP3    H131290   6.334   3.932   4.530
10449TIP3    H231291   6.331   4.000   4.395
10450TIP3   OH231292   2.351   0.875   4.409
10450TIP3    H131293   2.409   0.887   4.334
10450TIP3    H231294   2.263   0.893   4.374
10451TIP3   OH231295   0.486   1.327   2.051
10451TIP3    H131296   0.434   1.400   2.084
10451TIP3    H231297   0.460   1.253   2.105
10452TIP3   OH231298   1.734   7.779   5.250
10452TIP3    H131299   1.776   7.828   5.179
10452TIP3    H231300   1.720   7.844   5.319
10453TIP3   OH231301   6.290   0.145   3.388
10453TIP3    H131302   6.237   0.126   3.311
10453TIP3    H231303   6.355   0.074   3.390
10454TIP3   OH231304   0.691   2.161   0.828
10454TIP3    H131305   0.744   2.134   0.753
10454TIP3    H231306   0.702   2.091   0.892
10455TIP3   OH231307   2.910   7.147   0.633
10455TIP3    H131308   2.920   7.206   0.708
10455TIP3    H231309   2.821   7.163   0.601
10456TIP3   OH231310   3.289   5.167   3.885
10456TIP3    H131311   3.343   5.088   3.886
10456TIP3    H231312   3.320   5.218   3.960
10457TIP3   OH231313   5.595   7.220   0.623
10457TIP3    H131314   5.591   7.302   0.671
10457TIP3    H231315   5.648   7.162   0.678
10458TIP3   OH231316   1.740   3.046   3.739
10458TIP3    H131317   1.681   3.063   3.666
10458TIP3    H231318   1.739   2.951   3.749
10459TIP3   OH231319   2.272   6.958   5.048
10459TIP3    H131320   2.288   6.886   5.108
10459TIP3    H231321   2.358   7.001   5.038
10460TIP3   OH231322   7.963   1.031   3.675
10460TIP3    H131323   7.982   1.118   3.638
10460TIP3    H231324   8.029   1.020   3.743
10461TIP3   OH231325   4.320   4.119   0.265
10461TIP3    H131326   4.272   4.202   0.254
10461TIP3    H231327   4.412   4.144   0.257
10462TIP3   OH231328   6.287   0.950   4.833
10462TIP3    H131329   6.259   0.862   4.804
10462TIP3    H231330   6.303   0.997   4.751
10463TIP3   OH231331   5.846   7.198   5.356
10463TIP3    H131332   5.808   7.244   5.281
10463TIP3    H231333   5.876   7.267   5.414
10464TIP3   OH231334   5.263   3.562   1.025
10464TIP3    H131335   5.173   3.595   1.021
10464TIP3    H231336   5.276   3.540   1.117
10465TIP3   OH231337   0.971   2.685   2.513
10465TIP3    H131338   1.052   2.722   2.477
10465TIP3    H231339   0.904   2.750   2.495
10466TIP3   OH231340   4.847   3.447   2.689
10466TIP3    H131341   4.860   3.404   2.604
10466TIP3    H231342   4.913   3.409   2.746
10467TIP3   OH231343   8.297   1.209   0.235
10467TIP3    H131344   8.365   1.238   0.175
10467TIP3    H231345   8.278   1.286   0.290
10468TIP3   OH231346   5.497   2.346   2.316
10468TIP3    H131347   5.584   2.317   2.290
10468TIP3    H231348   5.510   2.390   2.400
10469TIP3   OH231349   6.057   6.633   6.663
10469TIP3    H131350   6.016   6.692   6.727
10469TIP3    H231351   6.132   6.681   6.630
10470TIP3   OH231352   3.963   3.627   0.447
10470TIP3    H131353   3.982   3.721   0.443
10470TIP3    H231354   4.017   3.589   0.378
10471TIP3   OH231355   4.901   4.669   1.340
10471TIP3    H131356   4.963   4.632   1.277
10471TIP3    H231357   4.920   4.623   1.422
10472TIP3   OH231358   1.397   5.952   2.819
10472TIP3    H131359   1.480   5.979   2.781
10472TIP3    H231360   1.391   5.858   2.800
10473TIP3   OH231361   0.498   4.811   4.601
10473TIP3    H131362   0.508   4.732   4.654
10473TIP3    H231363   0.442   4.785   4.528
10474TIP3   OH231364   6.435   4.162   5.213
10474TIP3    H131365   6.339   4.166   5.203
10474TIP3    H231366   6.468   4.158   5.124
10475TIP3   OH231367   3.644   0.876   1.695
10475TIP3    H131368   3.664   0.784   1.713
10475TIP3    H231369   3.551   0.877   1.673
10476TIP3   OH231370   7.623   3.167   0.520
10476TIP3    H131371   7.689   3.098   0.526
10476TIP3    H231372   7.564   3.137   0.451
10477TIP3   OH231373   3.512   2.963   1.356
10477TIP3    H131374   3.545   3.049   1.328
10477TIP3    H231375   3.548   2.952   1.445
10478TIP3   OH231376   6.181   2.372   2.923
10478TIP3    H131377   6.268   2.331   2.916
10478TIP3    H231378   6.123   2.311   2.877
10479TIP3   OH231379   1.024   4.499   1.526
10479TIP3    H131380   0.982   4.451   1.454
10479TIP3    H231381   0.966   4.483   1.601
10480TIP3   OH231382   3.477   5.592   3.346
10480TIP3    H131383   3.476   5.576   3.252
10480TIP3    H231384   3.476   5.505   3.386
10481TIP3   OH231385   0.948   6.933   3.531
10481TIP3    H131386   1.027   6.912   3.581
10481TIP3    H231387   0.966   7.019   3.493
10482TIP3   OH231388   0.204   2.641   0.773
10482TIP3    H131389   0.183   2.625   0.865
10482TIP3    H231390   0.122   2.627   0.727
10483TIP3   OH231391   7.636   3.640   6.788
10483TIP3    H131392   7.719   3.628   6.742
10483TIP3    H231393   7.619   3.734   6.781
10484TIP3   OH231394   3.126   4.577   6.699
10484TIP3    H131395   3.055   4.514   6.712
10484TIP3    H231396   3.147   4.608   6.787
10485TIP3   OH231397   5.514   3.532   6.672
10485TIP3    H131398   5.561   3.452   6.650
10485TIP3    H231399   5.442   3.536   6.609
10486TIP3   OH231400   7.243   5.392   6.474
10486TIP3    H131401   7.310   5.374   6.409
10486TIP3    H231402   7.240   5.488   6.479
10487TIP3   OH231403   0.304   3.850   2.044
10487TIP3    H131404   0.265   3.791   1.979
10487TIP3    H231405   0.395   3.858   2.017
10488TIP3   OH231406   4.792   6.261   4.492
10488TIP3    H131407   4.858   6.329   4.481
10488TIP3    H231408   4.766   6.239   4.402
10489TIP3   OH231409   4.752   7.593   3.739
10489TIP3    H131410   4.844   7.601   3.761
10489TIP3    H231411   4.729   7.503   3.762
10490TIP3   OH231412   5.323   4.687   2.498
10490TIP3    H131413   5.296   4.630   2.571
10490TIP3    H231414   5.412   4.714   2.520
10491TIP3   OH231415   3.513   7.052   5.279
10491TIP3    H131416   3.444   7.080   5.340
10491TIP3    H231417   3.576   7.124   5.280
10492TIP3   OH231418   2.044   1.833   2.863
10492TIP3    H131419   2.108   1.764   2.881
10492TIP3    H231420   1.974   1.788   2.815
10493TIP3   OH231421   3.508   5.636   0.259
10493TIP3    H131422   3.479   5.609   0.171
10493TIP3    H231423   3.432   5.682   0.295
10494TIP3   OH231424   6.826   7.343   2.677
10494TIP3    H131425   6.783   7.400   2.614
10494TIP3    H231426   6.919   7.357   2.663
10495TIP3   OH231427   7.909   6.488   5.264
10495TIP3    H131428   7.917   6.509   5.170
10495TIP3    H231429   7.827   6.441   5.271
10496TIP3   OH231430   3.200   7.592   4.382
10496TIP3    H131431   3.164   7.557   4.300
10496TIP3    H231432   3.188   7.687   4.374
10497TIP3   OH231433   6.773   6.058   5.491
10497TIP3    H131434   6.697   6.033   5.543
10497TIP3    H231435   6.827   5.979   5.487
10498TIP3   OH231436   5.872   5.702   5.397
10498TIP3    H131437   5.814   5.768   5.435
10498TIP3    H231438   5.911   5.658   5.472
10499TIP3   OH231439   0.661   3.089   6.725
10499TIP3    H131440   0.663   3.179   6.757
10499TIP3    H231441   0.675   3.036   6.803
10500TIP3   OH231442   7.717   6.318   0.768
10500TIP3    H131443   7.638   6.262   0.771
10500TIP3    H231444   7.721   6.349   0.678
10501TIP3   OH231445   5.256   2.440   3.299
10501TIP3    H131446   5.305   2.396   3.368
10501TIP3    H231447   5.199   2.372   3.263
10502TIP3   OH231448   1.116   0.993   6.661
10502TIP3    H131449   1.048   0.930   6.639
10502TIP3    H231450   1.186   0.975   6.598
10503TIP3   OH231451   4.925   5.082   5.206
10503TIP3    H131452   4.915   5.004   5.150
10503TIP3    H231453   4.922   5.155   5.144
10504TIP3   OH231454   2.129   1.721   3.516
10504TIP3    H131455   2.068   1.744   3.446
10504TIP3    H231456   2.202   1.782   3.505
10505TIP3   OH231457   0.408   0.365   3.412
10505TIP3    H131458   0.409   0.458   3.389
10505TIP3    H231459   0.382   0.363   3.504
10506TIP3   OH231460   7.356   5.540   4.042
10506TIP3    H131461   7.331   5.462   3.993
10506TIP3    H231462   7.360   5.609   3.976
10507TIP3   OH231463   2.981   1.137   3.031
10507TIP3    H131464   2.951   1.200   2.965
10507TIP3    H231465   3.018   1.191   3.100
10508TIP3   OH231466   4.125   6.355   1.862
10508TIP3    H131467   4.109   6.385   1.952
10508TIP3    H231468   4.218   6.334   1.860
10509TIP3   OH231469   7.712   6.428   2.971
10509TIP3    H131470   7.696   6.506   3.024
10509TIP3    H231471   7.799   6.442   2.935
10510TIP3   OH231472   2.895   0.063   4.239
10510TIP3    H131473   2.951   0.034   4.167
10510TIP3    H231474   2.945   0.131   4.283
10511TIP3   OH231475   0.652   1.941   6.671
10511TIP3    H131476   0.591   1.881   6.713
10511TIP3    H231477   0.733   1.931   6.722
10512TIP3   OH231478   6.863   0.423   3.876
10512TIP3    H131479   6.944   0.437   3.925
10512TIP3    H231480   6.860   0.494   3.812
10513TIP3   OH231481   4.184   3.431   5.874
10513TIP3    H131482   4.206   3.348   5.831
10513TIP3    H231483   4.092   3.422   5.899
10514TIP3   OH231484   2.493   4.800   1.895
10514TIP3    H131485   2.473   4.744   1.970
10514TIP3    H231486   2.585   4.821   1.904
10515TIP3   OH231487   5.621   7.077   5.571
10515TIP3    H131488   5.555   7.146   5.570
10515TIP3    H231489   5.692   7.111   5.626
10516TIP3   OH231490   1.097   6.377   4.946
10516TIP3    H131491   1.152   6.342   5.016
10516TIP3    H231492   1.099   6.472   4.959
10517TIP3   OH231493   6.347   6.604   4.094
10517TIP3    H131494   6.405   6.646   4.157
10517TIP3    H231495   6.344   6.665   4.020
10518TIP3   OH231496   1.020   4.132   1.746
10518TIP3    H131497   1.109   4.150   1.716
10518TIP3    H231498   0.983   4.075   1.678
10519TIP3   OH231499   0.344   7.318   4.236
10519TIP3    H131500   0.281   7.290   4.301
10519TIP3    H231501   0.353   7.412   4.249
10520TIP3   OH231502   2.597   1.763   2.867
10520TIP3    H131503   2.601   1.781   2.961
10520TIP3    H231504   2.563   1.844   2.829
10521TIP3   OH231505   7.975   5.742   3.382
10521TIP3    H131506   8.064   5.750   3.348
10521TIP3    H231507   7.952   5.651   3.366
10522TIP3   OH231508   2.808   0.182   5.942
10522TIP3    H131509   2.892   0.201   5.984
10522TIP3    H231510   2.830   0.164   5.850
10523TIP3   OH231511   1.281   0.069   2.781
10523TIP3    H131512   1.314   0.005   2.717
10523TIP3    H231513   1.320   0.043   2.864
10524TIP3   OH231514   2.249   5.952   5.428
10524TIP3    H131515   2.260   5.864   5.462
10524TIP3    H231516   2.165   5.951   5.383
10525TIP3   OH231517   7.177   2.833   5.382
10525TIP3    H131518   7.244   2.843   5.315
10525TIP3    H231519   7.188   2.743   5.414
10526TIP3   OH231520   0.472   6.829   5.443
10526TIP3    H131521   0.484   6.787   5.528
10526TIP3    H231522   0.503   6.919   5.457
10527TIP3   OH231523   2.216   4.009   4.677
10527TIP3    H131524   2.145   4.045   4.623
10527TIP3    H231525   2.193   4.034   4.766
10528TIP3   OH231526   5.446   1.247   2.813
10528TIP3    H131527   5.518   1.194   2.846
10528TIP3    H231528   5.466   1.336   2.841
10529TIP3   OH231529   7.423   1.075   1.432
10529TIP3    H131530   7.502   1.023   1.447
10529TIP3    H231531   7.352   1.023   1.470
10530TIP3   OH231532   2.763   6.162   2.612
10530TIP3    H131533   2.852   6.192   2.630
10530TIP3    H231534   2.711   6.242   2.606
10531TIP3   OH231535   5.729   6.840   0.069
10531TIP3    H131536   5.721   6.911   0.132
10531TIP3    H231537   5.688   6.873  -0.011
10532TIP3   OH231538   5.704   6.862   6.554
10532TIP3    H131539   5.673   6.797   6.491
10532TIP3    H231540   5.630   6.874   6.614
10533TIP3   OH231541   6.082   7.409   2.041
10533TIP3    H131542   6.058   7.318   2.021
10533TIP3    H231543   6.128   7.439   1.963
10534TIP3   OH231544   0.539   4.874   5.122
10534TIP3    H131545   0.460   4.894   5.173
10534TIP3    H231546   0.510   4.879   5.031
10535TIP3   OH231547   7.023   6.666   1.505
10535TIP3    H131548   6.965   6.730   1.547
10535TIP3    H231549   7.111   6.691   1.532
10536TIP3   OH231550   0.328   4.440   1.785
10536TIP3    H131551   0.253   4.496   1.765
10536TIP3    H231552   0.402   4.482   1.740
10537TIP3   OH231553   7.656   7.658   0.584
10537TIP3    H131554   7.700   7.696   0.660
10537TIP3    H231555   7.562   7.666   0.604
10538TIP3   OH231556   4.566   1.518   2.456
10538TIP3    H131557   4.476   1.550   2.449
10538TIP3    H231558   4.601   1.561   2.534
10539TIP3   OH231559   0.692   4.886   1.172
10539TIP3    H131560   0.612   4.928   1.202
10539TIP3    H231561   0.739   4.954   1.124
10540TIP3   OH231562   6.844   6.040   3.534
10540TIP3    H131563   6.906   6.062   3.464
10540TIP3    H231564   6.845   6.117   3.592
10541TIP3   OH231565   6.364   7.492   4.851
10541TIP3    H131566   6.303   7.419   4.850
10541TIP3    H231567   6.386   7.504   4.943
10542TIP3   OH231568   4.510   5.568   1.835
10542TIP3    H131569   4.472   5.654   1.850
10542TIP3    H231570   4.591   5.586   1.786
10543TIP3   OH231571   2.291   3.250   5.501
10543TIP3    H131572   2.316   3.266   5.410
10543TIP3    H231573   2.195   3.253   5.500
10544TIP3   OH231574   5.941   5.209   5.073
10544TIP3    H131575   5.853   5.246   5.080
10544TIP3    H231576   6.000   5.284   5.074
10545TIP3   OH231577   0.849   4.618   1.197
10545TIP3    H131578   0.865   4.680   1.126
10545TIP3    H231579   0.818   4.673   1.269
10546TIP3   OH231580   2.605   1.224   1.490
10546TIP3    H131581   2.516   1.200   1.462
10546TIP3    H231582   2.662   1.165   1.441
10547TIP3   OH231583   6.612   2.224   0.446
10547TIP3    H131584   6.549   2.276   0.496
10547TIP3    H231585   6.678   2.198   0.511
10548TIP3   OH231586   0.880   2.960   0.949
10548TIP3    H131587   0.877   2.971   0.854
10548TIP3    H231588   0.957   2.905   0.964
10549TIP3   OH231589   2.794   1.331   6.051
10549TIP3    H131590   2.863   1.387   6.018
10549TIP3    H231591   2.839   1.251   6.080
10550TIP3   OH231592   5.315   7.734   2.761
10550TIP3    H131593   5.360   7.819   2.754
10550TIP3    H231594   5.226   7.756   2.788
10551TIP3   OH231595   0.674   4.555  -0.017
10551TIP3    H131596   0.631   4.487  -0.068
10551TIP3    H231597   0.735   4.597  -0.078
10552TIP3   OH231598   4.753   3.792   2.541
10552TIP3    H131599   4.658   3.799   2.551
10552TIP3    H231600   4.788   3.809   2.629
10553TIP3   OH231601   5.436   7.709   5.802
10553TIP3    H131602   5.514   7.759   5.826
10553TIP3    H231603   5.367   7.775   5.791
10554TIP3   OH231604   3.423   2.769   0.983
10554TIP3    H131605   3.428   2.683   0.941
10554TIP3    H231606   3.387   2.750   1.070
10555TIP3   OH231607   6.812   5.786   5.571
10555TIP3    H131608   6.892   5.737   5.550
10555TIP3    H231609   6.791   5.759   5.660
10556TIP3   OH231610   1.978   5.929   3.758
10556TIP3    H131611   1.962   6.002   3.818
10556TIP3    H231612   1.890   5.901   3.731
10557TIP3   OH231613   7.656   5.417   3.073
10557TIP3    H131614   7.617   5.500   3.098
10557TIP3    H231615   7.621   5.398   2.986
10558TIP3   OH231616   7.695   5.136   6.647
10558TIP3    H131617   7.714   5.055   6.695
10558TIP3    H231618   7.758   5.199   6.682
10559TIP3   OH231619   6.854   3.780   2.988
10559TIP3    H131620   6.925   3.801   3.050
10559TIP3    H231621   6.854   3.853   2.926
10560TIP3   OH231622   5.650   6.629   0.480
10560TIP3    H131623   5.712   6.629   0.407
10560TIP3    H231624   5.602   6.711   0.471
10561TIP3   OH231625   4.340   4.597   4.683
10561TIP3    H131626   4.284   4.543   4.627
10561TIP3    H231627   4.303   4.685   4.676
10562TIP3   OH231628   0.134   0.083   4.422
10562TIP3    H131629   0.189   0.035   4.483
10562TIP3    H231630   0.074   0.133   4.477
10563TIP3   OH231631   1.089   0.029   4.963
10563TIP3    H131632   1.098   0.077   5.046
10563TIP3    H231633   1.160  -0.036   4.966
10564TIP3   OH231634   7.280   1.984   5.862
10564TIP3    H131635   7.348   2.026   5.809
10564TIP3    H231636   7.277   1.894   5.831
10565TIP3   OH231637   6.739   3.398   2.955
10565TIP3    H131638   6.802   3.384   3.026
10565TIP3    H231639   6.784   3.459   2.896
10566TIP3   OH231640   7.333   7.072   2.960
10566TIP3    H131641   7.358   6.989   3.001
10566TIP3    H231642   7.393   7.081   2.886
10567TIP3   OH231643   0.062   5.047   6.250
10567TIP3    H131644   0.072   4.960   6.212
10567TIP3    H231645   0.151   5.080   6.259
10568TIP3   OH231646   8.169   6.706   5.634
10568TIP3    H131647   8.123   6.629   5.601
10568TIP3    H231648   8.140   6.714   5.725
10569TIP3   OH231649   1.950   4.442   6.042
10569TIP3    H131650   1.943   4.354   6.004
10569TIP3    H231651   1.995   4.429   6.125
10570TIP3   OH231652   6.186   2.044   4.442
10570TIP3    H131653   6.107   2.092   4.418
10570TIP3    H231654   6.157   1.984   4.511
10571TIP3   OH231655   0.125   0.964   3.704
10571TIP3    H131656   0.199   1.000   3.657
10571TIP3    H231657   0.164   0.916   3.777
10572TIP3   OH231658   6.983   4.586   2.792
10572TIP3    H131659   7.046   4.619   2.856
10572TIP3    H231660   6.945   4.664   2.752
10573TIP3   OH231661   1.779   0.321   4.358
10573TIP3    H131662   1.858   0.358   4.398
10573TIP3    H231663   1.767   0.237   4.402
10574TIP3   OH231664   2.141   3.388   0.668
10574TIP3    H131665   2.185   3.373   0.751
10574TIP3    H231666   2.211   3.395   0.603
10575TIP3   OH231667   3.554   3.409   3.605
10575TIP3    H131668   3.619   3.479   3.615
10575TIP3    H231669   3.470   3.453   3.617
10576TIP3   OH231670   5.219   6.399   0.256
10576TIP3    H131671   5.299   6.412   0.206
10576TIP3    H231672   5.234   6.319   0.306
10577TIP3   OH231673   8.004   3.503   0.147
10577TIP3    H131674   8.042   3.581   0.188
10577TIP3    H231675   7.982   3.446   0.221
10578TIP3   OH231676   7.023   4.493   1.334
10578TIP3    H131677   6.943   4.498   1.281
10578TIP3    H231678   6.990   4.476   1.423
10579TIP3   OH231679   0.831   3.491   2.314
10579TIP3    H131680   0.866   3.407   2.283
10579TIP3    H231681   0.763   3.466   2.377
10580TIP3   OH231682   4.401   2.132   5.452
10580TIP3    H131683   4.352   2.192   5.396
10580TIP3    H231684   4.346   2.054   5.458
10581TIP3   OH231685   2.651   2.353   3.982
10581TIP3    H131686   2.710   2.381   3.912
10581TIP3    H231687   2.641   2.259   3.969
10582TIP3   OH231688   6.480   0.698   3.306
10582TIP3    H131689   6.506   0.728   3.219
10582TIP3    H231690   6.501   0.605   3.307
10583TIP3   OH231691   0.723   3.168   2.760
10583TIP3    H131692   0.759   3.081   2.775
10583TIP3    H231693   0.636   3.152   2.724
10584TIP3   OH231694   7.290   6.650   5.235
10584TIP3    H131695   7.196   6.648   5.218
10584TIP3    H231696   7.321   6.728   5.190
10585TIP3   OH231697   6.450   4.318   2.630
10585TIP3    H131698   6.463   4.371   2.709
10585TIP3    H231699   6.440   4.229   2.663
10586TIP3   OH231700   2.666   7.205   0.530
10586TIP3    H131701   2.575   7.230   0.547
10586TIP3    H231702   2.667   7.181   0.438
10587TIP3   OH231703   3.091   6.309   0.648
10587TIP3    H131704   3.023   6.249   0.679
10587TIP3    H231705   3.120   6.355   0.727
10588TIP3   OH231706   6.676   0.545   0.766
10588TIP3    H131707   6.754   0.594   0.794
10588TIP3    H231708   6.657   0.579   0.679
10589TIP3   OH231709   2.727   4.518   1.181
10589TIP3    H131710   2.783   4.573   1.126
10589TIP3    H231711   2.641   4.521   1.138
10590TIP3   OH231712   7.167   3.382   5.904
10590TIP3    H131713   7.109   3.307   5.922
10590TIP3    H231714   7.182   3.421   5.990
10591TIP3   OH231715   2.149   6.898   2.660
10591TIP3    H131716   2.234   6.903   2.616
10591TIP3    H231717   2.096   6.967   2.619
10592TIP3   OH231718   5.693   1.648   6.643
10592TIP3    H131719   5.707   1.576   6.704
10592TIP3    H231720   5.762   1.711   6.665
10593TIP3   OH231721   2.758   0.623   2.829
10593TIP3    H131722   2.749   0.532   2.858
10593TIP3    H231723   2.781   0.616   2.736
10594TIP3   OH231724   6.204   3.168   1.227
10594TIP3    H131725   6.233   3.258   1.239
10594TIP3    H231726   6.188   3.160   1.133
10595TIP3   OH231727   6.632   1.512   2.660
10595TIP3    H131728   6.700   1.576   2.680
10595TIP3    H231729   6.599   1.538   2.574
10596TIP3   OH231730   4.141   7.049   6.436
10596TIP3    H131731   4.125   7.085   6.349
10596TIP3    H231732   4.054   7.025   6.468
10597TIP3   OH231733   1.198   3.799   2.155
10597TIP3    H131734   1.262   3.768   2.219
10597TIP3    H231735   1.251   3.838   2.085
10598TIP3   OH231736   5.120   1.671   3.990
10598TIP3    H131737   5.027   1.693   3.993
10598TIP3    H231738   5.145   1.661   4.082
10599TIP3   OH231739   2.814   3.799   3.488
10599TIP3    H131740   2.874   3.842   3.427
10599TIP3    H231741   2.798   3.863   3.556
10600TIP3   OH231742   5.119   2.510   1.954
10600TIP3    H131743   5.105   2.529   2.046
10600TIP3    H231744   5.032   2.519   1.914
10601TIP3   OH231745   2.710   1.597   4.980
10601TIP3    H131746   2.663   1.658   4.923
10601TIP3    H231747   2.791   1.641   5.003
10602TIP3   OH231748   7.337   2.423   0.761
10602TIP3    H131749   7.307   2.401   0.849
10602TIP3    H231750   7.268   2.479   0.725
10603TIP3   OH231751   4.675   2.958   3.428
10603TIP3    H131752   4.746   2.907   3.467
10603TIP3    H231753   4.641   3.012   3.499
10604TIP3   OH231754   5.421   4.762   4.601
10604TIP3    H131755   5.352   4.825   4.621
10604TIP3    H231756   5.494   4.786   4.657
10605TIP3   OH231757   0.501   5.218   5.229
10605TIP3    H131758   0.590   5.231   5.262
10605TIP3    H231759   0.513   5.166   5.149
10606TIP3   OH231760   4.247   4.816   2.959
10606TIP3    H131761   4.274   4.889   3.014
10606TIP3    H231762   4.169   4.847   2.914
10607TIP3   OH231763   1.535   2.847   5.113
10607TIP3    H131764   1.452   2.801   5.105
10607TIP3    H231765   1.584   2.798   5.179
10608TIP3   OH231766   3.162   6.721   6.715
10608TIP3    H131767   3.101   6.648   6.716
10608TIP3    H231768   3.137   6.772   6.638
10609TIP3   OH231769   5.638   2.048   6.805
10609TIP3    H131770   5.704   2.096   6.756
10609TIP3    H231771   5.688   1.989   6.862
10610TIP3   OH231772   2.314   4.546   1.381
10610TIP3    H131773   2.240   4.496   1.348
10610TIP3    H231774   2.343   4.498   1.459
10611TIP3   OH231775   6.761   1.228   5.850
10611TIP3    H131776   6.821   1.202   5.920
10611TIP3    H231777   6.819   1.258   5.779
10612TIP3   OH231778   3.077   0.769   2.768
10612TIP3    H131779   3.000   0.755   2.713
10612TIP3    H231780   3.103   0.682   2.797
10613TIP3   OH231781   4.638   3.832   6.498
10613TIP3    H131782   4.639   3.911   6.552
10613TIP3    H231783   4.638   3.865   6.408
10614TIP3   OH231784   4.790   5.706   5.056
10614TIP3    H131785   4.780   5.674   5.145
10614TIP3    H231786   4.878   5.680   5.030
10615TIP3   OH231787   8.118   1.176   3.027
10615TIP3    H131788   8.155   1.090   3.008
10615TIP3    H231789   8.055   1.192   2.956
10616TIP3   OH231790   7.422   3.639   6.480
10616TIP3    H131791   7.482   3.709   6.507
10616TIP3    H231792   7.338   3.682   6.468
10617TIP3   OH231793   6.666   5.974   3.985
10617TIP3    H131794   6.643   5.957   4.076
10617TIP3    H231795   6.582   5.981   3.940
10618TIP3   OH231796   0.745   2.692   0.046
10618TIP3    H131797   0.689   2.664   0.119
10618TIP3    H231798   0.717   2.782   0.028
10619TIP3   OH231799   1.781   2.757   2.255
10619TIP3    H131800   1.730   2.690   2.209
10619TIP3    H231801   1.749   2.753   2.346
10620TIP3   OH231802   0.550   5.085   4.485
10620TIP3    H131803   0.544   5.010   4.544
10620TIP3    H231804   0.606   5.054   4.413
10621TIP3   OH231805   0.188   2.861   3.565
10621TIP3    H131806   0.250   2.795   3.597
10621TIP3    H231807   0.240   2.940   3.553
10622TIP3   OH231808   6.616   7.847   5.846
10622TIP3    H131809   6.634   7.859   5.753
10622TIP3    H231810   6.553   7.774   5.849
10623TIP3   OH231811   4.561   5.496   3.711
10623TIP3    H131812   4.562   5.484   3.616
10623TIP3    H231813   4.491   5.439   3.742
10624TIP3   OH231814   4.353   7.479   3.587
10624TIP3    H131815   4.425   7.474   3.524
10624TIP3    H231816   4.388   7.530   3.660
10625TIP3   OH231817   0.454   7.125   1.920
10625TIP3    H131818   0.397   7.062   1.965
10625TIP3    H231819   0.393   7.186   1.879
10626TIP3   OH231820   7.812   1.724   3.809
10626TIP3    H131821   7.762   1.790   3.857
10626TIP3    H231822   7.830   1.764   3.724
10627TIP3   OH231823   3.179   4.849   1.247
10627TIP3    H131824   3.088   4.847   1.218
10627TIP3    H231825   3.183   4.781   1.315
10628TIP3   OH231826   4.889   6.168   4.032
10628TIP3    H131827   4.980   6.153   4.061
10628TIP3    H231828   4.869   6.256   4.064
10629TIP3   OH231829   7.330   6.173   4.095
10629TIP3    H131830   7.339   6.078   4.092
10629TIP3    H231831   7.241   6.189   4.064
10630TIP3   OH231832   2.723   2.214   0.587
10630TIP3    H131833   2.724   2.119   0.573
10630TIP3    H231834   2.644   2.230   0.638
10631TIP3   OH231835   0.087   6.282   1.542
10631TIP3    H131836   0.014   6.295   1.481
10631TIP3    H231837   0.058   6.322   1.624
10632TIP3   OH231838   2.103   5.145   1.167
10632TIP3    H131839   2.151   5.192   1.235
10632TIP3    H231840   2.056   5.076   1.214
10633TIP3   OH231841   2.858   4.259   6.227
10633TIP3    H131842   2.772   4.225   6.249
10633TIP3    H231843   2.892   4.197   6.161
10634TIP3   OH231844   3.203   6.324   6.132
10634TIP3    H131845   3.108   6.336   6.124
10634TIP3    H231846   3.219   6.332   6.226
10635TIP3   OH231847   6.286   5.870   4.086
10635TIP3    H131848   6.197   5.890   4.115
10635TIP3    H231849   6.290   5.775   4.085
10636TIP3   OH231850   2.667   6.612   0.544
10636TIP3    H131851   2.669   6.699   0.505
10636TIP3    H231852   2.728   6.560   0.490
10637TIP3   OH231853   4.786   1.238   3.708
10637TIP3    H131854   4.707   1.225   3.761
10637TIP3    H231855   4.856   1.198   3.759
10638TIP3   OH231856   0.219   1.804   6.498
10638TIP3    H131857   0.236   1.870   6.431
10638TIP3    H231858   0.197   1.854   6.577
10639TIP3   OH231859   3.197   4.395   3.246
10639TIP3    H131860   3.244   4.477   3.262
10639TIP3    H231861   3.221   4.339   3.320
10640TIP3   OH231862   3.674   4.894   0.205
10640TIP3    H131863   3.673   4.976   0.254
10640TIP3    H231864   3.631   4.915   0.123
10641TIP3   OH231865   8.233   3.372   6.053
10641TIP3    H131866   8.245   3.437   6.122
10641TIP3    H231867   8.138   3.361   6.046
10642TIP3   OH231868   2.389   0.886   0.393
10642TIP3    H131869   2.296   0.891   0.412
10642TIP3    H231870   2.427   0.960   0.439
10643TIP3   OH231871   0.740   2.819   0.557
10643TIP3    H131872   0.701   2.732   0.543
10643TIP3    H231873   0.668   2.880   0.539
10644TIP3   OH231874   3.493   2.451   1.144
10644TIP3    H131875   3.478   2.533   1.192
10644TIP3    H231876   3.588   2.445   1.136
10645TIP3   OH231877   0.515   0.122   6.254
10645TIP3    H131878   0.475   0.122   6.341
10645TIP3    H231879   0.453   0.168   6.198
10646TIP3   OH231880   2.321   4.936   0.365
10646TIP3    H131881   2.361   5.019   0.339
10646TIP3    H231882   2.387   4.869   0.344
10647TIP3   OH231883   3.451   0.502   1.751
10647TIP3    H131884   3.421   0.477   1.838
10647TIP3    H231885   3.545   0.517   1.762
10648TIP3   OH231886   6.673   3.255   5.059
10648TIP3    H131887   6.767   3.269   5.055
10648TIP3    H231888   6.658   3.217   5.146
10649TIP3   OH231889   1.379   3.982   4.208
10649TIP3    H131890   1.451   3.921   4.222
10649TIP3    H231891   1.326   3.941   4.140
10650TIP3   OH231892   6.078   5.956   6.368
10650TIP3    H131893   6.000   5.911   6.401
10650TIP3    H231894   6.148   5.930   6.428
10651TIP3   OH231895   7.557   1.390   3.902
10651TIP3    H131896   7.524   1.307   3.936
10651TIP3    H231897   7.502   1.457   3.942
10652TIP3   OH231898   5.522   1.760   2.029
10652TIP3    H131899   5.493   1.753   2.120
10652TIP3    H231900   5.458   1.709   1.979
10653TIP3   OH231901   6.216   7.736   1.899
10653TIP3    H131902   6.277   7.808   1.917
10653TIP3    H231903   6.202   7.695   1.984
10654TIP3   OH231904   5.881   4.567   1.338
10654TIP3    H131905   5.854   4.637   1.278
10654TIP3    H231906   5.938   4.511   1.284
10655TIP3   OH231907   2.727   1.892   3.735
10655TIP3    H131908   2.778   1.827   3.783
10655TIP3    H231909   2.752   1.879   3.644
10656TIP3   OH231910   6.865   4.023   1.727
10656TIP3    H131911   6.937   4.057   1.673
10656TIP3    H231912   6.908   3.978   1.800
10657TIP3   OH231913   7.367   5.491   4.919
10657TIP3    H131914   7.324   5.445   4.991
10657TIP3    H231915   7.369   5.426   4.848
10658TIP3   OH231916   7.596   1.893   6.311
10658TIP3    H131917   7.507   1.865   6.330
10658TIP3    H231918   7.586   1.980   6.274
10659TIP3   OH231919   6.408   0.914   4.393
10659TIP3    H131920   6.349   0.844   4.365
10659TIP3    H231921   6.491   0.895   4.350
10660TIP3   OH231922   3.488   1.631   5.770
10660TIP3    H131923   3.489   1.550   5.720
10660TIP3    H231924   3.406   1.674   5.745
10661TIP3   OH231925   6.552   4.176   3.090
10661TIP3    H131926   6.587   4.251   3.043
10661TIP3    H231927   6.496   4.214   3.158
10662TIP3   OH231928   2.756   5.274   4.059
10662TIP3    H131929   2.772   5.242   3.970
10662TIP3    H231930   2.673   5.234   4.085
10663TIP3   OH231931   8.192   5.104   0.288
10663TIP3    H131932   8.099   5.081   0.295
10663TIP3    H231933   8.238   5.027   0.322
10664TIP3   OH231934   3.323   3.600   6.078
10664TIP3    H131935   3.261   3.672   6.070
10664TIP3    H231936   3.275   3.532   6.126
10665TIP3   OH231937   4.072   2.253   0.152
10665TIP3    H131938   4.034   2.311   0.218
10665TIP3    H231939   3.997   2.208   0.113
10666TIP3   OH231940   0.710   1.860   6.405
10666TIP3    H131941   0.695   1.768   6.425
10666TIP3    H231942   0.684   1.906   6.484
10667TIP3   OH231943   3.083   1.731   1.480
10667TIP3    H131944   3.032   1.695   1.553
10667TIP3    H231945   3.018   1.753   1.414
10668TIP3   OH231946   4.224   7.169   0.590
10668TIP3    H131947   4.221   7.262   0.612
10668TIP3    H231948   4.154   7.129   0.643
10669TIP3   OH231949   6.877   1.086   3.924
10669TIP3    H131950   6.787   1.055   3.935
10669TIP3    H231951   6.930   1.026   3.976
10670TIP3   OH231952   4.618   5.272   5.023
10670TIP3    H131953   4.617   5.367   5.010
10670TIP3    H231954   4.710   5.252   5.042
10671TIP3   OH231955   5.323   6.594   0.787
10671TIP3    H131956   5.309   6.684   0.758
10671TIP3    H231957   5.279   6.589   0.872
10672TIP3   OH231958   6.170   4.385   3.790
10672TIP3    H131959   6.232   4.357   3.723
10672TIP3    H231960   6.195   4.475   3.811
10673TIP3   OH231961   1.977   1.967   3.136
10673TIP3    H131962   1.927   2.043   3.104
10673TIP3    H231963   2.038   1.947   3.065
10674TIP3   OH231964   7.787   4.413   0.665
10674TIP3    H131965   7.830   4.392   0.582
10674TIP3    H231966   7.841   4.482   0.703
10675TIP3   OH231967   1.900   5.261   3.442
10675TIP3    H131968   1.826   5.286   3.497
10675TIP3    H231969   1.951   5.201   3.498
10676TIP3   OH231970   5.150   5.671   3.309
10676TIP3    H131971   5.212   5.597   3.314
10676TIP3    H231972   5.183   5.734   3.373
10677TIP3   OH231973   7.381   2.554   1.096
10677TIP3    H131974   7.330   2.478   1.071
10677TIP3    H231975   7.321   2.608   1.149
10678TIP3   OH231976   0.703   6.956   0.758
10678TIP3    H131977   0.625   6.979   0.707
10678TIP3    H231978   0.669   6.907   0.833
10679TIP3   OH231979   7.132   0.056   0.278
10679TIP3    H131980   7.198   0.125   0.287
10679TIP3    H231981   7.049   0.100   0.297
10680TIP3   OH231982   6.273   1.896   4.940
10680TIP3    H131983   6.301   1.846   4.863
10680TIP3    H231984   6.178   1.891   4.938
10681TIP3   OH231985   7.917   1.165   5.949
10681TIP3    H131986   7.877   1.082   5.924
10681TIP3    H231987   8.006   1.142   5.975
10682TIP3   OH231988   4.800   1.660   3.324
10682TIP3    H131989   4.725   1.608   3.352
10682TIP3    H231990   4.813   1.724   3.394
10683TIP3   OH231991   1.969   3.949   0.657
10683TIP3    H131992   1.931   3.930   0.743
10683TIP3    H231993   1.915   3.900   0.596
10684TIP3   OH231994   5.185   3.241   1.542
10684TIP3    H131995   5.226   3.169   1.589
10684TIP3    H231996   5.173   3.309   1.608
10685TIP3   OH231997   7.572   3.588   0.520
10685TIP3    H131998   7.660   3.569   0.487
10685TIP3    H231999   7.520   3.603   0.442
10686TIP3   OH232000   5.061   5.779   6.178
10686TIP3    H132001   5.007   5.851   6.145
10686TIP3    H232002   5.011   5.743   6.251
10687TIP3   OH232003   7.036   6.642   2.679
10687TIP3    H132004   7.127   6.664   2.699
10687TIP3    H232005   7.002   6.603   2.760
10688TIP3   OH232006   1.011   7.160   4.130
10688TIP3    H132007   0.920   7.189   4.137
10688TIP3    H232008   1.059   7.216   4.193
10689TIP3   OH232009   7.275   1.276   2.088
10689TIP3    H132010   7.283   1.191   2.045
10689TIP3    H232011   7.188   1.307   2.064
10690TIP3   OH232012   1.909   4.012   6.815
10690TIP3    H132013   1.828   3.993   6.767
10690TIP3    H232014   1.977   4.015   6.748
10691TIP3   OH232015   0.636   3.684   5.814
10691TIP3    H132016   0.675   3.600   5.838
10691TIP3    H232017   0.680   3.708   5.732
10692TIP3   OH232018   2.823   0.428   3.902
10692TIP3    H132019   2.735   0.443   3.937
10692TIP3    H232020   2.831   0.490   3.830
10693TIP3   OH232021   2.458   6.989   2.920
10693TIP3    H132022   2.451   7.069   2.868
10693TIP3    H232023   2.368   6.959   2.931
10694TIP3   OH232024   5.730   3.556   5.892
10694TIP3    H132025   5.733   3.493   5.964
10694TIP3    H232026   5.651   3.534   5.843
10695TIP3   OH232027   5.090   2.368   6.395
10695TIP3    H132028   5.018   2.305   6.390
10695TIP3    H232029   5.107   2.392   6.303
10696TIP3   OH232030   3.480   3.705   4.372
10696TIP3    H132031   3.526   3.788   4.382
10696TIP3    H232032   3.421   3.701   4.448
10697TIP3   OH232033   6.527   6.425   4.324
10697TIP3    H132034   6.581   6.486   4.273
10697TIP3    H232035   6.470   6.383   4.259
10698TIP3   OH232036   0.616   1.143   1.434
10698TIP3    H132037   0.702   1.172   1.463
10698TIP3    H232038   0.591   1.207   1.367
10699TIP3   OH232039   7.369   4.918   4.857
10699TIP3    H132040   7.426   4.995   4.860
10699TIP3    H232041   7.305   4.933   4.928
10700TIP3   OH232042   4.756   2.562   3.122
10700TIP3    H132043   4.819   2.492   3.140
10700TIP3    H232044   4.675   2.534   3.165
10701TIP3   OH232045   7.154   0.136   5.231
10701TIP3    H132046   7.114   0.202   5.173
10701TIP3    H232047   7.128   0.052   5.194
10702TIP3   OH232048   0.920   2.246   6.702
10702TIP3    H132049   0.995   2.302   6.723
10702TIP3    H232050   0.846   2.288   6.745
10703TIP3   OH232051   3.417   6.119   1.795
10703TIP3    H132052   3.492   6.060   1.795
10703TIP3    H232053   3.351   6.074   1.849
10704TIP3   OH232054   1.843   4.594   2.172
10704TIP3    H132055   1.873   4.624   2.258
10704TIP3    H232056   1.838   4.674   2.120
10705TIP3   OH232057   6.952   4.942   4.686
10705TIP3    H132058   6.959   4.851   4.713
10705TIP3    H232059   6.993   4.992   4.757
10706TIP3   OH232060   7.312   2.070   3.031
10706TIP3    H132061   7.304   2.060   3.126
10706TIP3    H232062   7.405   2.092   3.018
10707TIP3   OH232063   7.793   1.814   0.883
10707TIP3    H132064   7.746   1.731   0.875
10707TIP3    H232065   7.870   1.803   0.827
10708TIP3   OH232066   5.875   4.023   3.577
10708TIP3    H132067   5.946   4.044   3.516
10708TIP3    H232068   5.878   4.094   3.642
10709TIP3   OH232069   4.320   3.826   4.237
10709TIP3    H132070   4.390   3.768   4.267
10709TIP3    H232071   4.249   3.766   4.212
10710TIP3   OH232072   4.673   6.310   0.131
10710TIP3    H132073   4.665   6.329   0.037
10710TIP3    H232074   4.607   6.367   0.172
10711TIP3   OH232075   4.234   0.986   3.423
10711TIP3    H132076   4.317   1.028   3.400
10711TIP3    H232077   4.214   1.020   3.510
10712TIP3   OH232078   4.922   6.208   3.001
10712TIP3    H132079   4.847   6.150   2.991
10712TIP3    H232080   4.978   6.187   2.926
10713TIP3   OH232081   5.127   1.070   1.487
10713TIP3    H132082   5.112   1.054   1.394
10713TIP3    H232083   5.040   1.063   1.527
10714TIP3   OH232084   7.132   6.232   1.246
10714TIP3    H132085   7.140   6.158   1.306
10714TIP3    H232086   7.099   6.303   1.301
10715TIP3   OH232087   5.484   5.229   0.423
10715TIP3    H132088   5.431   5.210   0.500
10715TIP3    H232089   5.561   5.172   0.432
10716TIP3   OH232090   2.614   0.588   4.120
10716TIP3    H132091   2.684   0.650   4.139
10716TIP3    H232092   2.593   0.604   4.028
10717TIP3   OH232093   5.890   3.512   0.100
10717TIP3    H132094   5.879   3.443   0.034
10717TIP3    H232095   5.885   3.466   0.184
10718TIP3   OH232096   0.794   0.739   0.928
10718TIP3    H132097   0.813   0.700   1.014
10718TIP3    H232098   0.731   0.809   0.947
10719TIP3   OH232099   0.820   3.868   4.626
10719TIP3    H132100   0.871   3.883   4.546
10719TIP3    H232101   0.761   3.796   4.604
10720TIP3   OH232102   3.776   6.024   0.320
10720TIP3    H132103   3.865   5.996   0.301
10720TIP3    H232104   3.786   6.109   0.363
10721TIP3   OH232105   3.133   7.657   2.657
10721TIP3    H132106   3.181   7.597   2.600
10721TIP3    H232107   3.150   7.624   2.745
10722TIP3   OH232108   5.413   4.224   4.089
10722TIP3    H132109   5.373   4.141   4.064
10722TIP3    H232110   5.339   4.283   4.101
10723TIP3   OH232111   8.272   2.836   2.179
10723TIP3    H132112   8.219   2.779   2.235
10723TIP3    H232113   8.332   2.880   2.239
10724TIP3   OH232114   5.318   2.176   2.199
10724TIP3    H132115   5.236   2.223   2.212
10724TIP3    H232116   5.386   2.239   2.223
10725TIP3   OH232117   6.458   2.573   1.507
10725TIP3    H132118   6.379   2.622   1.529
10725TIP3    H232119   6.430   2.481   1.507
10726TIP3   OH232120   1.676   5.076   4.490
10726TIP3    H132121   1.642   5.108   4.573
10726TIP3    H232122   1.755   5.128   4.474
10727TIP3   OH232123   5.473   2.841   3.282
10727TIP3    H132124   5.493   2.780   3.353
10727TIP3    H232125   5.523   2.919   3.303
10728TIP3   OH232126   1.803   7.043   6.493
10728TIP3    H132127   1.870   7.069   6.430
10728TIP3    H232128   1.721   7.071   6.453
10729TIP3   OH232129   1.796   2.646   6.216
10729TIP3    H132130   1.867   2.655   6.154
10729TIP3    H232131   1.791   2.552   6.233
10730TIP3   OH232132   3.635   6.852   4.093
10730TIP3    H132133   3.672   6.936   4.066
10730TIP3    H232134   3.689   6.787   4.048
10731TIP3   OH232135   0.108   1.123   3.374
10731TIP3    H132136   0.135   1.204   3.417
10731TIP3    H232137   0.017   1.140   3.347
10732TIP3   OH232138   0.115   4.291   1.683
10732TIP3    H132139   0.202   4.299   1.721
10732TIP3    H232140   0.072   4.224   1.736
10733TIP3   OH232141   3.088   6.871   6.509
10733TIP3    H132142   3.142   6.850   6.433
10733TIP3    H232143   3.045   6.954   6.486
10734TIP3   OH232144   3.859   4.690   6.257
10734TIP3    H132145   3.920   4.642   6.314
10734TIP3    H232146   3.826   4.624   6.196
10735TIP3   OH232147   6.503   5.350   2.950
10735TIP3    H132148   6.520   5.384   2.862
10735TIP3    H232149   6.436   5.283   2.936
10736TIP3   OH232150   1.324   3.728   0.471
10736TIP3    H132151   1.255   3.670   0.502
10736TIP3    H232152   1.311   3.810   0.519
10737TIP3   OH232153   1.625   3.032   6.611
10737TIP3    H132154   1.719   3.015   6.597
10737TIP3    H232155   1.623   3.088   6.689
10738TIP3   OH232156   6.713   6.866   2.985
10738TIP3    H132157   6.691   6.825   3.069
10738TIP3    H232158   6.783   6.927   3.006
10739TIP3   OH232159   7.623   4.780   2.518
10739TIP3    H132160   7.637   4.821   2.433
10739TIP3    H232161   7.535   4.744   2.513
10740TIP3   OH232162   1.167   5.225   4.897
10740TIP3    H132163   1.090   5.173   4.875
10740TIP3    H232164   1.235   5.160   4.915
10741TIP3   OH232165   0.822   1.395   6.690
10741TIP3    H132166   0.814   1.305   6.722
10741TIP3    H232167   0.915   1.405   6.670
10742TIP3   OH232168   3.387   7.267   0.068
10742TIP3    H132169   3.304   7.312   0.052
10742TIP3    H232170   3.363   7.191   0.122
10743TIP3   OH232171   5.336   0.953   3.199
10743TIP3    H132172   5.388   1.030   3.176
10743TIP3    H232173   5.250   0.969   3.159
10744TIP3   OH232174   2.881   5.185   3.143
10744TIP3    H132175   2.921   5.243   3.078
10744TIP3    H232176   2.812   5.237   3.183
10745TIP3   OH232177   4.470   1.602   4.384
10745TIP3    H132178   4.532   1.536   4.355
10745TIP3    H232179   4.391   1.553   4.406
10746TIP3   OH232180   6.655   7.609   3.721
10746TIP3    H132181   6.611   7.563   3.792
10746TIP3    H232182   6.711   7.543   3.681
10747TIP3   OH232183   0.249   5.990   0.954
10747TIP3    H132184   0.173   6.048   0.951
10747TIP3    H232185   0.325   6.049   0.959
10748TIP3   OH232186   0.615   2.662   3.377
10748TIP3    H132187   0.660   2.741   3.347
10748TIP3    H232188   0.651   2.645   3.464
10749TIP3   OH232189   2.087   4.567   2.604
10749TIP3    H132190   2.044   4.609   2.529
10749TIP3    H232191   2.022   4.507   2.639
10750TIP3   OH232192   5.299   0.960   0.885
10750TIP3    H132193   5.238   0.898   0.846
10750TIP3    H232194   5.314   1.025   0.817
10751TIP3   OH232195   1.523   5.196   1.016
10751TIP3    H132196   1.599   5.254   1.024
10751TIP3    H232197   1.545   5.138   0.944
10752TIP3   OH232198   1.540   1.413   5.537
10752TIP3    H132199   1.587   1.331   5.554
10752TIP3    H232200   1.447   1.388   5.538
10753TIP3   OH232201   0.047   3.969   5.356
10753TIP3    H132202  -0.035   3.934   5.392
10753TIP3    H232203   0.088   4.014   5.430
10754TIP3   OH232204   4.473   5.894   0.985
10754TIP3    H132205   4.504   5.934   0.903
10754TIP3    H232206   4.381   5.871   0.967
10755TIP3   OH232207   4.819   6.520   2.004
10755TIP3    H132208   4.771   6.517   1.921
10755TIP3    H232209   4.760   6.478   2.066
10756TIP3   OH232210   1.744   0.391   4.762
10756TIP3    H132211   1.765   0.345   4.843
10756TIP3    H232212   1.807   0.357   4.698
10757TIP3   OH232213   4.157   1.373   3.301
10757TIP3    H132214   4.199   1.457   3.317
10757TIP3    H232215   4.227   1.309   3.310
10758TIP3   OH232216   5.921   6.556   0.600
10758TIP3    H132217   5.968   6.507   0.532
10758TIP3    H232218   5.829   6.552   0.574
10759TIP3   OH232219   5.848   3.156   2.060
10759TIP3    H132220   5.872   3.072   2.021
10759TIP3    H232221   5.905   3.220   2.018
10760TIP3   OH232222   4.431   5.124   2.632
10760TIP3    H132223   4.411   5.041   2.676
10760TIP3    H232224   4.352   5.144   2.582
10761TIP3   OH232225   2.763   4.812   1.989
10761TIP3    H132226   2.835   4.763   1.948
10761TIP3    H232227   2.796   4.835   2.075
10762TIP3   OH232228   5.628   3.620   6.297
10762TIP3    H132229   5.556   3.605   6.235
10762TIP3    H232230   5.648   3.713   6.289
10763TIP3   OH232231   2.845   3.682   4.592
10763TIP3    H132232   2.914   3.738   4.626
10763TIP3    H232233   2.770   3.697   4.649
10764TIP3   OH232234   0.065   6.015   4.824
10764TIP3    H132235  -0.005   5.983   4.766
10764TIP3    H232236   0.127   5.943   4.830
10765TIP3   OH232237   1.527   6.322   5.975
10765TIP3    H132238   1.608   6.370   5.992
10765TIP3    H232239   1.458   6.387   5.980
10766TIP3   OH232240   0.825   7.764   1.524
10766TIP3    H132241   0.799   7.852   1.496
10766TIP3    H232242   0.919   7.772   1.544
10767TIP3   OH232243   7.549   2.217   5.221
10767TIP3    H132244   7.540   2.123   5.213
10767TIP3    H232245   7.584   2.246   5.136
10768TIP3   OH232246   2.183   3.685   0.241
10768TIP3    H132247   2.151   3.775   0.250
10768TIP3    H232248   2.246   3.675   0.313
10769TIP3   OH232249   8.347   4.264   5.109
10769TIP3    H132250   8.286   4.336   5.095
10769TIP3    H232251   8.310   4.215   5.182
10770TIP3   OH232252   1.287   5.639   0.965
10770TIP3    H132253   1.234   5.560   0.961
10770TIP3    H232254   1.374   5.611   0.938
10771TIP3   OH232255   6.014   7.253   6.730
10771TIP3    H132256   6.105   7.273   6.712
10771TIP3    H232257   6.001   7.281   6.821
10772TIP3   OH232258   1.114   0.674   6.100
10772TIP3    H132259   1.133   0.580   6.103
10772TIP3    H232260   1.044   0.686   6.165
10773TIP3   OH232261   2.251   4.102   0.514
10773TIP3    H132262   2.184   4.080   0.580
10773TIP3    H232263   2.265   4.196   0.526
10774TIP3   OH232264   7.703   2.847   6.366
10774TIP3    H132265   7.766   2.919   6.356
10774TIP3    H232266   7.706   2.802   6.282
10775TIP3   OH232267   7.196   5.406   2.116
10775TIP3    H132268   7.168   5.480   2.169
10775TIP3    H232269   7.223   5.339   2.179
10776TIP3   OH232270   2.502   2.036   0.518
10776TIP3    H132271   2.444   2.021   0.593
10776TIP3    H232272   2.468   2.114   0.476
10777TIP3   OH232273   0.765   5.247   5.320
10777TIP3    H132274   0.809   5.177   5.272
10777TIP3    H232275   0.792   5.234   5.411
10778TIP3   OH232276   1.049   4.607   3.550
10778TIP3    H132277   1.089   4.645   3.471
10778TIP3    H232278   1.111   4.627   3.620
10779TIP3   OH232279   0.720   5.272   1.218
10779TIP3    H132280   0.673   5.210   1.273
10779TIP3    H232281   0.736   5.348   1.275
10780TIP3   OH232282   1.369   3.922   1.178
10780TIP3    H132283   1.426   3.999   1.180
10780TIP3    H232284   1.418   3.858   1.127
10781TIP3   OH232285   3.039   4.642   5.334
10781TIP3    H132286   2.984   4.592   5.395
10781TIP3    H232287   3.128   4.612   5.353
10782TIP3   OH232288   6.707   2.390   0.718
10782TIP3    H132289   6.716   2.434   0.803
10782TIP3    H232290   6.641   2.323   0.733
10783TIP3   OH232291   3.162   4.248   1.702
10783TIP3    H132292   3.109   4.250   1.623
10783TIP3    H232293   3.098   4.251   1.773
10784TIP3   OH232294   3.717   6.671   5.178
10784TIP3    H132295   3.772   6.671   5.256
10784TIP3    H232296   3.634   6.708   5.208
10785TIP3   OH232297   7.838   0.157   4.624
10785TIP3    H132298   7.841   0.067   4.655
10785TIP3    H232299   7.747   0.170   4.596
10786TIP3   OH232300   1.915   1.161   5.265
10786TIP3    H132301   1.863   1.187   5.190
10786TIP3    H232302   1.852   1.153   5.337
10787TIP3   OH232303   5.285   1.579   2.266
10787TIP3    H132304   5.257   1.488   2.265
10787TIP3    H232305   5.381   1.575   2.265
10788TIP3   OH232306   1.408   4.698   1.438
10788TIP3    H132307   1.501   4.682   1.455
10788TIP3    H232308   1.368   4.612   1.440
10789TIP3   OH232309   1.399   0.177   2.271
10789TIP3    H132310   1.459   0.204   2.202
10789TIP3    H232311   1.456   0.137   2.337
10790TIP3   OH232312   5.371   0.886   3.989
10790TIP3    H132313   5.390   0.826   4.061
10790TIP3    H232314   5.453   0.891   3.940
10791TIP3   OH232315   6.253   7.574   2.697
10791TIP3    H132316   6.212   7.511   2.755
10791TIP3    H232317   6.200   7.572   2.618
10792TIP3   OH232318   7.593   5.798   2.331
10792TIP3    H132319   7.567   5.833   2.417
10792TIP3    H232320   7.515   5.809   2.276
10793TIP3   OH232321   8.054   1.391   6.523
10793TIP3    H132322   8.034   1.483   6.506
10793TIP3    H232323   7.977   1.343   6.492
10794TIP3   OH232324   7.337   3.358   5.040
10794TIP3    H132325   7.297   3.404   5.113
10794TIP3    H232326   7.264   3.320   4.992
10795TIP3   OH232327   7.259   5.031   3.492
10795TIP3    H132328   7.335   5.044   3.549
10795TIP3    H232329   7.244   5.116   3.452
10796TIP3   OH232330   5.123   6.544   6.230
10796TIP3    H132331   5.218   6.554   6.239
10796TIP3    H232332   5.113   6.484   6.156
10797TIP3   OH232333   5.646   2.522   4.751
10797TIP3    H132334   5.623   2.435   4.784
10797TIP3    H232335   5.716   2.552   4.809
10798TIP3   OH232336   4.619   1.369   5.944
10798TIP3    H132337   4.568   1.333   5.871
10798TIP3    H232338   4.635   1.294   6.001
10799TIP3   OH232339   6.633   7.538   1.374
10799TIP3    H132340   6.653   7.627   1.344
10799TIP3    H232341   6.592   7.551   1.460
10800TIP3   OH232342   3.478   2.121   3.322
10800TIP3    H132343   3.415   2.149   3.256
10800TIP3    H232344   3.456   2.029   3.338
10801TIP3   OH232345   1.156   1.524   3.241
10801TIP3    H132346   1.168   1.438   3.200
10801TIP3    H232347   1.061   1.534   3.247
10802TIP3   OH232348   8.009   5.439   4.546
10802TIP3    H132349   8.013   5.381   4.470
10802TIP3    H232350   8.054   5.390   4.615
10803TIP3   OH232351   2.021   3.079   6.756
10803TIP3    H132352   2.025   2.991   6.717
10803TIP3    H232353   2.112   3.101   6.776
10804TIP3   OH232354   7.422   3.658   2.918
10804TIP3    H132355   7.398   3.680   2.827
10804TIP3    H232356   7.513   3.688   2.927
10805TIP3   OH232357   5.131   6.068   3.788
10805TIP3    H132358   5.213   6.087   3.742
10805TIP3    H232359   5.070   6.046   3.718
10806TIP3   OH232360   2.884   7.443   3.394
10806TIP3    H132361   2.827   7.410   3.463
10806TIP3    H232362   2.953   7.377   3.386
10807TIP3   OH232363   4.966   0.760   0.123
10807TIP3    H132364   4.986   0.852   0.144
10807TIP3    H232365   4.877   0.762   0.088
10808TIP3   OH232366   7.075   2.529   1.913
10808TIP3    H132367   7.074   2.541   1.818
10808TIP3    H232368   7.100   2.438   1.926
10809TIP3   OH232369   6.669   6.462   3.043
10809TIP3    H132370   6.703   6.416   3.120
10809TIP3    H232371   6.612   6.398   3.000
10810TIP3   OH232372   1.857   0.368   5.095
10810TIP3    H132373   1.926   0.411   5.145
10810TIP3    H232374   1.775   0.399   5.134
10811TIP3   OH232375   1.450   4.916   0.902
10811TIP3    H132376   1.515   4.849   0.880
10811TIP3    H232377   1.419   4.891   0.989
10812TIP3   OH232378   6.752   4.961   5.114
10812TIP3    H132379   6.806   4.942   5.190
10812TIP3    H232380   6.788   4.905   5.045
10813TIP3   OH232381   5.189   3.706   2.280
10813TIP3    H132382   5.208   3.716   2.373
10813TIP3    H232383   5.257   3.757   2.236
10814TIP3   OH232384   4.461   6.933   2.241
10814TIP3    H132385   4.440   7.015   2.197
10814TIP3    H232386   4.399   6.870   2.203
10815TIP3   OH232387   3.509   2.050   2.953
10815TIP3    H132388   3.599   2.071   2.980
10815TIP3    H232389   3.518   2.017   2.864
10816TIP3   OH232390   8.165   7.820   3.838
10816TIP3    H132391   8.074   7.844   3.853
10816TIP3    H232392   8.169   7.726   3.857
10817TIP3   OH232393   6.694   0.397   4.757
10817TIP3    H132394   6.681   0.482   4.716
10817TIP3    H232395   6.776   0.364   4.721
10818TIP3   OH232396   5.479   5.145   3.838
10818TIP3    H132397   5.511   5.057   3.820
10818TIP3    H232398   5.385   5.135   3.851
10819TIP3   OH232399   5.783   6.322   3.434
10819TIP3    H132400   5.851   6.257   3.417
10819TIP3    H232401   5.722   6.314   3.361
10820TIP3   OH232402   0.171   2.157   5.142
10820TIP3    H132403   0.228   2.212   5.195
10820TIP3    H232404   0.126   2.101   5.205
10821TIP3   OH232405   7.096   3.267   3.384
10821TIP3    H132406   7.093   3.362   3.395
10821TIP3    H232407   7.010   3.237   3.414
10822TIP3   OH232408   2.574   3.706   1.995
10822TIP3    H132409   2.641   3.756   2.042
10822TIP3    H232410   2.621   3.631   1.959
10823TIP3   OH232411   1.123   1.776   4.479
10823TIP3    H132412   1.086   1.859   4.509
10823TIP3    H232413   1.117   1.718   4.556
10824TIP3   OH232414   1.582   7.690   2.265
10824TIP3    H132415   1.600   7.705   2.358
10824TIP3    H232416   1.666   7.702   2.222
10825TIP3   OH232417   8.252   1.346   2.306
10825TIP3    H132418   8.166   1.360   2.266
10825TIP3    H232419   8.260   1.417   2.369
10826TIP3   OH232420   7.179   2.785   1.949
10826TIP3    H132421   7.141   2.697   1.951
10826TIP3    H232422   7.264   2.774   1.907
10827TIP3   OH232423   6.427   2.324   6.585
10827TIP3    H132424   6.475   2.385   6.529
10827TIP3    H232425   6.475   2.324   6.668
10828TIP3   OH232426   4.466   2.812   3.310
10828TIP3    H132427   4.405   2.879   3.343
10828TIP3    H232428   4.553   2.849   3.327
10829TIP3   OH232429   7.938   2.616   3.021
10829TIP3    H132430   7.943   2.665   2.939
10829TIP3    H232431   8.019   2.638   3.067
10830TIP3   OH232432   0.415   5.792   1.635
10830TIP3    H132433   0.428   5.716   1.578
10830TIP3    H232434   0.477   5.857   1.603
10831TIP3   OH232435   4.753   2.845   3.074
10831TIP3    H132436   4.736   2.761   3.118
10831TIP3    H232437   4.812   2.823   3.002
10832TIP3   OH232438   4.114   6.919   0.942
10832TIP3    H132439   4.092   6.826   0.949
10832TIP3    H232440   4.149   6.942   1.028
10833TIP3   OH232441   4.840   5.810   6.716
10833TIP3    H132442   4.802   5.764   6.791
10833TIP3    H232443   4.834   5.747   6.644
10834TIP3   OH232444   3.270   0.369   0.770
10834TIP3    H132445   3.264   0.421   0.689
10834TIP3    H232446   3.206   0.299   0.757
10835TIP3   OH232447   8.114   4.554   3.679
10835TIP3    H132448   8.054   4.513   3.742
10835TIP3    H232449   8.093   4.647   3.684
10836TIP3   OH232450   5.524   1.779   3.609
10836TIP3    H132451   5.483   1.855   3.652
10836TIP3    H232452   5.453   1.740   3.558
10837TIP3   OH232453   7.496   5.516   6.036
10837TIP3    H132454   7.533   5.550   5.955
10837TIP3    H232455   7.495   5.421   6.025
10838TIP3   OH232456   2.142   4.323   1.310
10838TIP3    H132457   2.104   4.245   1.350
10838TIP3    H232458   2.154   4.300   1.218
10839TIP3   OH232459   0.993   2.972   0.141
10839TIP3    H132460   0.940   2.901   0.177
10839TIP3    H232461   1.067   2.928   0.099
10840TIP3   OH232462   2.428   0.137   0.768
10840TIP3    H132463   2.376   0.057   0.766
10840TIP3    H232464   2.391   0.188   0.840
10841TIP3   OH232465   5.716  -0.011   2.938
10841TIP3    H132466   5.761   0.001   2.854
10841TIP3    H232467   5.704   0.078   2.971
10842TIP3   OH232468   1.226   3.451   2.479
10842TIP3    H132469   1.136   3.434   2.450
10842TIP3    H232470   1.217   3.469   2.573
10843TIP3   OH232471   0.197   4.817   5.535
10843TIP3    H132472   0.123   4.757   5.548
10843TIP3    H232473   0.254   4.772   5.473
10844TIP3   OH232474   0.592   1.353   6.183
10844TIP3    H132475   0.665   1.291   6.175
10844TIP3    H232476   0.575   1.380   6.093
10845TIP3   OH232477   3.661   5.926   0.087
10845TIP3    H132478   3.636   6.008   0.044
10845TIP3    H232479   3.715   5.953   0.162
10846TIP3   OH232480   4.707   1.299   1.421
10846TIP3    H132481   4.620   1.328   1.396
10846TIP3    H232482   4.734   1.359   1.490
10847TIP3   OH232483   4.355   3.850   0.261
10847TIP3    H132484   4.325   3.936   0.289
10847TIP3    H232485   4.302   3.788   0.311
10848TIP3   OH232486   0.898   2.819   3.507
10848TIP3    H132487   0.897   2.894   3.566
10848TIP3    H232488   0.924   2.856   3.422
10849TIP3   OH232489   0.199   1.764   3.258
10849TIP3    H132490   0.182   1.858   3.267
10849TIP3    H232491   0.207   1.750   3.164
10850TIP3   OH232492   0.898   4.177   3.151
10850TIP3    H132493   0.986   4.193   3.184
10850TIP3    H232494   0.845   4.248   3.187
10851TIP3   OH232495   4.170   1.661   0.417
10851TIP3    H132496   4.204   1.572   0.423
10851TIP3    H232497   4.216   1.709   0.485
10852TIP3   OH232498   4.209   1.165   1.191
10852TIP3    H132499   4.288   1.135   1.236
10852TIP3    H232500   4.136   1.126   1.240
10853TIP3   OH232501   3.167   1.798   3.261
10853TIP3    H132502   3.251   1.751   3.265
10853TIP3    H232503   3.102   1.733   3.287
10854TIP3   OH232504   2.141   5.906   0.559
10854TIP3    H132505   2.159   5.918   0.653
10854TIP3    H232506   2.195   5.832   0.533
10855TIP3   OH232507   2.149   4.801   2.179
10855TIP3    H132508   2.069   4.847   2.204
10855TIP3    H232509   2.216   4.869   2.179
10856TIP3   OH232510   4.125   6.974   0.262
10856TIP3    H132511   4.038   6.944   0.291
10856TIP3    H232512   4.151   6.909   0.196
10857TIP3   OH232513   3.268   3.618   4.549
10857TIP3    H132514   3.275   3.537   4.598
10857TIP3    H232515   3.201   3.668   4.595
10858TIP3   OH232516   0.488   1.492   6.605
10858TIP3    H132517   0.472   1.399   6.595
10858TIP3    H232518   0.474   1.509   6.699
10859TIP3   OH232519   6.890   0.711   0.786
10859TIP3    H132520   6.937   0.725   0.868
10859TIP3    H232521   6.879   0.800   0.750
10860TIP3   OH232522   6.332   0.907   3.456
10860TIP3    H132523   6.403   0.848   3.429
10860TIP3    H232524   6.264   0.893   3.391
10861TIP3   OH232525   6.121   6.608   4.552
10861TIP3    H132526   6.110   6.644   4.464
10861TIP3    H232527   6.209   6.571   4.552
10862TIP3   OH232528   4.254   6.763   2.193
10862TIP3    H132529   4.231   6.672   2.172
10862TIP3    H232530   4.256   6.807   2.108
10863TIP3   OH232531   5.583   1.599   6.405
10863TIP3    H132532   5.659   1.565   6.358
10863TIP3    H232533   5.611   1.602   6.496
10864TIP3   OH232534   2.418   7.565   5.169
10864TIP3    H132535   2.383   7.636   5.222
10864TIP3    H232536   2.397   7.589   5.079
10865TIP3   OH232537   5.635   2.449   1.324
10865TIP3    H132538   5.714   2.448   1.379
10865TIP3    H232539   5.665   2.486   1.241
10866TIP3   OH232540   0.118   0.650   1.782
10866TIP3    H132541   0.140   0.561   1.757
10866TIP3    H232542   0.025   0.647   1.805
10867TIP3   OH232543   7.138   7.518   5.073
10867TIP3    H132544   7.049   7.525   5.106
10867TIP3    H232545   7.144   7.586   5.005
10868TIP3   OH232546   8.114   2.711   0.137
10868TIP3    H132547   8.193   2.705   0.191
10868TIP3    H232548   8.074   2.794   0.163
10869TIP3   OH232549   4.937   0.010   1.847
10869TIP3    H132550   5.000   0.080   1.861
10869TIP3    H232551   4.960  -0.028   1.762
10870TIP3   OH232552   6.159   3.267   2.305
10870TIP3    H132553   6.210   3.191   2.276
10870TIP3    H232554   6.153   3.322   2.228
10871TIP3   OH232555   2.455   5.573   6.259
10871TIP3    H132556   2.519   5.639   6.290
10871TIP3    H232557   2.498   5.489   6.277
10872TIP3   OH232558   3.574   1.620   3.528
10872TIP3    H132559   3.622   1.699   3.553
10872TIP3    H232560   3.568   1.569   3.608
10873TIP3   OH232561   2.495   5.211   3.993
10873TIP3    H132562   2.507   5.260   3.912
10873TIP3    H232563   2.420   5.154   3.975
10874TIP3   OH232564   3.647   2.015   0.493
10874TIP3    H132565   3.639   1.927   0.529
10874TIP3    H232566   3.610   2.009   0.405
10875TIP3   OH232567   7.345   4.462   3.528
10875TIP3    H132568   7.346   4.436   3.436
10875TIP3    H232569   7.347   4.379   3.576
10876TIP3   OH232570   5.695   6.291   5.032
10876TIP3    H132571   5.778   6.245   5.015
10876TIP3    H232572   5.632   6.248   4.975
10877TIP3   OH232573   5.965   6.560   6.038
10877TIP3    H132574   5.928   6.649   6.032
10877TIP3    H232575   6.056   6.570   6.011
10878TIP3   OH232576   5.878   7.645   3.618
10878TIP3    H132577   5.787   7.634   3.590
10878TIP3    H232578   5.909   7.722   3.570
10879TIP3   OH232579   7.441   0.084   4.968
10879TIP3    H132580   7.487   0.083   4.884
10879TIP3    H232581   7.467   0.167   5.009
10880TIP3   OH232582   6.828   1.029   1.772
10880TIP3    H132583   6.872   1.088   1.833
10880TIP3    H232584   6.742   1.069   1.758
10881TIP3   OH232585   7.125   2.620   3.337
10881TIP3    H132586   7.155   2.711   3.331
10881TIP3    H232587   7.077   2.616   3.420
10882TIP3   OH232588   4.673   0.095   3.621
10882TIP3    H132589   4.693   0.044   3.542
10882TIP3    H232590   4.697   0.185   3.597
10883TIP3   OH232591   6.020   1.684   6.380
10883TIP3    H132592   6.044   1.685   6.473
10883TIP3    H232593   5.963   1.609   6.370
10884TIP3   OH232594   5.999   5.754   2.947
10884TIP3    H132595   6.019   5.786   2.859
10884TIP3    H232596   5.906   5.735   2.946
10885TIP3   OH232597   7.438   0.148   3.576
10885TIP3    H132598   7.355   0.143   3.625
10885TIP3    H232599   7.420   0.211   3.506
10886TIP3   OH232600   1.893   5.243   4.457
10886TIP3    H132601   1.937   5.298   4.522
10886TIP3    H232602   1.883   5.300   4.381
10887TIP3   OH232603   4.452   2.711   6.263
10887TIP3    H132604   4.487   2.711   6.352
10887TIP3    H232605   4.524   2.742   6.209
10888TIP3   OH232606   5.561   3.505   4.718
10888TIP3    H132607   5.612   3.454   4.782
10888TIP3    H232608   5.619   3.512   4.642
10889TIP3   OH232609   0.541   6.602   3.110
10889TIP3    H132610   0.609   6.619   3.045
10889TIP3    H232611   0.509   6.688   3.134
10890TIP3   OH232612   5.290   5.782   3.536
10890TIP3    H132613   5.326   5.860   3.494
10890TIP3    H232614   5.361   5.749   3.591
10891TIP3   OH232615   0.810   3.039   5.069
10891TIP3    H132616   0.734   2.990   5.100
10891TIP3    H232617   0.796   3.049   4.975
10892TIP3   OH232618   7.831   2.760   4.014
10892TIP3    H132619   7.768   2.818   3.971
10892TIP3    H232620   7.808   2.672   3.984
10893TIP3   OH232621   4.979   0.293   5.774
10893TIP3    H132622   5.025   0.312   5.692
10893TIP3    H232623   5.039   0.319   5.843
10894TIP3   OH232624   7.895   0.060   1.894
10894TIP3    H132625   7.835   0.055   1.819
10894TIP3    H232626   7.977   0.022   1.863
10895TIP3   OH232627   3.903   6.336   0.006
10895TIP3    H132628   3.966   6.302   0.070
10895TIP3    H232629   3.953   6.345  -0.075
10896TIP3   OH232630   6.424   0.722   0.496
10896TIP3    H132631   6.377   0.805   0.484
10896TIP3    H232632   6.517   0.747   0.499
10897TIP3   OH232633   7.528   2.598   3.675
10897TIP3    H132634   7.603   2.586   3.617
10897TIP3    H232635   7.454   2.560   3.627
10898TIP3   OH232636   6.454   7.341   0.890
10898TIP3    H132637   6.542   7.363   0.861
10898TIP3    H232638   6.398   7.366   0.816
10899TIP3   OH232639   5.059   7.674   1.602
10899TIP3    H132640   5.004   7.612   1.555
10899TIP3    H232641   5.149   7.645   1.585
10900TIP3   OH232642   2.594   7.097   5.155
10900TIP3    H132643   2.671   7.126   5.106
10900TIP3    H232644   2.529   7.166   5.140
10901TIP3   OH232645   2.769   1.037   0.689
10901TIP3    H132646   2.684   0.998   0.672
10901TIP3    H232647   2.762   1.073   0.777
10902TIP3   OH232648   7.566   0.798   2.350
10902TIP3    H132649   7.635   0.851   2.310
10902TIP3    H232650   7.492   0.804   2.289
10903TIP3   OH232651   3.381   0.414   1.301
10903TIP3    H132652   3.362   0.488   1.360
10903TIP3    H232653   3.372   0.337   1.357
10904TIP3   OH232654   5.688   7.237   2.999
10904TIP3    H132655   5.756   7.285   2.951
10904TIP3    H232656   5.612   7.241   2.942
10905TIP3   OH232657   7.557   6.820   3.541
10905TIP3    H132658   7.647   6.819   3.575
10905TIP3    H232659   7.550   6.905   3.496
10906TIP3   OH232660   7.064   0.865   6.101
10906TIP3    H132661   7.103   0.927   6.162
10906TIP3    H232662   7.100   0.780   6.127
10907TIP3   OH232663   3.272   3.810   2.653
10907TIP3    H132664   3.368   3.814   2.654
10907TIP3    H232665   3.248   3.791   2.744
10908TIP3   OH232666   0.190   3.642   3.561
10908TIP3    H132667   0.207   3.730   3.527
10908TIP3    H232668   0.096   3.629   3.546
10909TIP3   OH232669   2.400   6.662   0.867
10909TIP3    H132670   2.453   6.691   0.941
10909TIP3    H232671   2.374   6.743   0.823
10910TIP3   OH232672   2.507   6.638   2.336
10910TIP3    H132673   2.514   6.638   2.431
10910TIP3    H232674   2.597   6.626   2.305
10911TIP3   OH232675   4.546   6.236   3.022
10911TIP3    H132676   4.490   6.308   2.992
10911TIP3    H232677   4.531   6.232   3.116
10912TIP3   OH232678   4.795   1.283   5.644
10912TIP3    H132679   4.847   1.285   5.563
10912TIP3    H232680   4.857   1.309   5.712
10913TIP3   OH232681   7.402   4.968   2.708
10913TIP3    H132682   7.309   4.954   2.690
10913TIP3    H232683   7.425   4.903   2.774
10914TIP3   OH232684   3.812   7.111   3.544
10914TIP3    H132685   3.863   7.120   3.624
10914TIP3    H232686   3.876   7.121   3.473
10915TIP3   OH232687   7.531   5.802   5.111
10915TIP3    H132688   7.498   5.844   5.031
10915TIP3    H232689   7.624   5.824   5.113
10916TIP3   OH232690   5.952   4.299   0.622
10916TIP3    H132691   5.999   4.223   0.588
10916TIP3    H232692   5.888   4.319   0.553
10917TIP3   OH232693   6.899   4.733   5.690
10917TIP3    H132694   6.910   4.643   5.658
10917TIP3    H232695   6.951   4.786   5.630
10918TIP3   OH232696   4.345   1.360   6.157
10918TIP3    H132697   4.250   1.346   6.157
10918TIP3    H232698   4.376   1.314   6.079
10919TIP3   OH232699   3.353   5.737   2.648
10919TIP3    H132700   3.284   5.765   2.708
10919TIP3    H232701   3.422   5.803   2.659
10920TIP3   OH232702   1.554   5.283   3.901
10920TIP3    H132703   1.491   5.352   3.881
10920TIP3    H232704   1.500   5.206   3.921
10921TIP3   OH232705   1.152   4.081   5.674
10921TIP3    H132706   1.145   4.176   5.671
10921TIP3    H232707   1.155   4.060   5.767
10922TIP3   OH232708   8.127   2.527   3.308
10922TIP3    H132709   8.049   2.583   3.304
10922TIP3    H232710   8.199   2.588   3.322
10923TIP3   OH232711   1.452   0.259   6.543
10923TIP3    H132712   1.391   0.189   6.566
10923TIP3    H232713   1.537   0.215   6.534
10924TIP3   OH232714   7.105   2.912   4.834
10924TIP3    H132715   7.139   2.870   4.913
10924TIP3    H232716   7.126   2.851   4.764
10925TIP3   OH232717   5.529   0.106   5.253
10925TIP3    H132718   5.479   0.099   5.334
10925TIP3    H232719   5.617   0.078   5.275
10926TIP3   OH232720   3.894   5.746   2.822
10926TIP3    H132721   3.965   5.797   2.861
10926TIP3    H232722   3.863   5.799   2.749
10927TIP3   OH232723   8.000   3.243   5.268
10927TIP3    H132724   7.916   3.286   5.282
10927TIP3    H232725   7.977   3.151   5.251
10928TIP3   OH232726   7.310   3.984   4.998
10928TIP3    H132727   7.286   3.902   5.041
10928TIP3    H232728   7.255   4.050   5.040
10929TIP3   OH232729   3.656   7.360   0.143
10929TIP3    H132730   3.664   7.452   0.117
10929TIP3    H232731   3.569   7.334   0.113
10930TIP3   OH232732   0.380   6.420   2.601
10930TIP3    H132733   0.374   6.515   2.612
10930TIP3    H232734   0.322   6.385   2.669
10931TIP3   OH232735   3.461   3.636   4.923
10931TIP3    H132736   3.455   3.648   5.018
10931TIP3    H232737   3.539   3.583   4.910
10932TIP3   OH232738   1.892   1.385   6.362
10932TIP3    H132739   1.924   1.475   6.373
10932TIP3    H232740   1.818   1.378   6.422
10933TIP3   OH232741   0.740   5.114   5.771
10933TIP3    H132742   0.669   5.177   5.773
10933TIP3    H232743   0.732   5.072   5.685
10934TIP3   OH232744   5.927   6.128   4.970
10934TIP3    H132745   5.956   6.191   4.904
10934TIP3    H232746   6.004   6.073   4.986
10935TIP3   OH232747   1.872   1.414   4.110
10935TIP3    H132748   1.860   1.319   4.101
10935TIP3    H232749   1.868   1.447   4.020
10936TIP3   OH232750   6.172   3.920   2.929
10936TIP3    H132751   6.150   3.827   2.941
10936TIP3    H232752   6.092   3.959   2.895
10937TIP3   OH232753   7.506   6.999   4.380
10937TIP3    H132754   7.528   6.930   4.442
10937TIP3    H232755   7.575   6.995   4.314
10938TIP3   OH232756   1.067   4.844   0.066
10938TIP3    H132757   1.006   4.824   0.138
10938TIP3    H232758   1.148   4.800   0.091
10939TIP3   OH232759   4.609   5.302   1.549
10939TIP3    H132760   4.669   5.261   1.486
10939TIP3    H232761   4.571   5.376   1.502
10940TIP3   OH232762   7.419   6.005   0.749
10940TIP3    H132763   7.438   6.075   0.811
10940TIP3    H232764   7.350   6.041   0.693
10941TIP3   OH232765   2.607   0.740   6.063
10941TIP3    H132766   2.549   0.738   6.140
10941TIP3    H232767   2.565   0.680   6.001
10942TIP3   OH232768   6.949   0.348   4.702
10942TIP3    H132769   6.991   0.274   4.660
10942TIP3    H232770   7.021   0.401   4.737
10943TIP3   OH232771   3.768   2.827   5.534
10943TIP3    H132772   3.708   2.872   5.475
10943TIP3    H232773   3.782   2.889   5.606
10944TIP3   OH232774   5.305   2.634   2.744
10944TIP3    H132775   5.278   2.571   2.810
10944TIP3    H232776   5.314   2.717   2.792
10945TIP3   OH232777   7.084   1.872   2.003
10945TIP3    H132778   7.075   1.812   2.077
10945TIP3    H232779   7.171   1.853   1.966
10946TIP3   OH232780   0.418   1.693   5.378
10946TIP3    H132781   0.387   1.779   5.350
10946TIP3    H232782   0.502   1.711   5.421
10947TIP3   OH232783   7.828   5.798   1.732
10947TIP3    H132784   7.910   5.753   1.713
10947TIP3    H232785   7.809   5.775   1.823
10948TIP3   OH232786   2.712   4.667   3.127
10948TIP3    H132787   2.798   4.709   3.138
10948TIP3    H232788   2.650   4.731   3.162
10949TIP3   OH232789   6.113   1.035   4.272
10949TIP3    H132790   6.186   0.974   4.264
10949TIP3    H232791   6.146   1.117   4.236
10950TIP3   OH232792   7.284   2.771   2.981
10950TIP3    H132793   7.227   2.773   2.905
10950TIP3    H232794   7.238   2.717   3.045
10951TIP3   OH232795   6.056   6.581   0.154
10951TIP3    H132796   6.124   6.514   0.153
10951TIP3    H232797   6.046   6.608   0.063
10952TIP3   OH232798   1.029   3.672   2.372
10952TIP3    H132799   1.071   3.713   2.297
10952TIP3    H232800   0.984   3.595   2.336
10953TIP3   OH232801   3.575   2.668   6.214
10953TIP3    H132802   3.588   2.762   6.230
10953TIP3    H232803   3.492   2.663   6.168
10954TIP3   OH232804   1.847   5.300   6.545
10954TIP3    H132805   1.902   5.376   6.562
10954TIP3    H232806   1.764   5.320   6.589
10955TIP3   OH232807   5.030   7.136   4.111
10955TIP3    H132808   5.051   7.206   4.048
10955TIP3    H232809   5.115   7.102   4.139
10956TIP3   OH232810   4.581   6.874   5.896
10956TIP3    H132811   4.611   6.949   5.844
10956TIP3    H232812   4.659   6.819   5.904
10957TIP3   OH232813   1.279   7.688   5.186
10957TIP3    H132814   1.301   7.762   5.243
10957TIP3    H232815   1.238   7.624   5.244
10958TIP3   OH232816   7.183   1.881   4.851
10958TIP3    H132817   7.136   1.950   4.897
10958TIP3    H232818   7.241   1.843   4.917
10959TIP3   OH232819   5.835   7.427   4.469
10959TIP3    H132820   5.759   7.450   4.416
10959TIP3    H232821   5.812   7.342   4.508
10960TIP3   OH232822   7.163   4.945   5.036
10960TIP3    H132823   7.188   4.978   5.122
10960TIP3    H232824   7.105   5.013   5.001
10961TIP3   OH232825   7.105   5.821   4.220
10961TIP3    H132826   7.152   5.815   4.304
10961TIP3    H232827   7.013   5.828   4.244
10962TIP3   OH232828   5.772   3.563   0.850
10962TIP3    H132829   5.721   3.545   0.770
10962TIP3    H232830   5.803   3.652   0.839
10963TIP3   OH232831   7.902   0.855   5.701
10963TIP3    H132832   7.960   0.833   5.774
10963TIP3    H232833   7.817   0.820   5.726
10964TIP3   OH232834   6.282   3.081   3.319
10964TIP3    H132835   6.319   2.993   3.330
10964TIP3    H232836   6.321   3.132   3.390
10965TIP3   OH232837   3.683   4.791   3.821
10965TIP3    H132838   3.662   4.788   3.728
10965TIP3    H232839   3.752   4.724   3.832
10966TIP3   OH232840   6.735   0.725   0.218
10966TIP3    H132841   6.748   0.815   0.250
10966TIP3    H232842   6.822   0.685   0.225
10967TIP3   OH232843   6.469   7.577   2.876
10967TIP3    H132844   6.385   7.587   2.831
10967TIP3    H232845   6.484   7.483   2.879
10968TIP3   OH232846   6.073   5.814   5.256
10968TIP3    H132847   5.996   5.774   5.296
10968TIP3    H232848   6.140   5.811   5.325
10969TIP3   OH232849   7.349   1.747   5.678
10969TIP3    H132850   7.259   1.715   5.670
10969TIP3    H232851   7.350   1.829   5.629
10970TIP3   OH232852   4.726   3.567   2.079
10970TIP3    H132853   4.756   3.488   2.033
10970TIP3    H232854   4.803   3.623   2.083
10971TIP3   OH232855   3.519   1.398   4.254
10971TIP3    H132856   3.559   1.407   4.340
10971TIP3    H232857   3.562   1.321   4.216
10972TIP3   OH232858   0.432   2.144   2.451
10972TIP3    H132859   0.403   2.209   2.387
10972TIP3    H232860   0.449   2.194   2.530
10973TIP3   OH232861   1.136   6.401   3.483
10973TIP3    H132862   1.092   6.480   3.454
10973TIP3    H232863   1.067   6.348   3.523
10974TIP3   OH232864   7.258   2.983   1.287
10974TIP3    H132865   7.186   3.033   1.325
10974TIP3    H232866   7.302   3.043   1.227
10975TIP3   OH232867   4.468   6.881   5.062
10975TIP3    H132868   4.373   6.878   5.074
10975TIP3    H232869   4.503   6.895   5.150
10976TIP3   OH232870   4.635   7.522   6.660
10976TIP3    H132871   4.643   7.451   6.596
10976TIP3    H232872   4.544   7.518   6.688
10977TIP3   OH232873   2.999   1.898   0.175
10977TIP3    H132874   2.990   1.803   0.173
10977TIP3    H232875   2.936   1.929   0.110
10978TIP3   OH232876   2.555   5.387   6.484
10978TIP3    H132877   2.645   5.355   6.493
10978TIP3    H232878   2.556   5.473   6.526
10979TIP3   OH232879   1.079   6.178   0.529
10979TIP3    H132880   1.025   6.128   0.467
10979TIP3    H232881   1.061   6.270   0.507
10980TIP3   OH232882   7.195   2.747   6.489
10980TIP3    H132883   7.288   2.746   6.465
10980TIP3    H232884   7.194   2.780   6.579
10981TIP3   OH232885   6.096   1.594   0.847
10981TIP3    H132886   6.075   1.624   0.758
10981TIP3    H232887   6.057   1.660   0.904
10982TIP3   OH232888   6.845   2.566   3.869
10982TIP3    H132889   6.937   2.590   3.857
10982TIP3    H232890   6.847   2.474   3.896
10983TIP3   OH232891   7.789   6.207   6.180
10983TIP3    H132892   7.788   6.220   6.275
10983TIP3    H232893   7.704   6.167   6.161
10984TIP3   OH232894   6.707   6.898   4.166
10984TIP3    H132895   6.711   6.872   4.258
10984TIP3    H232896   6.794   6.878   4.131
10985TIP3   OH232897   4.772   4.332   3.333
10985TIP3    H132898   4.842   4.320   3.269
10985TIP3    H232899   4.818   4.347   3.416
10986TIP3   OH232900   7.908   3.964   2.078
10986TIP3    H132901   7.964   3.890   2.101
10986TIP3    H232902   7.831   3.925   2.039
10987TIP3   OH232903   5.958   4.526   6.291
10987TIP3    H132904   5.892   4.580   6.247
10987TIP3    H232905   5.952   4.442   6.247
10988TIP3   OH232906   6.370   6.095   1.129
10988TIP3    H132907   6.431   6.022   1.135
10988TIP3    H232908   6.420   6.171   1.159
10989TIP3   OH232909   7.027   7.136   4.163
10989TIP3    H132910   7.107   7.134   4.110
10989TIP3    H232911   7.041   7.069   4.230
10990TIP3   OH232912   6.290   0.388   2.810
10990TIP3    H132913   6.210   0.344   2.780
10990TIP3    H232914   6.291   0.471   2.763
10991TIP3   OH232915   2.674   2.295   0.308
10991TIP3    H132916   2.688   2.252   0.392
10991TIP3    H232917   2.709   2.384   0.320
10992TIP3   OH232918   3.949   4.910   2.474
10992TIP3    H132919   3.965   4.827   2.518
10992TIP3    H232920   4.034   4.934   2.437
10993TIP3   OH232921   3.934   6.694   6.155
10993TIP3    H132922   4.017   6.680   6.110
10993TIP3    H232923   3.900   6.606   6.173
10994TIP3   OH232924   6.212   1.297   3.963
10994TIP3    H132925   6.278   1.255   4.019
10994TIP3    H232926   6.245   1.386   3.950
10995TIP3   OH232927   4.655   0.686   1.711
10995TIP3    H132928   4.694   0.598   1.712
10995TIP3    H232929   4.581   0.679   1.651
10996TIP3   OH232930   5.347   2.232   3.469
10996TIP3    H132931   5.379   2.159   3.416
10996TIP3    H232932   5.426   2.282   3.490
10997TIP3   OH232933   6.294   2.610   0.107
10997TIP3    H132934   6.362   2.677   0.103
10997TIP3    H232935   6.316   2.548   0.038
10998TIP3   OH232936   1.138   0.008   1.370
10998TIP3    H132937   1.136   0.072   1.299
10998TIP3    H232938   1.049   0.008   1.404
10999TIP3   OH232939   6.744   4.549   3.479
10999TIP3    H132940   6.654   4.581   3.475
10999TIP3    H232941   6.776   4.577   3.564
11000TIP3   OH232942   7.502   1.019   5.750
11000TIP3    H132943   7.411   1.007   5.779
11000TIP3    H232944   7.498   1.094   5.691
11001TIP3   OH232945   0.411   6.684   1.485
11001TIP3    H132946   0.432   6.721   1.571
11001TIP3    H232947   0.369   6.755   1.437
11002TIP3   OH232948   3.447   5.960   0.789
11002TIP3    H132949   3.466   6.009   0.709
11002TIP3    H232950   3.405   5.880   0.758
11003TIP3   OH232951   6.511   0.536   0.148
11003TIP3    H132952   6.579   0.595   0.182
11003TIP3    H232953   6.483   0.577   0.066
11004TIP3   OH232954   0.367   3.785   5.581
11004TIP3    H132955   0.450   3.832   5.587
11004TIP3    H232956   0.334   3.781   5.671
11005TIP3   OH232957   3.038   6.848   4.611
11005TIP3    H132958   3.029   6.789   4.686
11005TIP3    H232959   3.130   6.873   4.611
11006TIP3   OH232960   1.498   4.474   6.495
11006TIP3    H132961   1.565   4.441   6.555
11006TIP3    H232962   1.516   4.431   6.412
11007TIP3   OH232963   1.437   2.850   6.565
11007TIP3    H132964   1.488   2.815   6.491
11007TIP3    H232965   1.487   2.925   6.596
11008TIP3   OH232966   6.970   1.249   1.859
11008TIP3    H132967   6.995   1.245   1.951
11008TIP3    H232968   7.052   1.254   1.811
11009TIP3   OH232969   4.989   2.442   5.460
11009TIP3    H132970   5.017   2.497   5.387
11009TIP3    H232971   5.062   2.383   5.476
11010TIP3   OH232972   1.962   3.493   3.869
11010TIP3    H132973   1.969   3.437   3.792
11010TIP3    H232974   1.894   3.453   3.922
11011TIP3   OH232975   2.266   4.682   2.787
11011TIP3    H132976   2.329   4.611   2.774
11011TIP3    H232977   2.195   4.663   2.726
11012TIP3   OH232978   0.643   3.170   4.763
11012TIP3    H132979   0.685   3.161   4.678
11012TIP3    H232980   0.554   3.136   4.750
11013TIP3   OH232981   6.854   6.460   0.779
11013TIP3    H132982   6.842   6.537   0.835
11013TIP3    H232983   6.787   6.470   0.711
11014TIP3   OH232984   8.190   2.534   4.806
11014TIP3    H132985   8.180   2.451   4.852
11014TIP3    H232986   8.127   2.529   4.734
11015TIP3   OH232987   6.772   2.881   6.306
11015TIP3    H132988   6.791   2.802   6.256
11015TIP3    H232989   6.841   2.942   6.282
11016TIP3   OH232990   5.822   1.999   0.773
11016TIP3    H132991   5.859   2.048   0.700
11016TIP3    H232992   5.776   1.926   0.732
11017TIP3   OH232993   4.030   1.524   5.562
11017TIP3    H132994   4.011   1.480   5.479
11017TIP3    H232995   3.970   1.482   5.624
11018TIP3   OH232996   7.016   1.124   0.187
11018TIP3    H132997   7.084   1.122   0.120
11018TIP3    H232998   7.012   1.034   0.220
11019TIP3   OH232999   4.734   4.959   2.730
11019TIP3    H133000   4.728   4.868   2.759
11019TIP3    H233001   4.723   4.954   2.635
11020TIP3   OH233002   4.190   6.441   4.571
11020TIP3    H133003   4.161   6.443   4.663
11020TIP3    H233004   4.285   6.436   4.577
11021TIP3   OH233005   8.277   4.989   1.476
11021TIP3    H133006   8.255   5.059   1.414
11021TIP3    H233007   8.228   4.913   1.444
11022TIP3   OH233008   4.954   1.444   5.209
11022TIP3    H133009   4.916   1.530   5.192
11022TIP3    H233010   5.005   1.423   5.131
11023TIP3   OH233011   1.181   4.253   0.775
11023TIP3    H133012   1.195   4.180   0.836
11023TIP3    H233013   1.088   4.248   0.753
11024TIP3   OH233014   2.975   7.009   3.315
11024TIP3    H133015   2.919   6.944   3.357
11024TIP3    H233016   3.064   6.981   3.335
11025TIP3   OH233017   3.223   1.138   1.760
11025TIP3    H133018   3.213   1.069   1.695
11025TIP3    H233019   3.185   1.101   1.840
11026TIP3   OH233020   5.388   1.339   6.298
11026TIP3    H133021   5.378   1.398   6.372
11026TIP3    H233022   5.482   1.335   6.283
11027TIP3   OH233023   1.733   5.966   2.929
11027TIP3    H133024   1.685   5.992   3.008
11027TIP3    H233025   1.750   5.873   2.940
11028TIP3   OH233026   5.961   0.870   2.449
11028TIP3    H133027   5.908   0.866   2.369
11028TIP3    H233028   6.035   0.925   2.425
11029TIP3   OH233029   2.409   5.492   4.753
11029TIP3    H133030   2.502   5.514   4.757
11029TIP3    H233031   2.375   5.546   4.681
11030TIP3   OH233032   0.673   6.510   6.504
11030TIP3    H133033   0.670   6.414   6.511
11030TIP3    H233034   0.750   6.535   6.556
11031TIP3   OH233035   3.895   4.902   4.427
11031TIP3    H133036   3.981   4.935   4.450
11031TIP3    H233037   3.866   4.958   4.355
11032TIP3   OH233038   3.434   3.316   2.935
11032TIP3    H133039   3.430   3.393   2.993
11032TIP3    H233040   3.342   3.293   2.921
11033TIP3   OH233041   7.195   5.904   0.094
11033TIP3    H133042   7.237   5.833   0.045
11033TIP3    H233043   7.237   5.901   0.180
11034TIP3   OH233044   3.861   2.588   2.601
11034TIP3    H133045   3.905   2.659   2.649
11034TIP3    H233046   3.772   2.621   2.587
11035TIP3   OH233047   2.782   7.356   4.959
11035TIP3    H133048   2.871   7.360   4.995
11035TIP3    H233049   2.735   7.427   5.004
11036TIP3   OH233050   2.608   4.299   3.793
11036TIP3    H133051   2.563   4.304   3.877
11036TIP3    H233052   2.693   4.261   3.814
11037TIP3   OH233053   2.730   5.235   1.823
11037TIP3    H133054   2.749   5.326   1.801
11037TIP3    H233055   2.675   5.205   1.751
11038TIP3   OH233056   3.203   0.485   5.583
11038TIP3    H133057   3.298   0.495   5.575
11038TIP3    H233058   3.177   0.559   5.639
11039TIP3   OH233059   5.111   1.053   1.220
11039TIP3    H133060   5.134   0.961   1.210
11039TIP3    H233061   5.041   1.067   1.156
11040TIP3   OH233062   7.263   1.824   3.768
11040TIP3    H133063   7.331   1.793   3.829
11040TIP3    H233064   7.202   1.750   3.760
11041TIP3   OH233065   0.927   5.746   2.639
11041TIP3    H133066   0.917   5.840   2.624
11041TIP3    H233067   0.995   5.740   2.707
11042TIP3   OH233068   7.406   7.441   3.700
11042TIP3    H133069   7.484   7.447   3.755
11042TIP3    H233070   7.413   7.515   3.640
11043TIP3   OH233071   0.374   6.864   5.023
11043TIP3    H133072   0.325   6.945   5.029
11043TIP3    H233073   0.464   6.892   5.005
11044TIP3   OH233074   5.680   5.929   5.402
11044TIP3    H133075   5.597   5.975   5.399
11044TIP3    H233076   5.734   5.972   5.335
11045TIP3   OH233077   6.714   4.465   4.349
11045TIP3    H133078   6.809   4.473   4.362
11045TIP3    H233079   6.700   4.373   4.326
11046TIP3   OH233080   3.215   3.813   6.411
11046TIP3    H133081   3.305   3.814   6.442
11046TIP3    H233082   3.186   3.904   6.420
11047TIP3   OH233083   3.242   4.978   5.712
11047TIP3    H133084   3.166   4.932   5.748
11047TIP3    H233085   3.205   5.041   5.651
11048TIP3   OH233086   4.975   3.132   2.052
11048TIP3    H133087   4.932   3.144   2.137
11048TIP3    H233088   5.062   3.169   2.063
11049TIP3   OH233089   7.729   3.204   0.023
11049TIP3    H133090   7.635   3.210   0.004
11049TIP3    H233091   7.737   3.235   0.113
11050TIP3   OH233092   5.365   4.931   0.795
11050TIP3    H133093   5.383   5.005   0.736
11050TIP3    H233094   5.407   4.955   0.877
11051TIP3   OH233095   4.442   7.253   4.517
11051TIP3    H133096   4.358   7.214   4.494
11051TIP3    H233097   4.426   7.299   4.599
11052TIP3   OH233098   2.536   2.052   1.610
11052TIP3    H133099   2.578   2.138   1.620
11052TIP3    H233100   2.558   2.006   1.691
11053TIP3   OH233101   1.655   3.088   1.232
11053TIP3    H133102   1.627   3.168   1.189
11053TIP3    H233103   1.583   3.027   1.218
11054TIP3   OH233104   0.162   3.338   0.791
11054TIP3    H133105   0.195   3.350   0.880
11054TIP3    H233106   0.185   3.248   0.770
11055TIP3   OH233107   2.671   0.110   1.277
11055TIP3    H133108   2.677   0.081   1.368
11055TIP3    H233109   2.602   0.177   1.278
11056TIP3   OH233110   2.854   6.872   0.846
11056TIP3    H133111   2.789   6.941   0.838
11056TIP3    H233112   2.932   6.908   0.804
11057TIP3   OH233113   6.195   7.492   4.104
11057TIP3    H133114   6.193   7.530   4.016
11057TIP3    H233115   6.175   7.566   4.162
11058TIP3   OH233116  -0.010   6.736   5.375
11058TIP3    H133117   0.082   6.761   5.374
11058TIP3    H233118  -0.032   6.729   5.467
11059TIP3   OH233119   2.370   7.436   1.980
11059TIP3    H133120   2.316   7.434   1.901
11059TIP3    H233121   2.452   7.476   1.951
11060TIP3   OH233122   0.747   1.299   0.592
11060TIP3    H133123   0.689   1.372   0.611
11060TIP3    H233124   0.802   1.290   0.670
11061TIP3   OH233125   8.157   2.190   3.595
11061TIP3    H133126   8.163   2.134   3.517
11061TIP3    H233127   8.122   2.133   3.663
11062TIP3   OH233128   6.444   6.951   2.971
11062TIP3    H133129   6.410   6.913   3.052
11062TIP3    H233130   6.539   6.954   2.984
11063TIP3   OH233131   2.333   4.616   1.742
11063TIP3    H133132   2.254   4.662   1.713
11063TIP3    H233133   2.379   4.680   1.796
11064TIP3   OH233134   4.788   1.540   2.136
11064TIP3    H133135   4.762   1.475   2.201
11064TIP3    H233136   4.842   1.492   2.073
11065TIP3   OH233137   4.976   3.377   2.256
11065TIP3    H133138   5.035   3.335   2.318
11065TIP3    H233139   4.929   3.441   2.308
11066TIP3   OH233140   4.826   7.604   3.176
11066TIP3    H133141   4.869   7.688   3.161
11066TIP3    H233142   4.740   7.627   3.210
11067TIP3   OH233143   3.311   5.033   4.637
11067TIP3    H133144   3.393   5.035   4.686
11067TIP3    H233145   3.316   5.109   4.579
11068TIP3   OH233146   1.398   5.039   6.085
11068TIP3    H133147   1.352   4.992   6.154
11068TIP3    H233148   1.423   5.122   6.125
11069TIP3   OH233149   8.190   6.004   3.068
11069TIP3    H133150   8.217   6.082   3.019
11069TIP3    H233151   8.096   5.996   3.050
11070TIP3   OH233152   4.533   5.001   1.318
11070TIP3    H133153   4.497   4.997   1.407
11070TIP3    H233154   4.614   4.949   1.323
11071TIP3   OH233155   6.627   6.717   5.323
11071TIP3    H133156   6.548   6.662   5.333
11071TIP3    H233157   6.636   6.761   5.407
11072TIP3   OH233158   3.683   2.632   5.684
11072TIP3    H133159   3.755   2.576   5.713
11072TIP3    H233160   3.725   2.704   5.637
11073TIP3   OH233161   0.687   2.458   2.366
11073TIP3    H133162   0.745   2.421   2.432
11073TIP3    H233163   0.737   2.453   2.284
11074TIP3   OH233164   4.098   1.121   3.064
11074TIP3    H133165   4.077   1.099   2.973
11074TIP3    H233166   4.016   1.153   3.100
11075TIP3   OH233167   3.172   0.066   1.246
11075TIP3    H133168   3.137   0.153   1.267
11075TIP3    H233169   3.258   0.083   1.207
11076TIP3   OH233170   5.760   4.664   4.459
11076TIP3    H133171   5.724   4.672   4.547
11076TIP3    H233172   5.704   4.600   4.416
11077TIP3   OH233173   1.129   7.521   5.372
11077TIP3    H133174   1.056   7.562   5.417
11077TIP3    H233175   1.148   7.443   5.423
11078TIP3   OH233176   6.762   6.819   5.120
11078TIP3    H133177   6.735   6.787   5.207
11078TIP3    H233178   6.745   6.913   5.122
11079TIP3   OH233179   3.127   2.905   0.621
11079TIP3    H133180   3.128   2.880   0.528
11079TIP3    H233181   3.218   2.893   0.649
11080TIP3   OH233182   0.245   3.622   1.089
11080TIP3    H133183   0.328   3.631   1.043
11080TIP3    H233184   0.221   3.712   1.113
11081TIP3   OH233185   3.937   1.397   0.659
11081TIP3    H133186   3.917   1.481   0.617
11081TIP3    H233187   3.924   1.414   0.753
11082TIP3   OH233188   1.257   1.365   0.191
11082TIP3    H133189   1.344   1.396   0.166
11082TIP3    H233190   1.233   1.302   0.124
11083TIP3   OH233191   0.411   3.899   6.094
11083TIP3    H133192   0.487   3.941   6.134
11083TIP3    H233193   0.447   3.836   6.032
11084TIP3   OH233194   2.750   3.835   4.378
11084TIP3    H133195   2.787   3.779   4.446
11084TIP3    H233196   2.717   3.911   4.425
11085TIP3   OH233197   2.585   2.935   5.835
11085TIP3    H133198   2.489   2.938   5.836
11085TIP3    H233199   2.612   3.026   5.826
11086TIP3   OH233200   3.495   0.224   1.796
11086TIP3    H133201   3.527   0.224   1.706
11086TIP3    H233202   3.402   0.246   1.787
11087TIP3   OH233203   5.871   3.247   1.030
11087TIP3    H133204   5.867   3.333   1.072
11087TIP3    H233205   5.965   3.231   1.018
11088TIP3   OH233206   6.919   6.228   2.538
11088TIP3    H133207   6.855   6.300   2.535
11088TIP3    H233208   6.870   6.151   2.510
11089TIP3   OH233209   8.119   2.875   3.912
11089TIP3    H133210   8.145   2.892   3.821
11089TIP3    H233211   8.037   2.922   3.923
11090TIP3   OH233212   7.734   5.180   0.688
11090TIP3    H133213   7.729   5.221   0.602
11090TIP3    H233214   7.827   5.185   0.712
11091TIP3   OH233215   0.458   7.159   1.270
11091TIP3    H133216   0.471   7.093   1.201
11091TIP3    H233217   0.488   7.241   1.231
11092TIP3   OH233218   4.575   5.115   0.651
11092TIP3    H133219   4.538   5.029   0.672
11092TIP3    H233220   4.531   5.175   0.711
11093TIP3   OH233221   7.284   7.229   4.017
11093TIP3    H133222   7.338   7.295   4.061
11093TIP3    H233223   7.239   7.277   3.948
11094TIP3   OH233224   0.748   4.105   0.302
11094TIP3    H133225   0.706   4.190   0.305
11094TIP3    H233226   0.676   4.042   0.310
11095TIP3   OH233227   8.129   0.770   3.109
11095TIP3    H133228   8.119   0.675   3.111
11095TIP3    H233229   8.207   0.788   3.161
11096TIP3   OH233230   6.031   6.497   5.592
11096TIP3    H133231   6.117   6.514   5.630
11096TIP3    H233232   6.027   6.401   5.584
11097TIP3   OH233233   7.527   0.443   1.850
11097TIP3    H133234   7.584   0.405   1.782
11097TIP3    H233235   7.452   0.476   1.801
11098TIP3   OH233236   2.338   7.024   3.627
11098TIP3    H133237   2.350   7.117   3.610
11098TIP3    H233238   2.421   6.996   3.666
11099TIP3   OH233239   0.575   3.159   4.423
11099TIP3    H133240   0.558   3.252   4.443
11099TIP3    H233241   0.516   3.112   4.482
11100TIP3   OH233242   4.484   3.951   3.139
11100TIP3    H133243   4.483   3.992   3.052
11100TIP3    H233244   4.565   3.901   3.142
11101TIP3   OH233245   6.362   1.639   4.250
11101TIP3    H133246   6.319   1.716   4.213
11101TIP3    H233247   6.451   1.643   4.215
11102TIP3   OH233248   4.519   3.103   4.121
11102TIP3    H133249   4.461   3.130   4.192
11102TIP3    H233250   4.595   3.066   4.164
11103TIP3   OH233251   1.501   1.469   0.122
11103TIP3    H133252   1.538   1.525   0.190
11103TIP3    H233253   1.567   1.468   0.053
11104TIP3   OH233254   1.030   4.842   4.541
11104TIP3    H133255   1.035   4.850   4.446
11104TIP3    H233256   0.939   4.817   4.559
11105TIP3   OH233257   5.858   3.884   2.265
11105TIP3    H133258   5.833   3.852   2.178
11105TIP3    H233259   5.881   3.976   2.252
11106TIP3   OH233260   3.579   2.447   6.637
11106TIP3    H133261   3.547   2.505   6.568
11106TIP3    H233262   3.673   2.441   6.621
11107TIP3   OH233263   7.299   7.124   3.643
11107TIP3    H133264   7.352   7.203   3.652
11107TIP3    H233265   7.347   7.071   3.579
11108TIP3   OH233266   0.794   6.739   1.885
11108TIP3    H133267   0.730   6.800   1.922
11108TIP3    H233268   0.875   6.790   1.879
11109TIP3   OH233269   4.120   6.885   1.673
11109TIP3    H133270   4.072   6.805   1.694
11109TIP3    H233271   4.152   6.870   1.584
11110TIP3   OH233272   2.346   2.490   6.408
11110TIP3    H133273   2.427   2.533   6.436
11110TIP3    H233274   2.310   2.453   6.489
11111TIP3   OH233275   5.654   3.250   5.634
11111TIP3    H133276   5.720   3.314   5.608
11111TIP3    H233277   5.619   3.217   5.551
11112TIP3   OH233278   7.456   6.686   2.482
11112TIP3    H133279   7.376   6.720   2.524
11112TIP3    H233280   7.468   6.600   2.522
11113TIP3   OH233281   4.467   7.385   4.800
11113TIP3    H133282   4.399   7.452   4.807
11113TIP3    H233283   4.522   7.398   4.877
11114TIP3   OH233284   8.054   7.264   4.539
11114TIP3    H133285   7.964   7.286   4.514
11114TIP3    H233286   8.073   7.321   4.613
11115TIP3   OH233287   6.081   3.746   6.412
11115TIP3    H133288   6.120   3.663   6.382
11115TIP3    H233289   5.991   3.744   6.379
11116TIP3   OH233290   8.036   5.543   0.086
11116TIP3    H133291   8.096   5.614   0.111
11116TIP3    H233292   7.992   5.575   0.007
11117TIP3   OH233293   5.361   6.704   5.925
11117TIP3    H133294   5.354   6.649   5.847
11117TIP3    H233295   5.304   6.779   5.906
11118TIP3   OH233296   2.515   4.425   2.074
11118TIP3    H133297   2.531   4.509   2.117
11118TIP3    H233298   2.458   4.377   2.133
11119TIP3   OH233299   2.350   0.017   6.072
11119TIP3    H133300   2.355  -0.012   6.163
11119TIP3    H233301   2.439   0.004   6.038
11120TIP3   OH233302   3.261   1.889   1.919
11120TIP3    H133303   3.190   1.943   1.884
11120TIP3    H233304   3.220   1.804   1.936
11121TIP3   OH233305   1.236   0.351   0.142
11121TIP3    H133306   1.142   0.338   0.154
11121TIP3    H233307   1.276   0.322   0.224
11122TIP3   OH233308   2.919   2.263   3.328
11122TIP3    H133309   2.897   2.233   3.240
11122TIP3    H233310   3.014   2.275   3.326
11123TIP3   OH233311   3.513   0.215   2.829
11123TIP3    H133312   3.557   0.269   2.763
11123TIP3    H233313   3.556   0.129   2.822
11124TIP3   OH233314   6.038   3.025   1.534
11124TIP3    H133315   6.118   2.980   1.505
11124TIP3    H233316   6.068   3.112   1.561
11125TIP3   OH233317   3.501   4.996   0.570
11125TIP3    H133318   3.450   4.921   0.539
11125TIP3    H233319   3.515   4.979   0.663
11126TIP3   OH233320   6.519   5.037   6.709
11126TIP3    H133321   6.505   5.130   6.725
11126TIP3    H233322   6.611   5.022   6.733
11127TIP3   OH233323   1.495   1.234   3.545
11127TIP3    H133324   1.463   1.320   3.572
11127TIP3    H233325   1.590   1.239   3.555
11128TIP3   OH233326   0.551   0.715   1.150
11128TIP3    H133327   0.637   0.749   1.174
11128TIP3    H233328   0.500   0.719   1.230
11129TIP3   OH233329   4.526   1.935   4.074
11129TIP3    H133330   4.480   2.019   4.067
11129TIP3    H233331   4.501   1.888   3.994
11130TIP3   OH233332   4.031   0.953   1.759
11130TIP3    H133333   4.044   1.042   1.726
11130TIP3    H233334   4.086   0.948   1.838
11131TIP3   OH233335   1.642   0.204   0.435
11131TIP3    H133336   1.650   0.269   0.366
11131TIP3    H233337   1.694   0.130   0.404
11132TIP3   OH233338   1.055   3.135   2.681
11132TIP3    H133339   1.007   3.058   2.653
11132TIP3    H233340   1.005   3.209   2.646
11133TIP3   OH233341   8.150   2.080   2.829
11133TIP3    H133342   8.150   2.108   2.737
11133TIP3    H233343   8.144   2.161   2.879
11134TIP3   OH233344   6.827   5.219   6.689
11134TIP3    H133345   6.917   5.229   6.719
11134TIP3    H233346   6.784   5.301   6.713
11135TIP3   OH233347   3.407   6.176   2.581
11135TIP3    H133348   3.420   6.263   2.544
11135TIP3    H233349   3.339   6.136   2.526
11136TIP3   OH233350   2.382   5.082   3.506
11136TIP3    H133351   2.437   5.035   3.568
11136TIP3    H233352   2.329   5.013   3.465
11137TIP3   OH233353   1.408   5.970   4.882
11137TIP3    H133354   1.501   5.985   4.903
11137TIP3    H233355   1.377   5.914   4.953
11138TIP3   OH233356   5.939   5.072   2.853
11138TIP3    H133357   5.968   5.120   2.776
11138TIP3    H233358   5.958   4.980   2.833
11139TIP3   OH233359   2.969   2.338   1.755
11139TIP3    H133360   3.020   2.374   1.828
11139TIP3    H233361   2.882   2.324   1.793
11140TIP3   OH233362   0.603   3.589   5.531
11140TIP3    H133363   0.680   3.569   5.477
11140TIP3    H233364   0.601   3.684   5.536
11141TIP3   OH233365   0.163   3.637   3.980
11141TIP3    H133366   0.110   3.660   4.057
11141TIP3    H233367   0.244   3.603   4.016
11142TIP3   OH233368   0.009   4.294   1.016
11142TIP3    H133369  -0.021   4.304   1.107
11142TIP3    H233370   0.009   4.200   1.001
11143TIP3   OH233371   6.909   5.153   2.185
11143TIP3    H133372   6.851   5.133   2.258
11143TIP3    H233373   6.956   5.071   2.168
11144TIP3   OH233374   2.483   2.033   3.155
11144TIP3    H133375   2.401   2.003   3.193
11144TIP3    H233376   2.529   1.952   3.131
11145TIP3   OH233377   0.329   3.108   3.811
11145TIP3    H133378   0.412   3.147   3.837
11145TIP3    H233379   0.351   3.017   3.788
11146TIP3   OH233380   3.456   6.755   5.583
11146TIP3    H133381   3.506   6.826   5.623
11146TIP3    H233382   3.453   6.777   5.490
11147TIP3   OH233383   4.568   3.483   5.769
11147TIP3    H133384   4.501   3.460   5.704
11147TIP3    H233385   4.553   3.575   5.787
11148TIP3   OH233386   3.017   3.234   2.481
11148TIP3    H133387   2.969   3.166   2.433
11148TIP3    H233388   3.050   3.189   2.558
11149TIP3   OH233389   7.748   1.300   4.218
11149TIP3    H133390   7.826   1.285   4.271
11149TIP3    H233391   7.675   1.275   4.275
11150TIP3   OH233392   1.427   3.684   2.336
11150TIP3    H133393   1.517   3.673   2.366
11150TIP3    H233394   1.373   3.654   2.409
11151TIP3   OH233395   6.465   7.246   3.926
11151TIP3    H133396   6.406   7.267   3.854
11151TIP3    H233397   6.506   7.329   3.949
11152TIP3   OH233398   5.444   6.424   5.211
11152TIP3    H133399   5.352   6.399   5.202
11152TIP3    H233400   5.488   6.345   5.242
11153TIP3   OH233401   7.694   1.832   4.083
11153TIP3    H133402   7.738   1.747   4.092
11153TIP3    H233403   7.722   1.882   4.159
11154TIP3   OH233404   0.480   6.482   3.362
11154TIP3    H133405   0.407   6.542   3.373
11154TIP3    H233406   0.529   6.517   3.287
11155TIP3   OH233407   7.170   5.781   3.232
11155TIP3    H133408   7.131   5.716   3.291
11155TIP3    H233409   7.190   5.855   3.290
11156TIP3   OH233410   3.088   1.158   6.536
11156TIP3    H133411   3.126   1.163   6.623
11156TIP3    H233412   3.161   1.136   6.478
11157TIP3   OH233413   4.913   0.072   1.255
11157TIP3    H133414   4.948  -0.015   1.235
11157TIP3    H233415   4.870   0.100   1.173
11158TIP3   OH233416   0.818   5.476   1.374
11158TIP3    H133417   0.899   5.521   1.399
11158TIP3    H233418   0.777   5.454   1.457
11159TIP3   OH233419   3.426   6.179   3.419
11159TIP3    H133420   3.395   6.180   3.329
11159TIP3    H233421   3.353   6.213   3.470
11160TIP3   OH233422   0.304   4.306   4.291
11160TIP3    H133423   0.355   4.381   4.321
11160TIP3    H233424   0.238   4.343   4.233
11161TIP3   OH233425   2.072   2.553   4.896
11161TIP3    H133426   2.058   2.645   4.872
11161TIP3    H233427   2.166   2.539   4.886
11162TIP3   OH233428   7.053   7.022   1.375
11162TIP3    H133429   6.990   7.015   1.303
11162TIP3    H233430   7.132   6.980   1.342
11163TIP3   OH233431   0.403   2.814   1.583
11163TIP3    H133432   0.472   2.782   1.641
11163TIP3    H233433   0.448   2.840   1.503
11164TIP3   OH233434   3.304   3.780   0.727
11164TIP3    H133435   3.293   3.776   0.822
11164TIP3    H233436   3.215   3.781   0.692
11165TIP3   OH233437   0.693   6.720   1.597
11165TIP3    H133438   0.650   6.636   1.578
11165TIP3    H233439   0.752   6.701   1.670
11166TIP3   OH233440   4.595   5.100   4.176
11166TIP3    H133441   4.529   5.116   4.109
11166TIP3    H233442   4.632   5.186   4.195
11167TIP3   OH233443   5.709   5.359   6.748
11167TIP3    H133444   5.783   5.335   6.691
11167TIP3    H233445   5.638   5.379   6.687
11168TIP3   OH233446   2.880   0.334   6.790
11168TIP3    H133447   2.808   0.276   6.815
11168TIP3    H233448   2.890   0.321   6.696
11169TIP3   OH233449   0.069   7.009   6.629
11169TIP3    H133450   0.047   7.094   6.590
11169TIP3    H233451   0.063   6.947   6.556
11170TIP3   OH233452   7.137   5.773   3.941
11170TIP3    H133453   7.124   5.773   4.036
11170TIP3    H233454   7.061   5.820   3.907
11171TIP3   OH233455   0.276   3.480   5.128
11171TIP3    H133456   0.259   3.415   5.196
11171TIP3    H233457   0.328   3.548   5.172
11172TIP3   OH233458   4.197   6.578   3.497
11172TIP3    H133459   4.136   6.636   3.452
11172TIP3    H233460   4.283   6.599   3.459
11173TIP3   OH233461   5.071   0.444   5.204
11173TIP3    H133462   4.999   0.432   5.142
11173TIP3    H233463   5.050   0.526   5.249
11174TIP3   OH233464   6.335   1.060   4.605
11174TIP3    H133465   6.244   1.081   4.581
11174TIP3    H233466   6.370   1.014   4.528
11175TIP3   OH233467   7.652   0.736   0.869
11175TIP3    H133468   7.564   0.736   0.906
11175TIP3    H233469   7.645   0.682   0.790
11176TIP3   OH233470   6.487   5.306   1.451
11176TIP3    H133471   6.550   5.326   1.521
11176TIP3    H233472   6.531   5.335   1.371
11177TIP3   OH233473   2.631   3.194   1.247
11177TIP3    H133474   2.667   3.167   1.162
11177TIP3    H233475   2.650   3.288   1.252
11178TIP3   OH233476   2.440   4.684   2.180
11178TIP3    H133477   2.400   4.771   2.186
11178TIP3    H233478   2.459   4.660   2.270
11179TIP3   OH233479   0.462   3.217   1.413
11179TIP3    H133480   0.510   3.143   1.376
11179TIP3    H233481   0.389   3.231   1.353
11180TIP3   OH233482   7.995   4.722   2.693
11180TIP3    H133483   7.994   4.812   2.661
11180TIP3    H233484   7.903   4.695   2.692
11181TIP3   OH233485   2.646   6.260   3.351
11181TIP3    H133486   2.671   6.342   3.307
11181TIP3    H233487   2.614   6.204   3.281
11182TIP3   OH233488   4.332   6.334   5.694
11182TIP3    H133489   4.405   6.277   5.671
11182TIP3    H233490   4.373   6.406   5.743
11183TIP3   OH233491   2.340   0.036   4.137
11183TIP3    H133492   2.365  -0.049   4.101
11183TIP3    H233493   2.265   0.063   4.084
11184TIP3   OH233494   3.313   6.541   0.572
11184TIP3    H133495   3.311   6.530   0.477
11184TIP3    H233496   3.244   6.604   0.591
11185TIP3   OH233497   3.105   5.691   3.120
11185TIP3    H133498   3.022   5.712   3.077
11185TIP3    H233499   3.084   5.620   3.180
11186TIP3   OH233500   4.732   4.708   2.579
11186TIP3    H133501   4.663   4.673   2.636
11186TIP3    H233502   4.758   4.634   2.525
11187TIP3   OH233503   2.018   3.277   1.413
11187TIP3    H133504   2.087   3.315   1.468
11187TIP3    H233505   2.047   3.188   1.395
11188TIP3   OH233506   2.839   6.792   2.555
11188TIP3    H133507   2.880   6.867   2.513
11188TIP3    H233508   2.748   6.818   2.568
11189TIP3   OH233509   7.850   5.422   3.811
11189TIP3    H133510   7.872   5.354   3.875
11189TIP3    H233511   7.786   5.477   3.856
11190TIP3   OH233512   2.302   2.823   6.731
11190TIP3    H133513   2.303   2.752   6.795
11190TIP3    H233514   2.392   2.826   6.697
11191TIP3   OH233515   4.170   6.032   3.925
11191TIP3    H133516   4.184   6.005   3.834
11191TIP3    H233517   4.119   5.960   3.964
11192TIP3   OH233518   2.101   3.615   5.721
11192TIP3    H133519   2.171   3.570   5.675
11192TIP3    H233520   2.121   3.708   5.710
11193TIP3   OH233521   4.856   0.287   1.744
11193TIP3    H133522   4.818   0.204   1.771
11193TIP3    H233523   4.950   0.277   1.762
11194TIP3   OH233524   0.622   2.823   2.972
11194TIP3    H133525   0.690   2.863   2.918
11194TIP3    H233526   0.658   2.825   3.061
11195TIP3   OH233527   0.124   3.173   0.166
11195TIP3    H133528   0.036   3.174   0.127
11195TIP3    H233529   0.180   3.212   0.099
11196TIP3   OH233530   6.765   4.592   3.093
11196TIP3    H133531   6.769   4.512   3.041
11196TIP3    H233532   6.716   4.654   3.039
11197TIP3   OH233533   6.292   4.148   1.775
11197TIP3    H133534   6.293   4.071   1.831
11197TIP3    H233535   6.347   4.212   1.821
11198TIP3   OH233536   6.688   3.909   1.558
11198TIP3    H133537   6.743   3.965   1.613
11198TIP3    H233538   6.667   3.834   1.614
11199TIP3   OH233539   4.607   7.358   3.796
11199TIP3    H133540   4.521   7.343   3.835
11199TIP3    H233541   4.669   7.348   3.869
11200TIP3   OH233542   1.498   7.864   0.474
11200TIP3    H133543   1.454   7.779   0.479
11200TIP3    H233544   1.430   7.928   0.494
11201TIP3   OH233545   2.361   3.308   4.777
11201TIP3    H133546   2.405   3.246   4.835
11201TIP3    H233547   2.278   3.267   4.755
11202TIP3   OH233548   0.323   7.763   5.387
11202TIP3    H133549   0.359   7.678   5.363
11202TIP3    H233550   0.335   7.817   5.309
11203TIP3   OH233551   5.302   4.345   0.088
11203TIP3    H133552   5.237   4.364   0.156
11203TIP3    H233553   5.369   4.412   0.099
11204TIP3   OH233554   6.775   2.354   2.594
11204TIP3    H133555   6.858   2.375   2.549
11204TIP3    H233556   6.800   2.344   2.686
11205TIP3   OH233557   5.871   5.744   6.355
11205TIP3    H133558   5.913   5.659   6.349
11205TIP3    H233559   5.829   5.744   6.441
11206TIP3   OH233560   1.147   6.845   5.305
11206TIP3    H133561   1.231   6.867   5.345
11206TIP3    H233562   1.165   6.769   5.250
11207TIP3   OH233563   7.987   4.305   5.688
11207TIP3    H133564   8.006   4.384   5.739
11207TIP3    H233565   7.897   4.284   5.710
11208TIP3   OH233566   0.960   3.972   0.409
11208TIP3    H133567   0.971   3.905   0.341
11208TIP3    H233568   0.883   4.022   0.381
11209TIP3   OH233569   2.779   4.421   3.524
11209TIP3    H133570   2.771   4.402   3.617
11209TIP3    H233571   2.688   4.429   3.493
11210TIP3   OH233572   4.501   2.140   0.321
11210TIP3    H133573   4.473   2.219   0.275
11210TIP3    H233574   4.448   2.070   0.282
11211TIP3   OH233575   0.386   4.905   1.773
11211TIP3    H133576   0.362   4.996   1.755
11211TIP3    H233577   0.365   4.858   1.693
11212TIP3   OH233578   4.500   6.297   1.053
11212TIP3    H133579   4.500   6.373   1.111
11212TIP3    H233580   4.495   6.334   0.965
11213TIP3   OH233581   2.292   6.036   5.911
11213TIP3    H133582   2.370   6.076   5.873
11213TIP3    H233583   2.316   5.945   5.925
11214TIP3   OH233584   4.095   7.526   4.555
11214TIP3    H133585   4.012   7.575   4.555
11214TIP3    H233586   4.070   7.438   4.527
11215TIP3   OH233587   5.148   7.063   1.065
11215TIP3    H133588   5.061   7.051   1.027
11215TIP3    H233589   5.205   7.004   1.015
11216TIP3   OH233590   7.243   1.640   2.590
11216TIP3    H133591   7.171   1.600   2.638
11216TIP3    H233592   7.286   1.567   2.545
11217TIP3   OH233593   5.589   2.218   5.065
11217TIP3    H133594   5.643   2.177   4.997
11217TIP3    H233595   5.645   2.220   5.142
11218TIP3   OH233596   6.159   7.669   2.155
11218TIP3    H133597   6.100   7.681   2.230
11218TIP3    H233598   6.142   7.580   2.126
11219TIP3   OH233599   7.225   7.489   0.670
11219TIP3    H133600   7.311   7.468   0.705
11219TIP3    H233601   7.165   7.472   0.743
11220TIP3   OH233602   3.734   4.352   5.970
11220TIP3    H133603   3.820   4.392   5.988
11220TIP3    H233604   3.675   4.427   5.959
11221TIP3   OH233605   2.854   3.946   5.376
11221TIP3    H133606   2.818   3.866   5.337
11221TIP3    H233607   2.894   3.992   5.302
11222TIP3   OH233608   0.974   3.115   3.597
11222TIP3    H133609   0.881   3.092   3.602
11222TIP3    H233610   0.976   3.195   3.544
11223TIP3   OH233611   2.508   7.031   1.110
11223TIP3    H133612   2.418   7.033   1.080
11223TIP3    H233613   2.561   7.045   1.032
11224TIP3   OH233614   3.877   6.974   6.214
11224TIP3    H133615   3.938   7.028   6.163
11224TIP3    H233616   3.896   6.884   6.186
11225TIP3   OH233617   0.972   0.335   0.549
11225TIP3    H133618   0.990   0.241   0.562
11225TIP3    H233619   0.880   0.345   0.572
11226TIP3   OH233620   4.456   0.464   4.036
11226TIP3    H133621   4.524   0.506   4.088
11226TIP3    H233622   4.418   0.534   3.984
11227TIP3   OH233623   5.587   5.602   4.205
11227TIP3    H133624   5.680   5.624   4.212
11227TIP3    H233625   5.579   5.557   4.121
11228TIP3   OH233626   7.311   4.499   0.722
11228TIP3    H133627   7.393   4.495   0.672
11228TIP3    H233628   7.337   4.529   0.809
11229TIP3   OH233629   5.348   1.572   3.500
11229TIP3    H133630   5.345   1.504   3.568
11229TIP3    H233631   5.257   1.599   3.488
11230TIP3   OH233632   4.060   5.951   3.020
11230TIP3    H133633   4.029   6.038   2.998
11230TIP3    H233634   3.985   5.908   3.062
11231TIP3   OH233635   4.405   6.140   1.796
11231TIP3    H133636   4.494   6.130   1.762
11231TIP3    H233637   4.349   6.142   1.719
11232TIP3   OH233638   1.535   7.108   6.402
11232TIP3    H133639   1.465   7.145   6.457
11232TIP3    H233640   1.507   7.124   6.312
11233TIP3   OH233641   2.194   4.393   3.904
11233TIP3    H133642   2.192   4.328   3.974
11233TIP3    H233643   2.102   4.406   3.880
11234TIP3   OH233644   0.138   7.156   1.653
11234TIP3    H133645   0.045   7.175   1.664
11234TIP3    H233646   0.153   7.164   1.559
11235TIP3   OH233647   0.626   5.916   5.849
11235TIP3    H133648   0.591   5.937   5.935
11235TIP3    H233649   0.677   5.836   5.861
11236TIP3   OH233650   2.783   4.690   5.501
11236TIP3    H133651   2.747   4.616   5.452
11236TIP3    H233652   2.763   4.767   5.447
11237TIP3   OH233653   3.266   6.355   4.417
11237TIP3    H133654   3.206   6.283   4.395
11237TIP3    H233655   3.244   6.424   4.355
11238TIP3   OH233656   3.878   1.507   1.243
11238TIP3    H133657   3.969   1.485   1.220
11238TIP3    H233658   3.885   1.572   1.312
11239TIP3   OH233659   0.473   0.087   0.477
11239TIP3    H133660   0.568   0.077   0.476
11239TIP3    H233661   0.458   0.180   0.461
11240TIP3   OH233662   2.416   0.382   2.236
11240TIP3    H133663   2.466   0.447   2.187
11240TIP3    H233664   2.480   0.316   2.261
11241TIP3   OH233665   7.583   1.386   1.197
11241TIP3    H133666   7.589   1.349   1.286
11241TIP3    H233667   7.498   1.356   1.165
11242TIP3   OH233668   7.909   6.481   0.935
11242TIP3    H133669   7.874   6.523   1.013
11242TIP3    H233670   7.835   6.481   0.873
11243TIP3   OH233671   2.821   3.028   3.860
11243TIP3    H133672   2.733   3.015   3.896
11243TIP3    H233673   2.811   3.018   3.765
11244TIP3   OH233674   8.232   7.342   1.886
11244TIP3    H133675   8.198   7.293   1.810
11244TIP3    H233676   8.154   7.378   1.928
11245TIP3   OH233677   3.455   3.413   0.418
11245TIP3    H133678   3.464   3.376   0.505
11245TIP3    H233679   3.534   3.466   0.406
11246TIP3   OH233680   4.841   0.789   2.672
11246TIP3    H133681   4.816   0.864   2.726
11246TIP3    H233682   4.929   0.766   2.702
11247TIP3   OH233683   3.646   0.547   2.269
11247TIP3    H133684   3.563   0.513   2.238
11247TIP3    H233685   3.628   0.579   2.357
11248TIP3   OH233686   3.055   5.486   5.627
11248TIP3    H133687   3.120   5.507   5.559
11248TIP3    H233688   3.089   5.527   5.706
11249TIP3   OH233689   3.641   4.704   4.369
11249TIP3    H133690   3.678   4.667   4.450
11249TIP3    H233691   3.656   4.798   4.377
11250TIP3   OH233692   3.024   7.667   4.649
11250TIP3    H133693   3.093   7.663   4.583
11250TIP3    H233694   3.017   7.577   4.682
11251TIP3   OH233695   2.761   7.479   5.332
11251TIP3    H133696   2.674   7.441   5.337
11251TIP3    H233697   2.757   7.556   5.387
11252TIP3   OH233698   4.812   3.373   1.342
11252TIP3    H133699   4.866   3.438   1.387
11252TIP3    H233700   4.745   3.426   1.297
11253TIP3   OH233701   7.873   6.033   6.732
11253TIP3    H133702   7.926   6.097   6.780
11253TIP3    H233703   7.927   5.954   6.730
11254TIP3   OH233704   4.638   5.617   2.576
11254TIP3    H133705   4.637   5.671   2.655
11254TIP3    H233706   4.555   5.636   2.533
11255TIP3   OH233707   7.343   6.719   4.470
11255TIP3    H133708   7.373   6.629   4.483
11255TIP3    H233709   7.404   6.772   4.522
11256TIP3   OH233710   2.711   1.933   3.460
11256TIP3    H133711   2.656   2.012   3.465
11256TIP3    H233712   2.754   1.940   3.375
11257TIP3   OH233713   0.362   7.845   2.510
11257TIP3    H133714   0.302   7.861   2.583
11257TIP3    H233715   0.329   7.765   2.469
11258TIP3   OH233716   2.747   2.316   1.911
11258TIP3    H133717   2.750   2.273   1.997
11258TIP3    H233718   2.739   2.409   1.932
11259TIP3   OH233719   0.327   2.666   2.311
11259TIP3    H133720   0.375   2.673   2.228
11259TIP3    H233721   0.326   2.755   2.345
11260TIP3   OH233722   5.756   2.787   5.077
11260TIP3    H133723   5.832   2.826   5.121
11260TIP3    H233724   5.714   2.734   5.145
11261TIP3   OH233725   3.569   1.579   4.939
11261TIP3    H133726   3.508   1.619   4.877
11261TIP3    H233727   3.561   1.633   5.018
11262TIP3   OH233728   0.564   3.106   6.454
11262TIP3    H133729   0.491   3.048   6.473
11262TIP3    H233730   0.622   3.098   6.529
11263TIP3   OH233731   5.323   4.978   1.715
11263TIP3    H133732   5.344   5.059   1.668
11263TIP3    H233733   5.319   5.004   1.807
11264TIP3   OH233734   5.954   1.392   4.063
11264TIP3    H133735   5.949   1.366   4.155
11264TIP3    H233736   6.023   1.336   4.026
11265TIP3   OH233737   4.965   7.020   3.152
11265TIP3    H133738   4.945   7.058   3.237
11265TIP3    H233739   4.880   7.014   3.108
11266TIP3   OH233740   0.114   0.812   2.193
11266TIP3    H133741   0.062   0.780   2.268
11266TIP3    H233742   0.072   0.894   2.169
11267TIP3   OH233743   4.002   7.196   0.386
11267TIP3    H133744   4.049   7.203   0.469
11267TIP3    H233745   4.025   7.110   0.352
11268TIP3   OH233746   7.554   4.475   3.723
11268TIP3    H133747   7.571   4.396   3.775
11268TIP3    H233748   7.488   4.448   3.659
11269TIP3   OH233749   6.475   1.699   0.211
11269TIP3    H133750   6.570   1.707   0.218
11269TIP3    H233751   6.445   1.691   0.302
11270TIP3   OH233752   8.059   3.529   1.177
11270TIP3    H133753   8.079   3.437   1.161
11270TIP3    H233754   8.144   3.569   1.197
11271TIP3   OH233755   1.178   5.386   0.938
11271TIP3    H133756   1.253   5.332   0.965
11271TIP3    H233757   1.109   5.364   1.001
11272TIP3   OH233758   2.958   4.760   3.152
11272TIP3    H133759   3.025   4.817   3.189
11272TIP3    H233760   3.007   4.695   3.101
11273TIP3   OH233761   7.755   1.216   3.159
11273TIP3    H133762   7.810   1.268   3.217
11273TIP3    H233763   7.811   1.142   3.133
11274TIP3   OH233764   6.173   5.275   3.306
11274TIP3    H133765   6.209   5.339   3.245
11274TIP3    H233766   6.098   5.238   3.260
11275TIP3   OH233767   7.276   7.284   5.036
11275TIP3    H133768   7.370   7.301   5.029
11275TIP3    H233769   7.238   7.368   5.058
11276TIP3   OH233770   1.415   5.933   3.197
11276TIP3    H133771   1.443   5.922   3.288
11276TIP3    H233772   1.475   5.999   3.161
11277TIP3   OH233773   1.540   0.393   2.570
11277TIP3    H133774   1.605   0.452   2.532
11277TIP3    H233775   1.569   0.305   2.543
11278TIP3   OH233776   1.666   0.355   1.570
11278TIP3    H133777   1.669   0.393   1.658
11278TIP3    H233778   1.751   0.375   1.532
11279TIP3   OH233779   4.238   7.560   2.165
11279TIP3    H133780   4.304   7.627   2.147
11279TIP3    H233781   4.155   7.608   2.169
11280TIP3   OH233782   2.718   5.803   4.025
11280TIP3    H133783   2.715   5.708   4.015
11280TIP3    H233784   2.809   5.823   4.046
11281TIP3   OH233785   1.261   1.960   4.148
11281TIP3    H133786   1.285   2.036   4.201
11281TIP3    H233787   1.166   1.966   4.139
11282TIP3   OH233788   1.188   4.790   5.996
11282TIP3    H133789   1.279   4.761   6.002
11282TIP3    H233790   1.169   4.828   6.081
11283TIP3   OH233791   6.801   3.723   6.021
11283TIP3    H133792   6.744   3.799   6.036
11283TIP3    H233793   6.876   3.739   6.078
11284TIP3   OH233794   5.480   0.298   4.769
11284TIP3    H133795   5.505   0.276   4.859
11284TIP3    H233796   5.563   0.310   4.724
11285TIP3   OH233797   0.106   1.555   0.844
11285TIP3    H133798   0.070   1.506   0.770
11285TIP3    H233799   0.115   1.645   0.812
11286TIP3   OH233800   1.490   0.533   6.501
11286TIP3    H133801   1.429   0.459   6.495
11286TIP3    H233802   1.454   0.598   6.441
11287TIP3   OH233803   6.106   3.230   3.883
11287TIP3    H133804   6.154   3.151   3.908
11287TIP3    H233805   6.171   3.300   3.887
11288TIP3   OH233806   8.304   3.532   4.798
11288TIP3    H133807   8.356   3.612   4.796
11288TIP3    H233808   8.217   3.561   4.824
11289TIP3   OH233809   8.182   4.698   5.848
11289TIP3    H133810   8.183   4.606   5.872
11289TIP3    H233811   8.098   4.710   5.803
11290TIP3   OH233812   8.169   0.180   2.575
11290TIP3    H133813   8.145   0.225   2.494
11290TIP3    H233814   8.239   0.120   2.550
11291TIP3   OH233815   5.264   4.109   4.638
11291TIP3    H133816   5.227   4.093   4.724
11291TIP3    H233817   5.352   4.072   4.643
11292TIP3   OH233818   0.233   2.502   2.992
11292TIP3    H133819   0.299   2.563   2.958
11292TIP3    H233820   0.179   2.480   2.917
11293TIP3   OH233821   1.988   7.801   2.579
11293TIP3    H133822   2.078   7.807   2.548
11293TIP3    H233823   1.976   7.880   2.632
11294TIP3   OH233824   4.279   3.192   0.489
11294TIP3    H133825   4.260   3.099   0.477
11294TIP3    H233826   4.194   3.236   0.481
11295TIP3   OH233827   7.031   1.364   1.148
11295TIP3    H133828   6.996   1.453   1.147
11295TIP3    H233829   7.013   1.332   1.237
11296TIP3   OH233830   5.154   1.856   4.364
11296TIP3    H133831   5.230   1.844   4.307
11296TIP3    H233832   5.098   1.917   4.315
11297TIP3   OH233833   6.201   6.747   5.894
11297TIP3    H133834   6.286   6.749   5.937
11297TIP3    H233835   6.147   6.807   5.946
11298TIP3   OH233836   6.847   3.679   6.375
11298TIP3    H133837   6.901   3.619   6.427
11298TIP3    H233838   6.757   3.657   6.400
11299TIP3   OH233839   6.171   7.824   5.415
11299TIP3    H133840   6.180   7.914   5.448
11299TIP3    H233841   6.222   7.771   5.477
11300TIP3   OH233842   1.491   0.367   6.803
11300TIP3    H133843   1.464   0.452   6.839
11300TIP3    H233844   1.498   0.382   6.709
11301TIP3   OH233845   0.699   0.405   1.998
11301TIP3    H133846   0.606   0.382   2.008
11301TIP3    H233847   0.737   0.330   1.952
11302TIP3   OH233848   0.211   2.794   5.576
11302TIP3    H133849   0.282   2.844   5.536
11302TIP3    H233850   0.143   2.859   5.594
11303TIP3   OH233851   0.670   3.729   6.566
11303TIP3    H133852   0.618   3.807   6.547
11303TIP3    H233853   0.712   3.706   6.483
11304TIP3   OH233854   3.392   5.672   4.541
11304TIP3    H133855   3.482   5.667   4.572
11304TIP3    H233856   3.399   5.711   4.453
11305TIP3   OH233857   4.800   2.791   5.324
11305TIP3    H133858   4.748   2.827   5.252
11305TIP3    H233859   4.768   2.702   5.336
11306TIP3   OH233860   3.948   4.259   3.035
11306TIP3    H133861   3.867   4.215   3.061
11306TIP3    H233862   3.998   4.192   2.989
11307TIP3   OH233863   6.559   0.190   2.038
11307TIP3    H133864   6.620   0.217   2.107
11307TIP3    H233865   6.475   0.182   2.083
11308TIP3   OH233866   8.176   2.593   5.434
11308TIP3    H133867   8.164   2.606   5.340
11308TIP3    H233868   8.156   2.679   5.473
11309TIP3   OH233869   0.325   6.278   3.429
11309TIP3    H133870   0.409   6.322   3.420
11309TIP3    H233871   0.337   6.215   3.499
11310TIP3   OH233872   7.802   3.435   1.715
11310TIP3    H133873   7.805   3.387   1.632
11310TIP3    H233874   7.891   3.469   1.726
11311TIP3   OH233875   5.071   5.921   3.995
11311TIP3    H133876   5.101   5.991   4.052
11311TIP3    H233877   5.082   5.956   3.906
11312TIP3   OH233878   6.654   6.117   5.249
11312TIP3    H133879   6.577   6.063   5.230
11312TIP3    H233880   6.670   6.105   5.342
11313TIP3   OH233881   6.716   5.373   5.919
11313TIP3    H133882   6.702   5.290   5.964
11313TIP3    H233883   6.660   5.369   5.842
11314TIP3   OH233884   0.408   0.183   6.516
11314TIP3    H133885   0.325   0.200   6.560
11314TIP3    H233886   0.444   0.106   6.560
11315TIP3   OH233887   6.579   3.612   5.888
11315TIP3    H133888   6.650   3.652   5.938
11315TIP3    H233889   6.572   3.664   5.809
11316TIP3   OH233890   0.753   7.360   1.591
11316TIP3    H133891   0.732   7.423   1.522
11316TIP3    H233892   0.793   7.287   1.546
11317TIP3   OH233893   4.638   2.685   4.331
11317TIP3    H133894   4.626   2.601   4.376
11317TIP3    H233895   4.566   2.689   4.268
11318TIP3   OH233896   5.066   4.442   1.179
11318TIP3    H133897   5.126   4.427   1.106
11318TIP3    H233898   5.121   4.440   1.257
11319TIP3   OH233899   4.394   5.312   3.804
11319TIP3    H133900   4.371   5.220   3.794
11319TIP3    H233901   4.392   5.327   3.899
11320TIP3   OH233902   2.918   0.045   2.677
11320TIP3    H133903   2.950   0.037   2.767
11320TIP3    H233904   2.822   0.045   2.686
11321TIP3   OH233905   6.227   5.722   6.476
11321TIP3    H133906   6.301   5.744   6.420
11321TIP3    H233907   6.257   5.648   6.529
11322TIP3   OH233908   4.998   1.775   0.523
11322TIP3    H133909   5.043   1.755   0.605
11322TIP3    H233910   4.993   1.692   0.476
11323TIP3   OH233911   0.123   5.911   3.958
11323TIP3    H133912   0.120   5.819   3.985
11323TIP3    H233913   0.215   5.929   3.940
11324TIP3   OH233914   1.830   6.054   6.722
11324TIP3    H133915   1.924   6.056   6.708
11324TIP3    H233916   1.794   6.110   6.653
11325TIP3   OH233917   6.618   5.703   0.403
11325TIP3    H133918   6.663   5.706   0.318
11325TIP3    H233919   6.689   5.708   0.467
11326TIP3   OH233920   4.803   2.025   4.027
11326TIP3    H133921   4.732   1.981   4.074
11326TIP3    H233922   4.760   2.098   3.983
11327TIP3   OH233923   0.261   1.472   5.427
11327TIP3    H133924   0.326   1.418   5.472
11327TIP3    H233925   0.301   1.559   5.421
11328TIP3   OH233926   3.533   7.361   3.199
11328TIP3    H133927   3.445   7.350   3.164
11328TIP3    H233928   3.541   7.295   3.267
11329TIP3   OH233929   7.341   1.351   4.864
11329TIP3    H133930   7.362   1.368   4.956
11329TIP3    H233931   7.260   1.401   4.848
11330TIP3   OH233932   4.228   6.219   1.157
11330TIP3    H133933   4.317   6.215   1.122
11330TIP3    H233934   4.178   6.159   1.102
11331TIP3   OH233935   6.127   7.434   3.473
11331TIP3    H133936   6.170   7.513   3.507
11331TIP3    H233937   6.169   7.418   3.389
11332TIP3   OH233938   2.340   1.066   6.697
11332TIP3    H133939   2.307   1.156   6.706
11332TIP3    H233940   2.269   1.011   6.730
11333TIP3   OH233941   5.537   2.231   0.491
11333TIP3    H133942   5.623   2.243   0.533
11333TIP3    H233943   5.556   2.180   0.412
11334TIP3   OH233944   3.845   2.496   6.564
11334TIP3    H133945   3.940   2.494   6.580
11334TIP3    H233946   3.811   2.553   6.633
11335TIP3   OH233947   6.535   2.338   0.114
11335TIP3    H133948   6.492   2.253   0.114
11335TIP3    H233949   6.518   2.374   0.201
11336TIP3   OH233950   7.338   2.732   1.426
11336TIP3    H133951   7.271   2.799   1.411
11336TIP3    H233952   7.292   2.649   1.408
11337TIP3   OH233953   3.339   0.345   3.907
11337TIP3    H133954   3.354   0.360   4.001
11337TIP3    H233955   3.329   0.433   3.871
11338TIP3   OH233956   4.320   2.048   5.957
11338TIP3    H133957   4.297   2.140   5.951
11338TIP3    H233958   4.315   2.028   6.051
11339TIP3   OH233959   8.213   3.386   0.708
11339TIP3    H133960   8.297   3.362   0.746
11339TIP3    H233961   8.203   3.328   0.632
11340TIP3   OH233962   6.923   3.628   1.706
11340TIP3    H133963   6.948   3.661   1.792
11340TIP3    H233964   6.999   3.647   1.651
11341TIP3   OH233965   4.779   1.641   3.061
11341TIP3    H133966   4.784   1.606   3.150
11341TIP3    H233967   4.870   1.655   3.035
11342TIP3   OH233968   4.967   4.499   1.527
11342TIP3    H133969   4.912   4.423   1.506
11342TIP3    H233970   5.048   4.460   1.561
11343TIP3   OH233971   8.203   7.541   1.366
11343TIP3    H133972   8.202   7.633   1.392
11343TIP3    H233973   8.287   7.508   1.396
11344TIP3   OH233974   7.642   0.575   3.063
11344TIP3    H133975   7.714   0.543   3.116
11344TIP3    H233976   7.585   0.499   3.050
11345TIP3   OH233977   6.169   4.188   5.247
11345TIP3    H133978   6.126   4.102   5.251
11345TIP3    H233979   6.098   4.251   5.251
11346TIP3   OH233980   5.607   7.239   1.528
11346TIP3    H133981   5.672   7.207   1.466
11346TIP3    H233982   5.527   7.248   1.477
11347TIP3   OH233983   6.125   4.837   1.620
11347TIP3    H133984   6.149   4.745   1.615
11347TIP3    H233985   6.054   4.848   1.557
11348TIP3   OH233986   7.457   6.723   0.150
11348TIP3    H133987   7.448   6.644   0.096
11348TIP3    H233988   7.369   6.741   0.182
11349TIP3   OH233989   2.826   3.823   1.002
11349TIP3    H133990   2.770   3.891   0.964
11349TIP3    H233991   2.915   3.859   0.997
11350TIP3   OH233992   2.221   4.876   5.423
11350TIP3    H133993   2.206   4.877   5.518
11350TIP3    H233994   2.315   4.894   5.414
11351TIP3   OH233995   3.630   3.994   1.195
11351TIP3    H133996   3.652   3.901   1.195
11351TIP3    H233997   3.700   4.035   1.245
11352TIP3   OH233998   5.663   6.216   5.537
11352TIP3    H133999   5.732   6.227   5.603
11352TIP3    H234000   5.673   6.293   5.480
11353TIP3   OH234001   7.774   4.312   1.708
11353TIP3    H134002   7.709   4.337   1.642
11353TIP3    H234003   7.769   4.217   1.711
11354TIP3   OH234004   2.572   2.962   3.202
11354TIP3    H134005   2.589   3.054   3.182
11354TIP3    H234006   2.489   2.963   3.249
11355TIP3   OH234007   5.889   1.456   0.213
11355TIP3    H134008   5.860   1.379   0.165
11355TIP3    H234009   5.964   1.489   0.163
11356TIP3   OH234010   4.735   6.790   0.700
11356TIP3    H134011   4.643   6.815   0.705
11356TIP3    H234012   4.743   6.747   0.615
11357TIP3   OH234013   2.130   0.906   4.942
11357TIP3    H134014   2.036   0.890   4.935
11357TIP3    H234015   2.144   0.932   5.033
11358TIP3   OH234016   6.358   4.961   0.408
11358TIP3    H134017   6.325   4.975   0.320
11358TIP3    H234018   6.439   5.012   0.412
11359TIP3   OH234019   3.810   0.686   0.925
11359TIP3    H134020   3.722   0.666   0.893
11359TIP3    H234021   3.800   0.695   1.020
11360TIP3   OH234022   6.740   5.320   5.524
11360TIP3    H134023   6.707   5.332   5.613
11360TIP3    H234024   6.665   5.285   5.476
11361TIP3   OH234025   4.832   6.343   6.001
11361TIP3    H134026   4.904   6.384   6.048
11361TIP3    H234027   4.754   6.371   6.050
11362TIP3   OH234028   4.930   4.456   4.593
11362TIP3    H134029   4.890   4.531   4.550
11362TIP3    H234030   5.018   4.450   4.556
11363TIP3   OH234031   2.928   4.092   5.930
11363TIP3    H134032   2.853   4.084   5.872
11363TIP3    H234033   2.979   4.165   5.894
11364TIP3   OH234034   4.799   1.609   2.686
11364TIP3    H134035   4.749   1.548   2.740
11364TIP3    H234036   4.879   1.562   2.665
11365TIP3   OH234037   0.340   7.080   5.988
11365TIP3    H134038   0.383   7.000   6.020
11365TIP3    H234039   0.406   7.148   5.999
11366TIP3   OH234040   2.436   1.209   1.960
11366TIP3    H134041   2.510   1.204   1.900
11366TIP3    H234042   2.473   1.184   2.045
11367TIP3   OH234043   7.908   7.321   3.596
11367TIP3    H134044   7.868   7.290   3.678
11367TIP3    H234045   7.921   7.414   3.610
11368TIP3   OH234046   7.053   3.417   0.243
11368TIP3    H134047   7.125   3.479   0.243
11368TIP3    H234048   7.009   3.431   0.327
11369TIP3   OH234049   3.068   0.505   6.558
11369TIP3    H134050   3.138   0.462   6.607
11369TIP3    H234051   3.067   0.459   6.473
11370TIP3   OH234052   1.009   7.228   1.126
11370TIP3    H134053   0.915   7.248   1.128
11370TIP3    H234054   1.050   7.304   1.166
11371TIP3   OH234055   7.763   5.533   5.325
11371TIP3    H134056   7.733   5.472   5.257
11371TIP3    H234057   7.848   5.498   5.352
11372TIP3   OH234058   7.183   7.565   1.471
11372TIP3    H134059   7.254   7.600   1.526
11372TIP3    H234060   7.108   7.621   1.492
11373TIP3   OH234061   6.591   3.706   5.388
11373TIP3    H134062   6.535   3.737   5.318
11373TIP3    H234063   6.678   3.702   5.350
11374TIP3   OH234064   6.500   1.125   5.842
11374TIP3    H134065   6.473   1.155   5.755
11374TIP3    H234066   6.590   1.158   5.851
11375TIP3   OH234067   1.104   6.104   5.989
11375TIP3    H134068   1.068   6.042   5.926
11375TIP3    H234069   1.180   6.059   6.025
11376TIP3   OH234070   1.372   1.327   5.775
11376TIP3    H134071   1.286   1.307   5.811
11376TIP3    H234072   1.373   1.422   5.765
11377TIP3   OH234073   6.181   5.934   1.464
11377TIP3    H134074   6.131   5.917   1.543
11377TIP3    H234075   6.125   5.991   1.411
11378TIP3   OH234076   1.737   2.319   1.503
11378TIP3    H134077   1.659   2.371   1.520
11378TIP3    H234078   1.805   2.360   1.555
11379TIP3   OH234079   8.090   2.435   2.539
11379TIP3    H134080   8.106   2.490   2.615
11379TIP3    H234081   8.136   2.479   2.467
11380TIP3   OH234082   3.769   6.742   3.144
11380TIP3    H134083   3.768   6.836   3.163
11380TIP3    H234084   3.844   6.731   3.085
11381TIP3   OH234085   4.412   2.728   0.666
11381TIP3    H134086   4.422   2.810   0.617
11381TIP3    H234087   4.480   2.731   0.733
11382TIP3   OH234088   7.974   7.420   6.281
11382TIP3    H134089   7.956   7.496   6.226
11382TIP3    H234090   8.007   7.354   6.220
11383TIP3   OH234091   6.892   1.234   5.610
11383TIP3    H134092   6.819   1.266   5.557
11383TIP3    H234093   6.962   1.297   5.594
11384TIP3   OH234094   5.273   7.376   0.091
11384TIP3    H134095   5.239   7.396   0.003
11384TIP3    H234096   5.208   7.415   0.150
11385TIP3   OH234097   8.243   1.709   4.287
11385TIP3    H134098   8.222   1.695   4.379
11385TIP3    H234099   8.160   1.696   4.241
11386TIP3   OH234100   5.435   5.462   2.674
11386TIP3    H134101   5.380   5.384   2.686
11386TIP3    H234102   5.497   5.438   2.606
11387TIP3   OH234103   8.161   3.155   4.097
11387TIP3    H134104   8.074   3.139   4.061
11387TIP3    H234105   8.218   3.164   4.021
11388TIP3   OH234106   2.606   6.480   3.963
11388TIP3    H134107   2.613   6.391   3.928
11388TIP3    H234108   2.631   6.536   3.890
11389TIP3   OH234109   7.658   4.364   6.545
11389TIP3    H134110   7.567   4.390   6.554
11389TIP3    H234111   7.708   4.431   6.591
11390TIP3   OH234112   2.136   7.477   4.919
11390TIP3    H134113   2.062   7.527   4.882
11390TIP3    H234114   2.214   7.526   4.893
11391TIP3   OH234115   6.335   6.452   5.164
11391TIP3    H134116   6.320   6.507   5.241
11391TIP3    H234117   6.273   6.379   5.173
11392TIP3   OH234118   2.954   5.067   6.209
11392TIP3    H134119   2.999   5.093   6.290
11392TIP3    H234120   3.008   4.997   6.173
11393TIP3   OH234121   7.952   0.730   0.426
11393TIP3    H134122   7.901   0.766   0.354
11393TIP3    H234123   7.949   0.797   0.494
11394TIP3   OH234124   6.319   1.065   3.730
11394TIP3    H134125   6.310   0.999   3.662
11394TIP3    H234126   6.377   1.026   3.795
11395TIP3   OH234127   6.112   4.690   2.141
11395TIP3    H134128   6.130   4.777   2.105
11395TIP3    H234129   6.140   4.630   2.072
11396TIP3   OH234130   6.026   3.656   5.417
11396TIP3    H134131   6.096   3.591   5.419
11396TIP3    H234132   6.024   3.694   5.505
11397TIP3   OH234133   3.183   1.043   4.338
11397TIP3    H134134   3.129   0.985   4.391
11397TIP3    H234135   3.271   1.005   4.343
11398TIP3   OH234136   3.265   7.388   0.646
11398TIP3    H134137   3.203   7.429   0.585
11398TIP3    H234138   3.325   7.459   0.669
11399TIP3   OH234139   0.626   5.604   0.459
11399TIP3    H134140   0.703   5.573   0.506
11399TIP3    H234141   0.556   5.603   0.524
11400TIP3   OH234142   2.167   1.497   3.654
11400TIP3    H134143   2.150   1.576   3.601
11400TIP3    H234144   2.262   1.487   3.653
11401TIP3   OH234145   5.103   3.989   0.061
11401TIP3    H134146   5.101   4.055  -0.007
11401TIP3    H234147   5.013   3.984   0.093
11402TIP3   OH234148   5.899   7.594   3.894
11402TIP3    H134149   5.880   7.675   3.941
11402TIP3    H234150   5.889   7.616   3.802
11403TIP3   OH234151   0.789   3.575   0.064
11403TIP3    H134152   0.814   3.495   0.018
11403TIP3    H234153   0.808   3.556   0.156
11404TIP3   OH234154   0.767   0.107   2.370
11404TIP3    H134155   0.812   0.087   2.452
11404TIP3    H234156   0.791   0.198   2.351
11405TIP3   OH234157   0.315   0.634   2.983
11405TIP3    H134158   0.302   0.650   2.890
11405TIP3    H234159   0.409   0.648   2.997
11406TIP3   OH234160   4.632   0.624   3.568
11406TIP3    H134161   4.645   0.529   3.572
11406TIP3    H234162   4.710   0.656   3.521
11407TIP3   OH234163   0.608   1.554   5.033
11407TIP3    H134164   0.670   1.491   4.996
11407TIP3    H234165   0.661   1.613   5.085
11408TIP3   OH234166   7.279   0.911   1.130
11408TIP3    H134167   7.262   0.980   1.066
11408TIP3    H234168   7.228   0.937   1.207
11409TIP3   OH234169   7.820   2.722   6.599
11409TIP3    H134170   7.813   2.636   6.558
11409TIP3    H234171   7.743   2.769   6.569
11410TIP3   OH234172   2.270   7.413   2.714
11410TIP3    H134173   2.235   7.500   2.735
11410TIP3    H234174   2.198   7.370   2.667
11411TIP3   OH234175   6.935   5.691   0.932
11411TIP3    H134176   6.919   5.636   0.856
11411TIP3    H234177   6.969   5.773   0.896
11412TIP3   OH234178   5.972   0.904   5.383
11412TIP3    H134179   5.942   0.994   5.397
11412TIP3    H234180   5.892   0.852   5.376
11413TIP3   OH234181   7.282   2.866   0.878
11413TIP3    H134182   7.293   2.941   0.936
11413TIP3    H234183   7.188   2.851   0.874
11414TIP3   OH234184   7.857   7.484   3.047
11414TIP3    H134185   7.898   7.563   3.081
11414TIP3    H234186   7.871   7.418   3.115
11415TIP3   OH234187   2.829   5.316   6.256
11415TIP3    H134188   2.853   5.343   6.345
11415TIP3    H234189   2.875   5.233   6.243
11416TIP3   OH234190   1.953   1.278   1.688
11416TIP3    H134191   1.925   1.249   1.601
11416TIP3    H234192   1.918   1.212   1.748
11417TIP3   OH234193   2.746   1.547   0.979
11417TIP3    H134194   2.788   1.601   0.912
11417TIP3    H234195   2.694   1.608   1.031
11418TIP3   OH234196   7.389   2.899   5.199
11418TIP3    H134197   7.386   2.889   5.103
11418TIP3    H234198   7.452   2.832   5.227
11419TIP3   OH234199   2.980   2.867   6.488
11419TIP3    H134200   2.891   2.845   6.462
11419TIP3    H234201   2.999   2.810   6.562
11420TIP3   OH234202   4.553   1.887   2.705
11420TIP3    H134203   4.627   1.880   2.645
11420TIP3    H234204   4.520   1.975   2.692
11421TIP3   OH234205   7.745   0.124   0.092
11421TIP3    H134206   7.684   0.180   0.140
11421TIP3    H234207   7.752   0.045   0.145
11422TIP3   OH234208   4.074   3.085   1.155
11422TIP3    H134209   4.169   3.092   1.168
11422TIP3    H234210   4.044   3.024   1.223
11423TIP3   OH234211   3.882   0.960   4.391
11423TIP3    H134212   3.927   1.029   4.342
11423TIP3    H234213   3.927   0.956   4.475
11424TIP3   OH234214   0.932   1.699   1.379
11424TIP3    H134215   0.837   1.706   1.371
11424TIP3    H234216   0.964   1.700   1.288
11425TIP3   OH234217   3.070   5.200   5.626
11425TIP3    H134218   3.087   5.292   5.647
11425TIP3    H234219   2.990   5.179   5.674
11426TIP3   OH234220   4.648   6.350   6.191
11426TIP3    H134221   4.608   6.263   6.193
11426TIP3    H234222   4.664   6.370   6.284
11427TIP3   OH234223   5.546   0.915   2.331
11427TIP3    H134224   5.593   0.926   2.414
11427TIP3    H234225   5.467   0.967   2.342
11428TIP3   OH234226   4.574   4.999   1.674
11428TIP3    H134227   4.663   4.967   1.658
11428TIP3    H234228   4.584   5.094   1.682
11429TIP3   OH234229   3.038   3.649   6.716
11429TIP3    H134230   2.970   3.582   6.719
11429TIP3    H234231   3.061   3.664   6.808
11430TIP3   OH234232   7.201   4.676   4.580
11430TIP3    H134233   7.270   4.635   4.632
11430TIP3    H234234   7.237   4.761   4.555
11431TIP3   OH234235   1.081   4.025   5.368
11431TIP3    H134236   1.128   4.018   5.452
11431TIP3    H234237   1.027   3.946   5.365
11432TIP3   OH234238   2.301   5.322   1.962
11432TIP3    H134239   2.296   5.402   2.013
11432TIP3    H234240   2.214   5.284   1.968
11433TIP3   OH234241   2.177   0.528   2.259
11433TIP3    H134242   2.210   0.594   2.198
11433TIP3    H234243   2.252   0.470   2.273
11434TIP3   OH234244   5.958   4.722   1.864
11434TIP3    H134245   6.013   4.654   1.825
11434TIP3    H234246   6.005   4.804   1.848
11435TIP3   OH234247   2.141   0.149   0.590
11435TIP3    H134248   2.124   0.067   0.545
11435TIP3    H234249   2.093   0.215   0.540
11436TIP3   OH234250   6.784   1.781   6.052
11436TIP3    H134251   6.862   1.738   6.017
11436TIP3    H234252   6.754   1.837   5.981
11437TIP3   OH234253   0.775   1.511   4.681
11437TIP3    H134254   0.682   1.534   4.685
11437TIP3    H234255   0.791   1.494   4.588
11438TIP3   OH234256   5.706   4.074   1.841
11438TIP3    H134257   5.788   4.091   1.887
11438TIP3    H234258   5.732   4.026   1.762
11439TIP3   OH234259   1.459   0.430  -0.004
11439TIP3    H134260   1.365   0.421   0.014
11439TIP3    H234261   1.471   0.385  -0.087
11440TIP3   OH234262   7.850   7.439   2.563
11440TIP3    H134263   7.779   7.476   2.510
11440TIP3    H234264   7.917   7.507   2.565
11441TIP3   OH234265   0.577   0.804   2.649
11441TIP3    H134266   0.501   0.746   2.650
11441TIP3    H234267   0.563   0.864   2.722
11442TIP3   OH234268   4.751   1.113   0.750
11442TIP3    H134269   4.777   1.033   0.794
11442TIP3    H234270   4.688   1.085   0.684
11443TIP3   OH234271   4.549   1.205   5.704
11443TIP3    H134272   4.571   1.114   5.688
11443TIP3    H234273   4.631   1.252   5.690
11444TIP3   OH234274   2.361   4.041   3.052
11444TIP3    H134275   2.425   4.083   2.994
11444TIP3    H234276   2.283   4.029   2.996
11445TIP3   OH234277   5.664   2.035   4.373
11445TIP3    H134278   5.701   2.044   4.285
11445TIP3    H234279   5.719   2.092   4.427
11446TIP3   OH234280   5.208   2.573   5.660
11446TIP3    H134281   5.118   2.570   5.690
11446TIP3    H234282   5.231   2.481   5.643
11447TIP3   OH234283   2.348   1.150   1.414
11447TIP3    H134284   2.331   1.149   1.320
11447TIP3    H234285   2.264   1.129   1.454
11448TIP3   OH234286   8.038   4.075   4.338
11448TIP3    H134287   8.111   4.107   4.285
11448TIP3    H234288   8.066   4.091   4.429
11449TIP3   OH234289   7.715   1.478   3.457
11449TIP3    H134290   7.705   1.418   3.531
11449TIP3    H234291   7.630   1.521   3.449
11450TIP3   OH234292   1.348   7.271   6.547
11450TIP3    H134293   1.270   7.296   6.597
11450TIP3    H234294   1.422   7.303   6.599
11451TIP3   OH234295   7.363   0.487   4.070
11451TIP3    H134296   7.394   0.397   4.073
11451TIP3    H234297   7.429   0.533   4.018
11452TIP3   OH234298   0.922   3.933   1.928
11452TIP3    H134299   0.941   3.860   1.869
11452TIP3    H234300   0.943   4.011   1.877
11453TIP3   OH234301   5.418   6.375   1.248
11453TIP3    H134302   5.358   6.391   1.321
11453TIP3    H234303   5.455   6.289   1.266
11454TIP3   OH234304   4.038   5.616   6.273
11454TIP3    H134305   4.023   5.528   6.306
11454TIP3    H234306   4.128   5.636   6.298
11455TIP3   OH234307   1.325   2.698   6.315
11455TIP3    H134308   1.337   2.670   6.405
11455TIP3    H234309   1.265   2.773   6.321
11456TIP3   OH234310   3.763   1.431   3.399
11456TIP3    H134311   3.741   1.486   3.473
11456TIP3    H234312   3.680   1.413   3.356
11457TIP3   OH234313   2.035   5.000   0.849
11457TIP3    H134314   1.956   5.020   0.899
11457TIP3    H234315   2.066   5.085   0.818
11458TIP3   OH234316   0.518   4.539   2.038
11458TIP3    H134317   0.542   4.474   2.104
11458TIP3    H234318   0.446   4.498   1.990
11459TIP3   OH234319   7.656   2.190   2.224
11459TIP3    H134320   7.678   2.140   2.302
11459TIP3    H234321   7.579   2.241   2.249
11460TIP3   OH234322   0.900   7.151   1.474
11460TIP3    H134323   0.909   7.107   1.558
11460TIP3    H234324   0.879   7.081   1.412
11461TIP3   OH234325   5.386   0.286   0.952
11461TIP3    H134326   5.393   0.274   1.047
11461TIP3    H234327   5.392   0.380   0.939
11462TIP3   OH234328   6.603   3.459   0.438
11462TIP3    H134329   6.530   3.449   0.377
11462TIP3    H234330   6.620   3.553   0.439
11463TIP3   OH234331   0.456   1.586   2.877
11463TIP3    H134332   0.544   1.593   2.913
11463TIP3    H234333   0.455   1.646   2.803
11464TIP3   OH234334   8.188   7.186   4.307
11464TIP3    H134335   8.207   7.094   4.288
11464TIP3    H234336   8.142   7.184   4.391
11465TIP3   OH234337   4.400   3.058   0.827
11465TIP3    H134338   4.372   3.114   0.899
11465TIP3    H234339   4.322   3.006   0.805
11466TIP3   OH234340   3.558   5.177   4.758
11466TIP3    H134341   3.543   5.265   4.724
11466TIP3    H234342   3.595   5.191   4.845
11467TIP3   OH234343   5.750   4.497   2.320
11467TIP3    H134344   5.681   4.562   2.307
11467TIP3    H234345   5.765   4.460   2.233
11468TIP3   OH234346   0.784   3.480   5.347
11468TIP3    H134347   0.725   3.406   5.333
11468TIP3    H234348   0.872   3.444   5.336
11469TIP3   OH234349   1.644   5.089   5.685
11469TIP3    H134350   1.620   5.001   5.715
11469TIP3    H234351   1.589   5.147   5.737
11470TIP3   OH234352   4.580   3.878   3.424
11470TIP3    H134353   4.538   3.893   3.339
11470TIP3    H234354   4.652   3.817   3.406
11471TIP3   OH234355   3.669   4.897   5.815
11471TIP3    H134356   3.648   4.990   5.804
11471TIP3    H234357   3.741   4.882   5.754
11472TIP3   OH234358   1.672   1.112   1.395
11472TIP3    H134359   1.642   1.157   1.475
11472TIP3    H234360   1.728   1.042   1.427
11473TIP3   OH234361   6.853   5.580   6.307
11473TIP3    H134362   6.846   5.502   6.361
11473TIP3    H234363   6.899   5.644   6.361
11474TIP3   OH234364   3.235   7.148   3.754
11474TIP3    H134365   3.192   7.067   3.780
11474TIP3    H234366   3.299   7.122   3.687
11475TIP3   OH234367   7.837   6.069   0.245
11475TIP3    H134368   7.768   6.134   0.235
11475TIP3    H234369   7.883   6.095   0.325
11476TIP3   OH234370   3.354   0.464   6.512
11476TIP3    H134371   3.411   0.521   6.564
11476TIP3    H234372   3.339   0.513   6.431
11477TIP3   OH234373   6.548   1.200   2.351
11477TIP3    H134374   6.516   1.232   2.435
11477TIP3    H234375   6.512   1.262   2.286
11478TIP3   OH234376   2.840   2.629   2.635
11478TIP3    H134377   2.841   2.581   2.552
11478TIP3    H234378   2.861   2.719   2.612
11479TIP3   OH234379   5.863   4.190   5.416
11479TIP3    H134380   5.942   4.213   5.464
11479TIP3    H234381   5.876   4.227   5.329
11480TIP3   OH234382   1.402   4.205   4.068
11480TIP3    H134383   1.355   4.271   4.120
11480TIP3    H234384   1.392   4.124   4.117
11481TIP3   OH234385   1.910   1.424   1.951
11481TIP3    H134386   1.949   1.444   1.865
11481TIP3    H234387   1.844   1.357   1.932
11482TIP3   OH234388   7.204   6.562   4.167
11482TIP3    H134389   7.282   6.574   4.113
11482TIP3    H234390   7.147   6.505   4.115
11483TIP3   OH234391   5.883   1.751   4.389
11483TIP3    H134392   5.938   1.816   4.433
11483TIP3    H234393   5.916   1.667   4.422
11484TIP3   OH234394   7.864   3.422   3.889
11484TIP3    H134395   7.914   3.403   3.969
11484TIP3    H234396   7.803   3.348   3.882
11485TIP3   OH234397   0.433   0.610   4.865
11485TIP3    H134398   0.482   0.548   4.812
11485TIP3    H234399   0.366   0.557   4.908
11486TIP3   OH234400   3.932   6.639   2.179
11486TIP3    H134401   3.961   6.555   2.144
11486TIP3    H234402   3.975   6.704   2.123
11487TIP3   OH234403   3.887   3.222   2.495
11487TIP3    H134404   3.886   3.317   2.502
11487TIP3    H234405   3.794   3.197   2.494
11488TIP3   OH234406   8.002   5.104   0.048
11488TIP3    H134407   8.042   5.191   0.052
11488TIP3    H234408   8.075   5.045   0.029
11489TIP3   OH234409   7.331   2.047   1.693
11489TIP3    H134410   7.409   2.083   1.737
11489TIP3    H234411   7.351   2.055   1.600
11490TIP3   OH234412   2.822   6.239   3.029
11490TIP3    H134413   2.727   6.242   3.016
11490TIP3    H234414   2.834   6.192   3.112
11491TIP3   OH234415   6.383   0.679   6.056
11491TIP3    H134416   6.304   0.721   6.090
11491TIP3    H234417   6.401   0.724   5.973
11492TIP3   OH234418   7.622   4.178   3.532
11492TIP3    H134419   7.530   4.204   3.533
11492TIP3    H234420   7.626   4.109   3.465
11493TIP3   OH234421   7.415   5.897   1.504
11493TIP3    H134422   7.449   5.948   1.431
11493TIP3    H234423   7.466   5.924   1.580
11494TIP3   OH234424   0.814   0.830   2.252
11494TIP3    H134425   0.847   0.768   2.317
11494TIP3    H234426   0.810   0.914   2.298
11495TIP3   OH234427   2.021   2.756   3.358
11495TIP3    H134428   1.930   2.769   3.385
11495TIP3    H234429   2.061   2.843   3.367
11496TIP3   OH234430   4.431   5.612   0.722
11496TIP3    H134431   4.443   5.517   0.724
11496TIP3    H234432   4.338   5.625   0.706
11497TIP3   OH234433   5.979   2.215   2.815
11497TIP3    H134434   5.901   2.245   2.770
11497TIP3    H234435   6.037   2.185   2.745
11498TIP3   OH234436   7.718   7.803   1.747
11498TIP3    H134437   7.712   7.820   1.653
11498TIP3    H234438   7.809   7.780   1.761
11499TIP3   OH234439   7.783   1.274   2.332
11499TIP3    H134440   7.746   1.320   2.257
11499TIP3    H234441   7.724   1.296   2.405
11500TIP3   OH234442   7.887   5.686   3.698
11500TIP3    H134443   7.933   5.683   3.614
11500TIP3    H234444   7.950   5.651   3.761
11501TIP3   OH234445   4.045   6.625   3.739
11501TIP3    H134446   3.954   6.645   3.714
11501TIP3    H234447   4.094   6.634   3.657
11502TIP3   OH234448   1.462   4.704   5.950
11502TIP3    H134449   1.481   4.651   5.873
11502TIP3    H234450   1.531   4.769   5.953
11503TIP3   OH234451   1.278   4.714   2.825
11503TIP3    H134452   1.196   4.742   2.867
11503TIP3    H234453   1.250   4.652   2.758
11504TIP3   OH234454   7.310   4.123   0.634
11504TIP3    H134455   7.276   4.034   0.624
11504TIP3    H234456   7.327   4.132   0.728
11505TIP3   OH234457   6.056   4.900   3.925
11505TIP3    H134458   6.002   4.967   3.882
11505TIP3    H234459   6.079   4.940   4.009
11506TIP3   OH234460   3.370   4.878   3.141
11506TIP3    H134461   3.378   4.800   3.087
11506TIP3    H234462   3.320   4.940   3.087
11507TIP3   OH234463   4.959   6.885   5.741
11507TIP3    H134464   4.916   6.904   5.658
11507TIP3    H234465   4.900   6.823   5.784
11508TIP3   OH234466   6.857   6.989   3.713
11508TIP3    H134467   6.869   7.046   3.788
11508TIP3    H234468   6.803   6.917   3.746
11509TIP3   OH234469   1.656   4.977   1.643
11509TIP3    H134470   1.741   4.980   1.597
11509TIP3    H234471   1.591   4.979   1.573
11510TIP3   OH234472   3.498   1.304   6.570
11510TIP3    H134473   3.461   1.365   6.633
11510TIP3    H234474   3.547   1.241   6.622
11511TIP3   OH234475   5.816   4.506   6.659
11511TIP3    H134476   5.748   4.445   6.689
11511TIP3    H234477   5.898   4.469   6.693
11512TIP3   OH234478   2.017   4.470   0.840
11512TIP3    H134479   2.010   4.550   0.892
11512TIP3    H234480   1.938   4.469   0.787
11513TIP3   OH234481   7.767   6.210   4.856
11513TIP3    H134482   7.860   6.195   4.842
11513TIP3    H234483   7.756   6.208   4.951
11514TIP3   OH234484   0.895   0.573   2.403
11514TIP3    H134485   0.970   0.555   2.460
11514TIP3    H234486   0.885   0.494   2.350
11515TIP3   OH234487   1.402   6.507   3.352
11515TIP3    H134488   1.407   6.603   3.362
11515TIP3    H234489   1.368   6.476   3.436
11516TIP3   OH234490   3.661   5.507   3.661
11516TIP3    H134491   3.685   5.429   3.611
11516TIP3    H234492   3.743   5.534   3.704
11517TIP3   OH234493   2.014   7.303   2.710
11517TIP3    H134494   1.942   7.365   2.695
11517TIP3    H234495   1.999   7.233   2.647
11518TIP3   OH234496   7.919   7.712   2.022
11518TIP3    H134497   7.825   7.729   2.028
11518TIP3    H234498   7.950   7.721   2.112
11519TIP3   OH234499   3.604   3.553   0.788
11519TIP3    H134500   3.559   3.622   0.740
11519TIP3    H234501   3.697   3.578   0.785
11520TIP3   OH234502   3.680   0.682   5.510
11520TIP3    H134503   3.599   0.721   5.477
11520TIP3    H234504   3.736   0.756   5.531
11521TIP3   OH234505   1.220   6.331   5.189
11521TIP3    H134506   1.151   6.272   5.220
11521TIP3    H234507   1.224   6.400   5.255
11522TIP3   OH234508   4.761   4.277   4.885
11522TIP3    H134509   4.806   4.351   4.843
11522TIP3    H234510   4.695   4.318   4.941
11523TIP3   OH234511   0.155   4.460   4.713
11523TIP3    H134512   0.218   4.510   4.763
11523TIP3    H234513   0.184   4.369   4.722
11524TIP3   OH234514   3.440   7.596   0.671
11524TIP3    H134515   3.509   7.589   0.605
11524TIP3    H234516   3.398   7.680   0.652
11525TIP3   OH234517   1.021   6.620   5.818
11525TIP3    H134518   1.012   6.643   5.726
11525TIP3    H234519   1.015   6.704   5.865
11526TIP3   OH234520   0.355   6.828   0.739
11526TIP3    H134521   0.370   6.792   0.651
11526TIP3    H234522   0.272   6.789   0.767
11527TIP3   OH234523   7.959   7.440   1.236
11527TIP3    H134524   7.888   7.476   1.289
11527TIP3    H234525   8.038   7.483   1.269
11528TIP3   OH234526   1.319   3.571   6.809
11528TIP3    H134527   1.273   3.507   6.864
11528TIP3    H234528   1.294   3.547   6.719
11529TIP3   OH234529   8.239   0.975   4.296
11529TIP3    H134530   8.269   1.032   4.366
11529TIP3    H234531   8.249   1.026   4.216
11530TIP3   OH234532   2.813   6.289   4.288
11530TIP3    H134533   2.757   6.214   4.266
11530TIP3    H234534   2.778   6.321   4.371
11531TIP3   OH234535   6.114   5.268   3.579
11531TIP3    H134536   6.130   5.271   3.485
11531TIP3    H234537   6.045   5.202   3.589
11532TIP3   OH234538   1.130   1.713   5.848
11532TIP3    H134539   1.118   1.807   5.838
11532TIP3    H234540   1.040   1.678   5.849
11533TIP3   OH234541   0.071   5.195   0.122
11533TIP3    H134542   0.019   5.266   0.084
11533TIP3    H234543   0.016   5.160   0.192
11534TIP3   OH234544   0.830   3.455   1.844
11534TIP3    H134545   0.812   3.518   1.914
11534TIP3    H234546   0.922   3.470   1.822
11535TIP3   OH234547   2.796   2.222   0.031
11535TIP3    H134548   2.724   2.211   0.094
11535TIP3    H234549   2.873   2.238   0.086
11536TIP3   OH234550   5.284   3.938   0.264
11536TIP3    H134551   5.220   3.949   0.194
11536TIP3    H234552   5.275   3.846   0.291
11537TIP3   OH234553   0.481   5.908   4.583
11537TIP3    H134554   0.508   5.946   4.667
11537TIP3    H234555   0.561   5.907   4.531
11538TIP3   OH234556   1.774   1.184   1.869
11538TIP3    H134557   1.812   1.143   1.946
11538TIP3    H234558   1.681   1.194   1.890
11539TIP3   OH234559   5.381   1.705   3.932
11539TIP3    H134560   5.406   1.645   3.862
11539TIP3    H234561   5.288   1.689   3.946
11540TIP3   OH234562   8.091   0.035   3.760
11540TIP3    H134563   8.046  -0.018   3.825
11540TIP3    H234564   8.040   0.116   3.755
11541TIP3   OH234565   6.136   6.594   3.580
11541TIP3    H134566   6.181   6.591   3.664
11541TIP3    H234567   6.127   6.687   3.561
11542TIP3   OH234568   4.018   5.303   6.606
11542TIP3    H134569   3.995   5.249   6.681
11542TIP3    H234570   4.104   5.270   6.579
11543TIP3   OH234571   5.504   4.512   4.636
11543TIP3    H134572   5.460   4.591   4.604
11543TIP3    H234573   5.572   4.544   4.694
11544TIP3   OH234574   2.555   5.127   3.161
11544TIP3    H134575   2.595   5.103   3.245
11544TIP3    H234576   2.552   5.045   3.112
11545TIP3   OH234577   4.992   2.075   1.111
11545TIP3    H134578   4.898   2.089   1.102
11545TIP3    H234579   5.018   2.132   1.183
11546TIP3   OH234580   7.858   2.448   1.360
11546TIP3    H134581   7.865   2.381   1.428
11546TIP3    H234582   7.892   2.527   1.401
11547TIP3   OH234583   3.937   6.827   4.677
11547TIP3    H134584   3.881   6.818   4.600
11547TIP3    H234585   3.934   6.742   4.720
11548TIP3   OH234586   5.282   0.056   2.220
11548TIP3    H134587   5.242  -0.007   2.160
11548TIP3    H234588   5.346   0.005   2.270
11549TIP3   OH234589   0.461   7.237   3.193
11549TIP3    H134590   0.484   7.262   3.283
11549TIP3    H234591   0.395   7.168   3.204
11550TIP3   OH234592   7.990   7.701   6.321
11550TIP3    H134593   8.050   7.631   6.346
11550TIP3    H234594   8.045   7.765   6.276
11551TIP3   OH234595   7.698   5.701   6.208
11551TIP3    H134596   7.734   5.613   6.214
11551TIP3    H234597   7.736   5.738   6.129
11552TIP3   OH234598   6.256   6.015   2.082
11552TIP3    H134599   6.278   6.046   2.170
11552TIP3    H234600   6.166   6.043   2.069
11553TIP3   OH234601   0.008   1.424   0.608
11553TIP3    H134602   0.089   1.397   0.566
11553TIP3    H234603  -0.011   1.510   0.570
11554TIP3   OH234604   2.501   7.378   5.336
11554TIP3    H134605   2.434   7.310   5.331
11554TIP3    H234606   2.472   7.445   5.274
11555TIP3   OH234607   1.188   7.365   0.895
11555TIP3    H134608   1.210   7.388   0.805
11555TIP3    H234609   1.108   7.312   0.888
11556TIP3   OH234610   3.644   7.255   1.630
11556TIP3    H134611   3.576   7.222   1.571
11556TIP3    H234612   3.719   7.196   1.616
11557TIP3   OH234613   8.137   1.985   4.896
11557TIP3    H134614   8.070   2.004   4.962
11557TIP3    H234615   8.198   1.927   4.941
11558TIP3   OH234616   3.233   1.481   4.490
11558TIP3    H134617   3.322   1.473   4.524
11558TIP3    H234618   3.177   1.469   4.567
11559TIP3   OH234619   7.000   1.144   2.700
11559TIP3    H134620   6.953   1.162   2.618
11559TIP3    H234621   7.038   1.228   2.724
11560TIP3   OH234622   4.360   4.857   1.553
11560TIP3    H134623   4.352   4.807   1.472
11560TIP3    H234624   4.447   4.835   1.586
11561TIP3   OH234625   1.990   7.411   4.072
11561TIP3    H134626   2.062   7.431   4.013
11561TIP3    H234627   1.912   7.413   4.016
11562TIP3   OH234628   6.393   6.383   2.123
11562TIP3    H134629   6.360   6.453   2.180
11562TIP3    H234630   6.481   6.365   2.156
11563TIP3   OH234631   0.331   2.522   4.313
11563TIP3    H134632   0.356   2.544   4.223
11563TIP3    H234633   0.235   2.514   4.310
11564TIP3   OH234634   3.347   6.958   4.803
11564TIP3    H134635   3.322   6.866   4.792
11564TIP3    H234636   3.353   6.970   4.898
11565TIP3   OH234637   0.038   4.082   1.294
11565TIP3    H134638   0.012   4.166   1.332
11565TIP3    H234639   0.037   4.021   1.367
11566TIP3   OH234640   3.122   6.427   5.092
11566TIP3    H134641   3.144   6.401   5.003
11566TIP3    H234642   3.196   6.398   5.145
11567TIP3   OH234643   2.964   7.542   5.554
11567TIP3    H134644   2.912   7.490   5.616
11567TIP3    H234645   2.944   7.633   5.577
11568TIP3   OH234646   2.782   1.903   4.370
11568TIP3    H134647   2.817   1.814   4.364
11568TIP3    H234648   2.718   1.899   4.441
11569TIP3   OH234649   4.657   6.131   3.389
11569TIP3    H134650   4.690   6.215   3.420
11569TIP3    H234651   4.734   6.074   3.390
11570TIP3   OH234652   6.091   3.106   5.920
11570TIP3    H134653   6.182   3.126   5.897
11570TIP3    H234654   6.043   3.186   5.902
11571TIP3   OH234655   3.260   2.251   3.780
11571TIP3    H134656   3.345   2.239   3.738
11571TIP3    H234657   3.205   2.289   3.711
11572TIP3   OH234658   1.506   2.704   1.723
11572TIP3    H134659   1.588   2.698   1.771
11572TIP3    H234660   1.439   2.711   1.791
11573TIP3   OH234661   2.849   5.893   3.042
11573TIP3    H134662   2.795   5.950   2.988
11573TIP3    H234663   2.827   5.804   3.013
11574TIP3   OH234664   0.953   1.557   0.547
11574TIP3    H134665   0.879   1.563   0.487
11574TIP3    H234666   1.024   1.520   0.494
11575TIP3   OH234667   0.325   6.324   5.942
11575TIP3    H134668   0.245   6.322   5.889
11575TIP3    H234669   0.316   6.403   5.996
11576TIP3   OH234670   1.486   1.820   0.764
11576TIP3    H134671   1.536   1.854   0.838
11576TIP3    H234672   1.396   1.848   0.781
11577TIP3   OH234673   5.833   7.618   1.188
11577TIP3    H134674   5.801   7.528   1.189
11577TIP3    H234675   5.922   7.612   1.221
11578TIP3   OH234676   0.195   7.655   5.915
11578TIP3    H134677   0.158   7.720   5.855
11578TIP3    H234678   0.242   7.706   5.980
11579TIP3   OH234679   6.162   2.337   4.224
11579TIP3    H134680   6.226   2.391   4.178
11579TIP3    H234681   6.120   2.285   4.156
11580TIP3   OH234682   1.707   3.758   2.660
11580TIP3    H134683   1.720   3.850   2.679
11580TIP3    H234684   1.623   3.755   2.614
11581TIP3   OH234685   1.516   3.624   3.024
11581TIP3    H134686   1.527   3.643   2.931
11581TIP3    H234687   1.423   3.640   3.041
11582TIP3   OH234688   6.014   5.821   0.055
11582TIP3    H134689   5.937   5.816  -0.001
11582TIP3    H234690   6.070   5.888   0.014
11583TIP3   OH234691   2.449   3.588   4.248
11583TIP3    H134692   2.362   3.581   4.287
11583TIP3    H234693   2.454   3.678   4.215
11584TIP3   OH234694   7.782   3.137   1.697
11584TIP3    H134695   7.727   3.159   1.622
11584TIP3    H234696   7.864   3.106   1.659
11585TIP3   OH234697   7.425   4.883   6.553
11585TIP3    H134698   7.346   4.847   6.593
11585TIP3    H234699   7.417   4.861   6.461
11586TIP3   OH234700   4.861   5.095   5.789
11586TIP3    H134701   4.822   5.103   5.702
11586TIP3    H234702   4.891   5.004   5.793
11587TIP3   OH234703   4.875   2.345   3.252
11587TIP3    H134704   4.954   2.311   3.209
11587TIP3    H234705   4.817   2.270   3.259
11588TIP3   OH234706   5.910   5.890   3.257
11588TIP3    H134707   5.964   5.856   3.186
11588TIP3    H234708   5.867   5.812   3.294
11589TIP3   OH234709   2.287   4.393   2.275
11589TIP3    H134710   2.234   4.430   2.204
11589TIP3    H234711   2.258   4.302   2.281
11590TIP3   OH234712   8.137   6.545   2.408
11590TIP3    H134713   8.228   6.564   2.431
11590TIP3    H234714   8.087   6.619   2.444
11591TIP3   OH234715   6.208   1.051   6.581
11591TIP3    H134716   6.253   0.989   6.523
11591TIP3    H234717   6.228   1.137   6.544
11592TIP3   OH234718   5.830   6.225   4.127
11592TIP3    H134719   5.755   6.167   4.114
11592TIP3    H234720   5.803   6.285   4.196
11593TIP3   OH234721   6.483   3.904   6.515
11593TIP3    H134722   6.404   3.867   6.556
11593TIP3    H234723   6.472   3.999   6.524
11594TIP3   OH234724   8.001   6.498   4.431
11594TIP3    H134725   8.040   6.585   4.428
11594TIP3    H234726   8.047   6.452   4.502
11595TIP3   OH234727   8.168   7.043   2.851
11595TIP3    H134728   8.148   7.040   2.945
11595TIP3    H234729   8.193   6.954   2.829
11596TIP3   OH234730   6.287   3.019   0.149
11596TIP3    H134731   6.229   2.943   0.141
11596TIP3    H234732   6.229   3.094   0.157
11597TIP3   OH234733   2.632   3.106   0.082
11597TIP3    H134734   2.681   3.140   0.158
11597TIP3    H234735   2.564   3.172   0.066
11598TIP3   OH234736   8.255   2.619   1.810
11598TIP3    H134737   8.338   2.663   1.791
11598TIP3    H234738   8.267   2.530   1.775
11599TIP3   OH234739   7.726   0.148   4.231
11599TIP3    H134740   7.793   0.085   4.256
11599TIP3    H234741   7.715   0.135   4.137
11600TIP3   OH234742   4.839   4.093   0.702
11600TIP3    H134743   4.771   4.116   0.639
11600TIP3    H234744   4.861   4.003   0.681
11601TIP3   OH234745   7.337   4.914   4.557
11601TIP3    H134746   7.419   4.923   4.605
11601TIP3    H234747   7.292   4.997   4.570
11602TIP3   OH234748   4.544   0.743   4.729
11602TIP3    H134749   4.512   0.675   4.788
11602TIP3    H234750   4.639   0.736   4.735
11603TIP3   OH234751   1.045   0.174   5.188
11603TIP3    H134752   0.974   0.223   5.148
11603TIP3    H234753   1.072   0.227   5.263
11604TIP3   OH234754   3.766   0.567   0.352
11604TIP3    H134755   3.772   0.500   0.284
11604TIP3    H234756   3.675   0.563   0.381
11605TIP3   OH234757   4.800   0.567   5.278
11605TIP3    H134758   4.798   0.511   5.356
11605TIP3    H234759   4.784   0.655   5.312
11606TIP3   OH234760   6.058   0.397  -0.010
11606TIP3    H134761   5.972   0.437  -0.004
11606TIP3    H234762   6.116   0.459   0.036
11607TIP3   OH234763   3.606   1.520   3.122
11607TIP3    H134764   3.581   1.432   3.147
11607TIP3    H234765   3.612   1.516   3.026
11608TIP3   OH234766   4.507   6.001   0.503
11608TIP3    H134767   4.472   6.043   0.424
11608TIP3    H234768   4.513   5.909   0.480
11609TIP3   OH234769   3.659   2.863   6.569
11609TIP3    H134770   3.726   2.931   6.575
11609TIP3    H234771   3.703   2.784   6.601
11610TIP3   OH234772   2.119   1.745   5.154
11610TIP3    H134773   2.076   1.830   5.151
11610TIP3    H234774   2.053   1.683   5.123
11611TIP3   OH234775   3.534   2.577   5.414
11611TIP3    H134776   3.608   2.613   5.463
11611TIP3    H234777   3.457   2.601   5.465
11612TIP3   OH234778   2.264   0.419   5.604
11612TIP3    H134779   2.325   0.346   5.617
11612TIP3    H234780   2.227   0.435   5.690
11613TIP3   OH234781   1.008   7.160   4.649
11613TIP3    H134782   0.930   7.136   4.598
11613TIP3    H234783   1.061   7.080   4.652
11614TIP3   OH234784   5.680   3.793   6.640
11614TIP3    H134785   5.763   3.775   6.685
11614TIP3    H234786   5.620   3.728   6.674
11615TIP3   OH234787   1.906   1.935   6.109
11615TIP3    H134788   1.903   2.030   6.123
11615TIP3    H234789   1.998   1.912   6.122
11616TIP3   OH234790   2.936   6.060   3.234
11616TIP3    H134791   2.979   6.025   3.312
11616TIP3    H234792   2.945   5.991   3.168
11617TIP3   OH234793   0.991   2.840   5.430
11617TIP3    H134794   0.971   2.881   5.346
11617TIP3    H234795   1.050   2.768   5.407
11618TIP3   OH234796   5.405   4.231   1.069
11618TIP3    H134797   5.329   4.278   1.035
11618TIP3    H234798   5.428   4.168   1.001
11619TIP3   OH234799   0.900   1.963   5.507
11619TIP3    H134800   0.987   1.926   5.493
11619TIP3    H234801   0.910   2.022   5.582
11620TIP3   OH234802   7.893   6.889   2.888
11620TIP3    H134803   7.861   6.905   2.976
11620TIP3    H234804   7.920   6.975   2.855
11621TIP3   OH234805   2.502   3.938   0.669
11621TIP3    H134806   2.491   4.021   0.716
11621TIP3    H234807   2.432   3.937   0.604
11622TIP3   OH234808   1.296   4.538   2.599
11622TIP3    H134809   1.371   4.487   2.629
11622TIP3    H234810   1.223   4.476   2.600
11623TIP3   OH234811   2.568   6.436   6.327
11623TIP3    H134812   2.490   6.411   6.378
11623TIP3    H234813   2.534   6.496   6.260
11624TIP3   OH234814   0.199   2.730   1.771
11624TIP3    H134815   0.257   2.736   1.695
11624TIP3    H234816   0.256   2.739   1.847
11625TIP3   OH234817   2.432   0.203   5.571
11625TIP3    H134818   2.428   0.192   5.476
11625TIP3    H234819   2.464   0.118   5.603
11626TIP3   OH234820   2.401   5.244   5.920
11626TIP3    H134821   2.401   5.318   5.859
11626TIP3    H234822   2.478   5.258   5.975
11627TIP3   OH234823   7.462   2.608   0.137
11627TIP3    H134824   7.506   2.603   0.052
11627TIP3    H234825   7.501   2.537   0.188
11628TIP3   OH234826   5.260   7.534   4.911
11628TIP3    H134827   5.287   7.507   4.823
11628TIP3    H234828   5.209   7.460   4.944
11629TIP3   OH234829   8.040   5.159   3.585
11629TIP3    H134830   8.066   5.197   3.669
11629TIP3    H234831   8.101   5.087   3.571
11630TIP3   OH234832   3.704   1.270   2.304
11630TIP3    H134833   3.672   1.245   2.218
11630TIP3    H234834   3.629   1.308   2.348
11631TIP3   OH234835   7.226   5.478   1.845
11631TIP3    H134836   7.196   5.566   1.823
11631TIP3    H234837   7.190   5.462   1.933
11632TIP3   OH234838   0.110   7.844   0.602
11632TIP3    H134839   0.050   7.882   0.666
11632TIP3    H234840   0.102   7.750   0.614
11633TIP3   OH234841   0.580   6.428   2.416
11633TIP3    H134842   0.507   6.414   2.475
11633TIP3    H234843   0.609   6.517   2.432
11634TIP3   OH234844   5.003   7.587   2.461
11634TIP3    H134845   4.989   7.674   2.424
11634TIP3    H234846   4.958   7.528   2.401
11635TIP3   OH234847   2.679   5.017   6.156
11635TIP3    H134848   2.773   5.021   6.174
11635TIP3    H234849   2.642   5.087   6.209
11636TIP3   OH234850   2.334   2.657   3.315
11636TIP3    H134851   2.319   2.565   3.332
11636TIP3    H234852   2.247   2.696   3.310
11637TIP3   OH234853   2.743   6.873   0.480
11637TIP3    H134854   2.764   6.926   0.557
11637TIP3    H234855   2.784   6.920   0.407
11638TIP3   OH234856   4.263   1.638   3.238
11638TIP3    H134857   4.321   1.627   3.163
11638TIP3    H234858   4.262   1.732   3.254
11639TIP3   OH234859   0.164   4.893   3.323
11639TIP3    H134860   0.081   4.934   3.301
11639TIP3    H234861   0.230   4.960   3.303
11640TIP3   OH234862   5.268   0.641   3.168
11640TIP3    H134863   5.197   0.579   3.149
11640TIP3    H234864   5.223   0.719   3.200
11641TIP3   OH234865   7.197   1.803   1.608
11641TIP3    H134866   7.242   1.883   1.635
11641TIP3    H234867   7.206   1.801   1.513
11642TIP3   OH234868   3.458   4.169   4.387
11642TIP3    H134869   3.507   4.087   4.382
11642TIP3    H234870   3.522   4.235   4.411
11643TIP3   OH234871   0.859   6.351   2.096
11643TIP3    H134872   0.770   6.318   2.085
11643TIP3    H234873   0.876   6.400   2.016
11644TIP3   OH234874   1.792   6.417   0.361
11644TIP3    H134875   1.863   6.384   0.416
11644TIP3    H234876   1.715   6.415   0.417
11645TIP3   OH234877   0.191   3.120   2.761
11645TIP3    H134878   0.238   3.192   2.803
11645TIP3    H234879   0.251   3.045   2.770
11646TIP3   OH234880   2.511   6.928   2.274
11646TIP3    H134881   2.516   6.947   2.180
11646TIP3    H234882   2.529   6.835   2.281
11647TIP3   OH234883   5.898   5.127   3.792
11647TIP3    H134884   5.959   5.201   3.781
11647TIP3    H234885   5.833   5.160   3.854
11648TIP3   OH234886   3.347   1.922   0.806
11648TIP3    H134887   3.366   1.861   0.734
11648TIP3    H234888   3.347   2.008   0.764
11649TIP3   OH234889   0.288   1.744   6.102
11649TIP3    H134890   0.359   1.722   6.162
11649TIP3    H234891   0.212   1.759   6.158
11650TIP3   OH234892   5.521   4.639   1.043
11650TIP3    H134893   5.544   4.551   1.073
11650TIP3    H234894   5.470   4.676   1.116
11651TIP3   OH234895   7.904   2.987   5.185
11651TIP3    H134896   7.870   2.946   5.105
11651TIP3    H234897   7.827   2.997   5.241
11652TIP3   OH234898   1.263   4.621   3.120
11652TIP3    H134899   1.331   4.659   3.174
11652TIP3    H234900   1.310   4.570   3.054
11653TIP3   OH234901   2.260   6.693   2.940
11653TIP3    H134902   2.215   6.673   3.022
11653TIP3    H234903   2.254   6.788   2.932
11654TIP3   OH234904   7.819   0.606   3.402
11654TIP3    H134905   7.895   0.549   3.388
11654TIP3    H234906   7.855   0.695   3.397
11655TIP3   OH234907   7.239   6.739   2.067
11655TIP3    H134908   7.244   6.796   1.990
11655TIP3    H234909   7.227   6.651   2.031
11656TIP3   OH234910   6.888   4.211   2.760
11656TIP3    H134911   6.812   4.202   2.817
11656TIP3    H234912   6.957   4.246   2.817
11657TIP3   OH234913   4.984   0.056   4.198
11657TIP3    H134914   5.060   0.002   4.218
11657TIP3    H234915   4.997   0.136   4.249
11658TIP3   OH234916   4.865   6.356   2.382
11658TIP3    H134917   4.903   6.270   2.363
11658TIP3    H234918   4.809   6.341   2.459
11659TIP3   OH234919   2.215   4.286   0.714
11659TIP3    H134920   2.216   4.333   0.631
11659TIP3    H234921   2.147   4.330   0.766
11660TIP3   OH234922   4.581   1.497   5.456
11660TIP3    H134923   4.622   1.504   5.542
11660TIP3    H234924   4.646   1.532   5.395
11661TIP3   OH234925   6.979   7.317   1.970
11661TIP3    H134926   7.000   7.342   1.880
11661TIP3    H234927   7.027   7.379   2.025
11662TIP3   OH234928   2.630   1.545   6.267
11662TIP3    H134929   2.581   1.535   6.349
11662TIP3    H234930   2.616   1.636   6.242
11663TIP3   OH234931   1.687   0.407   6.347
11663TIP3    H134932   1.652   0.321   6.324
11663TIP3    H234933   1.612   0.454   6.385
11664TIP3   OH234934   6.377   4.930   6.498
11664TIP3    H134935   6.309   4.877   6.539
11664TIP3    H234936   6.417   4.978   6.570
11665TIP3   OH234937   4.570   6.921   0.125
11665TIP3    H134938   4.654   6.933   0.080
11665TIP3    H234939   4.581   6.967   0.209
11666TIP3   OH234940   3.555   6.678   2.492
11666TIP3    H134941   3.561   6.625   2.412
11666TIP3    H234942   3.623   6.745   2.481
11667TIP3   OH234943   6.220   1.706   5.378
11667TIP3    H134944   6.138   1.735   5.418
11667TIP3    H234945   6.287   1.762   5.419
11668TIP3   OH234946   2.724   0.910   0.119
11668TIP3    H134947   2.645   0.959   0.142
11668TIP3    H234948   2.771   0.967   0.058
11669TIP3   OH234949   7.724   4.021   3.044
11669TIP3    H134950   7.743   4.115   3.035
11669TIP3    H234951   7.760   3.982   2.964
11670TIP3   OH234952  -0.032   7.783   1.540
11670TIP3    H134953  -0.040   7.715   1.608
11670TIP3    H234954   0.062   7.798   1.533
11671TIP3   OH234955   4.718   7.423   4.641
11671TIP3    H134956   4.653   7.411   4.711
11671TIP3    H234957   4.748   7.334   4.621
11672TIP3   OH234958   1.723   5.224   1.881
11672TIP3    H134959   1.664   5.300   1.877
11672TIP3    H234960   1.757   5.215   1.793
11673TIP3   OH234961   3.871   6.984   6.493
11673TIP3    H134962   3.785   6.976   6.535
11673TIP3    H234963   3.851   6.986   6.400
11674TIP3   OH234964   4.831   3.093   2.595
11674TIP3    H134965   4.849   2.999   2.603
11674TIP3    H234966   4.760   3.108   2.657
11675TIP3   OH234967   2.327   0.855   1.660
11675TIP3    H134968   2.384   0.784   1.687
11675TIP3    H234969   2.307   0.903   1.740
11676TIP3   OH234970   2.436   2.735   2.454
11676TIP3    H134971   2.492   2.658   2.453
11676TIP3    H234972   2.439   2.768   2.365
11677TIP3   OH234973   5.753   3.174   4.605
11677TIP3    H134974   5.722   3.237   4.540
11677TIP3    H234975   5.803   3.110   4.554
11678TIP3   OH234976   0.272   1.976   6.292
11678TIP3    H134977   0.357   1.965   6.249
11678TIP3    H234978   0.215   2.011   6.224
11679TIP3   OH234979   6.848   2.804   4.863
11679TIP3    H134980   6.895   2.885   4.883
11679TIP3    H234981   6.803   2.821   4.781
11680TIP3   OH234982   4.187   6.902   5.053
11680TIP3    H134983   4.175   6.997   5.044
11680TIP3    H234984   4.184   6.869   4.963
11681TIP3   OH234985   6.146   0.852   5.179
11681TIP3    H134986   6.090   0.871   5.103
11681TIP3    H234987   6.090   0.870   5.255
11682TIP3   OH234988   6.701   0.771   5.863
11682TIP3    H134989   6.613   0.808   5.860
11682TIP3    H234990   6.758   0.843   5.837
11683TIP3   OH234991   4.629   5.835   2.750
11683TIP3    H134992   4.584   5.805   2.829
11683TIP3    H234993   4.718   5.855   2.780
11684TIP3   OH234994   1.851   6.524   3.107
11684TIP3    H134995   1.762   6.491   3.120
11684TIP3    H234996   1.879   6.553   3.193
11685TIP3   OH234997   7.523   2.238   6.467
11685TIP3    H134998   7.518   2.244   6.562
11685TIP3    H234999   7.617   2.235   6.448
11686TIP3   OH235000   3.818   4.231   3.831
11686TIP3    H135001   3.762   4.183   3.770
11686TIP3    H235002   3.897   4.252   3.780
11687TIP3   OH235003   5.689   2.617   2.650
11687TIP3    H135004   5.603   2.590   2.618
11687TIP3    H235005   5.742   2.625   2.572
11688TIP3   OH235006   0.072   5.508   2.761
11688TIP3    H135007  -0.016   5.540   2.739
11688TIP3    H235008   0.130   5.558   2.704
11689TIP3   OH235009   7.981   1.887   6.052
11689TIP3    H135010   7.888   1.868   6.042
11689TIP3    H235011   8.011   1.908   5.963
11690TIP3   OH235012   3.273   6.372   4.860
11690TIP3    H135013   3.312   6.315   4.926
11690TIP3    H235014   3.342   6.382   4.794
11691TIP3   OH235015   3.477   0.249   0.919
11691TIP3    H135016   3.429   0.301   0.854
11691TIP3    H235017   3.568   0.280   0.911
11692TIP3   OH235018   1.592   6.201   5.095
11692TIP3    H135019   1.641   6.189   5.014
11692TIP3    H235020   1.550   6.286   5.086
11693TIP3   OH235021   7.407   3.086   1.723
11693TIP3    H135022   7.402   2.999   1.685
11693TIP3    H235023   7.454   3.138   1.658
11694TIP3   OH235024   0.262   2.035   6.672
11694TIP3    H135025   0.277   2.112   6.616
11694TIP3    H235026   0.181   2.055   6.719
11695TIP3   OH235027   7.826   0.402   4.821
11695TIP3    H135028   7.855   0.344   4.750
11695TIP3    H235029   7.905   0.449   4.848
11696TIP3   OH235030   2.850   0.853   6.082
11696TIP3    H135031   2.869   0.835   6.174
11696TIP3    H235032   2.770   0.804   6.063
11697TIP3   OH235033   6.561   4.083   5.693
11697TIP3    H135034   6.563   4.072   5.598
11697TIP3    H235035   6.652   4.103   5.716
11698TIP3   OH235036   2.580   2.472   2.317
11698TIP3    H135037   2.531   2.485   2.235
11698TIP3    H235038   2.551   2.386   2.348
11699TIP3   OH235039   3.801   0.430   0.603
11699TIP3    H135040   3.825   0.505   0.549
11699TIP3    H235041   3.736   0.383   0.551
11700TIP3   OH235042   8.017   5.806   6.684
11700TIP3    H135043   7.953   5.792   6.615
11700TIP3    H235044   7.999   5.737   6.748
11701TIP3   OH235045   2.633   0.168   3.584
11701TIP3    H135046   2.682   0.086   3.583
11701TIP3    H235047   2.673   0.220   3.514
11702TIP3   OH235048   3.533   6.545   2.255
11702TIP3    H135049   3.581   6.543   2.172
11702TIP3    H235050   3.480   6.465   2.254
11703TIP3   OH235051   6.084   7.198   3.619
11703TIP3    H135052   6.093   7.265   3.552
11703TIP3    H235053   5.990   7.184   3.628
11704TIP3   OH235054   5.709   0.119   1.092
11704TIP3    H135055   5.645   0.133   1.022
11704TIP3    H235056   5.779   0.181   1.073
11705TIP3   OH235057   5.244   7.237   5.173
11705TIP3    H135058   5.318   7.233   5.235
11705TIP3    H235059   5.284   7.266   5.091
11706TIP3   OH235060   7.926   6.934   0.191
11706TIP3    H135061   7.833   6.936   0.168
11706TIP3    H235062   7.967   6.995   0.129
11707TIP3   OH235063   4.435   2.402   1.093
11707TIP3    H135064   4.354   2.373   1.051
11707TIP3    H235065   4.445   2.343   1.168
11708TIP3   OH235066   0.030   2.690   3.401
11708TIP3    H135067   0.012   2.766   3.346
11708TIP3    H235068   0.083   2.724   3.473
11709TIP3   OH235069   2.900   2.316   4.746
11709TIP3    H135070   2.923   2.374   4.818
11709TIP3    H235071   2.860   2.373   4.681
11710TIP3   OH235072   6.545   4.664   5.056
11710TIP3    H135073   6.551   4.628   5.145
11710TIP3    H235074   6.463   4.628   5.021
11711TIP3   OH235075   2.586   0.939   4.222
11711TIP3    H135076   2.559   0.913   4.134
11711TIP3    H235077   2.601   1.034   4.215
11712TIP3   OH235078   6.291   5.492   3.116
11712TIP3    H135079   6.381   5.513   3.089
11712TIP3    H235080   6.246   5.473   3.034
11713TIP3   OH235081   0.752   5.795   4.893
11713TIP3    H135082   0.827   5.789   4.834
11713TIP3    H235083   0.783   5.849   4.965
11714TIP3   OH235084   5.796   1.869   4.774
11714TIP3    H135085   5.797   1.909   4.861
11714TIP3    H235086   5.721   1.811   4.775
11715TIP3   OH235087   6.033   1.369   2.715
11715TIP3    H135088   6.127   1.354   2.720
11715TIP3    H235089   6.024   1.457   2.678
11716TIP3   OH235090   1.038   3.826   5.690
11716TIP3    H135091   0.998   3.903   5.651
11716TIP3    H235092   1.055   3.851   5.781
11717TIP3   OH235093   0.587   4.171   6.243
11717TIP3    H135094   0.623   4.248   6.286
11717TIP3    H235095   0.628   4.171   6.156
11718TIP3   OH235096   4.700   2.781   6.218
11718TIP3    H135097   4.754   2.849   6.177
11718TIP3    H235098   4.758   2.706   6.227
11719TIP3   OH235099   3.944   3.971   1.529
11719TIP3    H135100   4.018   4.024   1.502
11719TIP3    H235101   3.876   4.034   1.554
11720TIP3   OH235102   3.955   4.499   6.047
11720TIP3    H135103   4.035   4.456   6.077
11720TIP3    H235104   3.979   4.591   6.038
11721TIP3   OH235105   2.448   6.201   5.733
11721TIP3    H135106   2.494   6.285   5.729
11721TIP3    H235107   2.509   6.137   5.698
11722TIP3   OH235108   5.585   5.825   6.746
11722TIP3    H135109   5.533   5.770   6.686
11722TIP3    H235110   5.539   5.910   6.745
11723TIP3   OH235111   4.442   4.552   6.042
11723TIP3    H135112   4.506   4.609   6.084
11723TIP3    H235113   4.395   4.609   5.981
11724TIP3   OH235114   4.422   1.800   4.928
11724TIP3    H135115   4.428   1.757   4.843
11724TIP3    H235116   4.415   1.893   4.908
11725TIP3   OH235117   6.650   0.413   6.222
11725TIP3    H135118   6.675   0.321   6.230
11725TIP3    H235119   6.610   0.419   6.135
11726TIP3   OH235120   0.867   5.184   6.022
11726TIP3    H135121   0.939   5.148   6.073
11726TIP3    H235122   0.858   5.125   5.947
11727TIP3   OH235123   5.050   1.034   5.815
11727TIP3    H135124   5.022   1.058   5.727
11727TIP3    H235125   4.983   0.973   5.846
11728TIP3   OH235126   1.124   0.146   3.924
11728TIP3    H135127   1.084   0.115   4.005
11728TIP3    H235128   1.084   0.232   3.909
11729TIP3   OH235129   7.795   5.109   6.133
11729TIP3    H135130   7.814   5.124   6.226
11729TIP3    H235131   7.872   5.143   6.087
11730TIP3   OH235132   2.622   5.771   6.345
11730TIP3    H135133   2.661   5.748   6.429
11730TIP3    H235134   2.613   5.867   6.347
11731TIP3   OH235135   7.876   5.502   3.295
11731TIP3    H135136   7.802   5.495   3.236
11731TIP3    H235137   7.926   5.421   3.281
11732TIP3   OH235138   7.311   2.165   2.153
11732TIP3    H135139   7.367   2.221   2.206
11732TIP3    H235140   7.304   2.084   2.204
11733TIP3   OH235141   5.334   4.249   1.350
11733TIP3    H135142   5.377   4.236   1.266
11733TIP3    H235143   5.260   4.188   1.348
11734TIP3   OH235144   0.146   2.701   6.334
11734TIP3    H135145   0.143   2.660   6.247
11734TIP3    H235146   0.070   2.665   6.380
11735TIP3   OH235147   3.221   4.778   3.384
11735TIP3    H135148   3.191   4.839   3.452
11735TIP3    H235149   3.267   4.833   3.321
11736TIP3   OH235150   4.585   2.873   5.514
11736TIP3    H135151   4.673   2.909   5.501
11736TIP3    H235152   4.600   2.783   5.544
11737TIP3   OH235153   8.060   4.702   0.511
11737TIP3    H135154   7.974   4.744   0.505
11737TIP3    H235155   8.051   4.640   0.583
11738TIP3   OH235156   4.818   5.195   2.841
11738TIP3    H135157   4.789   5.107   2.816
11738TIP3    H235158   4.759   5.254   2.793
11739TIP3   OH235159   1.754   2.514   2.620
11739TIP3    H135160   1.785   2.548   2.704
11739TIP3    H235161   1.693   2.445   2.643
11740TIP3   OH235162   1.511   5.159   2.916
11740TIP3    H135163   1.549   5.071   2.914
11740TIP3    H235164   1.550   5.201   2.993
11741TIP3   OH235165   6.358   4.754   3.273
11741TIP3    H135166   6.374   4.827   3.213
11741TIP3    H235167   6.307   4.792   3.344
11742TIP3   OH235168   4.986   4.774   0.385
11742TIP3    H135169   4.932   4.736   0.454
11742TIP3    H235170   5.074   4.776   0.421
11743TIP3   OH235171   5.095   5.032   2.977
11743TIP3    H135172   5.172   5.036   3.033
11743TIP3    H235173   5.032   5.091   3.020
11744TIP3   OH235174   5.687   1.845   1.695
11744TIP3    H135175   5.723   1.890   1.619
11744TIP3    H235176   5.602   1.812   1.665
11745TIP3   OH235177   4.138   2.502   6.578
11745TIP3    H135178   4.165   2.569   6.516
11745TIP3    H235179   4.212   2.493   6.638
11746TIP3   OH235180   2.968   1.553   0.674
11746TIP3    H135181   2.913   1.626   0.705
11746TIP3    H235182   2.953   1.551   0.579
11747TIP3   OH235183   3.311   5.378   4.252
11747TIP3    H135184   3.384   5.320   4.230
11747TIP3    H235185   3.290   5.423   4.170
11748TIP3   OH235186   0.682   0.869   1.380
11748TIP3    H135187   0.622   0.944   1.380
11748TIP3    H235188   0.754   0.896   1.436
11749TIP3   OH235189   7.920   3.319   3.410
11749TIP3    H135190   7.866   3.243   3.431
11749TIP3    H235191   7.912   3.375   3.488
11750TIP3   OH235192   7.453   4.300   0.152
11750TIP3    H135193   7.430   4.234   0.218
11750TIP3    H235194   7.375   4.355   0.144
11751TIP3   OH235195   6.946   7.573   3.805
11751TIP3    H135196   7.020   7.515   3.822
11751TIP3    H235197   6.884   7.520   3.755
11752TIP3   OH235198   7.414   1.639   0.614
11752TIP3    H135199   7.496   1.597   0.640
11752TIP3    H235200   7.393   1.601   0.529
11753TIP3   OH235201   3.547   2.277   0.880
11753TIP3    H135202   3.523   2.369   0.891
11753TIP3    H235203   3.486   2.243   0.815
11754TIP3   OH235204   1.722   0.612   2.882
11754TIP3    H135205   1.789   0.582   2.821
11754TIP3    H235206   1.696   0.534   2.930
11755TIP3   OH235207   8.312   0.618   5.185
11755TIP3    H135208   8.217   0.621   5.179
11755TIP3    H235209   8.337   0.545   5.128
11756TIP3   OH235210   3.667   1.066   6.628
11756TIP3    H135211   3.676   1.090   6.535
11756TIP3    H235212   3.737   1.114   6.671
11757TIP3   OH235213   6.170   6.754   4.777
11757TIP3    H135214   6.169   6.702   4.697
11757TIP3    H235215   6.221   6.702   4.839
11758TIP3   OH235216   6.682   5.103   3.874
11758TIP3    H135217   6.747   5.172   3.856
11758TIP3    H235218   6.697   5.080   3.966
11759TIP3   OH235219   1.582   6.297   3.546
11759TIP3    H135220   1.499   6.335   3.573
11759TIP3    H235221   1.627   6.368   3.499
11760TIP3   OH235222   1.342   6.887   5.493
11760TIP3    H135223   1.424   6.842   5.511
11760TIP3    H235224   1.368   6.978   5.478
11761TIP3   OH235225   2.084   6.232   1.980
11761TIP3    H135226   2.078   6.317   2.022
11761TIP3    H235227   2.002   6.187   2.003
11762TIP3   OH235228   3.654   4.356   6.323
11762TIP3    H135229   3.639   4.418   6.395
11762TIP3    H235230   3.597   4.282   6.342
11763TIP3   OH235231   1.799   7.178   4.414
11763TIP3    H135232   1.726   7.129   4.451
11763TIP3    H235233   1.877   7.132   4.445
11764TIP3   OH235234   6.054   7.665   1.402
11764TIP3    H135235   6.147   7.645   1.410
11764TIP3    H235236   6.052   7.753   1.363
11765TIP3   OH235237   5.600   7.272   4.459
11765TIP3    H135238   5.537   7.214   4.502
11765TIP3    H235239   5.665   7.213   4.422
11766TIP3   OH235240   0.277   5.555   0.852
11766TIP3    H135241   0.283   5.612   0.929
11766TIP3    H235242   0.192   5.576   0.813
11767TIP3   OH235243   6.686   6.080   2.512
11767TIP3    H135244   6.595   6.057   2.531
11767TIP3    H235245   6.715   6.013   2.451
11768TIP3   OH235246   4.266   3.927   6.084
11768TIP3    H135247   4.212   3.919   6.163
11768TIP3    H235248   4.245   3.849   6.032
11769TIP3   OH235249   2.056   3.775   1.899
11769TIP3    H135250   2.031   3.704   1.839
11769TIP3    H235251   2.134   3.742   1.944
11770TIP3   OH235252   3.021   2.445   2.800
11770TIP3    H135253   2.961   2.516   2.778
11770TIP3    H235254   3.014   2.384   2.728
11771TIP3   OH235255   7.209   0.906   0.344
11771TIP3    H135256   7.261   0.876   0.269
11771TIP3    H235257   7.273   0.922   0.413
11772TIP3   OH235258   3.817   7.320   4.707
11772TIP3    H135259   3.722   7.319   4.692
11772TIP3    H235260   3.829   7.261   4.781
11773TIP3   OH235261   5.314   4.836   5.872
11773TIP3    H135262   5.278   4.793   5.949
11773TIP3    H235263   5.239   4.847   5.813
11774TIP3   OH235264   2.787   6.181   5.116
11774TIP3    H135265   2.765   6.186   5.209
11774TIP3    H235266   2.863   6.239   5.107
11775TIP3   OH235267   1.584   5.481   3.489
11775TIP3    H135268   1.516   5.549   3.490
11775TIP3    H235269   1.550   5.412   3.545
11776TIP3   OH235270   4.215   4.126   6.567
11776TIP3    H135271   4.266   4.081   6.500
11776TIP3    H235272   4.152   4.061   6.597
11777TIP3   OH235273   2.333   2.218   0.371
11777TIP3    H135274   2.241   2.229   0.393
11777TIP3    H235275   2.333   2.166   0.290
11778TIP3   OH235276   7.291   1.675   5.060
11778TIP3    H135277   7.290   1.749   5.121
11778TIP3    H235278   7.379   1.639   5.067
11779TIP3   OH235279   2.561   3.322   4.031
11779TIP3    H135280   2.607   3.359   4.107
11779TIP3    H235281   2.581   3.381   3.959
11780TIP3   OH235282   6.812   2.661   5.094
11780TIP3    H135283   6.724   2.627   5.112
11780TIP3    H235284   6.807   2.695   5.005
11781TIP3   OH235285   5.957   6.972   1.229
11781TIP3    H135286   6.017   6.987   1.155
11781TIP3    H235287   5.899   6.902   1.199
11782TIP3   OH235288   5.389   1.917   5.051
11782TIP3    H135289   5.356   1.999   5.014
11782TIP3    H235290   5.405   1.861   4.974
11783TIP3   OH235291   3.231   1.504   2.688
11783TIP3    H135292   3.192   1.542   2.767
11783TIP3    H235293   3.307   1.559   2.670
11784TIP3   OH235294   6.920   6.508   6.037
11784TIP3    H135295   6.891   6.596   6.015
11784TIP3    H235296   7.015   6.513   6.037
11785TIP3   OH235297   6.315   3.949   6.286
11785TIP3    H135298   6.377   3.881   6.313
11785TIP3    H235299   6.304   4.003   6.364
11786TIP3   OH235300   2.401   4.832   3.938
11786TIP3    H135301   2.308   4.832   3.959
11786TIP3    H235302   2.445   4.860   4.018
11787TIP3   OH235303   1.398   1.692   4.651
11787TIP3    H135304   1.375   1.603   4.677
11787TIP3    H235305   1.465   1.682   4.584
11788TIP3   OH235306   6.496   0.287   1.076
11788TIP3    H135307   6.453   0.326   1.000
11788TIP3    H235308   6.468   0.196   1.075
11789TIP3   OH235309   6.386   1.372   1.711
11789TIP3    H135310   6.473   1.359   1.750
11789TIP3    H235311   6.354   1.284   1.695
11790TIP3   OH235312   0.334   6.544   2.299
11790TIP3    H135313   0.420   6.503   2.306
11790TIP3    H235314   0.280   6.481   2.253
11791TIP3   OH235315   3.509   5.239   0.448
11791TIP3    H135316   3.525   5.155   0.491
11791TIP3    H235317   3.463   5.216   0.367
11792TIP3   OH235318   1.835   6.925   0.171
11792TIP3    H135319   1.749   6.965   0.177
11792TIP3    H235320   1.823   6.837   0.208
11793TIP3   OH235321   8.234   4.751   5.241
11793TIP3    H135322   8.151   4.729   5.199
11793TIP3    H235323   8.252   4.678   5.300
11794TIP3   OH235324   5.068   6.202   6.351
11794TIP3    H135325   5.047   6.198   6.444
11794TIP3    H235326   5.118   6.283   6.340
11795TIP3   OH235327   3.422   3.194   6.513
11795TIP3    H135328   3.363   3.162   6.581
11795TIP3    H235329   3.444   3.117   6.461
11796TIP3   OH235330   7.440   1.922   0.761
11796TIP3    H135331   7.447   2.000   0.706
11796TIP3    H235332   7.489   1.855   0.714
11797TIP3   OH235333   4.816   4.014   6.094
11797TIP3    H135334   4.788   4.050   6.010
11797TIP3    H235335   4.858   4.088   6.139
11798TIP3   OH235336   1.954   3.583   3.491
11798TIP3    H135337   1.920   3.499   3.522
11798TIP3    H235338   1.911   3.648   3.547
11799TIP3   OH235339   0.675   1.954   2.511
11799TIP3    H135340   0.753   2.008   2.498
11799TIP3    H235341   0.602   2.013   2.499
11800TIP3   OH235342   2.616   0.650   5.227
11800TIP3    H135343   2.581   0.739   5.220
11800TIP3    H235344   2.605   0.627   5.319
11801TIP3   OH235345   0.390   4.150   0.258
11801TIP3    H135346   0.302   4.186   0.249
11801TIP3    H235347   0.447   4.220   0.225
11802TIP3   OH235348   2.679   4.358   1.412
11802TIP3    H135349   2.720   4.424   1.356
11802TIP3    H235350   2.603   4.402   1.450
11803TIP3   OH235351   4.698   7.107   1.629
11803TIP3    H135352   4.628   7.165   1.659
11803TIP3    H235353   4.736   7.072   1.709
11804TIP3   OH235354   0.289   0.875   5.437
11804TIP3    H135355   0.374   0.890   5.479
11804TIP3    H235356   0.302   0.797   5.383
11805TIP3   OH235357   6.602   0.650   3.841
11805TIP3    H135358   6.695   0.655   3.819
11805TIP3    H235359   6.559   0.634   3.757
11806TIP3   OH235360   7.225   4.740   1.826
11806TIP3    H135361   7.263   4.652   1.837
11806TIP3    H235362   7.299   4.799   1.836
11807TIP3   OH235363   3.158   6.677   1.846
11807TIP3    H135364   3.159   6.645   1.756
11807TIP3    H235365   3.080   6.637   1.885
11808TIP3   OH235366   1.755   5.259   0.215
11808TIP3    H135367   1.679   5.201   0.219
11808TIP3    H235368   1.753   5.296   0.127
11809TIP3   OH235369   4.187   0.240   3.409
11809TIP3    H135370   4.092   0.236   3.395
11809TIP3    H235371   4.196   0.273   3.498
11810TIP3   OH235372   1.267   6.210   0.807
11810TIP3    H135373   1.257   6.178   0.717
11810TIP3    H235374   1.206   6.284   0.813
11811TIP3   OH235375   5.786   6.249   0.571
11811TIP3    H135376   5.782   6.304   0.649
11811TIP3    H235377   5.696   6.221   0.555
11812TIP3   OH235378   0.811   5.437   4.762
11812TIP3    H135379   0.774   5.355   4.730
11812TIP3    H235380   0.788   5.439   4.855
11813TIP3   OH235381  -0.002   4.983   5.380
11813TIP3    H135382  -0.033   4.906   5.333
11813TIP3    H235383   0.092   4.968   5.393
11814TIP3   OH235384   0.201   7.000   4.150
11814TIP3    H135385   0.200   6.941   4.074
11814TIP3    H235386   0.259   6.957   4.213
11815TIP3   OH235387   6.361   4.412   5.093
11815TIP3    H135388   6.314   4.378   5.017
11815TIP3    H235389   6.402   4.335   5.132
11816TIP3   OH235390   0.025   4.121   1.916
11816TIP3    H135391  -0.036   4.093   1.985
11816TIP3    H235392   0.083   4.183   1.960
11817TIP3   OH235393   2.705   0.396   2.949
11817TIP3    H135394   2.741   0.323   2.999
11817TIP3    H235395   2.690   0.359   2.861
11818TIP3   OH235396   8.186   0.950   5.386
11818TIP3    H135397   8.173   0.889   5.459
11818TIP3    H235398   8.275   0.983   5.397
11819TIP3   OH235399   1.956   4.962   1.502
11819TIP3    H135400   2.039   4.983   1.460
11819TIP3    H235401   1.939   5.036   1.560
11820TIP3   OH235402   5.956   6.298   5.353
11820TIP3    H135403   5.958   6.254   5.438
11820TIP3    H235404   5.972   6.390   5.372
11821TIP3   OH235405   1.009   6.780   2.314
11821TIP3    H135406   1.040   6.707   2.260
11821TIP3    H235407   0.951   6.739   2.378
11822TIP3   OH235408   3.337   3.275   0.719
11822TIP3    H135409   3.296   3.361   0.704
11822TIP3    H235410   3.263   3.215   0.729
11823TIP3   OH235411   5.532   7.412   0.828
11823TIP3    H135412   5.532   7.355   0.904
11823TIP3    H235413   5.576   7.492   0.857
11824TIP3   OH235414   4.608   2.231   4.211
11824TIP3    H135415   4.676   2.296   4.196
11824TIP3    H235416   4.652   2.162   4.262
11825TIP3   OH235417   4.945   3.377   6.705
11825TIP3    H135418   4.863   3.329   6.705
11825TIP3    H235419   4.984   3.359   6.620
11826TIP3   OH235420   2.053   4.470   4.178
11826TIP3    H135421   2.132   4.525   4.177
11826TIP3    H235422   1.986   4.524   4.137
11827TIP3   OH235423   6.525   5.904   6.015
11827TIP3    H135424   6.440   5.872   6.046
11827TIP3    H235425   6.550   5.970   6.080
11828TIP3   OH235426   4.516   1.018   6.373
11828TIP3    H135427   4.447   1.083   6.388
11828TIP3    H235428   4.537   0.985   6.461
11829TIP3   OH235429   2.500   4.603   0.527
11829TIP3    H135430   2.503   4.513   0.494
11829TIP3    H235431   2.489   4.657   0.449
11830TIP3   OH235432   3.236   1.195   0.496
11830TIP3    H135433   3.261   1.258   0.564
11830TIP3    H235434   3.304   1.128   0.500
11831TIP3   OH235435   1.768   2.733   0.572
11831TIP3    H135436   1.820   2.704   0.498
11831TIP3    H235437   1.702   2.792   0.534
11832TIP3   OH235438   7.920   5.279   6.716
11832TIP3    H135439   7.938   5.325   6.634
11832TIP3    H235440   7.962   5.332   6.784
11833TIP3   OH235441   6.758   6.826   1.410
11833TIP3    H135442   6.764   6.784   1.324
11833TIP3    H235443   6.732   6.916   1.392
11834TIP3   OH235444   6.943   3.157   3.953
11834TIP3    H135445   6.904   3.072   3.932
11834TIP3    H235446   6.892   3.187   4.029
11835TIP3   OH235447   1.305   1.864   1.052
11835TIP3    H135448   1.324   1.957   1.064
11835TIP3    H235449   1.366   1.819   1.110
11836TIP3   OH235450   0.971   0.052   2.840
11836TIP3    H135451   0.939   0.071   2.928
11836TIP3    H235452   0.961  -0.043   2.830
11837TIP3   OH235453   6.612   2.058   5.036
11837TIP3    H135454   6.529   2.044   5.082
11837TIP3    H235455   6.677   2.069   5.105
11838TIP3   OH235456   5.463   5.687   0.881
11838TIP3    H135457   5.478   5.748   0.808
11838TIP3    H235458   5.547   5.641   0.891
11839TIP3   OH235459   3.653   4.524   0.643
11839TIP3    H135460   3.672   4.600   0.588
11839TIP3    H235461   3.557   4.523   0.650
11840TIP3   OH235462   3.209   7.733   5.206
11840TIP3    H135463   3.174   7.714   5.119
11840TIP3    H235464   3.184   7.657   5.259
11841TIP3   OH235465   1.152   0.087   5.557
11841TIP3    H135466   1.129   0.136   5.479
11841TIP3    H235467   1.225   0.031   5.530
11842TIP3   OH235468   2.481   6.307   2.239
11842TIP3    H135469   2.399   6.351   2.258
11842TIP3    H235470   2.465   6.215   2.261
11843TIP3   OH235471   5.587   0.161   5.919
11843TIP3    H135472   5.658   0.173   5.982
11843TIP3    H235473   5.507   0.171   5.970
11844TIP3   OH235474   4.507   6.222   3.765
11844TIP3    H135475   4.425   6.173   3.759
11844TIP3    H235476   4.490   6.304   3.720
11845TIP3   OH235477   3.180   4.578   1.814
11845TIP3    H135478   3.247   4.636   1.778
11845TIP3    H235479   3.167   4.511   1.746
11846TIP3   OH235480   0.588   6.512   1.791
11846TIP3    H135481   0.646   6.577   1.830
11846TIP3    H235482   0.528   6.487   1.862
11847TIP3   OH235483   2.535   6.848   6.609
11847TIP3    H135484   2.618   6.806   6.631
11847TIP3    H235485   2.559   6.921   6.552
11848TIP3   OH235486   5.453   3.613   2.991
11848TIP3    H135487   5.513   3.688   2.990
11848TIP3    H235488   5.414   3.612   2.904
11849TIP3   OH235489   5.331   4.352   5.443
11849TIP3    H135490   5.262   4.290   5.465
11849TIP3    H235491   5.352   4.396   5.525
11850TIP3   OH235492   6.965   5.269   0.707
11850TIP3    H135493   6.912   5.271   0.627
11850TIP3    H235494   6.975   5.176   0.726
11851TIP3   OH235495   1.159   2.224   6.024
11851TIP3    H135496   1.101   2.298   6.004
11851TIP3    H235497   1.146   2.207   6.117
11852TIP3   OH235498   2.675   3.954   2.648
11852TIP3    H135499   2.757   3.974   2.693
11852TIP3    H235500   2.656   3.864   2.674
11853TIP3   OH235501   7.586   4.091   5.623
11853TIP3    H135502   7.519   4.066   5.559
11853TIP3    H235503   7.582   4.022   5.690
11854TIP3   OH235504   1.453   0.656   2.809
11854TIP3    H135505   1.536   0.616   2.833
11854TIP3    H235506   1.391   0.627   2.876
11855TIP3   OH235507   7.536   6.503   1.384
11855TIP3    H135508   7.615   6.455   1.410
11855TIP3    H235509   7.568   6.587   1.352
11856TIP3   OH235510   3.722   5.666   1.840
11856TIP3    H135511   3.793   5.665   1.776
11856TIP3    H235512   3.753   5.610   1.912
11857TIP3   OH235513   2.809   4.204   1.220
11857TIP3    H135514   2.809   4.277   1.282
11857TIP3    H235515   2.741   4.145   1.252
11858TIP3   OH235516   3.211   2.987   2.433
11858TIP3    H135517   3.180   2.899   2.451
11858TIP3    H235518   3.183   3.005   2.343
11859TIP3   OH235519   6.051   6.279   3.592
11859TIP3    H135520   5.956   6.291   3.597
11859TIP3    H235521   6.064   6.215   3.522
11860TIP3   OH235522   6.669   3.470   0.851
11860TIP3    H135523   6.762   3.447   0.851
11860TIP3    H235524   6.626   3.395   0.809
11861TIP3   OH235525   3.752   4.975   0.922
11861TIP3    H135526   3.718   5.058   0.957
11861TIP3    H235527   3.821   5.001   0.861
11862TIP3   OH235528   7.791   4.383   3.511
11862TIP3    H135529   7.756   4.464   3.475
11862TIP3    H235530   7.714   4.326   3.521
11863TIP3   OH235531   0.861   0.572   1.150
11863TIP3    H135532   0.928   0.620   1.199
11863TIP3    H235533   0.810   0.528   1.218
11864TIP3   OH235534   0.728   7.731   5.829
11864TIP3    H135535   0.724   7.826   5.821
11864TIP3    H235536   0.749   7.700   5.741
11865TIP3   OH235537   7.152   4.341   4.620
11865TIP3    H135538   7.214   4.269   4.616
11865TIP3    H235539   7.206   4.419   4.630
11866TIP3   OH235540   3.799   7.242   3.841
11866TIP3    H135541   3.895   7.242   3.848
11866TIP3    H235542   3.778   7.332   3.814
11867TIP3   OH235543   7.073   0.465   2.600
11867TIP3    H135544   7.050   0.373   2.586
11867TIP3    H235545   7.147   0.462   2.660
11868TIP3   OH235546   0.251   0.416   1.739
11868TIP3    H135547   0.261   0.329   1.702
11868TIP3    H235548   0.332   0.432   1.786
11869TIP3   OH235549   4.287   0.353   2.553
11869TIP3    H135550   4.309   0.294   2.481
11869TIP3    H235551   4.316   0.306   2.631
11870TIP3   OH235552   6.201   4.467   0.951
11870TIP3    H135553   6.261   4.531   0.913
11870TIP3    H235554   6.120   4.477   0.900
11871TIP3   OH235555   4.018   6.939   3.779
11871TIP3    H135556   3.982   6.859   3.818
11871TIP3    H235557   4.070   6.908   3.705
11872TIP3   OH235558   7.407   3.706   4.585
11872TIP3    H135559   7.366   3.778   4.632
11872TIP3    H235560   7.333   3.653   4.554
11873TIP3   OH235561   0.430   6.366   3.028
11873TIP3    H135562   0.407   6.309   3.102
11873TIP3    H235563   0.470   6.443   3.069
11874TIP3   OH235564   2.893   3.751   3.900
11874TIP3    H135565   2.986   3.760   3.877
11874TIP3    H235566   2.848   3.811   3.840
11875TIP3   OH235567   0.699   3.065   3.607
11875TIP3    H135568   0.623   3.063   3.548
11875TIP3    H235569   0.665   3.103   3.688
11876TIP3   OH235570   4.795   2.891   1.293
11876TIP3    H135571   4.765   2.809   1.253
11876TIP3    H235572   4.761   2.959   1.235
11877TIP3   OH235573   5.669   5.485   0.043
11877TIP3    H135574   5.638   5.395   0.040
11877TIP3    H235575   5.591   5.536   0.064
11878TIP3   OH235576   6.985   5.195   3.632
11878TIP3    H135577   7.021   5.142   3.703
11878TIP3    H235578   7.061   5.242   3.597
11879TIP3   OH235579   6.091   3.326   1.583
11879TIP3    H135580   6.031   3.383   1.536
11879TIP3    H235581   6.175   3.337   1.538
11880TIP3   OH235582   0.256   3.435   5.973
11880TIP3    H135583   0.260   3.378   5.897
11880TIP3    H235584   0.189   3.395   6.029
11881TIP3   OH235585   6.884   3.572   2.435
11881TIP3    H135586   6.821   3.640   2.411
11881TIP3    H235587   6.936   3.611   2.505
11882TIP3   OH235588   7.660   0.086   1.258
11882TIP3    H135589   7.712   0.139   1.197
11882TIP3    H235590   7.599   0.038   1.202
11883TIP3   OH235591   5.265   5.453   0.299
11883TIP3    H135592   5.183   5.423   0.339
11883TIP3    H235593   5.310   5.373   0.274
11884TIP3   OH235594   6.847   2.391   5.658
11884TIP3    H135595   6.756   2.362   5.650
11884TIP3    H235596   6.864   2.391   5.752
11885TIP3   OH235597   3.778   6.828   3.813
11885TIP3    H135598   3.733   6.752   3.851
11885TIP3    H235599   3.708   6.891   3.794
11886TIP3   OH235600   0.715   2.469   4.646
11886TIP3    H135601   0.627   2.439   4.626
11886TIP3    H235602   0.769   2.390   4.641
11887TIP3   OH235603   8.178   2.395   0.397
11887TIP3    H135604   8.164   2.302   0.414
11887TIP3    H235605   8.246   2.398   0.330
11888TIP3   OH235606   1.029   7.544   3.038
11888TIP3    H135607   1.049   7.459   3.000
11888TIP3    H235608   1.065   7.608   2.975
11889TIP3   OH235609   3.351   7.703   0.095
11889TIP3    H135610   3.399   7.689   0.013
11889TIP3    H235611   3.363   7.622   0.144
11890TIP3   OH235612   4.144   3.465   2.237
11890TIP3    H135613   4.173   3.438   2.150
11890TIP3    H235614   4.151   3.561   2.237
11891TIP3   OH235615   2.880   0.072   5.710
11891TIP3    H135616   2.860   0.011   5.639
11891TIP3    H235617   2.955   0.122   5.678
11892TIP3   OH235618   6.496   6.713   3.124
11892TIP3    H135619   6.532   6.785   3.176
11892TIP3    H235620   6.564   6.645   3.128
11893TIP3   OH235621   2.818   6.041   4.523
11893TIP3    H135622   2.775   6.124   4.540
11893TIP3    H235623   2.813   6.030   4.428
11894TIP3   OH235624   0.860   6.023   4.301
11894TIP3    H135625   0.828   6.019   4.390
11894TIP3    H235626   0.783   6.041   4.248
11895TIP3   OH235627   1.782   1.874   3.849
11895TIP3    H135628   1.772   1.966   3.874
11895TIP3    H235629   1.707   1.830   3.888
11896TIP3   OH235630   4.504   2.630   2.775
11896TIP3    H135631   4.467   2.619   2.862
11896TIP3    H235632   4.588   2.584   2.778
11897TIP3   OH235633   1.864   3.576   3.207
11897TIP3    H135634   1.885   3.545   3.295
11897TIP3    H235635   1.780   3.536   3.187
11898TIP3   OH235636   4.990   3.481   3.791
11898TIP3    H135637   4.912   3.514   3.836
11898TIP3    H235638   4.957   3.412   3.734
11899TIP3   OH235639   6.007   3.898   1.712
11899TIP3    H135640   6.068   3.824   1.718
11899TIP3    H235641   5.963   3.900   1.797
11900TIP3   OH235642   3.160   4.904   6.265
11900TIP3    H135643   3.235   4.960   6.244
11900TIP3    H235644   3.181   4.865   6.349
11901TIP3   OH235645   0.420   7.020   3.974
11901TIP3    H135646   0.360   6.957   3.934
11901TIP3    H235647   0.374   7.050   4.053
11902TIP3   OH235648   6.121   0.573   5.564
11902TIP3    H135649   6.190   0.525   5.609
11902TIP3    H235650   6.101   0.520   5.487
11903TIP3   OH235651   0.206   2.833   3.874
11903TIP3    H135652   0.156   2.845   3.955
11903TIP3    H235653   0.145   2.793   3.813
11904TIP3   OH235654   0.091   1.841   5.911
11904TIP3    H135655   0.073   1.911   5.973
11904TIP3    H235656   0.187   1.836   5.907
11905TIP3   OH235657   1.205   5.907   0.423
11905TIP3    H135658   1.188   5.953   0.505
11905TIP3    H235659   1.202   5.975   0.356
11906TIP3   OH235660  -0.013   1.270   6.497
11906TIP3    H135661   0.064   1.327   6.502
11906TIP3    H235662  -0.087   1.327   6.517
11907TIP3   OH235663   7.219   0.986   3.082
11907TIP3    H135664   7.255   0.947   3.162
11907TIP3    H235665   7.272   0.949   3.012
11908TIP3   OH235666   0.213   0.610   1.136
11908TIP3    H135667   0.146   0.588   1.072
11908TIP3    H235668   0.280   0.542   1.126
11909TIP3   OH235669   6.465   0.655   4.100
11909TIP3    H135670   6.511   0.634   4.018
11909TIP3    H235671   6.438   0.570   4.134
11910TIP3   OH235672   3.239   1.313   4.212
11910TIP3    H135673   3.240   1.321   4.117
11910TIP3    H235674   3.320   1.355   4.241
11911TIP3   OH235675   3.788   5.262   3.699
11911TIP3    H135676   3.716   5.212   3.736
11911TIP3    H235677   3.793   5.340   3.755
11912TIP3   OH235678   6.463   2.830   0.140
11912TIP3    H135679   6.408   2.909   0.144
11912TIP3    H235680   6.531   2.845   0.205
11913TIP3   OH235681   7.663   6.122   5.111
11913TIP3    H135682   7.752   6.096   5.132
11913TIP3    H235683   7.640   6.186   5.179
11914TIP3   OH235684   0.247   2.946   4.823
11914TIP3    H135685   0.175   2.886   4.842
11914TIP3    H235686   0.233   3.019   4.883
11915TIP3   OH235687   1.602   1.370   6.673
11915TIP3    H135688   1.616   1.325   6.590
11915TIP3    H235689   1.680   1.350   6.725
11916TIP3   OH235690   1.792   1.529   3.490
11916TIP3    H135691   1.851   1.534   3.414
11916TIP3    H235692   1.793   1.618   3.527
11917TIP3   OH235693   6.636   2.701   2.526
11917TIP3    H135694   6.635   2.781   2.579
11917TIP3    H235695   6.636   2.732   2.436
11918TIP3   OH235696   2.335   2.555   4.882
11918TIP3    H135697   2.367   2.643   4.904
11918TIP3    H235698   2.377   2.498   4.946
11919TIP3   OH235699   3.123   6.605   6.012
11919TIP3    H135700   3.201   6.657   5.993
11919TIP3    H235701   3.130   6.585   6.106
11920TIP3   OH235702   1.102   1.474   2.342
11920TIP3    H135703   1.194   1.462   2.317
11920TIP3    H235704   1.084   1.566   2.320
11921TIP3   OH235705   2.117   5.899   1.989
11921TIP3    H135706   2.043   5.891   2.049
11921TIP3    H235707   2.077   5.920   1.904
11922TIP3   OH235708   1.304   2.273   6.467
11922TIP3    H135709   1.270   2.197   6.420
11922TIP3    H235710   1.238   2.340   6.455
11923TIP3   OH235711   0.851   2.359   2.671
11923TIP3    H135712   0.930   2.354   2.617
11923TIP3    H235713   0.876   2.416   2.744
11924TIP3   OH235714   1.892   1.755   1.355
11924TIP3    H135715   1.936   1.750   1.270
11924TIP3    H235716   1.890   1.848   1.376
11925TIP3   OH235717   3.941   3.935   5.220
11925TIP3    H135718   3.986   3.923   5.304
11925TIP3    H235719   3.936   4.031   5.210
11926TIP3   OH235720   3.717   2.534   0.724
11926TIP3    H135721   3.626   2.538   0.755
11926TIP3    H235722   3.721   2.456   0.669
11927TIP3   OH235723   0.937   5.349   6.532
11927TIP3    H135724   0.927   5.438   6.563
11927TIP3    H235725   0.938   5.295   6.611
11928TIP3   OH235726   0.665   4.168   3.457
11928TIP3    H135727   0.708   4.230   3.398
11928TIP3    H235728   0.586   4.214   3.487
11929TIP3   OH235729   3.139   5.078   2.432
11929TIP3    H135730   3.148   5.108   2.523
11929TIP3    H235731   3.223   5.036   2.413
11930TIP3   OH235732   3.101   7.407   3.736
11930TIP3    H135733   3.176   7.349   3.749
11930TIP3    H235734   3.033   7.351   3.700
11931TIP3   OH235735   7.254   0.819   4.273
11931TIP3    H135736   7.330   0.786   4.224
11931TIP3    H235737   7.293   0.872   4.343
11932TIP3   OH235738   4.710   4.876   3.528
11932TIP3    H135739   4.637   4.817   3.549
11932TIP3    H235740   4.680   4.924   3.451
11933TIP3   OH235741   0.573   6.251   6.030
11933TIP3    H135742   0.491   6.265   5.982
11933TIP3    H235743   0.598   6.161   6.009
11934TIP3   OH235744   5.842   4.352   3.993
11934TIP3    H135745   5.776   4.363   4.061
11934TIP3    H235746   5.863   4.441   3.965
11935TIP3   OH235747   6.650   2.565   0.275
11935TIP3    H135748   6.672   2.652   0.240
11935TIP3    H235749   6.708   2.506   0.227
11936TIP3   OH235750   3.230   5.063   0.849
11936TIP3    H135751   3.154   5.006   0.842
11936TIP3    H235752   3.304   5.003   0.863
11937TIP3   OH235753   1.102   0.039   2.543
11937TIP3    H135754   1.018   0.018   2.583
11937TIP3    H235755   1.159   0.062   2.617
11938TIP3   OH235756   1.624   1.538   4.447
11938TIP3    H135757   1.550   1.571   4.396
11938TIP3    H235758   1.701   1.572   4.403
11939TIP3   OH235759   2.560   3.332   1.904
11939TIP3    H135760   2.505   3.402   1.938
11939TIP3    H235761   2.629   3.377   1.855
11940TIP3   OH235762   0.253   5.641   2.611
11940TIP3    H135763   0.235   5.644   2.517
11940TIP3    H235764   0.348   5.652   2.617
11941TIP3   OH235765   6.926   0.663   5.055
11941TIP3    H135766   6.994   0.651   4.990
11941TIP3    H235767   6.868   0.588   5.043
11942TIP3   OH235768   6.852   4.225   0.514
11942TIP3    H135769   6.768   4.219   0.559
11942TIP3    H235770   6.910   4.165   0.561
11943TIP3   OH235771   0.646   0.768   4.101
11943TIP3    H135772   0.736   0.768   4.070
11943TIP3    H235773   0.613   0.855   4.081
11944TIP3   OH235774   1.860   2.969   6.507
11944TIP3    H135775   1.911   3.014   6.440
11944TIP3    H235776   1.887   2.877   6.501
11945TIP3   OH235777   8.014   1.634   4.132
11945TIP3    H135778   8.054   1.622   4.046
11945TIP3    H235779   7.937   1.578   4.130
11946TIP3   OH235780   7.030   1.411   2.631
11946TIP3    H135781   6.983   1.477   2.579
11946TIP3    H235782   7.034   1.448   2.719
11947TIP3   OH235783   2.808   1.417   1.429
11947TIP3    H135784   2.827   1.399   1.337
11947TIP3    H235785   2.741   1.354   1.454
11948TIP3   OH235786   4.553   1.097   3.617
11948TIP3    H135787   4.494   1.149   3.672
11948TIP3    H235788   4.513   1.010   3.614
11949TIP3   OH235789   7.955   7.141   3.955
11949TIP3    H135790   8.002   7.222   3.973
11949TIP3    H235791   8.022   7.073   3.965
11950TIP3   OH235792   6.226   6.040   6.585
11950TIP3    H135793   6.189   5.966   6.633
11950TIP3    H235794   6.179   6.116   6.618
11951TIP3   OH235795   3.921   2.821   2.170
11951TIP3    H135796   3.906   2.889   2.236
11951TIP3    H235797   3.961   2.749   2.218
11952TIP3   OH235798   2.246   3.622   1.632
11952TIP3    H135799   2.298   3.702   1.644
11952TIP3    H235800   2.223   3.596   1.721
11953TIP3   OH235801   5.999   5.537   1.057
11953TIP3    H135802   5.995   5.523   1.152
11953TIP3    H235803   6.047   5.462   1.024
11954TIP3   OH235804   3.470   1.519   0.949
11954TIP3    H135805   3.487   1.486   1.038
11954TIP3    H235806   3.417   1.597   0.962
11955TIP3   OH235807   0.049   4.832   0.179
11955TIP3    H135808   0.131   4.880   0.185
11955TIP3    H235809   0.070   4.756   0.126
11956TIP3   OH235810   5.179   1.338   2.235
11956TIP3    H135811   5.115   1.285   2.188
11956TIP3    H235812   5.264   1.306   2.205
11957TIP3   OH235813   5.916   7.334   3.341
11957TIP3    H135814   5.989   7.377   3.385
11957TIP3    H235815   5.838   7.373   3.381
11958TIP3   OH235816   8.280   6.300   1.803
11958TIP3    H135817   8.205   6.270   1.855
11958TIP3    H235818   8.306   6.382   1.844
11959TIP3   OH235819   0.737   4.998   6.229
11959TIP3    H135820   0.695   5.009   6.144
11959TIP3    H235821   0.733   4.903   6.246
11960TIP3   OH235822   0.937   2.140   6.449
11960TIP3    H135823   0.940   2.185   6.534
11960TIP3    H235824   0.983   2.057   6.464
11961TIP3   OH235825   4.499   7.231   2.601
11961TIP3    H135826   4.418   7.273   2.572
11961TIP3    H235827   4.567   7.272   2.548
11962TIP3   OH235828   3.106   4.899   5.405
11962TIP3    H135829   3.099   4.976   5.349
11962TIP3    H235830   3.067   4.828   5.354
11963TIP3   OH235831   0.785   7.016   2.492
11963TIP3    H135832   0.826   6.944   2.540
11963TIP3    H235833   0.703   6.979   2.459
11964TIP3   OH235834  -0.056   4.082   6.243
11964TIP3    H135835  -0.082   4.025   6.170
11964TIP3    H235836   0.036   4.061   6.257
11965TIP3   OH235837   3.227   6.176   3.094
11965TIP3    H135838   3.147   6.152   3.140
11965TIP3    H235839   3.200   6.186   3.003
11966TIP3   OH235840   4.589   4.500   3.466
11966TIP3    H135841   4.666   4.465   3.422
11966TIP3    H235842   4.600   4.474   3.558
11967TIP3   OH235843   2.014   6.791   5.183
11967TIP3    H135844   2.043   6.711   5.226
11967TIP3    H235845   1.956   6.833   5.248
11968TIP3   OH235846   5.087   1.374   5.613
11968TIP3    H135847   5.105   1.442   5.548
11968TIP3    H235848   5.162   1.377   5.672
11969TIP3   OH235849   3.035   6.338   1.943
11969TIP3    H135850   3.101   6.270   1.931
11969TIP3    H235851   3.000   6.354   1.856
11970TIP3   OH235852   7.291   3.873   6.009
11970TIP3    H135853   7.272   3.803   6.071
11970TIP3    H235854   7.386   3.867   5.995
11971TIP3   OH235855   5.226   1.387   1.504
11971TIP3    H135856   5.217   1.314   1.442
11971TIP3    H235857   5.186   1.461   1.460
11972TIP3   OH235858   7.592   7.592   0.032
11972TIP3    H135859   7.642   7.533  -0.024
11972TIP3    H235860   7.501   7.562   0.025
11973TIP3   OH235861   4.949   6.387   1.562
11973TIP3    H135862   4.865   6.431   1.566
11973TIP3    H235863   5.012   6.453   1.591
11974TIP3   OH235864   1.638   4.315   1.411
11974TIP3    H135865   1.562   4.268   1.444
11974TIP3    H235866   1.692   4.248   1.371
11975TIP3   OH235867   2.490   3.612   0.897
11975TIP3    H135868   2.551   3.665   0.847
11975TIP3    H235869   2.522   3.522   0.886
11976TIP3   OH235870   1.898   1.631   0.666
11976TIP3    H135871   1.883   1.546   0.709
11976TIP3    H235872   1.843   1.628   0.587
11977TIP3   OH235873   5.891   2.960   4.514
11977TIP3    H135874   5.852   2.878   4.485
11977TIP3    H235875   5.984   2.952   4.494
11978TIP3   OH235876   5.588   6.497   0.719
11978TIP3    H135877   5.495   6.502   0.740
11978TIP3    H235878   5.594   6.528   0.629
11979TIP3   OH235879   2.201   5.462   6.376
11979TIP3    H135880   2.290   5.496   6.363
11979TIP3    H235881   2.185   5.407   6.300
11980TIP3   OH235882   1.399   0.783   5.585
11980TIP3    H135883   1.392   0.703   5.638
11980TIP3    H235884   1.439   0.754   5.503
11981TIP3   OH235885   5.077   0.156   6.227
11981TIP3    H135886   5.013   0.090   6.201
11981TIP3    H235887   5.128   0.114   6.296
11982TIP3   OH235888   0.441   1.210   6.597
11982TIP3    H135889   0.515   1.160   6.630
11982TIP3    H235890   0.365   1.155   6.616
11983TIP3   OH235891   2.670   7.819   3.100
11983TIP3    H135892   2.599   7.847   3.158
11983TIP3    H235893   2.743   7.801   3.158
11984TIP3   OH235894   1.280   4.006   2.662
11984TIP3    H135895   1.253   4.077   2.603
11984TIP3    H235896   1.198   3.964   2.687
11985TIP3   OH235897   4.318   4.436   1.270
11985TIP3    H135898   4.403   4.416   1.229
11985TIP3    H235899   4.256   4.438   1.197
11986TIP3   OH235900   8.081   1.709   3.322
11986TIP3    H135901   8.159   1.697   3.376
11986TIP3    H235902   8.110   1.764   3.249
11987TIP3   OH235903   5.911   1.487   2.025
11987TIP3    H135904   5.920   1.446   1.938
11987TIP3    H235905   5.929   1.579   2.010
11988TIP3   OH235906   3.866   0.730   1.965
11988TIP3    H135907   3.897   0.778   2.043
11988TIP3    H235908   3.775   0.756   1.956
11989TIP3   OH235909   6.061   1.416   2.320
11989TIP3    H135910   6.031   1.440   2.232
11989TIP3    H235911   6.081   1.323   2.313
11990TIP3   OH235912   6.410   4.950   3.075
11990TIP3    H135913   6.323   4.923   3.043
11990TIP3    H235914   6.402   5.044   3.089
11991TIP3   OH235915   3.424   0.626   2.950
11991TIP3    H135916   3.503   0.665   2.988
11991TIP3    H235917   3.353   0.656   3.005
11992TIP3   OH235918   7.645   4.444   2.869
11992TIP3    H135919   7.640   4.420   2.777
11992TIP3    H235920   7.647   4.540   2.869
11993TIP3   OH235921   5.461   2.096   1.473
11993TIP3    H135922   5.437   2.004   1.468
11993TIP3    H235923   5.389   2.142   1.430
11994TIP3   OH235924   2.827   5.501   2.830
11994TIP3    H135925   2.794   5.544   2.909
11994TIP3    H235926   2.837   5.571   2.767
11995TIP3   OH235927   3.154   0.163   3.625
11995TIP3    H135928   3.219   0.107   3.668
11995TIP3    H235929   3.189   0.252   3.633
11996TIP3   OH235930   3.125   5.244   6.035
11996TIP3    H135931   3.056   5.215   6.095
11996TIP3    H235932   3.120   5.182   5.962
11997TIP3   OH235933   5.471   4.602   5.915
11997TIP3    H135934   5.553   4.649   5.929
11997TIP3    H235935   5.405   4.670   5.904
11998TIP3   OH235936   1.415   7.063   6.056
11998TIP3    H135937   1.369   7.013   6.123
11998TIP3    H235938   1.389   7.154   6.072
11999TIP3   OH235939   4.037   3.105   6.653
11999TIP3    H135940   4.128   3.113   6.622
11999TIP3    H235941   3.985   3.101   6.573
12000TIP3   OH235942   0.571   4.365   0.477
12000TIP3    H135943   0.487   4.329   0.505
12000TIP3    H235944   0.607   4.407   0.556
12001TIP3   OH235945   4.204   0.216   1.091
12001TIP3    H135946   4.155   0.204   1.173
12001TIP3    H235947   4.242   0.303   1.098
12002TIP3   OH235948   7.259   2.417   1.355
12002TIP3    H135949   7.223   2.351   1.296
12002TIP3    H235950   7.354   2.412   1.341
12003TIP3   OH235951   7.361   0.462   5.726
12003TIP3    H135952   7.358   0.522   5.801
12003TIP3    H235953   7.375   0.518   5.650
12004TIP3   OH235954   3.167   7.762   0.769
12004TIP3    H135955   3.132   7.692   0.824
12004TIP3    H235956   3.092   7.788   0.715
12005TIP3   OH235957   3.642   4.318   4.040
12005TIP3    H135958   3.713   4.377   4.065
12005TIP3    H235959   3.680   4.262   3.972
12006TIP3   OH235960   6.910   4.957   6.699
12006TIP3    H135961   6.924   5.030   6.638
12006TIP3    H235962   6.827   4.978   6.743
12007TIP3   OH235963   1.433   4.695   1.986
12007TIP3    H135964   1.468   4.606   1.987
12007TIP3    H235965   1.338   4.683   1.989
12008TIP3   OH235966   7.599   6.069   4.208
12008TIP3    H135967   7.628   6.151   4.167
12008TIP3    H235968   7.528   6.037   4.153
12009TIP3   OH235969   2.344   0.173   5.252
12009TIP3    H135970   2.323   0.109   5.184
12009TIP3    H235971   2.260   0.203   5.285
12010TIP3   OH235972   7.310   5.412   3.061
12010TIP3    H135973   7.269   5.359   3.129
12010TIP3    H235974   7.239   5.469   3.029
12011TIP3   OH235975   5.768   4.870   5.054
12011TIP3    H135976   5.859   4.859   5.029
12011TIP3    H235977   5.720   4.809   4.997
12012TIP3   OH235978   7.463   7.581   2.988
12012TIP3    H135979   7.401   7.517   2.953
12012TIP3    H235980   7.545   7.561   2.942
12013TIP3   OH235981   6.881   1.643   2.477
12013TIP3    H135982   6.815   1.707   2.450
12013TIP3    H235983   6.920   1.680   2.556
12014TIP3   OH235984   7.648   7.187   3.101
12014TIP3    H135985   7.732   7.215   3.065
12014TIP3    H235986   7.615   7.263   3.148
12015TIP3   OH235987   4.702   6.393   2.606
12015TIP3    H135988   4.623   6.443   2.583
12015TIP3    H235989   4.668   6.310   2.641
12016TIP3   OH235990   3.104   3.586   2.127
12016TIP3    H135991   3.128   3.577   2.219
12016TIP3    H235992   3.034   3.651   2.127
12017TIP3   OH235993   3.064   4.245   3.533
12017TIP3    H135994   3.082   4.309   3.602
12017TIP3    H235995   3.151   4.211   3.509
12018TIP3   OH235996   3.201   4.209   4.996
12018TIP3    H135997   3.171   4.285   5.046
12018TIP3    H235998   3.134   4.195   4.930
12019TIP3   OH235999   6.937   0.228   0.355
12019TIP3    H136000   6.962   0.297   0.292
12019TIP3    H236001   6.849   0.252   0.382
12020TIP3   OH236002   1.015   6.947   1.118
12020TIP3    H136003   1.073   6.962   1.193
12020TIP3    H236004   0.982   7.034   1.096
12021TIP3   OH236005   3.563   2.596   4.001
12021TIP3    H136006   3.478   2.575   4.040
12021TIP3    H236007   3.599   2.511   3.976
12022TIP3   OH236008   6.789   6.162   6.586
12022TIP3    H136009   6.883   6.174   6.603
12022TIP3    H236010   6.766   6.084   6.636
12023TIP3   OH236011   7.888   6.616   1.237
12023TIP3    H136012   7.924   6.634   1.324
12023TIP3    H236013   7.797   6.645   1.242
12024TIP3   OH236014   5.845   5.066   4.738
12024TIP3    H136015   5.853   4.980   4.778
12024TIP3    H236016   5.750   5.083   4.737
12025TIP3   OH236017   3.979   5.429   1.157
12025TIP3    H136018   4.012   5.518   1.147
12025TIP3    H236019   4.029   5.393   1.230
12026TIP3   OH236020   2.978   2.458   3.079
12026TIP3    H136021   2.946   2.368   3.077
12026TIP3    H236022   3.025   2.469   2.997
12027TIP3   OH236023   7.505   0.388   5.253
12027TIP3    H136024   7.560   0.411   5.178
12027TIP3    H236025   7.432   0.450   5.249
12028TIP3   OH236026   0.446   6.710   0.511
12028TIP3    H136027   0.521   6.655   0.534
12028TIP3    H236028   0.457   6.729   0.418
12029TIP3   OH236029   5.747   6.347   0.181
12029TIP3    H136030   5.771   6.419   0.240
12029TIP3    H236031   5.827   6.294   0.174
12030TIP3   OH236032   2.868   1.820   6.418
12030TIP3    H136033   2.875   1.802   6.324
12030TIP3    H236034   2.852   1.735   6.458
12031TIP3   OH236035   6.141   3.572   1.456
12031TIP3    H136036   6.224   3.566   1.408
12031TIP3    H236037   6.080   3.519   1.405
12032TIP3   OH236038   0.605   3.677   5.199
12032TIP3    H136039   0.671   3.697   5.132
12032TIP3    H236040   0.643   3.605   5.249
12033TIP3   OH236041   7.083   7.079   6.306
12033TIP3    H136042   7.167   7.124   6.312
12033TIP3    H236043   7.054   7.093   6.216
12034TIP3   OH236044   6.209   2.800   5.984
12034TIP3    H136045   6.286   2.853   6.007
12034TIP3    H236046   6.136   2.845   6.026
12035TIP3   OH236047   7.827   2.615   1.915
12035TIP3    H136048   7.789   2.672   1.982
12035TIP3    H236049   7.792   2.528   1.935
12036TIP3   OH236050   5.135   7.304   4.906
12036TIP3    H136051   5.188   7.225   4.898
12036TIP3    H236052   5.118   7.331   4.816
12037TIP3   OH236053   4.478   5.737   0.477
12037TIP3    H136054   4.426   5.673   0.427
12037TIP3    H236055   4.474   5.706   0.567
12038TIP3   OH236056   1.044   1.372   4.690
12038TIP3    H136057   0.966   1.376   4.634
12038TIP3    H236058   1.083   1.287   4.671
12039TIP3   OH236059   1.726   2.865   1.852
12039TIP3    H136060   1.767   2.916   1.783
12039TIP3    H236061   1.747   2.911   1.933
12040TIP3   OH236062   5.619   6.722   2.710
12040TIP3    H136063   5.673   6.671   2.770
12040TIP3    H236064   5.602   6.804   2.757
12041TIP3   OH236065   1.688   5.721   0.170
12041TIP3    H136066   1.699   5.798   0.113
12041TIP3    H236067   1.601   5.731   0.208
12042TIP3   OH236068   2.783   7.257   1.989
12042TIP3    H136069   2.809   7.314   2.061
12042TIP3    H236070   2.817   7.171   2.012
12043TIP3   OH236071   2.584   1.782   6.179
12043TIP3    H136072   2.627   1.864   6.157
12043TIP3    H236073   2.511   1.807   6.237
12044TIP3   OH236074   3.954   4.684   4.128
12044TIP3    H136075   3.988   4.621   4.064
12044TIP3    H236076   3.999   4.662   4.209
12045TIP3   OH236077   5.695   1.107   1.797
12045TIP3    H136078   5.730   1.028   1.839
12045TIP3    H236079   5.767   1.169   1.800
12046TIP3   OH236080   1.787   7.283   1.769
12046TIP3    H136081   1.697   7.253   1.753
12046TIP3    H236082   1.823   7.219   1.830
12047TIP3   OH236083   8.211   4.811   0.812
12047TIP3    H136084   8.176   4.784   0.727
12047TIP3    H236085   8.163   4.891   0.833
12048TIP3   OH236086   2.060   0.218   2.927
12048TIP3    H136087   2.020   0.302   2.904
12048TIP3    H236088   1.996   0.152   2.901
12049TIP3   OH236089   2.193   6.299   4.347
12049TIP3    H136090   2.123   6.339   4.294
12049TIP3    H236091   2.235   6.237   4.288
12050TIP3   OH236092   0.594   2.865   4.325
12050TIP3    H136093   0.521   2.828   4.376
12050TIP3    H236094   0.602   2.955   4.356
12051TIP3   OH236095   5.856   7.315   3.875
12051TIP3    H136096   5.763   7.293   3.867
12051TIP3    H236097   5.857   7.410   3.890
12052TIP3   OH236098   5.133   0.832   2.716
12052TIP3    H136099   5.116   0.809   2.625
12052TIP3    H236100   5.152   0.926   2.714
12053TIP3   OH236101   5.951   1.932   1.826
12053TIP3    H136102   5.890   1.865   1.857
12053TIP3    H236103   5.966   1.911   1.734
12054TIP3   OH236104   8.036   3.846   4.221
12054TIP3    H136105   8.003   3.912   4.282
12054TIP3    H236106   8.038   3.890   4.136
12055TIP3   OH236107   3.280   3.966   4.579
12055TIP3    H136108   3.374   3.955   4.564
12055TIP3    H236109   3.268   3.945   4.672
12056TIP3   OH236110   6.965   3.989   0.232
12056TIP3    H136111   7.025   4.046   0.185
12056TIP3    H236112   7.002   3.901   0.222
12057TIP3   OH236113   6.214   4.040   3.546
12057TIP3    H136114   6.202   4.044   3.641
12057TIP3    H236115   6.274   3.967   3.532
12058TIP3   OH236116   7.101   2.518   4.225
12058TIP3    H136117   7.080   2.442   4.170
12058TIP3    H236118   7.085   2.488   4.315
12059TIP3   OH236119   1.280   6.119   3.523
12059TIP3    H136120   1.202   6.071   3.551
12059TIP3    H236121   1.253   6.211   3.523
12060TIP3   OH236122   4.461   6.052   6.415
12060TIP3    H136123   4.531   6.023   6.356
12060TIP3    H236124   4.478   6.006   6.497
12061TIP3   OH236125   5.947   1.927   6.235
12061TIP3    H136126   5.967   1.861   6.303
12061TIP3    H236127   5.986   1.892   6.155
12062TIP3   OH236128   7.375   3.227   3.927
12062TIP3    H136129   7.335   3.187   4.004
12062TIP3    H236130   7.339   3.316   3.925
12063TIP3   OH236131   1.893   2.843   0.263
12063TIP3    H136132   1.862   2.907   0.327
12063TIP3    H236133   1.840   2.765   0.279
12064TIP3   OH236134   2.872   0.225   5.312
12064TIP3    H136135   2.932   0.299   5.308
12064TIP3    H236136   2.900   0.175   5.389
12065TIP3   OH236137   1.858   5.370   1.275
12065TIP3    H136138   1.813   5.287   1.293
12065TIP3    H236139   1.791   5.424   1.232
12066TIP3   OH236140   0.815   2.691   4.504
12066TIP3    H136141   0.817   2.603   4.540
12066TIP3    H236142   0.770   2.681   4.420
12067TIP3   OH236143   3.794   6.955   1.400
12067TIP3    H136144   3.700   6.952   1.418
12067TIP3    H236145   3.803   6.911   1.315
12068TIP3   OH236146   3.352   2.117   4.330
12068TIP3    H136147   3.327   2.134   4.240
12068TIP3    H236148   3.298   2.042   4.356
12069TIP3   OH236149   2.493   3.659   6.317
12069TIP3    H136150   2.583   3.689   6.311
12069TIP3    H236151   2.463   3.652   6.226
12070TIP3   OH236152   5.653   1.401   2.028
12070TIP3    H136153   5.623   1.431   1.942
12070TIP3    H236154   5.746   1.424   2.030
12071TIP3   OH236155   7.744   4.869   3.870
12071TIP3    H136156   7.738   4.806   3.797
12071TIP3    H236157   7.770   4.951   3.828
12072TIP3   OH236158   7.886   2.698   5.366
12072TIP3    H136159   7.963   2.748   5.392
12072TIP3    H236160   7.883   2.704   5.271
12073TIP3   OH236161   1.649   1.916   2.462
12073TIP3    H136162   1.693   2.001   2.466
12073TIP3    H236163   1.706   1.862   2.407
12074TIP3   OH236164   0.237   6.829   5.675
12074TIP3    H136165   0.203   6.916   5.651
12074TIP3    H236166   0.231   6.826   5.770
12075TIP3   OH236167   6.563   0.329   1.793
12075TIP3    H136168   6.562   0.285   1.878
12075TIP3    H236169   6.591   0.261   1.731
12076TIP3   OH236170   1.641   5.219   6.204
12076TIP3    H136171   1.714   5.261   6.158
12076TIP3    H236172   1.566   5.277   6.189
12077TIP3   OH236173   1.798   7.657   3.410
12077TIP3    H136174   1.893   7.655   3.408
12077TIP3    H236175   1.775   7.744   3.376
12078TIP3   OH236176   3.074   2.118   2.745
12078TIP3    H136177   2.994   2.072   2.723
12078TIP3    H236178   3.051   2.170   2.822
12079TIP3   OH236179   5.857   0.617   5.618
12079TIP3    H136180   5.951   0.601   5.608
12079TIP3    H236181   5.816   0.551   5.563
12080TIP3   OH236182   0.211   2.193   1.233
12080TIP3    H136183   0.164   2.146   1.302
12080TIP3    H236184   0.143   2.235   1.182
12081TIP3   OH236185   8.057   5.812   4.976
12081TIP3    H136186   8.092   5.835   4.890
12081TIP3    H236187   7.962   5.816   4.966
12082TIP3   OH236188   2.964   7.551   3.048
12082TIP3    H136189   2.945   7.645   3.042
12082TIP3    H236190   2.882   7.511   3.077
12083TIP3   OH236191   3.965   5.312   3.929
12083TIP3    H136192   3.910   5.235   3.946
12083TIP3    H236193   3.985   5.346   4.016
12084TIP3   OH236194   0.519   5.146   4.978
12084TIP3    H136195   0.511   5.219   4.917
12084TIP3    H236196   0.453   5.083   4.949
12085TIP3   OH236197   6.474   2.738   6.666
12085TIP3    H136198   6.517   2.732   6.751
12085TIP3    H236199   6.540   2.778   6.609
12086TIP3   OH236200   7.723   1.188   5.098
12086TIP3    H136201   7.753   1.210   5.010
12086TIP3    H236202   7.779   1.115   5.125
12087TIP3   OH236203   1.683   4.046   1.902
12087TIP3    H136204   1.769   4.035   1.943
12087TIP3    H236205   1.695   4.014   1.813
12088TIP3   OH236206   7.464   3.398   4.740
12088TIP3    H136207   7.407   3.354   4.803
12088TIP3    H236208   7.544   3.416   4.788
12089TIP3   OH236209   1.822   6.926   3.295
12089TIP3    H136210   1.849   6.983   3.223
12089TIP3    H236211   1.783   6.984   3.359
12090TIP3   OH236212   4.566   3.165   0.090
12090TIP3    H136213   4.472   3.171   0.110
12090TIP3    H236214   4.588   3.074   0.107
12091TIP3   OH236215   5.021   4.249   3.245
12091TIP3    H136216   5.115   4.234   3.257
12091TIP3    H236217   5.013   4.284   3.157
12092TIP3   OH236218   0.831   3.107   6.058
12092TIP3    H136219   0.772   3.172   6.097
12092TIP3    H236220   0.779   3.066   5.989
12093TIP3   OH236221   2.339   3.982   5.008
12093TIP3    H136222   2.278   4.055   4.996
12093TIP3    H236223   2.305   3.936   5.085
12094TIP3   OH236224   7.353   5.532   4.488
12094TIP3    H136225   7.438   5.513   4.527
12094TIP3    H236226   7.339   5.459   4.427
12095TIP3   OH236227   0.197   2.837   1.182
12095TIP3    H136228   0.241   2.791   1.111
12095TIP3    H236229   0.257   2.832   1.255
12096TIP3   OH236230   5.372   0.036   1.835
12096TIP3    H136231   5.415   0.075   1.912
12096TIP3    H236232   5.296   0.092   1.820
12097TIP3   OH236233   1.830   5.680   1.772
12097TIP3    H136234   1.851   5.631   1.852
12097TIP3    H236235   1.794   5.763   1.804
12098TIP3   OH236236   2.295   0.216   5.890
12098TIP3    H136237   2.371   0.251   5.843
12098TIP3    H236238   2.330   0.183   5.972
12099TIP3   OH236239   3.310   0.200   2.655
12099TIP3    H136240   3.391   0.194   2.706
12099TIP3    H236241   3.290   0.110   2.630
12100TIP3   OH236242   7.902   4.395   3.774
12100TIP3    H136243   7.886   4.300   3.771
12100TIP3    H236244   7.862   4.428   3.694
12101TIP3   OH236245   5.952   6.357   0.393
12101TIP3    H136246   5.961   6.309   0.310
12101TIP3    H236247   5.914   6.293   0.454
12102TIP3   OH236248   7.014   2.706   1.611
12102TIP3    H136249   6.956   2.644   1.654
12102TIP3    H236250   7.101   2.667   1.619
12103TIP3   OH236251   4.568   4.427   0.053
12103TIP3    H136252   4.576   4.480   0.132
12103TIP3    H236253   4.537   4.342   0.085
12104TIP3   OH236254   5.295   5.178   0.634
12104TIP3    H136255   5.210   5.220   0.646
12104TIP3    H236256   5.348   5.209   0.708
12105TIP3   OH236257   1.730   0.870   0.715
12105TIP3    H136258   1.683   0.816   0.652
12105TIP3    H236259   1.811   0.821   0.732
12106TIP3   OH236260   0.631   7.003   1.704
12106TIP3    H136261   0.636   7.056   1.783
12106TIP3    H236262   0.549   7.029   1.662
12107TIP3   OH236263   1.547   2.905   0.412
12107TIP3    H136264   1.573   2.976   0.354
12107TIP3    H236265   1.500   2.844   0.355
12108TIP3   OH236266   8.051   4.373   0.482
12108TIP3    H136267   8.021   4.426   0.408
12108TIP3    H236268   8.047   4.283   0.450
12109TIP3   OH236269   5.029   3.340   5.558
12109TIP3    H136270   5.062   3.361   5.646
12109TIP3    H236271   4.948   3.292   5.574
12110TIP3   OH236272   7.716   7.269   2.194
12110TIP3    H136273   7.716   7.179   2.161
12110TIP3    H236274   7.624   7.290   2.208
12111TIP3   OH236275   0.406   7.485   5.747
12111TIP3    H136276   0.355   7.407   5.725
12111TIP3    H236277   0.341   7.546   5.781
12112TIP3   OH236278   5.432   0.432   5.951
12112TIP3    H136279   5.436   0.421   6.046
12112TIP3    H236280   5.518   0.467   5.927
12113TIP3   OH236281   0.322   3.309   2.887
12113TIP3    H136282   0.394   3.348   2.937
12113TIP3    H236283   0.258   3.379   2.879
12114TIP3   OH236284   5.297   6.422   1.503
12114TIP3    H136285   5.234   6.492   1.518
12114TIP3    H236286   5.336   6.407   1.589
12115TIP3   OH236287   4.590   2.837   0.919
12115TIP3    H136288   4.670   2.866   0.962
12115TIP3    H236289   4.543   2.919   0.899
12116TIP3   OH236290   5.838   1.079   4.359
12116TIP3    H136291   5.826   0.991   4.396
12116TIP3    H236292   5.860   1.064   4.268
12117TIP3   OH236293   5.044   1.641   2.961
12117TIP3    H136294   5.090   1.725   2.957
12117TIP3    H236295   5.044   1.609   2.871
12118TIP3   OH236296   6.143   3.030   2.134
12118TIP3    H136297   6.211   3.040   2.068
12118TIP3    H236298   6.076   3.094   2.109
12119TIP3   OH236299   4.771   4.140   5.839
12119TIP3    H136300   4.756   4.234   5.829
12119TIP3    H236301   4.695   4.099   5.797
12120TIP3   OH236302   2.237   3.265   6.074
12120TIP3    H136303   2.176   3.246   6.002
12120TIP3    H236304   2.185   3.316   6.136
12121TIP3   OH236305   2.960   4.680   3.454
12121TIP3    H136306   2.957   4.639   3.367
12121TIP3    H236307   3.010   4.761   3.440
12122TIP3   OH236308   4.755   2.077   0.264
12122TIP3    H136309   4.805   2.068   0.346
12122TIP3    H236310   4.665   2.090   0.293
12123TIP3   OH236311   5.946   2.076   0.377
12123TIP3    H136312   5.998   2.156   0.367
12123TIP3    H236313   5.987   2.028   0.448
12124TIP3   OH236314   7.110   5.568   1.096
12124TIP3    H136315   7.142   5.505   1.032
12124TIP3    H236316   7.052   5.626   1.046
12125TIP3   OH236317   6.405   0.437   1.302
12125TIP3    H136318   6.313   0.439   1.277
12125TIP3    H236319   6.445   0.373   1.243
12126TIP3   OH236320   7.568   2.161   3.042
12126TIP3    H136321   7.589   2.246   3.079
12126TIP3    H236322   7.613   2.159   2.958
12127TIP3   OH236323   1.571   6.395   0.540
12127TIP3    H136324   1.557   6.423   0.630
12127TIP3    H236325   1.484   6.372   0.508
12128TIP3   OH236326   3.972   1.849   1.085
12128TIP3    H136327   3.927   1.863   1.001
12128TIP3    H236328   4.010   1.762   1.078
12129TIP3   OH236329   7.377   0.693   0.970
12129TIP3    H136330   7.407   0.620   1.024
12129TIP3    H236331   7.342   0.756   1.033
12130TIP3   OH236332   2.557   5.389   0.425
12130TIP3    H136333   2.555   5.420   0.334
12130TIP3    H236334   2.465   5.372   0.446
12131TIP3   OH236335   8.040   5.508   5.385
12131TIP3    H136336   8.020   5.547   5.470
12131TIP3    H236337   8.134   5.520   5.374
12132TIP3   OH236338   6.594   5.923   1.110
12132TIP3    H136339   6.569   5.840   1.150
12132TIP3    H236340   6.686   5.934   1.134
12133TIP3   OH236341   6.941   2.014   2.283
12133TIP3    H136342   6.953   2.008   2.378
12133TIP3    H236343   6.992   1.941   2.248
12134TIP3   OH236344   2.895   7.772   5.651
12134TIP3    H136345   2.831   7.783   5.722
12134TIP3    H236346   2.979   7.769   5.695
12135TIP3   OH236347   7.897   4.570   5.464
12135TIP3    H136348   7.886   4.598   5.555
12135TIP3    H236349   7.809   4.546   5.435
12136TIP3   OH236350   1.059   4.833   0.683
12136TIP3    H136351   1.044   4.778   0.761
12136TIP3    H236352   1.123   4.784   0.632
12137TIP3   OH236353   4.819   5.497   1.000
12137TIP3    H136354   4.747   5.550   0.966
12137TIP3    H236355   4.894   5.556   1.000
12138TIP3   OH236356   4.304   4.173   5.500
12138TIP3    H136357   4.398   4.155   5.501
12138TIP3    H236358   4.266   4.099   5.452
12139TIP3   OH236359   4.233  -0.021   1.508
12139TIP3    H136360   4.187   0.008   1.587
12139TIP3    H236361   4.313  -0.064   1.540
12140TIP3   OH236362   1.367   6.621   6.314
12140TIP3    H136363   1.393   6.571   6.392
12140TIP3    H236364   1.423   6.699   6.316
12141TIP3   OH236365   1.518   7.466   0.754
12141TIP3    H136366   1.524   7.371   0.758
12141TIP3    H236367   1.433   7.483   0.713
12142TIP3   OH236368   1.003   7.504   2.116
12142TIP3    H136369   1.050   7.430   2.079
12142TIP3    H236370   0.950   7.537   2.043
12143TIP3   OH236371   7.944   2.704   3.351
12143TIP3    H136372   7.976   2.730   3.438
12143TIP3    H236373   7.888   2.777   3.324
12144TIP3   OH236374   3.252   3.794   5.464
12144TIP3    H136375   3.299   3.827   5.387
12144TIP3    H236376   3.306   3.721   5.494
12145TIP3   OH236377   5.037   2.254   2.506
12145TIP3    H136378   5.101   2.269   2.576
12145TIP3    H236379   4.970   2.321   2.520
12146TIP3   OH236380   1.099   5.158   2.189
12146TIP3    H136381   1.160   5.137   2.259
12146TIP3    H236382   1.131   5.108   2.113
12147TIP3   OH236383   6.657   6.423   0.134
12147TIP3    H136384   6.634   6.332   0.120
12147TIP3    H236385   6.670   6.430   0.229
12148TIP3   OH236386   5.228   1.825   3.248
12148TIP3    H136387   5.155   1.883   3.229
12148TIP3    H236388   5.187   1.743   3.276
12149TIP3   OH236389   5.839   3.171   1.403
12149TIP3    H136390   5.892   3.118   1.462
12149TIP3    H236391   5.825   3.115   1.327
12150TIP3   OH236392   7.052   7.440   0.864
12150TIP3    H136393   7.052   7.373   0.933
12150TIP3    H236394   6.969   7.428   0.818
12151TIP3   OH236395   6.977   3.965   2.692
12151TIP3    H136396   6.945   3.970   2.602
12151TIP3    H236397   6.971   4.055   2.724
12152TIP3   OH236398   1.684   4.030   1.622
12152TIP3    H136399   1.609   4.050   1.565
12152TIP3    H236400   1.732   3.962   1.574
12153TIP3   OH236401   7.440   5.644   5.320
12153TIP3    H136402   7.478   5.681   5.240
12153TIP3    H236403   7.429   5.719   5.379
12154TIP3   OH236404   3.551   0.304   5.038
12154TIP3    H136405   3.476   0.313   5.097
12154TIP3    H236406   3.609   0.376   5.061
12155TIP3   OH236407   5.081   6.245   2.596
12155TIP3    H136408   5.118   6.230   2.509
12155TIP3    H236409   5.124   6.325   2.627
12156TIP3   OH236410   4.421   3.483   1.737
12156TIP3    H136411   4.517   3.483   1.744
12156TIP3    H236412   4.400   3.566   1.695
12157TIP3   OH236413   6.598   5.791   5.236
12157TIP3    H136414   6.523   5.819   5.289
12157TIP3    H236415   6.632   5.714   5.282
12158TIP3   OH236416   2.620   3.987   4.569
12158TIP3    H136417   2.554   4.037   4.616
12158TIP3    H236418   2.626   3.904   4.617
12159TIP3   OH236419   5.420   5.295   5.769
12159TIP3    H136420   5.331   5.328   5.759
12159TIP3    H236421   5.410   5.209   5.811
12160TIP3   OH236422   5.691   7.546   4.250
12160TIP3    H136423   5.778   7.584   4.258
12160TIP3    H236424   5.643   7.581   4.326
12161TIP3   OH236425   5.844   1.386   6.396
12161TIP3    H136426   5.798   1.359   6.476
12161TIP3    H236427   5.915   1.322   6.387
12162TIP3   OH236428   7.998   0.607   2.187
12162TIP3    H136429   8.049   0.668   2.133
12162TIP3    H236430   8.014   0.636   2.277
12163TIP3   OH236431   7.160   3.243   2.301
12163TIP3    H136432   7.248   3.280   2.294
12163TIP3    H236433   7.169   3.170   2.362
12164TIP3   OH236434   0.240   7.043   3.264
12164TIP3    H136435   0.212   7.037   3.356
12164TIP3    H236436   0.159   7.044   3.214
12165TIP3   OH236437   3.899   3.657   3.332
12165TIP3    H136438   3.956   3.599   3.281
12165TIP3    H236439   3.959   3.708   3.386
12166TIP3   OH236440   6.951   1.593   0.475
12166TIP3    H136441   6.985   1.681   0.456
12166TIP3    H236442   6.856   1.603   0.477
12167TIP3   OH236443   2.449   7.252   2.175
12167TIP3    H136444   2.410   7.305   2.106
12167TIP3    H236445   2.448   7.163   2.140
12168TIP3   OH236446   7.610   1.989   1.867
12168TIP3    H136447   7.659   2.017   1.789
12168TIP3    H236448   7.664   2.017   1.941
12169TIP3   OH236449   3.293   7.620   3.224
12169TIP3    H136450   3.207   7.662   3.220
12169TIP3    H236451   3.274   7.527   3.233
12170TIP3   OH236452   2.560   4.195   2.974
12170TIP3    H136453   2.646   4.227   3.000
12170TIP3    H236454   2.537   4.247   2.897
12171TIP3   OH236455   0.843   3.074   4.567
12171TIP3    H136456   0.852   2.995   4.621
12171TIP3    H236457   0.845   3.041   4.477
12172TIP3   OH236458   7.629   3.242   2.150
12172TIP3    H136459   7.686   3.288   2.088
12172TIP3    H236460   7.591   3.170   2.100
12173TIP3   OH236461   7.418   5.641   2.724
12173TIP3    H136462   7.380   5.687   2.799
12173TIP3    H236463   7.504   5.612   2.754
12174TIP3   OH236464   2.335   4.758   6.479
12174TIP3    H136465   2.409   4.774   6.420
12174TIP3    H236466   2.279   4.835   6.469
12175TIP3   OH236467   3.985   6.643   5.766
12175TIP3    H136468   4.024   6.600   5.689
12175TIP3    H236469   3.988   6.736   5.746
12176TIP3   OH236470   2.071   5.507   4.975
12176TIP3    H136471   2.123   5.443   5.022
12176TIP3    H236472   2.058   5.579   5.037
12177TIP3   OH236473   1.686   3.960   6.673
12177TIP3    H136474   1.598   3.924   6.685
12177TIP3    H236475   1.683   4.002   6.588
12178TIP3   OH236476   4.607   3.309   2.719
12178TIP3    H136477   4.681   3.369   2.734
12178TIP3    H236478   4.567   3.340   2.638
12179TIP3   OH236479   4.693   2.626   1.233
12179TIP3    H136480   4.610   2.643   1.189
12179TIP3    H236481   4.678   2.653   1.324
12180TIP3   OH236482   5.560   5.140   0.783
12180TIP3    H136483   5.531   5.229   0.803
12180TIP3    H236484   5.546   5.092   0.864
12181TIP3   OH236485   5.760   6.347   0.842
12181TIP3    H136486   5.708   6.414   0.798
12181TIP3    H236487   5.816   6.395   0.902
12182TIP3   OH236488   7.097   6.862   6.498
12182TIP3    H136489   7.095   6.935   6.436
12182TIP3    H236490   7.175   6.878   6.551
12183TIP3   OH236491   5.564   3.400   5.019
12183TIP3    H136492   5.606   3.487   5.019
12183TIP3    H236493   5.627   3.344   4.974
12184TIP3   OH236494   7.072   0.721   0.999
12184TIP3    H136495   7.060   0.804   1.046
12184TIP3    H236496   7.084   0.656   1.068
12185TIP3   OH236497   2.292   0.790   5.249
12185TIP3    H136498   2.232   0.864   5.245
12185TIP3    H236499   2.378   0.828   5.230
12186TIP3   OH236500   4.965   1.345   0.234
12186TIP3    H136501   4.953   1.428   0.187
12186TIP3    H236502   4.876   1.317   0.256
12187TIP3   OH236503   3.119   2.657   2.399
12187TIP3    H136504   3.043   2.600   2.394
12187TIP3    H236505   3.129   2.692   2.311
12188TIP3   OH236506   4.251   6.948   5.692
12188TIP3    H136507   4.256   6.878   5.757
12188TIP3    H236508   4.158   6.954   5.671
12189TIP3   OH236509   7.967   0.848   2.394
12189TIP3    H136510   7.933   0.879   2.310
12189TIP3    H236511   8.001   0.927   2.437
12190TIP3   OH236512   4.281   6.112   1.554
12190TIP3    H136513   4.193   6.137   1.581
12190TIP3    H236514   4.267   6.054   1.478
12191TIP3   OH236515   4.629   3.926   5.468
12191TIP3    H136516   4.657   3.992   5.531
12191TIP3    H236517   4.706   3.909   5.414
12192TIP3   OH236518   0.884   7.396   4.842
12192TIP3    H136519   0.952   7.461   4.859
12192TIP3    H236520   0.919   7.315   4.879
12193TIP3   OH236521   5.062   7.425   5.861
12193TIP3    H136522   4.984   7.369   5.856
12193TIP3    H236523   5.032   7.504   5.906
12194TIP3   OH236524   0.151   5.139   2.677
12194TIP3    H136525   0.069   5.106   2.714
12194TIP3    H236526   0.177   5.071   2.614
12195TIP3   OH236527   7.214   2.569   2.292
12195TIP3    H136528   7.265   2.505   2.242
12195TIP3    H236529   7.252   2.565   2.380
12196TIP3   OH236530   6.649   4.432   4.058
12196TIP3    H136531   6.694   4.503   4.104
12196TIP3    H236532   6.639   4.363   4.123
12197TIP3   OH236533   4.631   3.472   0.087
12197TIP3    H136534   4.571   3.513   0.149
12197TIP3    H236535   4.677   3.546   0.046
12198TIP3   OH236536   7.570   3.138   6.558
12198TIP3    H136537   7.525   3.155   6.641
12198TIP3    H236538   7.640   3.203   6.554
12199TIP3   OH236539   5.262   2.343   5.516
12199TIP3    H136540   5.305   2.277   5.571
12199TIP3    H236541   5.318   2.350   5.439
12200TIP3   OH236542   3.995   7.080   0.708
12200TIP3    H136543   4.050   7.018   0.757
12200TIP3    H236544   3.916   7.031   0.688
12201TIP3   OH236545   0.905   4.039   3.477
12201TIP3    H136546   0.966   4.112   3.465
12201TIP3    H236547   0.826   4.080   3.512
12202TIP3   OH236548   3.577   0.615   2.548
12202TIP3    H136549   3.578   0.711   2.549
12202TIP3    H236550   3.616   0.590   2.632
12203TIP3   OH236551   6.886   3.860   3.341
12203TIP3    H136552   6.947   3.893   3.274
12203TIP3    H236553   6.815   3.924   3.341
12204TIP3   OH236554   6.714   4.387   2.911
12204TIP3    H136555   6.646   4.419   2.851
12204TIP3    H236556   6.794   4.387   2.859
12205TIP3   OH236557   1.360   5.660   2.712
12205TIP3    H136558   1.441   5.640   2.665
12205TIP3    H236559   1.312   5.718   2.653
12206TIP3   OH236560   0.493   2.455   5.678
12206TIP3    H136561   0.529   2.460   5.766
12206TIP3    H236562   0.510   2.542   5.640
12207TIP3   OH236563   3.846   0.404   6.352
12207TIP3    H136564   3.941   0.413   6.341
12207TIP3    H236565   3.817   0.362   6.271
12208TIP3   OH236566   6.624   5.363   1.223
12208TIP3    H136567   6.614   5.342   1.131
12208TIP3    H236568   6.718   5.377   1.235
12209TIP3   OH236569   2.611   4.513   5.040
12209TIP3    H136570   2.586   4.601   5.011
12209TIP3    H236571   2.625   4.521   5.134
12210TIP3   OH236572   1.401   1.550   0.562
12210TIP3    H136573   1.339   1.617   0.591
12210TIP3    H236574   1.347   1.487   0.515
12211TIP3   OH236575   6.966   3.470   5.545
12211TIP3    H136576   6.993   3.506   5.629
12211TIP3    H236577   7.040   3.484   5.487
12212TIP3   OH236578   1.666   0.820   3.512
12212TIP3    H136579   1.742   0.848   3.461
12212TIP3    H236580   1.686   0.849   3.601
12213TIP3   OH236581   1.055   2.112   0.938
12213TIP3    H136582   1.134   2.165   0.923
12213TIP3    H236583   1.022   2.141   1.022
12214TIP3   OH236584   5.103   6.202   3.206
12214TIP3    H136585   5.066   6.214   3.294
12214TIP3    H236586   5.028   6.210   3.147
12215TIP3   OH236587   4.342   7.341   3.909
12215TIP3    H136588   4.310   7.281   3.976
12215TIP3    H236589   4.274   7.341   3.842
12216TIP3   OH236590   6.864   6.039   1.602
12216TIP3    H136591   6.776   6.004   1.596
12216TIP3    H236592   6.854   6.133   1.586
12217TIP3   OH236593   2.296   6.236   3.665
12217TIP3    H136594   2.201   6.246   3.663
12217TIP3    H236595   2.313   6.193   3.749
12218TIP3   OH236596   0.545   1.882   6.198
12218TIP3    H136597   0.599   1.902   6.274
12218TIP3    H236598   0.603   1.897   6.123
12219TIP3   OH236599   0.082   5.243   3.827
12219TIP3    H136600   0.079   5.312   3.893
12219TIP3    H236601   0.174   5.240   3.801
12220TIP3   OH236602   6.869   7.591   1.686
12220TIP3    H136603   6.876   7.539   1.606
12220TIP3    H236604   6.788   7.560   1.728
12221TIP3   OH236605   5.972   0.314   1.666
12221TIP3    H136606   6.022   0.233   1.650
12221TIP3    H236607   5.949   0.309   1.759
12222TIP3   OH236608   5.415   3.894   4.249
12222TIP3    H136609   5.333   3.939   4.228
12222TIP3    H236610   5.471   3.963   4.285
12223TIP3   OH236611   8.275   5.432   5.949
12223TIP3    H136612   8.304   5.523   5.952
12223TIP3    H236613   8.342   5.384   5.997
12224TIP3   OH236614   7.851   6.648   3.636
12224TIP3    H136615   7.801   6.567   3.632
12224TIP3    H236616   7.879   6.663   3.546
12225TIP3   OH236617   3.600   7.285   6.597
12225TIP3    H136618   3.552   7.204   6.614
12225TIP3    H236619   3.691   7.263   6.619
12226TIP3   OH236620   1.518   5.932   2.028
12226TIP3    H136621   1.493   5.840   2.028
12226TIP3    H236622   1.462   5.973   1.963
12227TIP3   OH236623   6.274   1.378   5.664
12227TIP3    H136624   6.315   1.304   5.709
12227TIP3    H236625   6.335   1.397   5.592
12228TIP3   OH236626   5.876   0.348   0.922
12228TIP3    H136627   5.850   0.325   0.832
12228TIP3    H236628   5.901   0.440   0.917
12229TIP3   OH236629   3.879   5.292   3.217
12229TIP3    H136630   3.913   5.357   3.155
12229TIP3    H236631   3.949   5.226   3.223
12230TIP3   OH236632   7.967   6.791   2.104
12230TIP3    H136633   8.058   6.787   2.075
12230TIP3    H236634   7.938   6.699   2.106
12231TIP3   OH236635   1.171   3.160   3.236
12231TIP3    H136636   1.198   3.250   3.219
12231TIP3    H236637   1.180   3.115   3.152
12232TIP3   OH236638   5.717   0.846   0.511
12232TIP3    H136639   5.756   0.841   0.424
12232TIP3    H236640   5.741   0.762   0.552
12233TIP3   OH236641   0.404   3.244   2.479
12233TIP3    H136642   0.377   3.265   2.390
12233TIP3    H236643   0.380   3.321   2.531
12234TIP3   OH236644   2.384   2.747   4.523
12234TIP3    H136645   2.384   2.840   4.543
12234TIP3    H236646   2.426   2.740   4.438
12235TIP3   OH236647   5.710   4.998   5.482
12235TIP3    H136648   5.694   4.945   5.560
12235TIP3    H236649   5.642   5.066   5.486
12236TIP3   OH236650   6.276   4.560   1.468
12236TIP3    H136651   6.307   4.641   1.428
12236TIP3    H236652   6.228   4.515   1.398
12237TIP3   OH236653   7.876   3.458   1.401
12237TIP3    H136654   7.930   3.469   1.323
12237TIP3    H236655   7.911   3.520   1.464
12238TIP3   OH236656   7.566   1.600   3.691
12238TIP3    H136657   7.550   1.536   3.760
12238TIP3    H236658   7.660   1.617   3.695
12239TIP3   OH236659   2.157   2.937   6.130
12239TIP3    H136660   2.195   2.949   6.043
12239TIP3    H236661   2.173   2.844   6.150
12240TIP3   OH236662   4.118   2.330   5.671
12240TIP3    H136663   4.181   2.372   5.612
12240TIP3    H236664   4.058   2.284   5.613
12241TIP3   OH236665   6.892   3.726   5.342
12241TIP3    H136666   6.956   3.655   5.338
12241TIP3    H236667   6.943   3.803   5.369
12242TIP3   OH236668   1.143   2.829   0.471
12242TIP3    H136669   1.105   2.743   0.490
12242TIP3    H236670   1.111   2.851   0.384
12243TIP3   OH236671   6.809   0.009   6.604
12243TIP3    H136672   6.729   0.060   6.590
12243TIP3    H236673   6.871   0.044   6.540
12244TIP3   OH236674   6.907   5.433   4.174
12244TIP3    H136675   7.002   5.428   4.183
12244TIP3    H236676   6.893   5.492   4.100
12245TIP3   OH236677   2.093   6.109   6.672
12245TIP3    H136678   2.088   6.076   6.582
12245TIP3    H236679   2.171   6.068   6.709
12246TIP3   OH236680   6.534   2.481   2.660
12246TIP3    H136681   6.616   2.438   2.633
12246TIP3    H236682   6.549   2.574   2.643
12247TIP3   OH236683   2.374   4.969   5.876
12247TIP3    H136684   2.444   4.932   5.822
12247TIP3    H236685   2.368   5.060   5.847
12248TIP3   OH236686   0.894   1.989   6.027
12248TIP3    H136687   0.977   2.026   5.997
12248TIP3    H236688   0.851   2.061   6.073
12249TIP3   OH236689   1.087   1.216   5.070
12249TIP3    H136690   1.040   1.134   5.061
12249TIP3    H236691   1.030   1.281   5.030
12250TIP3   OH236692   5.080   4.430   4.811
12250TIP3    H136693   5.160   4.378   4.806
12250TIP3    H236694   5.062   4.457   4.721
12251TIP3   OH236695   2.414   3.042   4.484
12251TIP3    H136696   2.432   3.017   4.393
12251TIP3    H236697   2.418   3.137   4.484
12252TIP3   OH236698   2.577   7.761   6.711
12252TIP3    H136699   2.551   7.853   6.719
12252TIP3    H236700   2.521   7.715   6.774
12253TIP3   OH236701   0.477   1.098   1.675
12253TIP3    H136702   0.421   1.173   1.655
12253TIP3    H236703   0.545   1.100   1.608
12254TIP3   OH236704   4.367   5.372   5.424
12254TIP3    H136705   4.308   5.387   5.499
12254TIP3    H236706   4.343   5.439   5.361
12255TIP3   OH236707   3.144   1.844   5.439
12255TIP3    H136708   3.139   1.928   5.393
12255TIP3    H236709   3.087   1.855   5.515
12256TIP3   OH236710   7.857   7.543   6.052
12256TIP3    H136711   7.876   7.628   6.013
12256TIP3    H236712   7.878   7.479   5.984
12257TIP3   OH236713   0.204   7.468   1.424
12257TIP3    H136714   0.225   7.483   1.332
12257TIP3    H236715   0.276   7.508   1.472
12258TIP3   OH236716   8.169   5.168   5.531
12258TIP3    H136717   8.178   5.088   5.478
12258TIP3    H236718   8.155   5.237   5.467
12259TIP3   OH236719   4.774   6.147   0.920
12259TIP3    H136720   4.837   6.218   0.930
12259TIP3    H236721   4.690   6.187   0.940
12260TIP3   OH236722   0.362   3.930   2.384
12260TIP3    H136723   0.291   3.928   2.447
12260TIP3    H236724   0.351   4.012   2.337
12261TIP3   OH236725   5.529   1.947   5.281
12261TIP3    H136726   5.451   1.936   5.227
12261TIP3    H236727   5.557   2.037   5.263
12262TIP3   OH236728   0.187   1.384   3.455
12262TIP3    H136729   0.245   1.397   3.380
12262TIP3    H236730   0.241   1.403   3.531
12263TIP3   OH236731   4.450   6.690   1.609
12263TIP3    H136732   4.538   6.728   1.615
12263TIP3    H236733   4.431   6.658   1.697
12264TIP3   OH236734   3.481   6.234   6.309
12264TIP3    H136735   3.473   6.314   6.362
12264TIP3    H236736   3.571   6.206   6.322
12265TIP3   OH236737   7.570   6.793   2.239
12265TIP3    H136738   7.529   6.750   2.314
12265TIP3    H236739   7.516   6.768   2.164
12266TIP3   OH236740   7.324   6.529   6.704
12266TIP3    H136741   7.235   6.507   6.678
12266TIP3    H236742   7.326   6.516   6.799
12267TIP3   OH236743   6.408   7.780   3.361
12267TIP3    H136744   6.314   7.793   3.349
12267TIP3    H236745   6.417   7.687   3.382
12268TIP3   OH236746   0.999   2.572   1.123
12268TIP3    H136747   1.041   2.486   1.119
12268TIP3    H236748   1.051   2.620   1.188
12269TIP3   OH236749   0.322   4.997   5.269
12269TIP3    H136750   0.359   4.963   5.351
12269TIP3    H236751   0.373   5.077   5.252
12270TIP3   OH236752   0.706   0.897   5.176
12270TIP3    H136753   0.716   0.815   5.225
12270TIP3    H236754   0.674   0.960   5.240
12271TIP3   OH236755   0.940   1.757   6.712
12271TIP3    H136756   0.869   1.697   6.737
12271TIP3    H236757   0.915   1.841   6.750
12272TIP3   OH236758   2.291   1.497   0.527
12272TIP3    H136759   2.384   1.515   0.540
12272TIP3    H236760   2.253   1.498   0.615
12273TIP3   OH236761   7.450   5.706   3.504
12273TIP3    H136762   7.523   5.663   3.548
12273TIP3    H236763   7.431   5.782   3.558
12274TIP3   OH236764   1.629   2.686   6.459
12274TIP3    H136765   1.655   2.695   6.551
12274TIP3    H236766   1.599   2.596   6.451
12275TIP3   OH236767   2.857   7.513   0.288
12275TIP3    H136768   2.919   7.563   0.234
12275TIP3    H236769   2.816   7.579   0.345
12276TIP3   OH236770   2.700   3.573   0.275
12276TIP3    H136771   2.610   3.572   0.243
12276TIP3    H236772   2.730   3.483   0.266
12277TIP3   OH236773   4.518   1.118   5.068
12277TIP3    H136774   4.525   1.185   5.136
12277TIP3    H236775   4.427   1.125   5.037
12278TIP3   OH236776   5.376   6.055   6.062
12278TIP3    H136777   5.423   5.990   6.011
12278TIP3    H236778   5.303   6.082   6.004
12279TIP3   OH236779   4.701   1.361   2.299
12279TIP3    H136780   4.667   1.429   2.357
12279TIP3    H236781   4.739   1.296   2.358
12280TIP3   OH236782   1.649   5.955   2.670
12280TIP3    H136783   1.684   5.948   2.758
12280TIP3    H236784   1.717   6.000   2.620
12281TIP3   OH236785   6.602   6.312   6.718
12281TIP3    H136786   6.667   6.266   6.665
12281TIP3    H236787   6.623   6.405   6.708
12282TIP3   OH236788   6.296   3.798   3.805
12282TIP3    H136789   6.342   3.882   3.798
12282TIP3    H236790   6.219   3.808   3.749
12283TIP3   OH236791   6.605   6.437   1.486
12283TIP3    H136792   6.659   6.412   1.561
12283TIP3    H236793   6.583   6.528   1.500
12284TIP3   OH236794   3.661   0.427   5.376
12284TIP3    H136795   3.668   0.511   5.421
12284TIP3    H236796   3.667   0.449   5.283
12285TIP3   OH236797   4.735   0.579   2.520
12285TIP3    H136798   4.667   0.560   2.585
12285TIP3    H236799   4.778   0.658   2.552
12286TIP3   OH236800   2.287   2.237   5.551
12286TIP3    H136801   2.293   2.197   5.638
12286TIP3    H236802   2.194   2.236   5.531
12287TIP3   OH236803   3.654   5.200   1.056
12287TIP3    H136804   3.599   5.271   1.024
12287TIP3    H236805   3.627   5.187   1.147
12288TIP3   OH236806   0.124   0.525   2.763
12288TIP3    H136807   0.082   0.440   2.772
12288TIP3    H236808   0.145   0.532   2.670
12289TIP3   OH236809   2.209   1.229   2.297
12289TIP3    H136810   2.301   1.205   2.294
12289TIP3    H236811   2.203   1.291   2.371
12290TIP3   OH236812   7.501   6.084   4.510
12290TIP3    H136813   7.443   6.019   4.551
12290TIP3    H236814   7.460   6.168   4.530
12291TIP3   OH236815   6.279   5.508   2.046
12291TIP3    H136816   6.309   5.454   2.119
12291TIP3    H236817   6.183   5.508   2.054
12292TIP3   OH236818   6.867   6.439   5.241
12292TIP3    H136819   6.865   6.402   5.329
12292TIP3    H236820   6.780   6.477   5.228
12293TIP3   OH236821   5.244   2.107   6.310
12293TIP3    H136822   5.286   2.174   6.255
12293TIP3    H236823   5.291   2.026   6.288
12294TIP3   OH236824   5.934   1.392   2.986
12294TIP3    H136825   5.849   1.437   2.985
12294TIP3    H236826   5.950   1.369   2.895
12295TIP3   OH236827   1.655   1.407   0.456
12295TIP3    H136828   1.633   1.318   0.480
12295TIP3    H236829   1.574   1.457   0.469
12296TIP3   OH236830   2.527   2.606   1.210
12296TIP3    H136831   2.588   2.536   1.187
12296TIP3    H236832   2.570   2.655   1.280
12297TIP3   OH236833   6.645   2.581   2.143
12297TIP3    H136834   6.738   2.583   2.123
12297TIP3    H236835   6.624   2.670   2.172
12298TIP3   OH236836   8.073   4.185   1.657
12298TIP3    H136837   8.051   4.274   1.684
12298TIP3    H236838   7.988   4.142   1.643
12299TIP3   OH236839   7.370   2.591   1.846
12299TIP3    H136840   7.417   2.574   1.927
12299TIP3    H236841   7.370   2.507   1.800
12300TIP3   OH236842   5.068   7.823   2.757
12300TIP3    H136843   5.011   7.752   2.725
12300TIP3    H236844   5.085   7.877   2.680
12301TIP3   OH236845   0.754   5.679   3.018
12301TIP3    H136846   0.705   5.622   2.958
12301TIP3    H236847   0.834   5.630   3.036
12302TIP3   OH236848   0.214   4.122   4.962
12302TIP3    H136849   0.154   4.182   5.007
12302TIP3    H236850   0.213   4.042   5.015
12303TIP3   OH236851   5.079   4.624   1.876
12303TIP3    H136852   4.992   4.590   1.895
12303TIP3    H236853   5.078   4.640   1.782
12304TIP3   OH236854   7.885   6.985   0.797
12304TIP3    H136855   7.839   6.955   0.719
12304TIP3    H236856   7.968   6.936   0.796
12305TIP3   OH236857  -0.027   1.882   3.988
12305TIP3    H136858  -0.115   1.912   3.966
12305TIP3    H236859   0.030   1.957   3.970
12306TIP3   OH236860   2.913   2.043   1.471
12306TIP3    H136861   2.985   2.106   1.477
12306TIP3    H236862   2.850   2.084   1.413
12307TIP3   OH236863   7.403   6.704   5.474
12307TIP3    H136864   7.485   6.685   5.428
12307TIP3    H236865   7.335   6.667   5.417
12308TIP3   OH236866   0.982   3.923   4.421
12308TIP3    H136867   1.024   4.008   4.410
12308TIP3    H236868   1.041   3.861   4.378
12309TIP3   OH236869   6.689   7.107   2.738
12309TIP3    H136870   6.745   7.029   2.737
12309TIP3    H236871   6.750   7.180   2.729
12310TIP3   OH236872   6.022   2.915   2.646
12310TIP3    H136873   6.093   2.863   2.608
12310TIP3    H236874   6.020   2.890   2.738
12311TIP3   OH236875   3.209   3.418   6.236
12311TIP3    H136876   3.201   3.437   6.329
12311TIP3    H236877   3.187   3.325   6.228
12312TIP3   OH236878   2.401   0.597   0.344
12312TIP3    H136879   2.396   0.686   0.379
12312TIP3    H236880   2.374   0.541   0.416
12313TIP3   OH236881   4.451   3.408   2.474
12313TIP3    H136882   4.363   3.418   2.510
12313TIP3    H236883   4.449   3.453   2.390
12314TIP3   OH236884   2.069   3.710   4.579
12314TIP3    H136885   2.121   3.758   4.643
12314TIP3    H236886   2.040   3.631   4.624
12315TIP3   OH236887   1.031   4.477   5.602
12315TIP3    H136888   0.948   4.514   5.633
12315TIP3    H236889   1.090   4.485   5.677
12316TIP3   OH236890   6.264   7.014   4.301
12316TIP3    H136891   6.226   7.070   4.369
12316TIP3    H236892   6.341   7.061   4.270
12317TIP3   OH236893   4.455   6.648   3.367
12317TIP3    H136894   4.474   6.576   3.308
12317TIP3    H236895   4.536   6.663   3.415
12318TIP3   OH236896   0.176   3.839   0.736
12318TIP3    H136897   0.116   3.785   0.786
12318TIP3    H236898   0.144   3.834   0.646
12319TIP3   OH236899   0.843   5.180   2.054
12319TIP3    H136900   0.783   5.223   2.114
12319TIP3    H236901   0.929   5.185   2.096
12320TIP3   OH236902   1.578   0.190   6.247
12320TIP3    H136903   1.598   0.104   6.284
12320TIP3    H236904   1.511   0.173   6.182
12321TIP3   OH236905   8.108   7.485   2.277
12321TIP3    H136906   8.171   7.473   2.348
12321TIP3    H236907   8.039   7.540   2.315
12322TIP3   OH236908   0.557   1.263   1.190
12322TIP3    H136909   0.532   1.351   1.163
12322TIP3    H236910   0.482   1.208   1.167
12323TIP3   OH236911   3.216   1.523   0.292
12323TIP3    H136912   3.124   1.540   0.272
12323TIP3    H236913   3.223   1.535   0.386
12324TIP3   OH236914   3.339   0.803   0.337
12324TIP3    H136915   3.262   0.789   0.392
12324TIP3    H236916   3.311   0.778   0.249
12325TIP3   OH236917   7.991   0.252   0.128
12325TIP3    H136918   8.066   0.200   0.102
12325TIP3    H236919   7.915   0.196   0.110
12326TIP3   OH236920   5.248   3.961   5.179
12326TIP3    H136921   5.327   3.985   5.228
12326TIP3    H236922   5.226   3.874   5.210
12327TIP3   OH236923   3.115   3.648   0.144
12327TIP3    H136924   3.057   3.679   0.214
12327TIP3    H236925   3.146   3.563   0.175
12328TIP3   OH236926   6.011   3.938   0.345
12328TIP3    H136927   6.032   3.874   0.276
12328TIP3    H236928   5.946   3.893   0.399
12329TIP3   OH236929   6.246   2.446   3.177
12329TIP3    H136930   6.268   2.448   3.084
12329TIP3    H236931   6.158   2.483   3.182
12330TIP3   OH236932   2.817   7.221   3.678
12330TIP3    H136933   2.754   7.254   3.614
12330TIP3    H236934   2.769   7.219   3.761
12331TIP3   OH236935   6.900   2.003   1.245
12331TIP3    H136936   6.822   2.058   1.234
12331TIP3    H236937   6.872   1.932   1.303
12332TIP3   OH236938   4.245   2.231   5.064
12332TIP3    H136939   4.203   2.157   5.020
12332TIP3    H236940   4.209   2.230   5.153
12333TIP3   OH236941   6.162   6.934   0.009
12333TIP3    H136942   6.196   6.849  -0.018
12333TIP3    H236943   6.085   6.948  -0.047
12334TIP3   OH236944   7.845   2.963   3.524
12334TIP3    H136945   7.752   2.939   3.535
12334TIP3    H236946   7.893   2.889   3.562
12335TIP3   OH236947   2.067   6.764   3.676
12335TIP3    H136948   2.001   6.718   3.625
12335TIP3    H236949   2.071   6.852   3.637
12336TIP3   OH236950   6.017   0.024   1.805
12336TIP3    H136951   6.099   0.018   1.853
12336TIP3    H236952   5.950   0.031   1.873
12337TIP3   OH236953   8.293   5.517   1.967
12337TIP3    H136954   8.322   5.547   2.053
12337TIP3    H236955   8.200   5.497   1.979
12338TIP3   OH236956   2.994   5.655   4.098
12338TIP3    H136957   3.074   5.607   4.077
12338TIP3    H236958   2.945   5.596   4.155
12339TIP3   OH236959   1.689   4.242   3.905
12339TIP3    H136960   1.644   4.320   3.873
12339TIP3    H236961   1.620   4.177   3.917
12340TIP3   OH236962   6.205   0.252   6.135
12340TIP3    H136963   6.280   0.286   6.086
12340TIP3    H236964   6.209   0.299   6.218
12341TIP3   OH236965   4.332   0.292   4.446
12341TIP3    H136966   4.359   0.244   4.368
12341TIP3    H236967   4.339   0.384   4.422
12342TIP3   OH236968   7.545   7.163   2.815
12342TIP3    H136969   7.582   7.176   2.902
12342TIP3    H236970   7.622   7.149   2.759
12343TIP3   OH236971   1.009   3.073   1.800
12343TIP3    H136972   1.074   3.142   1.788
12343TIP3    H236973   0.940   3.114   1.853
12344TIP3   OH236974   0.600   5.030   5.998
12344TIP3    H136975   0.561   4.957   5.950
12344TIP3    H236976   0.654   5.075   5.933
12345TIP3   OH236977   1.285   4.126   1.679
12345TIP3    H136978   1.295   4.032   1.664
12345TIP3    H236979   1.373   4.156   1.703
12346TIP3   OH236980   6.069   4.095   3.158
12346TIP3    H136981   6.136   4.161   3.141
12346TIP3    H236982   6.117   4.012   3.155
12347TIP3   OH236983   7.097   7.586   5.799
12347TIP3    H136984   7.108   7.648   5.871
12347TIP3    H236985   7.171   7.526   5.807
12348TIP3   OH236986   7.387   4.652   0.079
12348TIP3    H136987   7.380   4.656  -0.016
12348TIP3    H236988   7.297   4.651   0.110
12349TIP3   OH236989   4.800   1.362   3.190
12349TIP3    H136990   4.751   1.338   3.269
12349TIP3    H236991   4.792   1.285   3.133
12350TIP3   OH236992   0.759   5.594   2.194
12350TIP3    H136993   0.739   5.641   2.275
12350TIP3    H236994   0.775   5.504   2.223
12351TIP3   OH236995   0.710   1.938   2.212
12351TIP3    H136996   0.712   1.951   2.307
12351TIP3    H236997   0.731   1.845   2.200
12352TIP3   OH236998   6.807   4.918   1.728
12352TIP3    H136999   6.774   4.884   1.646
12352TIP3    H237000   6.880   4.861   1.751
12353TIP3   OH237001   5.982   4.831   1.371
12353TIP3    H137002   5.967   4.903   1.310
12353TIP3    H237003   5.977   4.752   1.316
12354TIP3   OH237004   6.179   2.462   3.837
12354TIP3    H137005   6.112   2.506   3.784
12354TIP3    H237006   6.234   2.417   3.773
12355TIP3   OH237007   0.342   0.415   3.676
12355TIP3    H137008   0.339   0.358   3.752
12355TIP3    H237009   0.254   0.453   3.670
12356TIP3   OH237010   1.183   3.610   1.023
12356TIP3    H137011   1.183   3.528   0.974
12356TIP3    H237012   1.268   3.650   1.003
12357TIP3   OH237013   3.667   6.800   0.440
12357TIP3    H137014   3.575   6.774   0.438
12357TIP3    H237015   3.668   6.884   0.485
12358TIP3   OH237016   4.585   2.450   4.462
12358TIP3    H137017   4.592   2.423   4.554
12358TIP3    H237018   4.565   2.369   4.415
12359TIP3   OH237019   1.120   7.442   4.008
12359TIP3    H137020   1.149   7.464   4.097
12359TIP3    H237021   1.189   7.384   3.975
12360TIP3   OH237022   0.366   2.846   0.691
12360TIP3    H137023   0.308   2.772   0.711
12360TIP3    H237024   0.449   2.823   0.731
12361TIP3   OH237025   2.841   0.458   0.003
12361TIP3    H137026   2.818   0.506   0.083
12361TIP3    H237027   2.868   0.371   0.035
12362TIP3   OH237028   6.839   4.122   2.301
12362TIP3    H137029   6.757   4.074   2.311
12362TIP3    H237030   6.815   4.200   2.251
12363TIP3   OH237031   4.899   5.501   4.636
12363TIP3    H137032   4.805   5.512   4.650
12363TIP3    H237033   4.935   5.588   4.651
12364TIP3   OH237034   3.371   4.412   0.651
12364TIP3    H137035   3.370   4.316   0.650
12364TIP3    H237036   3.320   4.435   0.728
12365TIP3   OH237037   3.205   3.044   5.907
12365TIP3    H137038   3.276   3.069   5.966
12365TIP3    H237039   3.247   2.985   5.844
12366TIP3   OH237040   6.365   1.673  -0.062
12366TIP3    H137041   6.333   1.753  -0.102
12366TIP3    H237042   6.424   1.703   0.007
12367TIP3   OH237043   5.995   4.465   4.575
12367TIP3    H137044   5.910   4.499   4.547
12367TIP3    H237045   5.979   4.373   4.595
12368TIP3   OH237046   5.450   3.496   2.741
12368TIP3    H137047   5.411   3.438   2.806
12368TIP3    H237048   5.543   3.500   2.766
12369TIP3   OH237049   0.532   4.837   5.775
12369TIP3    H137050   0.589   4.770   5.736
12369TIP3    H237051   0.462   4.787   5.818
12370TIP3   OH237052   1.087   1.410   6.607
12370TIP3    H137053   1.125   1.334   6.651
12370TIP3    H237054   1.162   1.455   6.568
12371TIP3   OH237055   0.873   1.676   2.188
12371TIP3    H137056   0.879   1.687   2.093
12371TIP3    H237057   0.807   1.607   2.201
12372TIP3   OH237058   3.662   6.418   4.711
12372TIP3    H137059   3.580   6.430   4.664
12372TIP3    H237060   3.706   6.347   4.665
12373TIP3   OH237061   3.690   1.508   0.786
12373TIP3    H137062   3.620   1.490   0.849
12373TIP3    H237063   3.686   1.435   0.725
12374TIP3   OH237064   4.826   7.045   2.757
12374TIP3    H137065   4.787   7.106   2.820
12374TIP3    H237066   4.850   7.100   2.682
12375TIP3   OH237067   4.797   2.462   4.112
12375TIP3    H137068   4.802   2.438   4.020
12375TIP3    H237069   4.779   2.556   4.112
12376TIP3   OH237070   4.100   6.295   6.526
12376TIP3    H137071   4.096   6.208   6.486
12376TIP3    H237072   4.133   6.352   6.456
12377TIP3   OH237073   0.683   7.418   6.298
12377TIP3    H137074   0.746   7.388   6.233
12377TIP3    H237075   0.736   7.464   6.363
12378TIP3   OH237076   8.090   3.475   1.755
12378TIP3    H137077   8.184   3.456   1.749
12378TIP3    H237078   8.065   3.501   1.667
12379TIP3   OH237079   4.032   1.180   4.284
12379TIP3    H137080   4.030   1.276   4.277
12379TIP3    H237081   4.098   1.153   4.220
12380TIP3   OH237082   0.978   2.744   1.710
12380TIP3    H137083   1.029   2.663   1.710
12380TIP3    H237084   1.034   2.807   1.664
12381TIP3   OH237085   8.116   6.654   4.957
12381TIP3    H137086   8.023   6.631   4.954
12381TIP3    H237087   8.153   6.598   5.026
12382TIP3   OH237088   3.834   6.052   1.962
12382TIP3    H137089   3.803   6.129   2.009
12382TIP3    H237090   3.929   6.052   1.974
12383TIP3   OH237091   6.432   1.584   3.269
12383TIP3    H137092   6.516   1.628   3.275
12383TIP3    H237093   6.446   1.513   3.206
12384TIP3   OH237094   5.241   7.732   0.109
12384TIP3    H137095   5.149   7.717   0.087
12384TIP3    H237096   5.255   7.685   0.191
12385TIP3   OH237097   2.923   4.847   4.248
12385TIP3    H137098   2.986   4.879   4.313
12385TIP3    H237099   2.949   4.756   4.233
12386TIP3   OH237100   2.712   2.092   2.825
12386TIP3    H137101   2.770   2.061   2.756
12386TIP3    H237102   2.624   2.072   2.794
12387TIP3   OH237103   6.025   0.394   5.384
12387TIP3    H137104   5.982   0.346   5.454
12387TIP3    H237105   6.065   0.326   5.329
12388TIP3   OH237106   6.484   6.024   0.703
12388TIP3    H137107   6.577   6.045   0.701
12388TIP3    H237108   6.441   6.104   0.734
12389TIP3   OH237109   7.241   1.858   0.398
12389TIP3    H137110   7.281   1.943   0.379
12389TIP3    H237111   7.311   1.807   0.437
12390TIP3   OH237112   7.882   3.867   3.642
12390TIP3    H137113   7.928   3.885   3.560
12390TIP3    H237114   7.938   3.802   3.685
12391TIP3   OH237115   4.099   3.942   2.444
12391TIP3    H137116   4.041   4.002   2.490
12391TIP3    H237117   4.187   3.974   2.464
12392TIP3   OH237118   8.251   5.994   0.729
12392TIP3    H137119   8.204   6.071   0.759
12392TIP3    H237120   8.308   6.025   0.659
12393TIP3   OH237121   3.687   6.236   1.191
12393TIP3    H137122   3.640   6.186   1.257
12393TIP3    H237123   3.687   6.181   1.113
12394TIP3   OH237124   1.542   4.046   3.232
12394TIP3    H137125   1.604   3.985   3.273
12394TIP3    H237126   1.478   4.065   3.301
12395TIP3   OH237127   3.825   7.583   4.628
12395TIP3    H137128   3.767   7.636   4.682
12395TIP3    H237129   3.833   7.500   4.676
12396TIP3   OH237130   8.167   0.761   4.752
12396TIP3    H137131   8.210   0.679   4.728
12396TIP3    H237132   8.078   0.752   4.720
12397TIP3   OH237133   0.398   1.893   3.501
12397TIP3    H137134   0.435   1.816   3.457
12397TIP3    H237135   0.303   1.885   3.488
12398TIP3   OH237136   1.710   0.403   5.905
12398TIP3    H137137   1.687   0.316   5.872
12398TIP3    H237138   1.791   0.389   5.954
12399TIP3   OH237139   0.940   5.903   1.531
12399TIP3    H137140   0.976   5.836   1.588
12399TIP3    H237141   1.004   5.912   1.460
12400TIP3   OH237142   4.764   1.688   5.680
12400TIP3    H137143   4.688   1.746   5.669
12400TIP3    H237144   4.840   1.747   5.676
12401TIP3   OH237145   1.329   7.842   2.245
12401TIP3    H137146   1.303   7.870   2.333
12401TIP3    H237147   1.369   7.756   2.257
12402TIP3   OH237148   8.292   2.404   1.663
12402TIP3    H137149   8.267   2.313   1.647
12402TIP3    H237150   8.300   2.443   1.576
12403TIP3   OH237151   3.802   6.480   6.418
12403TIP3    H137152   3.872   6.501   6.479
12403TIP3    H237153   3.749   6.560   6.413
12404TIP3   OH237154   2.141   4.144   3.244
12404TIP3    H137155   2.130   4.090   3.322
12404TIP3    H237156   2.234   4.134   3.221
12405TIP3   OH237157   3.393   3.904   1.782
12405TIP3    H137158   3.317   3.859   1.818
12405TIP3    H237159   3.365   3.932   1.695
12406TIP3   OH237160   3.975   2.664   6.068
12406TIP3    H137161   4.023   2.583   6.047
12406TIP3    H237162   3.982   2.672   6.163
12407TIP3   OH237163   3.545   0.309   4.478
12407TIP3    H137164   3.573   0.224   4.445
12407TIP3    H237165   3.564   0.305   4.572
12408TIP3   OH237166   0.228   7.244   0.347
12408TIP3    H137167   0.306   7.258   0.293
12408TIP3    H237168   0.160   7.295   0.305
12409TIP3   OH237169   6.729   5.069   1.351
12409TIP3    H137170   6.734   5.153   1.306
12409TIP3    H237171   6.820   5.048   1.374
12410TIP3   OH237172   6.726   7.074   1.306
12410TIP3    H137173   6.725   7.070   1.210
12410TIP3    H237174   6.723   7.168   1.326
12411TIP3   OH237175   5.459   1.616   0.378
12411TIP3    H137176   5.464   1.564   0.458
12411TIP3    H237177   5.551   1.629   0.353
12412TIP3   OH237178   1.084   7.040   3.294
12412TIP3    H137179   1.054   6.949   3.293
12412TIP3    H237180   1.019   7.087   3.243
12413TIP3   OH237181   0.762   1.622   4.050
12413TIP3    H137182   0.838   1.621   4.108
12413TIP3    H237183   0.708   1.549   4.079
12414TIP3   OH237184   1.671   7.737   2.509
12414TIP3    H137185   1.739   7.804   2.517
12414TIP3    H237186   1.667   7.697   2.596
12415TIP3   OH237187   8.330   3.677   4.253
12415TIP3    H137188   8.268   3.605   4.245
12415TIP3    H237189   8.276   3.755   4.259
12416TIP3   OH237190   5.921   6.134   3.867
12416TIP3    H137191   6.015   6.146   3.884
12416TIP3    H237192   5.879   6.203   3.917
12417TIP3   OH237193   4.088   3.701   0.947
12417TIP3    H137194   4.065   3.671   1.035
12417TIP3    H237195   4.110   3.621   0.899
12418TIP3   OH237196   5.919   5.320   4.673
12418TIP3    H137197   5.866   5.248   4.709
12418TIP3    H237198   5.890   5.328   4.582
12419TIP3   OH237199   4.544   3.204   6.353
12419TIP3    H137200   4.493   3.157   6.287
12419TIP3    H237201   4.634   3.172   6.342
12420TIP3   OH237202   7.371   4.140   3.363
12420TIP3    H137203   7.441   4.099   3.312
12420TIP3    H237204   7.327   4.066   3.405
12421TIP3   OH237205   6.250   4.853   4.188
12421TIP3    H137206   6.250   4.790   4.260
12421TIP3    H237207   6.221   4.935   4.227
12422TIP3   OH237208   4.237   7.540   4.773
12422TIP3    H137209   4.192   7.541   4.688
12422TIP3    H237210   4.269   7.630   4.783
12423TIP3   OH237211   3.697   6.252   2.070
12423TIP3    H137212   3.644   6.284   1.998
12423TIP3    H237213   3.644   6.268   2.149
12424TIP3   OH237214   1.760   7.359   3.930
12424TIP3    H137215   1.762   7.293   3.860
12424TIP3    H237216   1.706   7.430   3.894
12425TIP3   OH237217   3.967   7.480   6.115
12425TIP3    H137218   4.003   7.504   6.201
12425TIP3    H237219   4.013   7.536   6.053
12426TIP3   OH237220   3.944   2.566   4.757
12426TIP3    H137221   4.018   2.620   4.729
12426TIP3    H237222   3.936   2.499   4.689
12427TIP3   OH237223   3.819   1.969   2.671
12427TIP3    H137224   3.900   1.945   2.716
12427TIP3    H237225   3.843   1.975   2.579
12428TIP3   OH237226   3.547   2.127   6.256
12428TIP3    H137227   3.603   2.179   6.315
12428TIP3    H237228   3.607   2.064   6.216
12429TIP3   OH237229   4.418   7.181   5.792
12429TIP3    H137230   4.399   7.248   5.726
12429TIP3    H237231   4.348   7.117   5.781
12430TIP3   OH237232   1.495   4.021   4.548
12430TIP3    H137233   1.562   4.066   4.600
12430TIP3    H237234   1.541   3.947   4.507
12431TIP3   OH237235   7.304   1.936   5.180
12431TIP3    H137236   7.232   1.900   5.232
12431TIP3    H237237   7.383   1.907   5.226
12432TIP3   OH237238   4.043   6.819   1.992
12432TIP3    H137239   4.101   6.886   1.956
12432TIP3    H237240   4.070   6.738   1.949
12433TIP3   OH237241   7.429   1.707   4.120
12433TIP3    H137242   7.496   1.768   4.091
12433TIP3    H237243   7.422   1.722   4.214
12434TIP3   OH237244   6.736   7.281   6.614
12434TIP3    H137245   6.695   7.197   6.634
12434TIP3    H237246   6.819   7.259   6.571
12435TIP3   OH237247   6.164   4.550   5.219
12435TIP3    H137248   6.237   4.509   5.174
12435TIP3    H237249   6.205   4.611   5.280
12436TIP3   OH237250   7.918   3.573   5.111
12436TIP3    H137251   7.898   3.652   5.162
12436TIP3    H237252   7.881   3.501   5.163
12437TIP3   OH237253   4.865   4.000   2.148
12437TIP3    H137254   4.773   3.978   2.162
12437TIP3    H237255   4.877   4.084   2.192
12438TIP3   OH237256   5.204   0.905   5.465
12438TIP3    H137257   5.247   0.876   5.545
12438TIP3    H237258   5.218   1.000   5.464
12439TIP3   OH237259   4.992   4.776   4.014
12439TIP3    H137260   4.981   4.837   3.941
12439TIP3    H237261   4.989   4.690   3.973
12440TIP3   OH237262   6.279   0.319   4.547
12440TIP3    H137263   6.224   0.395   4.569
12440TIP3    H237264   6.221   0.244   4.559
12441TIP3   OH237265   6.298   7.640   4.420
12441TIP3    H137266   6.306   7.675   4.509
12441TIP3    H237267   6.219   7.587   4.423
12442TIP3   OH237268   7.215   1.627   2.974
12442TIP3    H137269   7.178   1.554   2.925
12442TIP3    H237270   7.169   1.704   2.942
12443TIP3   OH237271   3.455   2.679   0.241
12443TIP3    H137272   3.435   2.748   0.305
12443TIP3    H237273   3.527   2.630   0.280
12444TIP3   OH237274   3.840   5.942   1.687
12444TIP3    H137275   3.888   5.859   1.690
12444TIP3    H237276   3.814   5.958   1.778
12445TIP3   OH237277   1.655   4.299   1.673
12445TIP3    H137278   1.644   4.326   1.582
12445TIP3    H237279   1.658   4.203   1.669
12446TIP3   OH237280   3.970   2.368   2.719
12446TIP3    H137281   3.893   2.316   2.742
12446TIP3    H237282   3.936   2.443   2.671
12447TIP3   OH237283   0.380   0.725   1.870
12447TIP3    H137284   0.398   0.787   1.800
12447TIP3    H237285   0.311   0.669   1.835
12448TIP3   OH237286   7.934   6.274   2.031
12448TIP3    H137287   7.855   6.229   2.062
12448TIP3    H237288   7.990   6.204   1.996
12449TIP3   OH237289   7.841   3.845   6.526
12449TIP3    H137290   7.927   3.803   6.517
12449TIP3    H237291   7.861   3.933   6.560
12450TIP3   OH237292   5.415   4.655   5.309
12450TIP3    H137293   5.444   4.564   5.322
12450TIP3    H237294   5.431   4.697   5.393
12451TIP3   OH237295   3.160   2.001   1.202
12451TIP3    H137296   3.210   1.921   1.189
12451TIP3    H237297   3.218   2.071   1.174
12452TIP3   OH237298   1.976   1.525   5.073
12452TIP3    H137299   1.917   1.530   4.998
12452TIP3    H237300   2.025   1.443   5.060
12453TIP3   OH237301   1.932   7.635   6.441
12453TIP3    H137302   1.859   7.694   6.426
12453TIP3    H237303   1.903   7.551   6.404
12454TIP3   OH237304   7.321   7.028   2.114
12454TIP3    H137305   7.294   6.960   2.052
12454TIP3    H237306   7.252   7.028   2.181
12455TIP3   OH237307   3.643   1.099   6.343
12455TIP3    H137308   3.595   1.169   6.298
12455TIP3    H237309   3.735   1.115   6.321
12456TIP3   OH237310   5.766   4.493   0.934
12456TIP3    H137311   5.806   4.552   0.998
12456TIP3    H237312   5.701   4.444   0.984
12457TIP3   OH237313   3.827   3.698   4.905
12457TIP3    H137314   3.810   3.643   4.829
12457TIP3    H237315   3.804   3.644   4.980
12458TIP3   OH237316   5.356   4.980   4.438
12458TIP3    H137317   5.397   5.005   4.521
12458TIP3    H237318   5.415   5.015   4.371
12459TIP3   OH237319   2.123   1.162   2.617
12459TIP3    H137320   2.189   1.227   2.592
12459TIP3    H237321   2.164   1.110   2.685
12460TIP3   OH237322   7.528   5.620   5.780
12460TIP3    H137323   7.486   5.541   5.745
12460TIP3    H237324   7.562   5.665   5.703
12461TIP3   OH237325   1.663   2.243   4.200
12461TIP3    H137326   1.606   2.196   4.261
12461TIP3    H237327   1.731   2.281   4.255
12462TIP3   OH237328   2.873   0.742   2.058
12462TIP3    H137329   2.968   0.732   2.059
12462TIP3    H237330   2.858   0.832   2.086
12463TIP3   OH237331   2.208   4.582   0.259
12463TIP3    H137332   2.219   4.669   0.221
12463TIP3    H237333   2.149   4.595   0.333
12464TIP3   OH237334   6.027   0.525   1.989
12464TIP3    H137335   6.012   0.570   2.072
12464TIP3    H237336   6.122   0.518   1.982
12465TIP3   OH237337   5.316   2.404   3.912
12465TIP3    H137338   5.348   2.391   4.001
12465TIP3    H237339   5.231   2.360   3.911
12466TIP3   OH237340   7.271   6.890   3.432
12466TIP3    H137341   7.298   6.832   3.502
12466TIP3    H237342   7.189   6.853   3.399
12467TIP3   OH237343   7.486   5.617   3.235
12467TIP3    H137344   7.517   5.666   3.312
12467TIP3    H237345   7.476   5.527   3.266
12468TIP3   OH237346   2.986   6.183   1.170
12468TIP3    H137347   3.056   6.154   1.112
12468TIP3    H237348   2.970   6.274   1.145
12469TIP3   OH237349   2.671   6.498   3.571
12469TIP3    H137350   2.665   6.448   3.489
12469TIP3    H237351   2.586   6.541   3.579
12470TIP3   OH237352   6.475   1.873   4.454
12470TIP3    H137353   6.389   1.901   4.422
12470TIP3    H237354   6.485   1.784   4.418
12471TIP3   OH237355   2.987   0.881   5.510
12471TIP3    H137356   2.959   0.945   5.445
12471TIP3    H237357   2.935   0.802   5.490
12472TIP3   OH237358   4.297   4.665   5.826
12472TIP3    H137359   4.241   4.723   5.774
12472TIP3    H237360   4.378   4.657   5.776
12473TIP3   OH237361   0.196   2.769   4.549
12473TIP3    H137362   0.140   2.739   4.621
12473TIP3    H237363   0.268   2.705   4.546
12474TIP3   OH237364   4.889   4.302   4.030
12474TIP3    H137365   4.865   4.264   3.945
12474TIP3    H237366   4.820   4.272   4.089
12475TIP3   OH237367   5.010   3.866   3.113
12475TIP3    H137368   5.055   3.883   3.030
12475TIP3    H237369   5.067   3.904   3.180
12476TIP3   OH237370   5.939   1.004   1.434
12476TIP3    H137371   5.910   0.935   1.375
12476TIP3    H237372   5.881   1.078   1.415
12477TIP3   OH237373   3.839   0.544   5.715
12477TIP3    H137374   3.774   0.552   5.785
12477TIP3    H237375   3.805   0.601   5.645
12478TIP3   OH237376   3.064   0.431   4.078
12478TIP3    H137377   3.100   0.343   4.089
12478TIP3    H237378   2.978   0.417   4.037
12479TIP3   OH237379   3.825   5.809   0.523
12479TIP3    H137380   3.848   5.867   0.596
12479TIP3    H237381   3.873   5.845   0.449
12480TIP3   OH237382   1.741   1.795   1.779
12480TIP3    H137383   1.800   1.838   1.718
12480TIP3    H237384   1.734   1.705   1.747
12481TIP3   OH237385   6.343   5.551   4.161
12481TIP3    H137386   6.298   5.537   4.079
12481TIP3    H237387   6.436   5.555   4.138
12482TIP3   OH237388   7.191   1.267   2.357
12482TIP3    H137389   7.255   1.263   2.286
12482TIP3    H237390   7.117   1.215   2.327
12483TIP3   OH237391   4.629   3.355   6.002
12483TIP3    H137392   4.601   3.412   5.930
12483TIP3    H237393   4.638   3.269   5.961
12484TIP3   OH237394   2.216   2.596   2.383
12484TIP3    H137395   2.271   2.673   2.399
12484TIP3    H237396   2.266   2.523   2.417
12485TIP3   OH237397   0.964   3.795   1.660
12485TIP3    H137398   0.874   3.775   1.686
12485TIP3    H237399   0.964   3.781   1.565
12486TIP3   OH237400   3.546   0.519   4.290
12486TIP3    H137401   3.626   0.572   4.297
12486TIP3    H237402   3.557   0.451   4.357
12487TIP3   OH237403   6.274   5.586   5.281
12487TIP3    H137404   6.268   5.510   5.339
12487TIP3    H237405   6.353   5.571   5.229
12488TIP3   OH237406   1.389   5.461   6.148
12488TIP3    H137407   1.294   5.450   6.145
12488TIP3    H237408   1.402   5.548   6.184
12489TIP3   OH237409   6.023   3.926   5.224
12489TIP3    H137410   5.937   3.902   5.259
12489TIP3    H237411   6.084   3.869   5.269
12490TIP3   OH237412   7.138   6.847   4.232
12490TIP3    H137413   7.186   6.764   4.240
12490TIP3    H237414   7.193   6.911   4.278
12491TIP3   OH237415   6.754   5.029   0.191
12491TIP3    H137416   6.725   5.119   0.176
12491TIP3    H237417   6.721   5.007   0.278
12492TIP3   OH237418   2.343   3.290   2.564
12492TIP3    H137419   2.326   3.205   2.524
12492TIP3    H237420   2.284   3.350   2.519
12493TIP3   OH237421   7.927   1.621   1.193
12493TIP3    H137422   7.842   1.598   1.231
12493TIP3    H237423   7.910   1.701   1.143
12494TIP3   OH237424   1.090   1.849   0.903
12494TIP3    H137425   1.052   1.937   0.901
12494TIP3    H237426   1.166   1.857   0.960
12495TIP3   OH237427   4.086   1.306   1.469
12495TIP3    H137428   4.168   1.321   1.514
12495TIP3    H237429   4.021   1.356   1.519
12496TIP3   OH237430   1.463   5.204   4.913
12496TIP3    H137431   1.505   5.184   4.829
12496TIP3    H237432   1.402   5.275   4.892
12497TIP3   OH237433   6.511   0.663   6.304
12497TIP3    H137434   6.567   0.588   6.289
12497TIP3    H237435   6.473   0.683   6.218
12498TIP3   OH237436   4.243   1.193   0.915
12498TIP3    H137437   4.327   1.159   0.886
12498TIP3    H237438   4.249   1.196   1.010
12499TIP3   OH237439   7.794   7.436   5.366
12499TIP3    H137440   7.847   7.480   5.299
12499TIP3    H237441   7.705   7.465   5.348
12500TIP3   OH237442   3.243   4.151   1.124
12500TIP3    H137443   3.192   4.219   1.079
12500TIP3    H237444   3.188   4.073   1.119
12501TIP3   OH237445   1.484   5.581   5.042
12501TIP3    H137446   1.440   5.660   5.073
12501TIP3    H237447   1.433   5.554   4.966
12502TIP3   OH237448   2.384   2.506   0.364
12502TIP3    H137449   2.382   2.410   0.358
12502TIP3    H237450   2.402   2.536   0.275
12503TIP3   OH237451   6.686   0.260   0.442
12503TIP3    H137452   6.599   0.245   0.405
12503TIP3    H237453   6.670   0.288   0.532
12504TIP3   OH237454   7.083   7.197   3.279
12504TIP3    H137455   6.990   7.217   3.290
12504TIP3    H237456   7.093   7.110   3.317
12505TIP3   OH237457   0.266   6.194   4.838
12505TIP3    H137458   0.186   6.142   4.839
12505TIP3    H237459   0.320   6.158   4.909
12506TIP3   OH237460   6.112   2.041   0.617
12506TIP3    H137461   6.118   1.995   0.700
12506TIP3    H237462   6.202   2.044   0.584
12507TIP3   OH237463   5.400   6.248   6.256
12507TIP3    H137464   5.430   6.312   6.192
12507TIP3    H237465   5.400   6.165   6.209
12508TIP3   OH237466   4.385   0.206   5.296
12508TIP3    H137467   4.357   0.295   5.315
12508TIP3    H237468   4.374   0.197   5.201
12509TIP3   OH237469   4.039   2.241   6.541
12509TIP3    H137470   4.060   2.194   6.622
12509TIP3    H237471   4.072   2.329   6.554
12510TIP3   OH237472   1.043   0.272   1.924
12510TIP3    H137473   1.101   0.322   1.982
12510TIP3    H237474   1.000   0.339   1.870
12511TIP3   OH237475   5.386   7.041   2.244
12511TIP3    H137476   5.413   7.126   2.280
12511TIP3    H237477   5.343   6.996   2.316
12512TIP3   OH237478   8.001   2.367   5.426
12512TIP3    H137479   7.975   2.373   5.334
12512TIP3    H237480   8.075   2.427   5.433
12513TIP3   OH237481   2.524   6.561   5.072
12513TIP3    H137482   2.457   6.505   5.033
12513TIP3    H237483   2.606   6.516   5.054
12514TIP3   OH237484   2.919   3.941   2.795
12514TIP3    H137485   2.992   3.894   2.835
12514TIP3    H237486   2.871   3.978   2.869
12515TIP3   OH237487   5.863   0.999   0.249
12515TIP3    H137488   5.865   0.943   0.171
12515TIP3    H237489   5.842   1.086   0.216
12516TIP3   OH237490   1.993   6.546   5.333
12516TIP3    H137491   1.965   6.455   5.335
12516TIP3    H237492   1.946   6.587   5.405
12517TIP3   OH237493   6.167   7.014   3.805
12517TIP3    H137494   6.100   7.048   3.863
12517TIP3    H237495   6.160   7.068   3.726
12518TIP3   OH237496   4.127   0.539   1.978
12518TIP3    H137497   4.052   0.592   2.003
12518TIP3    H237498   4.170   0.590   1.909
12519TIP3   OH237499   7.524   4.086   1.924
12519TIP3    H137500   7.522   4.129   2.009
12519TIP3    H237501   7.591   4.017   1.934
12520TIP3   OH237502   6.720   5.281   0.935
12520TIP3    H137503   6.624   5.284   0.939
12520TIP3    H237504   6.738   5.215   0.868
12521TIP3   OH237505   0.929   3.309   5.662
12521TIP3    H137506   0.964   3.289   5.748
12521TIP3    H237507   0.953   3.400   5.647
12522TIP3   OH237508   2.407   5.457   5.754
12522TIP3    H137509   2.420   5.550   5.736
12522TIP3    H237510   2.450   5.412   5.682
12523TIP3   OH237511   6.920   1.595   6.761
12523TIP3    H137512   6.925   1.619   6.668
12523TIP3    H237513   6.944   1.502   6.763
12524TIP3   OH237514   2.730   2.394   1.182
12524TIP3    H137515   2.809   2.393   1.128
12524TIP3    H237516   2.757   2.438   1.263
12525TIP3   OH237517   0.979   1.307   3.985
12525TIP3    H137518   0.928   1.301   4.066
12525TIP3    H237519   1.034   1.385   3.997
12526TIP3   OH237520   2.748   3.017   6.634
12526TIP3    H137521   2.707   3.102   6.652
12526TIP3    H237522   2.779   3.024   6.544
12527TIP3   OH237523   6.601   1.204   0.441
12527TIP3    H137524   6.575   1.265   0.372
12527TIP3    H237525   6.680   1.243   0.479
12528TIP3   OH237526   3.377   0.325   4.192
12528TIP3    H137527   3.312   0.336   4.261
12528TIP3    H237528   3.428   0.406   4.192
12529TIP3   OH237529   5.205   2.908   0.942
12529TIP3    H137530   5.229   2.968   1.013
12529TIP3    H237531   5.118   2.937   0.914
12530TIP3   OH237532   2.672   7.498   6.184
12530TIP3    H137533   2.628   7.472   6.104
12530TIP3    H237534   2.619   7.571   6.217
12531TIP3   OH237535   2.295   5.858   1.100
12531TIP3    H137536   2.336   5.944   1.085
12531TIP3    H237537   2.203   5.871   1.079
12532TIP3   OH237538   4.033   5.916   0.332
12532TIP3    H137539   4.097   5.870   0.387
12532TIP3    H237540   4.047   5.881   0.244
12533TIP3   OH237541   0.546   5.319   2.492
12533TIP3    H137542   0.450   5.320   2.487
12533TIP3    H237543   0.568   5.226   2.501
12534TIP3   OH237544   6.171   3.460   6.401
12534TIP3    H137545   6.200   3.479   6.312
12534TIP3    H237546   6.217   3.380   6.426
12535TIP3   OH237547   5.994   6.174   3.341
12535TIP3    H137548   5.952   6.093   3.310
12535TIP3    H237549   6.031   6.213   3.262
12536TIP3   OH237550   2.663   3.173   2.492
12536TIP3    H137551   2.669   3.269   2.484
12536TIP3    H237552   2.613   3.159   2.573
12537TIP3   OH237553   0.580   5.190   3.620
12537TIP3    H137554   0.558   5.235   3.539
12537TIP3    H237555   0.591   5.260   3.684
12538TIP3   OH237556   4.072   7.514   5.716
12538TIP3    H137557   4.018   7.592   5.700
12538TIP3    H237558   4.097   7.521   5.808
12539TIP3   OH237559   0.382   5.896   4.299
12539TIP3    H137560   0.355   5.808   4.274
12539TIP3    H237561   0.371   5.898   4.394
12540TIP3   OH237562   8.235   3.395   5.237
12540TIP3    H137563   8.302   3.367   5.299
12540TIP3    H237564   8.160   3.339   5.256
12541TIP3   OH237565   4.930   3.764   6.197
12541TIP3    H137566   4.878   3.819   6.138
12541TIP3    H237567   5.012   3.749   6.150
12542TIP3   OH237568   3.062   3.838   0.662
12542TIP3    H137569   3.027   3.763   0.613
12542TIP3    H237570   3.026   3.915   0.618
12543TIP3   OH237571   3.894   3.509   2.472
12543TIP3    H137572   3.901   3.567   2.396
12543TIP3    H237573   3.918   3.564   2.546
12544TIP3   OH237574   1.913   3.217   0.667
12544TIP3    H137575   1.874   3.291   0.714
12544TIP3    H237576   2.003   3.244   0.650
12545TIP3   OH237577  -0.002   1.098   2.225
12545TIP3    H137578  -0.044   1.049   2.295
12545TIP3    H237579  -0.020   1.190   2.245
12546TIP3   OH237580   1.093   1.647  -0.027
12546TIP3    H137581   1.175   1.667  -0.071
12546TIP3    H237582   1.059   1.570  -0.074
12547TIP3   OH237583   2.682   4.993   3.354
12547TIP3    H137584   2.665   5.025   3.443
12547TIP3    H237585   2.774   5.014   3.339
12548TIP3   OH237586   5.085   5.065   4.885
12548TIP3    H137587   5.029   4.989   4.868
12548TIP3    H237588   5.040   5.138   4.843
12549TIP3   OH237589   6.468   1.250   5.013
12549TIP3    H137590   6.404   1.183   4.991
12549TIP3    H237591   6.474   1.247   5.108
12550TIP3   OH237592   7.198   5.382   5.575
12550TIP3    H137593   7.193   5.334   5.658
12550TIP3    H237594   7.143   5.331   5.515
12551TIP3   OH237595   7.427   5.088   5.557
12551TIP3    H137596   7.406   5.176   5.589
12551TIP3    H237597   7.490   5.055   5.621
12552TIP3   OH237598   0.672   5.217   4.696
12552TIP3    H137599   0.638   5.153   4.633
12552TIP3    H237600   0.718   5.164   4.761
12553TIP3   OH237601   1.118   0.694   6.639
12553TIP3    H137602   1.076   0.655   6.562
12553TIP3    H237603   1.126   0.621   6.701
12554TIP3   OH237604   0.683   4.806   1.730
12554TIP3    H137605   0.639   4.883   1.694
12554TIP3    H237606   0.731   4.840   1.806
12555TIP3   OH237607   7.136   6.264   3.908
12555TIP3    H137608   7.125   6.359   3.897
12555TIP3    H237609   7.092   6.226   3.832
12556TIP3   OH237610   7.148   5.841   2.037
12556TIP3    H137611   7.055   5.859   2.052
12556TIP3    H237612   7.159   5.847   1.942
12557TIP3   OH237613   2.213   4.128   5.243
12557TIP3    H137614   2.199   4.123   5.338
12557TIP3    H237615   2.265   4.207   5.230
12558TIP3   OH237616   3.963   2.651   3.726
12558TIP3    H137617   3.942   2.586   3.793
12558TIP3    H237618   3.953   2.735   3.770
12559TIP3   OH237619   5.810   2.481   5.721
12559TIP3    H137620   5.725   2.459   5.682
12559TIP3    H237621   5.819   2.420   5.795
12560TIP3   OH237622   0.040   1.564   5.579
12560TIP3    H137623   0.087   1.581   5.661
12560TIP3    H237624   0.107   1.535   5.518
12561TIP3   OH237625   5.528   4.883   0.149
12561TIP3    H137626   5.439   4.912   0.127
12561TIP3    H237627   5.584   4.925   0.084
12562TIP3   OH237628   7.380   7.338   0.218
12562TIP3    H137629   7.354   7.398   0.149
12562TIP3    H237630   7.385   7.252   0.175
12563TIP3   OH237631   4.911   6.117   1.574
12563TIP3    H137632   4.947   6.206   1.572
12563TIP3    H237633   4.833   6.124   1.629
12564TIP3   OH237634   5.650   4.328   2.518
12564TIP3    H137635   5.733   4.287   2.543
12564TIP3    H237636   5.675   4.391   2.450
12565TIP3   OH237637   4.391   6.746   1.217
12565TIP3    H137638   4.396   6.743   1.122
12565TIP3    H237639   4.465   6.800   1.244
12566TIP3   OH237640   7.783   5.446   6.138
12566TIP3    H137641   7.700   5.476   6.100
12566TIP3    H237642   7.841   5.438   6.063
12567TIP3   OH237643   5.215   4.614   5.673
12567TIP3    H137644   5.305   4.588   5.654
12567TIP3    H237645   5.194   4.573   5.757
12568TIP3   OH237646   1.086   6.482   0.453
12568TIP3    H137647   0.996   6.515   0.450
12568TIP3    H237648   1.141   6.560   0.451
12569TIP3   OH237649   7.514   5.786   0.404
12569TIP3    H137650   7.574   5.780   0.478
12569TIP3    H237651   7.462   5.706   0.408
12570TIP3   OH237652   6.155   3.048   3.630
12570TIP3    H137653   6.232   2.994   3.645
12570TIP3    H237654   6.123   3.021   3.544
12571TIP3   OH237655   8.145   6.196   2.903
12571TIP3    H137656   8.082   6.127   2.925
12571TIP3    H237657   8.107   6.276   2.942
12572TIP3   OH237658   7.154   4.849   6.364
12572TIP3    H137659   7.104   4.777   6.325
12572TIP3    H237660   7.098   4.926   6.354
12573TIP3   OH237661   5.791   6.263   5.782
12573TIP3    H137662   5.755   6.351   5.777
12573TIP3    H237663   5.862   6.270   5.847
12574TIP3   OH237664   1.651   3.904   2.170
12574TIP3    H137665   1.675   3.840   2.236
12574TIP3    H237666   1.734   3.941   2.140
12575TIP3   OH237667   3.808   5.121   1.654
12575TIP3    H137668   3.871   5.183   1.693
12575TIP3    H237669   3.860   5.042   1.638
12576TIP3   OH237670   7.766   5.890   4.476
12576TIP3    H137671   7.717   5.850   4.549
12576TIP3    H237672   7.838   5.829   4.460
12577TIP3   OH237673   5.935   4.003   1.975
12577TIP3    H137674   5.980   4.086   1.958
12577TIP3    H237675   6.005   3.943   2.000
12578TIP3   OH237676   5.592   0.200   1.957
12578TIP3    H137677   5.639   0.123   1.988
12578TIP3    H237678   5.563   0.244   2.037
12579TIP3   OH237679   5.494   7.528   1.372
12579TIP3    H137680   5.586   7.546   1.391
12579TIP3    H237681   5.486   7.541   1.278
12580TIP3   OH237682   7.429   3.237   6.307
12580TIP3    H137683   7.497   3.210   6.369
12580TIP3    H237684   7.397   3.155   6.269
12581TIP3   OH237685   1.678   1.523   1.682
12581TIP3    H137686   1.660   1.471   1.761
12581TIP3    H237687   1.773   1.534   1.681
12582TIP3   OH237688   2.849   3.275   5.378
12582TIP3    H137689   2.778   3.211   5.377
12582TIP3    H237690   2.839   3.323   5.295
12583TIP3   OH237691   4.815   7.714   4.417
12583TIP3    H137692   4.782   7.666   4.493
12583TIP3    H237693   4.736   7.742   4.370
12584TIP3   OH237694   4.275   5.561   0.269
12584TIP3    H137695   4.197   5.526   0.225
12584TIP3    H237696   4.241   5.607   0.345
12585TIP3   OH237697   3.320   6.904   2.211
12585TIP3    H137698   3.285   6.822   2.246
12585TIP3    H237699   3.374   6.877   2.137
12586TIP3   OH237700   1.880   3.757   1.123
12586TIP3    H137701   1.891   3.685   1.062
12586TIP3    H237702   1.961   3.759   1.174
12587TIP3   OH237703   4.187   7.145   4.079
12587TIP3    H137704   4.247   7.086   4.125
12587TIP3    H237705   4.106   7.095   4.072
12588TIP3   OH237706   6.752   0.115   2.598
12588TIP3    H137707   6.741   0.092   2.690
12588TIP3    H237708   6.667   0.152   2.572
12589TIP3   OH237709   5.785   2.468   5.072
12589TIP3    H137710   5.832   2.459   5.155
12589TIP3    H237711   5.833   2.535   5.024
12590TIP3   OH237712   5.691   4.866   0.891
12590TIP3    H137713   5.780   4.834   0.874
12590TIP3    H237714   5.635   4.789   0.878
12591TIP3   OH237715   3.152   3.038   6.675
12591TIP3    H137716   3.103   3.025   6.594
12591TIP3    H237717   3.113   2.977   6.738
12592TIP3   OH237718   3.997   5.414   1.470
12592TIP3    H137719   3.920   5.378   1.425
12592TIP3    H237720   4.071   5.373   1.426
12593TIP3   OH237721   1.458   7.643   5.961
12593TIP3    H137722   1.448   7.735   5.986
12593TIP3    H237723   1.378   7.601   5.993
12594TIP3   OH237724   4.797   5.609   0.231
12594TIP3    H137725   4.774   5.560   0.310
12594TIP3    H237726   4.811   5.699   0.261
12595TIP3   OH237727   8.017   7.465   5.825
12595TIP3    H137728   8.038   7.441   5.734
12595TIP3    H237729   8.100   7.490   5.863
12596TIP3   OH237730   6.087   3.250   4.724
12596TIP3    H137731   6.009   3.250   4.669
12596TIP3    H237732   6.155   3.210   4.669
12597TIP3   OH237733   7.194   1.604   3.568
12597TIP3    H137734   7.240   1.541   3.623
12597TIP3    H237735   7.106   1.567   3.557
12598TIP3   OH237736   1.433   7.543   4.445
12598TIP3    H137737   1.446   7.449   4.450
12598TIP3    H237738   1.443   7.574   4.535
12599TIP3   OH237739   6.278   3.886   5.443
12599TIP3    H137740   6.275   3.791   5.456
12599TIP3    H237741   6.365   3.902   5.407
12600TIP3   OH237742   0.631   3.546   6.334
12600TIP3    H137743   0.551   3.566   6.285
12600TIP3    H237744   0.693   3.613   6.306
12601TIP3   OH237745   6.724   6.003   0.840
12601TIP3    H137746   6.697   5.954   0.918
12601TIP3    H237747   6.694   6.093   0.857
12602TIP3   OH237748   3.192   6.263   0.129
12602TIP3    H137749   3.139   6.286   0.052
12602TIP3    H237750   3.144   6.301   0.203
12603TIP3   OH237751   1.625   3.801   6.169
12603TIP3    H137752   1.707   3.753   6.181
12603TIP3    H237753   1.579   3.752   6.100
12604TIP3   OH237754   3.585   1.425   6.349
12604TIP3    H137755   3.666   1.396   6.308
12604TIP3    H237756   3.556   1.350   6.400
12605TIP3   OH237757   7.899   0.376   5.241
12605TIP3    H137758   7.891   0.467   5.213
12605TIP3    H237759   7.932   0.381   5.331
12606TIP3   OH237760   7.365   0.407   4.447
12606TIP3    H137761   7.281   0.437   4.412
12606TIP3    H237762   7.381   0.325   4.401
12607TIP3   OH237763   0.610   2.584   0.480
12607TIP3    H137764   0.695   2.540   0.484
12607TIP3    H237765   0.549   2.522   0.519
12608TIP3   OH237766   2.687   1.685   2.516
12608TIP3    H137767   2.749   1.654   2.582
12608TIP3    H237768   2.731   1.669   2.432
12609TIP3   OH237769   3.467   4.700   4.736
12609TIP3    H137770   3.417   4.734   4.662
12609TIP3    H237771   3.401   4.665   4.795
12610TIP3   OH237772   8.150   1.844   3.092
12610TIP3    H137773   8.219   1.910   3.100
12610TIP3    H237774   8.072   1.894   3.069
12611TIP3   OH237775   7.114   0.878   3.601
12611TIP3    H137776   7.031   0.922   3.616
12611TIP3    H237777   7.173   0.947   3.570
12612TIP3   OH237778   4.107   6.399   1.335
12612TIP3    H137779   4.150   6.335   1.278
12612TIP3    H237780   4.042   6.348   1.384
12613TIP3   OH237781   7.833   7.091   4.962
12613TIP3    H137782   7.818   7.174   4.915
12613TIP3    H237783   7.866   7.032   4.895
12614TIP3   OH237784   2.635   5.181   5.396
12614TIP3    H137785   2.629   5.225   5.312
12614TIP3    H237786   2.689   5.239   5.450
12615TIP3   OH237787   0.227   4.180   2.659
12615TIP3    H137788   0.285   4.241   2.704
12615TIP3    H237789   0.247   4.191   2.566
12616TIP3   OH237790   5.911   1.755   0.955
12616TIP3    H137791   5.917   1.800   1.039
12616TIP3    H237792   5.927   1.823   0.890
12617TIP3   OH237793   1.744   1.089   2.823
12617TIP3    H137794   1.787   1.079   2.738
12617TIP3    H237795   1.728   1.000   2.852
12618TIP3   OH237796   5.175   4.283   5.763
12618TIP3    H137797   5.137   4.319   5.843
12618TIP3    H237798   5.255   4.239   5.792
12619TIP3   OH237799   1.396   1.938   3.145
12619TIP3    H137800   1.328   1.942   3.212
12619TIP3    H237801   1.359   1.884   3.075
12620TIP3   OH237802   6.144   1.333   0.959
12620TIP3    H137803   6.092   1.412   0.956
12620TIP3    H237804   6.084   1.265   0.991
12621TIP3   OH237805   4.205   6.872   3.573
12621TIP3    H137806   4.264   6.910   3.638
12621TIP3    H237807   4.220   6.923   3.494
12622TIP3   OH237808   1.802   1.995   0.305
12622TIP3    H137809   1.840   2.021   0.221
12622TIP3    H237810   1.710   2.019   0.298
12623TIP3   OH237811   2.902   5.627   5.429
12623TIP3    H137812   2.838   5.692   5.397
12623TIP3    H237813   2.902   5.638   5.524
12624TIP3   OH237814   3.030   4.954   0.012
12624TIP3    H137815   3.016   4.861   0.032
12624TIP3    H237816   3.081   4.986   0.086
12625TIP3   OH237817   7.600   1.976   1.164
12625TIP3    H137818   7.609   1.994   1.257
12625TIP3    H237819   7.572   2.059   1.126
12626TIP3   OH237820   1.612   2.475   5.075
12626TIP3    H137821   1.565   2.393   5.055
12626TIP3    H237822   1.667   2.490   4.998
12627TIP3   OH237823   6.319   2.004   1.452
12627TIP3    H137824   6.358   1.947   1.386
12627TIP3    H237825   6.393   2.033   1.506
12628TIP3   OH237826   0.376   6.982   6.622
12628TIP3    H137827   0.311   6.924   6.662
12628TIP3    H237828   0.430   6.925   6.568
12629TIP3   OH237829   6.212   5.089   4.314
12629TIP3    H137830   6.280   5.140   4.270
12629TIP3    H237831   6.177   5.149   4.380
12630TIP3   OH237832   4.911   2.520   5.707
12630TIP3    H137833   4.886   2.433   5.738
12630TIP3    H237834   4.930   2.509   5.614
12631TIP3   OH237835   3.489   3.280   5.008
12631TIP3    H137836   3.397   3.267   4.983
12631TIP3    H237837   3.485   3.298   5.102
12632TIP3   OH237838   2.801   1.281   2.455
12632TIP3    H137839   2.810   1.215   2.524
12632TIP3    H237840   2.765   1.233   2.381
12633TIP3   OH237841   0.458   2.214   0.672
12633TIP3    H137842   0.547   2.218   0.707
12633TIP3    H237843   0.406   2.175   0.742
12634TIP3   OH237844   2.231   6.786   0.299
12634TIP3    H137845   2.230   6.823   0.211
12634TIP3    H237846   2.178   6.707   0.292
12635TIP3   OH237847   5.571   0.227   5.614
12635TIP3    H137848   5.584   0.133   5.606
12635TIP3    H237849   5.598   0.248   5.704
12636TIP3   OH237850   2.259   0.016   2.416
12636TIP3    H137851   2.306   0.053   2.491
12636TIP3    H237852   2.227  -0.069   2.447
12637TIP3   OH237853   6.738   0.513   2.077
12637TIP3    H137854   6.741   0.429   2.122
12637TIP3    H237855   6.650   0.546   2.094
12638TIP3   OH237856   1.119   3.514   2.860
12638TIP3    H137857   1.086   3.562   2.785
12638TIP3    H237858   1.041   3.499   2.915
12639TIP3   OH237859   7.888   2.561   0.068
12639TIP3    H137860   7.976   2.598   0.074
12639TIP3    H237861   7.832   2.636   0.048
12640TIP3   OH237862   3.720   1.660   2.937
12640TIP3    H137863   3.629   1.667   2.964
12640TIP3    H237864   3.726   1.715   2.858
12641TIP3   OH237865   4.911   2.037   0.480
12641TIP3    H137866   4.951   1.951   0.494
12641TIP3    H237867   4.932   2.086   0.560
12642TIP3   OH237868   3.447   6.166   0.135
12642TIP3    H137869   3.379   6.234   0.141
12642TIP3    H237870   3.451   6.130   0.224
12643TIP3   OH237871   7.149   3.254   6.467
12643TIP3    H137872   7.244   3.267   6.478
12643TIP3    H237873   7.142   3.173   6.417
12644TIP3   OH237874   4.424   2.433   6.175
12644TIP3    H137875   4.374   2.417   6.255
12644TIP3    H237876   4.419   2.527   6.161
12645TIP3   OH237877   5.003   3.712   1.158
12645TIP3    H137878   4.949   3.776   1.204
12645TIP3    H237879   5.093   3.744   1.171
12646TIP3   OH237880   6.240   6.916   2.032
12646TIP3    H137881   6.193   6.986   2.077
12646TIP3    H237882   6.328   6.952   2.018
12647TIP3   OH237883   7.011   6.214   2.795
12647TIP3    H137884   7.100   6.182   2.807
12647TIP3    H237885   7.007   6.240   2.703
12648TIP3   OH237886   5.269   2.146   5.278
12648TIP3    H137887   5.290   2.095   5.356
12648TIP3    H237888   5.188   2.106   5.245
12649TIP3   OH237889   1.814   7.737   4.492
12649TIP3    H137890   1.733   7.773   4.457
12649TIP3    H237891   1.856   7.696   4.416
12650TIP3   OH237892   5.130   5.923   2.480
12650TIP3    H137893   5.052   5.869   2.493
12650TIP3    H237894   5.200   5.874   2.524
12651TIP3   OH237895   2.898   6.596   0.844
12651TIP3    H137896   2.807   6.573   0.825
12651TIP3    H237897   2.897   6.691   0.855
12652TIP3   OH237898   0.087   6.348   2.888
12652TIP3    H137899   0.015   6.288   2.869
12652TIP3    H237900   0.103   6.337   2.982
12653TIP3   OH237901   4.153   2.676   5.681
12653TIP3    H137902   4.103   2.716   5.753
12653TIP3    H237903   4.125   2.725   5.604
12654TIP3   OH237904   4.048   1.127   6.541
12654TIP3    H137905   4.016   1.039   6.523
12654TIP3    H237906   3.971   1.183   6.532
12655TIP3   OH237907   5.697   5.268   2.630
12655TIP3    H137908   5.755   5.223   2.569
12655TIP3    H237909   5.742   5.349   2.650
12656TIP3   OH237910   3.864   7.507   2.092
12656TIP3    H137911   3.849   7.569   2.164
12656TIP3    H237912   3.910   7.559   2.026
12657TIP3   OH237913   0.853   3.438   1.142
12657TIP3    H137914   0.944   3.409   1.152
12657TIP3    H237915   0.802   3.358   1.151
12658TIP3   OH237916   6.062   3.626   2.759
12658TIP3    H137917   6.135   3.638   2.821
12658TIP3    H237918   6.003   3.566   2.803
12659TIP3   OH237919   5.868   0.063   3.278
12659TIP3    H137920   5.866   0.080   3.372
12659TIP3    H237921   5.780   0.032   3.257
12660TIP3   OH237922   5.192   1.192   5.417
12660TIP3    H137923   5.153   1.248   5.350
12660TIP3    H237924   5.140   1.209   5.496
12661TIP3   OH237925   2.576   2.413   3.506
12661TIP3    H137926   2.671   2.424   3.507
12661TIP3    H237927   2.549   2.447   3.420
12662TIP3   OH237928   6.619   3.303   4.703
12662TIP3    H137929   6.618   3.362   4.778
12662TIP3    H237930   6.644   3.358   4.629
12663TIP3   OH237931   5.158   3.075   4.388
12663TIP3    H137932   5.181   2.983   4.373
12663TIP3    H237933   5.178   3.090   4.480
12664TIP3   OH237934   6.212   2.227   1.322
12664TIP3    H137935   6.253   2.146   1.351
12664TIP3    H237936   6.123   2.201   1.297
12665TIP3   OH237937   3.545   0.466   3.253
12665TIP3    H137938   3.472   0.431   3.202
12665TIP3    H237939   3.547   0.411   3.331
12666TIP3   OH237940   1.555   6.624   5.907
12666TIP3    H137941   1.627   6.591   5.961
12666TIP3    H237942   1.483   6.638   5.968
12667TIP3   OH237943   7.584   2.064   0.427
12667TIP3    H137944   7.496   2.065   0.388
12667TIP3    H237945   7.603   2.156   0.444
12668TIP3   OH237946   7.903   7.560   3.352
12668TIP3    H137947   7.911   7.630   3.287
12668TIP3    H237948   7.856   7.600   3.425
12669TIP3   OH237949   4.595   1.738   6.384
12669TIP3    H137950   4.668   1.799   6.370
12669TIP3    H237951   4.600   1.676   6.311
12670TIP3   OH237952   6.259   1.433   3.493
12670TIP3    H137953   6.226   1.483   3.419
12670TIP3    H237954   6.249   1.492   3.568
12671TIP3   OH237955   2.358   2.340   4.364
12671TIP3    H137956   2.288   2.321   4.301
12671TIP3    H237957   2.314   2.384   4.436
12672TIP3   OH237958   7.579   6.460   2.647
12672TIP3    H137959   7.652   6.403   2.621
12672TIP3    H237960   7.621   6.532   2.694
12673TIP3   OH237961   3.479   3.394   0.958
12673TIP3    H137962   3.506   3.478   0.921
12673TIP3    H237963   3.493   3.332   0.887
12674TIP3   OH237964   7.310   1.348   1.174
12674TIP3    H137965   7.228   1.307   1.203
12674TIP3    H237966   7.297   1.365   1.081
12675TIP3   OH237967   1.305   1.714   5.206
12675TIP3    H137968   1.352   1.658   5.145
12675TIP3    H237969   1.215   1.680   5.205
12676TIP3   OH237970   4.430   4.110   5.992
12676TIP3    H137971   4.373   4.050   6.039
12676TIP3    H237972   4.442   4.184   6.052
12677TIP3   OH237973   6.929   6.259   3.683
12677TIP3    H137974   6.877   6.256   3.763
12677TIP3    H237975   6.924   6.350   3.654
12678TIP3   OH237976   7.742   5.182   5.765
12678TIP3    H137977   7.772   5.183   5.674
12678TIP3    H237978   7.705   5.094   5.777
12679TIP3   OH237979   5.841   1.220   4.595
12679TIP3    H137980   5.776   1.188   4.658
12679TIP3    H237981   5.819   1.176   4.513
12680TIP3   OH237982   6.920   5.271   3.898
12680TIP3    H137983   6.931   5.346   3.840
12680TIP3    H237984   6.966   5.296   3.979
12681TIP3   OH237985   4.274   7.003   1.968
12681TIP3    H137986   4.319   7.082   1.939
12681TIP3    H237987   4.327   6.931   1.933
12682TIP3   OH237988   3.143   7.050   2.062
12682TIP3    H137989   3.210   6.989   2.092
12682TIP3    H237990   3.100   7.005   1.989
12683TIP3   OH237991   4.140   5.734   3.811
12683TIP3    H137992   4.148   5.728   3.716
12683TIP3    H237993   4.164   5.646   3.842
12684TIP3   OH237994   6.951   4.485   2.166
12684TIP3    H137995   7.021   4.495   2.231
12684TIP3    H237996   6.886   4.550   2.190
12685TIP3   OH237997   5.838   4.600   2.964
12685TIP3    H137998   5.838   4.674   3.026
12685TIP3    H237999   5.828   4.523   3.019
12686TIP3   OH238000   5.681   2.127   5.637
12686TIP3    H138001   5.763   2.175   5.650
12686TIP3    H238002   5.708   2.044   5.597
12687TIP3   OH238003   1.687   1.481   1.409
12687TIP3    H138004   1.751   1.536   1.364
12687TIP3    H238005   1.671   1.525   1.492
12688TIP3   OH238006   3.989   4.975   4.049
12688TIP3    H138007   3.947   4.893   4.075
12688TIP3    H238008   3.957   5.039   4.113
12689TIP3   OH238009   0.225   6.031   6.391
12689TIP3    H138010   0.139   6.016   6.430
12689TIP3    H238011   0.211   6.102   6.328
12690TIP3   OH238012   7.868   6.556   5.709
12690TIP3    H138013   7.866   6.651   5.721
12690TIP3    H238014   7.867   6.521   5.798
12691TIP3   OH238015   1.141   3.618   0.687
12691TIP3    H138016   1.201   3.686   0.716
12691TIP3    H238017   1.168   3.540   0.735
12692TIP3   OH238018   3.766   4.037   0.014
12692TIP3    H138019   3.720   4.000   0.090
12692TIP3    H238020   3.767   4.131   0.032
12693TIP3   OH238021   3.218   5.555   4.746
12693TIP3    H138022   3.272   5.581   4.671
12693TIP3    H238023   3.129   5.552   4.711
12694TIP3   OH238024   3.628   5.942   2.366
12694TIP3    H138025   3.712   5.957   2.322
12694TIP3    H238026   3.563   5.966   2.300
12695TIP3   OH238027   3.191   0.777   5.644
12695TIP3    H138028   3.102   0.786   5.609
12695TIP3    H238029   3.189   0.827   5.726
12696TIP3   OH238030   6.530   1.335   6.643
12696TIP3    H138031   6.530   1.430   6.656
12696TIP3    H238032   6.459   1.303   6.698
12697TIP3   OH238033   7.834   7.425   1.637
12697TIP3    H138034   7.872   7.370   1.568
12697TIP3    H238035   7.860   7.383   1.719
12698TIP3   OH238036   2.409   1.523   2.590
12698TIP3    H138037   2.485   1.524   2.647
12698TIP3    H238038   2.444   1.545   2.503
12699TIP3   OH238039   4.252   4.620   0.455
12699TIP3    H138040   4.317   4.579   0.512
12699TIP3    H238041   4.260   4.714   0.475
12700TIP3   OH238042   6.863   2.262   2.174
12700TIP3    H138043   6.777   2.266   2.134
12700TIP3    H238044   6.874   2.170   2.198
12701TIP3   OH238045   8.179   0.727   3.742
12701TIP3    H138046   8.173   0.803   3.801
12701TIP3    H238047   8.208   0.763   3.659
12702TIP3   OH238048   3.206   2.033   5.978
12702TIP3    H138049   3.227   2.074   5.894
12702TIP3    H238050   3.133   2.083   6.013
12703TIP3   OH238051   4.098   7.825   3.223
12703TIP3    H138052   4.150   7.849   3.147
12703TIP3    H238053   4.138   7.873   3.295
12704TIP3   OH238054   6.181   5.011   1.344
12704TIP3    H138055   6.268   5.014   1.385
12704TIP3    H238056   6.164   4.917   1.332
12705TIP3   OH238057   0.900   0.404   1.737
12705TIP3    H138058   0.970   0.438   1.681
12705TIP3    H238059   0.849   0.348   1.680
12706TIP3   OH238060   6.673   2.004   4.621
12706TIP3    H138061   6.602   1.971   4.566
12706TIP3    H238062   6.659   1.962   4.706
12707TIP3   OH238063   0.864   1.331   3.746
12707TIP3    H138064   0.901   1.320   3.834
12707TIP3    H238065   0.790   1.270   3.743
12708TIP3   OH238066   1.608   4.526   1.240
12708TIP3    H138067   1.594   4.480   1.323
12708TIP3    H238068   1.701   4.514   1.221
12709TIP3   OH238069   6.913   7.611   2.392
12709TIP3    H138070   6.960   7.652   2.465
12709TIP3    H238071   6.981   7.564   2.343
12710TIP3   OH238072   6.604   5.517   1.805
12710TIP3    H138073   6.676   5.455   1.791
12710TIP3    H238074   6.616   5.547   1.895
12711TIP3   OH238075   7.381   3.510   5.620
12711TIP3    H138076   7.295   3.471   5.606
12711TIP3    H238077   7.364   3.591   5.668
12712TIP3   OH238078   3.192   2.056   3.474
12712TIP3    H138079   3.262   1.995   3.453
12712TIP3    H238080   3.211   2.134   3.421
12713TIP3   OH238081   7.646   3.716   1.286
12713TIP3    H138082   7.740   3.713   1.303
12713TIP3    H238083   7.640   3.728   1.191
12714TIP3   OH238084   3.187   5.961   2.796
12714TIP3    H138085   3.241   5.946   2.873
12714TIP3    H238086   3.236   6.026   2.745
12715TIP3   OH238087   5.520   6.849   5.454
12715TIP3    H138088   5.529   6.931   5.503
12715TIP3    H238089   5.570   6.863   5.373
12716TIP3   OH238090   4.809   7.653   5.659
12716TIP3    H138091   4.904   7.666   5.654
12716TIP3    H238092   4.783   7.632   5.569
12717TIP3   OH238093   4.187   1.925   5.491
12717TIP3    H138094   4.154   1.940   5.580
12717TIP3    H238095   4.121   1.870   5.450
12718TIP3   OH238096   1.283   7.732   3.975
12718TIP3    H138097   1.281   7.674   4.050
12718TIP3    H238098   1.358   7.790   3.991
12719TIP3   OH238099   0.598   6.859   5.695
12719TIP3    H138100   0.578   6.780   5.745
12719TIP3    H238101   0.682   6.889   5.731
12720TIP3   OH238102   2.884   4.371   5.646
12720TIP3    H138103   2.857   4.303   5.708
12720TIP3    H238104   2.900   4.448   5.701
12721TIP3   OH238105   1.190   3.633   4.787
12721TIP3    H138106   1.097   3.614   4.793
12721TIP3    H238107   1.213   3.672   4.871
12722TIP3   OH238108   1.663   4.617   3.036
12722TIP3    H138109   1.743   4.566   3.046
12722TIP3    H238110   1.597   4.552   3.010
12723TIP3   OH238111   2.802   7.392   1.146
12723TIP3    H138112   2.837   7.476   1.175
12723TIP3    H238113   2.823   7.388   1.053
12724TIP3   OH238114   6.898   3.242   5.933
12724TIP3    H138115   6.810   3.278   5.931
12724TIP3    H238116   6.896   3.176   6.002
12725TIP3   OH238117   2.384   5.973   2.885
12725TIP3    H138118   2.445   5.904   2.860
12725TIP3    H238119   2.412   5.999   2.973
12726TIP3   OH238120   6.536   2.204   3.999
12726TIP3    H138121   6.621   2.162   4.017
12726TIP3    H238122   6.487   2.193   4.080
12727TIP3   OH238123   1.919   1.369   3.152
12727TIP3    H138124   2.003   1.359   3.197
12727TIP3    H238125   1.860   1.308   3.198
12728TIP3   OH238126   7.191   7.319   4.399
12728TIP3    H138127   7.098   7.297   4.392
12728TIP3    H238128   7.236   7.237   4.379
12729TIP3   OH238129   1.837   5.346   4.189
12729TIP3    H138130   1.837   5.272   4.129
12729TIP3    H238131   1.781   5.412   4.147
12730TIP3   OH238132   2.628   4.404   4.182
12730TIP3    H138133   2.660   4.470   4.120
12730TIP3    H238134   2.563   4.450   4.235
12731TIP3   OH238135   3.618   3.350   2.702
12731TIP3    H138136   3.540   3.345   2.756
12731TIP3    H238137   3.589   3.393   2.621
12732TIP3   OH238138   1.403   7.127   0.766
12732TIP3    H138139   1.367   7.168   0.688
12732TIP3    H238140   1.326   7.101   0.817
12733TIP3   OH238141   2.152   6.576   1.583
12733TIP3    H138142   2.222   6.625   1.540
12733TIP3    H238143   2.071   6.616   1.550
12734TIP3   OH238144   1.060   6.594   0.161
12734TIP3    H138145   1.048   6.597   0.256
12734TIP3    H238146   1.144   6.637   0.146
12735TIP3   OH238147   4.223   7.187   3.600
12735TIP3    H138148   4.273   7.268   3.593
12735TIP3    H238149   4.219   7.154   3.510
12736TIP3   OH238150   1.031   7.718   4.683
12736TIP3    H138151   1.110   7.668   4.704
12736TIP3    H238152   0.967   7.651   4.658
12737TIP3   OH238153   7.872   4.050   5.509
12737TIP3    H138154   7.791   4.053   5.561
12737TIP3    H238155   7.850   4.097   5.429
12738TIP3   OH238156   2.028   6.348   4.875
12738TIP3    H138157   2.055   6.268   4.920
12738TIP3    H238158   2.020   6.413   4.945
12739TIP3   OH238159   2.206   5.886   4.093
12739TIP3    H138160   2.111   5.879   4.088
12739TIP3    H238161   2.227   5.971   4.056
12740TIP3   OH238162   2.584   2.553   5.742
12740TIP3    H138163   2.585   2.611   5.818
12740TIP3    H238164   2.596   2.612   5.667
12741TIP3   OH238165   0.239   7.637   2.417
12741TIP3    H138166   0.287   7.563   2.380
12741TIP3    H238167   0.209   7.605   2.503
12742TIP3   OH238168   2.415   7.501   1.370
12742TIP3    H138169   2.368   7.419   1.358
12742TIP3    H238170   2.461   7.516   1.288
12743TIP3   OH238171   5.412   7.174   6.440
12743TIP3    H138172   5.350   7.239   6.407
12743TIP3    H238173   5.462   7.148   6.362
12744TIP3   OH238174   0.330   7.084   0.828
12744TIP3    H138175   0.344   6.992   0.805
12744TIP3    H238176   0.249   7.108   0.784
12745TIP3   OH238177   7.926   0.486   6.640
12745TIP3    H138178   7.954   0.468   6.550
12745TIP3    H238179   7.899   0.400   6.674
12746TIP3   OH238180   8.099   7.125   5.315
12746TIP3    H138181   8.182   7.091   5.283
12746TIP3    H238182   8.081   7.076   5.395
12747TIP3   OH238183   3.863   3.009   0.730
12747TIP3    H138184   3.846   3.035   0.639
12747TIP3    H238185   3.788   3.041   0.779
12748TIP3   OH238186   6.978   2.237   1.521
12748TIP3    H138187   6.957   2.152   1.561
12748TIP3    H238188   7.006   2.292   1.595
12749TIP3   OH238189   6.951   6.422   3.016
12749TIP3    H138190   6.990   6.346   2.973
12749TIP3    H238191   6.858   6.419   2.993
12750TIP3   OH238192   8.188   5.267   0.530
12750TIP3    H138193   8.273   5.310   0.519
12750TIP3    H238194   8.132   5.307   0.463
12751TIP3   OH238195   1.108   1.968   2.051
12751TIP3    H138196   1.145   1.993   2.136
12751TIP3    H238197   1.183   1.965   1.992
12752TIP3   OH238198   0.755   4.941   4.347
12752TIP3    H138199   0.741   4.875   4.415
12752TIP3    H238200   0.848   4.932   4.324
12753TIP3   OH238201   4.211   5.831   2.048
12753TIP3    H138202   4.130   5.779   2.048
12753TIP3    H238203   4.216   5.867   2.136
12754TIP3   OH238204   1.226   7.166   0.525
12754TIP3    H138205   1.167   7.241   0.524
12754TIP3    H238206   1.198   7.112   0.451
12755TIP3   OH238207   0.721   0.313   6.300
12755TIP3    H138208   0.807   0.271   6.307
12755TIP3    H238209   0.662   0.243   6.275
12756TIP3   OH238210   1.466   3.357   0.653
12756TIP3    H138211   1.541   3.389   0.703
12756TIP3    H238212   1.481   3.263   0.644
12757TIP3   OH238213   1.904   7.836   0.793
12757TIP3    H138214   1.843   7.888   0.740
12757TIP3    H238215   1.968   7.803   0.730
12758TIP3   OH238216   4.877   3.024   3.732
12758TIP3    H138217   4.803   3.078   3.704
12758TIP3    H238218   4.845   2.979   3.811
12759TIP3   OH238219   5.735   7.070   6.356
12759TIP3    H138220   5.726   7.015   6.434
12759TIP3    H238221   5.654   7.057   6.307
12760TIP3   OH238222   2.308   3.913   0.027
12760TIP3    H138223   2.317   3.963   0.108
12760TIP3    H238224   2.229   3.861   0.039
12761TIP3   OH238225   2.760   5.361   5.548
12761TIP3    H138226   2.806   5.304   5.609
12761TIP3    H238227   2.804   5.446   5.556
12762TIP3   OH238228   1.580   3.828   1.372
12762TIP3    H138229   1.517   3.763   1.340
12762TIP3    H238230   1.630   3.853   1.294
12763TIP3   OH238231   7.428   5.222   4.527
12763TIP3    H138232   7.426   5.231   4.432
12763TIP3    H238233   7.521   5.209   4.548
12764TIP3   OH238234   6.737   6.896   0.733
12764TIP3    H138235   6.748   6.936   0.647
12764TIP3    H238236   6.682   6.819   0.717
12765TIP3   OH238237   6.328   3.048   1.939
12765TIP3    H138238   6.410   3.093   1.959
12765TIP3    H238239   6.287   3.101   1.870
12766TIP3   OH238240   6.717   6.798   3.833
12766TIP3    H138241   6.649   6.732   3.818
12766TIP3    H238242   6.674   6.866   3.885
12767TIP3   OH238243   1.281   0.956   5.236
12767TIP3    H138244   1.369   0.994   5.230
12767TIP3    H238245   1.270   0.909   5.154
12768TIP3   OH238246   0.535   2.170   0.099
12768TIP3    H138247   0.521   2.079   0.124
12768TIP3    H238248   0.447   2.205   0.085
12769TIP3   OH238249   3.285   5.790   5.428
12769TIP3    H138250   3.192   5.800   5.404
12769TIP3    H238251   3.330   5.857   5.377
12770TIP3   OH238252   7.825   4.341   4.545
12770TIP3    H138253   7.876   4.291   4.609
12770TIP3    H238254   7.891   4.384   4.491
12771TIP3   OH238255   3.932   1.757   5.462
12771TIP3    H138256   3.846   1.746   5.502
12771TIP3    H238257   3.981   1.679   5.489
12772TIP3   OH238258   0.189   3.243   1.365
12772TIP3    H138259   0.153   3.210   1.283
12772TIP3    H238260   0.114   3.286   1.408
12773TIP3   OH238261   7.785   2.181   6.402
12773TIP3    H138262   7.848   2.113   6.380
12773TIP3    H238263   7.764   2.223   6.319
12774TIP3   OH238264   1.872   3.309   3.602
12774TIP3    H138265   1.854   3.222   3.638
12774TIP3    H238266   1.810   3.367   3.646
12775TIP3   OH238267   4.348   4.840   4.387
12775TIP3    H138268   4.407   4.905   4.350
12775TIP3    H238269   4.278   4.891   4.428
12776TIP3   OH238270   5.137   4.504   2.797
12776TIP3    H138271   5.159   4.465   2.712
12776TIP3    H238272   5.145   4.598   2.782
12777TIP3   OH238273   6.292   5.432   2.518
12777TIP3    H138274   6.248   5.446   2.434
12777TIP3    H238275   6.318   5.339   2.516
12778TIP3   OH238276   3.013   3.723   5.596
12778TIP3    H138277   2.980   3.686   5.514
12778TIP3    H238278   3.097   3.761   5.573
12779TIP3   OH238279   7.255   3.587   0.580
12779TIP3    H138280   7.166   3.560   0.606
12779TIP3    H238281   7.294   3.508   0.543
12780TIP3   OH238282   1.414   7.393   2.680
12780TIP3    H138283   1.319   7.386   2.674
12780TIP3    H238284   1.429   7.452   2.754
12781TIP3   OH238285   4.879   2.178   4.934
12781TIP3    H138286   4.886   2.261   4.887
12781TIP3    H238287   4.856   2.114   4.866
12782TIP3   OH238288   0.903   6.703   4.153
12782TIP3    H138289   0.948   6.618   4.151
12782TIP3    H238290   0.865   6.712   4.066
12783TIP3   OH238291   7.451   1.834   0.059
12783TIP3    H138292   7.543   1.841   0.087
12783TIP3    H238293   7.427   1.743   0.076
12784TIP3   OH238294   6.782   3.724   0.239
12784TIP3    H138295   6.823   3.800   0.279
12784TIP3    H238296   6.697   3.716   0.282
12785TIP3   OH238297   1.043   4.971   0.423
12785TIP3    H138298   1.028   4.940   0.512
12785TIP3    H238299   0.996   4.908   0.368
12786TIP3   OH238300   1.701   5.987   1.754
12786TIP3    H138301   1.618   5.939   1.756
12786TIP3    H238302   1.676   6.078   1.739
12787TIP3   OH238303   8.016   1.401   0.423
12787TIP3    H138304   7.953   1.332   0.444
12787TIP3    H238305   7.998   1.470   0.487
12788TIP3   OH238306   0.501   2.985   0.267
12788TIP3    H138307   0.508   2.991   0.362
12788TIP3    H238308   0.407   2.970   0.251
12789TIP3   OH238309   4.097   2.166   2.931
12789TIP3    H138310   4.080   2.176   3.024
12789TIP3    H238311   4.149   2.243   2.907
12790TIP3   OH238312   4.792   5.804   4.281
12790TIP3    H138313   4.812   5.710   4.282
12790TIP3    H238314   4.788   5.826   4.188
12791TIP3   OH238315   7.076   3.671   3.853
12791TIP3    H138316   7.063   3.737   3.922
12791TIP3    H238317   7.071   3.720   3.771
12792TIP3   OH238318   3.502   3.846   2.299
12792TIP3    H138319   3.502   3.845   2.395
12792TIP3    H238320   3.499   3.938   2.276
12793TIP3   OH238321   4.167   5.417   0.033
12793TIP3    H138322   4.256   5.385   0.016
12793TIP3    H238323   4.135   5.363   0.105
12794TIP3   OH238324   1.768   6.022   0.161
12794TIP3    H138325   1.822   6.096   0.135
12794TIP3    H238326   1.687   6.033   0.112
12795TIP3   OH238327   6.971   7.749   1.421
12795TIP3    H138328   6.880   7.778   1.418
12795TIP3    H238329   7.018   7.820   1.464
12796TIP3   OH238330   6.234   2.528   1.308
12796TIP3    H138331   6.309   2.471   1.327
12796TIP3    H238332   6.168   2.469   1.272
12797TIP3   OH238333   6.780   0.172   5.140
12797TIP3    H138334   6.823   0.256   5.124
12797TIP3    H238335   6.766   0.170   5.234
12798TIP3   OH238336   5.981   2.124   5.136
12798TIP3    H138337   5.981   2.046   5.080
12798TIP3    H238338   5.952   2.195   5.079
12799TIP3   OH238339   6.687   1.716   6.288
12799TIP3    H138340   6.730   1.758   6.214
12799TIP3    H238341   6.694   1.622   6.270
12800TIP3   OH238342   5.169   6.765   5.580
12800TIP3    H138343   5.113   6.723   5.515
12800TIP3    H238344   5.108   6.801   5.645
12801TIP3   OH238345   6.151   1.034   0.481
12801TIP3    H138346   6.088   1.092   0.438
12801TIP3    H238347   6.229   1.038   0.426
12802TIP3   OH238348   8.302   5.606   4.101
12802TIP3    H138349   8.260   5.570   4.023
12802TIP3    H238350   8.230   5.647   4.150
12803TIP3   OH238351   1.211   4.788   5.708
12803TIP3    H138352   1.134   4.814   5.658
12803TIP3    H238353   1.206   4.841   5.788
12804TIP3   OH238354   6.410   5.872   3.314
12804TIP3    H138355   6.385   5.964   3.320
12804TIP3    H238356   6.506   5.874   3.313
12805TIP3   OH238357   1.054   4.552   5.984
12805TIP3    H138358   1.105   4.478   5.949
12805TIP3    H238359   1.116   4.624   5.989
12806TIP3   OH238360   3.825   4.227   4.419
12806TIP3    H138361   3.774   4.303   4.392
12806TIP3    H238362   3.849   4.246   4.510
12807TIP3   OH238363   5.251   7.239   3.943
12807TIP3    H138364   5.283   7.204   3.860
12807TIP3    H238365   5.270   7.333   3.939
12808TIP3   OH238366   6.173   3.379   0.374
12808TIP3    H138367   6.242   3.387   0.308
12808TIP3    H238368   6.149   3.470   0.395
12809TIP3   OH238369   6.228   2.207   6.440
12809TIP3    H138370   6.310   2.223   6.488
12809TIP3    H238371   6.256   2.186   6.351
12810TIP3   OH238372   2.313   4.490   4.487
12810TIP3    H138373   2.399   4.514   4.522
12810TIP3    H238374   2.281   4.422   4.546
12811TIP3   OH238375   4.054   4.805   6.598
12811TIP3    H138376   4.050   4.723   6.548
12811TIP3    H238377   3.990   4.793   6.669
12812TIP3   OH238378   0.840   0.546   6.219
12812TIP3    H138379   0.806   0.595   6.145
12812TIP3    H238380   0.778   0.474   6.231
12813TIP3   OH238381   0.881   2.149   5.693
12813TIP3    H138382   0.932   2.224   5.723
12813TIP3    H238383   0.835   2.119   5.770
12814TIP3   OH238384   7.073   3.879   4.010
12814TIP3    H138385   7.039   3.966   4.031
12814TIP3    H238386   7.157   3.874   4.056
12815TIP3   OH238387   2.187   1.089   0.044
12815TIP3    H138388   2.195   1.184   0.052
12815TIP3    H238389   2.093   1.073   0.040
12816TIP3   OH238390   7.769   2.389   4.617
12816TIP3    H138391   7.781   2.481   4.592
12816TIP3    H238392   7.755   2.343   4.534
12817TIP3   OH238393   7.288   3.934   4.730
12817TIP3    H138394   7.312   4.022   4.702
12817TIP3    H238395   7.278   3.940   4.825
12818TIP3   OH238396   6.019   0.328   3.595
12818TIP3    H138397   5.985   0.403   3.644
12818TIP3    H238398   6.106   0.356   3.566
12819TIP3   OH238399   5.115   0.309   4.583
12819TIP3    H138400   5.151   0.220   4.588
12819TIP3    H238401   5.062   0.318   4.662
12820TIP3   OH238402   6.946   7.230   5.304
12820TIP3    H138403   6.988   7.279   5.375
12820TIP3    H238404   7.018   7.181   5.263
12821TIP3   OH238405   5.940   0.711   4.221
12821TIP3    H138406   6.014   0.746   4.271
12821TIP3    H238407   5.923   0.777   4.154
12822TIP3   OH238408   0.156   3.178   3.595
12822TIP3    H138409   0.235   3.232   3.586
12822TIP3    H238410   0.153   3.156   3.688
12823TIP3   OH238411   1.355   3.410   3.404
12823TIP3    H138412   1.297   3.414   3.328
12823TIP3    H238413   1.306   3.360   3.469
12824TIP3   OH238414   6.091   5.893   3.579
12824TIP3    H138415   6.110   5.825   3.514
12824TIP3    H238416   6.177   5.922   3.610
12825TIP3   OH238417   0.837   1.098   4.331
12825TIP3    H138418   0.902   1.069   4.267
12825TIP3    H238419   0.816   1.019   4.381
12826TIP3   OH238420   0.105   6.822   0.844
12826TIP3    H138421   0.021   6.791   0.876
12826TIP3    H238422   0.084   6.891   0.782
12827TIP3   OH238423   1.711   3.165   4.061
12827TIP3    H138424   1.630   3.195   4.103
12827TIP3    H238425   1.681   3.121   3.981
12828TIP3   OH238426   3.778   2.157   4.541
12828TIP3    H138427   3.730   2.088   4.587
12828TIP3    H238428   3.721   2.181   4.468
12829TIP3   OH238429   3.719   2.503   6.044
12829TIP3    H138430   3.677   2.546   6.118
12829TIP3    H238431   3.804   2.546   6.035
12830TIP3   OH238432   2.796   7.166   5.668
12830TIP3    H138433   2.878   7.120   5.649
12830TIP3    H238434   2.750   7.109   5.729
12831TIP3   OH238435   6.138   2.278   0.408
12831TIP3    H138436   6.171   2.306   0.493
12831TIP3    H238437   6.115   2.360   0.363
12832TIP3   OH238438   5.959   7.312   3.079
12832TIP3    H138439   5.931   7.331   3.168
12832TIP3    H238440   5.919   7.227   3.059
12833TIP3   OH238441   8.125   0.024   6.093
12833TIP3    H138442   8.119   0.105   6.144
12833TIP3    H238443   8.090   0.047   6.007
12834TIP3   OH238444   8.028   6.242   4.830
12834TIP3    H138445   8.044   6.179   4.760
12834TIP3    H238446   8.095   6.223   4.895
12835TIP3   OH238447   7.076   2.085   4.531
12835TIP3    H138448   7.000   2.140   4.550
12835TIP3    H238449   7.070   2.067   4.437
12836TIP3   OH238450   2.376   4.458   0.946
12836TIP3    H138451   2.445   4.521   0.970
12836TIP3    H238452   2.357   4.477   0.854
12837TIP3   OH238453   6.788   5.501   2.068
12837TIP3    H138454   6.799   5.469   2.157
12837TIP3    H238455   6.819   5.428   2.013
12838TIP3   OH238456   2.430   3.113   4.943
12838TIP3    H138457   2.396   3.097   5.031
12838TIP3    H238458   2.415   3.031   4.896
12839TIP3   OH238459   3.295   0.910   2.565
12839TIP3    H138460   3.249   0.867   2.637
12839TIP3    H238461   3.361   0.964   2.608
12840TIP3   OH238462   7.575   5.225   2.135
12840TIP3    H138463   7.560   5.179   2.052
12840TIP3    H238464   7.504   5.289   2.140
12841TIP3   OH238465   6.900   3.086   0.857
12841TIP3    H138466   6.920   3.117   0.769
12841TIP3    H238467   6.970   3.123   0.912
12842TIP3   OH238468   0.656   3.733   4.112
12842TIP3    H138469   0.749   3.753   4.097
12842TIP3    H238470   0.619   3.727   4.024
12843TIP3   OH238471   0.755   6.727   3.905
12843TIP3    H138472   0.804   6.734   3.823
12843TIP3    H238473   0.689   6.660   3.888
12844TIP3   OH238474   3.157   0.216   2.313
12844TIP3    H138475   3.135   0.158   2.386
12844TIP3    H238476   3.249   0.197   2.295
12845TIP3   OH238477   1.011   5.111   5.210
12845TIP3    H138478   1.079   5.149   5.266
12845TIP3    H238479   1.048   5.028   5.181
12846TIP3   OH238480   6.298   5.239   1.176
12846TIP3    H138481   6.264   5.157   1.213
12846TIP3    H238482   6.255   5.307   1.228
12847TIP3   OH238483   1.666   5.158   1.273
12847TIP3    H138484   1.600   5.136   1.207
12847TIP3    H238485   1.675   5.078   1.326
12848TIP3   OH238486   3.540   1.706  -0.020
12848TIP3    H138487   3.491   1.669   0.053
12848TIP3    H238488   3.498   1.789  -0.038
12849TIP3   OH238489   5.100   3.587   3.393
12849TIP3    H138490   5.151   3.534   3.453
12849TIP3    H238491   5.061   3.525   3.332
12850TIP3   OH238492   3.506   4.756   1.157
12850TIP3    H138493   3.417   4.723   1.154
12850TIP3    H238494   3.538   4.733   1.244
12851TIP3   OH238495   7.473   2.696   5.649
12851TIP3    H138496   7.513   2.707   5.562
12851TIP3    H238497   7.394   2.748   5.646
12852TIP3   OH238498  -0.001   0.122   1.641
12852TIP3    H138499   0.093   0.105   1.646
12852TIP3    H238500  -0.038   0.042   1.605
12853TIP3   OH238501   7.237   3.863   0.603
12853TIP3    H138502   7.174   3.879   0.533
12853TIP3    H238503   7.251   3.769   0.602
12854TIP3   OH238504   5.810   0.511   2.664
12854TIP3    H138505   5.809   0.514   2.569
12854TIP3    H238506   5.722   0.535   2.690
12855TIP3   OH238507   0.245   0.965   4.055
12855TIP3    H138508   0.339   0.960   4.039
12855TIP3    H238509   0.231   1.052   4.092
12856TIP3   OH238510   6.833   1.871   5.779
12856TIP3    H138511   6.829   1.890   5.685
12856TIP3    H238512   6.912   1.915   5.810
12857TIP3   OH238513   5.014   7.095   5.056
12857TIP3    H138514   5.007   7.088   4.961
12857TIP3    H238515   5.087   7.155   5.071
12858TIP3   OH238516   6.496   2.723   4.446
12858TIP3    H138517   6.574   2.685   4.405
12858TIP3    H238518   6.423   2.693   4.390
12859TIP3   OH238519   6.253   4.815   4.779
12859TIP3    H138520   6.243   4.735   4.726
12859TIP3    H238521   6.169   4.823   4.825
12860TIP3   OH238522   7.262   5.528   2.535
12860TIP3    H138523   7.292   5.506   2.624
12860TIP3    H238524   7.289   5.619   2.523
12861TIP3   OH238525   0.570   0.677   3.064
12861TIP3    H138526   0.645   0.630   3.028
12861TIP3    H238527   0.606   0.728   3.136
12862TIP3   OH238528   5.047   0.447   2.979
12862TIP3    H138529   5.089   0.362   2.968
12862TIP3    H238530   4.964   0.440   2.933
12863TIP3   OH238531   2.564   2.141   0.110
12863TIP3    H138532   2.576   2.190   0.191
12863TIP3    H238533   2.564   2.049   0.137
12864TIP3   OH238534   1.610   7.465   6.256
12864TIP3    H138535   1.684   7.413   6.288
12864TIP3    H238536   1.627   7.476   6.163
12865TIP3   OH238537   0.984   2.235   0.619
12865TIP3    H138538   0.990   2.144   0.590
12865TIP3    H238539   1.070   2.272   0.600
12866TIP3   OH238540   5.919   2.878   2.888
12866TIP3    H138541   5.954   2.914   2.970
12866TIP3    H238542   5.890   2.790   2.911
12867TIP3   OH238543   0.903   4.781   0.921
12867TIP3    H138544   0.824   4.774   0.868
12867TIP3    H238545   0.907   4.873   0.946
12868TIP3   OH238546   3.028   3.530   2.519
12868TIP3    H138547   2.994   3.451   2.478
12868TIP3    H238548   2.990   3.602   2.469
12869TIP3   OH238549   6.841   3.598   2.790
12869TIP3    H138550   6.916   3.635   2.742
12869TIP3    H238551   6.848   3.637   2.878
12870TIP3   OH238552   4.299   3.112   3.584
12870TIP3    H138553   4.232   3.136   3.520
12870TIP3    H238554   4.251   3.067   3.654
12871TIP3   OH238555   1.610   1.545   2.461
12871TIP3    H138556   1.603   1.604   2.536
12871TIP3    H238557   1.683   1.487   2.482
12872TIP3   OH238558   2.332   7.421   3.023
12872TIP3    H138559   2.376   7.477   3.087
12872TIP3    H238560   2.357   7.457   2.938
12873TIP3   OH238561   4.724   2.046   1.606
12873TIP3    H138562   4.771   2.009   1.681
12873TIP3    H238563   4.788   2.048   1.536
12874TIP3   OH238564   0.023   4.571   0.451
12874TIP3    H138565  -0.060   4.618   0.449
12874TIP3    H238566   0.016   4.513   0.527
12875TIP3   OH238567   7.756   6.995   2.129
12875TIP3    H138568   7.706   6.934   2.184
12875TIP3    H238569   7.832   6.944   2.100
12876TIP3   OH238570   1.639   0.544   5.129
12876TIP3    H138571   1.647   0.558   5.223
12876TIP3    H238572   1.615   0.630   5.094
12877TIP3   OH238573   1.056   0.335   2.879
12877TIP3    H138574   1.040   0.246   2.846
12877TIP3    H238575   1.109   0.322   2.957
12878TIP3   OH238576   7.744   2.490   0.567
12878TIP3    H138577   7.794   2.568   0.546
12878TIP3    H238578   7.744   2.486   0.663
12879TIP3   OH238579   1.957   1.333   2.228
12879TIP3    H138580   2.052   1.323   2.223
12879TIP3    H238581   1.930   1.348   2.137
12880TIP3   OH238582   6.711   2.099   3.612
12880TIP3    H138583   6.651   2.099   3.537
12880TIP3    H238584   6.789   2.143   3.579
12881TIP3   OH238585   5.749   2.947   2.534
12881TIP3    H138586   5.755   2.923   2.626
12881TIP3    H238587   5.799   3.028   2.527
12882TIP3   OH238588   5.113   7.575   0.545
12882TIP3    H138589   5.022   7.547   0.539
12882TIP3    H238590   5.109   7.664   0.579
12883TIP3   OH238591   0.133   1.089   6.024
12883TIP3    H138592   0.104   1.110   6.113
12883TIP3    H238593   0.204   1.026   6.037
12884TIP3   OH238594   4.162   0.112   4.867
12884TIP3    H138595   4.128   0.023   4.881
12884TIP3    H238596   4.096   0.169   4.907
12885TIP3   OH238597   0.605   3.388   3.296
12885TIP3    H138598   0.541   3.325   3.329
12885TIP3    H238599   0.585   3.469   3.343
12886TIP3   OH238600   3.802   1.747   3.194
12886TIP3    H138601   3.731   1.705   3.243
12886TIP3    H238602   3.798   1.705   3.108
12887TIP3   OH238603   3.009   0.909   1.003
12887TIP3    H138604   2.921   0.874   1.018
12887TIP3    H238605   3.062   0.832   0.983
12888TIP3   OH238606   1.323   3.469   4.294
12888TIP3    H138607   1.325   3.524   4.372
12888TIP3    H238608   1.236   3.430   4.294
12889TIP3   OH238609   3.889   7.816   0.700
12889TIP3    H138610   3.878   7.799   0.607
12889TIP3    H238611   3.896   7.911   0.707
12890TIP3   OH238612   4.742   1.325   3.452
12890TIP3    H138613   4.681   1.393   3.479
12890TIP3    H238614   4.757   1.273   3.531
12891TIP3   OH238615   5.332   7.601   0.338
12891TIP3    H138616   5.258   7.602   0.400
12891TIP3    H238617   5.369   7.513   0.347
12892TIP3   OH238618   5.330   0.978   5.152
12892TIP3    H138619   5.354   1.025   5.232
12892TIP3    H238620   5.282   0.901   5.183
12893TIP3   OH238621   7.001   1.894   3.987
12893TIP3    H138622   6.936   1.841   3.942
12893TIP3    H238623   7.075   1.835   4.002
12894TIP3   OH238624   4.833   0.004   0.049
12894TIP3    H138625   4.854   0.080  -0.005
12894TIP3    H238626   4.884   0.017   0.129
12895TIP3   OH238627   6.515   3.804   1.162
12895TIP3    H138628   6.562   3.822   1.081
12895TIP3    H238629   6.524   3.885   1.213
12896TIP3   OH238630   2.528   4.105   6.006
12896TIP3    H138631   2.448   4.071   6.046
12896TIP3    H238632   2.599   4.060   6.052
12897TIP3   OH238633   6.370   3.079   1.660
12897TIP3    H138634   6.324   3.026   1.595
12897TIP3    H238635   6.376   3.166   1.619
12898TIP3   OH238636   5.341   0.463   4.587
12898TIP3    H138637   5.381   0.421   4.663
12898TIP3    H238638   5.259   0.415   4.575
12899TIP3   OH238639   1.042   4.774   4.996
12899TIP3    H138640   1.086   4.783   4.911
12899TIP3    H238641   0.949   4.766   4.974
12900TIP3   OH238642   7.350   2.898   3.915
12900TIP3    H138643   7.347   2.826   3.977
12900TIP3    H238644   7.437   2.891   3.875
12901TIP3   OH238645   3.323   7.115   0.728
12901TIP3    H138646   3.409   7.158   0.733
12901TIP3    H238647   3.266   7.181   0.689
12902TIP3   OH238648   5.483   2.493   0.281
12902TIP3    H138649   5.431   2.549   0.223
12902TIP3    H238650   5.564   2.477   0.233
12903TIP3   OH238651   4.753   6.085   3.782
12903TIP3    H138652   4.664   6.119   3.773
12903TIP3    H238653   4.786   6.124   3.863
12904TIP3   OH238654   3.261   4.716   5.050
12904TIP3    H138655   3.295   4.771   5.121
12904TIP3    H238656   3.229   4.779   4.985
12905TIP3   OH238657   0.873   0.359   2.209
12905TIP3    H138658   0.955   0.380   2.165
12905TIP3    H238659   0.805   0.384   2.147
12906TIP3   OH238660   2.246   0.925   0.737
12906TIP3    H138661   2.217   0.844   0.778
12906TIP3    H238662   2.202   0.927   0.652
12907TIP3   OH238663   5.770   3.878   3.359
12907TIP3    H138664   5.718   3.804   3.390
12907TIP3    H238665   5.831   3.897   3.430
12908TIP3   OH238666   1.996   5.724   5.956
12908TIP3    H138667   1.974   5.749   5.866
12908TIP3    H238668   2.016   5.806   6.000
12909TIP3   OH238669   8.000   6.863   3.818
12909TIP3    H138670   8.018   6.805   3.744
12909TIP3    H238671   7.918   6.907   3.794
12910TIP3   OH238672   3.318   5.102   1.865
12910TIP3    H138673   3.243   5.045   1.852
12910TIP3    H238674   3.392   5.052   1.831
12911TIP3   OH238675   0.627   0.997   6.138
12911TIP3    H138676   0.608   0.965   6.226
12911TIP3    H238677   0.684   1.072   6.152
12912TIP3   OH238678   6.935   6.149   2.004
12912TIP3    H138679   7.013   6.130   2.055
12912TIP3    H238680   6.922   6.069   1.951
12913TIP3   OH238681   2.288   2.756   0.877
12913TIP3    H138682   2.200   2.720   0.890
12913TIP3    H238683   2.287   2.789   0.788
12914TIP3   OH238684   0.583   0.516   4.633
12914TIP3    H138685   0.674   0.518   4.662
12914TIP3    H238686   0.565   0.606   4.605
12915TIP3   OH238687   0.882   5.052   2.689
12915TIP3    H138688   0.871   5.117   2.759
12915TIP3    H238689   0.906   4.972   2.735
12916TIP3   OH238690   0.095   6.208   3.838
12916TIP3    H138691   0.141   6.188   3.756
12916TIP3    H238692   0.107   6.129   3.891
12917TIP3   OH238693   0.709   6.024   1.064
12917TIP3    H138694   0.781   6.040   1.004
12917TIP3    H238695   0.741   6.056   1.149
12918TIP3   OH238696   7.366   4.122   1.708
12918TIP3    H138697   7.401   4.156   1.625
12918TIP3    H238698   7.434   4.143   1.772
12919TIP3   OH238699   4.146   3.451   4.306
12919TIP3    H138700   4.212   3.442   4.237
12919TIP3    H238701   4.110   3.363   4.316
12920TIP3   OH238702   6.690   6.598   4.160
12920TIP3    H138703   6.713   6.678   4.112
12920TIP3    H238704   6.765   6.585   4.219
12921TIP3   OH238705   5.043   6.884   0.856
12921TIP3    H138706   5.044   6.809   0.916
12921TIP3    H238707   5.009   6.848   0.773
12922TIP3   OH238708   1.119   7.012   2.183
12922TIP3    H138709   1.059   7.074   2.224
12922TIP3    H238710   1.102   6.928   2.226
12923TIP3   OH238711   5.522   5.012   5.882
12923TIP3    H138712   5.551   5.036   5.970
12923TIP3    H238713   5.453   4.947   5.896
12924TIP3   OH238714   6.864   5.865   4.407
12924TIP3    H138715   6.903   5.796   4.461
12924TIP3    H238716   6.882   5.946   4.455
12925TIP3   OH238717   1.225   6.278   4.042
12925TIP3    H138718   1.272   6.234   3.971
12925TIP3    H238719   1.183   6.207   4.090
12926TIP3   OH238720   5.269   3.069   1.138
12926TIP3    H138721   5.248   3.159   1.116
12926TIP3    H238722   5.328   3.076   1.214
12927TIP3   OH238723   6.238   1.227   6.042
12927TIP3    H138724   6.143   1.236   6.047
12927TIP3    H238725   6.252   1.139   6.005
12928TIP3   OH238726   7.171   4.442   2.489
12928TIP3    H138727   7.138   4.529   2.511
12928TIP3    H238728   7.095   4.394   2.457
12929TIP3   OH238729   8.071   3.055   0.579
12929TIP3    H138730   8.009   3.107   0.630
12929TIP3    H238731   8.104   3.114   0.512
12930TIP3   OH238732   2.865   0.590   5.787
12930TIP3    H138733   2.799   0.521   5.794
12930TIP3    H238734   2.877   0.603   5.693
12931TIP3   OH238735   2.489   1.607   6.489
12931TIP3    H138736   2.479   1.588   6.583
12931TIP3    H238737   2.491   1.703   6.484
12932TIP3   OH238738   7.935   1.092   2.827
12932TIP3    H138739   7.844   1.082   2.800
12932TIP3    H238740   7.957   1.183   2.806
12933TIP3   OH238741   7.357   2.397   6.145
12933TIP3    H138742   7.408   2.379   6.066
12933TIP3    H238743   7.411   2.457   6.195
12934TIP3   OH238744   6.824   2.469   3.546
12934TIP3    H138745   6.889   2.538   3.557
12934TIP3    H238746   6.870   2.389   3.569
12935TIP3   OH238747   1.492   0.156   1.568
12935TIP3    H138748   1.527   0.110   1.645
12935TIP3    H238749   1.535   0.241   1.569
12936TIP3   OH238750   3.786   4.145   6.582
12936TIP3    H138751   3.832   4.062   6.588
12936TIP3    H238752   3.794   4.171   6.490
12937TIP3   OH238753   0.736   3.185   4.195
12937TIP3    H138754   0.687   3.175   4.277
12937TIP3    H238755   0.722   3.276   4.169
12938TIP3   OH238756   6.115   1.753   2.293
12938TIP3    H138757   6.125   1.750   2.198
12938TIP3    H238758   6.071   1.671   2.316
12939TIP3   OH238759   3.760   4.371   5.446
12939TIP3    H138760   3.836   4.317   5.424
12939TIP3    H238761   3.722   4.331   5.524
12940TIP3   OH238762   0.608   4.665   3.015
12940TIP3    H138763   0.536   4.725   3.037
12940TIP3    H238764   0.572   4.609   2.947
12941TIP3   OH238765   3.489   7.729   6.500
12941TIP3    H138766   3.506   7.650   6.448
12941TIP3    H238767   3.521   7.707   6.588
12942TIP3   OH238768   2.848   5.413   0.736
12942TIP3    H138769   2.763   5.398   0.777
12942TIP3    H238770   2.872   5.328   0.699
12943TIP3   OH238771   3.583   0.167   3.094
12943TIP3    H138772   3.527   0.234   3.056
12943TIP3    H238773   3.597   0.104   3.024
12944TIP3   OH238774   6.938   0.392   6.192
12944TIP3    H138775   6.847   0.414   6.213
12944TIP3    H238776   6.971   0.347   6.269
12945TIP3   OH238777   1.517   1.147   2.385
12945TIP3    H138778   1.476   1.112   2.465
12945TIP3    H238779   1.452   1.207   2.349
12946TIP3   OH238780   3.452   6.540   1.651
12946TIP3    H138781   3.515   6.571   1.586
12946TIP3    H238782   3.369   6.576   1.623
12947TIP3   OH238783   0.619   1.523   3.636
12947TIP3    H138784   0.654   1.607   3.667
12947TIP3    H238785   0.696   1.471   3.615
12948TIP3   OH238786   1.779   1.378   4.607
12948TIP3    H138787   1.742   1.442   4.546
12948TIP3    H238788   1.759   1.293   4.568
12949TIP3   OH238789   5.886   0.030   4.928
12949TIP3    H138790   5.871   0.105   4.986
12949TIP3    H238791   5.805   0.024   4.876
12950TIP3   OH238792   4.731   2.035   6.672
12950TIP3    H138793   4.743   1.990   6.755
12950TIP3    H238794   4.742   1.968   6.606
12951TIP3   OH238795   2.074   0.656   2.528
12951TIP3    H138796   2.083   0.596   2.454
12951TIP3    H238797   2.043   0.738   2.488
12952TIP3   OH238798   4.986   6.264   3.466
12952TIP3    H138799   5.002   6.177   3.503
12952TIP3    H238800   5.057   6.318   3.502
12953TIP3   OH238801   6.885   2.559   3.111
12953TIP3    H138802   6.945   2.608   3.167
12953TIP3    H238803   6.800   2.566   3.154
12954TIP3   OH238804   5.382   1.333   1.863
12954TIP3    H138805   5.377   1.240   1.885
12954TIP3    H238806   5.452   1.340   1.798
12955TIP3   OH238807   4.288   4.549   2.898
12955TIP3    H138808   4.251   4.638   2.891
12955TIP3    H238809   4.367   4.560   2.950
12956TIP3   OH238810   6.754   1.307   4.166
12956TIP3    H138811   6.697   1.313   4.090
12956TIP3    H238812   6.752   1.214   4.190
12957TIP3   OH238813   1.205   1.385   1.108
12957TIP3    H138814   1.260   1.420   1.178
12957TIP3    H238815   1.207   1.290   1.120
12958TIP3   OH238816   0.393   0.038   0.939
12958TIP3    H138817   0.363   0.125   0.916
12958TIP3    H238818   0.381  -0.014   0.859
12959TIP3   OH238819   6.468   3.091   6.743
12959TIP3    H138820   6.426   3.057   6.664
12959TIP3    H238821   6.413   3.164   6.770
12960TIP3   OH238822   7.636   4.772   1.746
12960TIP3    H138823   7.711   4.830   1.746
12960TIP3    H238824   7.626   4.744   1.837
12961TIP3   OH238825   6.845   7.373   1.266
12961TIP3    H138826   6.763   7.416   1.287
12961TIP3    H238827   6.838   7.351   1.173
12962TIP3   OH238828   6.418   0.840   5.843
12962TIP3    H138829   6.416   0.935   5.859
12962TIP3    H238830   6.326   0.815   5.836
12963TIP3   OH238831   1.569   7.613   0.161
12963TIP3    H138832   1.501   7.668   0.121
12963TIP3    H238833   1.649   7.664   0.152
12964TIP3   OH238834   3.567   2.612   2.584
12964TIP3    H138835   3.534   2.682   2.640
12964TIP3    H238836   3.582   2.654   2.499
12965TIP3   OH238837   4.725   6.911   4.379
12965TIP3    H138838   4.755   6.834   4.332
12965TIP3    H238839   4.774   6.984   4.341
12966TIP3   OH238840   6.303   6.397   0.128
12966TIP3    H138841   6.369   6.333   0.155
12966TIP3    H238842   6.297   6.386   0.033
12967TIP3   OH238843   8.183   2.610   2.731
12967TIP3    H138844   8.123   2.636   2.800
12967TIP3    H238845   8.267   2.598   2.776
12968TIP3   OH238846   3.818   5.888   2.581
12968TIP3    H138847   3.811   5.816   2.518
12968TIP3    H238848   3.732   5.929   2.580
12969TIP3   OH238849   0.540   0.436   5.676
12969TIP3    H138850   0.519   0.404   5.763
12969TIP3    H238851   0.467   0.494   5.653
12970TIP3   OH238852   3.256   0.261   0.491
12970TIP3    H138853   3.164   0.253   0.467
12970TIP3    H238854   3.287   0.337   0.443
12971TIP3   OH238855   5.714   0.332   6.507
12971TIP3    H138856   5.800   0.360   6.475
12971TIP3    H238857   5.660   0.411   6.505
12972TIP3   OH238858   2.369   1.417   4.173
12972TIP3    H138859   2.324   1.416   4.088
12972TIP3    H238860   2.319   1.481   4.225
12973TIP3   OH238861   7.168   7.684   5.554
12973TIP3    H138862   7.140   7.645   5.637
12973TIP3    H238863   7.210   7.766   5.579
12974TIP3   OH238864   4.775   4.054   1.852
12974TIP3    H138865   4.802   4.134   1.897
12974TIP3    H238866   4.752   3.994   1.923
12975TIP3   OH238867   4.778   1.016   5.050
12975TIP3    H138868   4.707   1.077   5.070
12975TIP3    H238869   4.857   1.070   5.049
12976TIP3   OH238870   4.168   2.325   2.193
12976TIP3    H138871   4.150   2.251   2.134
12976TIP3    H238872   4.185   2.284   2.278
12977TIP3   OH238873   2.092   5.127   3.970
12977TIP3    H138874   1.996   5.131   3.967
12977TIP3    H238875   2.119   5.217   3.985
12978TIP3   OH238876   4.947   2.649   0.085
12978TIP3    H138877   4.896   2.569   0.083
12978TIP3    H238878   4.924   2.694   0.004
12979TIP3   OH238879   3.797   4.055   2.575
12979TIP3    H138880   3.705   4.060   2.599
12979TIP3    H238881   3.844   4.050   2.659
12980TIP3   OH238882   7.487   4.728   0.513
12980TIP3    H138883   7.402   4.770   0.499
12980TIP3    H238884   7.533   4.741   0.430
12981TIP3   OH238885   1.541   1.197   0.092
12981TIP3    H138886   1.512   1.285   0.069
12981TIP3    H238887   1.534   1.148   0.010
12982TIP3   OH238888   2.809   2.023   5.495
12982TIP3    H138889   2.725   2.051   5.459
12982TIP3    H238890   2.864   2.101   5.490
12983TIP3   OH238891   6.332   4.028   1.205
12983TIP3    H138892   6.406   4.051   1.262
12983TIP3    H238893   6.345   4.081   1.126
12984TIP3   OH238894   4.249   5.047   4.086
12984TIP3    H138895   4.283   5.069   4.000
12984TIP3    H238896   4.170   4.996   4.069
12985TIP3   OH238897   7.192   4.219   5.432
12985TIP3    H138898   7.212   4.262   5.516
12985TIP3    H238899   7.133   4.279   5.388
12986TIP3   OH238900   6.413   5.738   0.886
12986TIP3    H138901   6.413   5.826   0.849
12986TIP3    H238902   6.504   5.724   0.915
12987TIP3   OH238903   7.661   0.070   1.531
12987TIP3    H138904   7.721  -0.002   1.550
12987TIP3    H238905   7.643   0.061   1.437
12988TIP3   OH238906   2.696   6.372   2.066
12988TIP3    H138907   2.694   6.447   2.007
12988TIP3    H238908   2.611   6.374   2.110
12989TIP3   OH238909   7.328   1.488   0.374
12989TIP3    H138910   7.359   1.398   0.364
12989TIP3    H238911   7.315   1.519   0.285
12990TIP3   OH238912   5.820   3.795   5.966
12990TIP3    H138913   5.791   3.706   5.949
12990TIP3    H238914   5.908   3.785   6.004
12991TIP3   OH238915   3.039   2.453   6.493
12991TIP3    H138916   2.979   2.465   6.419
12991TIP3    H238917   3.124   2.438   6.453
12992TIP3   OH238918   4.448   6.477   5.891
12992TIP3    H138919   4.380   6.436   5.944
12992TIP3    H238920   4.512   6.509   5.954
12993TIP3   OH238921   7.725   4.390   2.340
12993TIP3    H138922   7.697   4.391   2.249
12993TIP3    H238923   7.757   4.301   2.354
12994TIP3   OH238924   4.890   0.772   2.215
12994TIP3    H138925   4.822   0.705   2.223
12994TIP3    H238926   4.930   0.757   2.129
12995TIP3   OH238927   7.376   5.913   4.079
12995TIP3    H138928   7.421   5.858   4.143
12995TIP3    H238929   7.313   5.855   4.037
12996TIP3   OH238930   7.015   2.221   0.803
12996TIP3    H138931   7.018   2.301   0.751
12996TIP3    H238932   7.075   2.161   0.758
12997TIP3   OH238933   4.309   2.429   1.961
12997TIP3    H138934   4.262   2.407   2.041
12997TIP3    H238935   4.241   2.450   1.897
12998TIP3   OH238936   0.808   3.610   0.348
12998TIP3    H138937   0.761   3.681   0.393
12998TIP3    H238938   0.899   3.637   0.349
12999TIP3   OH238939   0.828   2.544   0.296
12999TIP3    H138940   0.918   2.511   0.298
12999TIP3    H238941   0.777   2.469   0.266
13000TIP3   OH238942   5.595   3.277   1.450
13000TIP3    H138943   5.530   3.212   1.420
13000TIP3    H238944   5.679   3.242   1.419
13001TIP3   OH238945   7.520   6.934   1.068
13001TIP3    H138946   7.456   6.995   1.029
13001TIP3    H238947   7.530   6.964   1.158
13002TIP3   OH238948   4.205   6.017   4.654
13002TIP3    H138949   4.262   6.050   4.723
13002TIP3    H238950   4.152   5.950   4.697
13003TIP3   OH238951   7.246   6.496   2.220
13003TIP3    H138952   7.196   6.482   2.301
13003TIP3    H238953   7.253   6.591   2.213
13004TIP3   OH238954   3.667   1.327   4.910
13004TIP3    H138955   3.761   1.347   4.903
13004TIP3    H238956   3.625   1.412   4.926
13005TIP3   OH238957   7.876   6.988   4.342
13005TIP3    H138958   7.838   6.924   4.281
13005TIP3    H238959   7.963   6.953   4.362
13006TIP3   OH238960   7.721   3.366   6.567
13006TIP3    H138961   7.721   3.414   6.485
13006TIP3    H238962   7.732   3.433   6.635
13007TIP3   OH238963   6.507   0.623   5.666
13007TIP3    H138964   6.476   0.713   5.680
13007TIP3    H238965   6.547   0.599   5.749
13008TIP3   OH238966   1.509   2.483   1.940
13008TIP3    H138967   1.463   2.418   1.993
13008TIP3    H238968   1.440   2.525   1.888
13009TIP3   OH238969   3.500   0.614   0.465
13009TIP3    H138970   3.482   0.576   0.551
13009TIP3    H238971   3.424   0.670   0.447
13010TIP3   OH238972   1.565   2.869   1.491
13010TIP3    H138973   1.534   2.824   1.570
13010TIP3    H238974   1.643   2.916   1.521
13011TIP3   OH238975   6.980   2.554   1.247
13011TIP3    H138976   7.052   2.606   1.210
13011TIP3    H238977   6.954   2.496   1.176
13012TIP3   OH238978   2.484   0.850   1.313
13012TIP3    H138979   2.420   0.787   1.347
13012TIP3    H238980   2.446   0.936   1.331
13013TIP3   OH238981   3.107   4.963   2.113
13013TIP3    H138982   3.190   4.921   2.137
13013TIP3    H238983   3.128   5.015   2.036
13014TIP3   OH238984   5.302   6.698   6.443
13014TIP3    H138985   5.358   6.627   6.412
13014TIP3    H238986   5.358   6.750   6.500
13015TIP3   OH238987   2.974   3.137   0.186
13015TIP3    H138988   2.966   3.043   0.170
13015TIP3    H238989   2.977   3.176   0.098
13016TIP3   OH238990   6.573   1.296   2.825
13016TIP3    H138991   6.659   1.300   2.868
13016TIP3    H238992   6.576   1.367   2.761
13017TIP3   OH238993   8.184   2.930   5.171
13017TIP3    H138994   8.209   2.934   5.079
13017TIP3    H238995   8.093   2.960   5.173
13018TIP3   OH238996   3.817   7.407   5.593
13018TIP3    H138997   3.893   7.424   5.648
13018TIP3    H238998   3.850   7.414   5.503
13019TIP3   OH238999   1.163   0.089   0.541
13019TIP3    H139000   1.144  -0.002   0.565
13019TIP3    H239001   1.171   0.135   0.624
13020TIP3   OH239002   6.271   0.732   3.711
13020TIP3    H139003   6.270   0.774   3.625
13020TIP3    H239004   6.324   0.653   3.699
13021TIP3   OH239005   0.471   3.223   6.023
13021TIP3    H139006   0.524   3.223   6.103
13021TIP3    H239007   0.447   3.314   6.009
13022TIP3   OH239008   2.636   7.338   1.762
13022TIP3    H139009   2.721   7.353   1.719
13022TIP3    H239010   2.658   7.313   1.852
13023TIP3   OH239011   2.371   2.440   6.113
13023TIP3    H139012   2.338   2.459   6.201
13023TIP3    H239013   2.466   2.433   6.123
13024TIP3   OH239014   7.842   2.385   2.499
13024TIP3    H139015   7.863   2.352   2.412
13024TIP3    H239016   7.924   2.420   2.533
13025TIP3   OH239017   2.560   6.987   3.187
13025TIP3    H139018   2.521   6.979   3.100
13025TIP3    H239019   2.651   6.961   3.176
13026TIP3   OH239020   3.913   0.737   1.572
13026TIP3    H139021   3.933   0.817   1.621
13026TIP3    H239022   3.826   0.752   1.536
13027TIP3   OH239023   4.059   1.597   0.976
13027TIP3    H139024   3.982   1.541   0.975
13027TIP3    H239025   4.121   1.552   1.033
13028TIP3   OH239026   5.333   6.478   2.032
13028TIP3    H139027   5.363   6.407   2.089
13028TIP3    H239028   5.390   6.473   1.955
13029TIP3   OH239029   4.203   3.766   3.026
13029TIP3    H139030   4.113   3.764   3.057
13029TIP3    H239031   4.196   3.756   2.931
13030TIP3   OH239032   3.854   2.822   4.859
13030TIP3    H139033   3.791   2.789   4.795
13030TIP3    H239034   3.916   2.750   4.872
13031TIP3   OH239035   1.367   2.814   3.230
13031TIP3    H139036   1.444   2.757   3.236
13031TIP3    H239037   1.309   2.769   3.168
13032TIP3   OH239038   1.148   1.172   0.018
13032TIP3    H139039   1.097   1.125  -0.048
13032TIP3    H239040   1.109   1.144   0.101
13033TIP3   OH239041   6.647   5.219   5.107
13033TIP3    H139042   6.686   5.132   5.098
13033TIP3    H239043   6.689   5.271   5.038
13034TIP3   OH239044   8.137   4.798   1.281
13034TIP3    H139045   8.044   4.811   1.267
13034TIP3    H239046   8.143   4.722   1.338
13035TIP3   OH239047   4.044   2.556   1.871
13035TIP3    H139048   4.039   2.547   1.775
13035TIP3    H239049   4.027   2.649   1.887
13036TIP3   OH239050   1.813   6.203   4.149
13036TIP3    H139051   1.887   6.261   4.164
13036TIP3    H239052   1.828   6.129   4.208
13037TIP3   OH239053   0.882   7.539   6.444
13037TIP3    H139054   0.870   7.548   6.538
13037TIP3    H239055   0.955   7.477   6.435
13038TIP3   OH239056   7.506   4.122   1.459
13038TIP3    H139057   7.471   4.096   1.373
13038TIP3    H239058   7.549   4.206   1.443
13039TIP3   OH239059   5.435   0.804   0.602
13039TIP3    H139060   5.504   0.869   0.605
13039TIP3    H239061   5.464   0.740   0.537
13040TIP3   OH239062   0.941   1.783   5.040
13040TIP3    H139063   0.949   1.690   5.064
13040TIP3    H239064   0.870   1.815   5.095
13041TIP3   OH239065   0.713   7.641   4.048
13041TIP3    H139066   0.666   7.692   4.114
13041TIP3    H239067   0.804   7.668   4.056
13042TIP3   OH239068   0.964   0.192   6.287
13042TIP3    H139069   1.006   0.106   6.297
13042TIP3    H239070   0.998   0.226   6.204
13043TIP3   OH239071   0.965   5.399   4.209
13043TIP3    H139072   0.884   5.413   4.258
13043TIP3    H239073   1.012   5.333   4.260
13044TIP3   OH239074   7.614   2.362   5.804
13044TIP3    H139075   7.658   2.367   5.719
13044TIP3    H239076   7.653   2.434   5.855
13045TIP3   OH239077   1.444   1.671   4.264
13045TIP3    H139078   1.489   1.756   4.274
13045TIP3    H239079   1.472   1.641   4.177
13046TIP3   OH239080   7.710   0.650   0.036
13046TIP3    H139081   7.792   0.671   0.080
13046TIP3    H239082   7.704   0.555   0.041
13047TIP3   OH239083   1.340   3.043   3.398
13047TIP3    H139084   1.347   2.974   3.333
13047TIP3    H239085   1.285   3.110   3.356
13048TIP3   OH239086   5.759   1.504   5.694
13048TIP3    H139087   5.838   1.471   5.651
13048TIP3    H239088   5.703   1.534   5.622
13049TIP3   OH239089   0.968   0.340   0.264
13049TIP3    H139090   0.873   0.338   0.252
13049TIP3    H239091   0.980   0.355   0.357
13050TIP3   OH239092   6.353   4.247   1.005
13050TIP3    H139093   6.331   4.243   0.912
13050TIP3    H239094   6.305   4.324   1.038
13051TIP3   OH239095   5.511   7.292   4.790
13051TIP3    H139096   5.518   7.213   4.843
13051TIP3    H239097   5.438   7.275   4.730
13052TIP3   OH239098   5.943   3.308   5.996
13052TIP3    H139099   5.988   3.321   6.079
13052TIP3    H239100   5.850   3.305   6.019
13053TIP3   OH239101   4.097   1.017   2.402
13053TIP3    H139102   4.012   1.052   2.430
13053TIP3    H239103   4.133   1.085   2.345
13054TIP3   OH239104   3.172   0.929   5.934
13054TIP3    H139105   3.176   1.017   5.972
13054TIP3    H239106   3.251   0.923   5.881
13055TIP3   OH239107   0.050   1.055   2.922
13055TIP3    H139108   0.122   1.040   2.862
13055TIP3    H239109   0.091   1.056   3.009
13056TIP3   OH239110   7.081   5.729   5.046
13056TIP3    H139111   7.169   5.727   5.009
13056TIP3    H239112   7.095   5.744   5.140
13057TIP3   OH239113   1.431   6.787   1.983
13057TIP3    H139114   1.411   6.856   2.047
13057TIP3    H239115   1.450   6.834   1.902
13058TIP3   OH239116   0.360   5.145   6.616
13058TIP3    H139117   0.437   5.137   6.560
13058TIP3    H239118   0.327   5.233   6.599
13059TIP3   OH239119   1.401   2.983   1.076
13059TIP3    H139120   1.385   2.888   1.079
13059TIP3    H239121   1.432   2.999   0.987
13060TIP3   OH239122   3.604   3.100   2.859
13060TIP3    H139123   3.647   3.093   2.945
13060TIP3    H239124   3.558   3.184   2.863
13061TIP3   OH239125   5.115   4.965   6.583
13061TIP3    H139126   5.043   4.978   6.645
13061TIP3    H239127   5.150   4.878   6.605
13062TIP3   OH239128   5.531   5.421   5.247
13062TIP3    H139129   5.550   5.356   5.315
13062TIP3    H239130   5.613   5.431   5.199
13063TIP3   OH239131   4.968   3.093   0.554
13063TIP3    H139132   5.062   3.109   0.564
13063TIP3    H239133   4.937   3.168   0.503
13064TIP3   OH239134   4.839   3.133   2.269
13064TIP3    H139135   4.748   3.141   2.296
13064TIP3    H239136   4.882   3.211   2.304
13065TIP3   OH239137   7.000   3.602   2.100
13065TIP3    H139138   7.030   3.527   2.050
13065TIP3    H239139   7.019   3.579   2.191
13066TIP3   OH239140   0.039   4.987   3.943
13066TIP3    H139141   0.094   4.972   4.020
13066TIP3    H239142   0.044   5.082   3.928
13067TIP3   OH239143   0.983   7.251   0.758
13067TIP3    H139144   0.975   7.302   0.678
13067TIP3    H239145   0.903   7.270   0.807
13068TIP3   OH239146   6.564   7.468   6.248
13068TIP3    H139147   6.491   7.430   6.200
13068TIP3    H239148   6.640   7.417   6.221
13069TIP3   OH239149   0.853   5.695   4.102
13069TIP3    H139150   0.872   5.635   4.175
13069TIP3    H239151   0.811   5.640   4.036
13070TIP3   OH239152   6.084   5.808   5.674
13070TIP3    H139153   6.007   5.753   5.661
13070TIP3    H239154   6.056   5.874   5.738
13071TIP3   OH239155   4.355   5.714   1.231
13071TIP3    H139156   4.411   5.778   1.186
13071TIP3    H239157   4.356   5.637   1.174
13072TIP3   OH239158   2.480   1.047   1.082
13072TIP3    H139159   2.488   1.120   1.142
13072TIP3    H239160   2.401   1.065   1.031
13073TIP3   OH239161   2.475   3.007   3.726
13073TIP3    H139162   2.437   2.960   3.800
13073TIP3    H239163   2.470   2.945   3.653
13074TIP3   OH239164   3.749   5.703   4.869
13074TIP3    H139165   3.814   5.713   4.939
13074TIP3    H239166   3.670   5.744   4.904
13075TIP3   OH239167   7.178   4.489   3.918
13075TIP3    H139168   7.213   4.573   3.890
13075TIP3    H239169   7.237   4.461   3.989
13076TIP3   OH239170   2.132   0.606   3.560
13076TIP3    H139171   2.171   0.522   3.584
13076TIP3    H239172   2.177   0.631   3.479
13077TIP3   OH239173   6.790   4.456   6.289
13077TIP3    H139174   6.759   4.447   6.379
13077TIP3    H239175   6.845   4.379   6.274
13078TIP3   OH239176   7.861   2.401   6.762
13078TIP3    H139177   7.821   2.426   6.679
13078TIP3    H239178   7.789   2.365   6.813
13079TIP3   OH239179   4.102   7.386   3.335
13079TIP3    H139180   4.152   7.423   3.262
13079TIP3    H239181   4.120   7.445   3.409
13080TIP3   OH239182   1.874   3.906   1.460
13080TIP3    H139183   1.943   3.957   1.501
13080TIP3    H239184   1.910   3.817   1.455
13081TIP3   OH239185   1.391   5.874   1.730
13081TIP3    H139186   1.349   5.790   1.712
13081TIP3    H239187   1.320   5.938   1.722
13082TIP3   OH239188   3.929   7.203   2.283
13082TIP3    H139189   3.897   7.138   2.344
13082TIP3    H239190   4.024   7.195   2.287
13083TIP3   OH239191   4.300   2.843   2.112
13083TIP3    H139192   4.331   2.928   2.081
13083TIP3    H239193   4.255   2.862   2.194
13084TIP3   OH239194   6.809   0.310   1.115
13084TIP3    H139195   6.715   0.326   1.111
13084TIP3    H239196   6.824   0.235   1.057
13085TIP3   OH239197   5.793   6.584   6.633
13085TIP3    H139198   5.887   6.592   6.620
13085TIP3    H239199   5.760   6.551   6.549
13086TIP3   OH239200   2.898   4.677   4.740
13086TIP3    H139201   2.844   4.608   4.780
13086TIP3    H239202   2.988   4.654   4.763
13087TIP3   OH239203   6.061   3.151   6.491
13087TIP3    H139204   5.995   3.084   6.505
13087TIP3    H239205   6.065   3.161   6.396
13088TIP3   OH239206   7.718   7.374   1.937
13088TIP3    H139207   7.732   7.355   2.030
13088TIP3    H239208   7.623   7.377   1.926
13089TIP3   OH239209   6.027   1.510   4.819
13089TIP3    H139210   6.097   1.472   4.767
13089TIP3    H239211   6.071   1.566   4.882
13090TIP3   OH239212   7.502   4.519   3.161
13090TIP3    H139213   7.505   4.476   3.076
13090TIP3    H239214   7.412   4.508   3.191
13091TIP3   OH239215   4.017   2.417   3.280
13091TIP3    H139216   4.027   2.511   3.270
13091TIP3    H239217   4.021   2.402   3.374
13092TIP3   OH239218   0.219   0.006   3.974
13092TIP3    H139219   0.162   0.045   4.040
13092TIP3    H239220   0.168  -0.066   3.938
13093TIP3   OH239221   4.722   5.894   0.200
13093TIP3    H139222   4.682   5.965   0.250
13093TIP3    H239223   4.693   5.909   0.110
13094TIP3   OH239224   6.768   0.716   1.336
13094TIP3    H139225   6.702   0.687   1.273
13094TIP3    H239226   6.749   0.809   1.349
13095TIP3   OH239227   6.334   0.475   4.781
13095TIP3    H139228   6.405   0.481   4.845
13095TIP3    H239229   6.313   0.382   4.777
13096TIP3   OH239230   3.193   5.896   3.252
13096TIP3    H139231   3.287   5.899   3.230
13096TIP3    H239232   3.158   5.827   3.197
13097TIP3   OH239233   6.332   6.225   2.703
13097TIP3    H139234   6.264   6.291   2.711
13097TIP3    H239235   6.309   6.158   2.767
13098TIP3   OH239236   7.136   5.007   1.920
13098TIP3    H139237   7.147   5.090   1.874
13098TIP3    H239238   7.197   4.947   1.878
13099TIP3   OH239239   3.681   0.427   0.862
13099TIP3    H139240   3.623   0.503   0.855
13099TIP3    H239241   3.715   0.414   0.774
13100TIP3   OH239242   0.839   4.490   3.868
13100TIP3    H139243   0.762   4.442   3.836
13100TIP3    H239244   0.895   4.422   3.905
13101TIP3   OH239245   0.620   7.375   4.467
13101TIP3    H139246   0.584   7.458   4.438
13101TIP3    H239247   0.544   7.324   4.494
13102TIP3   OH239248   4.000   0.695   2.980
13102TIP3    H139249   4.079   0.667   2.934
13102TIP3    H239250   3.977   0.779   2.939
13103TIP3   OH239251   6.267   2.801   1.853
13103TIP3    H139252   6.309   2.884   1.876
13103TIP3    H239253   6.174   2.816   1.868
13104TIP3   OH239254   1.020   5.195   2.494
13104TIP3    H139255   1.008   5.175   2.401
13104TIP3    H239256   0.958   5.139   2.539
13105TIP3   OH239257   0.366   3.306   6.497
13105TIP3    H139258   0.407   3.388   6.526
13105TIP3    H239259   0.440   3.248   6.478
13106TIP3   OH239260   3.432   1.639   5.356
13106TIP3    H139261   3.387   1.616   5.275
13106TIP3    H239262   3.363   1.646   5.422
13107TIP3   OH239263   1.475   5.641   2.968
13107TIP3    H139264   1.435   5.626   2.883
13107TIP3    H239265   1.403   5.672   3.023
13108TIP3   OH239266   1.175   6.294   5.722
13108TIP3    H139267   1.165   6.388   5.739
13108TIP3    H239268   1.171   6.253   5.809
13109TIP3   OH239269   5.855   0.873   3.980
13109TIP3    H139270   5.930   0.878   3.921
13109TIP3    H239271   5.845   0.962   4.013
13110TIP3   OH239272   0.442   1.588   1.028
13110TIP3    H139273   0.506   1.627   1.088
13110TIP3    H239274   0.357   1.619   1.060
13111TIP3   OH239275   5.556   6.884   1.552
13111TIP3    H139276   5.501   6.949   1.594
13111TIP3    H239277   5.626   6.868   1.615
13112TIP3   OH239278   0.362   5.058   3.998
13112TIP3    H139279   0.443   5.050   4.049
13112TIP3    H239280   0.293   5.030   4.059
13113TIP3   OH239281   0.505   2.280   1.079
13113TIP3    H139282   0.544   2.282   1.166
13113TIP3    H239283   0.562   2.223   1.028
13114TIP3   OH239284   2.595   3.783   5.382
13114TIP3    H139285   2.652   3.725   5.432
13114TIP3    H239286   2.512   3.781   5.429
13115TIP3   OH239287   5.454   6.404   0.102
13115TIP3    H139288   5.535   6.375   0.143
13115TIP3    H239289   5.436   6.338   0.034
13116TIP3   OH239290   0.559   0.905   3.707
13116TIP3    H139291   0.637   0.863   3.744
13116TIP3    H239292   0.517   0.836   3.656
13117TIP3   OH239293   5.124   1.595   1.363
13117TIP3    H139294   5.188   1.577   1.294
13117TIP3    H239295   5.110   1.689   1.358
13118TIP3   OH239296   4.732   4.731   5.161
13118TIP3    H139297   4.802   4.781   5.118
13118TIP3    H239298   4.779   4.676   5.224
13119TIP3   OH239299   6.962   3.292   5.093
13119TIP3    H139300   7.008   3.352   5.152
13119TIP3    H239301   6.961   3.208   5.140
13120TIP3   OH239302   7.505   2.368   2.713
13120TIP3    H139303   7.589   2.411   2.694
13120TIP3    H239304   7.505   2.291   2.657
13121TIP3   OH239305   4.128   2.231   4.746
13121TIP3    H139306   4.142   2.318   4.783
13121TIP3    H239307   4.070   2.187   4.809
13122TIP3   OH239308   3.412   2.510   1.732
13122TIP3    H139309   3.367   2.444   1.785
13122TIP3    H239310   3.499   2.473   1.716
13123TIP3   OH239311   7.895   4.630   6.052
13123TIP3    H139312   7.841   4.611   6.129
13123TIP3    H239313   7.951   4.703   6.079
13124TIP3   OH239314   3.348   1.818   5.991
13124TIP3    H139315   3.281   1.885   6.004
13124TIP3    H239316   3.426   1.854   6.034
13125TIP3   OH239317   5.296   4.862   5.145
13125TIP3    H139318   5.344   4.804   5.203
13125TIP3    H239319   5.308   4.824   5.058
13126TIP3   OH239320   6.674   2.882   5.207
13126TIP3    H139321   6.746   2.819   5.201
13126TIP3    H239322   6.681   2.935   5.128
13127TIP3   OH239323   0.596   5.780   4.083
13127TIP3    H139324   0.692   5.785   4.075
13127TIP3    H239325   0.581   5.731   4.163
13128TIP3   OH239326   0.407   3.893   5.189
13128TIP3    H139327   0.471   3.822   5.187
13128TIP3    H239328   0.327   3.855   5.152
13129TIP3   OH239329   0.873   4.933   3.337
13129TIP3    H139330   0.893   5.021   3.303
13129TIP3    H239331   0.929   4.923   3.413
13130TIP3   OH239332   7.565   3.143   0.844
13130TIP3    H139333   7.520   3.071   0.800
13130TIP3    H239334   7.554   3.218   0.785
13131TIP3   OH239335   1.791   7.771   4.013
13131TIP3    H139336   1.797   7.702   4.079
13131TIP3    H239337   1.805   7.852   4.062
13132TIP3   OH239338   4.356   3.635   5.275
13132TIP3    H139339   4.376   3.702   5.340
13132TIP3    H239340   4.260   3.634   5.270
13133TIP3   OH239341   2.506   2.124   5.757
13133TIP3    H139342   2.493   2.113   5.662
13133TIP3    H239343   2.597   2.153   5.765
13134TIP3   OH239344   8.277   0.587   2.429
13134TIP3    H139345   8.356   0.534   2.440
13134TIP3    H239346   8.206   0.524   2.421
13135TIP3   OH239347   8.028   5.196   2.824
13135TIP3    H139348   8.062   5.276   2.784
13135TIP3    H239349   8.031   5.131   2.754
13136TIP3   OH239350   4.186   4.943   5.244
13136TIP3    H139351   4.216   4.882   5.311
13136TIP3    H239352   4.093   4.955   5.262
13137TIP3   OH239353   6.737   4.590   3.787
13137TIP3    H139354   6.744   4.531   3.862
13137TIP3    H239355   6.644   4.594   3.768
13138TIP3   OH239356   3.604   5.918   1.863
13138TIP3    H139357   3.617   5.823   1.856
13138TIP3    H239358   3.689   5.952   1.890
13139TIP3   OH239359   0.797   0.226   4.278
13139TIP3    H139360   0.701   0.233   4.272
13139TIP3    H239361   0.821   0.288   4.346
13140TIP3   OH239362   5.286   6.029   4.900
13140TIP3    H139363   5.203   5.987   4.923
13140TIP3    H239364   5.336   5.960   4.856
13141TIP3   OH239365   1.773   5.149   3.986
13141TIP3    H139366   1.737   5.065   4.015
13141TIP3    H239367   1.696   5.200   3.960
13142TIP3   OH239368   0.906   4.228   0.772
13142TIP3    H139369   0.913   4.313   0.815
13142TIP3    H239370   0.831   4.237   0.713
13143TIP3   OH239371   4.794   4.833   2.353
13143TIP3    H139372   4.764   4.923   2.346
13143TIP3    H239373   4.750   4.799   2.431
13144TIP3   OH239374   8.294   5.896   5.837
13144TIP3    H139375   8.224   5.929   5.894
13144TIP3    H239376   8.261   5.909   5.748
13145TIP3   OH239377   2.345   5.115   4.294
13145TIP3    H139378   2.309   5.196   4.259
13145TIP3    H239379   2.414   5.143   4.354
13146TIP3   OH239380   5.137   0.404   5.528
13146TIP3    H139381   5.174   0.450   5.603
13146TIP3    H239382   5.126   0.472   5.461
13147TIP3   OH239383   4.797   7.694   2.261
13147TIP3    H139384   4.846   7.752   2.203
13147TIP3    H239385   4.756   7.631   2.204
13148TIP3   OH239386   3.444   5.276   1.284
13148TIP3    H139387   3.369   5.335   1.281
13148TIP3    H239388   3.407   5.190   1.301
13149TIP3   OH239389   2.951   7.635   3.793
13149TIP3    H139390   3.009   7.564   3.767
13149TIP3    H239391   3.007   7.713   3.792
13150TIP3   OH239392   1.762   4.557   0.744
13150TIP3    H139393   1.814   4.617   0.690
13150TIP3    H239394   1.716   4.613   0.806
13151TIP3   OH239395   3.100   1.725   4.139
13151TIP3    H139396   3.104   1.796   4.074
13151TIP3    H239397   3.171   1.745   4.200
13152TIP3   OH239398   0.484   5.031   2.777
13152TIP3    H139399   0.529   4.948   2.760
13152TIP3    H239400   0.429   5.045   2.701
13153TIP3   OH239401   3.780   2.643   1.722
13153TIP3    H139402   3.806   2.600   1.803
13153TIP3    H239403   3.854   2.700   1.700
13154TIP3   OH239404   0.614   0.041   2.919
13154TIP3    H139405   0.680   0.024   2.986
13154TIP3    H239406   0.608   0.136   2.916
13155TIP3   OH239407   1.762   1.250   3.532
13155TIP3    H139408   1.763   1.342   3.505
13155TIP3    H239409   1.787   1.202   3.454
13156TIP3   OH239410   7.811   1.605   5.181
13156TIP3    H139411   7.864   1.526   5.190
13156TIP3    H239412   7.819   1.650   5.265
13157TIP3   OH239413   5.826   0.934   6.301
13157TIP3    H139414   5.764   0.880   6.252
13157TIP3    H239415   5.859   0.877   6.370
13158TIP3   OH239416   0.619   4.341   0.205
13158TIP3    H139417   0.590   4.388   0.283
13158TIP3    H239418   0.588   4.395   0.132
13159TIP3   OH239419   3.722   7.295   0.462
13159TIP3    H139420   3.803   7.306   0.412
13159TIP3    H239421   3.676   7.224   0.419
13160TIP3   OH239422   3.985   1.095   1.339
13160TIP3    H139423   4.028   1.157   1.399
13160TIP3    H239424   3.934   1.038   1.397
13161TIP3   OH239425   3.365   5.165   0.186
13161TIP3    H139426   3.334   5.243   0.141
13161TIP3    H239427   3.388   5.104   0.116
13162TIP3   OH239428   2.738   7.001   5.360
13162TIP3    H139429   2.678   7.017   5.288
13162TIP3    H239430   2.795   7.078   5.361
13163TIP3   OH239431   7.651   5.594   1.614
13163TIP3    H139432   7.685   5.674   1.652
13163TIP3    H239433   7.666   5.604   1.520
13164TIP3   OH239434   4.762   4.585   0.248
13164TIP3    H139435   4.757   4.544   0.334
13164TIP3    H239436   4.678   4.630   0.237
13165TIP3   OH239437   5.377   1.599   2.748
13165TIP3    H139438   5.462   1.601   2.703
13165TIP3    H239439   5.394   1.643   2.832
13166TIP3   OH239440   3.318   0.339   5.916
13166TIP3    H139441   3.345   0.419   5.962
13166TIP3    H239442   3.223   0.337   5.924
13167TIP3   OH239443   3.151   0.755   6.503
13167TIP3    H139444   3.192   0.737   6.418
13167TIP3    H239445   3.117   0.669   6.531
13168TIP3   OH239446   3.742   6.225   4.518
13168TIP3    H139447   3.664   6.179   4.549
13168TIP3    H239448   3.814   6.164   4.534
13169TIP3   OH239449   0.667   7.830   6.738
13169TIP3    H139450   0.699   7.901   6.793
13169TIP3    H239451   0.635   7.872   6.659
13170TIP3   OH239452   4.875   5.796   0.482
13170TIP3    H139453   4.869   5.810   0.576
13170TIP3    H239454   4.826   5.715   0.466
13171TIP3   OH239455   0.674   5.986   2.292
13171TIP3    H139456   0.704   5.917   2.350
13171TIP3    H239457   0.605   5.945   2.239
13172TIP3   OH239458   0.022   6.111   4.480
13172TIP3    H139459   0.068   6.133   4.399
13172TIP3    H239460   0.086   6.125   4.549
13173TIP3   OH239461   6.217   4.917   0.720
13173TIP3    H139462   6.160   4.901   0.645
13173TIP3    H239463   6.178   4.992   0.764
13174TIP3   OH239464   5.489   3.043   6.377
13174TIP3    H139465   5.508   3.101   6.303
13174TIP3    H239466   5.550   2.971   6.366
13175TIP3   OH239467   3.842   5.638   2.387
13175TIP3    H139468   3.878   5.572   2.446
13175TIP3    H239469   3.773   5.592   2.339
13176TIP3   OH239470   6.341   7.099   5.932
13176TIP3    H139471   6.247   7.088   5.917
13176TIP3    H239472   6.366   7.172   5.875
13177TIP3   OH239473   7.166   1.879   2.874
13177TIP3    H139474   7.077   1.906   2.896
13177TIP3    H239475   7.222   1.945   2.916
13178TIP3   OH239476   4.286   3.435   1.992
13178TIP3    H139477   4.331   3.456   1.910
13178TIP3    H239478   4.309   3.343   2.009
13179TIP3   OH239479   0.353   6.357   6.464
13179TIP3    H139480   0.295   6.282   6.475
13179TIP3    H239481   0.303   6.420   6.412
13180TIP3   OH239482   5.139   3.961   4.184
13180TIP3    H139483   5.081   3.919   4.120
13180TIP3    H239484   5.104   3.935   4.269
13181TIP3   OH239485   7.438   6.606   4.881
13181TIP3    H139486   7.346   6.586   4.863
13181TIP3    H239487   7.452   6.692   4.839
13182TIP3   OH239488   5.919   6.959   2.204
13182TIP3    H139489   5.892   6.926   2.118
13182TIP3    H239490   5.973   6.890   2.241
13183TIP3   OH239491   4.464   1.321   3.099
13183TIP3    H139492   4.389   1.337   3.042
13183TIP3    H239493   4.484   1.407   3.137
13184TIP3   OH239494   7.204   7.303   0.466
13184TIP3    H139495   7.278   7.322   0.408
13184TIP3    H239496   7.202   7.377   0.527
13185TIP3   OH239497   0.345   0.233   5.439
13185TIP3    H139498   0.337   0.324   5.469
13185TIP3    H239499   0.439   0.220   5.427
13186TIP3   OH239500   7.951   4.551   0.276
13186TIP3    H139501   8.032   4.538   0.226
13186TIP3    H239502   7.961   4.637   0.316
13187TIP3   OH239503   2.752   1.771   5.341
13187TIP3    H139504   2.785   1.685   5.370
13187TIP3    H239505   2.784   1.832   5.407
13188TIP3   OH239506   2.369   0.322   4.751
13188TIP3    H139507   2.421   0.399   4.773
13188TIP3    H239508   2.418   0.278   4.682
13189TIP3   OH239509   5.080   0.391   3.361
13189TIP3    H139510   5.012   0.449   3.395
13189TIP3    H239511   5.162   0.431   3.388
13190TIP3   OH239512   1.985   4.889   2.697
13190TIP3    H139513   1.955   4.829   2.766
13190TIP3    H239514   1.905   4.917   2.653
13191TIP3   OH239515   7.496   5.388   1.756
13191TIP3    H139516   7.557   5.462   1.759
13191TIP3    H239517   7.419   5.420   1.804
13192TIP3   OH239518   0.797   5.492   3.918
13192TIP3    H139519   0.718   5.471   3.968
13192TIP3    H239520   0.838   5.407   3.901
13193TIP3   OH239521   3.796   2.274   3.521
13193TIP3    H139522   3.728   2.328   3.562
13193TIP3    H239523   3.876   2.298   3.566
13194TIP3   OH239524   7.272   6.137   2.836
13194TIP3    H139525   7.364   6.162   2.822
13194TIP3    H239526   7.263   6.132   2.931
13195TIP3   OH239527   0.117   1.846   1.479
13195TIP3    H139528   0.123   1.885   1.566
13195TIP3    H239529   0.208   1.839   1.449
13196TIP3   OH239530   6.263   5.025   3.428
13196TIP3    H139531   6.186   5.061   3.384
13196TIP3    H239532   6.230   4.951   3.478
13197TIP3   OH239533   1.601   7.443   3.499
13197TIP3    H139534   1.526   7.418   3.446
13197TIP3    H239535   1.610   7.537   3.486
13198TIP3   OH239536   6.612   7.286   4.860
13198TIP3    H139537   6.636   7.283   4.767
13198TIP3    H239538   6.535   7.343   4.862
13199TIP3   OH239539   1.132   3.301   1.712
13199TIP3    H139540   1.223   3.310   1.683
13199TIP3    H239541   1.098   3.390   1.715
13200TIP3   OH239542   5.806   4.248   1.352
13200TIP3    H139543   5.823   4.320   1.412
13200TIP3    H239544   5.743   4.284   1.289
13201TIP3   OH239545   1.533   6.470   6.511
13201TIP3    H139546   1.622   6.507   6.514
13201TIP3    H239547   1.499   6.482   6.599
13202TIP3   OH239548   3.934   1.632   6.051
13202TIP3    H139549   3.939   1.707   6.110
13202TIP3    H239550   3.841   1.626   6.029
13203TIP3   OH239551   6.590   3.773   5.657
13203TIP3    H139552   6.587   3.750   5.564
13203TIP3    H239553   6.671   3.823   5.667
13204TIP3   OH239554   2.255   4.350   4.744
13204TIP3    H139555   2.264   4.406   4.820
13204TIP3    H239556   2.176   4.299   4.760
13205TIP3   OH239557   2.251   4.352   2.908
13205TIP3    H139558   2.198   4.272   2.909
13205TIP3    H239559   2.227   4.395   2.826
13206TIP3   OH239560   2.675   5.317   2.684
13206TIP3    H139561   2.585   5.348   2.682
13206TIP3    H239562   2.723   5.384   2.733
13207TIP3   OH239563   4.941   2.564   3.463
13207TIP3    H139564   4.894   2.510   3.399
13207TIP3    H239565   5.007   2.506   3.499
13208TIP3   OH239566   2.774   2.585   3.210
13208TIP3    H139567   2.863   2.550   3.206
13208TIP3    H239568   2.782   2.665   3.262
13209TIP3   OH239569   5.576   1.856   0.193
13209TIP3    H139570   5.489   1.856   0.234
13209TIP3    H239571   5.615   1.939   0.220
13210TIP3   OH239572   1.754   3.101   5.272
13210TIP3    H139573   1.671   3.139   5.240
13210TIP3    H239574   1.762   3.135   5.361
13211TIP3   OH239575   0.475   6.156   0.973
13211TIP3    H139576   0.479   6.230   1.033
13211TIP3    H239577   0.546   6.098   1.002
13212TIP3   OH239578   6.852   6.501   2.291
13212TIP3    H139579   6.791   6.460   2.352
13212TIP3    H239580   6.933   6.512   2.341
13213TIP3   OH239581   3.600   0.844   2.739
13213TIP3    H139582   3.581   0.849   2.833
13213TIP3    H239583   3.588   0.934   2.708
13214TIP3   OH239584   3.950   5.981   1.134
13214TIP3    H139585   3.916   5.973   1.223
13214TIP3    H239586   3.874   6.000   1.080
13215TIP3   OH239587   4.828   2.844   0.261
13215TIP3    H139588   4.847   2.754   0.234
13215TIP3    H239589   4.825   2.841   0.356
13216TIP3   OH239590   3.562   3.609   5.990
13216TIP3    H139591   3.540   3.519   5.966
13216TIP3    H239592   3.484   3.641   6.035
13217TIP3   OH239593   0.877   6.437   2.406
13217TIP3    H139594   0.830   6.410   2.485
13217TIP3    H239595   0.821   6.408   2.334
13218TIP3   OH239596   6.859   3.278   4.465
13218TIP3    H139597   6.870   3.371   4.486
13218TIP3    H239598   6.803   3.244   4.535
13219TIP3   OH239599   5.892   3.449   1.436
13219TIP3    H139600   5.868   3.358   1.423
13219TIP3    H239601   5.811   3.498   1.419
13220TIP3   OH239602   7.083   4.187   6.432
13220TIP3    H139603   7.036   4.135   6.497
13220TIP3    H239604   7.176   4.168   6.450
13221TIP3   OH239605   1.556   3.089   0.841
13221TIP3    H139606   1.649   3.088   0.816
13221TIP3    H239607   1.509   3.078   0.758
13222TIP3   OH239608   4.297   5.381   2.343
13222TIP3    H139609   4.391   5.368   2.336
13222TIP3    H239610   4.271   5.419   2.259
13223TIP3   OH239611   0.423   0.569   4.083
13223TIP3    H139612   0.467   0.574   3.997
13223TIP3    H239613   0.462   0.640   4.133
13224TIP3   OH239614   0.912   6.802   6.031
13224TIP3    H139615   0.863   6.842   5.959
13224TIP3    H239616   0.852   6.806   6.105
13225TIP3   OH239617   3.434   2.536   0.790
13225TIP3    H139618   3.342   2.550   0.814
13225TIP3    H239619   3.431   2.479   0.714
13226TIP3   OH239620   4.964   7.008   4.762
13226TIP3    H139621   4.961   7.058   4.681
13226TIP3    H239622   4.921   6.925   4.742
13227TIP3   OH239623   1.209   6.986   1.300
13227TIP3    H139624   1.254   6.902   1.308
13227TIP3    H239625   1.261   7.047   1.354
13228TIP3   OH239626   1.330   7.174   1.066
13228TIP3    H139627   1.278   7.112   1.119
13228TIP3    H239628   1.265   7.224   1.017
13229TIP3   OH239629   7.691   4.121   6.666
13229TIP3    H139630   7.784   4.123   6.689
13229TIP3    H239631   7.677   4.203   6.619
13230TIP3   OH239632   4.329   5.979   2.950
13230TIP3    H139633   4.248   5.965   2.999
13230TIP3    H239634   4.396   5.934   3.003
13231TIP3   OH239635   1.956   1.492   4.372
13231TIP3    H139636   1.915   1.492   4.285
13231TIP3    H239637   1.940   1.404   4.406
13232TIP3   OH239638   7.110   7.713   6.690
13232TIP3    H139639   7.039   7.711   6.754
13232TIP3    H239640   7.160   7.791   6.712
13233TIP3   OH239641   7.329   6.801   0.744
13233TIP3    H139642   7.252   6.820   0.691
13233TIP3    H239643   7.308   6.837   0.831
13234TIP3   OH239644   1.176   6.660   6.709
13234TIP3    H139645   1.138   6.644   6.622
13234TIP3    H239646   1.264   6.624   6.703
13235TIP3   OH239647   2.983   7.310   6.094
13235TIP3    H139648   2.890   7.332   6.087
13235TIP3    H239649   3.028   7.385   6.053
13236TIP3   OH239650   6.768  -0.033   1.409
13236TIP3    H139651   6.788   0.055   1.377
13236TIP3    H239652   6.747  -0.082   1.330
13237TIP3   OH239653   2.581   4.917   5.681
13237TIP3    H139654   2.513   4.965   5.634
13237TIP3    H239655   2.611   4.851   5.618
13238TIP3   OH239656   5.826   6.049   3.614
13238TIP3    H139657   5.897   5.992   3.584
13238TIP3    H239658   5.867   6.107   3.679
13239TIP3   OH239659   6.124   0.858   3.907
13239TIP3    H139660   6.162   0.797   3.843
13239TIP3    H239661   6.097   0.933   3.855
13240TIP3   OH239662   1.164   4.773   3.337
13240TIP3    H139663   1.258   4.763   3.327
13240TIP3    H239664   1.152   4.865   3.361
13241TIP3   OH239665   4.109   0.122   1.714
13241TIP3    H139666   4.085   0.215   1.719
13241TIP3    H239667   4.143   0.101   1.801
13242TIP3   OH239668   6.907   2.548  -0.046
13242TIP3    H139669   6.911   2.509   0.041
13242TIP3    H239670   6.846   2.493  -0.095
13243TIP3   OH239671   1.729   0.423   3.085
13243TIP3    H139672   1.777   0.340   3.092
13243TIP3    H239673   1.762   0.475   3.158
13244TIP3   OH239674   4.552   0.189   1.571
13244TIP3    H139675   4.518   0.159   1.487
13244TIP3    H239676   4.637   0.146   1.580
13245TIP3   OH239677   1.127   5.734   3.344
13245TIP3    H139678   1.088   5.820   3.360
13245TIP3    H239679   1.219   5.745   3.367
13246TIP3   OH239680   7.838   7.834   2.886
13246TIP3    H139681   7.806   7.746   2.904
13246TIP3    H239682   7.886   7.825   2.803
13247TIP3   OH239683   2.590   5.654   0.557
13247TIP3    H139684   2.592   5.586   0.489
13247TIP3    H239685   2.680   5.685   0.563
13248TIP3   OH239686   0.495   3.657   1.032
13248TIP3    H139687   0.567   3.668   1.094
13248TIP3    H239688   0.538   3.659   0.946
13249TIP3   OH239689   3.051   1.319   0.356
13249TIP3    H139690   3.006   1.241   0.323
13249TIP3    H239691   3.128   1.284   0.402
13250TIP3   OH239692   1.334   7.491   6.224
13250TIP3    H139693   1.430   7.493   6.223
13250TIP3    H239694   1.311   7.434   6.150
13251TIP3   OH239695   5.791   7.034   1.657
13251TIP3    H139696   5.852   6.974   1.614
13251TIP3    H239697   5.719   7.044   1.595
13252TIP3   OH239698   7.156   0.234   5.779
13252TIP3    H139699   7.225   0.297   5.762
13252TIP3    H239700   7.189   0.180   5.851
13253TIP3   OH239701   4.191   5.112   3.830
13253TIP3    H139702   4.168   5.153   3.747
13253TIP3    H239703   4.122   5.141   3.891
13254TIP3   OH239704   5.992   5.914   4.803
13254TIP3    H139705   5.905   5.910   4.842
13254TIP3    H239706   6.010   5.825   4.773
13255TIP3   OH239707   5.760   5.828   4.915
13255TIP3    H139708   5.762   5.742   4.871
13255TIP3    H239709   5.736   5.808   5.005
13256TIP3   OH239710   0.403   2.000   1.733
13256TIP3    H139711   0.397   1.978   1.640
13256TIP3    H239712   0.494   1.982   1.756
13257TIP3   OH239713   4.342   3.120   1.197
13257TIP3    H139714   4.423   3.126   1.247
13257TIP3    H239715   4.341   3.200   1.143
13258TIP3   OH239716   7.589   7.785   4.378
13258TIP3    H139717   7.663   7.784   4.439
13258TIP3    H239718   7.615   7.849   4.311
13259TIP3   OH239719   1.953   5.066   6.480
13259TIP3    H139720   1.933   5.106   6.564
13259TIP3    H239721   1.895   5.109   6.418
13260TIP3   OH239722   3.009   2.277   4.101
13260TIP3    H139723   3.022   2.230   4.019
13260TIP3    H239724   3.017   2.210   4.169
13261TIP3   OH239725   1.085   2.456   1.651
13261TIP3    H139726   1.113   2.447   1.560
13261TIP3    H239727   0.994   2.426   1.651
13262TIP3   OH239728   0.487   6.142   5.623
13262TIP3    H139729   0.394   6.121   5.634
13262TIP3    H239730   0.489   6.236   5.605
13263TIP3   OH239731   5.418   4.487   4.984
13263TIP3    H139732   5.492   4.456   5.037
13263TIP3    H239733   5.395   4.412   4.929
13264TIP3   OH239734   5.544   1.468   0.769
13264TIP3    H139735   5.553   1.431   0.681
13264TIP3    H239736   5.512   1.556   0.755
13265TIP3   OH239737   6.380   2.020   5.194
13265TIP3    H139738   6.322   1.972   5.135
13265TIP3    H239739   6.325   2.042   5.269
13266TIP3   OH239740   1.850   6.421   1.721
13266TIP3    H139741   1.796   6.342   1.716
13266TIP3    H239742   1.939   6.390   1.705
13267TIP3   OH239743   6.895   3.836   5.686
13267TIP3    H139744   6.966   3.897   5.666
13267TIP3    H239745   6.936   3.769   5.742
13268TIP3   OH239746   4.346   3.462   2.775
13268TIP3    H139747   4.414   3.400   2.801
13268TIP3    H239748   4.297   3.418   2.706
13269TIP3   OH239749   2.850   6.639   4.447
13269TIP3    H139750   2.834   6.595   4.531
13269TIP3    H239751   2.917   6.705   4.469
13270TIP3   OH239752   6.311   2.188   3.538
13270TIP3    H139753   6.396   2.157   3.508
13270TIP3    H239754   6.249   2.159   3.471
13271TIP3   OH239755   1.478   0.779   5.909
13271TIP3    H139756   1.528   0.859   5.923
13271TIP3    H239757   1.387   0.806   5.918
13272TIP3   OH239758   1.281   5.875   2.508
13272TIP3    H139759   1.348   5.928   2.551
13272TIP3    H239760   1.245   5.932   2.440
13273TIP3   OH239761   8.100   4.986   5.145
13273TIP3    H139762   8.130   5.049   5.210
13273TIP3    H239763   8.011   4.962   5.173
13274TIP3   OH239764   2.538   6.865   0.100
13274TIP3    H139765   2.520   6.931   0.167
13274TIP3    H239766   2.466   6.803   0.108
13275TIP3   OH239767   2.555   5.836   0.238
13275TIP3    H139768   2.651   5.833   0.242
13275TIP3    H239769   2.530   5.745   0.222
13276TIP3   OH239770   0.721   2.571   4.929
13276TIP3    H139771   0.686   2.660   4.929
13276TIP3    H239772   0.712   2.542   4.838
13277TIP3   OH239773   3.322   1.256   5.024
13277TIP3    H139774   3.230   1.276   5.006
13277TIP3    H239775   3.329   1.161   5.009
13278TIP3   OH239776   0.481   4.094   1.689
13278TIP3    H139777   0.538   4.067   1.618
13278TIP3    H239778   0.392   4.073   1.659
13279TIP3   OH239779   6.014   7.157   2.038
13279TIP3    H139780   5.994   7.089   2.103
13279TIP3    H239781   5.976   7.124   1.956
13280TIP3   OH239782   4.977   7.535   3.529
13280TIP3    H139783   4.986   7.520   3.623
13280TIP3    H239784   4.941   7.623   3.522
13281TIP3   OH239785   3.812   2.210   2.229
13281TIP3    H139786   3.803   2.257   2.312
13281TIP3    H239787   3.788   2.274   2.163
13282TIP3   OH239788   6.468   3.429   3.084
13282TIP3    H139789   6.501   3.471   3.164
13282TIP3    H239790   6.547   3.400   3.039
13283TIP3   OH239791   1.080   5.627   2.138
13283TIP3    H139792   1.084   5.665   2.226
13283TIP3    H239793   1.021   5.552   2.147
13284TIP3   OH239794   8.165   5.842   4.499
13284TIP3    H139795   8.205   5.885   4.424
13284TIP3    H239796   8.239   5.803   4.546
13285TIP3   OH239797   6.485   4.727   1.080
13285TIP3    H139798   6.569   4.772   1.075
13285TIP3    H239799   6.466   4.702   0.989
13286TIP3   OH239800   6.642   0.668   4.652
13286TIP3    H139801   6.624   0.696   4.563
13286TIP3    H239802   6.570   0.704   4.703
13287TIP3   OH239803   0.719   3.307   0.186
13287TIP3    H139804   0.681   3.320   0.273
13287TIP3    H239805   0.675   3.228   0.153
13288TIP3   OH239806   6.337   1.852   3.308
13288TIP3    H139807   6.376   1.780   3.259
13288TIP3    H239808   6.261   1.879   3.256
13289TIP3   OH239809   8.250   7.272   3.566
13289TIP3    H139810   8.156   7.283   3.547
13289TIP3    H239811   8.279   7.359   3.592
13290TIP3   OH239812   8.007   6.766   2.563
13290TIP3    H139813   8.044   6.772   2.651
13290TIP3    H239814   8.035   6.847   2.520
13291TIP3   OH239815   5.657   6.162   6.517
13291TIP3    H139816   5.590   6.121   6.462
13291TIP3    H239817   5.636   6.132   6.605
13292TIP3   OH239818   0.187   4.674   2.734
13292TIP3    H139819   0.250   4.655   2.664
13292TIP3    H239820   0.198   4.767   2.752
13293TIP3   OH239821   7.546   3.361   0.679
13293TIP3    H139822   7.526   3.445   0.638
13293TIP3    H239823   7.572   3.305   0.606
13294TIP3   OH239824   7.646   6.813   4.533
13294TIP3    H139825   7.718   6.751   4.537
13294TIP3    H239826   7.654   6.866   4.612
13295TIP3   OH239827   4.420   7.498   1.897
13295TIP3    H139828   4.384   7.582   1.927
13295TIP3    H239829   4.347   7.454   1.854
13296TIP3   OH239830   2.218   7.105   1.579
13296TIP3    H139831   2.168   7.140   1.505
13296TIP3    H239832   2.304   7.085   1.543
13297TIP3   OH239833   4.925   7.167   5.621
13297TIP3    H139834   5.005   7.123   5.592
13297TIP3    H239835   4.918   7.145   5.714
13298TIP3   OH239836   3.111   7.191   4.366
13298TIP3    H139837   3.123   7.129   4.294
13298TIP3    H239838   3.199   7.226   4.383
13299TIP3   OH239839   2.808   0.733   4.246
13299TIP3    H139840   2.890   0.753   4.291
13299TIP3    H239841   2.746   0.798   4.279
13300TIP3   OH239842   3.794   4.637   5.345
13300TIP3    H139843   3.857   4.701   5.378
13300TIP3    H239844   3.821   4.554   5.385
13301TIP3   OH239845   7.219   7.286   5.582
13301TIP3    H139846   7.235   7.201   5.541
13301TIP3    H239847   7.306   7.317   5.608
13302TIP3   OH239848   0.500   4.538   6.359
13302TIP3    H139849   0.412   4.506   6.339
13302TIP3    H239850   0.498   4.556   6.453
13303TIP3   OH239851   7.293   2.665   4.078
13303TIP3    H139852   7.360   2.673   4.146
13303TIP3    H239853   7.232   2.599   4.112
13304TIP3   OH239854   6.660   5.457   2.746
13304TIP3    H139855   6.617   5.495   2.670
13304TIP3    H239856   6.741   5.508   2.756
13305TIP3   OH239857   4.287   1.826   2.238
13305TIP3    H139858   4.304   1.762   2.307
13305TIP3    H239859   4.198   1.856   2.254
13306TIP3   OH239860   2.453   3.867   1.691
13306TIP3    H139861   2.429   3.876   1.783
13306TIP3    H239862   2.471   3.956   1.662
13307TIP3   OH239863   0.422   2.372   2.292
13307TIP3    H139864   0.394   2.463   2.300
13307TIP3    H239865   0.514   2.373   2.317
13308TIP3   OH239866   4.164   2.082   0.394
13308TIP3    H139867   4.206   2.090   0.480
13308TIP3    H239868   4.181   2.165   0.351
13309TIP3   OH239869   6.904   0.170   4.134
13309TIP3    H139870   6.951   0.109   4.076
13309TIP3    H239871   6.813   0.140   4.131
13310TIP3   OH239872   2.892   3.748   2.201
13310TIP3    H139873   2.853   3.764   2.287
13310TIP3    H239874   2.840   3.801   2.140
13311TIP3   OH239875   7.306   6.878   5.648
13311TIP3    H139876   7.368   6.947   5.671
13311TIP3    H239877   7.356   6.817   5.595
13312TIP3   OH239878   7.605   2.027   4.787
13312TIP3    H139879   7.517   2.048   4.757
13312TIP3    H239880   7.626   1.944   4.744
13313TIP3   OH239881   7.171   5.260   4.017
13313TIP3    H139882   7.148   5.179   4.063
13313TIP3    H239883   7.264   5.249   3.995
13314TIP3   OH239884   2.363   6.919   0.784
13314TIP3    H139885   2.297   6.930   0.852
13314TIP3    H239886   2.334   6.975   0.712
13315TIP3   OH239887   6.049   7.278   5.609
13315TIP3    H139888   6.064   7.359   5.560
13315TIP3    H239889   6.080   7.208   5.551
13316TIP3   OH239890   6.154   7.046   1.050
13316TIP3    H139891   6.111   7.094   0.979
13316TIP3    H239892   6.160   7.110   1.121
13317TIP3   OH239893   5.872   4.165   2.270
13317TIP3    H139894   5.939   4.202   2.328
13317TIP3    H239895   5.871   4.223   2.194
13318TIP3   OH239896   7.646   2.907   3.878
13318TIP3    H139897   7.651   2.991   3.925
13318TIP3    H239898   7.638   2.932   3.786
13319TIP3   OH239899   5.868   5.157   0.074
13319TIP3    H139900   5.807   5.083   0.064
13319TIP3    H239901   5.878   5.168   0.168
13320TIP3   OH239902   5.923   5.262   3.057
13320TIP3    H139903   5.955   5.180   3.019
13320TIP3    H239904   5.840   5.278   3.013
13321TIP3   OH239905   5.351   6.148   1.568
13321TIP3    H139906   5.339   6.243   1.563
13321TIP3    H239907   5.282   6.119   1.628
13322TIP3   OH239908   3.657   5.244   2.679
13322TIP3    H139909   3.635   5.174   2.740
13322TIP3    H239910   3.740   5.217   2.641
13323TIP3   OH239911   6.360   0.115   2.211
13323TIP3    H139912   6.351   0.052   2.282
13323TIP3    H239913   6.305   0.188   2.237
13324TIP3   OH239914   2.866   7.040   4.749
13324TIP3    H139915   2.904   6.989   4.678
13324TIP3    H239916   2.936   7.099   4.776
13325TIP3   OH239917   3.279   6.308   5.778
13325TIP3    H139918   3.186   6.326   5.772
13325TIP3    H239919   3.318   6.360   5.708
13326TIP3   OH239920   2.868   0.738   2.605
13326TIP3    H139921   2.829   0.826   2.604
13326TIP3    H239922   2.886   0.719   2.513
13327TIP3   OH239923   3.067   5.158   6.663
13327TIP3    H139924   3.107   5.074   6.684
13327TIP3    H239925   3.083   5.170   6.569
13328TIP3   OH239926   7.608   0.581   0.635
13328TIP3    H139927   7.528   0.534   0.613
13328TIP3    H239928   7.679   0.523   0.607
13329TIP3   OH239929   1.247   5.825   6.051
13329TIP3    H139930   1.334   5.858   6.028
13329TIP3    H239931   1.264   5.760   6.119
13330TIP3   OH239932   8.250   7.063   4.930
13330TIP3    H139933   8.302   6.991   4.966
13330TIP3    H239934   8.181   7.078   4.994
13331TIP3   OH239935   2.135   4.261   2.529
13331TIP3    H139936   2.073   4.255   2.602
13331TIP3    H239937   2.104   4.336   2.478
13332TIP3   OH239938   6.505   7.270   5.426
13332TIP3    H139939   6.590   7.312   5.438
13332TIP3    H239940   6.503   7.201   5.493
13333TIP3   OH239941   3.626   6.786   4.391
13333TIP3    H139942   3.599   6.825   4.308
13333TIP3    H239943   3.667   6.703   4.366
13334TIP3   OH239944   2.742   4.211   3.244
13334TIP3    H139945   2.711   4.166   3.322
13334TIP3    H239946   2.788   4.288   3.277
13335TIP3   OH239947   1.930   3.281   0.225
13335TIP3    H139948   1.855   3.257   0.170
13335TIP3    H239949   1.955   3.368   0.194
13336TIP3   OH239950   0.120   0.212   6.615
13336TIP3    H139951   0.030   0.207   6.584
13336TIP3    H239952   0.117   0.177   6.704
13337TIP3   OH239953   6.881   4.817   3.961
13337TIP3    H139954   6.923   4.852   3.883
13337TIP3    H239955   6.795   4.858   3.963
13338TIP3   OH239956   5.552   3.434   1.205
13338TIP3    H139957   5.599   3.508   1.243
13338TIP3    H239958   5.537   3.375   1.279
13339TIP3   OH239959   4.904   4.787   5.890
13339TIP3    H139960   4.855   4.723   5.837
13339TIP3    H239961   4.876   4.771   5.980
13340TIP3   OH239962   3.837   6.796   1.168
13340TIP3    H139963   3.792   6.775   1.087
13340TIP3    H239964   3.890   6.718   1.187
13341TIP3   OH239965   1.046   0.371   1.348
13341TIP3    H139966   1.068   0.432   1.277
13341TIP3    H239967   1.129   0.328   1.368
13342TIP3   OH239968   5.030   5.470   3.770
13342TIP3    H139969   5.103   5.438   3.717
13342TIP3    H239970   5.054   5.447   3.860
13343TIP3   OH239971   7.579   0.326   0.461
13343TIP3    H139972   7.612   0.314   0.372
13343TIP3    H239973   7.485   0.343   0.449
13344TIP3   OH239974   1.717   7.692   1.584
13344TIP3    H139975   1.727   7.597   1.572
13344TIP3    H239976   1.784   7.730   1.528
13345TIP3   OH239977   0.890   0.650   2.707
13345TIP3    H139978   0.814   0.675   2.655
13345TIP3    H239979   0.904   0.724   2.767
13346TIP3   OH239980   2.877   4.751   1.412
13346TIP3    H139981   2.923   4.667   1.421
13346TIP3    H239982   2.872   4.765   1.318
13347TIP3   OH239983   8.065   3.153   2.264
13347TIP3    H139984   8.135   3.107   2.219
13347TIP3    H239985   8.057   3.109   2.348
13348TIP3   OH239986   8.168   1.641   1.341
13348TIP3    H139987   8.232   1.675   1.280
13348TIP3    H239988   8.084   1.647   1.295
13349TIP3   OH239989   4.393   1.451   1.060
13349TIP3    H139990   4.446   1.509   1.005
13349TIP3    H239991   4.402   1.364   1.019
13350TIP3   OH239992   3.440   5.908   6.156
13350TIP3    H139993   3.411   5.989   6.114
13350TIP3    H239994   3.412   5.917   6.247
13351TIP3   OH239995   2.773   4.542   0.346
13351TIP3    H139996   2.706   4.530   0.279
13351TIP3    H239997   2.795   4.635   0.342
13352TIP3   OH239998   0.910   6.471   1.564
13352TIP3    H139999   0.943   6.560   1.574
13352TIP3    H240000   0.902   6.460   1.469
13353TIP3   OH240001   4.679   7.594   0.364
13353TIP3    H140002   4.741   7.573   0.434
13353TIP3    H240003   4.693   7.687   0.347
13354TIP3   OH240004   4.511   5.105   6.550
13354TIP3    H140005   4.545   5.110   6.461
13354TIP3    H240006   4.423   5.068   6.541
13355TIP3   OH240007   7.747   2.495   4.901
13355TIP3    H140008   7.754   2.456   4.814
13355TIP3    H240009   7.752   2.589   4.887
13356TIP3   OH240010   3.087   6.680   0.623
13356TIP3    H140011   3.095   6.771   0.650
13356TIP3    H240012   3.016   6.645   0.675
13357TIP3   OH240013   4.290   7.171   4.771
13357TIP3    H140014   4.338   7.254   4.773
13357TIP3    H240015   4.248   7.166   4.857
13358TIP3   OH240016   3.750   6.519   0.425
13358TIP3    H140017   3.728   6.523   0.332
13358TIP3    H240018   3.736   6.608   0.457
13359TIP3   OH240019   3.207   5.862   4.232
13359TIP3    H140020   3.267   5.790   4.212
13359TIP3    H240021   3.190   5.903   4.148
13360TIP3   OH240022   3.249   6.724   0.949
13360TIP3    H140023   3.232   6.711   1.042
13360TIP3    H240024   3.203   6.652   0.906
13361TIP3   OH240025   1.095   7.532   1.581
13361TIP3    H140026   1.091   7.627   1.590
13361TIP3    H240027   1.067   7.499   1.666
13362TIP3   OH240028   1.639   6.301   2.066
13362TIP3    H140029   1.622   6.349   2.147
13362TIP3    H240030   1.586   6.346   2.000
13363TIP3   OH240031   0.273   1.145   4.291
13363TIP3    H140032   0.292   1.186   4.375
13363TIP3    H240033   0.325   1.065   4.291
13364TIP3   OH240034   5.982   4.631   2.378
13364TIP3    H140035   6.015   4.647   2.289
13364TIP3    H240036   5.895   4.593   2.364
13365TIP3   OH240037   5.229   1.175   3.409
13365TIP3    H140038   5.272   1.099   3.448
13365TIP3    H240039   5.239   1.244   3.474
13366TIP3   OH240040   6.847   7.706   4.930
13366TIP3    H140041   6.869   7.698   4.837
13366TIP3    H240042   6.917   7.761   4.966
13367TIP3   OH240043   1.165   4.696   2.004
13367TIP3    H140044   1.168   4.783   1.964
13367TIP3    H240045   1.083   4.694   2.052
13368TIP3   OH240046   2.639   5.856   1.926
13368TIP3    H140047   2.613   5.944   1.900
13368TIP3    H240048   2.556   5.811   1.945
13369TIP3   OH240049   7.269   5.386   0.160
13369TIP3    H140050   7.300   5.354   0.075
13369TIP3    H240051   7.234   5.309   0.203
13370TIP3   OH240052   5.340   6.343   3.170
13370TIP3    H140053   5.299   6.374   3.089
13370TIP3    H240054   5.282   6.275   3.203
13371TIP3   OH240055   7.825   7.313   0.186
13371TIP3    H140056   7.764   7.289   0.117
13371TIP3    H240057   7.810   7.407   0.199
13372TIP3   OH240058   2.223   4.178   3.721
13372TIP3    H140059   2.207   4.109   3.785
13372TIP3    H240060   2.226   4.258   3.772
13373TIP3   OH240061   2.697   7.023   6.257
13373TIP3    H140062   2.727   7.090   6.318
13373TIP3    H240063   2.771   7.009   6.198
13374TIP3   OH240064   5.645   0.705   6.270
13374TIP3    H140065   5.692   0.644   6.212
13374TIP3    H240066   5.567   0.730   6.221
13375TIP3   OH240067   4.087   5.752   0.110
13375TIP3    H140068   4.110   5.750   0.017
13375TIP3    H240069   4.010   5.695   0.116
13376TIP3   OH240070   8.245   3.693   1.355
13376TIP3    H140071   8.306   3.633   1.398
13376TIP3    H240072   8.268   3.779   1.390
13377TIP3   OH240073   5.872   5.192   2.434
13377TIP3    H140074   5.845   5.102   2.415
13377TIP3    H240075   5.841   5.243   2.358
13378TIP3   OH240076   7.287   4.129   1.262
13378TIP3    H140077   7.314   4.041   1.235
13378TIP3    H240078   7.217   4.153   1.202
13379TIP3   OH240079   7.390   0.650   2.201
13379TIP3    H140080   7.354   0.631   2.114
13379TIP3    H240081   7.341   0.593   2.260
13380TIP3   OH240082   0.527   6.495   4.761
13380TIP3    H140083   0.435   6.519   4.772
13380TIP3    H240084   0.575   6.572   4.793
13381TIP3   OH240085   1.907   2.197   5.807
13381TIP3    H140086   1.865   2.111   5.814
13381TIP3    H240087   1.944   2.197   5.719
13382TIP3   OH240088   5.867   6.956   1.899
13382TIP3    H140089   5.927   6.883   1.885
13382TIP3    H240090   5.834   6.977   1.811
13383TIP3   OH240091   5.969   3.135   2.474
13383TIP3    H140092   5.999   3.060   2.525
13383TIP3    H240093   6.049   3.169   2.433
13384TIP3   OH240094   3.339   6.033   4.761
13384TIP3    H140095   3.259   6.030   4.708
13384TIP3    H240096   3.335   5.954   4.815
13385TIP3   OH240097   7.689   3.183   5.977
13385TIP3    H140098   7.610   3.215   5.933
13385TIP3    H240099   7.761   3.210   5.920
13386TIP3   OH240100   3.210   0.306   0.107
13386TIP3    H140101   3.142   0.324   0.172
13386TIP3    H240102   3.196   0.215   0.081
13387TIP3   OH240103   5.264   3.158   6.102
13387TIP3    H140104   5.343   3.103   6.092
13387TIP3    H240105   5.215   3.143   6.021
13388TIP3   OH240106   4.029   3.193   4.374
13388TIP3    H140107   4.100   3.162   4.429
13388TIP3    H240108   3.959   3.128   4.386
13389TIP3   OH240109   5.205   0.271   0.261
13389TIP3    H140110   5.210   0.356   0.218
13389TIP3    H240111   5.131   0.227   0.219
13390TIP3   OH240112   6.209   4.454   5.877
13390TIP3    H140113   6.286   4.510   5.869
13390TIP3    H240114   6.231   4.376   5.825
13391TIP3   OH240115   4.323   6.821   4.423
13391TIP3    H140116   4.277   6.893   4.465
13391TIP3    H240117   4.406   6.814   4.471
13392TIP3   OH240118   2.279   3.495   4.978
13392TIP3    H140119   2.302   3.436   4.905
13392TIP3    H240120   2.353   3.488   5.038
13393TIP3   OH240121   0.798   1.119   5.357
13393TIP3    H140122   0.883   1.077   5.364
13393TIP3    H240123   0.764   1.121   5.447
13394TIP3   OH240124   7.291   5.311   5.119
13394TIP3    H140125   7.207   5.271   5.097
13394TIP3    H240126   7.311   5.279   5.207
13395TIP3   OH240127   1.965   4.636   1.518
13395TIP3    H140128   2.003   4.663   1.435
13395TIP3    H240129   2.011   4.688   1.584
13396TIP3   OH240130   2.791   7.325   6.411
13396TIP3    H140131   2.839   7.380   6.473
13396TIP3    H240132   2.739   7.387   6.359
13397TIP3   OH240133   6.753   5.622   0.039
13397TIP3    H140134   6.826   5.661   0.087
13397TIP3    H240135   6.785   5.613  -0.051
13398TIP3   OH240136   0.412   0.031   0.057
13398TIP3    H140137   0.386  -0.039   0.116
13398TIP3    H240138   0.331   0.080   0.040
13399TIP3   OH240139   0.283   2.202   0.892
13399TIP3    H140140   0.336   2.258   0.948
13399TIP3    H240141   0.268   2.123   0.944
13400TIP3   OH240142   0.647   3.877   5.576
13400TIP3    H140143   0.714   3.899   5.640
13400TIP3    H240144   0.633   3.958   5.528
13401TIP3   OH240145   0.441   2.717   1.204
13401TIP3    H140146   0.528   2.706   1.167
13401TIP3    H240147   0.409   2.628   1.219
13402TIP3   OH240148   3.914   4.522   3.002
13402TIP3    H140149   3.948   4.434   3.018
13402TIP3    H240150   3.872   4.517   2.916
13403TIP3   OH240151   1.882   5.234   1.649
13403TIP3    H140152   1.954   5.288   1.684
13403TIP3    H240153   1.814   5.297   1.627
13404TIP3   OH240154   1.326   0.609   3.051
13404TIP3    H140155   1.329   0.514   3.061
13404TIP3    H240156   1.337   0.643   3.140
13405TIP3   OH240157   8.015   7.776   1.773
13405TIP3    H140158   8.097   7.731   1.751
13405TIP3    H240159   7.999   7.754   1.864
13406TIP3   OH240160   0.869   3.598   0.670
13406TIP3    H140161   0.847   3.687   0.700
13406TIP3    H240162   0.961   3.587   0.693
13407TIP3   OH240163   2.381   7.432   0.009
13407TIP3    H140164   2.417   7.512   0.047
13407TIP3    H240165   2.457   7.375  -0.005
13408TIP3   OH240166   3.184   7.371   3.136
13408TIP3    H140167   3.174   7.277   3.147
13408TIP3    H240168   3.098   7.407   3.159
13409TIP3   OH240169   6.771   4.750   1.506
13409TIP3    H140170   6.765   4.761   1.411
13409TIP3    H240171   6.693   4.699   1.529
13410TIP3   OH240172   2.947   1.741   5.075
13410TIP3    H140173   2.994   1.695   5.145
13410TIP3    H240174   2.921   1.824   5.115
13411TIP3   OH240175   0.128   7.276   4.064
13411TIP3    H140176   0.205   7.316   4.106
13411TIP3    H240177   0.123   7.188   4.103
13412TIP3   OH240178   2.966   3.821   0.347
13412TIP3    H140179   2.995   3.902   0.388
13412TIP3    H240180   2.881   3.842   0.308
13413TIP3   OH240181   2.172   1.064   5.181
13413TIP3    H140182   2.223   1.132   5.137
13413TIP3    H240183   2.094   1.110   5.213
13414TIP3   OH240184   6.871   4.867   2.669
13414TIP3    H140185   6.782   4.833   2.658
13414TIP3    H240186   6.881   4.878   2.764
13415TIP3   OH240187   4.030   7.129   1.753
13415TIP3    H140188   3.991   7.149   1.667
13415TIP3    H240189   4.068   7.042   1.742
13416TIP3   OH240190   2.017   2.197   5.521
13416TIP3    H140191   1.947   2.153   5.473
13416TIP3    H240192   2.001   2.290   5.506
13417TIP3   OH240193   0.125   1.386   6.780
13417TIP3    H140194   0.155   1.327   6.849
13417TIP3    H240195   0.201   1.396   6.723
13418TIP3   OH240196   3.087   3.198   3.331
13418TIP3    H140197   3.135   3.273   3.295
13418TIP3    H240198   2.995   3.221   3.317
13419TIP3   OH240199   8.048   1.389   2.848
13419TIP3    H140200   8.072   1.446   2.921
13419TIP3    H240201   7.962   1.421   2.820
13420TIP3   OH240202   6.436   3.972   2.953
13420TIP3    H140203   6.347   3.939   2.969
13420TIP3    H240204   6.451   4.035   3.024
13421TIP3   OH240205   1.470   0.633   3.627
13421TIP3    H140206   1.532   0.589   3.686
13421TIP3    H240207   1.525   0.685   3.569
13422TIP3   OH240208   7.981   5.261   5.262
13422TIP3    H140209   7.916   5.215   5.316
13422TIP3    H240210   7.971   5.353   5.286
13423TIP3   OH240211   6.425   0.427   5.994
13423TIP3    H140212   6.497   0.460   5.940
13423TIP3    H240213   6.374   0.505   6.017
13424TIP3   OH240214   2.389   4.955   2.156
13424TIP3    H140215   2.419   5.002   2.079
13424TIP3    H240216   2.430   5.001   2.230
13425TIP3   OH240217   7.716   4.247   6.319
13425TIP3    H140218   7.631   4.217   6.286
13425TIP3    H240219   7.696   4.286   6.404
13426TIP3   OH240220   3.377   3.590   3.790
13426TIP3    H140221   3.317   3.559   3.858
13426TIP3    H240222   3.443   3.640   3.837
13427TIP3   OH240223   2.656   6.258   0.630
13427TIP3    H140224   2.592   6.203   0.586
13427TIP3    H240225   2.619   6.275   0.717
13428TIP3   OH240226   3.343   2.527   3.417
13428TIP3    H140227   3.370   2.548   3.507
13428TIP3    H240228   3.353   2.610   3.370
13429TIP3   OH240229   0.145   6.048   4.230
13429TIP3    H140230   0.233   6.009   4.237
13429TIP3    H240231   0.099   5.991   4.169
13430TIP3   OH240232   7.276   0.779   5.019
13430TIP3    H140233   7.223   0.731   4.955
13430TIP3    H240234   7.296   0.862   4.976
13431TIP3   OH240235   4.669   7.087   5.710
13431TIP3    H140236   4.703   7.065   5.623
13431TIP3    H240237   4.578   7.112   5.694
13432TIP3   OH240238   7.803   3.196   2.384
13432TIP3    H140239   7.867   3.160   2.322
13432TIP3    H240240   7.738   3.239   2.328
13433TIP3   OH240241   8.215   3.965   6.001
13433TIP3    H140242   8.150   3.965   5.930
13433TIP3    H240243   8.279   3.899   5.975
13434TIP3   OH240244   7.755   1.126   4.007
13434TIP3    H140245   7.825   1.165   3.955
13434TIP3    H240246   7.703   1.201   4.037
13435TIP3   OH240247   1.490   1.937   5.165
13435TIP3    H140248   1.434   1.946   5.088
13435TIP3    H240249   1.446   1.874   5.220
13436TIP3   OH240250   1.183   3.137   4.271
13436TIP3    H140251   1.238   3.192   4.215
13436TIP3    H240252   1.179   3.184   4.354
13437TIP3   OH240253   6.886   0.257   1.400
13437TIP3    H140254   6.886   0.260   1.304
13437TIP3    H240255   6.852   0.343   1.426
13438TIP3   OH240256   5.300   5.654   6.182
13438TIP3    H140257   5.218   5.703   6.179
13438TIP3    H240258   5.292   5.590   6.111
13439TIP3   OH240259   2.353   3.993   2.357
13439TIP3    H140260   2.379   3.905   2.385
13439TIP3    H240261   2.356   4.045   2.437
13440TIP3   OH240262   8.282   0.287   2.786
13440TIP3    H140263   8.320   0.201   2.805
13440TIP3    H240264   8.222   0.270   2.713
13441TIP3   OH240265   4.539   3.426   3.249
13441TIP3    H140266   4.623   3.428   3.203
13441TIP3    H240267   4.478   3.471   3.189
13442TIP3   OH240268   7.186   3.091   1.889
13442TIP3    H140269   7.123   3.056   1.826
13442TIP3    H240270   7.269   3.093   1.842
13443TIP3   OH240271   4.113   2.940   4.077
13443TIP3    H140272   4.099   2.848   4.058
13443TIP3    H240273   4.116   2.945   4.173
13444TIP3   OH240274   7.321   6.769   0.403
13444TIP3    H140275   7.259   6.817   0.350
13444TIP3    H240276   7.398   6.826   0.408
13445TIP3   OH240277   7.137   6.809   0.176
13445TIP3    H140278   7.114   6.901   0.188
13445TIP3    H240279   7.115   6.791   0.084
13446TIP3   OH240280   5.862   1.362   5.193
13446TIP3    H140281   5.956   1.349   5.186
13446TIP3    H240282   5.832   1.366   5.102
13447TIP3   OH240283   5.850   4.001   2.525
13447TIP3    H140284   5.768   4.037   2.558
13447TIP3    H240285   5.915   4.069   2.543
13448TIP3   OH240286   2.794   6.226   6.656
13448TIP3    H140287   2.818   6.278   6.579
13448TIP3    H240288   2.699   6.238   6.665
13449TIP3   OH240289   6.840   3.765   1.118
13449TIP3    H140290   6.882   3.729   1.040
13449TIP3    H240291   6.780   3.832   1.084
13450TIP3   OH240292   8.158   5.672   3.604
13450TIP3    H140293   8.114   5.588   3.588
13450TIP3    H240294   8.212   5.686   3.526
13451TIP3   OH240295   4.725   2.638   6.648
13451TIP3    H140296   4.747   2.725   6.617
13451TIP3    H240297   4.807   2.588   6.640
13452TIP3   OH240298   1.639   3.374   2.414
13452TIP3    H140299   1.647   3.313   2.341
13452TIP3    H240300   1.728   3.383   2.448
13453TIP3   OH240301   4.682   6.998   3.490
13453TIP3    H140302   4.628   7.070   3.524
13453TIP3    H240303   4.753   7.041   3.443
13454TIP3   OH240304   0.682   3.117   1.695
13454TIP3    H140305   0.588   3.115   1.712
13454TIP3    H240306   0.703   3.029   1.663
13455TIP3   OH240307   0.060   2.156   3.867
13455TIP3    H140308   0.068   2.232   3.925
13455TIP3    H240309   0.009   2.188   3.793
13456TIP3   OH240310   0.111   5.118   1.866
13456TIP3    H140311   0.152   5.162   1.940
13456TIP3    H240312   0.065   5.189   1.819
13457TIP3   OH240313   6.256   7.712   6.456
13457TIP3    H140314   6.161   7.711   6.447
13457TIP3    H240315   6.278   7.802   6.479
13458TIP3   OH240316   5.572   6.103   3.481
13458TIP3    H140317   5.596   6.195   3.483
13458TIP3    H240318   5.620   6.064   3.555
13459TIP3   OH240319   7.798   5.135   5.429
13459TIP3    H140320   7.767   5.045   5.436
13459TIP3    H240321   7.723   5.189   5.455
13460TIP3   OH240322   3.906   5.050   5.976
13460TIP3    H140323   3.957   5.113   6.027
13460TIP3    H240324   3.857   5.104   5.914
13461TIP3   OH240325   0.507   2.571   4.031
13461TIP3    H140326   0.482   2.480   4.011
13461TIP3    H240327   0.424   2.619   4.030
13462TIP3   OH240328   7.898   4.220   3.288
13462TIP3    H140329   7.856   4.290   3.338
13462TIP3    H240330   7.860   4.227   3.200
13463TIP3   OH240331   4.441   6.355   3.344
13463TIP3    H140332   4.530   6.370   3.375
13463TIP3    H240333   4.440   6.392   3.256
13464TIP3   OH240334   8.171   3.346   4.511
13464TIP3    H140335   8.171   3.381   4.422
13464TIP3    H240336   8.152   3.421   4.567
13465TIP3   OH240337   1.212   6.721   0.388
13465TIP3    H140338   1.304   6.728   0.360
13465TIP3    H240339   1.193   6.806   0.427
13466TIP3   OH240340   0.996   6.104   6.514
13466TIP3    H140341   0.984   6.039   6.444
13466TIP3    H240342   1.047   6.059   6.581
13467TIP3   OH240343   4.536   7.415   1.412
13467TIP3    H140344   4.574   7.397   1.498
13467TIP3    H240345   4.609   7.405   1.351
13468TIP3   OH240346   1.442   5.207   6.550
13468TIP3    H140347   1.492   5.136   6.511
13468TIP3    H240348   1.353   5.172   6.559
13469TIP3   OH240349   3.650   5.676   6.553
13469TIP3    H140350   3.641   5.745   6.618
13469TIP3    H240351   3.711   5.712   6.488
13470TIP3   OH240352   1.413   0.416   4.121
13470TIP3    H140353   1.482   0.372   4.071
13470TIP3    H240354   1.449   0.424   4.210
13471TIP3   OH240355   2.887   6.586   5.179
13471TIP3    H140356   2.851   6.606   5.093
13471TIP3    H240357   2.972   6.545   5.160
13472TIP3   OH240358   7.881   2.137   0.062
13472TIP3    H140359   7.941   2.062   0.064
13472TIP3    H240360   7.895   2.180   0.146
13473TIP3   OH240361   6.294   0.332   3.079
13473TIP3    H140362   6.339   0.338   2.995
13473TIP3    H240363   6.235   0.257   3.069
13474TIP3   OH240364   7.152   3.896   6.668
13474TIP3    H140365   7.075   3.891   6.726
13474TIP3    H240366   7.226   3.880   6.726
13475TIP3   OH240367   5.760   5.892   2.618
13475TIP3    H140368   5.667   5.913   2.608
13475TIP3    H240369   5.770   5.868   2.710
13476TIP3   OH240370   8.247   1.963   4.477
13476TIP3    H140371   8.152   1.977   4.475
13476TIP3    H240372   8.275   1.980   4.387
13477TIP3   OH240373   7.338   7.512   4.060
13477TIP3    H140374   7.430   7.490   4.075
13477TIP3    H240375   7.335   7.608   4.064
13478TIP3   OH240376   3.970   3.596   5.510
13478TIP3    H140377   3.942   3.504   5.509
13478TIP3    H240378   4.025   3.605   5.432
13479TIP3   OH240379   6.969   3.822   0.874
13479TIP3    H140380   6.980   3.794   0.783
13479TIP3    H240381   6.877   3.847   0.880
13480TIP3   OH240382   7.934   1.716   5.684
13480TIP3    H140383   7.997   1.785   5.705
13480TIP3    H240384   7.978   1.635   5.711
13481TIP3   OH240385   4.635   6.130   2.702
13481TIP3    H140386   4.592   6.051   2.669
13481TIP3    H240387   4.614   6.130   2.796
13482TIP3   OH240388   1.122   1.210   5.845
13482TIP3    H140389   1.116   1.134   5.904
13482TIP3    H240390   1.099   1.285   5.900
13483TIP3   OH240391   2.620   4.026   1.326
13483TIP3    H140392   2.531   4.022   1.288
13483TIP3    H240393   2.606   4.052   1.417
13484TIP3   OH240394   3.968   3.977   5.806
13484TIP3    H140395   3.882   3.999   5.770
13484TIP3    H240396   3.992   3.895   5.764
13485TIP3   OH240397   6.139   0.802   1.223
13485TIP3    H140398   6.049   0.771   1.233
13485TIP3    H240399   6.152   0.807   1.129
13486TIP3   OH240400   1.239   3.415   6.232
13486TIP3    H140401   1.226   3.325   6.202
13486TIP3    H240402   1.327   3.414   6.270
13487TIP3   OH240403   3.758   4.804   0.642
13487TIP3    H140404   3.801   4.889   0.651
13487TIP3    H240405   3.789   4.754   0.718
13488TIP3   OH240406   4.147   3.291   5.536
13488TIP3    H140407   4.166   3.274   5.444
13488TIP3    H240408   4.053   3.278   5.545
13489TIP3   OH240409   7.848   0.877   0.203
13489TIP3    H140410   7.816   0.967   0.210
13489TIP3    H240411   7.898   0.876   0.122
13490TIP3   OH240412   2.494   0.634   3.169
13490TIP3    H140413   2.577   0.596   3.142
13490TIP3    H240414   2.505   0.652   3.262
13491TIP3   OH240415   5.076   2.457   1.109
13491TIP3    H140416   5.051   2.416   1.191
13491TIP3    H240417   5.061   2.550   1.123
13492TIP3   OH240418   5.615   4.033   5.962
13492TIP3    H140419   5.660   4.092   5.901
13492TIP3    H240420   5.684   3.972   5.990
13493TIP3   OH240421   3.825   6.418   3.588
13493TIP3    H140422   3.769   6.346   3.560
13493TIP3    H240423   3.779   6.497   3.560
13494TIP3   OH240424   2.313   5.943   2.609
13494TIP3    H140425   2.301   5.983   2.694
13494TIP3    H240426   2.291   5.850   2.623
13495TIP3   OH240427   2.233   2.572   1.827
13495TIP3    H140428   2.227   2.636   1.756
13495TIP3    H240429   2.164   2.598   1.889
13496TIP3   OH240430   4.923   2.513   2.508
13496TIP3    H140431   4.883   2.563   2.437
13496TIP3    H240432   4.997   2.567   2.536
13497TIP3   OH240433   2.956   5.692   0.171
13497TIP3    H140434   3.040   5.725   0.138
13497TIP3    H240435   2.912   5.770   0.206
13498TIP3   OH240436   6.228   6.365   2.943
13498TIP3    H140437   6.231   6.406   2.857
13498TIP3    H240438   6.263   6.432   3.002
13499TIP3   OH240439   1.457   6.401   4.988
13499TIP3    H140440   1.386   6.423   5.049
13499TIP3    H240441   1.415   6.397   4.902
13500TIP3   OH240442   3.432   1.435   2.019
13500TIP3    H140443   3.443   1.372   1.947
13500TIP3    H240444   3.346   1.474   2.002
13501TIP3   OH240445   3.839   1.263   4.624
13501TIP3    H140446   3.824   1.310   4.706
13501TIP3    H240447   3.904   1.315   4.577
13502TIP3   OH240448   6.332   2.530   4.048
13502TIP3    H140449   6.277   2.493   3.979
13502TIP3    H240450   6.421   2.514   4.018
13503TIP3   OH240451   3.583   4.809   3.549
13503TIP3    H140452   3.551   4.855   3.471
13503TIP3    H240453   3.636   4.738   3.514
13504TIP3   OH240454   7.837   4.747   0.094
13504TIP3    H140455   7.887   4.829   0.094
13504TIP3    H240456   7.894   4.685   0.140
13505TIP3   OH240457   0.967   2.678   3.194
13505TIP3    H140458   0.977   2.683   3.099
13505TIP3    H240459   0.926   2.761   3.219
13506TIP3   OH240460   3.848   3.580   1.640
13506TIP3    H140461   3.813   3.495   1.665
13506TIP3    H240462   3.943   3.570   1.648
13507TIP3   OH240463   2.824   0.314   1.103
13507TIP3    H140464   2.911   0.323   1.143
13507TIP3    H240465   2.775   0.260   1.165
13508TIP3   OH240466   2.637   2.398   4.449
13508TIP3    H140467   2.544   2.399   4.424
13508TIP3    H240468   2.678   2.341   4.385
13509TIP3   OH240469   2.366   1.945   5.537
13509TIP3    H140470   2.313   1.905   5.606
13509TIP3    H240471   2.318   1.927   5.456
13510TIP3   OH240472   2.214   2.156   3.176
13510TIP3    H140473   2.217   2.064   3.201
13510TIP3    H240474   2.174   2.157   3.089
13511TIP3   OH240475   7.420   1.577   3.171
13511TIP3    H140476   7.353   1.585   3.103
13511TIP3    H240477   7.493   1.535   3.126
13512TIP3   OH240478   3.239   2.200   4.604
13512TIP3    H140479   3.230   2.295   4.598
13512TIP3    H240480   3.149   2.167   4.607
13513TIP3   OH240481   3.122   2.244   1.402
13513TIP3    H140482   3.064   2.319   1.411
13513TIP3    H240483   3.131   2.231   1.307
13514TIP3   OH240484   3.345   6.861   0.543
13514TIP3    H140485   3.380   6.805   0.613
13514TIP3    H240486   3.366   6.950   0.570
13515TIP3   OH240487   5.486   7.502   2.104
13515TIP3    H140488   5.415   7.540   2.053
13515TIP3    H240489   5.560   7.561   2.091
13516TIP3   OH240490   2.565   1.695   0.089
13516TIP3    H140491   2.556   1.754   0.165
13516TIP3    H240492   2.614   1.747   0.025
13517TIP3   OH240493   4.944   3.039   4.234
13517TIP3    H140494   4.881   3.036   4.306
13517TIP3    H240495   5.022   3.079   4.272
13518TIP3   OH240496   1.812   6.457   2.475
13518TIP3    H140497   1.856   6.541   2.463
13518TIP3    H240498   1.867   6.409   2.537
13519TIP3   OH240499   6.520   3.785   4.689
13519TIP3    H140500   6.572   3.776   4.609
13519TIP3    H240501   6.438   3.826   4.660
13520TIP3   OH240502   0.572   6.594   1.279
13520TIP3    H140503   0.546   6.626   1.365
13520TIP3    H240504   0.649   6.645   1.256
13521TIP3   OH240505   5.040   3.096   4.953
13521TIP3    H140506   5.053   3.171   5.011
13521TIP3    H240507   5.113   3.038   4.971
13522TIP3   OH240508   1.327   5.462   2.325
13522TIP3    H140509   1.346   5.421   2.409
13522TIP3    H240510   1.242   5.505   2.337
13523TIP3   OH240511   4.403   1.568   6.645
13523TIP3    H140512   4.324   1.525   6.677
13523TIP3    H240513   4.417   1.531   6.558
13524TIP3   OH240514   3.011   0.660   6.787
13524TIP3    H140515   3.021   0.617   6.702
13524TIP3    H240516   2.918   0.684   6.790
13525TIP3   OH240517   2.712   4.145   5.749
13525TIP3    H140518   2.628   4.161   5.793
13525TIP3    H240519   2.692   4.150   5.656
13526TIP3   OH240520   0.491   6.084   2.006
13526TIP3    H140521   0.404   6.077   1.966
13526TIP3    H240522   0.514   5.994   2.031
13527TIP3   OH240523   2.920   5.516   1.944
13527TIP3    H140524   2.916   5.610   1.962
13527TIP3    H240525   2.834   5.496   1.906
13528TIP3   OH240526   1.764   4.493   5.327
13528TIP3    H140527   1.711   4.572   5.318
13528TIP3    H240528   1.737   4.455   5.410
13529TIP3   OH240529   0.034   4.244   0.386
13529TIP3    H140530   0.087   4.316   0.351
13529TIP3    H240531   0.027   4.263   0.480
13530TIP3   OH240532   0.994   1.276   2.191
13530TIP3    H140533   0.992   1.354   2.246
13530TIP3    H240534   1.013   1.309   2.103
13531TIP3   OH240535   0.609   6.691   2.452
13531TIP3    H140536   0.684   6.720   2.505
13531TIP3    H240537   0.542   6.758   2.469
13532TIP3   OH240538   6.933   5.519   2.776
13532TIP3    H140539   6.992   5.445   2.795
13532TIP3    H240540   6.980   5.596   2.806
13533TIP3   OH240541   1.525   1.110   4.684
13533TIP3    H140542   1.529   1.132   4.777
13533TIP3    H240543   1.554   1.019   4.679
13534TIP3   OH240544   1.189   4.430   5.373
13534TIP3    H140545   1.124   4.444   5.443
13534TIP3    H240546   1.225   4.344   5.392
13535TIP3   OH240547   6.133   4.234   4.683
13535TIP3    H140548   6.161   4.286   4.607
13535TIP3    H240549   6.053   4.190   4.654
13536TIP3   OH240550   8.064   3.089   1.862
13536TIP3    H140551   8.094   3.008   1.903
13536TIP3    H240552   8.044   3.065   1.771
13537TIP3   OH240553   5.852   6.151   2.386
13537TIP3    H140554   5.806   6.216   2.333
13537TIP3    H240555   5.837   6.068   2.342
13538TIP3   OH240556   7.672   7.543   6.631
13538TIP3    H140557   7.715   7.602   6.692
13538TIP3    H240558   7.579   7.559   6.643
13539TIP3   OH240559   6.548   6.612   1.893
13539TIP3    H140560   6.618   6.652   1.946
13539TIP3    H240561   6.573   6.632   1.803
13540TIP3   OH240562   3.640   1.672   6.021
13540TIP3    H140563   3.586   1.665   5.942
13540TIP3    H240564   3.583   1.643   6.092
13541TIP3   OH240565   3.341   0.619   2.691
13541TIP3    H140566   3.419   0.626   2.635
13541TIP3    H240567   3.373   0.637   2.779
13542TIP3   OH240568   2.490   2.695   3.069
13542TIP3    H140569   2.457   2.662   3.153
13542TIP3    H240570   2.518   2.784   3.087
13543TIP3   OH240571   6.047   6.163   2.601
13543TIP3    H140572   5.976   6.191   2.543
13543TIP3    H240573   6.126   6.179   2.551
13544TIP3   OH240574   2.850   2.000   2.596
13544TIP3    H140575   2.913   2.051   2.544
13544TIP3    H240576   2.867   1.909   2.571
13545TIP3   OH240577   3.769   2.192   5.181
13545TIP3    H140578   3.756   2.240   5.263
13545TIP3    H240579   3.788   2.102   5.209
13546TIP3   OH240580   3.093   2.098   0.538
13546TIP3    H140581   3.173   2.086   0.487
13546TIP3    H240582   3.109   2.050   0.619
13547TIP3   OH240583   4.317   0.660   1.808
13547TIP3    H140584   4.392   0.714   1.834
13547TIP3    H240585   4.356   0.574   1.789
13548TIP3   OH240586   3.994   1.925   0.775
13548TIP3    H140587   3.954   1.996   0.725
13548TIP3    H240588   3.928   1.856   0.777
13549TIP3   OH240589   0.194   7.708   3.356
13549TIP3    H140590   0.157   7.778   3.410
13549TIP3    H240591   0.273   7.681   3.403
13550TIP3   OH240592   4.421   1.079   0.012
13550TIP3    H140593   4.443   0.988  -0.008
13550TIP3    H240594   4.325   1.082   0.009
13551TIP3   OH240595   1.066  -0.076   0.280
13551TIP3    H140596   1.095   0.006   0.320
13551TIP3    H240597   1.127  -0.142   0.312
13552TIP3   OH240598   8.066   5.717   6.213
13552TIP3    H140599   8.154   5.729   6.177
13552TIP3    H240600   8.014   5.686   6.139
13553TIP3   OH240601   4.063   3.167   0.215
13553TIP3    H140602   4.021   3.090   0.255
13553TIP3    H240603   4.085   3.139   0.127
13554TIP3   OH240604   1.776   0.088   1.431
13554TIP3    H140605   1.745   0.170   1.392
13554TIP3    H240606   1.770   0.103   1.526
13555TIP3   OH240607   1.195   4.997   0.888
13555TIP3    H140608   1.158   4.942   0.818
13555TIP3    H240609   1.287   4.972   0.892
13556TIP3   OH240610   3.062   0.554   0.253
13556TIP3    H140611   3.066   0.625   0.318
13556TIP3    H240612   3.045   0.476   0.305
13557TIP3   OH240613   2.083   4.561   6.290
13557TIP3    H140614   2.070   4.653   6.311
13557TIP3    H240615   2.155   4.560   6.228
13558TIP3   OH240616   6.382   4.445   0.756
13558TIP3    H140617   6.368   4.351   0.755
13558TIP3    H240618   6.474   4.457   0.734
13559TIP3   OH240619   3.474   7.817   1.971
13559TIP3    H140620   3.560   7.778   1.955
13559TIP3    H240621   3.486   7.868   2.052
13560TIP3   OH240622   6.924   4.446   1.886
13560TIP3    H140623   6.936   4.541   1.884
13560TIP3    H240624   6.952   4.420   1.973
13561TIP3   OH240625   3.740   2.218   2.761
13561TIP3    H140626   3.751   2.131   2.722
13561TIP3    H240627   3.733   2.201   2.855
13562TIP3   OH240628   7.684   7.395   3.269
13562TIP3    H140629   7.605   7.442   3.295
13562TIP3    H240630   7.743   7.404   3.343
13563TIP3   OH240631   0.486   0.137   4.441
13563TIP3    H140632   0.436   0.082   4.500
13563TIP3    H240633   0.548   0.184   4.497
13564TIP3   OH240634   3.079   4.540   3.017
13564TIP3    H140635   3.095   4.465   3.073
13564TIP3    H240636   3.026   4.506   2.945
13565TIP3   OH240637   3.556   7.689   3.171
13565TIP3    H140638   3.462   7.693   3.190
13565TIP3    H240639   3.577   7.596   3.176
13566TIP3   OH240640   0.540   5.620   4.314
13566TIP3    H140641   0.454   5.608   4.354
13566TIP3    H240642   0.602   5.617   4.387
13567TIP3   OH240643   7.667   1.899   2.810
13567TIP3    H140644   7.717   1.980   2.819
13567TIP3    H240645   7.729   1.836   2.773
13568TIP3   OH240646   6.168   3.399   2.076
13568TIP3    H140647   6.187   3.357   1.992
13568TIP3    H240648   6.251   3.437   2.103
13569TIP3   OH240649   1.351   0.306   4.419
13569TIP3    H140650   1.339   0.239   4.486
13569TIP3    H240651   1.319   0.266   4.338
13570TIP3   OH240652   1.414   3.698   4.168
13570TIP3    H140653   1.433   3.620   4.220
13570TIP3    H240654   1.399   3.665   4.080
13571TIP3   OH240655   3.438   7.498   0.355
13571TIP3    H140656   3.474   7.532   0.437
13571TIP3    H240657   3.515   7.467   0.307
13572TIP3   OH240658   1.906   6.623   0.024
13572TIP3    H140659   1.878   6.689  -0.039
13572TIP3    H240660   1.829   6.608   0.079
13573TIP3   OH240661   7.205   3.816   6.423
13573TIP3    H140662   7.153   3.804   6.502
13573TIP3    H240663   7.226   3.910   6.422
13574TIP3   OH240664   1.813   2.565   4.895
13574TIP3    H140665   1.905   2.541   4.902
13574TIP3    H240666   1.810   2.658   4.916
13575TIP3   OH240667   2.650   0.238   5.093
13575TIP3    H140668   2.710   0.279   5.031
13575TIP3    H240669   2.575   0.297   5.097
13576TIP3   OH240670   6.357   0.916   3.064
13576TIP3    H140671   6.383   0.846   3.005
13576TIP3    H240672   6.410   0.991   3.037
13577TIP3   OH240673   0.712   3.132   2.349
13577TIP3    H140674   0.657   3.193   2.399
13577TIP3    H240675   0.791   3.182   2.331
13578TIP3   OH240676   2.643   3.758   5.098
13578TIP3    H140677   2.566   3.734   5.047
13578TIP3    H240678   2.621   3.734   5.188
13579TIP3   OH240679   2.454   3.149   2.118
13579TIP3    H140680   2.442   3.191   2.033
13579TIP3    H240681   2.399   3.199   2.178
13580TIP3   OH240682   7.951   1.979   6.300
13580TIP3    H140683   8.039   1.966   6.335
13580TIP3    H240684   7.962   1.974   6.205
13581TIP3   OH240685   2.264   7.627   6.137
13581TIP3    H140686   2.220   7.690   6.194
13581TIP3    H240687   2.343   7.602   6.186
13582TIP3   OH240688   3.760   0.366   0.188
13582TIP3    H140689   3.710   0.376   0.107
13582TIP3    H240690   3.852   0.371   0.161
13583TIP3   OH240691   5.248   7.492   1.502
13583TIP3    H140692   5.339   7.502   1.473
13583TIP3    H240693   5.196   7.512   1.424
13584TIP3   OH240694   0.406   1.823   6.725
13584TIP3    H140695   0.380   1.789   6.639
13584TIP3    H240696   0.376   1.914   6.724
13585TIP3   OH240697   0.649   5.380   3.125
13585TIP3    H140698   0.737   5.362   3.090
13585TIP3    H240699   0.590   5.340   3.061
13586TIP3   OH240700   5.746   5.841   5.673
13586TIP3    H140701   5.724   5.900   5.601
13586TIP3    H240702   5.711   5.885   5.751
13587TIP3   OH240703   4.596   0.515   5.857
13587TIP3    H140704   4.645   0.589   5.892
13587TIP3    H240705   4.555   0.475   5.934
13588TIP3   OH240706   5.220   2.533   4.564
13588TIP3    H140707   5.155   2.466   4.585
13588TIP3    H240708   5.271   2.494   4.493
13589TIP3   OH240709   0.151   0.021   1.920
13589TIP3    H140710   0.233   0.068   1.905
13589TIP3    H240711   0.120  -0.001   1.832
13590TIP3   OH240712   5.987   6.784   2.876
13590TIP3    H140713   6.058   6.776   2.940
13590TIP3    H240714   5.928   6.711   2.897
13591TIP3   OH240715   2.792   5.386   4.861
13591TIP3    H140716   2.766   5.478   4.853
13591TIP3    H240717   2.800   5.355   4.771
13592TIP3   OH240718   6.846   1.483   1.771
13592TIP3    H140719   6.884   1.407   1.815
13592TIP3    H240720   6.912   1.552   1.780
13593TIP3   OH240721   8.257   6.797   1.328
13593TIP3    H140722   8.253   6.720   1.271
13593TIP3    H240723   8.207   6.772   1.406
13594TIP3   OH240724   7.467   5.912   3.663
13594TIP3    H140725   7.465   5.981   3.729
13594TIP3    H240726   7.547   5.930   3.613
13595TIP3   OH240727   7.315   3.355   0.482
13595TIP3    H140728   7.237   3.317   0.442
13595TIP3    H240729   7.381   3.286   0.476
13596TIP3   OH240730   1.996   3.222   2.269
13596TIP3    H140731   2.024   3.227   2.360
13596TIP3    H240732   1.902   3.205   2.273
13597TIP3   OH240733   3.549   3.370   6.175
13597TIP3    H140734   3.584   3.458   6.161
13597TIP3    H240735   3.539   3.363   6.270
13598TIP3   OH240736   7.703   7.157   4.148
13598TIP3    H140737   7.755   7.160   4.228
13598TIP3    H240738   7.768   7.154   4.077
13599TIP3   OH240739   5.712   4.714   5.944
13599TIP3    H140740   5.724   4.716   6.039
13599TIP3    H240741   5.788   4.665   5.912
13600TIP3   OH240742   5.709   3.244   1.731
13600TIP3    H140743   5.687   3.259   1.639
13600TIP3    H240744   5.674   3.157   1.750
13601TIP3   OH240745   3.289   5.711   3.855
13601TIP3    H140746   3.364   5.680   3.804
13601TIP3    H240747   3.244   5.772   3.797
13602TIP3   OH240748   2.671   1.516   5.644
13602TIP3    H140749   2.586   1.487   5.678
13602TIP3    H240750   2.660   1.610   5.630
13603TIP3   OH240751   0.796   6.893   1.424
13603TIP3    H140752   0.740   6.872   1.499
13603TIP3    H240753   0.851   6.815   1.412
13604TIP3   OH240754   8.261   4.030   3.796
13604TIP3    H140755   8.239   3.939   3.779
13604TIP3    H240756   8.199   4.080   3.742
13605TIP3   OH240757   2.968   0.353   3.259
13605TIP3    H140758   3.022   0.388   3.189
13605TIP3    H240759   3.028   0.302   3.313
13606TIP3   OH240760   6.537   1.198   4.396
13606TIP3    H140761   6.471   1.157   4.451
13606TIP3    H240762   6.618   1.154   4.419
13607TIP3   OH240763   6.329   5.713   1.406
13607TIP3    H140764   6.375   5.723   1.489
13607TIP3    H240765   6.260   5.779   1.409
13608TIP3   OH240766   0.807   1.373   5.334
13608TIP3    H140767   0.760   1.350   5.254
13608TIP3    H240768   0.810   1.292   5.384
13609TIP3   OH240769   7.509   5.904   1.160
13609TIP3    H140770   7.554   5.820   1.162
13609TIP3    H240771   7.424   5.885   1.119
13610TIP3   OH240772   5.713   3.068   5.005
13610TIP3    H140773   5.630   3.080   4.959
13610TIP3    H240774   5.704   2.984   5.050
13611TIP3   OH240775   7.187   2.918   5.653
13611TIP3    H140776   7.179   2.876   5.567
13611TIP3    H240777   7.112   2.978   5.658
13612TIP3   OH240778   2.915   7.475   6.589
13612TIP3    H140779   2.869   7.558   6.595
13612TIP3    H240780   2.952   7.462   6.676
13613TIP3   OH240781   2.211   4.035   2.784
13613TIP3    H140782   2.132   4.053   2.733
13613TIP3    H240783   2.282   4.043   2.721
13614TIP3   OH240784   6.515   5.609   2.563
13614TIP3    H140785   6.521   5.644   2.474
13614TIP3    H240786   6.426   5.575   2.569
13615TIP3   OH240787   4.672   2.113   3.308
13615TIP3    H140788   4.680   2.062   3.389
13615TIP3    H240789   4.631   2.053   3.246
13616TIP3   OH240790   1.575   7.692   1.810
13616TIP3    H140791   1.638   7.677   1.740
13616TIP3    H240792   1.540   7.605   1.829
13617TIP3   OH240793   6.764   1.096   4.527
13617TIP3    H140794   6.795   1.008   4.508
13617TIP3    H240795   6.833   1.134   4.582
13618TIP3   OH240796   5.988   7.051   6.517
13618TIP3    H140797   5.973   6.996   6.440
13618TIP3    H240798   6.048   7.119   6.487
13619TIP3   OH240799   0.168   3.524   2.884
13619TIP3    H140800   0.145   3.566   2.967
13619TIP3    H240801   0.085   3.516   2.837
13620TIP3   OH240802   1.322   4.249   0.510
13620TIP3    H140803   1.272   4.247   0.592
13620TIP3    H240804   1.405   4.290   0.534
13621TIP3   OH240805   7.737   2.411   6.257
13621TIP3    H140806   7.822   2.402   6.213
13621TIP3    H240807   7.682   2.455   6.192
13622TIP3   OH240808   5.547   2.040   2.990
13622TIP3    H140809   5.520   2.036   2.898
13622TIP3    H240810   5.642   2.030   2.988
13623TIP3   OH240811   3.944   0.998   0.107
13623TIP3    H140812   3.875   1.028   0.166
13623TIP3    H240813   3.940   0.902   0.113
13624TIP3   OH240814   2.944   7.017   6.172
13624TIP3    H140815   2.952   6.950   6.104
13624TIP3    H240816   3.004   7.086   6.144
13625TIP3   OH240817   2.071   7.745   3.444
13625TIP3    H140818   2.110   7.830   3.423
13625TIP3    H240819   2.141   7.696   3.486
13626TIP3   OH240820   6.485   5.226   6.053
13626TIP3    H140821   6.501   5.159   5.987
13626TIP3    H240822   6.393   5.215   6.076
13627TIP3   OH240823   4.038   5.159   5.562
13627TIP3    H140824   4.002   5.097   5.497
13627TIP3    H240825   3.962   5.183   5.615
13628TIP3   OH240826   0.213   5.858   0.691
13628TIP3    H140827   0.244   5.869   0.781
13628TIP3    H240828   0.121   5.886   0.694
13629TIP3   OH240829   7.486   0.051   0.305
13629TIP3    H140830   7.481   0.051   0.210
13629TIP3    H240831   7.424   0.118   0.332
13630TIP3   OH240832   0.527   5.264   5.744
13630TIP3    H140833   0.450   5.218   5.778
13630TIP3    H240834   0.513   5.268   5.650
13631TIP3   OH240835   0.622   3.268   6.236
13631TIP3    H140836   0.653   3.348   6.277
13631TIP3    H240837   0.617   3.204   6.308
13632TIP3   OH240838   6.592   2.130   5.576
13632TIP3    H140839   6.575   2.217   5.612
13632TIP3    H240840   6.574   2.139   5.482
13633TIP3   OH240841   6.668   6.982   0.988
13633TIP3    H140842   6.689   6.963   0.897
13633TIP3    H240843   6.573   6.976   0.993
13634TIP3   OH240844   6.912   4.809   4.303
13634TIP3    H140845   6.999   4.843   4.322
13634TIP3    H240846   6.924   4.714   4.298
13635TIP3   OH240847   1.203   3.779   3.021
13635TIP3    H140848   1.148   3.738   2.955
13635TIP3    H240849   1.144   3.794   3.095
13636TIP3   OH240850   6.467   2.960   5.858
13636TIP3    H140851   6.385   2.920   5.831
13636TIP3    H240852   6.443   3.048   5.887
13637TIP3   OH240853   1.581   2.392   3.244
13637TIP3    H140854   1.512   2.400   3.311
13637TIP3    H240855   1.607   2.300   3.248
13638TIP3   OH240856   0.538   6.673   4.176
13638TIP3    H140857   0.603   6.608   4.203
13638TIP3    H240858   0.528   6.658   4.082
13639TIP3   OH240859   5.924   2.213   1.531
13639TIP3    H140860   5.941   2.168   1.448
13639TIP3    H240861   5.892   2.299   1.506
13640TIP3   OH240862   4.079   0.589   3.243
13640TIP3    H140863   4.032   0.611   3.163
13640TIP3    H240864   4.010   0.569   3.307
13641TIP3   OH240865   0.334   3.423   4.077
13641TIP3    H140866   0.317   3.334   4.046
13641TIP3    H240867   0.305   3.422   4.168
13642TIP3   OH240868   2.090   0.386   3.304
13642TIP3    H140869   2.142   0.453   3.260
13642TIP3    H240870   2.003   0.425   3.312
13643TIP3   OH240871   8.287   2.901   3.216
13643TIP3    H140872   8.198   2.927   3.240
13643TIP3    H240873   8.328   2.982   3.185
13644TIP3   OH240874   6.017   2.814   5.469
13644TIP3    H140875   6.015   2.872   5.545
13644TIP3    H240876   5.963   2.859   5.404
13645TIP3   OH240877   7.130   3.771   1.520
13645TIP3    H140878   7.067   3.829   1.477
13645TIP3    H240879   7.204   3.766   1.458
13646TIP3   OH240880   0.898   4.727   6.518
13646TIP3    H140881   0.969   4.673   6.481
13646TIP3    H240882   0.832   4.731   6.449
13647TIP3   OH240883   2.479   6.914   5.779
13647TIP3    H140884   2.523   6.869   5.707
13647TIP3    H240885   2.466   7.003   5.748
13648TIP3   OH240886   0.114   6.086   1.223
13648TIP3    H140887   0.038   6.132   1.257
13648TIP3    H240888   0.116   6.107   1.130
13649TIP3   OH240889   6.440   6.575   1.283
13649TIP3    H140890   6.379   6.637   1.322
13649TIP3    H240891   6.465   6.517   1.355
13650TIP3   OH240892   1.739   7.169   0.684
13650TIP3    H140893   1.749   7.083   0.724
13650TIP3    H240894   1.781   7.161   0.598
13651TIP3   OH240895   3.329   3.958   3.728
13651TIP3    H140896   3.422   3.934   3.729
13651TIP3    H240897   3.328   4.046   3.766
13652TIP3   OH240898   0.301   0.526   5.564
13652TIP3    H140899   0.284   0.496   5.653
13652TIP3    H240900   0.216   0.552   5.530
13653TIP3   OH240901   5.511   7.085   3.470
13653TIP3    H140902   5.551   7.073   3.384
13653TIP3    H240903   5.431   7.032   3.466
13654TIP3   OH240904   2.517   4.379   2.750
13654TIP3    H140905   2.502   4.439   2.823
13654TIP3    H240906   2.458   4.410   2.681
13655TIP3   OH240907   1.941   3.537   0.130
13655TIP3    H140908   1.915   3.560   0.041
13655TIP3    H240909   2.020   3.588   0.146
13656TIP3   OH240910   0.251   7.374   6.119
13656TIP3    H140911   0.243   7.309   6.188
13656TIP3    H240912   0.161   7.400   6.099
13657TIP3   OH240913   6.696   4.888   5.570
13657TIP3    H140914   6.706   4.944   5.647
13657TIP3    H240915   6.755   4.814   5.586
13658TIP3   OH240916   4.074   3.259   3.495
13658TIP3    H140917   4.065   3.311   3.575
13658TIP3    H240918   4.139   3.306   3.443
13659TIP3   OH240919   2.821   2.498   3.809
13659TIP3    H140920   2.882   2.514   3.738
13659TIP3    H240921   2.743   2.548   3.786
13660TIP3   OH240922   4.689   1.814   2.291
13660TIP3    H140923   4.604   1.856   2.305
13660TIP3    H240924   4.731   1.815   2.378
13661TIP3   OH240925   2.936   0.371   3.636
13661TIP3    H140926   2.931   0.376   3.732
13661TIP3    H240927   3.026   0.395   3.616
13662TIP3   OH240928   4.037   0.096   0.277
13662TIP3    H140929   4.036   0.172   0.218
13662TIP3    H240930   3.944   0.075   0.290
13663TIP3   OH240931   4.671   6.739   2.959
13663TIP3    H140932   4.625   6.733   2.875
13663TIP3    H240933   4.763   6.731   2.936
13664TIP3   OH240934   3.656   7.609   0.008
13664TIP3    H140935   3.613   7.611  -0.077
13664TIP3    H240936   3.742   7.648  -0.007
13665TIP3   OH240937   2.145   2.051   4.213
13665TIP3    H140938   2.131   2.134   4.258
13665TIP3    H240939   2.139   2.074   4.120
13666TIP3   OH240940   6.945   7.201   4.691
13666TIP3    H140941   6.863   7.203   4.642
13666TIP3    H240942   6.923   7.154   4.771
13667TIP3   OH240943   7.030   3.153   1.105
13667TIP3    H140944   7.094   3.212   1.145
13667TIP3    H240945   7.000   3.098   1.177
13668TIP3   OH240946   1.771   1.371   0.772
13668TIP3    H140947   1.691   1.419   0.789
13668TIP3    H240948   1.742   1.290   0.730
13669TIP3   OH240949   1.191   2.714   2.724
13669TIP3    H140950   1.281   2.733   2.697
13669TIP3    H240951   1.146   2.692   2.642
13670TIP3   OH240952   1.242   0.028   4.230
13670TIP3    H140953   1.227   0.035   4.324
13670TIP3    H240954   1.166   0.069   4.190
13671TIP3   OH240955   0.617   5.078   1.656
13671TIP3    H140956   0.687   5.121   1.705
13671TIP3    H240957   0.539   5.130   1.677
13672TIP3   OH240958   8.165   0.196   6.512
13672TIP3    H140959   8.139   0.206   6.420
13672TIP3    H240960   8.082   0.180   6.558
13673TIP3   OH240961   3.028   0.556   1.195
13673TIP3    H140962   3.006   0.580   1.105
13673TIP3    H240963   3.005   0.634   1.246
13674TIP3   OH240964   2.927   4.622   5.080
13674TIP3    H140965   2.863   4.692   5.070
13674TIP3    H240966   2.979   4.647   5.156
13675TIP3   OH240967   1.321   0.845   1.818
13675TIP3    H140968   1.360   0.906   1.755
13675TIP3    H240969   1.392   0.822   1.877
13676TIP3   OH240970   1.801   5.802   2.348
13676TIP3    H140971   1.720   5.850   2.367
13676TIP3    H240972   1.784   5.714   2.381
13677TIP3   OH240973   7.755   1.791   5.893
13677TIP3    H140974   7.808   1.795   5.814
13677TIP3    H240975   7.687   1.858   5.880
13678TIP3   OH240976   6.731   7.418   5.458
13678TIP3    H140977   6.678   7.484   5.503
13678TIP3    H240978   6.820   7.433   5.490
13679TIP3   OH240979   7.345   6.203   5.360
13679TIP3    H140980   7.266   6.225   5.409
13679TIP3    H240981   7.366   6.113   5.387
13680TIP3   OH240982   3.695   3.462   4.984
13680TIP3    H140983   3.733   3.464   5.072
13680TIP3    H240984   3.628   3.394   4.988
13681TIP3   OH240985   3.165   2.545   0.810
13681TIP3    H140986   3.091   2.605   0.821
13681TIP3    H240987   3.125   2.463   0.781
13682TIP3   OH240988   3.505   1.939   2.178
13682TIP3    H140989   3.505   1.844   2.188
13682TIP3    H240990   3.413   1.964   2.187
13683TIP3   OH240991   6.756   2.824   4.577
13683TIP3    H140992   6.704   2.755   4.536
13683TIP3    H240993   6.715   2.906   4.549
13684TIP3   OH240994   3.337   1.057   0.781
13684TIP3    H140995   3.319   1.151   0.775
13684TIP3    H240996   3.345   1.028   0.690
13685TIP3   OH240997   4.212   0.082   1.965
13685TIP3    H140998   4.265   0.010   1.930
13685TIP3    H240999   4.182   0.051   2.050
13686TIP3   OH241000   8.241   1.771   3.669
13686TIP3    H141001   8.284   1.712   3.607
13686TIP3    H241002   8.306   1.840   3.684
13687TIP3   OH241003   1.678   1.629   3.050
13687TIP3    H141004   1.665   1.553   3.107
13687TIP3    H241005   1.763   1.614   3.009
13688TIP3   OH241006   4.015   5.458   2.548
13688TIP3    H141007   4.085   5.450   2.612
13688TIP3    H241008   3.996   5.367   2.522
13689TIP3   OH241009   3.197   5.366   0.097
13689TIP3    H141010   3.183   5.424   0.173
13689TIP3    H241011   3.139   5.291   0.114
13690TIP3   OH241012   7.788   5.064   2.418
13690TIP3    H141013   7.849   5.134   2.441
13690TIP3    H241014   7.827   5.024   2.340
13691TIP3   OH241015   7.123   0.133   0.940
13691TIP3    H141016   7.052   0.196   0.924
13691TIP3    H241017   7.079   0.055   0.973
13692TIP3   OH241018   7.880   3.258   0.612
13692TIP3    H141019   7.796   3.216   0.633
13692TIP3    H241020   7.873   3.346   0.648
13693TIP3   OH241021   6.759   4.031   3.598
13693TIP3    H141022   6.758   4.127   3.597
13693TIP3    H241023   6.713   4.006   3.518
13694TIP3   OH241024   3.111   0.004   6.388
13694TIP3    H141025   3.162   0.074   6.429
13694TIP3    H241026   3.131  -0.074   6.440
13695TIP3   OH241027   4.211   1.437   0.704
13695TIP3    H141028   4.118   1.444   0.682
13695TIP3    H241029   4.215   1.370   0.772
13696TIP3   OH241030   1.839   7.337   2.066
13696TIP3    H141031   1.792   7.255   2.055
13696TIP3    H241032   1.922   7.323   2.020
13697TIP3   OH241033   4.755   4.651   1.032
13697TIP3    H141034   4.703   4.731   1.019
13697TIP3    H241035   4.833   4.681   1.078
13698TIP3   OH241036   5.183   7.509   5.506
13698TIP3    H141037   5.258   7.497   5.564
13698TIP3    H241038   5.150   7.596   5.529
13699TIP3   OH241039   5.332   7.113   4.913
13699TIP3    H141040   5.303   7.064   4.837
13699TIP3    H241041   5.367   7.047   4.973
13700TIP3   OH241042   0.277   2.989   2.010
13700TIP3    H141043   0.199   3.042   1.996
13700TIP3    H241044   0.303   3.006   2.100
13701TIP3   OH241045   2.093   1.209   3.989
13701TIP3    H141046   2.132   1.291   4.018
13701TIP3    H241047   2.028   1.235   3.924
13702TIP3   OH241048   1.676   4.247   0.477
13702TIP3    H141049   1.639   4.159   0.470
13702TIP3    H241050   1.768   4.236   0.451
13703TIP3   OH241051   3.910   3.267   6.302
13703TIP3    H141052   3.961   3.332   6.350
13703TIP3    H241053   3.886   3.311   6.221
13704TIP3   OH241054   2.055   2.747   2.212
13704TIP3    H141055   1.962   2.741   2.230
13704TIP3    H241056   2.096   2.692   2.280
13705TIP3   OH241057   1.188   1.889   6.111
13705TIP3    H141058   1.161   1.890   6.019
13705TIP3    H241059   1.106   1.880   6.160
13706TIP3   OH241060   7.258   6.999   0.923
13706TIP3    H141061   7.217   7.055   0.988
13706TIP3    H241062   7.235   7.038   0.839
13707TIP3   OH241063   3.618   5.713   2.909
13707TIP3    H141064   3.693   5.730   2.852
13707TIP3    H241065   3.656   5.677   2.989
13708TIP3   OH241066   2.434   5.799   5.966
13708TIP3    H141067   2.520   5.766   5.995
13708TIP3    H241068   2.373   5.728   5.987
13709TIP3   OH241069   8.315   4.456   5.352
13709TIP3    H141070   8.235   4.417   5.388
13709TIP3    H241071   8.377   4.453   5.425
13710TIP3   OH241072   3.990   3.900   0.391
13710TIP3    H141073   3.961   3.989   0.410
13710TIP3    H241074   3.997   3.898   0.295
13711TIP3   OH241075   2.735   1.318   4.462
13711TIP3    H141076   2.661   1.273   4.422
13711TIP3    H241077   2.696   1.391   4.510
13712TIP3   OH241078   8.121   5.035   2.607
13712TIP3    H141079   8.199   5.005   2.561
13712TIP3    H241080   8.077   5.092   2.544
13713TIP3   OH241081   6.157   4.210   1.290
13713TIP3    H141082   6.222   4.147   1.259
13713TIP3    H241083   6.116   4.168   1.366
13714TIP3   OH241084   3.384   7.489   1.709
13714TIP3    H141085   3.473   7.470   1.739
13714TIP3    H241086   3.329   7.478   1.786
13715TIP3   OH241087   5.640   3.065   0.762
13715TIP3    H141088   5.552   3.097   0.781
13715TIP3    H241089   5.655   3.088   0.670
13716TIP3   OH241090   2.167   5.314   6.165
13716TIP3    H141091   2.081   5.300   6.125
13716TIP3    H241092   2.224   5.249   6.122
13717TIP3   OH241093   5.223   3.361   6.273
13717TIP3    H141094   5.237   3.287   6.215
13717TIP3    H241095   5.243   3.438   6.220
13718TIP3   OH241096   4.459   4.104   2.798
13718TIP3    H141097   4.421   4.179   2.843
13718TIP3    H241098   4.553   4.109   2.816
13719TIP3   OH241099   1.999   4.383   6.466
13719TIP3    H141100   2.018   4.456   6.408
13719TIP3    H241101   1.970   4.313   6.407
13720TIP3   OH241102   4.436   2.841   0.263
13720TIP3    H141103   4.483   2.823   0.344
13720TIP3    H241104   4.354   2.792   0.271
13721TIP3   OH241105   3.132   4.651   3.978
13721TIP3    H141106   3.070   4.640   4.050
13721TIP3    H241107   3.106   4.733   3.936
13722TIP3   OH241108   1.116   0.163   3.611
13722TIP3    H141109   1.172   0.160   3.689
13722TIP3    H241110   1.040   0.111   3.634
13723TIP3   OH241111   0.108   0.671   6.058
13723TIP3    H141112   0.059   0.710   6.130
13723TIP3    H241113   0.198   0.667   6.090
13724TIP3   OH241114   2.004   3.172   5.914
13724TIP3    H141115   1.996   3.080   5.889
13724TIP3    H241116   1.919   3.210   5.895
13725TIP3   OH241117   0.763   4.984   4.825
13725TIP3    H141118   0.778   4.894   4.853
13725TIP3    H241119   0.705   5.020   4.893
13726TIP3   OH241120   1.882   2.874   2.657
13726TIP3    H141121   1.958   2.924   2.628
13726TIP3    H241122   1.839   2.848   2.575
13727TIP3   OH241123   2.723   6.018   4.274
13727TIP3    H141124   2.778   6.036   4.198
13727TIP3    H241125   2.706   5.924   4.269
13728TIP3   OH241126   0.550   5.019   2.449
13728TIP3    H141127   0.614   4.948   2.447
13728TIP3    H241128   0.518   5.025   2.359
13729TIP3   OH241129   2.934   4.712   2.756
13729TIP3    H141130   2.859   4.655   2.740
13729TIP3    H241131   2.897   4.790   2.798
13730TIP3   OH241132   1.476   1.515   3.615
13730TIP3    H141133   1.448   1.548   3.530
13730TIP3    H241134   1.409   1.545   3.676
13731TIP3   OH241135   2.612   1.778   1.139
13731TIP3    H141136   2.594   1.810   1.051
13731TIP3    H241137   2.534   1.802   1.189
13732TIP3   OH241138   2.539   5.222   1.593
13732TIP3    H141139   2.583   5.259   1.517
13732TIP3    H241140   2.484   5.294   1.626
13733TIP3   OH241141   2.939   5.649   1.022
13733TIP3    H141142   3.010   5.621   0.964
13733TIP3    H241143   2.864   5.596   0.994
13734TIP3   OH241144   2.601   3.272   3.154
13734TIP3    H141145   2.689   3.298   3.182
13734TIP3    H241146   2.561   3.352   3.120
13735TIP3   OH241147   2.550   2.424   3.198
13735TIP3    H141148   2.615   2.494   3.187
13735TIP3    H241149   2.538   2.388   3.110
13736TIP3   OH241150   8.024   5.573   0.500
13736TIP3    H141151   8.088   5.612   0.440
13736TIP3    H241152   7.994   5.647   0.553
13737TIP3   OH241153   7.177   1.169   5.953
13737TIP3    H141154   7.270   1.157   5.976
13737TIP3    H241155   7.130   1.110   6.012
13738TIP3   OH241156   7.056   2.059   1.762
13738TIP3    H141157   7.145   2.040   1.734
13738TIP3    H241158   7.059   2.054   1.857
13739TIP3   OH241159   2.473   3.618   6.003
13739TIP3    H141160   2.494   3.687   5.940
13739TIP3    H241161   2.381   3.599   5.988
13740TIP3   OH241162   2.873   1.769   1.275
13740TIP3    H141163   2.795   1.774   1.221
13740TIP3    H241164   2.847   1.806   1.359
13741TIP3   OH241165   5.436   4.294   4.492
13741TIP3    H141166   5.452   4.357   4.562
13741TIP3    H241167   5.361   4.242   4.523
13742TIP3   OH241168   4.793   7.735   6.801
13742TIP3    H141169   4.722   7.798   6.813
13742TIP3    H241170   4.764   7.677   6.731
13743TIP3   OH241171   0.258   1.923   2.999
13743TIP3    H141172   0.206   1.997   2.967
13743TIP3    H241173   0.221   1.847   2.955
13744TIP3   OH241174   1.817   1.155   4.113
13744TIP3    H141175   1.893   1.109   4.077
13744TIP3    H241176   1.757   1.164   4.040
13745TIP3   OH241177   3.078   3.154   0.745
13745TIP3    H141178   3.078   3.110   0.830
13745TIP3    H241179   3.064   3.085   0.681
13746TIP3   OH241180   3.875   2.888   0.119
13746TIP3    H141181   3.943   2.868   0.184
13746TIP3    H241182   3.796   2.845   0.153
13747TIP3   OH241183   7.209   5.723   6.151
13747TIP3    H141184   7.207   5.640   6.104
13747TIP3    H241185   7.297   5.757   6.137
13748TIP3   OH241186   3.162   6.109   4.073
13748TIP3    H141187   3.245   6.127   4.028
13748TIP3    H241188   3.126   6.033   4.027
13749TIP3   OH241189   3.531   3.483   2.473
13749TIP3    H141190   3.575   3.565   2.497
13749TIP3    H241191   3.452   3.511   2.428
13750TIP3   OH241192   3.864   5.703   5.130
13750TIP3    H141193   3.911   5.620   5.132
13750TIP3    H241194   3.912   5.759   5.191
13751TIP3   OH241195   1.400   0.981   3.661
13751TIP3    H141196   1.406   1.072   3.631
13751TIP3    H241197   1.460   0.977   3.736
13752TIP3   OH241198   0.986   5.609   6.335
13752TIP3    H141199   1.035   5.583   6.413
13752TIP3    H241200   0.989   5.704   6.336
13753TIP3   OH241201   2.129   3.304   3.504
13753TIP3    H141202   2.043   3.274   3.534
13753TIP3    H241203   2.186   3.292   3.580
13754TIP3   OH241204   0.869   1.087   4.809
13754TIP3    H141205   0.941   1.129   4.761
13754TIP3    H241206   0.913   1.037   4.878
13755TIP3   OH241207   1.600   5.970   2.309
13755TIP3    H141208   1.565   5.970   2.220
13755TIP3    H241209   1.677   6.026   2.304
13756TIP3   OH241210   3.546   5.087   5.321
13756TIP3    H141211   3.452   5.080   5.308
13756TIP3    H241212   3.574   4.999   5.344
13757TIP3   OH241213   0.529   2.024   5.183
13757TIP3    H141214   0.534   2.019   5.278
13757TIP3    H241215   0.553   2.115   5.162
13758TIP3   OH241216   6.398   2.892   3.076
13758TIP3    H141217   6.450   2.852   3.006
13758TIP3    H241218   6.441   2.976   3.092
13759TIP3   OH241219   7.240   4.053   2.451
13759TIP3    H141220   7.194   3.969   2.448
13759TIP3    H241221   7.176   4.115   2.487
13760TIP3   OH241222   8.102   4.169   3.599
13760TIP3    H141223   8.032   4.231   3.578
13760TIP3    H241224   8.067   4.084   3.572
13761TIP3   OH241225   3.572   4.561   0.078
13761TIP3    H141226   3.490   4.566   0.127
13761TIP3    H241227   3.638   4.596   0.139
13762TIP3   OH241228   4.847   4.479   2.501
13762TIP3    H141229   4.836   4.406   2.562
13762TIP3    H241230   4.942   4.495   2.500
13763TIP3   OH241231   7.877   2.487   5.892
13763TIP3    H141232   7.903   2.480   5.984
13763TIP3    H241233   7.894   2.578   5.868
13764TIP3   OH241234   4.307   0.123   6.025
13764TIP3    H141235   4.347   0.108   5.939
13764TIP3    H241236   4.380   0.113   6.086
13765TIP3   OH241237   2.086   2.327   0.271
13765TIP3    H141238   2.086   2.252   0.210
13765TIP3    H241239   2.138   2.393   0.226
13766TIP3   OH241240  -0.057   5.667   1.024
13766TIP3    H141241  -0.072   5.671   0.930
13766TIP3    H241242   0.036   5.688   1.034
13767TIP3   OH241243   5.385   5.504   0.570
13767TIP3    H141244   5.399   5.439   0.501
13767TIP3    H241245   5.435   5.580   0.541
13768TIP3   OH241246   2.729   3.695   2.790
13768TIP3    H141247   2.817   3.679   2.824
13768TIP3    H241248   2.691   3.608   2.778
13769TIP3   OH241249   6.891   5.103   5.708
13769TIP3    H141250   6.882   5.184   5.659
13769TIP3    H241251   6.972   5.064   5.675
13770TIP3   OH241252   2.689   5.725   6.074
13770TIP3    H141253   2.726   5.636   6.074
13770TIP3    H241254   2.670   5.743   6.166
13771TIP3   OH241255   0.188   2.950   1.477
13771TIP3    H141256   0.241   2.914   1.548
13771TIP3    H241257   0.160   3.035   1.509
13772TIP3   OH241258   5.216   6.254   1.027
13772TIP3    H141259   5.273   6.290   1.095
13772TIP3    H241260   5.128   6.255   1.066
13773TIP3   OH241261   8.088   4.457   5.916
13773TIP3    H141262   8.116   4.386   5.974
13773TIP3    H241263   8.015   4.498   5.963
13774TIP3   OH241264   7.447   6.294   5.620
13774TIP3    H141265   7.441   6.252   5.534
13774TIP3    H241266   7.374   6.357   5.621
13775TIP3   OH241267   3.432   3.214   1.181
13775TIP3    H141268   3.499   3.156   1.144
13775TIP3    H241269   3.424   3.285   1.118
13776TIP3   OH241270   5.691   2.753   5.819
13776TIP3    H141271   5.761   2.695   5.849
13776TIP3    H241272   5.618   2.695   5.799
13777TIP3   OH241273   3.131   7.341   1.396
13777TIP3    H141274   3.152   7.290   1.474
13777TIP3    H241275   3.160   7.430   1.416
13778TIP3   OH241276   0.757   0.316   5.444
13778TIP3    H141277   0.835   0.370   5.433
13778TIP3    H241278   0.730   0.292   5.355
13779TIP3   OH241279   6.902   1.951   2.969
13779TIP3    H141280   6.920   1.909   3.054
13779TIP3    H241281   6.820   1.999   2.984
13780TIP3   OH241282   4.780   1.857   2.543
13780TIP3    H141283   4.866   1.899   2.534
13780TIP3    H241284   4.800   1.770   2.577
13781TIP3   OH241285   4.753   6.151   1.918
13781TIP3    H141286   4.704   6.127   1.997
13781TIP3    H241287   4.787   6.068   1.884
13782TIP3   OH241288   7.078   4.510   3.624
13782TIP3    H141289   7.116   4.564   3.692
13782TIP3    H241290   7.151   4.490   3.565
13783TIP3   OH241291   0.806   7.282   6.572
13783TIP3    H141292   0.892   7.252   6.604
13783TIP3    H241293   0.798   7.241   6.485
13784TIP3   OH241294   1.187   2.362   0.874
13784TIP3    H141295   1.257   2.351   0.810
13784TIP3    H241296   1.229   2.408   0.948
13785TIP3   OH241297   5.688   6.857   2.479
13785TIP3    H141298   5.657   6.831   2.566
13785TIP3    H241299   5.720   6.946   2.491
13786TIP3   OH241300   5.697   5.060   0.554
13786TIP3    H141301   5.651   5.050   0.637
13786TIP3    H241302   5.706   4.971   0.520
13787TIP3   OH241303   6.564   0.274   5.591
13787TIP3    H141304   6.616   0.335   5.644
13787TIP3    H241305   6.500   0.238   5.653
13788TIP3   OH241306   7.835   1.930   3.628
13788TIP3    H141307   7.772   1.992   3.593
13788TIP3    H241308   7.824   1.851   3.575
13789TIP3   OH241309   4.563   4.152   1.577
13789TIP3    H141310   4.585   4.157   1.670
13789TIP3    H241311   4.487   4.210   1.567
13790TIP3   OH241312   5.284   6.932   2.843
13790TIP3    H141313   5.376   6.930   2.869
13790TIP3    H241314   5.262   7.026   2.841
13791TIP3   OH241315   0.522   0.831   6.678
13791TIP3    H141316   0.583   0.905   6.684
13791TIP3    H241317   0.567   0.766   6.625
13792TIP3   OH241318   1.190   0.800   5.873
13792TIP3    H141319   1.157   0.736   5.937
13792TIP3    H241320   1.116   0.815   5.814
13793TIP3   OH241321   2.461   1.881   5.070
13793TIP3    H141322   2.448   1.841   5.156
13793TIP3    H241323   2.384   1.856   5.020
13794TIP3   OH241324   0.827   7.525   0.302
13794TIP3    H141325   0.768   7.558   0.234
13794TIP3    H241326   0.822   7.589   0.372
13795TIP3   OH241327   4.402   6.543   3.833
13795TIP3    H141328   4.386   6.510   3.921
13795TIP3    H241329   4.371   6.633   3.835
13796TIP3   OH241330   0.318   1.248   4.545
13796TIP3    H141331   0.280   1.334   4.526
13796TIP3    H241332   0.402   1.267   4.588
13797TIP3   OH241333   1.714   6.497   4.908
13797TIP3    H141334   1.755   6.540   4.983
13797TIP3    H241335   1.659   6.429   4.946
13798TIP3   OH241336   1.356   0.420   0.852
13798TIP3    H141337   1.415   0.383   0.919
13798TIP3    H241338   1.398   0.398   0.769
13799TIP3   OH241339   4.489   1.609   3.066
13799TIP3    H141340   4.465   1.686   3.014
13799TIP3    H241341   4.584   1.607   3.063
13800TIP3   OH241342   0.119   7.516   4.567
13800TIP3    H141343   0.144   7.560   4.649
13800TIP3    H241344   0.177   7.554   4.501
13801TIP3   OH241345   7.085   0.609   3.596
13801TIP3    H141346   7.078   0.695   3.638
13801TIP3    H241347   7.180   0.597   3.584
13802TIP3   OH241348   8.028   0.490   4.300
13802TIP3    H141349   7.986   0.572   4.324
13802TIP3    H241350   8.041   0.445   4.384
13803TIP3   OH241351   2.049   3.954   1.662
13803TIP3    H141352   2.104   4.031   1.677
13803TIP3    H241353   2.025   3.925   1.750
13804TIP3   OH241354   5.269   3.659   5.867
13804TIP3    H141355   5.340   3.677   5.807
13804TIP3    H241356   5.230   3.745   5.886
13805TIP3   OH241357   1.409   2.659   4.909
13805TIP3    H141358   1.449   2.577   4.878
13805TIP3    H241359   1.425   2.659   5.003
13806TIP3   OH241360   4.829   7.247   5.887
13806TIP3    H141361   4.772   7.265   5.962
13806TIP3    H241362   4.781   7.183   5.835
13807TIP3   OH241363   2.778   2.741   4.726
13807TIP3    H141364   2.707   2.677   4.727
13807TIP3    H241365   2.737   2.822   4.697
13808TIP3   OH241366   5.343   3.680   4.740
13808TIP3    H141367   5.384   3.675   4.827
13808TIP3    H241368   5.374   3.601   4.695
13809TIP3   OH241369   7.925   3.160   6.640
13809TIP3    H141370   7.998   3.201   6.687
13809TIP3    H241371   7.904   3.221   6.570
13810TIP3   OH241372   5.062   1.470   3.189
13810TIP3    H141373   5.027   1.526   3.119
13810TIP3    H241374   4.988   1.419   3.219
13811TIP3   OH241375   7.133   4.441   1.647
13811TIP3    H141376   7.100   4.526   1.619
13811TIP3    H241377   7.072   4.414   1.716
13812TIP3   OH241378   1.303   6.714   1.359
13812TIP3    H141379   1.224   6.662   1.345
13812TIP3    H241380   1.319   6.708   1.453
13813TIP3   OH241381   2.655   6.153   1.417
13813TIP3    H141382   2.654   6.065   1.378
13813TIP3    H241383   2.574   6.157   1.468
13814TIP3   OH241384   8.238   0.476   6.126
13814TIP3    H141385   8.311   0.537   6.121
13814TIP3    H241386   8.167   0.526   6.166
13815TIP3   OH241387   3.077   5.258   4.664
13815TIP3    H141388   3.086   5.259   4.759
13815TIP3    H241389   3.166   5.246   4.631
13816TIP3   OH241390   1.125   3.194   5.501
13816TIP3    H141391   1.057   3.238   5.551
13816TIP3    H241392   1.077   3.130   5.447
13817TIP3   OH241393   2.463   4.851   4.678
13817TIP3    H141394   2.368   4.846   4.672
13817TIP3    H241395   2.480   4.929   4.731
13818TIP3   OH241396   7.075   7.034   2.745
13818TIP3    H141397   7.045   7.010   2.658
13818TIP3    H241398   7.167   7.057   2.733
13819TIP3   OH241399   4.101   1.634   3.575
13819TIP3    H141400   4.185   1.591   3.560
13819TIP3    H241401   4.066   1.649   3.487
13820TIP3   OH241402   4.259   7.767   4.008
13820TIP3    H141403   4.347   7.746   4.039
13820TIP3    H241404   4.266   7.763   3.912
13821TIP3   OH241405   1.636   2.864   4.613
13821TIP3    H141406   1.652   2.856   4.519
13821TIP3    H241407   1.722   2.879   4.651
13822TIP3   OH241408   0.416   6.811   3.247
13822TIP3    H141409   0.342   6.753   3.266
13822TIP3    H241410   0.377   6.899   3.240
13823TIP3   OH241411   1.434   6.168   5.584
13823TIP3    H141412   1.348   6.143   5.619
13823TIP3    H241413   1.425   6.261   5.562
13824TIP3   OH241414   2.080   7.710   0.992
13824TIP3    H141415   2.125   7.678   1.070
13824TIP3    H241416   2.151   7.738   0.934
13825TIP3   OH241417   2.832   0.655   5.510
13825TIP3    H141418   2.739   0.647   5.534
13825TIP3    H241419   2.846   0.585   5.447
13826TIP3   OH241420   1.817   6.685   0.325
13826TIP3    H141421   1.779   6.598   0.316
13826TIP3    H241422   1.895   6.672   0.378
13827TIP3   OH241423   6.632   2.974   2.616
13827TIP3    H141424   6.645   3.045   2.679
13827TIP3    H241425   6.693   2.993   2.545
13828TIP3   OH241426   7.225   2.345   0.995
13828TIP3    H141427   7.134   2.327   1.019
13828TIP3    H241428   7.266   2.259   0.990
13829TIP3   OH241429   4.340   2.522   1.476
13829TIP3    H141430   4.363   2.607   1.439
13829TIP3    H241431   4.393   2.460   1.426
13830TIP3   OH241432   0.312   5.859   3.557
13830TIP3    H141433   0.269   5.781   3.592
13830TIP3    H241434   0.313   5.846   3.463
13831TIP3   OH241435   3.012   0.290   2.600
13831TIP3    H141436   2.965   0.210   2.620
13831TIP3    H241437   3.104   0.266   2.603
13832TIP3   OH241438   0.721   2.887   3.222
13832TIP3    H141439   0.650   2.951   3.222
13832TIP3    H241440   0.800   2.940   3.236
13833TIP3   OH241441   2.046   6.221   3.528
13833TIP3    H141442   1.985   6.262   3.466
13833TIP3    H241443   2.001   6.142   3.556
13834TIP3   OH241444   5.328   0.918   3.465
13834TIP3    H141445   5.395   0.858   3.498
13834TIP3    H241446   5.320   0.897   3.372
13835TIP3   OH241447   7.426   0.131   5.341
13835TIP3    H141448   7.481   0.208   5.329
13835TIP3    H241449   7.343   0.153   5.298
13836TIP3   OH241450   6.534   3.174   2.835
13836TIP3    H141451   6.605   3.217   2.882
13836TIP3    H241452   6.482   3.132   2.903
13837TIP3   OH241453   7.900   0.842   6.490
13837TIP3    H141454   7.903   0.795   6.406
13837TIP3    H241455   7.968   0.801   6.543
13838TIP3   OH241456   6.964   0.978   3.294
13838TIP3    H141457   6.936   1.053   3.347
13838TIP3    H241458   7.060   0.985   3.293
13839TIP3   OH241459   5.011   2.322   4.567
13839TIP3    H141460   5.004   2.337   4.472
13839TIP3    H241461   5.056   2.238   4.574
13840TIP3   OH241462   2.275   2.108   0.681
13840TIP3    H141463   2.263   2.201   0.702
13840TIP3    H241464   2.217   2.092   0.607
13841TIP3   OH241465   5.004   0.643   6.298
13841TIP3    H141466   4.962   0.561   6.273
13841TIP3    H241467   5.025   0.685   6.215
13842TIP3   OH241468   0.504   3.906   0.281
13842TIP3    H141469   0.474   3.989   0.243
13842TIP3    H241470   0.430   3.878   0.336
13843TIP3   OH241471   8.306   6.433   0.194
13843TIP3    H141472   8.240   6.488   0.150
13843TIP3    H241473   8.258   6.355   0.220
13844TIP3   OH241474   6.311   6.174   0.863
13844TIP3    H141475   6.332   6.177   0.957
13844TIP3    H241476   6.245   6.105   0.855
13845TIP3   OH241477   1.165   4.441   3.976
13845TIP3    H141478   1.120   4.378   3.920
13845TIP3    H241479   1.143   4.413   4.065
13846TIP3   OH241480   1.071   5.839   0.951
13846TIP3    H141481   1.100   5.880   0.869
13846TIP3    H241482   1.130   5.766   0.964
13847TIP3   OH241483   0.933   3.356   3.456
13847TIP3    H141484   0.891   3.391   3.535
13847TIP3    H241485   0.946   3.432   3.400
13848TIP3   OH241486   3.510   0.623   0.810
13848TIP3    H141487   3.438   0.583   0.858
13848TIP3    H241488   3.504   0.716   0.832
13849TIP3   OH241489   3.688   3.214   1.371
13849TIP3    H141490   3.643   3.299   1.366
13849TIP3    H241491   3.759   3.228   1.434
13850TIP3   OH241492   7.981   5.424   4.152
13850TIP3    H141493   7.885   5.429   4.153
13850TIP3    H241494   8.009   5.515   4.165
13851TIP3   OH241495   7.317   5.936   4.636
13851TIP3    H141496   7.278   5.915   4.721
13851TIP3    H241497   7.268   5.884   4.573
13852TIP3   OH241498   7.297   6.284   0.364
13852TIP3    H141499   7.253   6.365   0.337
13852TIP3    H241500   7.337   6.306   0.448
13853TIP3   OH241501   4.964   1.073   3.331
13853TIP3    H141502   4.915   1.147   3.368
13853TIP3    H241503   5.055   1.091   3.354
13854TIP3   OH241504   7.597   0.630   6.576
13854TIP3    H141505   7.546   0.549   6.580
13854TIP3    H241506   7.595   0.663   6.666
13855TIP3   OH241507   5.805   0.861   1.248
13855TIP3    H141508   5.772   0.923   1.184
13855TIP3    H241509   5.744   0.787   1.244
13856TIP3   OH241510   6.564   5.640   1.263
13856TIP3    H141511   6.566   5.546   1.248
13856TIP3    H241512   6.490   5.653   1.323
13857TIP3   OH241513   7.678   4.603   5.880
13857TIP3    H141514   7.610   4.663   5.912
13857TIP3    H241515   7.755   4.625   5.932
13858TIP3   OH241516   4.457   1.524   0.167
13858TIP3    H141517   4.441   1.572   0.248
13858TIP3    H241518   4.439   1.588   0.097
13859TIP3   OH241519   4.132   3.340   4.714
13859TIP3    H141520   4.123   3.420   4.662
13859TIP3    H241521   4.193   3.286   4.665
13860TIP3   OH241522   8.051   5.714   4.162
13860TIP3    H141523   8.011   5.685   4.244
13860TIP3    H241524   8.087   5.800   4.183
13861TIP3   OH241525   6.065   5.853   1.713
13861TIP3    H141526   6.053   5.788   1.783
13861TIP3    H241527   6.010   5.927   1.740
13862TIP3   OH241528   2.782   0.321   4.843
13862TIP3    H141529   2.748   0.408   4.864
13862TIP3    H241530   2.877   0.332   4.842
13863TIP3   OH241531   6.990   1.739   2.711
13863TIP3    H141532   7.048   1.804   2.751
13863TIP3    H241533   6.913   1.737   2.769
13864TIP3   OH241534   1.899   0.948   4.486
13864TIP3    H141535   1.827   0.895   4.452
13864TIP3    H241536   1.928   0.901   4.565
13865TIP3   OH241537   7.103   7.404   6.633
13865TIP3    H141538   7.110   7.462   6.709
13865TIP3    H241539   7.044   7.450   6.573
13866TIP3   OH241540   1.859   6.878   5.393
13866TIP3    H141541   1.880   6.823   5.469
13866TIP3    H241542   1.808   6.950   5.430
13867TIP3   OH241543   5.374   6.777   4.908
13867TIP3    H141544   5.453   6.830   4.900
13867TIP3    H241545   5.369   6.755   5.001
13868TIP3   OH241546   0.279   2.099   1.942
13868TIP3    H141547   0.334   2.046   1.885
13868TIP3    H241548   0.269   2.182   1.895
13869TIP3   OH241549   1.626   3.116   1.696
13869TIP3    H141550   1.642   3.185   1.761
13869TIP3    H241551   1.658   3.153   1.614
13870TIP3   OH241552   4.613   4.851   0.464
13870TIP3    H141553   4.565   4.933   0.456
13870TIP3    H241554   4.590   4.803   0.384
13871TIP3   OH241555   8.164   7.556   3.441
13871TIP3    H141556   8.074   7.573   3.412
13871TIP3    H241557   8.159   7.555   3.536
13872TIP3   OH241558   4.960   3.963   2.438
13872TIP3    H141559   4.933   3.936   2.350
13872TIP3    H241560   4.886   3.941   2.494
13873TIP3   OH241561   1.528   4.195   2.066
13873TIP3    H141562   1.506   4.266   2.005
13873TIP3    H241563   1.593   4.142   2.019
13874TIP3   OH241564   8.166   6.910   4.255
13874TIP3    H141565   8.228   6.838   4.245
13874TIP3    H241566   8.159   6.949   4.168
13875TIP3   OH241567   0.361   4.404   2.802
13875TIP3    H141568   0.452   4.432   2.793
13875TIP3    H241569   0.312   4.468   2.750
13876TIP3   OH241570   3.339   0.068   4.945
13876TIP3    H141571   3.401  -0.002   4.923
13876TIP3    H241572   3.292   0.085   4.863
13877TIP3   OH241573   0.817   4.999   6.663
13877TIP3    H141574   0.893   5.047   6.697
13877TIP3    H241575   0.779   5.057   6.597
13878TIP3   OH241576   7.259   1.033   4.926
13878TIP3    H141577   7.313   1.111   4.915
13878TIP3    H241578   7.200   1.054   4.998
13879TIP3   OH241579   4.632   6.496   3.674
13879TIP3    H141580   4.558   6.500   3.735
13879TIP3    H241581   4.629   6.579   3.627
13880TIP3   OH241582   1.965   4.803   3.178
13880TIP3    H141583   1.879   4.783   3.215
13880TIP3    H241584   1.963   4.896   3.158
13881TIP3   OH241585   4.249   5.195   4.334
13881TIP3    H141586   4.176   5.257   4.334
13881TIP3    H241587   4.244   5.151   4.249
13882TIP3   OH241588   8.047   1.638   6.392
13882TIP3    H141589   7.961   1.652   6.352
13882TIP3    H241590   8.101   1.709   6.357
13883TIP3   OH241591   2.396   7.253   1.288
13883TIP3    H141592   2.425   7.261   1.197
13883TIP3    H241593   2.403   7.160   1.308
13884TIP3   OH241594   4.686   2.695   3.965
13884TIP3    H141595   4.719   2.784   3.975
13884TIP3    H241596   4.668   2.687   3.871
13885TIP3   OH241597   0.146   7.087   3.512
13885TIP3    H141598   0.107   7.174   3.503
13885TIP3    H241599   0.218   7.100   3.575
13886TIP3   OH241600   8.033   0.764   1.946
13886TIP3    H141601   7.958   0.820   1.927
13886TIP3    H241602   8.051   0.720   1.863
13887TIP3   OH241603   2.956   6.650   2.774
13887TIP3    H141604   2.882   6.594   2.797
13887TIP3    H241605   2.921   6.712   2.711
13888TIP3   OH241606   7.595   1.045   0.884
13888TIP3    H141607   7.625   0.956   0.867
13888TIP3    H241608   7.606   1.057   0.979
13889TIP3   OH241609   1.538   4.975   4.737
13889TIP3    H141610   1.509   4.886   4.756
13889TIP3    H241611   1.465   5.014   4.690
13890TIP3   OH241612   2.447   6.407   2.759
13890TIP3    H141613   2.369   6.364   2.722
13890TIP3    H241614   2.507   6.412   2.685
13891TIP3   OH241615   1.749   3.728   2.357
13891TIP3    H141616   1.823   3.677   2.323
13891TIP3    H241617   1.741   3.700   2.448
13892TIP3   OH241618   6.353   2.144   2.449
13892TIP3    H141619   6.423   2.178   2.393
13892TIP3    H241620   6.391   2.066   2.490
13893TIP3   OH241621   5.264  -0.013   0.396
13893TIP3    H141622   5.358  -0.026   0.406
13893TIP3    H241623   5.254   0.079   0.373
13894TIP3   OH241624   4.531   0.827   5.059
13894TIP3    H141625   4.487   0.910   5.079
13894TIP3    H241626   4.617   0.853   5.026
13895TIP3   OH241627   3.256   0.183   6.569
13895TIP3    H141628   3.222   0.202   6.656
13895TIP3    H241629   3.269   0.269   6.529
13896TIP3   OH241630   6.346   6.615   5.379
13896TIP3    H141631   6.339   6.553   5.452
13896TIP3    H241632   6.304   6.695   5.412
13897TIP3   OH241633   7.791   4.694   4.873
13897TIP3    H141634   7.699   4.683   4.898
13897TIP3    H241635   7.791   4.773   4.819
13898TIP3   OH241636   8.214   4.974   3.226
13898TIP3    H141637   8.179   4.904   3.170
13898TIP3    H241638   8.180   5.054   3.187
13899TIP3   OH241639   2.849   3.404   4.783
13899TIP3    H141640   2.799   3.466   4.730
13899TIP3    H241641   2.848   3.322   4.732
13900TIP3   OH241642   4.505   6.644   0.621
13900TIP3    H141643   4.594   6.609   0.616
13900TIP3    H241644   4.463   6.614   0.540
13901TIP3   OH241645   2.613   2.040   4.743
13901TIP3    H141646   2.575   2.034   4.655
13901TIP3    H241647   2.700   2.002   4.733
13902TIP3   OH241648   1.374   0.878   3.024
13902TIP3    H141649   1.371   0.783   3.023
13902TIP3    H241650   1.467   0.899   3.031
13903TIP3   OH241651   7.967   2.772   2.793
13903TIP3    H141652   8.031   2.762   2.722
13903TIP3    H241653   7.989   2.856   2.833
13904TIP3   OH241654   3.214   0.615   0.579
13904TIP3    H141655   3.139   0.663   0.543
13904TIP3    H241656   3.175   0.559   0.647
13905TIP3   OH241657   3.079   2.753   3.821
13905TIP3    H141658   3.017   2.761   3.750
13905TIP3    H241659   3.102   2.660   3.823
13906TIP3   OH241660   5.658   3.034   1.034
13906TIP3    H141661   5.665   3.044   0.939
13906TIP3    H241662   5.696   3.114   1.070
13907TIP3   OH241663   0.906   2.604   2.808
13907TIP3    H141664   0.910   2.611   2.903
13907TIP3    H241665   0.989   2.640   2.777
13908TIP3   OH241666   7.797   0.303   0.826
13908TIP3    H141667   7.830   0.233   0.882
13908TIP3    H241668   7.829   0.282   0.739
13909TIP3   OH241669   1.997   4.205   2.989
13909TIP3    H141670   1.907   4.177   3.007
13909TIP3    H241671   2.046   4.177   3.067
13910TIP3   OH241672   0.666   7.391   5.707
13910TIP3    H141673   0.601   7.456   5.732
13910TIP3    H241674   0.671   7.397   5.612
13911TIP3   OH241675   0.545   7.381   2.048
13911TIP3    H141676   0.515   7.293   2.028
13911TIP3    H241677   0.624   7.392   1.994
13912TIP3   OH241678   1.923   4.721   2.918
13912TIP3    H141679   1.917   4.630   2.945
13912TIP3    H241680   1.944   4.769   2.998
13913TIP3   OH241681   1.090   1.819   0.224
13913TIP3    H141682   1.094   1.858   0.137
13913TIP3    H241683   1.089   1.725   0.209
13914TIP3   OH241684   3.301   5.048   1.370
13914TIP3    H141685   3.251   5.068   1.448
13914TIP3    H241686   3.257   4.971   1.332
13915TIP3   OH241687   6.738   7.683   3.013
13915TIP3    H141688   6.792   7.608   2.985
13915TIP3    H241689   6.655   7.671   2.968
13916TIP3   OH241690   6.027   4.616   3.215
13916TIP3    H141691   6.062   4.573   3.293
13916TIP3    H241692   5.980   4.692   3.250
13917TIP3   OH241693   2.342   0.464   1.686
13917TIP3    H141694   2.320   0.424   1.603
13917TIP3    H241695   2.354   0.391   1.746
13918TIP3   OH241696   6.756   1.782   0.953
13918TIP3    H141697   6.844   1.802   0.985
13918TIP3    H241698   6.717   1.727   1.021
13919TIP3   OH241699   3.033   6.436   5.802
13919TIP3    H141700   3.055   6.512   5.749
13919TIP3    H241701   3.021   6.470   5.890
13920TIP3   OH241702   2.064   7.167   6.036
13920TIP3    H141703   2.095   7.098   5.978
13920TIP3    H241704   1.972   7.145   6.052
13921TIP3   OH241705   5.051   5.099   3.599
13921TIP3    H141706   4.956   5.105   3.593
13921TIP3    H241707   5.081   5.093   3.508
13922TIP3   OH241708   8.263   7.598   1.730
13922TIP3    H141709   8.357   7.601   1.750
13922TIP3    H241710   8.231   7.522   1.778
13923TIP3   OH241711   5.736   2.642   6.817
13923TIP3    H141712   5.674   2.584   6.860
13923TIP3    H241713   5.822   2.602   6.833
13924TIP3   OH241714   6.420   0.895   5.106
13924TIP3    H141715   6.326   0.880   5.096
13924TIP3    H241716   6.426   0.985   5.137
13925TIP3   OH241717   8.094   6.607   0.453
13925TIP3    H141718   8.190   6.604   0.453
13925TIP3    H241719   8.070   6.616   0.361
13926TIP3   OH241720   2.386   7.207   0.391
13926TIP3    H141721   2.416   7.120   0.362
13926TIP3    H241722   2.401   7.207   0.486
13927TIP3   OH241723   4.906   5.463   1.280
13927TIP3    H141724   4.881   5.372   1.298
13927TIP3    H241725   4.837   5.495   1.222
13928TIP3   OH241726   6.248   6.019   2.396
13928TIP3    H141727   6.291   6.002   2.479
13928TIP3    H241728   6.263   6.113   2.380
13929TIP3   OH241729   2.936   1.928   3.115
13929TIP3    H141730   2.905   1.866   3.049
13929TIP3    H241731   3.015   1.887   3.150
13930TIP3   OH241732   7.683   2.848   2.826
13930TIP3    H141733   7.679   2.914   2.895
13930TIP3    H241734   7.776   2.844   2.802
13931TIP3   OH241735   3.566   1.662   2.098
13931TIP3    H141736   3.603   1.674   2.010
13931TIP3    H241737   3.506   1.587   2.088
13932TIP3   OH241738   2.300   6.762   1.373
13932TIP3    H141739   2.345   6.844   1.391
13932TIP3    H241740   2.210   6.789   1.353
13933TIP3   OH241741   3.058   2.465   1.127
13933TIP3    H141742   3.026   2.442   1.039
13933TIP3    H241743   3.025   2.554   1.142
13934TIP3   OH241744   0.073   5.063   2.198
13934TIP3    H141745   0.020   5.047   2.276
13934TIP3    H241746   0.071   4.979   2.151
13935TIP3   OH241747   5.228   0.087   6.468
13935TIP3    H141748   5.253  -0.005   6.481
13935TIP3    H241749   5.289   0.136   6.523
13936TIP3   OH241750   3.638   7.313   2.706
13936TIP3    H141751   3.573   7.268   2.760
13936TIP3    H241752   3.688   7.366   2.768
13937TIP3   OH241753   2.006   1.698   2.511
13937TIP3    H141754   1.963   1.693   2.597
13937TIP3    H241755   1.934   1.698   2.448
13938TIP3   OH241756   6.344   3.038   6.497
13938TIP3    H141757   6.340   2.977   6.424
13938TIP3    H241758   6.259   3.082   6.496
13939TIP3   OH241759   4.943   1.104   6.323
13939TIP3    H141760   4.912   1.152   6.246
13939TIP3    H241761   5.038   1.117   6.323
13940TIP3   OH241762   4.799   0.920   2.447
13940TIP3    H141763   4.814   0.863   2.523
13940TIP3    H241764   4.839   0.874   2.374
13941TIP3   OH241765   1.463   6.658   4.102
13941TIP3    H141766   1.545   6.660   4.151
13941TIP3    H241767   1.398   6.695   4.162
13942TIP3   OH241768   5.596   5.238   4.619
13942TIP3    H141769   5.507   5.265   4.596
13942TIP3    H241770   5.610   5.156   4.571
13943TIP3   OH241771   7.650   1.560   0.980
13943TIP3    H141772   7.662   1.505   1.057
13943TIP3    H241773   7.577   1.617   1.003
13944TIP3   OH241774   8.187   7.658   2.910
13944TIP3    H141775   8.203   7.630   3.001
13944TIP3    H241776   8.109   7.713   2.915
13945TIP3   OH241777   1.819   3.355   0.974
13945TIP3    H141778   1.841   3.263   0.993
13945TIP3    H241779   1.862   3.404   1.043
13946TIP3   OH241780   8.123   4.071   4.023
13946TIP3    H141781   8.190   4.099   4.085
13946TIP3    H241782   8.166   4.072   3.938
13947TIP3   OH241783   1.467   1.081   5.390
13947TIP3    H141784   1.412   1.005   5.410
13947TIP3    H241785   1.556   1.051   5.412
13948TIP3   OH241786   7.300   0.576   0.271
13948TIP3    H141787   7.322   0.561   0.363
13948TIP3    H241788   7.367   0.638   0.240
13949TIP3   OH241789   4.432   5.710   5.968
13949TIP3    H141790   4.410   5.692   5.876
13949TIP3    H241791   4.511   5.658   5.984
13950TIP3   OH241792   6.239   3.593   4.590
13950TIP3    H141793   6.236   3.574   4.684
13950TIP3    H241794   6.185   3.671   4.579
13951TIP3   OH241795   7.876   7.012   1.661
13951TIP3    H141796   7.868   7.085   1.600
13951TIP3    H241797   7.804   7.026   1.723
13952TIP3   OH241798   4.095   6.853   5.337
13952TIP3    H141799   4.134   6.873   5.252
13952TIP3    H241800   4.066   6.938   5.370
13953TIP3   OH241801   2.453   4.274   1.842
13953TIP3    H141802   2.368   4.307   1.870
13953TIP3    H241803   2.516   4.318   1.900
13954TIP3   OH241804   5.935   0.300   6.040
13954TIP3    H141805   5.901   0.232   6.099
13954TIP3    H241806   6.026   0.274   6.024
13955TIP3   OH241807   2.117   3.014   0.849
13955TIP3    H141808   2.024   2.999   0.830
13955TIP3    H241809   2.159   3.014   0.764
13956TIP3   OH241810   3.083   5.345   1.789
13956TIP3    H141811   3.032   5.387   1.858
13956TIP3    H241812   3.069   5.251   1.802
13957TIP3   OH241813   7.149   2.986   6.344
13957TIP3    H141814   7.138   2.920   6.413
13957TIP3    H241815   7.233   2.965   6.304
13958TIP3   OH241816   6.559   2.060   6.098
13958TIP3    H141817   6.611   2.073   6.018
13958TIP3    H241818   6.618   2.086   6.169
13959TIP3   OH241819   4.116   4.354   1.083
13959TIP3    H141820   4.163   4.382   1.005
13959TIP3    H241821   4.024   4.372   1.064
13960TIP3   OH241822   7.637   4.910   6.279
13960TIP3    H141823   7.667   4.891   6.368
13960TIP3    H241824   7.711   4.954   6.238
13961TIP3   OH241825   1.435   5.265   1.497
13961TIP3    H141826   1.353   5.231   1.534
13961TIP3    H241827   1.477   5.188   1.458
13962TIP3   OH241828   0.397   1.349   4.860
13962TIP3    H141829   0.473   1.292   4.873
13962TIP3    H241830   0.386   1.393   4.945
13963TIP3   OH241831   7.825   4.929   5.891
13963TIP3    H141832   7.893   4.965   5.835
13963TIP3    H241833   7.808   4.998   5.956
13964TIP3   OH241834   2.883   5.797   2.010
13964TIP3    H141835   2.795   5.817   1.978
13964TIP3    H241836   2.942   5.844   1.951
13965TIP3   OH241837   7.895   3.497   0.725
13965TIP3    H141838   7.831   3.528   0.788
13965TIP3    H241839   7.977   3.539   0.751
13966TIP3   OH241840   3.581   2.030   3.812
13966TIP3    H141841   3.631   2.095   3.861
13966TIP3    H241842   3.554   1.966   3.877
13967TIP3   OH241843   5.873   6.511   3.598
13967TIP3    H141844   5.968   6.517   3.584
13967TIP3    H241845   5.843   6.447   3.534
13968TIP3   OH241846   4.012   3.728   5.747
13968TIP3    H141847   3.930   3.721   5.797
13968TIP3    H241848   3.998   3.671   5.671
13969TIP3   OH241849   4.234   7.556   2.865
13969TIP3    H141850   4.155   7.597   2.900
13969TIP3    H241851   4.236   7.584   2.773
13970TIP3   OH241852   0.811   2.955   2.088
13970TIP3    H141853   0.769   2.903   2.020
13970TIP3    H241854   0.783   3.045   2.070
13971TIP3   OH241855   7.761   0.433   4.212
13971TIP3    H141856   7.756   0.344   4.247
13971TIP3    H241857   7.850   0.441   4.177
13972TIP3   OH241858   4.159   0.601   5.103
13972TIP3    H141859   4.224   0.671   5.095
13972TIP3    H241860   4.135   0.581   5.013
13973TIP3   OH241861   8.155   5.407   0.986
13973TIP3    H141862   8.195   5.488   1.018
13973TIP3    H241863   8.105   5.434   0.909
13974TIP3   OH241864   7.888   4.339   2.677
13974TIP3    H141865   7.934   4.360   2.759
13974TIP3    H241866   7.802   4.378   2.687
13975TIP3   OH241867   3.814   6.248   4.234
13975TIP3    H141868   3.730   6.216   4.201
13975TIP3    H241869   3.812   6.227   4.328
13976TIP3   OH241870   7.552   3.623   0.261
13976TIP3    H141871   7.572   3.712   0.232
13976TIP3    H241872   7.462   3.608   0.232
13977TIP3   OH241873   7.583   0.029   2.484
13977TIP3    H141874   7.569  -0.044   2.423
13977TIP3    H241875   7.670   0.062   2.464
13978TIP3   OH241876   0.497   3.033   2.652
13978TIP3    H141877   0.428   3.050   2.587
13978TIP3    H241878   0.497   2.938   2.662
13979TIP3   OH241879   0.410   2.742   1.963
13979TIP3    H141880   0.356   2.821   1.970
13979TIP3    H241881   0.484   2.758   2.022
13980TIP3   OH241882   3.290   1.533   4.769
13980TIP3    H141883   3.300   1.496   4.857
13980TIP3    H241884   3.370   1.509   4.723
13981TIP3   OH241885   4.001   5.839   4.721
13981TIP3    H141886   4.004   5.847   4.817
13981TIP3    H241887   3.995   5.745   4.705
13982TIP3   OH241888   7.013   2.691   3.596
13982TIP3    H141889   6.966   2.773   3.611
13982TIP3    H241890   7.082   2.691   3.662
13983TIP3   OH241891   0.383   0.761   2.213
13983TIP3    H141892   0.422   0.818   2.279
13983TIP3    H241893   0.288   0.774   2.223
13984TIP3   OH241894   1.945   3.066   4.867
13984TIP3    H141895   1.874   3.114   4.909
13984TIP3    H241896   2.012   3.058   4.935
13985TIP3   OH241897   0.770   5.411   4.415
13985TIP3    H141898   0.681   5.381   4.435
13985TIP3    H241899   0.786   5.483   4.477
13986TIP3   OH241900   2.024   4.390   3.295
13986TIP3    H141901   2.061   4.388   3.383
13986TIP3    H241902   2.049   4.306   3.256
13987TIP3   OH241903   7.523   0.634   3.865
13987TIP3    H141904   7.512   0.726   3.841
13987TIP3    H241905   7.617   0.617   3.853
13988TIP3   OH241906   1.402   6.937   2.586
13988TIP3    H141907   1.437   7.000   2.649
13988TIP3    H241908   1.479   6.905   2.538
13989TIP3   OH241909   2.741   7.801   2.763
13989TIP3    H141910   2.656   7.763   2.783
13989TIP3    H241911   2.788   7.801   2.846
13990TIP3   OH241912   6.338   3.898   0.912
13990TIP3    H141913   6.342   3.857   0.998
13990TIP3    H241914   6.430   3.911   0.887
13991TIP3   OH241915   3.426   7.209   6.060
13991TIP3    H141916   3.454   7.182   6.147
13991TIP3    H241917   3.507   7.216   6.010
13992TIP3   OH241918   3.216   7.491   6.355
13992TIP3    H141919   3.238   7.511   6.447
13992TIP3    H241920   3.121   7.477   6.356
13993TIP3   OH241921   7.802   5.073   3.731
13993TIP3    H141922   7.792   5.118   3.815
13993TIP3    H241923   7.894   5.087   3.708
13994TIP3   OH241924   1.174   2.060   3.312
13994TIP3    H141925   1.121   2.021   3.243
13994TIP3    H241926   1.200   2.146   3.277
13995TIP3   OH241927   7.758   2.473   6.516
13995TIP3    H141928   7.758   2.444   6.424
13995TIP3    H241929   7.680   2.433   6.553
13996TIP3   OH241930   6.635   1.086   2.634
13996TIP3    H141931   6.605   1.163   2.683
13996TIP3    H241932   6.714   1.116   2.590
13997TIP3   OH241933   0.902   0.851   2.890
13997TIP3    H141934   0.937   0.811   2.970
13997TIP3    H241935   0.857   0.930   2.920
13998TIP3   OH241936   1.346   4.844   1.138
13998TIP3    H141937   1.294   4.911   1.182
13998TIP3    H241938   1.307   4.761   1.166
13999TIP3   OH241939   0.331   5.714   5.980
13999TIP3    H141940   0.411   5.692   5.932
13999TIP3    H241941   0.343   5.676   6.067
14000TIP3   OH241942   2.707   1.127   0.948
14000TIP3    H141943   2.753   1.188   1.006
14000TIP3    H241944   2.639   1.088   1.002
14001TIP3   OH241945   6.405   0.623   2.735
14001TIP3    H141946   6.428   0.673   2.814
14001TIP3    H241947   6.475   0.557   2.728
14002TIP3   OH241948   5.018   5.302   4.763
14002TIP3    H141949   4.963   5.374   4.732
14002TIP3    H241950   5.074   5.280   4.689
14003TIP3   OH241951   4.593   4.184   0.245
14003TIP3    H141952   4.647   4.114   0.209
14003TIP3    H241953   4.611   4.182   0.339
14004TIP3   OH241954   5.030   5.480   1.700
14004TIP3    H141955   5.093   5.447   1.636
14004TIP3    H241956   5.058   5.442   1.783
14005TIP3   OH241957   2.860   6.117   4.061
14005TIP3    H141958   2.884   6.055   3.993
14005TIP3    H241959   2.936   6.174   4.071
14006TIP3   OH241960   0.924   4.335   3.403
14006TIP3    H141961   1.010   4.374   3.419
14006TIP3    H241962   0.862   4.402   3.433
14007TIP3   OH241963   5.313   1.277   4.390
14007TIP3    H141964   5.407   1.279   4.375
14007TIP3    H241965   5.299   1.201   4.447
14008TIP3   OH241966   2.386   6.062   3.178
14008TIP3    H141967   2.482   6.060   3.179
14008TIP3    H241968   2.362   6.104   3.260
14009TIP3   OH241969   3.205   6.993   5.426
14009TIP3    H141970   3.143   7.020   5.358
14009TIP3    H241971   3.159   6.924   5.473
14010TIP3   OH241972   1.222   7.068   2.839
14010TIP3    H141973   1.166   7.077   2.762
14010TIP3    H241974   1.250   6.976   2.838
14011TIP3   OH241975   3.763   4.925   3.132
14011TIP3    H141976   3.712   5.005   3.147
14011TIP3    H241977   3.843   4.939   3.183
14012TIP3   OH241978   4.830   0.887   0.845
14012TIP3    H141979   4.844   0.820   0.912
14012TIP3    H241980   4.765   0.848   0.786
14013TIP3   OH241981   2.272   4.357   0.449
14013TIP3    H141982   2.334   4.322   0.385
14013TIP3    H241983   2.265   4.450   0.428
14014TIP3   OH241984   3.072   1.206   4.547
14014TIP3    H141985   3.069   1.284   4.604
14014TIP3    H241986   3.117   1.140   4.600
14015TIP3   OH241987   0.247   0.806   0.448
14015TIP3    H141988   0.302   0.805   0.527
14015TIP3    H241989   0.174   0.864   0.471
14016TIP3   OH241990   3.779   3.157   1.118
14016TIP3    H141991   3.793   3.237   1.068
14016TIP3    H241992   3.757   3.187   1.206
14017TIP3   OH241993   2.084   4.120   4.912
14017TIP3    H141994   2.001   4.105   4.867
14017TIP3    H241995   2.060   4.170   4.990
14018TIP3   OH241996   4.250   1.700   1.772
14018TIP3    H141997   4.232   1.703   1.866
14018TIP3    H241998   4.301   1.779   1.754
14019TIP3   OH241999   3.658   3.470   4.357
14019TIP3    H142000   3.604   3.396   4.331
14019TIP3    H242001   3.596   3.542   4.372
14020TIP3   OH242002   7.008   6.673   5.145
14020TIP3    H142003   6.973   6.586   5.165
14020TIP3    H242004   6.932   6.722   5.113
14021TIP3   OH242005   0.740   3.691   1.146
14021TIP3    H142006   0.792   3.611   1.144
14021TIP3    H242007   0.801   3.761   1.125
14022TIP3   OH242008   4.589   7.013   5.269
14022TIP3    H142009   4.683   7.034   5.265
14022TIP3    H242010   4.585   6.936   5.326
14023TIP3   OH242011   1.500   3.451   6.019
14023TIP3    H142012   1.417   3.409   5.995
14023TIP3    H242013   1.493   3.466   6.113
14024TIP3   OH242014   4.945   2.885   2.300
14024TIP3    H142015   5.024   2.883   2.353
14024TIP3    H242016   4.909   2.973   2.313
14025TIP3   OH242017   3.891   1.626   0.494
14025TIP3    H142018   3.984   1.643   0.480
14025TIP3    H242019   3.857   1.606   0.407
14026TIP3   OH242020   8.105   7.786   4.550
14026TIP3    H142021   8.105   7.880   4.530
14026TIP3    H242022   8.050   7.779   4.628
14027TIP3   OH242023   0.403   0.429   1.060
14027TIP3    H142024   0.452   0.511   1.067
14027TIP3    H242025   0.434   0.389   0.979
14028TIP3   OH242026   7.322   4.471   2.792
14028TIP3    H142027   7.343   4.410   2.863
14028TIP3    H242028   7.272   4.419   2.730
14029TIP3   OH242029   7.513   5.077   2.387
14029TIP3    H142030   7.601   5.097   2.419
14029TIP3    H242031   7.523   4.992   2.343
14030TIP3   OH242032   0.375   0.616   3.289
14030TIP3    H142033   0.411   0.590   3.205
14030TIP3    H242034   0.408   0.704   3.304
14031TIP3   OH242035   2.352   1.165   3.908
14031TIP3    H142036   2.273   1.195   3.952
14031TIP3    H242037   2.406   1.243   3.899
14032TIP3   OH242038   0.886   6.392   6.672
14032TIP3    H142039   0.839   6.329   6.618
14032TIP3    H242040   0.939   6.337   6.731
14033TIP3   OH242041   8.361   3.150   1.940
14033TIP3    H142042   8.289   3.087   1.945
14033TIP3    H242043   8.339   3.217   2.004
14034TIP3   OH242044   0.001   7.269   6.005
14034TIP3    H142045   0.043   7.198   6.053
14034TIP3    H242046  -0.039   7.226   5.929
14035TIP3   OH242047   5.456   6.122   2.375
14035TIP3    H142048   5.363   6.114   2.395
14035TIP3    H242049   5.496   6.042   2.411
14036TIP3   OH242050   0.323   0.726   4.357
14036TIP3    H142051   0.292   0.717   4.446
14036TIP3    H242052   0.244   0.726   4.303
14037TIP3   OH242053   4.164   3.947   1.212
14037TIP3    H142054   4.233   3.889   1.243
14037TIP3    H242055   4.153   4.011   1.282
14038TIP3   OH242056   1.208   6.696   5.090
14038TIP3    H142057   1.248   6.756   5.027
14038TIP3    H242058   1.283   6.654   5.132
14039TIP3   OH242059   3.951   7.395   5.347
14039TIP3    H142060   3.934   7.328   5.281
14039TIP3    H242061   4.044   7.415   5.338
14040TIP3   OH242062   5.568   6.977   2.813
14040TIP3    H142063   5.570   7.042   2.882
14040TIP3    H242064   5.544   7.025   2.734
14041TIP3   OH242065   1.684   4.685   4.288
14041TIP3    H142066   1.706   4.778   4.283
14041TIP3    H242067   1.768   4.641   4.299
14042TIP3   OH242068   5.068   5.091   5.470
14042TIP3    H142069   5.074   5.042   5.552
14042TIP3    H242070   5.008   5.040   5.416
14043TIP3   OH242071   4.140   5.924   2.365
14043TIP3    H142072   4.110   6.003   2.409
14043TIP3    H242073   4.132   5.855   2.431
14044TIP3   OH242074   2.887   6.035   6.248
14044TIP3    H142075   2.963   6.065   6.297
14044TIP3    H242076   2.815   6.038   6.310
14045TIP3   OH242077   4.573   6.179   4.615
14045TIP3    H142078   4.652   6.199   4.565
14045TIP3    H242079   4.506   6.163   4.549
14046TIP3   OH242080   4.883   3.862   2.764
14046TIP3    H142081   4.964   3.898   2.800
14046TIP3    H242082   4.873   3.777   2.807
14047TIP3   OH242083   5.245   4.028   4.907
14047TIP3    H142084   5.257   4.000   4.997
14047TIP3    H242085   5.157   3.999   4.884
14048TIP3   OH242086   7.504   6.261   2.868
14048TIP3    H142087   7.507   6.319   2.792
14048TIP3    H242088   7.560   6.304   2.933
14049TIP3   OH242089   7.116   3.510   4.793
14049TIP3    H142090   7.118   3.414   4.800
14049TIP3    H242091   7.197   3.538   4.834
14050TIP3   OH242092   7.015   2.902   0.380
14050TIP3    H142093   7.021   2.924   0.287
14050TIP3    H242094   7.028   2.807   0.383
14051TIP3   OH242095   6.713   5.958   0.241
14051TIP3    H142096   6.716   6.000   0.327
14051TIP3    H242097   6.785   5.895   0.242
14052TIP3   OH242098   0.832   2.788   5.647
14052TIP3    H142099   0.894   2.797   5.574
14052TIP3    H242100   0.830   2.875   5.687
14053TIP3   OH242101   3.455   1.435   1.217
14053TIP3    H142102   3.393   1.465   1.283
14053TIP3    H242103   3.524   1.391   1.266
14054TIP3   OH242104   2.130   2.835   3.622
14054TIP3    H142105   2.100   2.748   3.651
14054TIP3    H242106   2.186   2.817   3.547
14055TIP3   OH242107   4.805   2.313   6.312
14055TIP3    H142108   4.754   2.312   6.393
14055TIP3    H242109   4.766   2.245   6.258
14056TIP3   OH242110   5.847   3.618   4.257
14056TIP3    H142111   5.818   3.694   4.207
14056TIP3    H242112   5.897   3.566   4.195
14057TIP3   OH242113   4.665   6.838   1.587
14057TIP3    H142114   4.701   6.812   1.503
14057TIP3    H242115   4.694   6.929   1.598
14058TIP3   OH242116   0.829   0.833   4.460
14058TIP3    H142117   0.739   0.799   4.459
14058TIP3    H242118   0.859   0.817   4.549
14059TIP3   OH242119   6.265   3.339   0.087
14059TIP3    H142120   6.251   3.338  -0.008
14059TIP3    H242121   6.177   3.327   0.124
14060TIP3   OH242122   5.710   1.888   5.982
14060TIP3    H142123   5.685   1.906   6.073
14060TIP3    H242124   5.629   1.902   5.932
14061TIP3   OH242125   3.789   7.465   1.492
14061TIP3    H142126   3.757   7.396   1.550
14061TIP3    H242127   3.835   7.418   1.422
14062TIP3   OH242128   1.419   4.940   1.788
14062TIP3    H142129   1.442   4.924   1.879
14062TIP3    H242130   1.491   4.992   1.753
14063TIP3   OH242131   2.058   0.589   0.136
14063TIP3    H142132   1.982   0.554   0.090
14063TIP3    H242133   2.077   0.671   0.091
14064TIP3   OH242134   3.978   4.271   2.656
14064TIP3    H142135   4.068   4.248   2.633
14064TIP3    H242136   3.925   4.230   2.588
14065TIP3   OH242137   4.886   2.836   2.704
14065TIP3    H142138   4.887   2.837   2.800
14065TIP3    H242139   4.968   2.792   2.681
14066TIP3   OH242140   5.585   2.282   6.095
14066TIP3    H142141   5.614   2.204   6.142
14066TIP3    H242142   5.611   2.268   6.004
14067TIP3   OH242143   8.101   1.516   5.752
14067TIP3    H142144   8.142   1.443   5.799
14067TIP3    H242145   8.175   1.564   5.713
14068TIP3   OH242146   4.749   0.194   6.058
14068TIP3    H142147   4.821   0.155   6.009
14068TIP3    H242148   4.708   0.121   6.103
14069TIP3   OH242149   3.615   6.024   1.553
14069TIP3    H142150   3.700   6.006   1.595
14069TIP3    H242151   3.618   5.974   1.472
14070TIP3   OH242152   1.886   7.598   4.260
14070TIP3    H142153   1.945   7.577   4.187
14070TIP3    H242154   1.815   7.535   4.252
14071TIP3   OH242155   3.642   6.566   1.994
14071TIP3    H142156   3.666   6.650   1.957
14071TIP3    H242157   3.597   6.520   1.923
14072TIP3   OH242158   4.621   7.255   3.553
14072TIP3    H142159   4.614   7.281   3.644
14072TIP3    H242160   4.611   7.337   3.504
14073TIP3   OH242161   5.534   4.647   1.388
14073TIP3    H142162   5.539   4.563   1.434
14073TIP3    H242163   5.610   4.695   1.419
14074TIP3   OH242164   7.831   7.744   5.804
14074TIP3    H142165   7.817   7.810   5.873
14074TIP3    H242166   7.925   7.750   5.784
14075TIP3   OH242167   1.489   5.955   3.453
14075TIP3    H142168   1.412   6.007   3.477
14075TIP3    H242169   1.559   5.988   3.508
14076TIP3   OH242170   4.579   4.986   2.446
14076TIP3    H142171   4.547   5.038   2.520
14076TIP3    H242172   4.510   4.922   2.429
14077TIP3   OH242173   1.010   6.389   6.349
14077TIP3    H142174   0.957   6.368   6.272
14077TIP3    H242175   0.994   6.316   6.409
14078TIP3   OH242176   0.108   2.499   2.364
14078TIP3    H142177   0.052   2.508   2.287
14078TIP3    H242178   0.192   2.537   2.338
14079TIP3   OH242179   5.931   1.180   5.794
14079TIP3    H142180   5.922   1.197   5.888
14079TIP3    H242181   5.847   1.141   5.769
14080TIP3   OH242182   2.540   2.436   2.791
14080TIP3    H142183   2.602   2.388   2.735
14080TIP3    H242184   2.505   2.370   2.850
14081TIP3   OH242185   4.030   5.061   1.110
14081TIP3    H142186   4.092   5.097   1.172
14081TIP3    H242187   4.005   5.135   1.055
14082TIP3   OH242188   1.053   7.645   2.410
14082TIP3    H142189   1.148   7.656   2.419
14082TIP3    H242190   1.041   7.618   2.318
14083TIP3   OH242191   2.742   5.542   4.200
14083TIP3    H142192   2.794   5.482   4.253
14083TIP3    H242193   2.719   5.492   4.122
14084TIP3   OH242194   0.185   1.702   2.331
14084TIP3    H142195   0.210   1.794   2.340
14084TIP3    H242196   0.159   1.676   2.419
14085TIP3   OH242197   1.920   5.767   5.678
14085TIP3    H142198   1.945   5.686   5.634
14085TIP3    H242199   1.842   5.796   5.631
14086TIP3   OH242200   1.237   7.198   1.646
14086TIP3    H142201   1.187   7.170   1.569
14086TIP3    H242202   1.246   7.293   1.635
14087TIP3   OH242203   0.319   6.414   1.421
14087TIP3    H142204   0.259   6.384   1.489
14087TIP3    H242205   0.354   6.497   1.453
14088TIP3   OH242206   3.625   0.865   0.022
14088TIP3    H142207   3.680   0.833  -0.049
14088TIP3    H242208   3.662   0.952   0.043
14089TIP3   OH242209   5.012   6.616   5.399
14089TIP3    H142210   4.941   6.680   5.396
14089TIP3    H242211   5.052   6.621   5.313
14090TIP3   OH242212   2.936   4.646   3.735
14090TIP3    H142213   2.842   4.628   3.733
14090TIP3    H242214   2.961   4.654   3.643
14091TIP3   OH242215   2.044   6.976   5.638
14091TIP3    H142216   2.055   7.052   5.581
14091TIP3    H242217   2.110   6.914   5.608
14092TIP3   OH242218   0.019   0.321   1.217
14092TIP3    H142219   0.006   0.358   1.304
14092TIP3    H242220   0.099   0.269   1.225
14093TIP3   OH242221   0.482   7.697   2.815
14093TIP3    H142222   0.546   7.632   2.842
14093TIP3    H242223   0.488   7.766   2.880
14094TIP3   OH242224   7.427   1.468   6.265
14094TIP3    H142225   7.438   1.515   6.348
14094TIP3    H242226   7.463   1.527   6.199
14095TIP3   OH242227   0.203   0.398   4.149
14095TIP3    H142228   0.282   0.451   4.138
14095TIP3    H242229   0.145   0.426   4.079
14096TIP3   OH242230   0.249   0.764   6.706
14096TIP3    H142231   0.340   0.793   6.697
14096TIP3    H242232   0.222   0.741   6.617
14097TIP3   OH242233   3.876   6.726   1.584
14097TIP3    H142234   3.868   6.801   1.525
14097TIP3    H242235   3.812   6.663   1.550
14098TIP3   OH242236   2.051   5.097   3.600
14098TIP3    H142237   2.023   5.034   3.667
14098TIP3    H242238   2.147   5.095   3.604
14099TIP3   OH242239   4.888   1.458   6.380
14099TIP3    H142240   4.929   1.377   6.409
14099TIP3    H242241   4.814   1.470   6.440
14100TIP3   OH242242   2.207   6.843   6.113
14100TIP3    H142243   2.194   6.782   6.040
14100TIP3    H242244   2.218   6.928   6.070
14101TIP3   OH242245   1.759   3.661   6.704
14101TIP3    H142246   1.745   3.607   6.782
14101TIP3    H242247   1.743   3.750   6.734
14102TIP3   OH242248   2.909   1.299   1.646
14102TIP3    H142249   2.963   1.230   1.608
14102TIP3    H242250   2.869   1.342   1.571
14103TIP3   OH242251   6.101   0.158   0.891
14103TIP3    H142252   6.032   0.223   0.904
14103TIP3    H242253   6.059   0.089   0.839
14104TIP3   OH242254   1.653   2.984   2.793
14104TIP3    H142255   1.656   2.922   2.867
14104TIP3    H242256   1.736   2.972   2.749
14105TIP3   OH242257   0.282   6.399   0.275
14105TIP3    H142258   0.288   6.416   0.369
14105TIP3    H242259   0.189   6.406   0.254
14106TIP3   OH242260   2.580   2.764   1.469
14106TIP3    H142261   2.649   2.828   1.450
14106TIP3    H242262   2.522   2.809   1.531
14107TIP3   OH242263   0.667   7.658   2.450
14107TIP3    H142264   0.629   7.744   2.472
14107TIP3    H242265   0.640   7.643   2.359
14108TIP3   OH242266   8.125   5.175   6.245
14108TIP3    H142267   8.211   5.135   6.229
14108TIP3    H242268   8.094   5.201   6.159
14109TIP3   OH242269   3.075   6.391   5.411
14109TIP3    H142270   3.157   6.390   5.460
14109TIP3    H242271   3.097   6.431   5.327
14110TIP3   OH242272   7.459   6.229   0.121
14110TIP3    H142273   7.401   6.251   0.194
14110TIP3    H242274   7.474   6.135   0.128
14111TIP3   OH242275   4.823   1.682   0.810
14111TIP3    H142276   4.757   1.632   0.859
14111TIP3    H242277   4.881   1.718   0.877
14112TIP3   OH242278   3.533   2.728   4.893
14112TIP3    H142279   3.544   2.732   4.988
14112TIP3    H242280   3.568   2.811   4.861
14113TIP3   OH242281   7.159   2.743   1.172
14113TIP3    H142282   7.188   2.820   1.221
14113TIP3    H242283   7.151   2.774   1.082
14114TIP3   OH242284   3.034   4.395   0.220
14114TIP3    H142285   3.021   4.363   0.131
14114TIP3    H242286   3.008   4.486   0.217
14115TIP3   OH242287   0.395   2.495   0.651
14115TIP3    H142288   0.348   2.540   0.721
14115TIP3    H242289   0.387   2.402   0.672
14116TIP3   OH242290   6.289   7.271   6.688
14116TIP3    H142291   6.284   7.359   6.650
14116TIP3    H242292   6.337   7.219   6.623
14117TIP3   OH242293   0.241   1.945   5.315
14117TIP3    H142294   0.174   1.937   5.382
14117TIP3    H242295   0.320   1.972   5.362
14118TIP3   OH242296   4.247   4.886   4.717
14118TIP3    H142297   4.318   4.948   4.733
14118TIP3    H242298   4.221   4.856   4.804
14119TIP3   OH242299   4.799   1.583   5.941
14119TIP3    H142300   4.788   1.604   5.848
14119TIP3    H242301   4.760   1.496   5.950
14120TIP3   OH242302   0.387   6.936   4.693
14120TIP3    H142303   0.303   6.897   4.717
14120TIP3    H242304   0.431   6.869   4.640
14121TIP3   OH242305   5.010   5.810   1.300
14121TIP3    H142306   5.059   5.876   1.347
14121TIP3    H242307   4.953   5.859   1.241
14122TIP3   OH242308   1.212   6.929   0.040
14122TIP3    H142309   1.271   6.992  -0.002
14122TIP3    H242310   1.127   6.945  -0.001
14123TIP3   OH242311   0.699   2.265   5.910
14123TIP3    H142312   0.614   2.294   5.942
14123TIP3    H242313   0.762   2.322   5.953
14124TIP3   OH242314   7.503   5.085   1.079
14124TIP3    H142315   7.506   5.015   1.014
14124TIP3    H242316   7.567   5.149   1.049
14125TIP3   OH242317   3.128   0.706   2.071
14125TIP3    H142318   3.191   0.678   2.137
14125TIP3    H242319   3.180   0.758   2.009
14126TIP3   OH242320   7.761   1.203   0.271
14126TIP3    H142321   7.726   1.280   0.316
14126TIP3    H242322   7.724   1.207   0.183
14127TIP3   OH242323   3.382   4.399   4.844
14127TIP3    H142324   3.303   4.426   4.892
14127TIP3    H242325   3.391   4.306   4.864
14128TIP3   OH242326   0.288   4.584   3.477
14128TIP3    H142327   0.249   4.610   3.393
14128TIP3    H242328   0.215   4.591   3.540
14129TIP3   OH242329   6.594   7.037   6.340
14129TIP3    H142330   6.552   7.006   6.261
14129TIP3    H242331   6.661   7.099   6.310
14130TIP3   OH242332   5.028   3.260   0.870
14130TIP3    H142333   5.026   3.287   0.962
14130TIP3    H242334   5.020   3.342   0.821
14131TIP3   OH242335   2.081   4.295   6.706
14131TIP3    H142336   2.098   4.207   6.672
14131TIP3    H242337   2.059   4.347   6.628
14132TIP3   OH242338   3.473   7.080   1.105
14132TIP3    H142339   3.390   7.107   1.065
14132TIP3    H242340   3.493   6.997   1.062
14133TIP3   OH242341   6.339   1.587   2.964
14133TIP3    H142342   6.357   1.504   3.009
14133TIP3    H242343   6.347   1.566   2.871
14134TIP3   OH242344   5.266   6.029   1.336
14134TIP3    H142345   5.318   5.960   1.293
14134TIP3    H242346   5.323   6.061   1.406
14135TIP3   OH242347   5.547   3.571   3.245
14135TIP3    H142348   5.627   3.534   3.209
14135TIP3    H242349   5.488   3.578   3.170
14136TIP3   OH242350   3.852   4.720   3.438
14136TIP3    H142351   3.933   4.717   3.489
14136TIP3    H242352   3.881   4.725   3.347
14137TIP3   OH242353   0.068   3.427   3.780
14137TIP3    H142354   0.020   3.470   3.709
14137TIP3    H242355   0.123   3.495   3.818
14138TIP3   OH242356   4.947   7.643   0.987
14138TIP3    H142357   4.855   7.664   0.973
14138TIP3    H242358   4.955   7.551   0.963
14139TIP3   OH242359   7.358   7.630   2.618
14139TIP3    H142360   7.264   7.648   2.614
14139TIP3    H242361   7.365   7.550   2.670
14140TIP3   OH242362   3.324   7.130   5.688
14140TIP3    H142363   3.415   7.154   5.706
14140TIP3    H242364   3.321   7.115   5.594
14141TIP3   OH242365   6.631   5.805   2.008
14141TIP3    H142366   6.590   5.882   2.047
14141TIP3    H242367   6.572   5.781   1.936
14142TIP3   OH242368   0.520   6.965   2.413
14142TIP3    H142369   0.480   6.912   2.344
14142TIP3    H242370   0.483   7.053   2.401
14143TIP3   OH242371   4.402   7.223   0.376
14143TIP3    H142372   4.337   7.215   0.446
14143TIP3    H242373   4.397   7.315   0.349
14144TIP3   OH242374   6.754   0.125   6.217
14144TIP3    H142375   6.830   0.103   6.271
14144TIP3    H242376   6.688   0.059   6.241
14145TIP3   OH242377   4.383   7.179   1.221
14145TIP3    H142378   4.358   7.231   1.297
14145TIP3    H242379   4.319   7.201   1.154
14146TIP3   OH242380   0.908   6.931   5.395
14146TIP3    H142381   0.943   7.010   5.436
14146TIP3    H242382   0.984   6.884   5.363
14147TIP3   OH242383   7.239   0.189   3.770
14147TIP3    H142384   7.287   0.128   3.826
14147TIP3    H242385   7.278   0.274   3.788
14148TIP3   OH242386   8.010   4.963   1.008
14148TIP3    H142387   8.083   5.020   1.033
14148TIP3    H242388   7.957   5.016   0.948
14149TIP3   OH242389   1.963   2.648   1.517
14149TIP3    H142390   2.054   2.617   1.513
14149TIP3    H242391   1.917   2.581   1.567
14150TIP3   OH242392   8.256   5.345   5.328
14150TIP3    H142393   8.212   5.348   5.243
14150TIP3    H242394   8.339   5.300   5.310
14151TIP3   OH242395   2.314   4.518   4.948
14151TIP3    H142396   2.391   4.565   4.979
14151TIP3    H242397   2.296   4.453   5.016
14152TIP3   OH242398   5.140   6.005   1.674
14152TIP3    H142399   5.129   5.913   1.649
14152TIP3    H242400   5.074   6.051   1.623
14153TIP3   OH242401   1.119   5.646   2.411
14153TIP3    H142402   1.053   5.617   2.475
14153TIP3    H242403   1.156   5.725   2.449
14154TIP3   OH242404   0.854   6.985   5.786
14154TIP3    H142405   0.935   6.983   5.734
14154TIP3    H242406   0.845   7.077   5.813
14155TIP3   OH242407   4.929   4.669   2.173
14155TIP3    H142408   4.894   4.683   2.085
14155TIP3    H242409   4.877   4.726   2.229
14156TIP3   OH242410   1.856   1.704   5.269
14156TIP3    H142411   1.803   1.748   5.203
14156TIP3    H242412   1.913   1.645   5.219
14157TIP3   OH242413   1.049   0.542   1.551
14157TIP3    H142414   1.043   0.456   1.509
14157TIP3    H242415   1.050   0.604   1.478
14158TIP3   OH242416   5.812   4.080   4.004
14158TIP3    H142417   5.884   4.017   3.998
14158TIP3    H242418   5.853   4.165   3.988
14159TIP3   OH242419   7.613   5.351   5.193
14159TIP3    H142420   7.606   5.258   5.218
14159TIP3    H242421   7.539   5.393   5.237
14160TIP3   OH242422   5.960   2.796   1.679
14160TIP3    H142423   5.877   2.749   1.672
14160TIP3    H242424   5.963   2.850   1.600
14161TIP3   OH242425   4.730   5.001   3.072
14161TIP3    H142426   4.681   5.029   2.995
14161TIP3    H242427   4.810   5.053   3.070
14162TIP3   OH242428   5.645   1.227   2.375
14162TIP3    H142429   5.637   1.299   2.438
14162TIP3    H242430   5.661   1.150   2.429
14163TIP3   OH242431   2.411   5.581   4.188
14163TIP3    H142432   2.419   5.490   4.215
14163TIP3    H242433   2.319   5.592   4.166
14164TIP3   OH242434   1.752   2.863   4.944
14164TIP3    H142435   1.824   2.892   5.001
14164TIP3    H242436   1.673   2.886   4.993
14165TIP3   OH242437   4.616   5.926   5.849
14165TIP3    H142438   4.574   5.862   5.905
14165TIP3    H242439   4.707   5.897   5.842
14166TIP3   OH242440   2.221   2.651   1.233
14166TIP3    H142441   2.307   2.609   1.229
14166TIP3    H242442   2.221   2.696   1.318
14167TIP3   OH242443   0.670   7.405   2.543
14167TIP3    H142444   0.659   7.495   2.514
14167TIP3    H242445   0.727   7.365   2.477
14168TIP3   OH242446   2.815   0.070   1.980
14168TIP3    H142447   2.898   0.051   2.026
14168TIP3    H242448   2.762  -0.009   1.994
14169TIP3   OH242449   2.262   6.465   2.204
14169TIP3    H142450   2.177   6.468   2.161
14169TIP3    H242451   2.302   6.549   2.185
14170TIP3   OH242452   4.999   2.027   4.237
14170TIP3    H142453   4.958   1.994   4.157
14170TIP3    H242454   4.927   2.069   4.284
14171TIP3   OH242455   1.319   2.179   1.390
14171TIP3    H142456   1.244   2.226   1.425
14171TIP3    H242457   1.376   2.165   1.466
14172TIP3   OH242458   2.136   5.286   1.432
14172TIP3    H142459   2.134   5.249   1.520
14172TIP3    H242460   2.044   5.302   1.411
14173TIP3   OH242461   1.561   7.583   4.176
14173TIP3    H142462   1.579   7.498   4.217
14173TIP3    H242463   1.562   7.645   4.249
14174TIP3   OH242464   6.146   6.445   2.686
14174TIP3    H142465   6.194   6.526   2.666
14174TIP3    H242466   6.061   6.457   2.644
14175TIP3   OH242467   1.499   7.124   4.853
14175TIP3    H142468   1.585   7.166   4.840
14175TIP3    H242469   1.436   7.194   4.836
14176TIP3   OH242470   4.810   2.335   0.168
14176TIP3    H142471   4.876   2.332   0.237
14176TIP3    H242472   4.788   2.243   0.152
14177TIP3   OH242473   0.582   6.699   4.489
14177TIP3    H142474   0.643   6.770   4.513
14177TIP3    H242475   0.626   6.654   4.417
14178TIP3   OH242476   2.163   7.492   5.400
14178TIP3    H142477   2.142   7.565   5.342
14178TIP3    H242478   2.251   7.511   5.433
14179TIP3   OH242479   4.855   4.728   0.621
14179TIP3    H142480   4.777   4.774   0.588
14179TIP3    H242481   4.907   4.796   0.663
14180TIP3   OH242482   3.234   1.801   1.032
14180TIP3    H142483   3.194   1.714   1.038
14180TIP3    H242484   3.220   1.827   0.940
14181TIP3   OH242485   5.072   0.471   2.643
14181TIP3    H142486   5.027   0.397   2.603
14181TIP3    H242487   5.160   0.469   2.606
14182TIP3   OH242488   3.124   2.978   6.281
14182TIP3    H142489   3.120   3.068   6.315
14182TIP3    H242490   3.070   2.928   6.341
14183TIP3   OH242491   6.411   7.061   6.554
14183TIP3    H142492   6.482   7.061   6.618
14183TIP3    H242493   6.455   7.058   6.469
14184TIP3   OH242494   2.989  -0.013   1.463
14184TIP3    H142495   3.021   0.058   1.407
14184TIP3    H242496   3.051  -0.085   1.450
14185TIP3   OH242497   8.177   0.260   0.355
14185TIP3    H142498   8.094   0.298   0.327
14185TIP3    H242499   8.201   0.310   0.433
14186TIP3   OH242500   2.675   2.511   1.432
14186TIP3    H142501   2.634   2.590   1.466
14186TIP3    H242502   2.769   2.524   1.446
14187TIP3   OH242503   4.184   2.259   5.326
14187TIP3    H142504   4.194   2.352   5.346
14187TIP3    H242505   4.103   2.234   5.370
14188TIP3   OH242506   5.636   0.519   4.512
14188TIP3    H142507   5.638   0.527   4.607
14188TIP3    H242508   5.548   0.547   4.487
14189TIP3   OH242509   2.770   7.703   4.430
14189TIP3    H142510   2.716   7.750   4.494
14189TIP3    H242511   2.782   7.766   4.358
14190TIP3   OH242512   5.487   4.998   1.014
14190TIP3    H142513   5.493   4.995   1.109
14190TIP3    H242514   5.565   4.952   0.984
14191TIP3   OH242515   5.786   0.065   5.352
14191TIP3    H142516   5.858   0.012   5.318
14191TIP3    H242517   5.823   0.109   5.429
14192TIP3   OH242518   7.436   4.535   6.254
14192TIP3    H142519   7.404   4.466   6.197
14192TIP3    H242520   7.384   4.528   6.334
14193TIP3   OH242521   5.319   0.947   0.242
14193TIP3    H142522   5.365   0.871   0.276
14193TIP3    H242523   5.276   0.986   0.318
14194TIP3   OH242524   3.924   1.359   2.645
14194TIP3    H142525   4.014   1.376   2.618
14194TIP3    H242526   3.913   1.409   2.726
14195TIP3   OH242527   6.327   3.654   2.973
14195TIP3    H142528   6.401   3.687   2.922
14195TIP3    H242529   6.336   3.559   2.971
14196TIP3   OH242530   4.632   3.616   2.831
14196TIP3    H142531   4.727   3.604   2.835
14196TIP3    H242532   4.615   3.638   2.739
14197TIP3   OH242533   1.358   7.176   5.732
14197TIP3    H142534   1.294   7.106   5.748
14197TIP3    H242535   1.443   7.134   5.746
14198TIP3   OH242536   4.136   5.443   0.848
14198TIP3    H142537   4.144   5.538   0.834
14198TIP3    H242538   4.226   5.411   0.839
14199TIP3   OH242539   2.534   3.473   4.665
14199TIP3    H142540   2.479   3.405   4.703
14199TIP3    H242541   2.584   3.429   4.596
14200TIP3   OH242542   0.669   7.553   2.962
14200TIP3    H142543   0.711   7.468   2.945
14200TIP3    H242544   0.737   7.607   3.001
14201TIP3   OH242545   0.031   7.029   3.075
14201TIP3    H142546   0.057   6.937   3.068
14201TIP3    H242547   0.046   7.065   2.988
14202TIP3   OH242548   3.060   5.740   4.468
14202TIP3    H142549   3.139   5.753   4.520
14202TIP3    H242550   3.080   5.780   4.383
14203TIP3   OH242551   2.034   6.912   1.700
14203TIP3    H142552   1.958   6.963   1.674
14203TIP3    H242553   2.108   6.971   1.688
14204TIP3   OH242554   6.862   5.737   2.160
14204TIP3    H142555   6.831   5.657   2.118
14204TIP3    H242556   6.804   5.806   2.127
14205TIP3   OH242557   7.198   4.759   0.397
14205TIP3    H142558   7.184   4.706   0.318
14205TIP3    H242559   7.164   4.845   0.375
14206TIP3   OH242560   2.597   5.588   3.518
14206TIP3    H142561   2.517   5.543   3.547
14206TIP3    H242562   2.656   5.518   3.491
14207TIP3   OH242563   4.307   5.022   2.091
14207TIP3    H142564   4.393   5.012   2.050
14207TIP3    H242565   4.245   5.005   2.020
14208TIP3   OH242566   4.274   4.099   3.256
14208TIP3    H142567   4.344   4.160   3.232
14208TIP3    H242568   4.319   4.027   3.300
14209TIP3   OH242569   1.377   1.086   0.583
14209TIP3    H142570   1.308   1.136   0.626
14209TIP3    H242571   1.355   0.995   0.601
14210TIP3   OH242572   0.995   7.522   5.130
14210TIP3    H142573   0.970   7.614   5.136
14210TIP3    H242574   1.052   7.507   5.205
14211TIP3   OH242575   7.565   3.948   6.165
14211TIP3    H142576   7.540   3.859   6.189
14211TIP3    H242577   7.614   3.938   6.083
14212TIP3   OH242578   1.539   0.966   6.383
14212TIP3    H142579   1.559   0.929   6.297
14212TIP3    H242580   1.444   0.975   6.384
14213TIP3   OH242581   4.827   5.085   6.078
14213TIP3    H142582   4.843   5.092   5.984
14213TIP3    H242583   4.803   4.993   6.091
14214TIP3   OH242584   1.998   0.787   1.420
14214TIP3    H142585   1.945   0.711   1.442
14214TIP3    H242586   1.951   0.830   1.349
14215TIP3   OH242587   1.364   1.649   3.370
14215TIP3    H142588   1.329   1.722   3.422
14215TIP3    H242589   1.294   1.626   3.310
14216TIP3   OH242590   3.500   1.445   4.598
14216TIP3    H142591   3.582   1.491   4.617
14216TIP3    H242592   3.527   1.361   4.561
14217TIP3   OH242593   3.218   7.081   0.166
14217TIP3    H142594   3.219   7.007   0.226
14217TIP3    H242595   3.151   7.140   0.200
14218TIP3   OH242596   2.033   3.592   4.205
14218TIP3    H142597   1.980   3.513   4.218
14218TIP3    H242598   1.984   3.661   4.248
14219TIP3   OH242599   2.805   5.676   3.663
14219TIP3    H142600   2.776   5.679   3.754
14219TIP3    H242601   2.725   5.668   3.612
14220TIP3   OH242602   3.774   2.789   1.333
14220TIP3    H142603   3.727   2.827   1.407
14220TIP3    H242604   3.723   2.814   1.256
14221TIP3   OH242605   0.079   2.169   2.393
14221TIP3    H142606   0.113   2.225   2.462
14221TIP3    H242607   0.109   2.210   2.312
14222TIP3   OH242608   2.468   6.131   5.072
14222TIP3    H142609   2.511   6.208   5.109
14222TIP3    H242610   2.470   6.146   4.977
14223TIP3   OH242611   5.706   1.285   3.394
14223TIP3    H142612   5.640   1.253   3.455
14223TIP3    H242613   5.686   1.241   3.311
14224TIP3   OH242614   3.015   3.627   1.838
14224TIP3    H142615   3.090   3.685   1.848
14224TIP3    H242616   3.053   3.542   1.815
14225TIP3   OH242617   3.863   6.236   1.405
14225TIP3    H142618   3.810   6.240   1.326
14225TIP3    H242619   3.884   6.143   1.415
14226TIP3   OH242620   8.147   2.566   6.709
14226TIP3    H142621   8.055   2.540   6.721
14226TIP3    H242622   8.152   2.593   6.617
14227TIP3   OH242623   2.471   3.751   2.444
14227TIP3    H142624   2.564   3.736   2.426
14227TIP3    H242625   2.455   3.706   2.527
14228TIP3   OH242626   5.397   5.556   3.714
14228TIP3    H142627   5.480   5.558   3.668
14228TIP3    H242628   5.359   5.471   3.692
14229TIP3   OH242629   3.345   7.102   6.571
14229TIP3    H142630   3.269   7.134   6.521
14229TIP3    H242631   3.306   7.052   6.643
14230TIP3   OH242632   0.286   3.753   2.706
14230TIP3    H142633   0.232   3.793   2.638
14230TIP3    H242634   0.238   3.769   2.787
14231TIP3   OH242635   6.447   2.635   0.712
14231TIP3    H142636   6.478   2.724   0.730
14231TIP3    H242637   6.475   2.584   0.788
14232TIP3   OH242638   8.253   4.801   4.337
14232TIP3    H142639   8.231   4.755   4.256
14232TIP3    H242640   8.285   4.732   4.396
14233TIP3   OH242641   3.795   4.461   2.736
14233TIP3    H142642   3.711   4.420   2.756
14233TIP3    H242643   3.851   4.388   2.708
14234TIP3   OH242644   0.998   0.945   0.549
14234TIP3    H142645   1.068   0.955   0.613
14234TIP3    H242646   0.947   0.871   0.582
14235TIP3   OH242647   5.973   4.897   5.923
14235TIP3    H142648   5.951   4.804   5.925
14235TIP3    H242649   6.065   4.899   5.896
14236TIP3   OH242650   0.024   1.633   3.452
14236TIP3    H142651   0.090   1.683   3.403
14236TIP3    H242652   0.043   1.541   3.431
14237TIP3   OH242653   7.066   6.866   5.345
14237TIP3    H142654   7.059   6.817   5.262
14237TIP3    H242655   7.047   6.956   5.321
14238TIP3   OH242656   7.664   3.371   0.257
14238TIP3    H142657   7.668   3.466   0.245
14238TIP3    H242658   7.571   3.351   0.261
14239TIP3   OH242659   2.799   6.928   1.676
14239TIP3    H142660   2.742   6.985   1.728
14239TIP3    H242661   2.844   6.988   1.616
14240TIP3   OH242662   1.988   1.211   0.989
14240TIP3    H142663   1.956   1.278   0.929
14240TIP3    H242664   1.917   1.198   1.051
14241TIP3   OH242665   0.531   6.334   4.234
14241TIP3    H142666   0.535   6.353   4.327
14241TIP3    H242667   0.569   6.246   4.226
14242TIP3   OH242668   0.024   2.515   5.786
14242TIP3    H142669   0.093   2.474   5.734
14242TIP3    H242670  -0.036   2.443   5.807
14243TIP3   OH242671   5.978   3.465   2.419
14243TIP3    H142672   6.050   3.408   2.390
14243TIP3    H242673   6.019   3.526   2.480
14244TIP3   OH242674   7.926   3.836   2.352
14244TIP3    H142675   7.982   3.799   2.420
14244TIP3    H242676   7.896   3.759   2.302
14245TIP3   OH242677   5.425   6.696   5.172
14245TIP3    H142678   5.456   6.605   5.166
14245TIP3    H242679   5.344   6.689   5.223
14246TIP3   OH242680   5.602   4.065   2.384
14246TIP3    H142681   5.678   4.111   2.348
14246TIP3    H242682   5.535   4.132   2.393
14247TIP3   OH242683   5.825   1.818   2.530
14247TIP3    H142684   5.845   1.787   2.619
14247TIP3    H242685   5.896   1.880   2.511
14248TIP3   OH242686   3.739   6.225   6.473
14248TIP3    H142687   3.766   6.317   6.468
14248TIP3    H242688   3.810   6.177   6.431
14249TIP3   OH242689   4.764   4.820   1.956
14249TIP3    H142690   4.738   4.745   1.904
14249TIP3    H242691   4.682   4.852   1.995
14250TIP3   OH242692   1.446   1.429   1.279
14250TIP3    H142693   1.541   1.426   1.289
14250TIP3    H242694   1.423   1.521   1.294
14251TIP3   OH242695   0.116   2.788   2.822
14251TIP3    H142696   0.177   2.835   2.880
14251TIP3    H242697   0.161   2.788   2.737
14252TIP3   OH242698   3.875   7.046   4.031
14252TIP3    H142699   3.875   6.966   3.979
14252TIP3    H242700   3.819   7.107   3.982
14253TIP3   OH242701   6.446   1.485   4.505
14253TIP3    H142702   6.511   1.495   4.575
14253TIP3    H242703   6.482   1.535   4.431
14254TIP3   OH242704   1.028   5.959   0.070
14254TIP3    H142705   1.065   5.996  -0.011
14254TIP3    H242706   0.934   5.951   0.052
14255TIP3   OH242707   3.317   1.919   3.711
14255TIP3    H142708   3.294   2.004   3.673
14255TIP3    H242709   3.378   1.940   3.781
14256TIP3   OH242710   6.832   1.286   1.331
14256TIP3    H142711   6.767   1.304   1.400
14256TIP3    H242712   6.782   1.294   1.249
14257TIP3   OH242713   2.418   5.002   1.694
14257TIP3    H142714   2.474   5.067   1.651
14257TIP3    H242715   2.478   4.949   1.745
14258TIP3   OH242716   5.026   1.042   4.641
14258TIP3    H142717   5.063   1.090   4.716
14258TIP3    H242718   5.084   1.064   4.568
14259TIP3   OH242719   8.312   1.303   5.866
14259TIP3    H142720   8.357   1.387   5.864
14259TIP3    H242721   8.232   1.318   5.916
14260TIP3   OH242722   2.846   2.953   5.490
14260TIP3    H142723   2.786   3.006   5.438
14260TIP3    H242724   2.870   3.009   5.564
14261TIP3   OH242725   3.190   5.205   3.114
14261TIP3    H142726   3.146   5.121   3.101
14261TIP3    H242727   3.131   5.269   3.073
14262TIP3   OH242728   6.276   0.666   0.726
14262TIP3    H142729   6.186   0.686   0.700
14262TIP3    H242730   6.329   0.687   0.650
14263TIP3   OH242731   3.638   2.853   0.762
14263TIP3    H142732   3.660   2.910   0.689
14263TIP3    H242733   3.722   2.834   0.803
14264TIP3   OH242734   7.071   5.355   1.539
14264TIP3    H142735   7.052   5.448   1.529
14264TIP3    H242736   7.098   5.345   1.630
14265TIP3   OH242737   5.692   4.414   0.566
14265TIP3    H142738   5.669   4.367   0.646
14265TIP3    H242739   5.607   4.440   0.528
14266TIP3   OH242740   0.265   6.730   5.272
14266TIP3    H142741   0.337   6.752   5.331
14266TIP3    H242742   0.278   6.787   5.196
14267TIP3   OH242743   0.014   1.516   6.178
14267TIP3    H142744  -0.047   1.580   6.141
14267TIP3    H242745   0.041   1.553   6.262
14268TIP3   OH242746   8.059   3.604   4.862
14268TIP3    H142747   8.034   3.559   4.942
14268TIP3    H242748   8.023   3.693   4.872
14269TIP3   OH242749   1.378   6.625   1.111
14269TIP3    H142750   1.357   6.663   1.196
14269TIP3    H242751   1.326   6.545   1.106
14270TIP3   OH242752   5.149   7.165   6.653
14270TIP3    H142753   5.197   7.248   6.652
14270TIP3    H242754   5.090   7.173   6.728
14271TIP3   OH242755   5.145   0.971   6.544
14271TIP3    H142756   5.234   0.989   6.576
14271TIP3    H242757   5.140   1.019   6.462
14272TIP3   OH242758   7.620   2.151   3.780
14272TIP3    H142759   7.650   2.137   3.691
14272TIP3    H242760   7.536   2.196   3.771
14273TIP3   OH242761   1.803   6.513   6.543
14273TIP3    H142762   1.844   6.453   6.606
14273TIP3    H242763   1.827   6.600   6.575
14274TIP3   OH242764   6.809   4.090   5.498
14274TIP3    H142765   6.797   4.008   5.546
14274TIP3    H242766   6.885   4.074   5.441
14275TIP3   OH242767   5.300   4.187   1.691
14275TIP3    H142768   5.316   4.197   1.785
14275TIP3    H242769   5.214   4.144   1.687
14276TIP3   OH242770   0.784   4.278   5.254
14276TIP3    H142771   0.794   4.312   5.343
14276TIP3    H242772   0.724   4.340   5.212
14277TIP3   OH242773   5.527   7.124   2.592
14277TIP3    H142774   5.452   7.170   2.554
14277TIP3    H242775   5.593   7.125   2.522
14278TIP3   OH242776   5.704   4.339   4.454
14278TIP3    H142777   5.736   4.373   4.370
14278TIP3    H242778   5.609   4.350   4.449
14279TIP3   OH242779   7.141   3.873   1.237
14279TIP3    H142780   7.061   3.841   1.280
14279TIP3    H242781   7.118   3.960   1.205
14280TIP3   OH242782   6.162   5.066   5.156
14280TIP3    H142783   6.144   4.973   5.139
14280TIP3    H242784   6.077   5.109   5.150
14281TIP3   OH242785   5.682   5.162   3.289
14281TIP3    H142786   5.768   5.136   3.322
14281TIP3    H242787   5.620   5.130   3.354
14282TIP3   OH242788   6.726   4.896   6.233
14282TIP3    H142789   6.631   4.885   6.237
14282TIP3    H242790   6.760   4.809   6.214
14283TIP3   OH242791   0.650   5.156   6.465
14283TIP3    H142792   0.609   5.241   6.479
14283TIP3    H242793   0.683   5.159   6.375
14284TIP3   OH242794   3.657   7.120   2.956
14284TIP3    H142795   3.688   7.113   3.047
14284TIP3    H242796   3.609   7.039   2.942
14285TIP3   OH242797   1.118   7.322   4.322
14285TIP3    H142798   1.159   7.339   4.407
14285TIP3    H242799   1.035   7.370   4.326
14286TIP3   OH242800   3.099   2.354   3.604
14286TIP3    H142801   3.138   2.351   3.516
14286TIP3    H242802   3.115   2.443   3.635
14287TIP3   OH242803   1.297   6.763   0.882
14287TIP3    H142804   1.238   6.836   0.900
14287TIP3    H242805   1.330   6.737   0.968
14288TIP3   OH242806   7.878   5.789   0.293
14288TIP3    H142807   7.819   5.724   0.255
14288TIP3    H242808   7.847   5.873   0.259
14289TIP3   OH242809   7.121   6.715   5.767
14289TIP3    H142810   7.155   6.707   5.856
14289TIP3    H242811   7.184   6.773   5.723
14290TIP3   OH242812   4.143   1.969   4.947
14290TIP3    H142813   4.169   1.917   4.871
14290TIP3    H242814   4.071   2.023   4.915
14291TIP3   OH242815   3.544   0.152   0.055
14291TIP3    H142816   3.567   0.230   0.004
14291TIP3    H242817   3.471   0.113   0.007
14292TIP3   OH242818   5.116   2.900   0.131
14292TIP3    H142819   5.046   2.865   0.187
14292TIP3    H242820   5.137   2.984   0.171
14293TIP3   OH242821   0.044   2.830   4.081
14293TIP3    H142822  -0.034   2.838   4.027
14293TIP3    H242823   0.038   2.904   4.142
14294TIP3   OH242824   0.449   5.484   0.309
14294TIP3    H142825   0.472   5.524   0.393
14294TIP3    H242826   0.508   5.409   0.301
14295TIP3   OH242827   6.798   3.148   0.434
14295TIP3    H142828   6.710   3.147   0.395
14295TIP3    H242829   6.857   3.129   0.362
14296TIP3   OH242830   1.655   4.636   0.383
14296TIP3    H142831   1.663   4.720   0.427
14296TIP3    H242832   1.624   4.576   0.451
14297TIP3   OH242833   6.104   5.976   0.848
14297TIP3    H142834   6.115   5.911   0.918
14297TIP3    H242835   6.018   5.956   0.811
14298TIP3   OH242836   3.601   5.415   4.526
14298TIP3    H142837   3.634   5.498   4.562
14298TIP3    H242838   3.603   5.428   4.432
14299TIP3   OH242839   0.101   0.901   4.901
14299TIP3    H142840   0.145   0.966   4.846
14299TIP3    H242841   0.036   0.862   4.844
14300TIP3   OH242842   0.532   7.535   3.568
14300TIP3    H142843   0.622   7.540   3.600
14300TIP3    H242844   0.532   7.585   3.486
14301TIP3   OH242845   6.581   0.609   1.051
14301TIP3    H142846   6.588   0.585   0.958
14301TIP3    H242847   6.599   0.528   1.098
14302TIP3   OH242848   0.253   6.852   1.356
14302TIP3    H142849   0.230   6.900   1.276
14302TIP3    H242850   0.169   6.822   1.391
14303TIP3   OH242851   7.399   7.380   2.815
14303TIP3    H142852   7.471   7.318   2.810
14303TIP3    H242853   7.333   7.336   2.869
14304TIP3   OH242854   3.646   0.653   1.485
14304TIP3    H142855   3.683   0.589   1.545
14304TIP3    H242856   3.557   0.621   1.468
14305TIP3   OH242857   3.876   3.987   4.877
14305TIP3    H142858   3.970   3.984   4.858
14305TIP3    H242859   3.855   3.901   4.912
14306TIP3   OH242860   1.345   6.463   4.731
14306TIP3    H142861   1.416   6.505   4.683
14306TIP3    H242862   1.333   6.379   4.686
14307TIP3   OH242863   0.811   2.334   1.052
14307TIP3    H142864   0.813   2.290   0.966
14307TIP3    H242865   0.852   2.419   1.036
14308TIP3   OH242866   1.893   5.044   6.010
14308TIP3    H142867   1.919   5.069   5.921
14308TIP3    H242868   1.890   5.127   6.058
14309TIP3   OH242869   3.117   3.395   5.867
14309TIP3    H142870   3.177   3.364   5.799
14309TIP3    H242871   3.050   3.327   5.873
14310TIP3   OH242872   4.540   5.770   3.009
14310TIP3    H142873   4.471   5.723   2.961
14310TIP3    H242874   4.579   5.704   3.065
14311TIP3   OH242875   8.101   5.999   6.021
14311TIP3    H142876   8.088   6.092   6.037
14311TIP3    H242877   8.013   5.965   6.004
14312TIP3   OH242878   4.844   1.512   0.554
14312TIP3    H142879   4.861   1.544   0.643
14312TIP3    H242880   4.881   1.423   0.553
14313TIP3   OH242881   2.204   1.262   4.364
14313TIP3    H142882   2.201   1.283   4.270
14313TIP3    H242883   2.167   1.174   4.370
14314TIP3   OH242884   2.309   0.106   4.956
14314TIP3    H142885   2.216   0.117   4.972
14314TIP3    H242886   2.336   0.186   4.910
14315TIP3   OH242887   5.223   6.931   3.892
14315TIP3    H142888   5.194   7.021   3.904
14315TIP3    H242889   5.145   6.884   3.865
14316TIP3   OH242890   1.039   5.067   5.623
14316TIP3    H142891   1.016   5.160   5.615
14316TIP3    H242892   1.005   5.041   5.708
14317TIP3   OH242893   4.322   5.630   6.257
14317TIP3    H142894   4.286   5.710   6.295
14317TIP3    H242895   4.376   5.661   6.184
14318TIP3   OH242896   6.015   6.567   3.112
14318TIP3    H142897   6.020   6.538   3.203
14318TIP3    H242898   5.947   6.511   3.073
14319TIP3   OH242899   2.314   1.337   6.692
14319TIP3    H142900   2.223   1.363   6.708
14319TIP3    H242901   2.365   1.416   6.709
14320TIP3   OH242902   6.787   6.339   1.686
14320TIP3    H142903   6.872   6.346   1.729
14320TIP3    H242904   6.726   6.318   1.756
14321TIP3   OH242905   5.075   2.674   4.017
14321TIP3    H142906   5.165   2.691   4.044
14321TIP3    H242907   5.069   2.579   4.010
14322TIP3   OH242908   0.148   3.789   4.764
14322TIP3    H142909   0.129   3.881   4.778
14322TIP3    H242910   0.116   3.771   4.676
14323TIP3   OH242911   3.306   7.711   5.983
14323TIP3    H142912   3.310   7.623   6.022
14323TIP3    H242913   3.333   7.770   6.054
14324TIP3   OH242914   7.933   0.336   1.401
14324TIP3    H142915   7.839   0.356   1.407
14324TIP3    H242916   7.948   0.325   1.307
14325TIP3   OH242917   8.076   2.557   4.017
14325TIP3    H142918   8.028   2.632   3.981
14325TIP3    H242919   8.034   2.481   3.976
14326TIP3   OH242920   7.470   5.338   5.762
14326TIP3    H142921   7.380   5.308   5.774
14326TIP3    H242922   7.514   5.314   5.844
14327TIP3   OH242923   0.743   6.192   0.114
14327TIP3    H142924   0.835   6.169   0.123
14327TIP3    H242925   0.724   6.247   0.189
14328TIP3   OH242926   3.202   3.125   1.008
14328TIP3    H142927   3.294   3.100   1.014
14328TIP3    H242928   3.192   3.196   1.071
14329TIP3   OH242929   0.905   7.818   2.895
14329TIP3    H142930   0.927   7.753   2.828
14329TIP3    H242931   0.987   7.867   2.909
14330TIP3   OH242932   2.894   6.118   0.655
14330TIP3    H142933   2.895   6.035   0.703
14330TIP3    H242934   2.803   6.128   0.627
14331TIP3   OH242935   8.132   0.264   3.275
14331TIP3    H142936   8.186   0.260   3.355
14331TIP3    H242937   8.164   0.191   3.222
14332TIP3   OH242938   0.230   1.322   0.131
14332TIP3    H142939   0.272   1.405   0.153
14332TIP3    H242940   0.272   1.295   0.049
14333TIP3   OH242941   7.948   2.033   3.057
14333TIP3    H142942   7.879   1.979   3.097
14333TIP3    H242943   7.903   2.079   2.986
14334TIP3   OH242944   7.011   0.189   2.526
14334TIP3    H142945   7.020   0.216   2.435
14334TIP3    H242946   6.918   0.173   2.538
14335TIP3   OH242947   6.412   6.040   3.927
14335TIP3    H142948   6.358   5.986   3.984
14335TIP3    H242949   6.350   6.101   3.887
14336TIP3   OH242950   3.842   2.055   1.384
14336TIP3    H142951   3.890   2.080   1.463
14336TIP3    H242952   3.804   2.137   1.353
14337TIP3   OH242953   5.542   5.373   4.868
14337TIP3    H142954   5.531   5.298   4.925
14337TIP3    H242955   5.591   5.339   4.793
14338TIP3   OH242956   4.323   3.027   5.118
14338TIP3    H142957   4.389   3.092   5.139
14338TIP3    H242958   4.267   3.022   5.196
14339TIP3   OH242959   0.919   7.169   3.101
14339TIP3    H142960   0.928   7.099   3.037
14339TIP3    H242961   0.848   7.224   3.065
14340TIP3   OH242962   3.909   7.732   5.713
14340TIP3    H142963   3.896   7.775   5.797
14340TIP3    H242964   3.840   7.766   5.657
14341TIP3   OH242965   1.953   6.101   3.092
14341TIP3    H142966   1.861   6.127   3.083
14341TIP3    H242967   1.994   6.129   3.010
14342TIP3   OH242968   1.121   2.041   0.053
14342TIP3    H142969   1.140   2.053   0.146
14342TIP3    H242970   1.070   2.118   0.028
14343TIP3   OH242971   1.633   0.651   2.132
14343TIP3    H142972   1.592   0.705   2.201
14343TIP3    H242973   1.612   0.561   2.157
14344TIP3   OH242974   7.210   2.571   5.504
14344TIP3    H142975   7.200   2.494   5.449
14344TIP3    H242976   7.286   2.551   5.559
14345TIP3   OH242977   5.081   5.840   3.078
14345TIP3    H142978   5.028   5.793   3.013
14345TIP3    H242979   5.100   5.775   3.145
14346TIP3   OH242980   8.296   5.561   1.273
14346TIP3    H142981   8.324   5.618   1.345
14346TIP3    H242982   8.269   5.622   1.204
14347TIP3   OH242983   7.673   6.404   3.608
14347TIP3    H142984   7.727   6.359   3.543
14347TIP3    H242985   7.605   6.447   3.557
14348TIP3   OH242986   1.615   2.059   1.738
14348TIP3    H142987   1.563   2.020   1.667
14348TIP3    H242988   1.647   1.984   1.788
14349TIP3   OH242989   6.605   1.256   1.505
14349TIP3    H142990   6.527   1.301   1.470
14349TIP3    H242991   6.591   1.255   1.599
14350TIP3   OH242992   4.121   3.570   1.636
14350TIP3    H142993   4.198   3.628   1.635
14350TIP3    H242994   4.154   3.487   1.672
14351TIP3   OH242995   5.978   2.900   4.200
14351TIP3    H142996   5.908   2.962   4.216
14351TIP3    H242997   6.033   2.942   4.134
14352TIP3   OH242998   4.039   2.842   6.369
14352TIP3    H142999   4.085   2.760   6.353
14352TIP3    H243000   3.947   2.821   6.355
14353TIP3   OH243001   4.113   3.505   2.919
14353TIP3    H143002   4.184   3.494   2.855
14353TIP3    H243003   4.042   3.449   2.887
14354TIP3   OH243004   4.586   4.501   5.344
14354TIP3    H143005   4.524   4.561   5.385
14354TIP3    H243006   4.591   4.530   5.252
14355TIP3   OH243007   3.969   3.931   0.997
14355TIP3    H143008   4.005   3.851   0.959
14355TIP3    H243009   3.988   3.924   1.090
14356TIP3   OH243010   1.215   1.265   1.740
14356TIP3    H143011   1.284   1.200   1.755
14356TIP3    H243012   1.133   1.216   1.753
14357TIP3   OH243013   6.340   0.255   0.539
14357TIP3    H143014   6.328   0.284   0.629
14357TIP3    H243015   6.373   0.332   0.492
14358TIP3   OH243016   2.458   1.001   3.305
14358TIP3    H143017   2.524   0.932   3.302
14358TIP3    H243018   2.498   1.070   3.358
14359TIP3   OH243019   3.576   1.273   5.363
14359TIP3    H143020   3.601   1.353   5.317
14359TIP3    H243021   3.582   1.205   5.296
14360TIP3   OH243022   4.074   1.004   5.295
14360TIP3    H143023   4.114   1.083   5.330
14360TIP3    H243024   4.075   1.017   5.200
14361TIP3   OH243025   2.705   0.680   0.499
14361TIP3    H143026   2.646   0.740   0.544
14361TIP3    H243027   2.790   0.695   0.539
14362TIP3   OH243028   8.038   2.895   4.347
14362TIP3    H143029   8.043   2.799   4.342
14362TIP3    H243030   8.006   2.922   4.261
14363TIP3   OH243031   1.084   5.233   3.797
14363TIP3    H143032   1.030   5.211   3.721
14363TIP3    H243033   1.029   5.212   3.872
14364TIP3   OH243034   0.933   7.599   5.532
14364TIP3    H143035   0.878   7.675   5.552
14364TIP3    H243036   0.875   7.537   5.488
14365TIP3   OH243037   6.459   2.457   3.333
14365TIP3    H143038   6.430   2.496   3.416
14365TIP3    H243039   6.382   2.457   3.278
14366TIP3   OH243040   1.165   2.344   2.771
14366TIP3    H143041   1.193   2.261   2.733
14366TIP3    H243042   1.160   2.404   2.696
14367TIP3   OH243043   7.834   3.215   1.955
14367TIP3    H143044   7.926   3.189   1.951
14367TIP3    H243045   7.801   3.200   1.867
14368TIP3   OH243046   5.893   5.758   3.722
14368TIP3    H143047   5.967   5.767   3.663
14368TIP3    H243048   5.863   5.668   3.710
14369TIP3   OH243049   1.827   4.944   5.217
14369TIP3    H143050   1.773   4.987   5.150
14369TIP3    H243051   1.834   5.009   5.287
14370TIP3   OH243052   1.490   7.479   2.081
14370TIP3    H143053   1.497   7.397   2.130
14370TIP3    H243054   1.537   7.543   2.135
14371TIP3   OH243055   4.572   3.040   3.654
14371TIP3    H143056   4.584   3.106   3.723
14371TIP3    H243057   4.490   3.065   3.612
14372TIP3   OH243058   3.618   7.588   4.918
14372TIP3    H143059   3.605   7.647   4.843
14372TIP3    H243060   3.698   7.619   4.960
14373TIP3   OH243061   3.685   5.023   6.135
14373TIP3    H143062   3.742   4.993   6.207
14373TIP3    H243063   3.737   5.006   6.056
14374TIP3   OH243064   0.710   0.680   5.347
14374TIP3    H143065   0.633   0.633   5.315
14374TIP3    H243066   0.711   0.662   5.441
14375TIP3   OH243067   6.665   2.447   1.735
14375TIP3    H143068   6.720   2.401   1.799
14375TIP3    H243069   6.577   2.441   1.771
14376TIP3   OH243070   6.893   5.085   4.420
14376TIP3    H143071   6.802   5.083   4.391
14376TIP3    H243072   6.897   5.023   4.492
14377TIP3   OH243073   5.184   6.678   1.051
14377TIP3    H143074   5.207   6.755   1.104
14377TIP3    H243075   5.180   6.606   1.114
14378TIP3   OH243076   7.516   5.957   2.043
14378TIP3    H143077   7.463   6.030   2.012
14378TIP3    H243078   7.467   5.922   2.118
14379TIP3   OH243079   2.585   1.849   6.715
14379TIP3    H143080   2.641   1.828   6.790
14379TIP3    H243081   2.632   1.919   6.669
14380TIP3   OH243082   6.709   0.030   2.848
14380TIP3    H143083   6.748  -0.056   2.833
14380TIP3    H243084   6.668   0.024   2.934
14381TIP3   OH243085   1.423   3.209   2.015
14381TIP3    H143086   1.429   3.261   2.095
14381TIP3    H243087   1.479   3.254   1.952
14382TIP3   OH243088   3.215   3.619   5.239
14382TIP3    H143089   3.241   3.608   5.330
14382TIP3    H243090   3.293   3.652   5.195
14383TIP3   OH243091   3.651   2.298   5.887
14383TIP3    H143092   3.714   2.235   5.923
14383TIP3    H243093   3.655   2.373   5.946
14384TIP3   OH243094   5.286   0.768   1.294
14384TIP3    H143095   5.255   0.737   1.379
14384TIP3    H243096   5.310   0.860   1.310
14385TIP3   OH243097   7.320   0.833   6.410
14385TIP3    H143098   7.413   0.858   6.407
14385TIP3    H243099   7.274   0.904   6.366
14386TIP3   OH243100   2.104   2.813   5.596
14386TIP3    H143101   2.085   2.878   5.663
14386TIP3    H243102   2.042   2.742   5.614
14387TIP3   OH243103   4.611   2.216   5.595
14387TIP3    H143104   4.523   2.189   5.569
14387TIP3    H243105   4.640   2.275   5.526
14388TIP3   OH243106   0.045   3.747   6.637
14388TIP3    H143107   0.073   3.655   6.628
14388TIP3    H243108  -0.033   3.753   6.582
14389TIP3   OH243109   0.770   5.762   5.581
14389TIP3    H143110   0.696   5.719   5.623
14389TIP3    H243111   0.846   5.737   5.634
14390TIP3   OH243112   0.131   0.066   5.880
14390TIP3    H143113   0.195   0.085   5.811
14390TIP3    H243114   0.184   0.031   5.952
14391TIP3   OH243115   4.895   6.425   3.750
14391TIP3    H143116   4.965   6.440   3.687
14391TIP3    H243117   4.819   6.468   3.712
14392TIP3   OH243118   0.175   3.376   5.366
14392TIP3    H143119   0.239   3.318   5.407
14392TIP3    H243120   0.204   3.464   5.390
14393TIP3   OH243121   7.483   3.888   2.457
14393TIP3    H143122   7.455   3.871   2.367
14393TIP3    H243123   7.417   3.949   2.491
14394TIP3   OH243124   4.742   4.178   2.329
14394TIP3    H143125   4.743   4.169   2.424
14394TIP3    H243126   4.675   4.117   2.299
14395TIP3   OH243127   5.122   6.363   3.893
14395TIP3    H143128   5.111   6.271   3.915
14395TIP3    H243129   5.052   6.381   3.830
14396TIP3   OH243130   0.952   4.721   1.780
14396TIP3    H143131   0.931   4.796   1.836
14396TIP3    H243132   1.015   4.755   1.717
14397TIP3   OH243133   8.182   0.576   4.084
14397TIP3    H143134   8.217   0.517   4.017
14397TIP3    H243135   8.098   0.538   4.108
14398TIP3   OH243136   1.272   4.973   0.291
14398TIP3    H143137   1.185   4.977   0.330
14398TIP3    H243138   1.291   4.880   0.282
14399TIP3   OH243139   1.222   6.449   1.777
14399TIP3    H143140   1.144   6.490   1.813
14399TIP3    H243141   1.190   6.392   1.707
14400TIP3   OH243142   7.563   6.249   1.722
14400TIP3    H143143   7.579   6.155   1.710
14400TIP3    H243144   7.646   6.284   1.754
14401TIP3   OH243145   3.070   1.128   1.153
14401TIP3    H143146   3.063   1.054   1.093
14401TIP3    H243147   2.991   1.179   1.139
14402TIP3   OH243148   7.951   1.588   0.790
14402TIP3    H143149   7.985   1.595   0.879
14402TIP3    H243150   8.011   1.640   0.737
14403TIP3   OH243151   5.430   7.534   1.092
14403TIP3    H143152   5.397   7.444   1.085
14403TIP3    H243153   5.377   7.583   1.028
14404TIP3   OH243154   0.154   1.535   5.912
14404TIP3    H143155   0.180   1.513   6.002
14404TIP3    H243156   0.146   1.630   5.912
14405TIP3   OH243157   8.085   1.360   5.974
14405TIP3    H143158   8.055   1.400   6.056
14405TIP3    H243159   8.009   1.312   5.942
14406TIP3   OH243160   5.991   7.340   5.079
14406TIP3    H143161   6.015   7.345   4.987
14406TIP3    H243162   5.923   7.407   5.091
14407TIP3   OH243163   1.051   4.317   4.624
14407TIP3    H143164   1.060   4.326   4.719
14407TIP3    H243165   1.067   4.224   4.607
14408TIP3   OH243166   2.469   6.764   1.684
14408TIP3    H143167   2.493   6.674   1.664
14408TIP3    H243168   2.452   6.764   1.778
14409TIP3   OH243169   4.313   6.814   3.179
14409TIP3    H143170   4.369   6.761   3.237
14409TIP3    H243171   4.225   6.778   3.192
14410TIP3   OH243172   6.939   6.853   5.601
14410TIP3    H143173   6.981   6.880   5.519
14410TIP3    H243174   7.002   6.794   5.642
14411TIP3   OH243175   3.628   6.457   3.825
14411TIP3    H143176   3.565   6.385   3.825
14411TIP3    H243177   3.684   6.441   3.749
14412TIP3   OH243178   3.731   0.144   5.674
14412TIP3    H143179   3.736   0.237   5.698
14412TIP3    H243180   3.641   0.119   5.692
14413TIP3   OH243181   8.264   2.971   6.685
14413TIP3    H143182   8.178   2.971   6.728
14413TIP3    H243183   8.279   2.880   6.662
14414TIP3   OH243184   5.253   2.444   0.445
14414TIP3    H143185   5.343   2.446   0.411
14414TIP3    H243186   5.207   2.512   0.396
14415TIP3   OH243187   1.898   3.802   4.374
14415TIP3    H143188   1.936   3.890   4.374
14415TIP3    H243189   1.933   3.761   4.452
14416TIP3   OH243190   6.919   5.864   3.806
14416TIP3    H143191   6.915   5.906   3.720
14416TIP3    H243192   6.837   5.890   3.849
14417TIP3   OH243193   0.760   6.480   5.742
14417TIP3    H143194   0.814   6.437   5.675
14417TIP3    H243195   0.823   6.509   5.808
14418TIP3   OH243196   5.599   2.716   5.501
14418TIP3    H143197   5.581   2.666   5.581
14418TIP3    H243198   5.524   2.699   5.444
14419TIP3   OH243199   2.239   4.244   4.372
14419TIP3    H143200   2.331   4.222   4.353
14419TIP3    H243201   2.223   4.324   4.322
14420TIP3   OH243202   3.537   4.332   2.836
14420TIP3    H143203   3.480   4.365   2.767
14420TIP3    H243204   3.490   4.349   2.917
14421TIP3   OH243205   0.108   0.414   6.392
14421TIP3    H143206   0.029   0.469   6.396
14421TIP3    H243207   0.087   0.337   6.445
14422TIP3   OH243208   7.421   2.798   1.694
14422TIP3    H143209   7.417   2.774   1.602
14422TIP3    H243210   7.381   2.723   1.740
14423TIP3   OH243211   2.249   3.705   0.825
14423TIP3    H143212   2.344   3.710   0.837
14423TIP3    H243213   2.237   3.681   0.733
14424TIP3   OH243214   6.116   4.607   2.914
14424TIP3    H143215   6.094   4.575   2.826
14424TIP3    H243216   6.051   4.566   2.971
14425TIP3   OH243217   6.365   6.549   1.616
14425TIP3    H143218   6.344   6.550   1.709
14425TIP3    H243219   6.391   6.459   1.597
14426TIP3   OH243220   4.016   0.321   0.108
14426TIP3    H143221   4.103   0.335   0.147
14426TIP3    H243222   4.033   0.305   0.016
14427TIP3   OH243223   7.505   1.854   2.255
14427TIP3    H143224   7.484   1.822   2.167
14427TIP3    H243225   7.432   1.910   2.278
14428TIP3   OH243226   8.263   7.365   4.728
14428TIP3    H143227   8.292   7.278   4.699
14428TIP3    H243228   8.293   7.424   4.658
14429TIP3   OH243229   6.651   4.298   5.468
14429TIP3    H143230   6.652   4.328   5.377
14429TIP3    H243231   6.700   4.216   5.468
14430TIP3   OH243232   0.678   4.788   3.916
14430TIP3    H143233   0.645   4.846   3.847
14430TIP3    H243234   0.619   4.713   3.913
14431TIP3   OH243235   6.578   1.256   6.383
14431TIP3    H143236   6.573   1.280   6.475
14431TIP3    H243237   6.497   1.289   6.345
14432TIP3   OH243238   1.600   3.379   1.896
14432TIP3    H143239   1.629   3.432   1.821
14432TIP3    H243240   1.596   3.441   1.969
14433TIP3   OH243241   2.377   6.611   6.568
14433TIP3    H143242   2.452   6.556   6.588
14433TIP3    H243243   2.409   6.701   6.580
14434TIP3   OH243244   2.828   4.315   2.771
14434TIP3    H143245   2.737   4.339   2.758
14434TIP3    H243246   2.842   4.325   2.865
14435TIP3   OH243247   4.446   2.028   1.250
14435TIP3    H143248   4.375   2.026   1.185
14435TIP3    H243249   4.457   1.937   1.276
14436TIP3   OH243250   7.574   3.689   3.955
14436TIP3    H143251   7.484   3.659   3.943
14436TIP3    H243252   7.610   3.632   4.023
14437TIP3   OH243253   3.506   1.191   2.132
14437TIP3    H143254   3.436   1.147   2.180
14437TIP3    H243255   3.471   1.278   2.112
14438TIP3   OH243256   4.127   1.114   4.035
14438TIP3    H143257   4.120   1.202   3.999
14438TIP3    H243258   4.201   1.074   3.989
14439TIP3   OH243259   6.714   3.792   0.548
14439TIP3    H143260   6.647   3.815   0.485
14439TIP3    H243261   6.667   3.777   0.630
14440TIP3   OH243262   7.362   5.672   6.477
14440TIP3    H143263   7.354   5.764   6.451
14440TIP3    H243264   7.456   5.653   6.468
14441TIP3   OH243265   3.022   5.734   5.853
14441TIP3    H143266   3.087   5.665   5.863
14441TIP3    H243267   2.980   5.741   5.939
14442TIP3   OH243268   7.120   1.783   6.681
14442TIP3    H143269   7.057   1.741   6.739
14442TIP3    H243270   7.159   1.711   6.632
14443TIP3   OH243271   6.017   4.601   4.868
14443TIP3    H143272   5.990   4.525   4.920
14443TIP3    H243273   5.936   4.635   4.831
14444TIP3   OH243274   7.022   4.425   6.635
14444TIP3    H143275   7.005   4.502   6.690
14444TIP3    H243276   7.084   4.373   6.685
14445TIP3   OH243277   2.184   0.684   0.913
14445TIP3    H143278   2.109   0.677   0.971
14445TIP3    H243279   2.211   0.593   0.898
14446TIP3   OH243280   1.093   5.447   4.752
14446TIP3    H143281   0.998   5.456   4.756
14446TIP3    H243282   1.111   5.360   4.787
14447TIP3   OH243283   7.009   0.424   5.939
14447TIP3    H143284   6.970   0.402   6.024
14447TIP3    H243285   7.078   0.359   5.927
14448TIP3   OH243286   4.326   2.653   3.496
14448TIP3    H143287   4.355   2.706   3.422
14448TIP3    H243288   4.302   2.717   3.563
14449TIP3   OH243289   7.258   1.342   1.490
14449TIP3    H143290   7.308   1.422   1.477
14449TIP3    H243291   7.321   1.272   1.472
14450TIP3   OH243292   2.641   6.008   2.364
14450TIP3    H143293   2.670   6.023   2.454
14450TIP3    H243294   2.694   5.933   2.334
14451TIP3   OH243295   7.372   3.724   2.652
14451TIP3    H143296   7.418   3.645   2.623
14451TIP3    H243297   7.401   3.792   2.591
14452TIP3   OH243298   3.790   1.517   4.368
14452TIP3    H143299   3.830   1.550   4.448
14452TIP3    H243300   3.760   1.596   4.322
14453TIP3   OH243301   1.301   1.873   2.866
14453TIP3    H143302   1.308   1.937   2.795
14453TIP3    H243303   1.339   1.793   2.830
14454TIP3   OH243304   3.181   5.333   3.354
14454TIP3    H143305   3.195   5.267   3.285
14454TIP3    H243306   3.269   5.350   3.388
14455TIP3   OH243307   0.718   4.205   4.349
14455TIP3    H143308   0.695   4.119   4.314
14455TIP3    H243309   0.690   4.267   4.282
14456TIP3   OH243310   1.879   1.692   2.038
14456TIP3    H143311   1.891   1.600   2.011
14456TIP3    H243312   1.912   1.742   1.964
14457TIP3   OH243313   6.134   3.120   5.228
14457TIP3    H143314   6.150   3.116   5.134
14457TIP3    H243315   6.221   3.118   5.268
14458TIP3   OH243316   0.539   5.379   1.038
14458TIP3    H143317   0.450   5.345   1.045
14458TIP3    H243318   0.589   5.329   1.102
14459TIP3   OH243319   3.422   0.136   2.243
14459TIP3    H143320   3.479   0.140   2.320
14459TIP3    H243321   3.483   0.123   2.170
14460TIP3   OH243322   3.518   6.109   3.716
14460TIP3    H143323   3.437   6.158   3.730
14460TIP3    H243324   3.491   6.017   3.719
14461TIP3   OH243325   5.220   0.989   0.504
14461TIP3    H143326   5.288   0.937   0.548
14461TIP3    H243327   5.140   0.938   0.515
14462TIP3   OH243328   8.111   6.338   2.607
14462TIP3    H143329   8.055   6.394   2.661
14462TIP3    H243330   8.107   6.378   2.520
14463TIP3   OH243331   4.769   0.080   6.752
14463TIP3    H143332   4.794  -0.012   6.750
14463TIP3    H243333   4.845   0.126   6.718
14464TIP3   OH243334   4.464   5.938   2.532
14464TIP3    H143335   4.448   5.845   2.545
14464TIP3    H243336   4.381   5.980   2.552
14465TIP3   OH243337   6.768   3.267   1.155
14465TIP3    H143338   6.749   3.360   1.155
14465TIP3    H243339   6.844   3.258   1.098
14466TIP3   OH243340   7.793   0.668   5.176
14466TIP3    H143341   7.707   0.702   5.151
14466TIP3    H243342   7.809   0.705   5.263
14467TIP3   OH243343   2.080   5.555   5.444
14467TIP3    H143344   2.065   5.483   5.506
14467TIP3    H243345   2.028   5.532   5.367
14468TIP3   OH243346   1.765   3.233   4.961
14468TIP3    H143347   1.713   3.197   5.032
14468TIP3    H243348   1.807   3.311   4.999
14469TIP3   OH243349   3.541   6.146   0.610
14469TIP3    H143350   3.593   6.151   0.530
14469TIP3    H243351   3.596   6.188   0.676
14470TIP3   OH243352   2.086   7.278   2.980
14470TIP3    H143353   2.168   7.322   3.001
14470TIP3    H243354   2.057   7.318   2.898
14471TIP3   OH243355   4.354   1.289   2.487
14471TIP3    H143356   4.341   1.262   2.578
14471TIP3    H243357   4.446   1.313   2.482
14472TIP3   OH243358   4.602   0.821   2.930
14472TIP3    H143359   4.574   0.797   3.018
14472TIP3    H243360   4.592   0.916   2.927
14473TIP3   OH243361   3.023   3.120   1.957
14473TIP3    H143362   3.026   3.200   2.010
14473TIP3    H243363   3.042   3.150   1.868
14474TIP3   OH243364   3.600   5.474   5.453
14474TIP3    H143365   3.507   5.495   5.449
14474TIP3    H243366   3.621   5.442   5.365
14475TIP3   OH243367   4.469   5.970   3.303
14475TIP3    H143368   4.519   6.040   3.343
14475TIP3    H243369   4.382   6.008   3.287
14476TIP3   OH243370   7.184   0.306   3.468
14476TIP3    H143371   7.214   0.342   3.551
14476TIP3    H243372   7.245   0.341   3.403
14477TIP3   OH243373   7.396   4.687   3.869
14477TIP3    H143374   7.434   4.600   3.857
14477TIP3    H243375   7.398   4.726   3.782
14478TIP3   OH243376   0.140   1.848   0.336
14478TIP3    H143377   0.218   1.876   0.383
14478TIP3    H243378   0.082   1.924   0.336
14479TIP3   OH243379   0.218   0.742   3.898
14479TIP3    H143380   0.272   0.672   3.935
14479TIP3    H243381   0.216   0.810   3.966
14480TIP3   OH243382   0.278   6.607   1.983
14480TIP3    H143383   0.338   6.679   2.005
14480TIP3    H243384   0.314   6.531   2.027
14481TIP3   OH243385   3.423   6.133   4.102
14481TIP3    H143386   3.494   6.078   4.068
14481TIP3    H243387   3.465   6.185   4.171
14482TIP3   OH243388   7.518   5.719   4.265
14482TIP3    H143389   7.602   5.678   4.284
14482TIP3    H243390   7.453   5.657   4.298
14483TIP3   OH243391   1.347   1.516   2.962
14483TIP3    H143392   1.390   1.439   3.001
14483TIP3    H243393   1.356   1.585   3.028
14484TIP3   OH243394   3.027   0.216   0.715
14484TIP3    H143395   2.975   0.296   0.710
14484TIP3    H243396   2.981   0.154   0.659
14485TIP3   OH243397   1.530   3.189   4.735
14485TIP3    H143398   1.496   3.278   4.725
14485TIP3    H243399   1.576   3.190   4.818
14486TIP3   OH243400   4.719   5.683   3.463
14486TIP3    H143401   4.771   5.720   3.535
14486TIP3    H243402   4.746   5.734   3.387
14487TIP3   OH243403   2.461   1.958   2.734
14487TIP3    H143404   2.373   1.996   2.730
14487TIP3    H243405   2.484   1.942   2.643
14488TIP3   OH243406   1.642   6.756   6.721
14488TIP3    H143407   1.734   6.753   6.692
14488TIP3    H243408   1.593   6.719   6.648
14489TIP3   OH243409   5.741   6.216   6.206
14489TIP3    H143410   5.745   6.253   6.294
14489TIP3    H243411   5.691   6.135   6.218
14490TIP3   OH243412   4.561   1.502   3.770
14490TIP3    H143413   4.491   1.479   3.831
14490TIP3    H243414   4.639   1.509   3.824
14491TIP3   OH243415   5.389   0.906   4.747
14491TIP3    H143416   5.343   0.844   4.803
14491TIP3    H243417   5.462   0.857   4.710
14492TIP3   OH243418   3.249   0.886   3.562
14492TIP3    H143419   3.327   0.844   3.526
14492TIP3    H243420   3.243   0.851   3.651
14493TIP3   OH243421   6.828   3.413   4.875
14493TIP3    H143422   6.792   3.494   4.912
14493TIP3    H243423   6.898   3.388   4.936
14494TIP3   OH243424   5.606   2.817   4.855
14494TIP3    H143425   5.614   2.733   4.900
14494TIP3    H243426   5.696   2.843   4.836
14495TIP3   OH243427   5.247   7.807   1.192
14495TIP3    H143428   5.227   7.716   1.212
14495TIP3    H243429   5.195   7.828   1.115
14496TIP3   OH243430   5.440   3.215   4.626
14496TIP3    H143431   5.462   3.288   4.683
14496TIP3    H243432   5.517   3.158   4.631
14497TIP3   OH243433   3.429   0.895   4.203
14497TIP3    H143434   3.517   0.908   4.169
14497TIP3    H243435   3.442   0.862   4.292
14498TIP3   OH243436   3.705   7.361   6.020
14498TIP3    H143437   3.711   7.432   5.957
14498TIP3    H243438   3.712   7.281   5.968
14499TIP3   OH243439   1.238   2.293   4.105
14499TIP3    H143440   1.273   2.284   4.194
14499TIP3    H243441   1.315   2.298   4.049
14500TIP3   OH243442   6.012   2.209   6.168
14500TIP3    H143443   6.100   2.203   6.207
14500TIP3    H243444   5.959   2.151   6.222
14501TIP3   OH243445   2.865   3.137   4.713
14501TIP3    H143446   2.945   3.133   4.661
14501TIP3    H243447   2.822   3.052   4.698
14502TIP3   OH243448   0.871   5.147   3.113
14502TIP3    H143449   0.884   5.186   3.026
14502TIP3    H243450   0.827   5.064   3.096
14503TIP3   OH243451   2.922   7.689   1.190
14503TIP3    H143452   2.928   7.760   1.126
14503TIP3    H243453   3.013   7.667   1.211
14504TIP3   OH243454   0.541   3.653   2.815
14504TIP3    H143455   0.527   3.711   2.890
14504TIP3    H243456   0.463   3.666   2.761
14505TIP3   OH243457   5.238   1.512   4.590
14505TIP3    H143458   5.186   1.485   4.514
14505TIP3    H243459   5.182   1.574   4.637
14506TIP3   OH243460   2.249   5.833   3.178
14506TIP3    H143461   2.297   5.916   3.172
14506TIP3    H243462   2.187   5.846   3.250
14507TIP3   OH243463   0.360   5.405   1.850
14507TIP3    H143464   0.435   5.388   1.908
14507TIP3    H243465   0.323   5.487   1.883
14508TIP3   OH243466   5.930   3.403   2.910
14508TIP3    H143467   5.888   3.317   2.910
14508TIP3    H243468   6.023   3.385   2.924
14509TIP3   OH243469   5.628   4.299   1.694
14509TIP3    H143470   5.651   4.209   1.718
14509TIP3    H243471   5.543   4.314   1.735
14510TIP3   OH243472   7.813   3.158   3.747
14510TIP3    H143473   7.864   3.233   3.716
14510TIP3    H243474   7.847   3.083   3.698
14511TIP3   OH243475   3.474   7.728   4.382
14511TIP3    H143476   3.536   7.764   4.319
14511TIP3    H243477   3.437   7.651   4.339
14512TIP3   OH243478   1.395   6.250   4.585
14512TIP3    H143479   1.430   6.243   4.496
14512TIP3    H243480   1.450   6.191   4.637
14513TIP3   OH243481   0.415   5.513   1.608
14513TIP3    H143482   0.422   5.433   1.556
14513TIP3    H243483   0.393   5.482   1.696
14514TIP3   OH243484   0.901   1.491   3.374
14514TIP3    H143485   0.872   1.575   3.409
14514TIP3    H243486   0.979   1.469   3.425
14515TIP3   OH243487   1.974   3.003   3.144
14515TIP3    H143488   1.968   3.090   3.103
14515TIP3    H243489   1.995   2.944   3.072
14516TIP3   OH243490   3.125   5.305   5.369
14516TIP3    H143491   3.090   5.243   5.433
14516TIP3    H243492   3.047   5.338   5.323
14517TIP3   OH243493   0.038   6.248   2.503
14517TIP3    H143494  -0.031   6.284   2.558
14517TIP3    H243495   0.081   6.324   2.464
14518TIP3   OH243496   3.476   2.400   2.728
14518TIP3    H143497   3.484   2.483   2.680
14518TIP3    H243498   3.555   2.397   2.783
14519TIP3   OH243499   7.460   7.383   0.781
14519TIP3    H143500   7.520   7.312   0.757
14519TIP3    H243501   7.507   7.432   0.848
14520TIP3   OH243502   5.049   3.216   2.457
14520TIP3    H143503   4.987   3.162   2.506
14520TIP3    H243504   5.115   3.240   2.521
14521TIP3   OH243505   6.257   1.025   6.250
14521TIP3    H143506   6.316   1.052   6.179
14521TIP3    H243507   6.313   0.974   6.309
14522TIP3   OH243508  -0.005   2.723   0.351
14522TIP3    H143509  -0.014   2.800   0.407
14522TIP3    H243510   0.077   2.682   0.380
14523TIP3   OH243511   1.102   3.479   2.037
14523TIP3    H143512   1.098   3.560   2.088
14523TIP3    H243513   1.117   3.508   1.947
14524TIP3   OH243514   1.411   5.854   6.521
14524TIP3    H143515   1.464   5.914   6.469
14524TIP3    H243516   1.468   5.827   6.593
14525TIP3   OH243517   4.914   6.060   0.022
14525TIP3    H143518   4.841   6.012   0.061
14525TIP3    H243519   4.879   6.148   0.006
14526TIP3   OH243520   2.996   0.348   0.436
14526TIP3    H143521   2.963   0.401   0.508
14526TIP3    H243522   2.922   0.294   0.409
14527TIP3   OH243523   1.724   2.255   1.880
14527TIP3    H143524   1.661   2.327   1.882
14527TIP3    H243525   1.691   2.196   1.812
14528TIP3   OH243526   2.064   4.465   3.611
14528TIP3    H143527   2.060   4.468   3.706
14528TIP3    H243528   2.156   4.480   3.590
14529TIP3   OH243529   7.993   6.075   0.012
14529TIP3    H143530   7.978   6.139  -0.057
14529TIP3    H243531   7.917   6.083   0.069
14530TIP3   OH243532   1.301   2.598   3.078
14530TIP3    H143533   1.358   2.563   3.010
14530TIP3    H243534   1.238   2.528   3.095
14531TIP3   OH243535   4.480   0.435   6.682
14531TIP3    H143536   4.454   0.418   6.773
14531TIP3    H243537   4.454   0.525   6.666
14532TIP3   OH243538   3.341   6.679   4.848
14532TIP3    H143539   3.349   6.629   4.767
14532TIP3    H243540   3.429   6.716   4.862
14533TIP3   OH243541   5.226   4.231   6.211
14533TIP3    H143542   5.133   4.252   6.207
14533TIP3    H243543   5.269   4.306   6.170
14534TIP3   OH243544   5.028   6.576   4.900
14534TIP3    H143545   4.970   6.590   4.825
14534TIP3    H243546   5.111   6.550   4.861
14535TIP3   OH243547   7.795   7.036   6.403
14535TIP3    H143548   7.876   6.985   6.393
14535TIP3    H243549   7.822   7.127   6.391
14536TIP3   OH243550   5.279   1.053   4.545
14536TIP3    H143551   5.244   0.982   4.492
14536TIP3    H243552   5.326   1.010   4.616
14537TIP3   OH243553   5.592   4.738   2.230
14537TIP3    H143554   5.565   4.751   2.320
14537TIP3    H243555   5.512   4.748   2.178
14538TIP3   OH243556   1.744   6.831   4.667
14538TIP3    H143557   1.668   6.798   4.714
14538TIP3    H243558   1.805   6.757   4.663
14539TIP3   OH243559   0.730   5.399   5.025
14539TIP3    H143560   0.820   5.398   5.058
14539TIP3    H243561   0.675   5.382   5.101
14540TIP3   OH243562   0.530   5.447   5.947
14540TIP3    H143563   0.526   5.371   5.888
14540TIP3    H243564   0.492   5.414   6.029
14541TIP3   OH243565   6.075   7.073   5.411
14541TIP3    H143566   6.125   7.101   5.334
14541TIP3    H243567   5.985   7.098   5.391
14542TIP3   OH243568   0.896   1.524   0.809
14542TIP3    H143569   0.982   1.483   0.817
14542TIP3    H243570   0.877   1.521   0.715
14543TIP3   OH243571   4.077   7.478   4.021
14543TIP3    H143572   4.051   7.396   3.980
14543TIP3    H243573   4.173   7.477   4.018
14544TIP3   OH243574   5.944   1.560   2.516
14544TIP3    H143575   5.986   1.498   2.456
14544TIP3    H243576   5.851   1.554   2.496
14545TIP3   OH243577   7.261   7.141   1.767
14545TIP3    H143578   7.246   7.209   1.833
14545TIP3    H243579   7.183   7.144   1.712
14546TIP3   OH243580   6.503   5.638   2.934
14546TIP3    H143581   6.435   5.628   2.867
14546TIP3    H243582   6.570   5.573   2.910
14547TIP3   OH243583   6.625   0.228   6.652
14547TIP3    H143584   6.562   0.179   6.600
14547TIP3    H243585   6.597   0.319   6.644
14548TIP3   OH243586   3.122   1.163   3.920
14548TIP3    H143587   3.195   1.103   3.938
14548TIP3    H243588   3.163   1.249   3.914
14549TIP3   OH243589   6.888   7.063   1.962
14549TIP3    H143590   6.845   7.035   2.043
14549TIP3    H243591   6.913   7.154   1.979
14550TIP3   OH243592   7.737   3.876   4.096
14550TIP3    H143593   7.682   3.805   4.062
14550TIP3    H243594   7.690   3.908   4.173
14551TIP3   OH243595   5.679   6.936   5.173
14551TIP3    H143596   5.598   6.963   5.129
14551TIP3    H243597   5.749   6.972   5.119
14552TIP3   OH243598   2.644   3.352   5.635
14552TIP3    H143599   2.590   3.426   5.663
14552TIP3    H243600   2.695   3.387   5.561
14553TIP3   OH243601   2.784   1.539   6.536
14553TIP3    H143602   2.807   1.461   6.485
14553TIP3    H243603   2.689   1.534   6.544
14554TIP3   OH243604   5.496   0.658   3.000
14554TIP3    H143605   5.489   0.644   2.906
14554TIP3    H243606   5.405   0.661   3.031
14555TIP3   OH243607   4.139   5.014   4.509
14555TIP3    H143608   4.193   4.967   4.573
14555TIP3    H243609   4.198   5.081   4.474
14556TIP3   OH243610   2.074   2.468   5.775
14556TIP3    H143611   2.156   2.424   5.797
14556TIP3    H243612   2.072   2.470   5.680
14557TIP3   OH243613   6.899   0.980   5.776
14557TIP3    H143614   6.903   1.029   5.857
14557TIP3    H243615   6.872   1.044   5.710
14558TIP3   OH243616   1.712   3.153   2.245
14558TIP3    H143617   1.748   3.121   2.162
14558TIP3    H243618   1.659   3.080   2.278
14559TIP3   OH243619   4.319   4.287   2.957
14559TIP3    H143620   4.293   4.369   2.915
14559TIP3    H243621   4.368   4.314   3.035
14560TIP3   OH243622   2.361   3.285   1.129
14560TIP3    H143623   2.331   3.195   1.113
14560TIP3    H243624   2.348   3.298   1.223
14561TIP3   OH243625   4.203   7.770   5.126
14561TIP3    H143626   4.129   7.813   5.083
14561TIP3    H243627   4.180   7.767   5.219
14562TIP3   OH243628   8.203   6.011   2.561
14562TIP3    H143629   8.128   6.032   2.505
14562TIP3    H243630   8.265   6.082   2.545
14563TIP3   OH243631   4.436   0.774   1.244
14563TIP3    H143632   4.403   0.732   1.323
14563TIP3    H243633   4.357   0.809   1.201
14564TIP3   OH243634   7.791   5.870   2.725
14564TIP3    H143635   7.883   5.845   2.720
14564TIP3    H243636   7.792   5.963   2.746
14565TIP3   OH243637   3.501   6.746   0.763
14565TIP3    H143638   3.431   6.753   0.829
14565TIP3    H243639   3.522   6.652   0.761
14566TIP3   OH243640   1.460   7.488   1.561
14566TIP3    H143641   1.407   7.473   1.482
14566TIP3    H243642   1.416   7.560   1.605
14567TIP3   OH243643   5.075   6.563   1.917
14567TIP3    H143644   5.131   6.494   1.951
14567TIP3    H243645   4.986   6.531   1.932
14568TIP3   OH243646   1.982   0.108   1.913
14568TIP3    H143647   2.044   0.171   1.949
14568TIP3    H243648   2.035   0.050   1.859
14569TIP3   OH243649   0.045   6.315   4.250
14569TIP3    H143650  -0.046   6.286   4.253
14569TIP3    H243651   0.092   6.244   4.207
14570TIP3   OH243652   4.164   0.949   3.700
14570TIP3    H143653   4.252   0.913   3.716
14570TIP3    H243654   4.106   0.873   3.704
14571TIP3   OH243655   4.193   0.763   1.578
14571TIP3    H143656   4.108   0.718   1.573
14571TIP3    H243657   4.213   0.764   1.672
14572TIP3   OH243658   6.825   1.729   3.880
14572TIP3    H143659   6.875   1.649   3.894
14572TIP3    H243660   6.736   1.698   3.861
14573TIP3   OH243661   2.854   6.943   3.657
14573TIP3    H143662   2.881   7.035   3.654
14573TIP3    H243663   2.910   6.899   3.594
14574TIP3   OH243664   5.702   5.578   1.584
14574TIP3    H143665   5.787   5.583   1.540
14574TIP3    H243666   5.645   5.635   1.533
14575TIP3   OH243667   5.309   0.209   5.478
14575TIP3    H143668   5.242   0.274   5.500
14575TIP3    H243669   5.364   0.204   5.557
14576TIP3   OH243670  -0.019   0.871   3.965
14576TIP3    H143671   0.035   0.791   3.963
14576TIP3    H243672   0.043   0.940   3.989
14577TIP3   OH243673   2.118   2.402   5.303
14577TIP3    H143674   2.033   2.447   5.308
14577TIP3    H243675   2.117   2.359   5.217
14578TIP3   OH243676   2.588   4.033   5.188
14578TIP3    H143677   2.589   3.950   5.140
14578TIP3    H243678   2.587   4.007   5.280
14579TIP3   OH243679   3.690   3.054   5.755
14579TIP3    H143680   3.705   3.016   5.841
14579TIP3    H243681   3.622   3.120   5.769
14580TIP3   OH243682   0.250   4.101   4.486
14580TIP3    H143683   0.259   4.171   4.422
14580TIP3    H243684   0.334   4.099   4.532
14581TIP3   OH243685   4.700   5.632   1.429
14581TIP3    H143686   4.746   5.578   1.364
14581TIP3    H243687   4.696   5.719   1.390
14582TIP3   OH243688   1.919   4.807   0.675
14582TIP3    H143689   1.860   4.879   0.654
14582TIP3    H243690   1.992   4.848   0.722
14583TIP3   OH243691   0.749   1.042   0.854
14583TIP3    H143692   0.658   1.064   0.875
14583TIP3    H243693   0.800   1.080   0.926
14584TIP3   OH243694   2.446   3.098   6.495
14584TIP3    H143695   2.464   3.120   6.404
14584TIP3    H243696   2.377   3.032   6.491
14585TIP3   OH243697   1.889   3.715   6.199
14585TIP3    H143698   1.910   3.630   6.159
14585TIP3    H243699   1.971   3.745   6.237
14586TIP3   OH243700   6.543   7.543   3.456
14586TIP3    H143701   6.605   7.570   3.524
14586TIP3    H243702   6.539   7.448   3.464
14587TIP3   OH243703   1.593   2.820   4.082
14587TIP3    H143704   1.554   2.905   4.058
14587TIP3    H243705   1.542   2.756   4.033
14588TIP3   OH243706   6.879   7.432   0.456
14588TIP3    H143707   6.919   7.361   0.506
14588TIP3    H243708   6.822   7.477   0.518
14589TIP3   OH243709   7.406   1.524   5.826
14589TIP3    H143710   7.319   1.484   5.825
14589TIP3    H243711   7.398   1.601   5.770
14590TIP3   OH243712   2.878   0.779   3.014
14590TIP3    H143713   2.825   0.858   3.024
14590TIP3    H243714   2.839   0.732   2.940
14591TIP3   OH243715   0.278   6.101   2.902
14591TIP3    H143716   0.259   6.096   2.808
14591TIP3    H243717   0.270   6.193   2.924
14592TIP3   OH243718   7.981   5.189   0.813
14592TIP3    H143719   7.976   5.279   0.781
14592TIP3    H243720   8.071   5.163   0.795
14593TIP3   OH243721   3.444   6.002   5.336
14593TIP3    H143722   3.429   6.049   5.418
14593TIP3    H243723   3.537   5.980   5.338
14594TIP3   OH243724   4.968   6.828   2.861
14594TIP3    H143725   4.907   6.898   2.840
14594TIP3    H243726   5.050   6.854   2.819
14595TIP3   OH243727   2.087   2.097   1.053
14595TIP3    H143728   2.183   2.100   1.054
14595TIP3    H243729   2.060   2.179   1.093
14596TIP3   OH243730   6.012   5.301   5.760
14596TIP3    H143731   5.960   5.235   5.806
14596TIP3    H243732   6.003   5.278   5.667
14597TIP3   OH243733   4.648   0.748   6.053
14597TIP3    H143734   4.563   0.784   6.079
14597TIP3    H243735   4.671   0.687   6.123
14598TIP3   OH243736   0.506   3.958   6.575
14598TIP3    H143737   0.496   3.942   6.669
14598TIP3    H243738   0.579   4.020   6.569
14599TIP3   OH243739   2.518   5.496   0.177
14599TIP3    H143740   2.451   5.528   0.116
14599TIP3    H243741   2.601   5.527   0.140
14600TIP3   OH243742   6.654   7.090   5.251
14600TIP3    H143743   6.588   7.157   5.267
14600TIP3    H243744   6.733   7.123   5.294
14601TIP3   OH243745   1.386   6.874   4.960
14601TIP3    H143746   1.400   6.966   4.938
14601TIP3    H243747   1.428   6.864   5.045
14602TIP3   OH243748   7.908   2.207   5.842
14602TIP3    H143749   7.877   2.297   5.848
14602TIP3    H243750   7.833   2.154   5.869
14603TIP3   OH243751   3.029   2.364   2.141
14603TIP3    H143752   3.038   2.430   2.072
14603TIP3    H243753   2.937   2.367   2.166
14604TIP3   OH243754   5.752   2.785   4.373
14604TIP3    H143755   5.756   2.745   4.287
14604TIP3    H243756   5.689   2.857   4.363
14605TIP3   OH243757   0.624   0.808   4.905
14605TIP3    H143758   0.579   0.729   4.937
14605TIP3    H243759   0.658   0.850   4.984
14606TIP3   OH243760   2.885   7.675   6.105
14606TIP3    H143761   2.946   7.648   6.037
14606TIP3    H243762   2.844   7.594   6.135
14607TIP3   OH243763   0.062   7.036   0.685
14607TIP3    H143764   0.053   7.131   0.692
14607TIP3    H243765   0.068   7.019   0.591
14608TIP3   OH243766   0.215   4.779   2.372
14608TIP3    H143767   0.308   4.778   2.349
14608TIP3    H243768   0.188   4.687   2.369
14609TIP3   OH243769   7.425   1.556   1.450
14609TIP3    H143770   7.517   1.538   1.430
14609TIP3    H243771   7.385   1.578   1.366
14610TIP3   OH243772   0.056   7.772   5.460
14610TIP3    H143773   0.134   7.757   5.406
14610TIP3    H243774  -0.015   7.782   5.396
14611TIP3   OH243775   8.190   3.406   6.490
14611TIP3    H143776   8.260   3.371   6.545
14611TIP3    H243777   8.142   3.329   6.460
14612TIP3   OH243778   6.804   4.571   0.963
14612TIP3    H143779   6.743   4.502   0.987
14612TIP3    H243780   6.752   4.631   0.910
14613TIP3   OH243781   7.259   1.430   6.727
14613TIP3    H143782   7.320   1.402   6.659
14613TIP3    H243783   7.173   1.404   6.693
14614TIP3   OH243784   1.067   2.871   2.005
14614TIP3    H143785   0.993   2.905   2.056
14614TIP3    H243786   1.054   2.906   1.917
14615TIP3   OH243787   8.119   2.612   2.234
14615TIP3    H143788   8.093   2.545   2.171
14615TIP3    H243789   8.037   2.659   2.255
14616TIP3   OH243790   7.248   2.347   2.559
14616TIP3    H143791   7.173   2.352   2.500
14616TIP3    H243792   7.222   2.285   2.626
14617TIP3   OH243793   3.065   4.388   3.797
14617TIP3    H143794   3.067   4.391   3.892
14617TIP3    H243795   3.014   4.465   3.771
14618TIP3   OH243796   6.809   7.030   5.746
14618TIP3    H143797   6.856   7.114   5.752
14618TIP3    H243798   6.869   6.973   5.698
14619TIP3   OH243799   4.111   1.906   2.950
14619TIP3    H143800   4.103   1.999   2.931
14619TIP3    H243801   4.057   1.893   3.028
14620TIP3   OH243802   1.399   7.803   0.056
14620TIP3    H143803   1.373   7.848   0.136
14620TIP3    H243804   1.319   7.796   0.004
14621TIP3   OH243805   2.906   1.098   0.286
14621TIP3    H143806   2.883   1.111   0.194
14621TIP3    H243807   2.839   1.146   0.335
14622TIP3   OH243808   5.744   1.167   1.320
14622TIP3    H143809   5.718   1.132   1.235
14622TIP3    H243810   5.668   1.217   1.350
14623TIP3   OH243811   7.395   2.495   6.387
14623TIP3    H143812   7.451   2.418   6.400
14623TIP3    H243813   7.310   2.460   6.364
14624TIP3   OH243814   6.617   6.389   5.124
14624TIP3    H143815   6.528   6.422   5.117
14624TIP3    H243816   6.609   6.308   5.175
14625TIP3   OH243817   7.804   5.228   0.420
14625TIP3    H143818   7.828   5.151   0.369
14625TIP3    H243819   7.869   5.294   0.395
14626TIP3   OH243820   2.492   6.190   6.142
14626TIP3    H143821   2.542   6.266   6.173
14626TIP3    H243822   2.555   6.141   6.089
14627TIP3   OH243823   7.786   2.415   5.578
14627TIP3    H143824   7.859   2.410   5.517
14627TIP3    H243825   7.812   2.481   5.642
14628TIP3   OH243826   5.257   0.630   2.844
14628TIP3    H143827   5.198   0.693   2.803
14628TIP3    H243828   5.211   0.546   2.838
14629TIP3   OH243829   1.185   1.444   0.433
14629TIP3    H143830   1.219   1.442   0.344
14629TIP3    H243831   1.198   1.354   0.465
14630TIP3   OH243832   3.427   4.592   3.941
14630TIP3    H143833   3.335   4.585   3.962
14630TIP3    H243834   3.467   4.512   3.976
14631TIP3   OH243835   2.945   5.456   5.224
14631TIP3    H143836   2.904   5.525   5.276
14631TIP3    H243837   3.027   5.494   5.193
14632TIP3   OH243838   6.528   0.264   5.145
14632TIP3    H143839   6.618   0.231   5.145
14632TIP3    H243840   6.531   0.340   5.087
14633TIP3   OH243841   6.599   7.776   6.294
14633TIP3    H143842   6.677   7.748   6.245
14633TIP3    H243843   6.542   7.699   6.294
14634TIP3   OH243844   3.694   3.539   0.406
14634TIP3    H143845   3.704   3.513   0.315
14634TIP3    H243846   3.770   3.595   0.424
14635TIP3   OH243847   4.916   2.278   2.922
14635TIP3    H143848   4.918   2.189   2.957
14635TIP3    H243849   4.881   2.267   2.833
14636TIP3   OH243850   0.700   1.016   3.496
14636TIP3    H143851   0.637   0.991   3.564
14636TIP3    H243852   0.772   0.954   3.506
14637TIP3   OH243853   6.503   5.155   3.320
14637TIP3    H143854   6.571   5.117   3.376
14637TIP3    H243855   6.422   5.113   3.350
14638TIP3   OH243856   2.486   0.573   4.793
14638TIP3    H143857   2.408   0.626   4.811
14638TIP3    H243858   2.549   0.598   4.860
14639TIP3   OH243859   3.173   7.722   2.072
14639TIP3    H143860   3.201   7.765   2.153
14639TIP3    H243861   3.233   7.648   2.063
14640TIP3   OH243862   3.139   1.518   0.873
14640TIP3    H143863   3.102   1.528   0.961
14640TIP3    H243864   3.074   1.558   0.815
14641TIP3   OH243865   4.963   6.866   4.073
14641TIP3    H143866   4.974   6.961   4.068
14641TIP3    H243867   4.995   6.843   4.160
14642TIP3   OH243868   6.481   1.829   6.633
14642TIP3    H143869   6.413   1.868   6.688
14642TIP3    H243870   6.516   1.758   6.686
14643TIP3   OH243871   1.194   4.252   6.513
14643TIP3    H143872   1.176   4.267   6.420
14643TIP3    H243873   1.266   4.189   6.513
14644TIP3   OH243874   4.978   4.932   4.256
14644TIP3    H143875   4.886   4.911   4.267
14644TIP3    H243876   5.002   4.894   4.171
14645TIP3   OH243877   5.075   0.093   0.992
14645TIP3    H143878   5.157   0.137   1.015
14645TIP3    H243879   5.093   0.050   0.908
14646TIP3   OH243880   6.140   0.382   5.087
14646TIP3    H143881   6.174   0.308   5.137
14646TIP3    H243882   6.190   0.457   5.120
14647TIP3   OH243883   3.668   1.975   4.923
14647TIP3    H143884   3.636   1.961   5.012
14647TIP3    H243885   3.591   2.006   4.875
14648TIP3   OH243886   4.274   4.441   4.184
14648TIP3    H143887   4.300   4.364   4.134
14648TIP3    H243888   4.195   4.472   4.141
14649TIP3   OH243889   7.371   0.040   4.684
14649TIP3    H143890   7.325   0.047   4.768
14649TIP3    H243891   7.300   0.040   4.619
14650TIP3   OH243892   7.262   0.639   2.457
14650TIP3    H143893   7.346   0.614   2.493
14650TIP3    H243894   7.212   0.558   2.453
14651TIP3   OH243895   6.156   0.996   2.716
14651TIP3    H143896   6.205   1.041   2.786
14651TIP3    H243897   6.196   1.028   2.635
14652TIP3   OH243898   3.656   3.889   6.058
14652TIP3    H143899   3.629   3.838   5.982
14652TIP3    H243900   3.574   3.919   6.097
14653TIP3   OH243901   4.258   5.413   1.301
14653TIP3    H143902   4.304   5.471   1.362
14653TIP3    H243903   4.294   5.434   1.215
14654TIP3   OH243904   7.348   7.228   3.193
14654TIP3    H143905   7.357   7.172   3.115
14654TIP3    H243906   7.255   7.223   3.214
14655TIP3   OH243907   7.946   2.346   4.338
14655TIP3    H143908   7.856   2.317   4.355
14655TIP3    H243909   7.944   2.440   4.352
14656TIP3   OH243910   4.025   0.093   2.507
14656TIP3    H143911   3.994   0.183   2.501
14656TIP3    H243912   4.048   0.082   2.600
14657TIP3   OH243913   1.335   1.426   4.720
14657TIP3    H143914   1.242   1.428   4.741
14657TIP3    H243915   1.367   1.345   4.759
14658TIP3   OH243916   3.677   4.299   5.701
14658TIP3    H143917   3.685   4.301   5.796
14658TIP3    H243918   3.680   4.206   5.679
14659TIP3   OH243919   1.616   2.044   6.036
14659TIP3    H143920   1.571   2.102   6.098
14659TIP3    H243921   1.705   2.036   6.070
14660TIP3   OH243922   2.032   0.165   5.866
14660TIP3    H143923   2.124   0.190   5.872
14660TIP3    H243924   1.988   0.218   5.933
14661TIP3   OH243925   3.521   1.992   2.438
14661TIP3    H143926   3.545   1.940   2.361
14661TIP3    H243927   3.572   2.073   2.430
14662TIP3   OH243928   7.802   0.981   4.418
14662TIP3    H143929   7.892   1.002   4.444
14662TIP3    H243930   7.810   0.951   4.327
14663TIP3   OH243931   7.007   3.900   2.327
14663TIP3    H143932   6.930   3.851   2.356
14663TIP3    H243933   6.971   3.973   2.277
14664TIP3   OH243934   6.092   3.108   0.379
14664TIP3    H143935   6.168   3.051   0.369
14664TIP3    H243936   6.129   3.194   0.399
14665TIP3   OH243937   8.211   0.055   2.094
14665TIP3    H143938   8.305   0.060   2.075
14665TIP3    H243939   8.172   0.016   2.016
14666TIP3   OH243940   1.530   3.424   5.666
14666TIP3    H143941   1.487   3.508   5.685
14666TIP3    H243942   1.472   3.358   5.704
14667TIP3   OH243943   4.826   1.023   2.839
14667TIP3    H143944   4.910   1.002   2.880
14667TIP3    H243945   4.775   1.064   2.909
14668TIP3   OH243946   4.553   5.059   6.262
14668TIP3    H143947   4.463   5.077   6.234
14668TIP3    H243948   4.575   4.976   6.219
14669TIP3   OH243949   0.009   4.382   0.659
14669TIP3    H143950  -0.084   4.383   0.685
14669TIP3    H243951   0.053   4.333   0.729
14670TIP3   OH243952   2.714   2.228   5.012
14670TIP3    H143953   2.724   2.209   4.918
14670TIP3    H243954   2.695   2.144   5.052
14671TIP3   OH243955   7.636   1.466   4.560
14671TIP3    H143956   7.641   1.377   4.526
14671TIP3    H243957   7.696   1.516   4.504
14672TIP3   OH243958   7.950   3.486   2.459
14672TIP3    H143959   7.951   3.516   2.550
14672TIP3    H243960   7.900   3.404   2.462
14673TIP3   OH243961   2.587   1.741   1.750
14673TIP3    H143962   2.592   1.775   1.839
14673TIP3    H243963   2.571   1.648   1.761
14674TIP3   OH243964   5.359   5.220   4.214
14674TIP3    H143965   5.318   5.272   4.145
14674TIP3    H243966   5.341   5.129   4.190
14675TIP3   OH243967   1.858   4.227   5.919
14675TIP3    H143968   1.770   4.238   5.882
14675TIP3    H243969   1.844   4.179   6.000
14676TIP3   OH243970   5.942   4.256   5.879
14676TIP3    H143971   5.984   4.336   5.846
14676TIP3    H243972   5.854   4.258   5.841
14677TIP3   OH243973   6.078   6.877   5.098
14677TIP3    H143974   6.038   6.796   5.129
14677TIP3    H243975   6.170   6.870   5.125
14678TIP3   OH243976   5.931   0.987   5.034
14678TIP3    H143977   5.848   1.032   5.050
14678TIP3    H243978   5.910   0.920   4.968
14679TIP3   OH243979   3.375   1.916  -0.023
14679TIP3    H143980   3.349   1.975   0.048
14679TIP3    H243981   3.310   1.846  -0.023
14680TIP3   OH243982   6.276   2.304   0.862
14680TIP3    H143983   6.304   2.382   0.909
14680TIP3    H243984   6.187   2.287   0.894
14681TIP3   OH243985   6.439   0.546   5.412
14681TIP3    H143986   6.471   0.460   5.440
14681TIP3    H243987   6.437   0.598   5.492
14682TIP3   OH243988   7.626   2.519   4.033
14682TIP3    H143989   7.552   2.533   4.093
14682TIP3    H243990   7.588   2.528   3.946
14683TIP3   OH243991   1.550   2.345   1.052
14683TIP3    H143992   1.645   2.353   1.049
14683TIP3    H243993   1.523   2.417   1.110
14684TIP3   OH243994   0.708   6.662   4.846
14684TIP3    H143995   0.739   6.747   4.812
14684TIP3    H243996   0.783   6.627   4.895
14685TIP3   OH243997   7.612   6.367   3.878
14685TIP3    H143998   7.642   6.399   3.793
14685TIP3    H243999   7.688   6.375   3.936
14686TIP3   OH244000   2.443   3.732   4.931
14686TIP3    H144001   2.389   3.811   4.933
14686TIP3    H244002   2.381   3.662   4.912
14687TIP3   OH244003   7.275   2.372   0.441
14687TIP3    H144004   7.266   2.453   0.491
14687TIP3    H244005   7.365   2.345   0.456
14688TIP3   OH244006   3.013   3.617   1.163
14688TIP3    H144007   2.957   3.674   1.111
14688TIP3    H244008   2.953   3.555   1.205
14689TIP3   OH244009   7.868   7.701   0.796
14689TIP3    H144010   7.958   7.675   0.815
14689TIP3    H244011   7.815   7.643   0.851
14690TIP3   OH244012   5.283   4.437   4.323
14690TIP3    H144013   5.206   4.381   4.333
14690TIP3    H244014   5.356   4.385   4.358
14691TIP3   OH244015   8.131   0.719   0.200
14691TIP3    H144016   8.181   0.796   0.227
14691TIP3    H244017   8.081   0.694   0.277
14692TIP3   OH244018   6.645   5.332   4.167
14692TIP3    H144019   6.594   5.396   4.116
14692TIP3    H244020   6.719   5.382   4.201
14693TIP3   OH244021   0.989   6.206   5.245
14693TIP3    H144022   0.895   6.223   5.240
14693TIP3    H244023   0.997   6.113   5.263
14694TIP3   OH244024   1.657   4.704   4.608
14694TIP3    H144025   1.688   4.772   4.668
14694TIP3    H244026   1.700   4.724   4.525
14695TIP3   OH244027   2.564   1.756   4.786
14695TIP3    H144028   2.592   1.847   4.792
14695TIP3    H244029   2.468   1.760   4.787
14696TIP3   OH244030   3.681   1.721   4.217
14696TIP3    H144031   3.683   1.751   4.126
14696TIP3    H244032   3.657   1.799   4.267
14697TIP3   OH244033   6.160   3.564   1.055
14697TIP3    H144034   6.174   3.648   1.097
14697TIP3    H244035   6.067   3.547   1.064
14698TIP3   OH244036   4.671   5.410   6.296
14698TIP3    H144037   4.650   5.363   6.215
14698TIP3    H244038   4.764   5.429   6.289
14699TIP3   OH244039   6.275   1.584   2.462
14699TIP3    H144040   6.281   1.622   2.374
14699TIP3    H244041   6.200   1.525   2.457
14700TIP3   OH244042   5.784   3.891   5.716
14700TIP3    H144043   5.757   3.872   5.806
14700TIP3    H244044   5.866   3.841   5.705
14701TIP3   OH244045   1.417   3.972   2.294
14701TIP3    H144046   1.455   4.028   2.225
14701TIP3    H244047   1.477   3.898   2.301
14702TIP3   OH244048   5.536   1.126   3.571
14702TIP3    H144049   5.509   1.038   3.544
14702TIP3    H244050   5.619   1.112   3.617
14703TIP3   OH244051   6.398   1.983   0.429
14703TIP3    H144052   6.396   1.929   0.508
14703TIP3    H244053   6.483   2.027   0.432
14704TIP3   OH244054   5.107   6.911   4.298
14704TIP3    H144055   5.142   6.977   4.358
14704TIP3    H244056   5.119   6.828   4.344
14705TIP3   OH244057   3.370   1.516   0.555
14705TIP3    H144058   3.415   1.454   0.497
14705TIP3    H244059   3.328   1.461   0.621
14706TIP3   OH244060   2.147   4.137   3.990
14706TIP3    H144061   2.153   4.086   4.070
14706TIP3    H244062   2.066   4.108   3.949
14707TIP3   OH244063   3.937   4.211   5.182
14707TIP3    H144064   3.975   4.247   5.262
14707TIP3    H244065   3.975   4.263   5.112
14708TIP3   OH244066   7.120   1.774   5.342
14708TIP3    H144067   7.147   1.686   5.368
14708TIP3    H244068   7.025   1.774   5.352
14709TIP3   OH244069   3.942   5.973   1.408
14709TIP3    H144070   3.893   5.944   1.486
14709TIP3    H244071   4.034   5.965   1.434
14710TIP3   OH244072   7.956   2.680   0.527
14710TIP3    H144073   7.938   2.773   0.535
14710TIP3    H244074   8.047   2.675   0.497
14711TIP3   OH244075   0.450   2.554   6.633
14711TIP3    H144076   0.464   2.641   6.671
14711TIP3    H244077   0.357   2.537   6.648
14712TIP3   OH244078   6.959   4.335   4.808
14712TIP3    H144079   6.934   4.426   4.789
14712TIP3    H244080   7.020   4.312   4.738
14713TIP3   OH244081   2.665   5.901   1.294
14713TIP3    H144082   2.621   5.849   1.227
14713TIP3    H244083   2.756   5.872   1.290
14714TIP3   OH244084   6.591   0.452   2.667
14714TIP3    H144085   6.660   0.431   2.730
14714TIP3    H244086   6.555   0.367   2.642
14715TIP3   OH244087   4.817   6.914   6.143
14715TIP3    H144088   4.892   6.912   6.202
14715TIP3    H244089   4.806   6.823   6.116
14716TIP3   OH244090   4.421   6.439   4.112
14716TIP3    H144091   4.407   6.349   4.141
14716TIP3    H244092   4.375   6.493   4.176
14717TIP3   OH244093   0.710   5.441   1.612
14717TIP3    H144094   0.745   5.388   1.683
14717TIP3    H244095   0.615   5.428   1.617
14718TIP3   OH244096   0.707   0.788   5.784
14718TIP3    H144097   0.719   0.720   5.718
14718TIP3    H244098   0.787   0.840   5.780
14719TIP3   OH244099   6.147   0.770   0.329
14719TIP3    H144100   6.139   0.839   0.394
14719TIP3    H244101   6.068   0.716   0.340
14720TIP3   OH244102   7.949   1.106   2.482
14720TIP3    H144103   8.027   1.152   2.514
14720TIP3    H244104   7.897   1.174   2.439
14721TIP3   OH244105   5.555   1.160   3.213
14721TIP3    H144106   5.479   1.219   3.207
14721TIP3    H244107   5.593   1.161   3.125
14722TIP3   OH244108   1.807   4.347   3.583
14722TIP3    H144109   1.747   4.408   3.627
14722TIP3    H244110   1.894   4.384   3.597
14723TIP3   OH244111   6.599   2.041   2.180
14723TIP3    H144112   6.608   2.121   2.232
14723TIP3    H244113   6.669   2.047   2.115
14724TIP3   OH244114   0.351   3.963   1.465
14724TIP3    H144115   0.426   4.020   1.447
14724TIP3    H244116   0.372   3.881   1.421
14725TIP3   OH244117   1.269   1.932   3.813
14725TIP3    H144118   1.271   1.944   3.718
14725TIP3    H244119   1.236   2.015   3.847
14726TIP3   OH244120   3.554   1.279   3.228
14726TIP3    H144121   3.554   1.195   3.275
14726TIP3    H244122   3.485   1.270   3.163
14727TIP3   OH244123   2.384   4.788   1.302
14727TIP3    H144124   2.360   4.801   1.210
14727TIP3    H244125   2.366   4.695   1.318
14728TIP3   OH244126   2.422   6.393   3.163
14728TIP3    H144127   2.378   6.473   3.193
14728TIP3    H244128   2.379   6.323   3.212
14729TIP3   OH244129   2.451   7.668   5.915
14729TIP3    H144130   2.491   7.583   5.896
14729TIP3    H244131   2.382   7.649   5.979
14730TIP3   OH244132   5.752   3.328   4.829
14730TIP3    H144133   5.838   3.325   4.870
14730TIP3    H244134   5.755   3.260   4.761
14731TIP3   OH244135   6.774   7.482   5.915
14731TIP3    H144136   6.695   7.428   5.912
14731TIP3    H244137   6.813   7.472   5.828
14732TIP3   OH244138   4.167   1.162   0.191
14732TIP3    H144139   4.130   1.096   0.134
14732TIP3    H244140   4.201   1.112   0.266
14733TIP3   OH244141   3.697   4.041   5.632
14733TIP3    H144142   3.717   4.035   5.539
14733TIP3    H244143   3.637   3.968   5.648
14734TIP3   OH244144   1.765   6.183   4.891
14734TIP3    H144145   1.817   6.248   4.843
14734TIP3    H244146   1.831   6.128   4.935
14735TIP3   OH244147   3.477   3.394   4.050
14735TIP3    H144148   3.522   3.354   3.975
14735TIP3    H244149   3.493   3.488   4.040
14736TIP3   OH244150   4.005   3.634   6.346
14736TIP3    H144151   3.947   3.610   6.273
14736TIP3    H244152   4.035   3.550   6.381
14737TIP3   OH244153   6.636   4.459   0.704
14737TIP3    H144154   6.650   4.398   0.631
14737TIP3    H244155   6.705   4.525   0.693
14738TIP3   OH244156   1.665   3.745   1.791
14738TIP3    H144157   1.751   3.737   1.750
14738TIP3    H244158   1.681   3.793   1.872
14739TIP3   OH244159   0.030   1.641   6.415
14739TIP3    H144160   0.089   1.710   6.443
14739TIP3    H244161  -0.051   1.658   6.462
14740TIP3   OH244162   3.642   7.491   1.229
14740TIP3    H144163   3.673   7.404   1.206
14740TIP3    H244164   3.550   7.478   1.256
14741TIP3   OH244165   4.839   5.166   6.380
14741TIP3    H144166   4.810   5.077   6.399
14741TIP3    H244167   4.795   5.188   6.297
14742TIP3   OH244168   1.638   4.917   2.935
14742TIP3    H144169   1.712   4.955   2.984
14742TIP3    H244170   1.628   4.829   2.972
14743TIP3   OH244171   4.837   1.004   6.759
14743TIP3    H144172   4.924   1.015   6.720
14743TIP3    H244173   4.848   0.937   6.826
14744TIP3   OH244174   6.939   5.380   3.332
14744TIP3    H144175   6.978   5.349   3.251
14744TIP3    H244176   6.883   5.307   3.362
14745TIP3   OH244177   5.753   5.280   6.318
14745TIP3    H144178   5.777   5.191   6.344
14745TIP3    H244179   5.781   5.287   6.227
14746TIP3   OH244180   3.010   6.457   1.663
14746TIP3    H144181   2.960   6.390   1.617
14746TIP3    H244182   2.947   6.528   1.678
14747TIP3   OH244183   7.089   3.602   5.746
14747TIP3    H144184   7.120   3.522   5.788
14747TIP3    H244185   7.156   3.667   5.766
14748TIP3   OH244186   4.761   1.762   4.883
14748TIP3    H144187   4.828   1.827   4.904
14748TIP3    H244188   4.702   1.808   4.823
14749TIP3   OH244189   5.568   5.460   2.427
14749TIP3    H144190   5.510   5.517   2.377
14749TIP3    H244191   5.654   5.471   2.386
14750TIP3   OH244192   6.498   3.456   0.159
14750TIP3    H144193   6.481   3.548   0.137
14750TIP3    H244194   6.418   3.410   0.135
14751TIP3   OH244195   3.359   3.244   6.027
14751TIP3    H144196   3.427   3.260   6.092
14751TIP3    H244197   3.294   3.313   6.043
14752TIP3   OH244198   4.833   6.667   2.575
14752TIP3    H144199   4.783   6.587   2.559
14752TIP3    H244200   4.922   6.646   2.544
14753TIP3   OH244201   1.910   2.081   2.792
14753TIP3    H144202   1.845   2.109   2.856
14753TIP3    H244203   1.978   2.037   2.844
14754TIP3   OH244204   5.407   0.940   6.384
14754TIP3    H144205   5.427   0.893   6.303
14754TIP3    H244206   5.492   0.969   6.417
14755TIP3   OH244207   1.919   7.423   3.526
14755TIP3    H144208   1.839   7.466   3.496
14755TIP3    H244209   1.936   7.355   3.461
14756TIP3   OH244210   7.529   7.035   6.271
14756TIP3    H144211   7.604   7.063   6.323
14756TIP3    H244212   7.564   7.023   6.183
14757TIP3   OH244213   4.152   0.315   6.718
14757TIP3    H144214   4.073   0.268   6.690
14757TIP3    H244215   4.149   0.312   6.814
14758TIP3   OH244216   4.352   2.565   0.397
14758TIP3    H144217   4.400   2.580   0.478
14758TIP3    H244218   4.377   2.476   0.370
14759TIP3   OH244219   7.525   6.952   0.383
14759TIP3    H144220   7.607   6.977   0.342
14759TIP3    H244221   7.484   7.035   0.408
14760TIP3   OH244222   1.205   1.272   3.129
14760TIP3    H144223   1.243   1.243   3.212
14760TIP3    H244224   1.281   1.291   3.074
14761TIP3   OH244225   1.937   2.443   1.694
14761TIP3    H144226   2.009   2.380   1.686
14761TIP3    H244227   1.939   2.470   1.786
14762TIP3   OH244228   7.068   2.568   2.693
14762TIP3    H144229   7.131   2.513   2.646
14762TIP3    H244230   6.992   2.572   2.635
14763TIP3   OH244231   6.484   6.185   0.148
14763TIP3    H144232   6.527   6.202   0.231
14763TIP3    H244233   6.402   6.140   0.171
14764TIP3   OH244234   2.834   0.172   3.097
14764TIP3    H144235   2.893   0.219   3.156
14764TIP3    H244236   2.889   0.102   3.060
14765TIP3   OH244237   6.622   2.266   2.367
14765TIP3    H144238   6.570   2.331   2.319
14765TIP3    H244239   6.681   2.318   2.422
14766TIP3   OH244240   1.468   2.804   3.519
14766TIP3    H144241   1.424   2.853   3.449
14766TIP3    H244242   1.397   2.778   3.578
14767TIP3   OH244243   1.078   6.047   4.145
14767TIP3    H144244   1.149   6.005   4.194
14767TIP3    H244245   1.009   6.060   4.210
14768TIP3   OH244246   3.672   1.399   1.387
14768TIP3    H144247   3.623   1.481   1.393
14768TIP3    H244248   3.741   1.418   1.323
14769TIP3   OH244249   7.203   4.740   6.657
14769TIP3    H144250   7.198   4.733   6.561
14769TIP3    H244251   7.119   4.705   6.687
14770TIP3   OH244252   0.793   2.172   6.218
14770TIP3    H144253   0.832   2.129   6.294
14770TIP3    H244254   0.812   2.265   6.230
14771TIP3   OH244255   3.216   7.574   4.814
14771TIP3    H144256   3.187   7.517   4.743
14771TIP3    H244257   3.202   7.662   4.781
14772TIP3   OH244258   1.899   2.214   6.087
14772TIP3    H144259   1.893   2.238   5.994
14772TIP3    H244260   1.990   2.187   6.099
14773TIP3   OH244261   5.789   5.892   3.954
14773TIP3    H144262   5.810   5.816   3.901
14773TIP3    H244263   5.847   5.961   3.921
14774TIP3   OH244264   7.565   4.435   5.712
14774TIP3    H144265   7.604   4.514   5.748
14774TIP3    H244266   7.620   4.364   5.745
14775TIP3   OH244267   6.808   1.259   0.673
14775TIP3    H144268   6.897   1.232   0.651
14775TIP3    H244269   6.819   1.337   0.727
14776TIP3   OH244270   5.902   5.612   5.693
14776TIP3    H144271   5.890   5.541   5.756
14776TIP3    H244272   5.815   5.652   5.685
14777TIP3   OH244273   6.447   2.379   0.583
14777TIP3    H144274   6.386   2.449   0.607
14777TIP3    H244275   6.440   2.315   0.654
14778TIP3   OH244276   2.582   1.935   2.094
14778TIP3    H144277   2.504   1.989   2.079
14778TIP3    H244278   2.648   1.971   2.036
14779TIP3   OH244279   0.994   0.981   2.092
14779TIP3    H144280   0.993   1.061   2.144
14779TIP3    H244281   0.923   0.928   2.128
14780TIP3   OH244282   3.509   0.280   4.763
14780TIP3    H144283   3.415   0.261   4.750
14780TIP3    H244284   3.523   0.266   4.857
14781TIP3   OH244285   7.644   0.867   3.119
14781TIP3    H144286   7.734   0.901   3.126
14781TIP3    H244287   7.654   0.782   3.077
14782TIP3   OH244288   3.307   3.734   3.550
14782TIP3    H144289   3.325   3.671   3.619
14782TIP3    H244290   3.259   3.805   3.593
14783TIP3   OH244291   4.237   6.660   6.084
14783TIP3    H144292   4.265   6.660   5.992
14783TIP3    H244293   4.301   6.604   6.128
14784TIP3   OH244294   4.604   3.526   1.274
14784TIP3    H144295   4.530   3.530   1.334
14784TIP3    H244296   4.588   3.597   1.211
14785TIP3   OH244297   3.067   7.071   5.190
14785TIP3    H144298   3.097   7.128   5.119
14785TIP3    H244299   3.006   7.125   5.240
14786TIP3   OH244300   5.981   2.511   4.628
14786TIP3    H144301   6.072   2.490   4.610
14786TIP3    H244302   5.933   2.472   4.554
14787TIP3   OH244303   1.179   3.014   0.666
14787TIP3    H144304   1.191   2.928   0.625
14787TIP3    H244305   1.109   3.055   0.616
14788TIP3   OH244306   2.655   3.717   4.030
14788TIP3    H144307   2.599   3.688   3.959
14788TIP3    H244308   2.725   3.766   3.986
14789TIP3   OH244309   5.747   6.599   2.417
14789TIP3    H144310   5.745   6.690   2.446
14789TIP3    H244311   5.655   6.578   2.399
14790TIP3   OH244312   0.140   1.024   0.780
14790TIP3    H144313   0.164   0.933   0.762
14790TIP3    H244314   0.214   1.076   0.750
14791TIP3   OH244315   1.065   0.760   5.081
14791TIP3    H144316   1.129   0.719   5.023
14791TIP3    H244317   1.095   0.737   5.169
14792TIP3   OH244318   8.207   5.283   2.203
14792TIP3    H144319   8.258   5.207   2.175
14792TIP3    H244320   8.271   5.340   2.247
14793TIP3   OH244321   1.568   1.645   6.453
14793TIP3    H144322   1.634   1.684   6.397
14793TIP3    H244323   1.609   1.640   6.539
14794TIP3   OH244324   1.340   3.308   0.408
14794TIP3    H144325   1.252   3.272   0.425
14794TIP3    H244326   1.371   3.337   0.493
14795TIP3   OH244327   6.326   5.814   1.928
14795TIP3    H144328   6.331   5.765   2.010
14795TIP3    H244329   6.303   5.904   1.954
14796TIP3   OH244330   1.505   0.898   0.868
14796TIP3    H144331   1.595   0.873   0.846
14796TIP3    H244332   1.464   0.917   0.783
14797TIP3   OH244333   7.005   6.861   1.708
14797TIP3    H144334   6.983   6.947   1.671
14797TIP3    H244335   7.065   6.882   1.780
14798TIP3   OH244336   6.082   0.792   6.258
14798TIP3    H144337   6.159   0.847   6.272
14798TIP3    H244338   6.028   0.841   6.197
14799TIP3   OH244339   4.780   2.929   6.572
14799TIP3    H144340   4.752   2.981   6.497
14799TIP3    H244341   4.873   2.949   6.581
14800TIP3   OH244342   4.837   4.027   4.299
14800TIP3    H144343   4.891   3.958   4.338
14800TIP3    H244344   4.843   4.100   4.361
14801TIP3   OH244345   3.528   6.249   5.487
14801TIP3    H144346   3.622   6.266   5.477
14801TIP3    H244347   3.492   6.333   5.517
14802TIP3   OH244348   4.912   3.783   3.635
14802TIP3    H144349   4.868   3.699   3.621
14802TIP3    H244350   4.851   3.848   3.599
14803TIP3   OH244351   6.707   2.858   6.583
14803TIP3    H144352   6.743   2.934   6.630
14803TIP3    H244353   6.746   2.864   6.496
14804TIP3   OH244354   2.413   5.071   5.548
14804TIP3    H144355   2.336   5.124   5.527
14804TIP3    H244356   2.486   5.119   5.507
14805TIP3   OH244357   2.729   2.778   0.749
14805TIP3    H144358   2.663   2.771   0.679
14805TIP3    H244359   2.679   2.808   0.825
14806TIP3   OH244360   6.929   5.806   0.256
14806TIP3    H144361   7.010   5.795   0.206
14806TIP3    H244362   6.958   5.807   0.348
14807TIP3   OH244363   3.399   6.464   5.982
14807TIP3    H144364   3.348   6.401   5.932
14807TIP3    H244365   3.375   6.447   6.074
14808TIP3   OH244366   5.395   6.590   6.169
14808TIP3    H144367   5.486   6.561   6.156
14808TIP3    H244368   5.375   6.640   6.090
14809TIP3   OH244369   4.559   7.745   4.334
14809TIP3    H144370   4.559   7.655   4.301
14809TIP3    H244371   4.467   7.767   4.344
14810TIP3   OH244372   7.427   3.360   2.267
14810TIP3    H144373   7.491   3.311   2.216
14810TIP3    H244374   7.418   3.444   2.222
14811TIP3   OH244375   3.667   1.833   3.626
14811TIP3    H144376   3.605   1.881   3.681
14811TIP3    H244377   3.751   1.844   3.670
14812TIP3   OH244378   3.108   3.814   3.775
14812TIP3    H144379   3.076   3.837   3.687
14812TIP3    H244380   3.196   3.851   3.778
14813TIP3   OH244381   7.569   2.286   1.512
14813TIP3    H144382   7.627   2.211   1.502
14813TIP3    H244383   7.579   2.335   1.431
14814TIP3   OH244384   3.606   0.122   2.033
14814TIP3    H144385   3.698   0.105   2.053
14814TIP3    H244386   3.607   0.170   1.950
14815TIP3   OH244387   0.318   7.011   2.131
14815TIP3    H144388   0.294   6.940   2.190
14815TIP3    H244389   0.341   7.084   2.189
14816TIP3   OH244390   5.613   1.218   5.732
14816TIP3    H144391   5.574   1.174   5.656
14816TIP3    H244392   5.556   1.294   5.748
14817TIP3   OH244393   3.967   0.804   4.178
14817TIP3    H144394   3.990   0.720   4.216
14817TIP3    H244395   3.914   0.847   4.245
14818TIP3   OH244396   3.999   2.441   3.928
14818TIP3    H144397   3.960   2.359   3.896
14818TIP3    H244398   3.948   2.462   4.006
14819TIP3   OH244399   7.984   7.557   5.206
14819TIP3    H144400   8.041   7.483   5.189
14819TIP3    H244401   8.041   7.623   5.247
14820TIP3   OH244402   1.840   4.218   0.712
14820TIP3    H144403   1.898   4.156   0.666
14820TIP3    H244404   1.809   4.277   0.643
14821TIP3   OH244405   3.891   4.979   5.346
14821TIP3    H144406   3.810   4.962   5.395
14821TIP3    H244407   3.878   4.936   5.262
14822TIP3   OH244408   2.965   5.149   4.222
14822TIP3    H144409   2.899   5.082   4.243
14822TIP3    H244410   2.929   5.196   4.147
14823TIP3   OH244411   0.609   6.157   3.013
14823TIP3    H144412   0.588   6.211   3.089
14823TIP3    H244413   0.544   6.181   2.947
14824TIP3   OH244414   7.958   0.698   4.585
14824TIP3    H144415   7.986   0.735   4.501
14824TIP3    H244416   7.894   0.631   4.561
14825TIP3   OH244417   0.452   7.758   5.639
14825TIP3    H144418   0.449   7.670   5.675
14825TIP3    H244419   0.389   7.757   5.567
14826TIP3   OH244420   0.061   0.711   4.271
14826TIP3    H144421   0.020   0.797   4.266
14826TIP3    H244422  -0.003   0.652   4.231
14827TIP3   OH244423   7.155   3.087   2.551
14827TIP3    H144424   7.250   3.074   2.554
14827TIP3    H244425   7.129   3.095   2.643
14828TIP3   OH244426   6.891   7.615   4.672
14828TIP3    H144427   6.814   7.583   4.625
14828TIP3    H244428   6.932   7.536   4.707
14829TIP3   OH244429   4.068   0.656   0.474
14829TIP3    H144430   4.040   0.568   0.499
14829TIP3    H244431   4.151   0.668   0.521
14830TIP3   OH244432   7.706   5.631   3.931
14830TIP3    H144433   7.613   5.653   3.924
14830TIP3    H244434   7.745   5.706   3.977
   8.29702   7.82251   6.77449   0.00000   0.00000  -2.76567   0.00000  -2.76567  -3.91125
